LAMMPS data file via write_data, version 30 Jul 2016, timestep = 100000000

644 atoms
2 atom types

0.0000000000000000e+00 2.0000000000000000e+01 xlo xhi
0.0000000000000000e+00 2.0000000000000000e+01 ylo yhi
0.0000000000000000e+00 2.0000000000000000e+01 zlo zhi

Masses

1 4.31
2 3.896

Atoms # meso-molecular

575 0 1 1.0279932295252818e+00 -4.1987308592353379e+01 1.0000000000000000e+00 6.3064607022942933e+00 6.6767397504919934e+00 2.5281352523293323e+00 
57 0 1 1.0279934825722286e+00 -6.6671347126256762e+01 1.0000000000000000e+00 6.3052666054236122e+00 6.6793368093884675e+00 2.5273859299974615e+00 
323 0 1 1.0279934804747930e+00 -5.2367749449761668e+01 1.0000000000000000e+00 6.3037339750944534e+00 6.6828643237653402e+00 2.5263071272746789e+00 
387 0 1 1.0279954868627053e+00 -1.5127067827283989e+01 1.0000000000000000e+00 6.1647316373952616e+00 7.5833131147950015e+00 2.5369256995702827e+00 
333 0 1 1.0279954792686503e+00 -2.0287187268413525e+01 1.0000000000000000e+00 6.1645164614683683e+00 7.5835287802728448e+00 2.5372954554289535e+00 
192 0 1 1.0279953866276044e+00 -1.3081749965785839e+01 1.0000000000000000e+00 6.1661348485163483e+00 7.5854612165787039e+00 2.5364784456049536e+00 
446 0 1 1.0279950672918219e+00 -1.5312882743726412e+01 1.0000000000000000e+00 6.5119517712750650e+00 8.3368180987108058e+00 2.9199158911223981e+00 
72 0 1 1.0279955264951215e+00 -3.5388342224489527e+01 1.0000000000000000e+00 5.1280170785658248e+00 2.6344285536396845e+00 3.9803728758266068e+00 
463 0 1 1.0279969363792907e+00 -5.0049148419913315e+01 1.0000000000000000e+00 5.0073135007075056e+00 2.6640400124864976e+00 3.9862187481234583e+00 
514 0 1 1.0279994311992489e+00 -3.0151942070464976e+01 1.0000000000000000e+00 4.5947979396384886e+00 3.0668083900660355e+00 4.1363160296942105e+00 
515 0 1 1.0280064928838364e+00 -2.1688579698663638e+01 1.0000000000000000e+00 4.5822967904017160e+00 1.7819495805880230e+00 4.5018080298382745e+00 
301 0 1 1.0279998605593630e+00 -3.8336455517572880e+01 1.0000000000000000e+00 4.3859877950593775e+00 9.1116990891094507e-01 4.9763846130771752e+00 
183 0 1 1.0280031318782765e+00 -2.8512107230692752e+01 1.0000000000000000e+00 4.4073997910751137e+00 1.0208677841549252e+00 4.8673656644418815e+00 
404 0 1 1.0280326417299448e+00 -5.9945804652496300e+00 1.0000000000000000e+00 5.3826631909245322e+00 2.4509132537061324e+00 5.6815412978969606e+00 
240 0 1 1.0280307469669654e+00 -1.5880185541512052e+01 1.0000000000000000e+00 6.2526983141188666e+00 8.1927981279324402e-01 6.4916216072187378e+00 
115 0 1 1.0279414068297195e+00 -2.1353827501345986e+01 1.0000000000000000e+00 6.5845795322836151e+00 2.8400535665320716e+00 6.3258340625698297e+00 
538 0 1 1.0280123419579836e+00 -3.4147921268913841e+01 1.0000000000000000e+00 5.9335642297795159e+00 9.9804220394839563e-02 4.2099485262473566e+00 
644 0 1 1.0280138245058088e+00 -5.8020334735826538e+01 1.0000000000000000e+00 5.9462650860073030e+00 8.7975582875389188e-02 4.2095774843361360e+00 
428 0 1 1.0279996124112440e+00 -2.3113167318067010e+01 1.0000000000000000e+00 4.9038893133905477e+00 4.3169835970843131e+00 4.2636715967794663e+00 
305 0 1 1.0279987145120564e+00 -2.2194341509261662e+01 1.0000000000000000e+00 4.9191587255825899e+00 4.3397561283336206e+00 4.2681185068885288e+00 
550 0 1 1.0279987167723832e+00 -2.6389313071967187e+01 1.0000000000000000e+00 4.8781794496270612e+00 4.2806799431861027e+00 4.2603046302317376e+00 
121 0 1 1.0280094575429324e+00 -2.3003177200198294e+01 1.0000000000000000e+00 6.2477486473495851e+00 4.8424829323384291e+00 4.7588965803940804e+00 
536 0 1 1.0279993675768955e+00 -1.7747031589398908e+01 1.0000000000000000e+00 4.9033718073546408e+00 4.3167231462966162e+00 4.2641537418215263e+00 
444 0 1 1.0280475431310343e+00 -8.8620216273477777e+00 1.0000000000000000e+00 6.4674466377258701e+00 6.4108664323422104e+00 4.6063260417269625e+00 
304 0 1 1.0279843205880832e+00 -1.2321624440508906e+01 1.0000000000000000e+00 5.5248220649997011e+00 5.8422631886938419e+00 5.7277429750010791e+00 
565 0 1 1.0280033148258898e+00 -1.9566269336071318e+01 1.0000000000000000e+00 4.8266903865492203e+00 6.2703353877588786e+00 6.3756973287842325e+00 
585 0 1 1.0283310982205360e+00 -3.3025962383077513e+01 1.0000000000000000e+00 6.3994344367905560e+00 8.0424403778703990e+00 5.3400945667684416e+00 
142 0 1 1.0278802803281686e+00 -3.2231591492889258e+01 1.0000000000000000e+00 6.4449923034337280e+00 7.2423126486389515e+00 5.8340145221432858e+00 
234 0 1 1.0280031294469623e+00 -8.5448948744098541e+00 1.0000000000000000e+00 4.2977058927990832e+00 8.9426070262154411e+00 5.4604302125274460e+00 
166 0 1 1.0280032329969968e+00 -1.2723138489411157e+01 1.0000000000000000e+00 4.2790635880598646e+00 8.9414161640385377e+00 5.4690720893945279e+00 
633 0 1 1.0279962383914885e+00 -3.9697280556786041e+01 1.0000000000000000e+00 3.5757967294887356e+00 8.0623574359234134e+00 6.1167483972958747e+00 
92 0 1 1.0280009730312314e+00 -3.8446057606165134e+01 1.0000000000000000e+00 4.1639623989854595e+00 8.8326315069606682e+00 5.4933269477443805e+00 
11 0 1 1.0279996666245541e+00 -3.4461885312933177e+01 1.0000000000000000e+00 4.0534475573139277e+00 8.6777455740253160e+00 5.5220937224919604e+00 
227 0 1 1.0279975796179155e+00 -1.6283002854251261e+01 1.0000000000000000e+00 3.6223001456378898e+00 7.5893966793430243e+00 6.4356688181558193e+00 
21 0 1 1.0279117919738106e+00 -4.0803429026888132e+01 1.0000000000000000e+00 5.6174880113733199e+00 1.1545063608434945e+00 6.7754635785735964e+00 
329 0 1 1.0280025416748713e+00 -1.9169546365479338e+01 1.0000000000000000e+00 4.0848551847348169e+00 5.4318049421601722e-01 8.6148006112416429e+00 
469 0 1 1.0280041511914284e+00 -2.3673954993582047e+01 1.0000000000000000e+00 4.1218423470117420e+00 3.3592212901687130e-01 8.5671839431686028e+00 
213 0 1 1.0280047947344559e+00 -2.1053816284694502e+01 1.0000000000000000e+00 4.8464299809573310e+00 2.3276310150680888e+00 8.2705325064114383e+00 
95 0 1 1.0280076051805278e+00 -1.6568669578537683e+01 1.0000000000000000e+00 4.6976750410736976e+00 1.9667755967882563e+00 8.0723878919353282e+00 
237 0 1 1.0280115593354966e+00 -1.9891648420524923e+01 1.0000000000000000e+00 4.8841541474600341e+00 2.4025202426610961e+00 8.2673021134715405e+00 
600 0 1 1.0279973303812431e+00 -3.6197045279689299e+01 1.0000000000000000e+00 5.1769938060973315e+00 1.4246854779872657e+00 9.7189079667110008e+00 
520 0 1 1.0280040130747201e+00 -3.1112532958767357e+01 1.0000000000000000e+00 4.1503718623718164e+00 2.5072169416656748e-01 8.5243129163017652e+00 
589 0 1 1.0280039807001693e+00 -4.8467734552938886e+01 1.0000000000000000e+00 4.1454068331251532e+00 2.1377412839282714e-01 8.6127352908364472e+00 
641 0 1 1.0280662734015522e+00 -4.6587425341737351e+01 1.0000000000000000e+00 6.5640360593988243e+00 4.7316790233585498e-01 7.9121427367426245e+00 
120 0 1 1.0280006509883122e+00 -3.0952083744376054e+01 1.0000000000000000e+00 5.6399331326274549e+00 3.4466836611919174e+00 9.1168847892922980e+00 
545 0 1 1.0280044704878610e+00 -2.8079943318263375e+01 1.0000000000000000e+00 4.8400341189631968e+00 5.9647568713418142e+00 6.7465989309868748e+00 
173 0 1 1.0279718819982753e+00 -1.0786112890497103e+01 1.0000000000000000e+00 4.9729406896300041e+00 4.6867406174209574e+00 8.1640584842742321e+00 
431 0 1 1.0279816241997044e+00 -2.3377462506959322e+01 1.0000000000000000e+00 5.0069248488266105e+00 4.3256555534620595e+00 8.2765042765133501e+00 
568 0 1 1.0279743691275851e+00 -7.5335557167063612e+01 1.0000000000000000e+00 4.9485518646452080e+00 5.0552281470343532e+00 8.0673656333895476e+00 
453 0 1 1.0279980306087411e+00 -1.3473413501566704e+01 1.0000000000000000e+00 4.5349363563042528e+00 6.4076619113903943e+00 7.9955914435387454e+00 
249 0 1 1.0279875589753600e+00 -6.5157786497291426e+00 1.0000000000000000e+00 5.0293510749860708e+00 4.0833061214819688e+00 8.3198173681508276e+00 
56 0 1 1.0279986640754812e+00 -5.6961453425657020e+01 1.0000000000000000e+00 4.5194154941504694e+00 6.4583758201530106e+00 8.0116768684062567e+00 
119 0 1 1.0280979380180060e+00 -3.5770808846785357e+01 1.0000000000000000e+00 6.6179493235774656e+00 4.6840731984169075e+00 9.1522819857708662e+00 
487 0 1 1.0279987527926908e+00 -2.3709859475318261e+01 1.0000000000000000e+00 5.0399828126216786e+00 8.3825263204603697e+00 8.5857889087354682e+00 
398 0 1 1.0279979357867908e+00 -9.2755861403343793e+00 1.0000000000000000e+00 4.7821360660076335e+00 9.2946200919877526e+00 7.0817528511910206e+00 
76 0 1 1.0280206914617676e+00 -3.1171774616139658e+01 1.0000000000000000e+00 5.6362149631379399e+00 8.5585721976768365e+00 9.6391453209378479e+00 
111 0 1 1.0280045338397132e+00 -4.2579227225123617e+01 1.0000000000000000e+00 3.9481407593051050e+00 8.1120838439341743e+00 7.7295013432678621e+00 
278 0 1 1.0279729411455358e+00 -1.7374924705338149e+01 1.0000000000000000e+00 5.3484126382877237e+00 7.5078255959363878e+00 9.2169675930669701e+00 
616 0 1 1.0280129580361659e+00 -3.8997531606507529e+01 1.0000000000000000e+00 5.4980130424399594e+00 8.2262387527421854e+00 9.5118513019985702e+00 
598 0 1 1.0280020193883330e+00 -3.5920023687392806e+01 1.0000000000000000e+00 3.6120150785023570e+00 7.9141392073962900e+00 7.1621369518902567e+00 
478 0 1 1.0279934754157449e+00 -3.6550479647947114e+01 1.0000000000000000e+00 4.9794416331418665e+00 8.4448610785807912e+00 8.4000493923656236e+00 
401 0 1 1.0280057253387274e+00 -1.2908648180900711e+01 1.0000000000000000e+00 6.1364654027882919e+00 3.4040056376728844e+00 1.1633943752690227e+01 
85 0 1 1.0280053342984647e+00 -5.3453716432475424e+01 1.0000000000000000e+00 6.1401353646106376e+00 3.3939840792740390e+00 1.1624523867824308e+01 
551 0 1 1.0280048870746081e+00 -2.4044798002001464e+01 1.0000000000000000e+00 6.1378800892808512e+00 3.3970347973111696e+00 1.1625188065441540e+01 
98 0 1 1.0280064463099174e+00 -4.8066566072613377e+01 1.0000000000000000e+00 6.1365939653145727e+00 4.6315579810277585e+00 1.2303703267804876e+01 
202 0 1 1.0279856791453215e+00 -2.8030990456627549e+01 1.0000000000000000e+00 6.2349028456133135e+00 5.9256329014522793e+00 1.2046324113946435e+01 
106 0 1 1.0280002114959765e+00 -2.8651751279814839e+01 1.0000000000000000e+00 6.1556191683404062e+00 5.0739884623722027e+00 1.2310483513008876e+01 
363 0 1 1.0279875659377953e+00 -2.4549579796154145e+01 1.0000000000000000e+00 6.1096474650759349e+00 4.8244666204442668e+00 1.0576499429818750e+01 
499 0 1 1.0280052484964453e+00 -3.0926214793131727e+01 1.0000000000000000e+00 6.1340474600408754e+00 3.4027173482135495e+00 1.1627081690331741e+01 
79 0 1 1.0279769358141255e+00 -2.7640241352074266e+01 1.0000000000000000e+00 6.3925366525623284e+00 7.0717584410642509e+00 1.0459684825390404e+01 
27 0 1 1.0280039884444376e+00 -3.8474434706458126e+01 1.0000000000000000e+00 6.5291732626439574e+00 9.2102095177587344e+00 1.1533879064892364e+01 
490 0 1 1.0280045131888491e+00 -2.3253025227405466e+01 1.0000000000000000e+00 6.5375867560749077e+00 9.2244113723087313e+00 1.1538964504747335e+01 
365 0 1 1.0280044119657681e+00 -4.2042952747036750e+01 1.0000000000000000e+00 6.5390296790872613e+00 9.2260046282855015e+00 1.1540516479638951e+01 
87 0 1 1.0279772768622046e+00 -2.7760462766856563e+01 1.0000000000000000e+00 6.4035225242831704e+00 6.9850226282640726e+00 1.0521174104173985e+01 
32 0 1 1.0280088255608371e+00 -3.6728997451286304e+01 1.0000000000000000e+00 4.3983983623922605e+00 1.3919134878883440e+01 3.1052514282775276e+00 
185 0 1 1.0280085346462529e+00 -1.1703231195208350e+01 1.0000000000000000e+00 4.0997422082398263e+00 1.4051759558229895e+01 3.0141066101264067e+00 
59 0 1 1.0280089425393812e+00 -3.6175403436348887e+01 1.0000000000000000e+00 3.9840227685072134e+00 1.4119839252823187e+01 2.9942648192734000e+00 
593 0 1 1.0280088746232166e+00 -3.9700678627992779e+01 1.0000000000000000e+00 3.7281006595415440e+00 1.4218801812795405e+01 3.0389332668712803e+00 
314 0 1 1.0280074203949923e+00 -2.5049436405378302e+01 1.0000000000000000e+00 3.4212338368548330e+00 1.4633387996561236e+01 3.1973323992076712e+00 
161 0 1 1.0280443513015867e+00 -4.2445559789762228e+01 1.0000000000000000e+00 6.4919990446995977e+00 1.3192055482586692e+01 3.3801688093373223e+00 
437 0 1 1.0279891240097088e+00 -4.1544180653847249e+00 1.0000000000000000e+00 6.2986833196669405e+00 1.1937777095910475e+01 3.4513611486417508e+00 
22 0 1 1.0279921686765401e+00 -3.7651545953369968e+01 1.0000000000000000e+00 6.3067662424166961e+00 1.1708953109426110e+01 3.4461341955642695e+00 
53 0 1 1.0279891880157401e+00 -3.3595016443727530e+01 1.0000000000000000e+00 6.2919844211614082e+00 1.1825919982198940e+01 3.4619163536278483e+00 
614 0 1 1.0279904078500419e+00 -4.0295215828568949e+01 1.0000000000000000e+00 6.2896842213433786e+00 1.1857381799023527e+01 3.4649453169376767e+00 
414 0 1 1.0280116634798238e+00 -2.3945010608538961e+01 1.0000000000000000e+00 5.0355181800577844e+00 1.1364558753055656e+01 6.1394219693506678e+00 
625 0 1 1.0280325406945343e+00 -4.5110646012644466e+01 1.0000000000000000e+00 5.0844253448347176e+00 1.0995121743898734e+01 6.2695588440786487e+00 
241 0 1 1.0279502058176795e+00 -1.2967695346438957e+01 1.0000000000000000e+00 5.9667048980167330e+00 1.0243383704316095e+01 5.8734422951189362e+00 
31 0 1 1.0280223272020299e+00 -3.0324926878816175e+01 1.0000000000000000e+00 6.5266999402189425e+00 1.2627284297499260e+01 5.9502994780321767e+00 
579 0 1 1.0279718228149823e+00 -4.1176549542200505e+01 1.0000000000000000e+00 5.0969301790536257e+00 1.4999818859274344e+01 4.6987674728038407e+00 
155 0 1 1.0279985052669776e+00 -5.4554297048769591e+01 1.0000000000000000e+00 3.6218825063998463e+00 1.5421259241587158e+01 4.2016186044360211e+00 
274 0 1 1.0279952039133302e+00 -5.0807910779989179e+01 1.0000000000000000e+00 3.9182848765642837e+00 1.5640140389967346e+01 4.3161590920405644e+00 
170 0 1 1.0279958155740199e+00 -1.5174630442146347e+01 1.0000000000000000e+00 3.7546653736925366e+00 1.5542667700237734e+01 4.2442348576968696e+00 
523 0 1 1.0280019787690389e+00 -1.8788645312617444e+01 1.0000000000000000e+00 3.6145777031735133e+00 1.4431621367525606e+01 4.3970731388052684e+00 
429 0 1 1.0282456397271689e+00 -1.4762751093445223e+01 1.0000000000000000e+00 6.3824092087547362e+00 1.6472104993395448e+01 5.1892211198378080e+00 
197 0 1 1.0279711704641112e+00 -1.5128258491994728e+01 1.0000000000000000e+00 5.2921987761585703e+00 1.4252997309731414e+01 4.4737594906806528e+00 
194 0 1 1.0279950043704806e+00 -1.4469628799306879e+01 1.0000000000000000e+00 4.4029115583863074e+00 1.8087366841389510e+01 5.1161080725751811e+00 
493 0 1 1.0280046412128396e+00 -3.3365143199521150e+01 1.0000000000000000e+00 4.6791574490693932e+00 1.7713162044257412e+01 4.9719710024031665e+00 
525 0 1 1.0279943385600818e+00 -4.6759555145961329e+01 1.0000000000000000e+00 4.2294010022495572e+00 1.9683115193889240e+01 4.7442228031877622e+00 
488 0 1 1.0279936975405819e+00 -1.0518275789202002e+01 1.0000000000000000e+00 4.2281941162019603e+00 1.9792908341816251e+01 4.7642328483726875e+00 
12 0 1 1.0280061243229948e+00 -2.7081322042480494e+01 1.0000000000000000e+00 4.6717826474745863e+00 1.7713906115668568e+01 4.9827961560372138e+00 
328 0 1 1.0279892041990026e+00 -1.8941898939070331e+01 1.0000000000000000e+00 4.1263077549084661e+00 1.9383827791912559e+01 5.2900760852730100e+00 
69 0 1 1.0280093137167168e+00 -3.5606222159546718e+01 1.0000000000000000e+00 4.7027504158046645e+00 1.7706992615751634e+01 4.9443192956337940e+00 
349 0 1 1.0280150187481867e+00 -2.6504756972296601e+01 1.0000000000000000e+00 5.0306487787508303e+00 1.8345150019697563e+01 6.6239525370955512e+00 
136 0 1 1.0279973384979761e+00 -1.8898263068462704e+01 1.0000000000000000e+00 4.3641853886968089e+00 1.2022260198963281e+01 6.7246302356301619e+00 
221 0 1 1.0279971795017939e+00 -2.0470487668763866e+01 1.0000000000000000e+00 4.3594863434305742e+00 1.2036364705405068e+01 6.7313504263680528e+00 
291 0 1 1.0279925635902221e+00 -2.3565257942840574e+01 1.0000000000000000e+00 4.3130804771850242e+00 1.2563402451571399e+01 7.0680170059614049e+00 
215 0 1 1.0279923461415388e+00 -1.5991806744282414e+01 1.0000000000000000e+00 4.3061834350993173e+00 1.2516289448241087e+01 7.0442304541634364e+00 
235 0 1 1.0279928246820258e+00 -1.5756232900975952e+01 1.0000000000000000e+00 4.4168926101342194e+00 1.2926437071628381e+01 7.2079022543078732e+00 
587 0 1 1.0280979859923767e+00 -4.0303520409161770e+01 1.0000000000000000e+00 5.8199278879098602e+00 1.1507852546717574e+01 8.6465836686809698e+00 
50 0 1 1.0279575601294366e+00 -3.9658811083264851e+01 1.0000000000000000e+00 6.3594236889132745e+00 1.1196681935297736e+01 8.9509709266833877e+00 
613 0 1 1.0281098306006138e+00 -3.2079754776371722e+01 1.0000000000000000e+00 6.4330330043168953e+00 1.0544759754896974e+01 9.7668396342148593e+00 
422 0 1 1.0280170574619252e+00 -2.3899230276092858e+01 1.0000000000000000e+00 5.6447321518395555e+00 1.1538182082345175e+01 9.9713769216788801e+00 
107 0 1 1.0280109583617847e+00 -2.4054089070032393e+01 1.0000000000000000e+00 5.6390708672057821e+00 1.1543406395777136e+01 9.9767951530769086e+00 
284 0 1 1.0277919427306514e+00 -1.4658357657945334e+01 1.0000000000000000e+00 6.5067357828501757e+00 1.0011565260633439e+01 9.0961184337681118e+00 
507 0 1 1.0280064646791272e+00 -2.3812388304766912e+01 1.0000000000000000e+00 5.2828132562928856e+00 1.3941766320800781e+01 6.6687620682877533e+00 
618 0 1 1.0279776710959461e+00 -4.2081128813762334e+01 1.0000000000000000e+00 3.8722327820290201e+00 1.6112663710848597e+01 8.2052413036694833e+00 
569 0 1 1.0279777337425509e+00 -6.1368978822168145e+01 1.0000000000000000e+00 3.8722226419023058e+00 1.6114127624713891e+01 8.2070717144332423e+00 
608 0 1 1.0279776723682359e+00 -3.9071871379047536e+01 1.0000000000000000e+00 3.8722852633570950e+00 1.6112041442364344e+01 8.2051551006928580e+00 
273 0 1 1.0279545545022011e+00 -4.0704109040211016e+01 1.0000000000000000e+00 5.6786042093620877e+00 1.4607199920578861e+01 7.5114943289559344e+00 
9 0 1 1.0279789378420687e+00 -3.4694757744942152e+01 1.0000000000000000e+00 3.9353119838236399e+00 1.6229062704888797e+01 8.4390687202862793e+00 
239 0 1 1.0280101500738137e+00 -2.6376378333676822e+01 1.0000000000000000e+00 4.5541541364802747e+00 1.5120496249740341e+01 8.3794835747053096e+00 
420 0 1 1.0279787501923052e+00 -4.9214776142093392e+01 1.0000000000000000e+00 3.8763697471160845e+00 1.6099306762754864e+01 8.0933785716940410e+00 
347 0 1 1.0280396698359646e+00 -1.1487520719664941e+01 1.0000000000000000e+00 5.6141028599451390e+00 1.3728402758023774e+01 7.7522903031391168e+00 
62 0 1 1.0279835938999136e+00 -4.0900321213765388e+01 1.0000000000000000e+00 6.1575080377998450e+00 1.5513428722492030e+01 9.9007622156781778e+00 
451 0 1 1.0280725591445761e+00 -5.2625956395862810e+00 1.0000000000000000e+00 6.4577510791061972e+00 1.6495364991914911e+01 8.1026053195313228e+00 
144 0 1 1.0280346462510137e+00 -1.9013064913002129e+01 1.0000000000000000e+00 6.4996503988236976e+00 1.4639830702394562e+01 7.2209011569154802e+00 
581 0 1 1.0281152440948014e+00 -7.5363524528531642e+01 1.0000000000000000e+00 5.3081178079373368e+00 1.7949823338245384e+01 7.1762829763181930e+00 
596 0 1 1.0281001660388327e+00 -5.8806847197777763e+01 1.0000000000000000e+00 5.4434922647847639e+00 1.7455512456197045e+01 8.5458666501209812e+00 
216 0 1 1.0274829622941892e+00 -2.4818258836981634e+01 1.0000000000000000e+00 6.5278845701283474e+00 1.8443629140734178e+01 7.7134804290152417e+00 
474 0 1 1.0280492714831031e+00 -1.7139336001362846e+01 1.0000000000000000e+00 5.4210997644922188e+00 1.9407922741145068e+01 6.9698754483728891e+00 
605 0 1 1.0279942968677906e+00 -1.8998791933903554e+01 1.0000000000000000e+00 4.6791478448983410e+00 1.7328019522155941e+01 8.2423146846314861e+00 
80 0 1 1.0279957904256929e+00 -3.3174517635257729e+01 1.0000000000000000e+00 4.6668048265851541e+00 1.2647391054271338e+01 1.0491167957013545e+01 
129 0 1 1.0279984199565098e+00 -1.8672497241323796e+01 1.0000000000000000e+00 4.6937996414255192e+00 1.2541032273582882e+01 1.0259856565695745e+01 
293 0 1 1.0279991413333665e+00 -7.9030136750120654e+00 1.0000000000000000e+00 4.6601562978098050e+00 1.2638840271383453e+01 1.0193930992927951e+01 
439 0 1 1.0280028878979597e+00 -9.5106881059356176e+00 1.0000000000000000e+00 4.9069996717036863e+00 1.3746038997608451e+01 1.1066356467137419e+01 
177 0 1 1.0280140501720187e+00 -3.4089719260259407e+01 1.0000000000000000e+00 5.7325647323968774e+00 1.3717324255244490e+01 1.1232633591001441e+01 
556 0 1 1.0280116040649314e+00 -3.0002178019053105e+01 1.0000000000000000e+00 5.3104329242804411e+00 1.4208960953770136e+01 1.1095907038385306e+01 
149 0 1 1.0280072776095104e+00 -1.9892709247824762e+01 1.0000000000000000e+00 5.3551727779389520e+00 1.3929051490335127e+01 1.1223039859193335e+01 
1 0 1 1.0280016007205810e+00 -6.9365624904608126e+01 1.0000000000000000e+00 6.0031888585059470e+00 1.6510608316934739e+01 1.1575012493356791e+01 
617 0 1 1.0280031673717593e+00 -4.2686345820752862e+01 1.0000000000000000e+00 5.9923732936374368e+00 1.6580301109141558e+01 1.1580718103483669e+01 
248 0 1 1.0280022221543239e+00 -1.2601229232428665e+01 1.0000000000000000e+00 5.9903308174698555e+00 1.6595612030540156e+01 1.1581789501830936e+01 
73 0 1 1.0280035842265289e+00 -2.1143009266940485e+01 1.0000000000000000e+00 4.8261356775718642e+00 1.3855973377570818e+01 1.0864885585189409e+01 
331 0 1 1.0280125131582509e+00 -9.5345121750242168e+00 1.0000000000000000e+00 6.0966505785304292e+00 1.7941092982884992e+01 1.1239901538974127e+01 
375 0 1 1.0280133421122291e+00 -1.4630479445509110e+01 1.0000000000000000e+00 6.1074708263536897e+00 1.7943632619863152e+01 1.1245674203102123e+01 
369 0 1 1.0279994133351447e+00 -1.7425364952598851e+01 1.0000000000000000e+00 5.3698688312304066e+00 1.9874997567193883e+01 1.0121049039100585e+01 
540 0 1 1.0279987256725500e+00 -5.5349725895114517e+01 1.0000000000000000e+00 5.3829664744631138e+00 1.9866638878260471e+01 1.0123506314790427e+01 
156 0 1 1.0279984207312018e+00 -3.8653082337790778e+01 1.0000000000000000e+00 5.3932203514712924e+00 1.9853902113229037e+01 1.0124810163497909e+01 
112 0 1 1.0279983865852715e+00 -4.2253169609604193e+01 1.0000000000000000e+00 5.3951057182614353e+00 1.9849483784844313e+01 1.0124846338164174e+01 
612 0 1 1.0280056687325327e+00 -3.9890089177123045e+01 1.0000000000000000e+00 5.9678341964676340e+00 1.6789705012440031e+01 1.1585719778088816e+01 
252 0 1 1.0280116540598643e+00 -3.4702741895586875e+01 1.0000000000000000e+00 5.9750517257123290e+00 1.7620898124525926e+01 1.1380101023621798e+01 
436 0 1 1.0280538730294861e+00 -2.6707922744046616e+01 1.0000000000000000e+00 7.8136993023946530e+00 1.8866144073520426e+00 3.0091699617157861e+00 
222 0 1 1.0280094224525294e+00 -1.1387461240307950e+01 1.0000000000000000e+00 7.2397375697364730e+00 2.5378838195149772e-01 2.5818721466321821e+00 
159 0 1 1.0280090800496404e+00 -2.1288631584608510e+01 1.0000000000000000e+00 7.2408103973219538e+00 2.5071816924179652e-01 2.5804159295427107e+00 
610 0 1 1.0280095183537712e+00 -6.8668163374853449e+01 1.0000000000000000e+00 7.2333000779174057e+00 2.7191542282891978e-01 2.5906718997637688e+00 
504 0 1 1.0280892704030142e+00 -4.7256468604198623e+01 1.0000000000000000e+00 8.6907293345957175e+00 7.9119604688065381e-01 3.2347455471868085e+00 
49 0 1 1.0280088660523690e+00 -3.4321096445595110e+01 1.0000000000000000e+00 7.2460471182142756e+00 2.0209751792099864e-01 2.5621851114888381e+00 
512 0 1 1.0279849340066096e+00 -4.8816847959065939e+01 1.0000000000000000e+00 1.1013931391495133e+01 1.3395246509210563e+00 2.0832007294629000e+00 
454 0 1 1.0279962348082794e+00 -1.6961353694371351e+01 1.0000000000000000e+00 1.1200928241134992e+01 1.9546985552286122e+00 1.9003530063496390e+00 
367 0 1 1.0279967596154254e+00 -8.7026235902432223e+00 1.0000000000000000e+00 1.1202606982395244e+01 1.9589599527545143e+00 1.8997710614191035e+00 
572 0 1 1.0279966663539013e+00 -4.5822697998158382e+01 1.0000000000000000e+00 1.1204459511447988e+01 1.9617677064768706e+00 1.8994815168417454e+00 
383 0 1 1.0279963923726436e+00 -1.8953513362711011e+01 1.0000000000000000e+00 1.1199444056552723e+01 1.9509100517004463e+00 1.9008820135643338e+00 
91 0 1 1.0279935898739352e+00 -4.5515092052441062e+01 1.0000000000000000e+00 1.1053246921519760e+01 1.5174873956473025e+00 2.0115491201448994e+00 
497 0 1 1.0280084139290804e+00 -4.7976731383332158e+01 1.0000000000000000e+00 7.3216354145880684e+00 3.7909104657386274e+00 1.6103407774464347e+00 
311 0 1 1.0280060634615766e+00 -2.2940128207003035e+01 1.0000000000000000e+00 7.3242728348529624e+00 3.7649888814963735e+00 1.6113665616927155e+00 
83 0 1 1.0280079845121259e+00 -4.5286960655751251e+01 1.0000000000000000e+00 7.3240472217661452e+00 3.7753794802270160e+00 1.6106407523960673e+00 
438 0 1 1.0280070283994545e+00 -2.4135448906612047e+00 1.0000000000000000e+00 7.3244370073489753e+00 3.7719944521522359e+00 1.6107790312352022e+00 
482 0 1 1.0280067884687794e+00 -1.0986765397943412e+01 1.0000000000000000e+00 7.3245798383970566e+00 3.7697306705355547e+00 1.6109118848625203e+00 
158 0 1 1.0279581504500874e+00 -2.2008318098528271e+01 1.0000000000000000e+00 7.3551720481256417e+00 5.3218458007755940e+00 2.7195304252624961e+00 
423 0 1 1.0280089066989069e+00 -1.5306348139921079e+01 1.0000000000000000e+00 7.3108461427532037e+00 3.6764517645560764e+00 1.6276395452789370e+00 
353 0 1 1.0280186624684655e+00 -1.6975011940577875e+01 1.0000000000000000e+00 9.2122994143898875e+00 5.9109818532957350e+00 3.0755171471624214e+00 
517 0 1 1.0279971427050993e+00 -2.9188546442416481e+01 1.0000000000000000e+00 1.1351027118157596e+01 5.6285193078388804e+00 1.9548031433088904e+00 
620 0 1 1.0279992142636545e+00 -3.5507295624518463e+01 1.0000000000000000e+00 1.1772694386791269e+01 4.3746388038012034e+00 2.4664151644878873e+00 
131 0 1 1.0280025047904038e+00 -2.9483675866231987e+01 1.0000000000000000e+00 1.1767929095814846e+01 4.3031920367611924e+00 2.4677223781240385e+00 
238 0 1 1.0280003628753622e+00 -2.6480288030291309e+01 1.0000000000000000e+00 1.1765744730792967e+01 4.1976120874018834e+00 2.4701701451348752e+00 
5 0 1 1.0280018689722559e+00 -2.7861281504478669e+01 1.0000000000000000e+00 1.1768087570067728e+01 4.2965760977509513e+00 2.4684837076098858e+00 
242 0 1 1.0279948235100265e+00 -1.4743745915252484e+01 1.0000000000000000e+00 1.1593625827673860e+01 5.3900876714686410e+00 2.1086670104748189e+00 
172 0 1 1.0279999716958297e+00 -1.5272569186092566e+01 1.0000000000000000e+00 1.0624066894939226e+01 6.6662171389710405e+00 1.9865446233121440e+00 
226 0 1 1.0280007998555136e+00 -8.2274243230736523e+00 1.0000000000000000e+00 9.6841878980812695e+00 9.9444139485259750e+00 1.3321697290062204e+00 
212 0 1 1.0279977067809924e+00 -2.3651369823655912e+01 1.0000000000000000e+00 9.3458455838931425e+00 8.7298891759631250e+00 1.3822068494858566e+00 
472 0 1 1.0279977686456567e+00 -2.0647518819489889e+01 1.0000000000000000e+00 9.3486127340000387e+00 8.7248144678715978e+00 1.3826419136545713e+00 
635 0 1 1.0280022915888007e+00 -3.7303395410688026e+01 1.0000000000000000e+00 9.6078354467570914e+00 9.8880774893721028e+00 1.3121199393452962e+00 
288 0 1 1.0280014916239457e+00 -4.8828717434890777e+01 1.0000000000000000e+00 9.5190288884741481e+00 9.9339682627585315e+00 1.3839818898417102e+00 
36 0 1 1.0280034518768346e+00 -4.4532456042814481e+01 1.0000000000000000e+00 9.9291169072328263e+00 9.6244176017304550e+00 1.1508739894542312e+00 
224 0 1 1.0279769010858733e+00 -3.3819205700501975e+01 1.0000000000000000e+00 8.4335464054270890e+00 8.0842011101141829e+00 3.0805650309855106e+00 
364 0 1 1.0279998192476110e+00 -4.4162801300827297e+01 1.0000000000000000e+00 1.0622797857501785e+01 6.6679450476367448e+00 1.9867784185618720e+00 
624 0 1 1.0279997451646992e+00 -6.3491064018158426e+01 1.0000000000000000e+00 1.0542235345249004e+01 6.8674665209487271e+00 2.0134233788200402e+00 
642 0 1 1.0279968746945112e+00 -4.9153061760852623e+01 1.0000000000000000e+00 1.0472833437025194e+01 7.0423166689454790e+00 2.0184678222718189e+00 
130 0 1 1.0280111213884853e+00 -2.6560315091262126e+01 1.0000000000000000e+00 1.0883459839652097e+01 9.1113236371277644e+00 2.1709050101344580e+00 
491 0 1 1.0280044499611956e+00 -3.4219616185957868e+01 1.0000000000000000e+00 1.0713822472479736e+01 9.7680453538800052e+00 1.9342375406830112e+00 
489 0 1 1.0279701114347017e+00 -1.4220722413007278e+01 1.0000000000000000e+00 7.7124987368162730e+00 2.7872407906505225e+00 3.4571422727268870e+00 
334 0 1 1.0280566445980921e+00 -1.3983759888295765e+01 1.0000000000000000e+00 8.3710428611306238e+00 1.4864491005992091e+00 5.0185956572788797e+00 
390 0 1 1.0277883473211391e+00 -1.3375720834344765e+01 1.0000000000000000e+00 8.4976513976831729e+00 1.9909845478699160e+00 3.7003525483393620e+00 
128 0 1 1.0281412714782747e+00 -3.0080703094893341e+01 1.0000000000000000e+00 8.3318924601675874e+00 3.1721279571424525e+00 4.5864361808613001e+00 
191 0 1 1.0278564125486354e+00 -2.2262685167611640e+01 1.0000000000000000e+00 7.4707800140315053e+00 6.5519944014295173e-01 6.1744560656281395e+00 
381 0 1 1.0281539851602288e+00 -1.2766219257049805e+01 1.0000000000000000e+00 8.4027924207270424e+00 2.2325909252354177e+00 6.5726508644223696e+00 
374 0 1 1.0280249347629828e+00 -1.2683799757990352e+01 1.0000000000000000e+00 9.5868904802984165e+00 5.0912984645934689e-01 3.5903109955833217e+00 
247 0 1 1.0280572071970138e+00 -2.0755424411275218e+01 1.0000000000000000e+00 8.4143409420192832e+00 2.3512658397611643e+00 6.6067172082838921e+00 
321 0 1 1.0279902966156007e+00 -2.1426275644609827e+01 1.0000000000000000e+00 6.9279151083341883e+00 2.9105999410266672e+00 6.5911858627451227e+00 
276 0 1 1.0280930159740560e+00 -8.7484414989913422e+00 1.0000000000000000e+00 1.0107974123760828e+01 2.9409001307794158e+00 4.1610614541706958e+00 
464 0 1 1.0279329910132011e+00 -2.5565568051842479e+01 1.0000000000000000e+00 1.1993140961768626e+01 1.5534172483713091e+00 4.2233114564110137e+00 