LAMMPS data file via write_data, version 30 Jul 2016, timestep = 1000000

2080 atoms
8 atom types

0.0000000000000000e+00 4.0000000000000000e+01 xlo xhi
0.0000000000000000e+00 4.0000000000000000e+01 ylo yhi
0.0000000000000000e+00 1.0000000000000000e+02 zlo zhi

Masses

1 3.896
2 5.36
3 1058.08
4 8.378
5 8.378
6 8.378
7 8.378
8 8.378

Atoms # meso-molecular

1 2 4 2.2559723595316457e+00 1.0000000000000000e+00 4.2000000000000000e+03 0.0000000000000000e+00 0.0000000000000000e+00 2.5000000000000000e+00 
2 2 4 2.2559723595316457e+00 1.0000000000000000e+00 4.2000000000000000e+03 0.0000000000000000e+00 2.0000000000000000e+00 2.5000000000000000e+00 
3 2 4 2.2559723595316457e+00 1.0000000000000000e+00 4.2000000000000000e+03 0.0000000000000000e+00 4.0000000000000000e+00 2.5000000000000000e+00 
4 2 4 2.2559723595316457e+00 1.0000000000000000e+00 4.2000000000000000e+03 0.0000000000000000e+00 6.0000000000000000e+00 2.5000000000000000e+00 
21 2 4 2.2559723595316457e+00 1.0000000000000000e+00 4.2000000000000000e+03 2.0000000000000000e+00 0.0000000000000000e+00 2.5000000000000000e+00 
22 2 4 2.2559723595316457e+00 1.0000000000000000e+00 4.2000000000000000e+03 2.0000000000000000e+00 2.0000000000000000e+00 2.5000000000000000e+00 
23 2 4 2.2559723595316457e+00 1.0000000000000000e+00 4.2000000000000000e+03 2.0000000000000000e+00 4.0000000000000000e+00 2.5000000000000000e+00 
24 2 4 2.2559723595316457e+00 1.0000000000000000e+00 4.2000000000000000e+03 2.0000000000000000e+00 6.0000000000000000e+00 2.5000000000000000e+00 
41 2 4 2.2559723595316457e+00 1.0000000000000000e+00 4.2000000000000000e+03 4.0000000000000000e+00 0.0000000000000000e+00 2.5000000000000000e+00 
42 2 4 2.2559723595316457e+00 1.0000000000000000e+00 4.2000000000000000e+03 4.0000000000000000e+00 2.0000000000000000e+00 2.5000000000000000e+00 
43 2 4 2.2559723595316457e+00 1.0000000000000000e+00 4.2000000000000000e+03 4.0000000000000000e+00 4.0000000000000000e+00 2.5000000000000000e+00 
44 2 4 2.2559723595316457e+00 1.0000000000000000e+00 4.2000000000000000e+03 4.0000000000000000e+00 6.0000000000000000e+00 2.5000000000000000e+00 
61 2 4 2.2559723595316457e+00 1.0000000000000000e+00 4.2000000000000000e+03 6.0000000000000000e+00 0.0000000000000000e+00 2.5000000000000000e+00 
62 2 4 2.2559723595316457e+00 1.0000000000000000e+00 4.2000000000000000e+03 6.0000000000000000e+00 2.0000000000000000e+00 2.5000000000000000e+00 
63 2 4 2.2559723595316457e+00 1.0000000000000000e+00 4.2000000000000000e+03 6.0000000000000000e+00 4.0000000000000000e+00 2.5000000000000000e+00 
64 2 4 2.2559723595316457e+00 1.0000000000000000e+00 4.2000000000000000e+03 6.0000000000000000e+00 6.0000000000000000e+00 2.5000000000000000e+00 
81 2 4 2.2559723595316457e+00 1.0000000000000000e+00 4.2000000000000000e+03 8.0000000000000000e+00 0.0000000000000000e+00 2.5000000000000000e+00 
82 2 4 2.2559723595316457e+00 1.0000000000000000e+00 4.2000000000000000e+03 8.0000000000000000e+00 2.0000000000000000e+00 2.5000000000000000e+00 
83 2 4 2.2559723595316457e+00 1.0000000000000000e+00 4.2000000000000000e+03 8.0000000000000000e+00 4.0000000000000000e+00 2.5000000000000000e+00 
84 2 4 2.2559723595316457e+00 1.0000000000000000e+00 4.2000000000000000e+03 8.0000000000000000e+00 6.0000000000000000e+00 2.5000000000000000e+00 
101 2 4 2.2559723595316457e+00 1.0000000000000000e+00 4.2000000000000000e+03 1.0000000000000000e+01 0.0000000000000000e+00 2.5000000000000000e+00 
102 2 4 2.2559723595316457e+00 1.0000000000000000e+00 4.2000000000000000e+03 1.0000000000000000e+01 2.0000000000000000e+00 2.5000000000000000e+00 
103 2 4 2.2559723595316457e+00 1.0000000000000000e+00 4.2000000000000000e+03 1.0000000000000000e+01 4.0000000000000000e+00 2.5000000000000000e+00 
104 2 4 2.2559723595316457e+00 1.0000000000000000e+00 4.2000000000000000e+03 1.0000000000000000e+01 6.0000000000000000e+00 2.5000000000000000e+00 
121 2 4 2.2559723595316457e+00 1.0000000000000000e+00 4.2000000000000000e+03 1.2000000000000000e+01 0.0000000000000000e+00 2.5000000000000000e+00 
122 2 4 2.2559723595316457e+00 1.0000000000000000e+00 4.2000000000000000e+03 1.2000000000000000e+01 2.0000000000000000e+00 2.5000000000000000e+00 
123 2 4 2.2559723595316457e+00 1.0000000000000000e+00 4.2000000000000000e+03 1.2000000000000000e+01 4.0000000000000000e+00 2.5000000000000000e+00 
124 2 4 2.2559723595316457e+00 -1.3734418636154412e+01 4.2000000000000000e+03 1.2000000000000000e+01 6.0000000000000000e+00 2.5000000000000000e+00 
141 2 4 2.2559723595316457e+00 1.0000000000000000e+00 4.2000000000000000e+03 1.4000000000000000e+01 0.0000000000000000e+00 2.5000000000000000e+00 
142 2 4 2.2559723595316457e+00 1.0000000000000000e+00 4.2000000000000000e+03 1.4000000000000000e+01 2.0000000000000000e+00 2.5000000000000000e+00 
143 2 4 2.2559723595316457e+00 5.5178642005886736e-01 4.2000000000000000e+03 1.4000000000000000e+01 4.0000000000000000e+00 2.5000000000000000e+00 
144 2 4 2.2559723595316457e+00 -1.5421749601179573e+02 4.2000000000000000e+03 1.4000000000000000e+01 6.0000000000000000e+00 2.5000000000000000e+00 
161 2 4 2.2559723595316457e+00 1.0000000000000000e+00 4.2000000000000000e+03 1.6000000000000000e+01 0.0000000000000000e+00 2.5000000000000000e+00 
162 2 4 2.2559723595316457e+00 1.0000000000000000e+00 4.2000000000000000e+03 1.6000000000000000e+01 2.0000000000000000e+00 2.5000000000000000e+00 
163 2 4 2.2559723595316457e+00 -3.6286659604609004e+00 4.2000000000000000e+03 1.6000000000000000e+01 4.0000000000000000e+00 2.5000000000000000e+00 
164 2 4 2.2559723595316457e+00 -4.1451678070826347e+02 4.2000000000000000e+03 1.6000000000000000e+01 6.0000000000000000e+00 2.5000000000000000e+00 
181 2 4 2.2559723595316457e+00 1.0000013609911149e+00 4.2000000000000000e+03 1.8000000000000000e+01 0.0000000000000000e+00 2.5000000000000000e+00 
182 2 4 2.2559723595316457e+00 9.9882192438819495e-01 4.2000000000000000e+03 1.8000000000000000e+01 2.0000000000000000e+00 2.5000000000000000e+00 
183 2 4 2.2559723595316457e+00 -4.9390127119458391e+00 4.2000000000000000e+03 1.8000000000000000e+01 4.0000000000000000e+00 2.5000000000000000e+00 
184 2 4 2.2559723595316457e+00 -5.8915241509400812e+02 4.2000000000000000e+03 1.8000000000000000e+01 6.0000000000000000e+00 2.5000000000000000e+00 
5 2 4 2.2559723595316457e+00 1.0000000000000000e+00 4.2000000000000000e+03 0.0000000000000000e+00 8.0000000000000000e+00 2.5000000000000000e+00 
6 2 4 2.2559723595316457e+00 1.0000000000000000e+00 4.2000000000000000e+03 0.0000000000000000e+00 1.0000000000000000e+01 2.5000000000000000e+00 
7 2 4 2.2559723595316457e+00 1.0000000000000000e+00 4.2000000000000000e+03 0.0000000000000000e+00 1.2000000000000000e+01 2.5000000000000000e+00 
25 2 4 2.2559723595316457e+00 1.0000000000000000e+00 4.2000000000000000e+03 2.0000000000000000e+00 8.0000000000000000e+00 2.5000000000000000e+00 
26 2 4 2.2559723595316457e+00 1.0000000000000000e+00 4.2000000000000000e+03 2.0000000000000000e+00 1.0000000000000000e+01 2.5000000000000000e+00 
27 2 4 2.2559723595316457e+00 1.0000000000000000e+00 4.2000000000000000e+03 2.0000000000000000e+00 1.2000000000000000e+01 2.5000000000000000e+00 
45 2 4 2.2559723595316457e+00 1.0000000000000000e+00 4.2000000000000000e+03 4.0000000000000000e+00 8.0000000000000000e+00 2.5000000000000000e+00 
46 2 4 2.2559723595316457e+00 1.0000000000000000e+00 4.2000000000000000e+03 4.0000000000000000e+00 1.0000000000000000e+01 2.5000000000000000e+00 
47 2 4 2.2559723595316457e+00 1.0000000000000000e+00 4.2000000000000000e+03 4.0000000000000000e+00 1.2000000000000000e+01 2.5000000000000000e+00 
65 2 4 2.2559723595316457e+00 1.0000000000000000e+00 4.2000000000000000e+03 6.0000000000000000e+00 8.0000000000000000e+00 2.5000000000000000e+00 
66 2 4 2.2559723595316457e+00 1.0000000000000000e+00 4.2000000000000000e+03 6.0000000000000000e+00 1.0000000000000000e+01 2.5000000000000000e+00 
67 2 4 2.2559723595316457e+00 1.0000000000000000e+00 4.2000000000000000e+03 6.0000000000000000e+00 1.2000000000000000e+01 2.5000000000000000e+00 
85 2 4 2.2559723595316457e+00 1.0000000000000000e+00 4.2000000000000000e+03 8.0000000000000000e+00 8.0000000000000000e+00 2.5000000000000000e+00 
86 2 4 2.2559723595316457e+00 1.0000000000000000e+00 4.2000000000000000e+03 8.0000000000000000e+00 1.0000000000000000e+01 2.5000000000000000e+00 
87 2 4 2.2559723595316457e+00 1.0000000000000000e+00 4.2000000000000000e+03 8.0000000000000000e+00 1.2000000000000000e+01 2.5000000000000000e+00 
105 2 4 2.2559723595316457e+00 5.5801608036385963e-01 4.2000000000000000e+03 1.0000000000000000e+01 8.0000000000000000e+00 2.5000000000000000e+00 
106 2 4 2.2559723595316457e+00 -3.5558528053597285e+00 4.2000000000000000e+03 1.0000000000000000e+01 1.0000000000000000e+01 2.5000000000000000e+00 
107 2 4 2.2559723595316457e+00 -4.8234374722293483e+00 4.2000000000000000e+03 1.0000000000000000e+01 1.2000000000000000e+01 2.5000000000000000e+00 
125 2 4 2.2559723595316457e+00 -1.5421456372935074e+02 4.2000000000000000e+03 1.2000000000000000e+01 8.0000000000000000e+00 2.5000000000000000e+00 
126 2 4 2.2559723595316457e+00 -4.1508224880915350e+02 4.2000000000000000e+03 1.2000000000000000e+01 1.0000000000000000e+01 2.5000000000000000e+00 
127 2 4 2.2559723595316457e+00 -5.9662423093795155e+02 4.2000000000000000e+03 1.2000000000000000e+01 1.2000000000000000e+01 2.5000000000000000e+00 
145 2 4 2.2559723595316457e+00 -9.0959091420543098e+02 4.2000000000000000e+03 1.4000000000000000e+01 8.0000000000000000e+00 2.5000000000000000e+00 
146 2 4 2.2559723595316457e+00 -2.1501668620486998e+03 4.2000000000000000e+03 1.4000000000000000e+01 1.0000000000000000e+01 2.5000000000000000e+00 
147 2 4 2.2559723595316457e+00 -3.0607264701304703e+03 4.2000000000000000e+03 1.4000000000000000e+01 1.2000000000000000e+01 2.5000000000000000e+00 
165 2 4 2.2559723595316457e+00 -2.1462667049048787e+03 4.2000000000000000e+03 1.6000000000000000e+01 8.0000000000000000e+00 2.5000000000000000e+00 
166 2 4 2.2559723595316457e+00 -4.8936481446061334e+03 4.2000000000000000e+03 1.6000000000000000e+01 1.0000000000000000e+01 2.5000000000000000e+00 
167 2 4 2.2559723595316457e+00 -6.9402254042094464e+03 4.2000000000000000e+03 1.6000000000000000e+01 1.2000000000000000e+01 2.5000000000000000e+00 
185 2 4 2.2559723595316457e+00 -3.0192205852792495e+03 4.2000000000000000e+03 1.8000000000000000e+01 8.0000000000000000e+00 2.5000000000000000e+00 
186 2 4 2.2559723595316457e+00 -6.8679701825546790e+03 4.2000000000000000e+03 1.8000000000000000e+01 1.0000000000000000e+01 2.5000000000000000e+00 
187 2 4 2.2559723595316457e+00 -9.7309019834430856e+03 4.2000000000000000e+03 1.8000000000000000e+01 1.2000000000000000e+01 2.5000000000000000e+00 
8 2 4 2.2559723595316457e+00 1.0000000000000000e+00 4.2000000000000000e+03 0.0000000000000000e+00 1.4000000000000000e+01 2.5000000000000000e+00 
9 2 4 2.2559723595316457e+00 1.0000000000000000e+00 4.2000000000000000e+03 0.0000000000000000e+00 1.6000000000000000e+01 2.5000000000000000e+00 
10 2 4 2.2559723595316457e+00 1.0000000000000000e+00 4.2000000000000000e+03 0.0000000000000000e+00 1.8000000000000000e+01 2.5000000000000000e+00 
28 2 4 2.2559723595316457e+00 1.0000000000000000e+00 4.2000000000000000e+03 2.0000000000000000e+00 1.4000000000000000e+01 2.5000000000000000e+00 
29 2 4 2.2559723595316457e+00 1.0000000000000000e+00 4.2000000000000000e+03 2.0000000000000000e+00 1.6000000000000000e+01 2.5000000000000000e+00 
30 2 4 2.2559723595316457e+00 1.0000000000000000e+00 4.2000000000000000e+03 2.0000000000000000e+00 1.8000000000000000e+01 2.5000000000000000e+00 
48 2 4 2.2559723595316457e+00 1.0000000000000000e+00 4.2000000000000000e+03 4.0000000000000000e+00 1.4000000000000000e+01 2.5000000000000000e+00 
49 2 4 2.2559723595316457e+00 1.0000000000000000e+00 4.2000000000000000e+03 4.0000000000000000e+00 1.6000000000000000e+01 2.5000000000000000e+00 
50 2 4 2.2559723595316457e+00 1.0000000000000000e+00 4.2000000000000000e+03 4.0000000000000000e+00 1.8000000000000000e+01 2.5000000000000000e+00 
68 2 4 2.2559723595316457e+00 1.0000000000000000e+00 4.2000000000000000e+03 6.0000000000000000e+00 1.4000000000000000e+01 2.5000000000000000e+00 
69 2 4 2.2559723595316457e+00 1.0000000000000000e+00 4.2000000000000000e+03 6.0000000000000000e+00 1.6000000000000000e+01 2.5000000000000000e+00 
70 2 4 2.2559723595316457e+00 1.0003855245069255e+00 4.2000000000000000e+03 6.0000000000000000e+00 1.8000000000000000e+01 2.5000000000000000e+00 
88 2 4 2.2559723595316457e+00 1.0000000000000000e+00 4.2000000000000000e+03 8.0000000000000000e+00 1.4000000000000000e+01 2.5000000000000000e+00 
89 2 4 2.2559723595316457e+00 9.9978764919070118e-01 4.2000000000000000e+03 8.0000000000000000e+00 1.6000000000000000e+01 2.5000000000000000e+00 
90 2 4 2.2559723595316457e+00 1.0089854965473410e+00 4.2000000000000000e+03 8.0000000000000000e+00 1.8000000000000000e+01 2.5000000000000000e+00 
108 2 4 2.2559723595316457e+00 -5.1232631388774887e+00 4.2000000000000000e+03 1.0000000000000000e+01 1.4000000000000000e+01 2.5000000000000000e+00 
109 2 4 2.2559723595316457e+00 -5.1343806610715070e+00 4.2000000000000000e+03 1.0000000000000000e+01 1.6000000000000000e+01 2.5000000000000000e+00 
110 2 4 2.2559723595316457e+00 -5.1368448761150995e+00 4.2000000000000000e+03 1.0000000000000000e+01 1.8000000000000000e+01 2.5000000000000000e+00 
128 2 4 2.2559723595316457e+00 -6.4043749735554252e+02 4.2000000000000000e+03 1.2000000000000000e+01 1.4000000000000000e+01 2.5000000000000000e+00 
129 2 4 2.2559723595316457e+00 -6.4679742443643875e+02 4.2000000000000000e+03 1.2000000000000000e+01 1.6000000000000000e+01 2.5000000000000000e+00 
130 2 4 2.2559723595316457e+00 -6.4667511912115106e+02 4.2000000000000000e+03 1.2000000000000000e+01 1.8000000000000000e+01 2.5000000000000000e+00 
148 2 4 2.2559723595316457e+00 -3.3335367142643836e+03 4.2000000000000000e+03 1.4000000000000000e+01 1.4000000000000000e+01 2.5000000000000000e+00 
149 2 4 2.2559723595316457e+00 -3.3660592235959812e+03 4.2000000000000000e+03 1.4000000000000000e+01 1.6000000000000000e+01 2.5000000000000000e+00 
150 2 4 2.2559723595316457e+00 -3.3659046679190392e+03 4.2000000000000000e+03 1.4000000000000000e+01 1.8000000000000000e+01 2.5000000000000000e+00 
168 2 4 2.2559723595316457e+00 -7.5729900507535622e+03 4.2000000000000000e+03 1.6000000000000000e+01 1.4000000000000000e+01 2.5000000000000000e+00 
169 2 4 2.2559723595316457e+00 -7.6269035633698859e+03 4.2000000000000000e+03 1.6000000000000000e+01 1.6000000000000000e+01 2.5000000000000000e+00 
170 2 4 2.2559723595316457e+00 -7.6182524843363808e+03 4.2000000000000000e+03 1.6000000000000000e+01 1.8000000000000000e+01 2.5000000000000000e+00 
188 2 4 2.2559723595316457e+00 -1.0592639605267304e+04 4.2000000000000000e+03 1.8000000000000000e+01 1.4000000000000000e+01 2.5000000000000000e+00 
189 2 4 2.2559723595316457e+00 -1.0642506378384176e+04 4.2000000000000000e+03 1.8000000000000000e+01 1.6000000000000000e+01 2.5000000000000000e+00 
190 2 4 2.2559723595316457e+00 -1.0618077132595859e+04 4.2000000000000000e+03 1.8000000000000000e+01 1.8000000000000000e+01 2.5000000000000000e+00 
1959 1561 2 1.0279997779909986e+00 -8.1490132924655481e+03 4.2000000000000000e+03 1.6437919199845364e+01 1.2754153084405441e+01 7.7561133664380890e+01 
1152 754 2 1.0279997374260967e+00 -5.1241191328516952e+03 4.2000000000000000e+03 1.9988880822930035e+01 1.3195140956394788e+01 7.7640803985914928e+01 
1085 687 2 1.0279999969056968e+00 2.4076095307393621e+02 4.2000000000000000e+03 1.8199698020185622e+01 1.2207201730252152e+01 7.7725495975457235e+01 
708 310 2 1.0279998139426332e+00 -3.6416950560340247e+03 4.2000000000000000e+03 1.5720510235936430e+01 1.2093579723225675e+01 7.7757603040343483e+01 
1181 783 2 1.0279998828921717e+00 -9.2447891203813688e+03 4.2000000000000000e+03 1.9668912718209775e+01 1.2848397227327473e+01 7.7772965617216272e+01 
1275 877 2 1.0280000877365738e+00 -4.9496125425626400e+02 4.2000000000000000e+03 1.7394108981228332e+01 1.9435581168786282e+01 7.6203428729975130e+01 
1107 709 2 1.0280001550893150e+00 -4.9373579422785104e+02 4.2000000000000000e+03 1.7960001035456152e+01 1.8978057050817593e+01 7.6344168759323225e+01 
418 20 2 1.0280002009731859e+00 9.6253641045483182e+03 4.2000000000000000e+03 1.8468287924163729e+01 1.9632228835170103e+01 7.6352696774057137e+01 
1106 708 2 1.0280001521169841e+00 -4.9359483980300359e+02 4.2000000000000000e+03 1.9932845374129510e+01 1.8826244268360739e+01 7.6348512617220692e+01 
419 21 2 1.0280002357817626e+00 9.6253827071461928e+03 4.2000000000000000e+03 1.9099367144113973e+01 1.9633672627682596e+01 7.6376256421636995e+01 
1782 1384 2 1.0280002407811348e+00 4.7383556968374287e+03 4.2000000000000000e+03 1.8654697133514418e+01 1.9260676222228930e+01 7.6408381106025544e+01 
1783 1385 2 1.0280002570318993e+00 4.7379998607926036e+03 4.2000000000000000e+03 1.9029975366958748e+01 1.9328017960042843e+01 7.6411255150924163e+01 
1930 1532 2 1.0280002245642643e+00 9.6258940367810064e+03 4.2000000000000000e+03 1.8434812818587794e+01 1.8875270804282458e+01 7.6441357676116141e+01 
606 208 2 1.0280002484671973e+00 4.7385650978949661e+03 4.2000000000000000e+03 1.8653922200654772e+01 1.9071393284732252e+01 7.6434940656747784e+01 
607 209 2 1.0280002659987282e+00 4.7381949910278099e+03 4.2000000000000000e+03 1.9020910107262640e+01 1.9161489440543217e+01 7.6434180141156347e+01 
1931 1533 2 1.0280002754718676e+00 9.6258337100653589e+03 4.2000000000000000e+03 1.9078465241273229e+01 1.8899649978044557e+01 7.6475074699318213e+01 
1681 1283 2 1.0280002559210368e+00 -1.4551422381328512e+03 4.2000000000000000e+03 1.8634339594358181e+01 1.8409145218436578e+01 7.6560178694530563e+01 
1684 1286 2 1.0280002822426171e+00 -1.4550419473499035e+03 4.2000000000000000e+03 1.8902125860331466e+01 1.8384017577936973e+01 7.6583754705792259e+01 
1476 1078 2 1.0280002654923939e+00 1.2818900503139241e+03 4.2000000000000000e+03 1.9250673048490313e+01 1.8080111554128141e+01 7.6642422779994135e+01 
1473 1075 2 1.0280002677163886e+00 1.2818760170428502e+03 4.2000000000000000e+03 1.8738210463974195e+01 1.8066911568936035e+01 7.6654054008614310e+01 
521 123 2 1.0279997961985976e+00 -8.9506362954047327e+03 4.2000000000000000e+03 1.6624367003383600e+01 1.5991497273991286e+01 7.7140936914657885e+01 
772 374 2 1.0279998341204197e+00 1.1973995016881797e+03 4.2000000000000000e+03 1.5401759555739162e+01 1.7047220393704055e+01 7.7135785876225668e+01 
1350 952 2 1.0279998292636900e+00 -4.5685861593135132e+03 4.2000000000000000e+03 1.5370771367266343e+01 1.7028558627339816e+01 7.7177040115728616e+01 
1133 735 2 1.0279997981820650e+00 -5.0022898047951576e+03 4.2000000000000000e+03 1.5396020443880031e+01 1.6860885736445145e+01 7.7273492191566277e+01 
939 541 2 1.0279999940741145e+00 2.3192321027788812e+03 4.2000000000000000e+03 1.7661472558434369e+01 1.5208570906060721e+01 7.7358350661394326e+01 
1581 1183 2 1.0279998422988381e+00 2.8493627405384436e+03 4.2000000000000000e+03 1.5151456557900373e+01 1.7109575823519734e+01 7.7365908926287233e+01 
1976 1578 2 1.0280006120571397e+00 -1.1396589953279503e+04 4.2000000000000000e+03 1.9399692248084669e+01 1.4819283021112323e+01 7.7445888328877743e+01 
720 322 2 1.0280004256318498e+00 4.4622764484906329e+03 4.2000000000000000e+03 1.8399855253184242e+01 1.4283100603162348e+01 7.7596657526919188e+01 
401 3 2 1.0280011173638828e+00 -2.0445594870266298e+03 4.2000000000000000e+03 1.9389899961330002e+01 1.4003186453812813e+01 7.7687868426756609e+01 
1395 997 2 1.0279999544592178e+00 1.6860036197408406e+03 4.2000000000000000e+03 1.4766629907802283e+01 1.7482240903521454e+01 7.7754131239043886e+01 
738 340 2 1.0280000631795931e+00 1.4023782480816682e+04 4.2000000000000000e+03 1.4429049821174919e+01 1.9273013730394105e+01 7.7753438413517372e+01 
1357 959 2 1.0279999942252482e+00 -5.7761067708263536e+03 4.2000000000000000e+03 1.4644446008242129e+01 1.7777526766095384e+01 7.7776142761049940e+01 
665 267 2 1.0279998636738092e+00 -5.4705103636918484e+03 4.2000000000000000e+03 1.3229661338873340e+01 5.9805954168357607e+00 8.3124056074718425e+01 
1104 706 2 1.0279998541016260e+00 1.1285877800495827e+02 4.2000000000000000e+03 1.2853900269125836e+01 6.1315498344508281e+00 8.3137128436972830e+01 
1654 1256 2 1.0279998392182199e+00 7.3423713415225002e+03 4.2000000000000000e+03 1.2493264298885935e+01 6.4902747403880277e+00 8.3206476369155780e+01 
1669 1271 2 1.0280000718686080e+00 3.3744448972466080e+03 4.2000000000000000e+03 1.8041453131989634e+01 6.5043633044097104e+00 7.9601784041419592e+01 
1672 1274 2 1.0280000847472004e+00 3.3731371997158230e+03 4.2000000000000000e+03 1.9504702310828009e+01 6.3443508682539020e+00 7.9777080848562719e+01 
2035 1637 2 1.0280000872363977e+00 -4.9930754211606227e+03 4.2000000000000000e+03 1.7605715373850092e+01 5.8365041218626912e+00 8.0137541732938715e+01 
2034 1636 2 1.0280000972097407e+00 -4.9948549373640290e+03 4.2000000000000000e+03 1.9903116885604973e+01 5.7556181341057124e+00 8.0293141760206737e+01 
1241 843 2 1.0280000846671871e+00 -3.2852612003354452e+03 4.2000000000000000e+03 1.7631832857259006e+01 5.6471287321590928e+00 8.0307669281778615e+01 
1815 1417 2 1.0280000686361588e+00 8.2974533713006495e+03 4.2000000000000000e+03 1.9232381025340349e+01 5.3584683815300913e+00 8.0404731004243089e+01 
1244 846 2 1.0280000928821131e+00 -3.2869284409684665e+03 4.2000000000000000e+03 1.9920200126587421e+01 5.5952392111927587e+00 8.0456968518705551e+01 
1814 1416 2 1.0280000712501842e+00 8.2982757970550829e+03 4.2000000000000000e+03 1.7812944057412604e+01 5.2431750307252072e+00 8.0695456488283554e+01 
475 77 2 1.0280000763412103e+00 -5.1732443269211644e+03 4.2000000000000000e+03 1.7626544452628504e+01 5.2689438670334638e+00 8.0789260785547711e+01 
1364 966 2 1.0280000665793867e+00 -8.1720898116148794e+02 4.2000000000000000e+03 1.9775073967275414e+01 5.2156089824691199e+00 8.0830795477262654e+01 
974 576 2 1.0280000513650267e+00 3.1401905631152149e+03 4.2000000000000000e+03 1.7914719364109988e+01 4.9810753552311908e+00 8.1057556940922424e+01 
1948 1550 2 1.0280000292967741e+00 -9.0717011509732092e+03 4.2000000000000000e+03 1.8418437214144259e+01 4.8121828719050628e+00 8.1108727260991841e+01 
1945 1547 2 1.0280000236278657e+00 -9.0727066018080222e+03 4.2000000000000000e+03 1.9227346793399441e+01 4.8361326893698910e+00 8.1120864139692088e+01 
1361 963 2 1.0280000924163017e+00 -8.1560958658162792e+02 4.2000000000000000e+03 1.7207037268444310e+01 5.3285846106721921e+00 8.1152126152987378e+01 
975 577 2 1.0280000352997103e+00 3.1396588774442648e+03 4.2000000000000000e+03 1.9744284041058503e+01 5.0067609678857039e+00 8.1153850440930540e+01 
1906 1508 2 1.0280000655153951e+00 1.0027313635766883e+04 4.2000000000000000e+03 1.7472980849295666e+01 5.1029694978275622e+00 8.1274340287636988e+01 
1693 1295 2 1.0280000612566182e+00 3.7086170087988517e+03 4.2000000000000000e+03 1.7489286096000559e+01 5.0753811423026871e+00 8.1317798481339551e+01 
1889 1491 2 1.0280000015812414e+00 2.5834941542491483e+03 4.2000000000000000e+03 1.8180337623043183e+01 4.7165084517728477e+00 8.1431520748934673e+01 
1238 840 2 1.0280000672567922e+00 2.1034767565957895e+03 4.2000000000000000e+03 1.7326071139621710e+01 5.1313304388897842e+00 8.1448066220377754e+01 
1030 632 2 1.0280000228124806e+00 6.1543032918430581e+03 4.2000000000000000e+03 1.7573609989319063e+01 4.9169830795630656e+00 8.1617768819788949e+01 
1449 1051 2 1.0280000486578229e+00 3.7499221085588679e+03 4.2000000000000000e+03 1.7354932834181319e+01 5.0580072641944982e+00 8.1614285861310407e+01 
1005 607 2 1.0280001202855913e+00 2.6885233480629417e+03 4.2000000000000000e+03 1.5673658067550493e+01 6.6231592531533767e+00 8.0951110481940276e+01 
1892 1494 2 1.0279999386729841e+00 2.5839928618926428e+03 4.2000000000000000e+03 1.9471426857607440e+01 4.6633920348159519e+00 8.1650844391742041e+01 
596 198 2 1.0280000647448215e+00 5.9103005844775107e+03 4.2000000000000000e+03 1.8380665761748837e+01 6.6317662351608400e+00 7.9537407550422031e+01 
1288 890 2 1.0279999977887835e+00 -3.5019012013590946e+03 4.2000000000000000e+03 1.7336783503089219e+01 4.9784947559345989e+00 8.1960222325011443e+01 
957 559 2 1.0279997988806870e+00 4.1455363224984262e+02 4.2000000000000000e+03 1.8429362509302418e+01 4.3497916986857570e+00 8.2204467688166787e+01 
960 562 2 1.0279996972118852e+00 4.1458084936243608e+02 4.2000000000000000e+03 1.9357237048913127e+01 4.2811076034789863e+00 8.2410390789589940e+01 
1767 1369 2 1.0279997279680613e+00 8.5207579396971996e+03 4.2000000000000000e+03 1.7404890817641689e+01 4.7195399532442179e+00 8.2704684363035454e+01 
455 57 2 1.0279997792862907e+00 -1.7863904282418953e+03 4.2000000000000000e+03 1.4037378532657694e+01 6.5178203556669931e+00 8.2762746046326228e+01 
1493 1095 2 1.0279996380784580e+00 -1.5788933899873880e+03 4.2000000000000000e+03 1.7471594574615594e+01 4.5446804247245653e+00 8.2933584909510358e+01 
427 29 2 1.0279999722673585e+00 7.4436061870271863e+02 4.2000000000000000e+03 1.4647325983828582e+01 5.9221766125688431e+00 8.3293192122670362e+01 
1756 1358 2 1.0280001991629699e+00 -7.3796534742618678e+03 4.2000000000000000e+03 1.3113655689004093e+01 1.0860901453988564e+01 8.0226486515314718e+01 
1460 1062 2 1.0280001999480466e+00 2.3050230093153482e+03 4.2000000000000000e+03 1.2663451584544397e+01 1.1139970900286198e+01 8.0962609906617828e+01 
1482 1084 2 1.0280000997941829e+00 5.4950633555286731e+03 4.2000000000000000e+03 1.1820229776555626e+01 1.2337127403971504e+01 8.2469613963878800e+01 
799 401 2 1.0280000597416388e+00 8.6167697053011125e+03 4.2000000000000000e+03 1.1491152408477044e+01 1.3249944569710749e+01 8.2721422574377925e+01 
1637 1239 2 1.0280000393163533e+00 -6.0274637156430128e+02 4.2000000000000000e+03 1.1484275947720260e+01 1.3225220885647724e+01 8.2816117941484578e+01 
918 520 2 1.0280000250515300e+00 -5.0017033067423508e+03 4.2000000000000000e+03 1.1459166849582331e+01 1.3278169163252691e+01 8.2878477422375838e+01 
1431 1033 2 1.0279996967604645e+00 -5.3657869939602472e+02 4.2000000000000000e+03 1.5487286129861756e+01 1.2947305879378746e+01 7.7906256216507728e+01 
1833 1435 2 1.0280000055079657e+00 -3.9619174720392170e+03 4.2000000000000000e+03 1.9832234084513065e+01 1.1898708855672130e+01 7.7862473486950066e+01 
404 6 2 1.0279999978991992e+00 -2.0448537178891788e+03 4.2000000000000000e+03 1.9502284478034436e+01 1.2801293863031454e+01 7.7819763335904355e+01 
1268 870 2 1.0280001817035451e+00 -1.6152185288876901e+03 4.2000000000000000e+03 1.8893325580051052e+01 1.2863188801031205e+01 7.7824759409980700e+01 
1265 867 2 1.0280002149011520e+00 -1.6165642074579237e+03 4.2000000000000000e+03 1.8937112060413615e+01 1.2906914951725932e+01 7.7829976258813460e+01 
1601 1203 2 1.0280001177751152e+00 5.0053665125173911e+03 4.2000000000000000e+03 1.9373307301117972e+01 1.2927636047348402e+01 7.7835794361365075e+01 
601 203 2 1.0279998492464111e+00 -2.3579947189525956e+03 4.2000000000000000e+03 1.5207241394101954e+01 1.1853708882129032e+01 7.7996500668002071e+01 
1018 620 2 1.0280004453160723e+00 7.8815369198690987e+03 4.2000000000000000e+03 1.9278006125793489e+01 1.3221305165558574e+01 7.7833690149739311e+01 
597 199 2 1.0280002297597253e+00 -7.1120216518305119e+02 4.2000000000000000e+03 1.9151196331123071e+01 1.2797479151925389e+01 7.7857790145691965e+01 
600 202 2 1.0280002571740936e+00 -7.1122201497787159e+02 4.2000000000000000e+03 1.9131777282218099e+01 1.2875691016354164e+01 7.7852892097817616e+01 
408 10 2 1.0279999501947592e+00 -6.5770974127403606e+03 4.2000000000000000e+03 1.5567325499698230e+01 1.0419904380476270e+01 7.8056030152709027e+01 
1885 1487 2 1.0280002024802644e+00 3.3923158294507348e+03 4.2000000000000000e+03 1.9024929092494308e+01 1.2202558326846329e+01 7.7908036088186847e+01 
1888 1490 2 1.0280002130198587e+00 3.3910848028223968e+03 4.2000000000000000e+03 1.8924357410646333e+01 1.1813030799118641e+01 7.7969050626724581e+01 
1373 975 2 1.0280002438008957e+00 -4.9831405662746911e+03 4.2000000000000000e+03 1.9130994789310730e+01 1.2004311272910380e+01 7.7951664030102108e+01 
736 338 2 1.0279996864722516e+00 -9.5122611033990997e+03 4.2000000000000000e+03 1.5320781467440327e+01 1.3087286610768095e+01 7.8036386323826278e+01 
1701 1303 2 1.0279999673559113e+00 2.1433683951542293e+03 4.2000000000000000e+03 1.5577497018220186e+01 1.0074675853767683e+01 7.8160585965881864e+01 
1795 1397 2 1.0279997174162612e+00 4.8112626912344031e+03 4.2000000000000000e+03 1.5156944043997212e+01 1.3093383728632949e+01 7.8162857623937612e+01 
1836 1438 2 1.0280002231091687e+00 -3.9649304575716023e+03 4.2000000000000000e+03 1.8814262981073025e+01 1.1111305467017386e+01 7.8178498412418705e+01 
645 247 2 1.0279997471323965e+00 -4.2719174283422235e+03 4.2000000000000000e+03 1.5098940549799892e+01 1.2955970597549271e+01 7.8174797795564288e+01 
1376 978 2 1.0280003239148099e+00 -4.9703084600894144e+03 4.2000000000000000e+03 1.8944959979703910e+01 1.1126259870960968e+01 7.8211576250609454e+01 
1495 1097 2 1.0279999410491121e+00 3.7408623137373038e+03 4.2000000000000000e+03 1.4641476870384889e+01 1.1502412144381596e+01 7.8374290793043443e+01 
1149 751 2 1.0280004856255551e+00 -5.1253230414723139e+03 4.2000000000000000e+03 1.9091065924977595e+01 1.2352820280142522e+01 7.8420799328942763e+01 
1556 1158 2 1.0279999573526175e+00 4.7234550125009737e+03 4.2000000000000000e+03 1.4583892295199766e+01 1.1361153048775529e+01 7.8423650638315877e+01 
1739 1341 2 1.0279999909696762e+00 8.0430887884762860e+03 4.2000000000000000e+03 1.4515178071134184e+01 1.0741775478544064e+01 7.8544979941480420e+01 
1949 1551 2 1.0279999912416862e+00 -2.5354767575319770e+03 4.2000000000000000e+03 1.4540317310704314e+01 1.0633273838574604e+01 7.8546475320258907e+01 
1547 1149 2 1.0279999974063820e+00 2.3051420612889874e+03 4.2000000000000000e+03 1.4458107481634904e+01 1.0777692832204915e+01 7.8584045966218369e+01 
476 78 2 1.0279999971969274e+00 -1.0738760704065660e+04 4.2000000000000000e+03 1.4567629328423248e+01 1.0300796733770920e+01 7.8608551231948965e+01 