LAMMPS data file via write_data, version 30 Jul 2016, timestep = 50000000

180 atoms
2 atom types

0.0000000000000000e+00 2.0000000000000000e+01 xlo xhi
0.0000000000000000e+00 2.0000000000000000e+01 ylo yhi
0.0000000000000000e+00 2.0000000000000000e+01 zlo zhi

Masses

1 3.896
2 4.31

Atoms # meso-molecular

27 1 2 1.0279999045241228e+00 -5.9615628632359108e+02 1.0000000000000000e+00 1.4348405995532465e+00 7.8965056784009824e-01 5.3534051755746068e+00 
21 1 2 1.0279999045241228e+00 -4.9635707668816173e+02 1.0000000000000000e+00 1.4348405995529725e+00 7.8965056784053134e-01 5.3534051755748004e+00 
67 1 2 1.0279999045241179e+00 -6.9480969853679653e+02 1.0000000000000000e+00 1.4348405924946666e+00 7.8965059704849749e-01 5.3534051607626862e+00 
48 1 2 1.0279999045241222e+00 -5.7248367207381148e+02 1.0000000000000000e+00 1.4348405995531976e+00 7.8965056784042775e-01 5.3534051755743697e+00 
123 1 2 1.0279999045241235e+00 -6.7308229172311644e+02 1.0000000000000000e+00 1.4348405995530862e+00 7.8965056784033305e-01 5.3534051755747374e+00 
11 1 2 1.0280000856419389e+00 -5.7276643608230461e+02 1.0000000000000000e+00 9.7206390908477797e-02 3.3198944507153000e-01 4.5951787475595589e+00 
77 1 2 1.0280000856419327e+00 -5.0891599695149728e+02 1.0000000000000000e+00 9.7206386737031900e-02 3.3198943316117202e-01 4.5951787496788086e+00 
12 1 2 1.0280000856419405e+00 -5.7257444855246865e+02 1.0000000000000000e+00 9.7206390979010418e-02 3.3198944526902979e-01 4.5951787475233461e+00 
78 1 2 1.0280000856419240e+00 -5.3378110240320848e+02 1.0000000000000000e+00 9.7206379264027781e-02 3.3198941257382980e-01 4.5951787535497166e+00 
122 1 2 1.0279999652101661e+00 -6.6718939611874578e+02 1.0000000000000000e+00 3.5508169793903845e+00 1.5636557798759401e+00 9.3515717173123605e+00 
118 1 2 1.0279999649693656e+00 -3.5109506457668675e+02 1.0000000000000000e+00 3.5501802634440809e+00 1.5652055218481600e+00 9.3522853789185358e+00 
127 1 2 1.0279999649693659e+00 -5.4061037525606719e+02 1.0000000000000000e+00 3.5501802600857189e+00 1.5652055252189052e+00 9.3522853781558322e+00 
28 1 2 1.0279999649693670e+00 -5.4999058172957143e+02 1.0000000000000000e+00 3.5501802597956305e+00 1.5652055255094859e+00 9.3522853780894106e+00 
47 1 2 1.0279999649693661e+00 -6.4748162229317006e+02 1.0000000000000000e+00 3.5501802599513494e+00 1.5652055253538779e+00 9.3522853781254192e+00 
25 1 2 1.0280000782358862e+00 -6.0977060074974202e+02 1.0000000000000000e+00 2.3427899980965474e+00 1.1492088828579725e+00 1.0807801578167933e+01 
17 1 2 1.0280000784945709e+00 -6.0756278152230129e+02 1.0000000000000000e+00 2.3414655144730219e+00 1.1497767682829902e+00 1.0807063761749825e+01 
124 1 2 1.0280000784945909e+00 -6.7728612795852371e+02 1.0000000000000000e+00 2.3414655034694944e+00 1.1497767681878150e+00 1.0807063756525245e+01 
23 1 2 1.0280000784945882e+00 -6.3617012885650013e+02 1.0000000000000000e+00 2.3414655007023555e+00 1.1497767681100630e+00 1.0807063755221721e+01 
85 1 2 1.0280000784945871e+00 -3.9394788680817942e+02 1.0000000000000000e+00 2.3414655073889801e+00 1.1497767682984299e+00 1.0807063758371537e+01 
26 1 2 1.0280000251158927e+00 -4.0633327203194744e+02 1.0000000000000000e+00 2.5794314585045939e+00 1.9026126891547769e+01 8.8246099212610183e+00 
101 1 2 1.0280000251158987e+00 -4.2962253649705701e+02 1.0000000000000000e+00 2.5794314562519873e+00 1.9026126888907285e+01 8.8246099211267790e+00 
107 1 2 1.0280000251158989e+00 -6.1447764546756025e+02 1.0000000000000000e+00 2.5794314562522405e+00 1.9026126888907633e+01 8.8246099211267524e+00 
143 1 2 1.0280000251158987e+00 -5.9750268510130843e+02 1.0000000000000000e+00 2.5794314562519247e+00 1.9026126888907136e+01 8.8246099211268394e+00 
139 1 2 1.0280000251158992e+00 -6.2026170292207451e+02 1.0000000000000000e+00 2.5794314562519838e+00 1.9026126888907381e+01 8.8246099211266973e+00 
58 1 2 1.0280003995705265e+00 -7.0820136007195720e+02 1.0000000000000000e+00 1.6612506730108361e+00 1.8363962969191562e+01 9.0827766558041088e+00 
100 1 2 1.0279999769302648e+00 -5.5566549854162486e+02 1.0000000000000000e+00 3.3285452463321535e-01 1.8995646805772704e+01 9.7831194009550924e+00 
121 1 2 1.0279999769302632e+00 -5.2746678057832423e+02 1.0000000000000000e+00 3.3285452464794274e-01 1.8995646806392717e+01 9.7831194020470686e+00 
70 1 2 1.0279999769302643e+00 -6.1193186569571617e+02 1.0000000000000000e+00 3.3285452464779997e-01 1.8995646806390685e+01 9.7831194020439103e+00 
84 1 2 1.0279999769302641e+00 -6.6482059101460777e+02 1.0000000000000000e+00 3.3285452464787746e-01 1.8995646806386752e+01 9.7831194020362542e+00 
99 1 2 1.0279999769302626e+00 -5.6070017337143577e+02 1.0000000000000000e+00 3.3285452466488857e-01 1.8995646807078924e+01 9.7831194032528987e+00 
178 1 2 1.0280000302883090e+00 -2.7690732463789777e+02 1.0000000000000000e+00 9.4986417675739609e+00 2.7048205376552583e+00 1.1570497307792378e+01 
117 1 2 1.0280000301923564e+00 -3.0982712340254824e+02 1.0000000000000000e+00 9.5021134326528642e+00 2.7101119027648148e+00 1.1564347385834461e+01 
155 1 2 1.0280000086470535e+00 -5.1656597533509193e+02 1.0000000000000000e+00 9.3964682040760366e+00 2.2325367112478958e+00 1.1553352513694207e+01 
82 1 2 1.0280000090782222e+00 -6.3336227450032243e+02 1.0000000000000000e+00 9.3958922940292311e+00 2.2397693450923826e+00 1.1553237472883801e+01 
15 1 2 1.0279999869375045e+00 -4.6917625806566105e+02 1.0000000000000000e+00 9.6729296349121174e+00 1.7520832462008826e+00 1.1444172531357976e+01 
83 1 2 1.0279999869009879e+00 -5.5981937894146176e+02 1.0000000000000000e+00 9.6912350009105772e+00 1.7365493433698354e+00 1.1442901604747808e+01 
104 1 2 1.0279999051427930e+00 -6.0623969959081421e+02 1.0000000000000000e+00 1.1352113165287314e+01 1.7343813614849715e+00 1.2720876616671925e+01 
170 1 2 1.0279999051427928e+00 -4.7180878776964323e+02 1.0000000000000000e+00 1.1352113165287399e+01 1.7343813614845798e+00 1.2720876616671283e+01 
74 1 2 1.0279999051427924e+00 -5.7820083525708037e+02 1.0000000000000000e+00 1.1352113165287033e+01 1.7343813614850092e+00 1.2720876616672051e+01 
134 1 2 1.0279999051427924e+00 -4.4584611842199115e+02 1.0000000000000000e+00 1.1352113165287410e+01 1.7343813614846253e+00 1.2720876616671354e+01 
44 1 2 1.0280000084142755e+00 -5.1606039309604091e+02 1.0000000000000000e+00 1.1583914870754885e+01 3.2815974435682436e+00 1.1169717726679622e+01 
176 1 2 1.0280000084142520e+00 -3.6403431824977656e+02 1.0000000000000000e+00 1.1583914890661601e+01 3.2815974209080050e+00 1.1169717723844714e+01 
80 1 2 1.0280000084142957e+00 -5.0914041619722400e+02 1.0000000000000000e+00 1.1583914794736229e+01 3.2815975301259876e+00 1.1169717737516544e+01 
81 1 2 1.0280000084142982e+00 -5.4485205943094377e+02 1.0000000000000000e+00 1.1583914794572461e+01 3.2815975303143858e+00 1.1169717737540799e+01 
64 1 2 1.0279999806857938e+00 -7.2456797606987459e+02 1.0000000000000000e+00 1.2468661677702020e+01 3.9302002968830902e+00 1.3152547561167145e+01 
19 1 2 1.0279999794912977e+00 -6.5802408422523399e+02 1.0000000000000000e+00 1.2424073254413976e+01 3.9208828083117560e+00 1.3174488704539590e+01 
61 1 2 1.0279999794912973e+00 -4.8220838162945938e+02 1.0000000000000000e+00 1.2424073254414077e+01 3.9208828083116676e+00 1.3174488704539733e+01 
13 1 2 1.0279999794912977e+00 -7.6694746782791560e+02 1.0000000000000000e+00 1.2424073254414042e+01 3.9208828083117746e+00 1.3174488704539554e+01 
49 1 2 1.0279999794912973e+00 -6.3715628723157829e+02 1.0000000000000000e+00 1.2424073254414003e+01 3.9208828083119109e+00 1.3174488704539327e+01 
50 1 2 1.0280025427968706e+00 -4.6390322786676188e+02 1.0000000000000000e+00 1.2973866068424062e+01 1.2976846289920031e+01 5.2434946776895019e+00 
5 1 2 1.0280025427968706e+00 -5.6573677898278163e+02 1.0000000000000000e+00 1.2973866068423703e+01 1.2976846289920653e+01 5.2434946776902835e+00 
159 1 2 1.0280025427968704e+00 -6.1104543700390013e+02 1.0000000000000000e+00 1.2973866068419577e+01 1.2976846289928776e+01 5.2434946776981688e+00 
2 1 2 1.0280025427968702e+00 -4.6496939630445041e+02 1.0000000000000000e+00 1.2973866068419980e+01 1.2976846289927991e+01 5.2434946776973739e+00 
41 1 2 1.0280025427968704e+00 -4.9490663485541717e+02 1.0000000000000000e+00 1.2973866068419046e+01 1.2976846289929775e+01 5.2434946776992284e+00 
3 1 2 1.0280025427968704e+00 -4.9247003080169486e+02 1.0000000000000000e+00 1.2973866068425895e+01 1.2976846289916367e+01 5.2434946776860478e+00 
8 1 2 1.0280025427968704e+00 -4.8233801937708131e+02 1.0000000000000000e+00 1.2973866068426036e+01 1.2976846289916089e+01 5.2434946776857876e+00 
76 1 2 1.0279999999982663e+00 -5.3021340352501375e+02 1.0000000000000000e+00 1.2483953639162031e+01 1.7427046200496402e+01 5.2390530263888859e+00 
175 1 2 1.0279999999982659e+00 -4.2485879070030200e+02 1.0000000000000000e+00 1.2483954245109292e+01 1.7427046840480998e+01 5.2390530134209774e+00 
93 1 2 1.0279999999982643e+00 -5.5085895165631143e+02 1.0000000000000000e+00 1.2483954121128717e+01 1.7427046709462950e+01 5.2390530160416127e+00 
116 1 2 1.0279999999982623e+00 -4.0559917577924500e+02 1.0000000000000000e+00 1.2483953700150161e+01 1.7427046264944206e+01 5.2390530250985847e+00 
33 1 2 1.0279999999983067e+00 -4.3989865720004434e+02 1.0000000000000000e+00 1.2893779865227478e+01 1.7055956278497934e+01 6.0750271076460223e+00 
162 1 2 1.0279999999983063e+00 -5.6382121534157079e+02 1.0000000000000000e+00 1.2893779868446194e+01 1.7055956275551971e+01 6.0750271047603706e+00 
68 1 2 1.0279999999983067e+00 -4.8606306651868130e+02 1.0000000000000000e+00 1.2893779867113771e+01 1.7055956278709370e+01 6.0750271068151473e+00 
69 1 2 1.0279999999983069e+00 -4.7588440171505033e+02 1.0000000000000000e+00 1.2893779867921191e+01 1.7055956274749711e+01 6.0750271046616193e+00 
90 1 2 1.0279998966406014e+00 -6.2811100305854563e+02 1.0000000000000000e+00 1.6978537559201150e+01 1.2744087903185237e+00 9.3627063745114878e+00 
53 1 2 1.0279999998634080e+00 -5.2681689267700096e+02 1.0000000000000000e+00 1.6978297981976475e+01 1.4303017509490474e+00 9.1987016077584585e+00 
153 1 2 1.0279998966409793e+00 -2.4214765185615030e+02 1.0000000000000000e+00 1.6978537401408467e+01 1.2744091430344506e+00 9.3627060177679997e+00 
147 1 2 1.0279998966409789e+00 -2.4918432060565991e+02 1.0000000000000000e+00 1.6978537401417807e+01 1.2744091430133504e+00 9.3627060177893568e+00 
52 1 2 1.0279999917223019e+00 -4.6635116353200988e+02 1.0000000000000000e+00 1.7168580496193552e+01 2.0261026507543733e+00 7.1177191951841534e+00 
54 1 2 1.0279999917894880e+00 -4.4839836119508362e+02 1.0000000000000000e+00 1.7166481222489367e+01 2.0263814915993685e+00 7.1177650232462506e+00 
59 1 2 1.0279999917860292e+00 -5.0262488130404597e+02 1.0000000000000000e+00 1.7166564376881546e+01 2.0263737112480857e+00 7.1177653137808754e+00 
18 1 2 1.0279999917860378e+00 -6.9857046587952402e+02 1.0000000000000000e+00 1.7166563973334643e+01 2.0263737656305847e+00 7.1177653240905965e+00 
24 1 2 1.0279999917859521e+00 -7.1420065668750965e+02 1.0000000000000000e+00 1.7166565826077132e+01 2.0263735740342081e+00 7.1177653178463167e+00 
89 1 2 1.0279999917342404e+00 -4.8189048206218195e+02 1.0000000000000000e+00 1.7168209002793333e+01 2.0261519282471334e+00 7.1177264781003426e+00 
94 1 2 1.0280000933436482e+00 -5.6935057512190929e+02 1.0000000000000000e+00 1.5280969628587684e+01 2.3475054173463827e+00 1.1615747315946710e+01 
103 1 2 1.0280000999359338e+00 -5.6610669128113329e+02 1.0000000000000000e+00 1.5223975762823676e+01 2.2996830578395726e+00 1.1538311793690724e+01 
108 1 2 1.0280000999430507e+00 -5.6297250361477893e+02 1.0000000000000000e+00 1.5223578825342319e+01 2.2993151482615128e+00 1.1537824659802304e+01 
180 1 2 1.0280000999652890e+00 -5.7630006987885338e+02 1.0000000000000000e+00 1.5222049651054427e+01 2.2978915849456638e+00 1.1535952462627174e+01 
137 1 2 1.0280000999655625e+00 -5.3283514541829527e+02 1.0000000000000000e+00 1.5222026151740545e+01 2.2978696291718381e+00 1.1535923744440643e+01 
98 1 2 1.0279998724383275e+00 -6.7600743350870141e+02 1.0000000000000000e+00 1.5445469989817632e+01 8.6733150141343196e-01 1.1103077280087444e+01 
150 1 2 1.0280000569891246e+00 -4.2589279840326225e+02 1.0000000000000000e+00 1.8870235023812395e+01 1.4222067957813009e+00 1.2938929535796108e+01 
114 1 2 1.0280000569893548e+00 -4.2073321870598960e+02 1.0000000000000000e+00 1.8870234956256997e+01 1.4222067209001066e+00 1.2938929151661933e+01 
145 1 2 1.0280000569894487e+00 -4.2834978491381037e+02 1.0000000000000000e+00 1.8870235083894986e+01 1.4222064538437182e+00 1.2938928822780209e+01 
146 1 2 1.0280000569893890e+00 -4.4191851027797617e+02 1.0000000000000000e+00 1.8870235028678877e+01 1.4222065866859248e+00 1.2938929009750629e+01 
152 1 2 1.0280000569895493e+00 -4.4846745051779584e+02 1.0000000000000000e+00 1.8870235042191009e+01 1.4222064460477346e+00 1.2938928684853547e+01 
110 1 2 1.0280000569890804e+00 -3.3745800444835635e+02 1.0000000000000000e+00 1.8870235006101257e+01 1.4222068503117244e+00 1.2938929626540943e+01 
164 1 2 1.0279999393726003e+00 -5.2622094180210934e+02 1.0000000000000000e+00 1.4174978096130683e+01 2.2840638866694940e+00 1.3493949705277243e+01 
158 1 2 1.0279999393726027e+00 -4.8345546280562763e+02 1.0000000000000000e+00 1.4174978096088346e+01 2.2840638866886067e+00 1.3493949705266523e+01 
165 1 2 1.0279999393726074e+00 -4.9232768025811106e+02 1.0000000000000000e+00 1.4174978095873463e+01 2.2840638867895935e+00 1.3493949705211280e+01 
42 1 2 1.0279999393726067e+00 -4.6137551596524162e+02 1.0000000000000000e+00 1.4174978096784836e+01 2.2840638863631932e+00 1.3493949705445104e+01 
142 1 2 1.0279999911326265e+00 -5.2208082601053263e+02 1.0000000000000000e+00 1.6036599004874528e+01 9.9645753333193610e-01 1.4355840394095628e+01 
154 1 2 1.0279999911326263e+00 -7.0748426008637648e+02 1.0000000000000000e+00 1.6036599004839243e+01 9.9645753333264819e-01 1.4355840394082376e+01 
106 1 2 1.0279999911326261e+00 -6.5795781839742665e+02 1.0000000000000000e+00 1.6036599004874329e+01 9.9645753333194809e-01 1.4355840394095550e+01 
166 1 2 1.0279999216163094e+00 -5.9798165574556958e+02 1.0000000000000000e+00 1.7498977988259224e+01 1.1022053469590831e+00 1.4605926979323648e+01 
157 1 2 1.0279999934696380e+00 -6.5178690196384082e+02 1.0000000000000000e+00 1.7098820612190632e+01 9.6277851748015106e-02 1.4878168737764140e+01 
6 1 2 1.0280000000193343e+00 -5.7299732731860854e+02 1.0000000000000000e+00 1.6960489256292956e+01 7.1481903699927880e+00 1.3754460510639806e+01 
135 1 2 1.0280000000193343e+00 -6.4636401002076411e+02 1.0000000000000000e+00 1.6960489256293179e+01 7.1481903699925526e+00 1.3754460510638921e+01 
86 1 2 1.0280000000193343e+00 -3.9989082233505621e+02 1.0000000000000000e+00 1.6960489256293023e+01 7.1481903699926139e+00 1.3754460510639197e+01 
20 1 2 1.0280000000193343e+00 -6.1475990498651811e+02 1.0000000000000000e+00 1.6960489256293204e+01 7.1481903699928777e+00 1.3754460510640000e+01 
62 1 2 1.0280000000193343e+00 -5.7642132472368871e+02 1.0000000000000000e+00 1.6960489256294228e+01 7.1481903699929843e+00 1.3754460510639911e+01 
177 1 2 1.0280000000193343e+00 -6.5331496670643037e+02 1.0000000000000000e+00 1.6960489256293179e+01 7.1481903699925526e+00 1.3754460510638921e+01 
141 1 2 1.0280000000193343e+00 -4.6301420066082255e+02 1.0000000000000000e+00 1.6960489256293208e+01 7.1481903699925597e+00 1.3754460510638932e+01 
97 1 2 1.0279974519892638e+00 -4.8596277220586563e+02 1.0000000000000000e+00 1.6042792315166004e+01 1.3820288972351971e+01 5.9779823390880509e+00 
109 1 2 1.0279974546114152e+00 -5.9005343803015228e+02 1.0000000000000000e+00 1.6042306754387514e+01 1.3825377346558660e+01 5.9749114643991428e+00 
92 1 2 1.0279974545781358e+00 -5.6102738250621701e+02 1.0000000000000000e+00 1.6042308885988291e+01 1.3825360461000525e+01 5.9749217259513268e+00 
55 1 2 1.0279974544204618e+00 -4.8540786649275327e+02 1.0000000000000000e+00 1.6042318820672499e+01 1.3825283198441651e+01 5.9749677363572680e+00 
91 1 2 1.0279974588619003e+00 -5.3858899386441749e+02 1.0000000000000000e+00 1.6042074665512349e+01 1.3827040187560469e+01 5.9739201458469831e+00 
57 1 2 1.0279974611872227e+00 -3.9044850550616439e+02 1.0000000000000000e+00 1.6041965076200601e+01 1.3827738698207407e+01 5.9735111585576499e+00 
128 1 2 1.0279974689231290e+00 -5.2611781971397102e+02 1.0000000000000000e+00 1.6041636727012470e+01 1.3829640553402108e+01 5.9723924774121873e+00 
149 1 2 1.0279997833389116e+00 -5.3171692577794227e+02 1.0000000000000000e+00 1.9375554539851468e+01 1.8625651196366480e+01 6.3625443854011801e+00 
88 1 2 1.0279997833389105e+00 -4.9809517276224329e+02 1.0000000000000000e+00 1.9375554539866357e+01 1.8625651196440206e+01 6.3625443853800485e+00 
113 1 2 1.0279997833389118e+00 -4.9480509000427622e+02 1.0000000000000000e+00 1.9375554539847315e+01 1.8625651196346116e+01 6.3625443854067099e+00 
148 1 2 1.0279997833389110e+00 -4.5139600767435519e+02 1.0000000000000000e+00 1.9375554539850537e+01 1.8625651196361744e+01 6.3625443854027077e+00 
63 1 2 1.0279997833389107e+00 -8.4118474381682449e+02 1.0000000000000000e+00 1.9375554539849688e+01 1.8625651196357694e+01 6.3625443854036225e+00 
140 1 2 1.0279996663695872e+00 -4.5664049504241609e+02 1.0000000000000000e+00 1.6695542490653121e+01 1.6553899684731100e+01 9.0547910355015446e+00 
129 1 2 1.0279998406473658e+00 -4.8991859286775104e+02 1.0000000000000000e+00 1.6983888364945638e+01 1.6111038374800213e+01 9.2634523054561377e+00 
169 1 2 1.0279998406473629e+00 -5.0454536299230404e+02 1.0000000000000000e+00 1.6983888368390286e+01 1.6111038372350411e+01 9.2634523101372839e+00 
163 1 2 1.0279998406473640e+00 -5.0270497833393210e+02 1.0000000000000000e+00 1.6983888367613240e+01 1.6111038372903060e+01 9.2634523090811758e+00 
133 1 2 1.0279998406361925e+00 -5.8429887482099468e+02 1.0000000000000000e+00 1.6983874915829340e+01 1.6111051063184600e+01 9.2634136805092915e+00 
111 1 2 1.0279993419286637e+00 -2.9218219451910198e+02 1.0000000000000000e+00 1.9388972335619055e+01 1.5822445643254506e+01 7.7848782264347660e+00 
119 1 2 1.0279999633802981e+00 -4.6386960829499526e+02 1.0000000000000000e+00 1.9823271025458883e+01 1.5738879399581643e+01 7.9558199998342864e+00 
16 1 2 1.0280003955743684e+00 -3.8015090014388625e+02 1.0000000000000000e+00 1.9913159508220087e+01 1.5837213276117831e+01 7.9921745517131990e+00 
10 1 2 1.0280003955739474e+00 -3.5847977370332603e+02 1.0000000000000000e+00 1.9913159462317754e+01 1.5837213180524339e+01 7.9921745002247437e+00 
9 1 2 1.0280003955743688e+00 -3.6392909677364054e+02 1.0000000000000000e+00 1.9913159508220009e+01 1.5837213276117746e+01 7.9921745517133838e+00 
14 1 2 1.0280003955744224e+00 -4.5117621604943656e+02 1.0000000000000000e+00 1.9913159556229100e+01 1.5837213338069473e+01 7.9921744753274275e+00 
46 1 2 1.0280003955744208e+00 -3.8655256922861810e+02 1.0000000000000000e+00 1.9913159556098652e+01 1.5837213337790415e+01 7.9921744751557693e+00 
65 1 2 1.0279999785390179e+00 -6.0740716038620837e+02 1.0000000000000000e+00 1.7545872163737400e+01 1.8079106900021696e+01 6.9251615826141162e+00 
120 1 2 1.0279999785390852e+00 -5.1133327219574568e+02 1.0000000000000000e+00 1.7545872136591882e+01 1.8079106942109483e+01 6.9251615802694557e+00 
56 1 2 1.0279999785390823e+00 -6.2680204671171020e+02 1.0000000000000000e+00 1.7545872139142880e+01 1.8079106938197448e+01 6.9251615804468569e+00 
22 1 2 1.0279999785390790e+00 -5.5353861083148763e+02 1.0000000000000000e+00 1.7545872057644964e+01 1.8079107064332685e+01 6.9251615736285732e+00 
31 1 2 1.0280001093857947e+00 -5.7932053104609884e+02 1.0000000000000000e+00 1.7068177435768632e+01 1.9439324975274225e+01 7.8905661485630763e+00 
32 1 2 1.0280000939493168e+00 -5.9176109983411686e+02 1.0000000000000000e+00 1.7087401898116799e+01 1.9521859341318489e+01 8.2215021065570149e+00 
144 1 2 1.0280000901802944e+00 -5.2686995533112076e+02 1.0000000000000000e+00 1.7105891414786566e+01 1.9538546140717528e+01 8.2951043595018898e+00 
138 1 2 1.0280000254419401e+00 -6.1581573819640414e+02 1.0000000000000000e+00 1.7367260422338706e+01 1.9721407333952573e+01 8.6903411402464990e+00 
4 1 2 1.0280000000193339e+00 -2.7451123875909843e+02 1.0000000000000000e+00 1.6556125434665841e+01 1.0254866548805950e+01 1.2829601747926764e+01 
37 1 2 1.0280000000193339e+00 -7.2288791006863062e+02 1.0000000000000000e+00 1.6556125434665208e+01 1.0254866548805731e+01 1.2829601747926308e+01 
1 1 2 1.0280000000193339e+00 -6.4010559784194584e+02 1.0000000000000000e+00 1.6556125434665841e+01 1.0254866548805950e+01 1.2829601747926764e+01 
79 1 2 1.0280000000193339e+00 -5.5793949806032117e+02 1.0000000000000000e+00 1.6556125434665841e+01 1.0254866548805950e+01 1.2829601747926764e+01 
38 1 2 1.0280000000193339e+00 -5.1087615957544324e+02 1.0000000000000000e+00 1.6556125434665489e+01 1.0254866548805882e+01 1.2829601747926699e+01 
7 1 2 1.0280000000193339e+00 -6.1374779926397559e+02 1.0000000000000000e+00 1.6556125434665841e+01 1.0254866548805950e+01 1.2829601747926764e+01 
132 1 2 1.0280000000193339e+00 -6.0629630672793132e+02 1.0000000000000000e+00 1.6556125434665841e+01 1.0254866548805950e+01 1.2829601747926764e+01 
43 1 2 1.0279998123152831e+00 -7.3255736830721662e+02 1.0000000000000000e+00 1.6369541011740075e+01 1.6450447679021387e+01 1.2824229011770022e+01 
73 1 2 1.0279998123152840e+00 -5.3096279592725443e+02 1.0000000000000000e+00 1.6369541011729513e+01 1.6450447679036394e+01 1.2824229011709447e+01 
51 1 2 1.0279998123152847e+00 -3.4575626884215546e+02 1.0000000000000000e+00 1.6369541011732160e+01 1.6450447679032443e+01 1.2824229011725052e+01 
45 1 2 1.0279998123152829e+00 -4.5197488667315872e+02 1.0000000000000000e+00 1.6369541011732103e+01 1.6450447679032525e+01 1.2824229011724698e+01 
87 1 2 1.0279998123152829e+00 -3.2544286167474411e+02 1.0000000000000000e+00 1.6369541011732174e+01 1.6450447679032404e+01 1.2824229011725144e+01 
168 1 2 1.0279998089124667e+00 -5.5735349527972733e+02 1.0000000000000000e+00 1.6369067995151639e+01 1.6450659176580267e+01 1.2822538279394456e+01 
105 1 2 1.0280000275527326e+00 -6.2366373770474274e+02 1.0000000000000000e+00 1.9401260446055815e+01 1.5300850593908072e+01 1.1955661358952170e+01 
96 1 2 1.0280000275527232e+00 -3.9217231014781618e+02 1.0000000000000000e+00 1.9401260418523080e+01 1.5300850592011072e+01 1.1955661352370388e+01 
156 1 2 1.0280000275535508e+00 -4.3671723330017136e+02 1.0000000000000000e+00 1.9401268366527965e+01 1.5300851140267865e+01 1.1955663259264718e+01 
102 1 2 1.0280000275527226e+00 -4.4634980115012235e+02 1.0000000000000000e+00 1.9401260418522373e+01 1.5300850592011022e+01 1.1955661352370226e+01 
66 1 2 1.0280000275527210e+00 -4.7247069538000318e+02 1.0000000000000000e+00 1.9401260418522867e+01 1.5300850592011059e+01 1.1955661352370456e+01 
60 1 2 1.0280000275527201e+00 -4.6408147693242950e+02 1.0000000000000000e+00 1.9401260418522099e+01 1.5300850592011011e+01 1.1955661352370367e+01 
171 1 2 1.0279999617171731e+00 -6.0612949789955485e+02 1.0000000000000000e+00 1.5062512242348252e+01 1.9903996892819091e+01 1.2679993011887669e+01 
173 1 2 1.0279999891453049e+00 -5.5710598488810854e+02 1.0000000000000000e+00 1.5012307002874856e+01 1.9939145968431628e+01 1.2757549672753267e+01 
179 1 2 1.0279999891347267e+00 -5.2910667604575201e+02 1.0000000000000000e+00 1.5012324928682199e+01 1.9939131238533555e+01 1.2757524573124629e+01 
174 1 2 1.0279999897808156e+00 -6.2574531117983270e+02 1.0000000000000000e+00 1.5011240702445928e+01 1.9940024816477131e+01 1.2759039196568908e+01 
126 1 2 1.0279999906899004e+00 -7.3541485303234754e+02 1.0000000000000000e+00 1.7239920541850523e+01 1.9649159411874574e+01 1.1460673467438715e+01 
39 1 2 1.0279999906899027e+00 -5.5916748873494032e+02 1.0000000000000000e+00 1.7239920541850953e+01 1.9649159411873978e+01 1.1460673467440222e+01 
75 1 2 1.0279999906899007e+00 -5.9761372670152730e+02 1.0000000000000000e+00 1.7239920541851035e+01 1.9649159411873892e+01 1.1460673467440433e+01 
115 1 2 1.0279999906899013e+00 -5.9297266086578065e+02 1.0000000000000000e+00 1.7239920541928960e+01 1.9649159412143035e+01 1.1460673467000664e+01 
40 1 2 1.0279999906899020e+00 -5.1841908293869903e+02 1.0000000000000000e+00 1.7239920541850640e+01 1.9649159411874155e+01 1.1460673467439614e+01 
95 1 2 1.0280000024896536e+00 -4.4554297790433037e+02 1.0000000000000000e+00 1.9732046138814450e+01 1.7506681277865841e+01 1.1777206639065056e+01 
136 1 2 1.0279999441647485e+00 -2.8145893993638134e+02 1.0000000000000000e+00 1.9679472605127103e+01 1.7575010126434115e+01 1.1736146983932306e+01 
112 1 2 1.0279999441647487e+00 -3.8750702533413153e+02 1.0000000000000000e+00 1.9679472605127149e+01 1.7575010126434034e+01 1.1736146983932366e+01 
172 1 2 1.0279999441647489e+00 -2.7135848302378213e+02 1.0000000000000000e+00 1.9679472605127057e+01 1.7575010126433938e+01 1.1736146983932494e+01 
160 1 2 1.0279999441647487e+00 -7.6771745405649403e+02 1.0000000000000000e+00 1.9679472605133597e+01 1.7575010126428786e+01 1.1736146983934788e+01 
34 1 2 1.0280001959007519e+00 -4.8065028582574405e+02 1.0000000000000000e+00 1.7219762306673552e+01 1.7145337470001305e+01 1.0049781089238339e+01 
125 1 2 1.0280001956998999e+00 -5.2681739501821164e+02 1.0000000000000000e+00 1.7219727080752449e+01 1.7145333623931233e+01 1.0049786108333050e+01 
151 1 2 1.0280004531566462e+00 -5.7908719889214717e+02 1.0000000000000000e+00 1.7262398100721619e+01 1.7148356512104332e+01 1.0042083860971678e+01 
35 1 2 1.0279999646052906e+00 -5.2884133167807727e+02 1.0000000000000000e+00 1.4494067030749651e+01 1.7709198452023802e+01 1.3963079362418378e+01 
72 1 2 1.0280001361119639e+00 -5.4626749262408975e+02 1.0000000000000000e+00 1.4425260831371965e+01 1.7360368423230668e+01 1.3983362476953150e+01 
71 1 2 1.0280001361390068e+00 -5.0299807932194767e+02 1.0000000000000000e+00 1.4421490087310683e+01 1.7358138993232142e+01 1.3976903073825772e+01 
29 1 2 1.0280001353967241e+00 -5.0448767882053511e+02 1.0000000000000000e+00 1.4462418734031774e+01 1.7375757604708337e+01 1.4036914141532243e+01 
36 1 2 1.0280001330514339e+00 -4.7160032788236560e+02 1.0000000000000000e+00 1.4496467428708383e+01 1.7386625851231706e+01 1.4075089903396735e+01 
30 1 2 1.0280001342215606e+00 -4.9906899551712138e+02 1.0000000000000000e+00 1.4483109075277225e+01 1.7382306384932793e+01 1.4061076531521788e+01 
161 1 2 1.0280000214354463e+00 -4.8352753172864817e+02 1.0000000000000000e+00 1.7699178860587796e+01 1.9477072008257281e+01 1.3938416874042531e+01 
130 1 2 1.0280000043638939e+00 -6.0285298024645567e+02 1.0000000000000000e+00 1.7651557360336120e+01 1.9580313997519255e+01 1.4259014844670141e+01 
167 1 2 1.0279999832572155e+00 -4.8829683438894864e+02 1.0000000000000000e+00 1.7525374637401761e+01 1.9768920351239448e+01 1.4608486092219607e+01 
131 1 2 1.0279999813475209e+00 -5.4848410689751586e+02 1.0000000000000000e+00 1.7517733015555834e+01 1.9789388268977728e+01 1.4632112683561578e+01 

Velocities

27 1.5977894290173716e-01 -7.0689119361848254e-02 3.3712871844290937e-01
21 1.5977894290174055e-01 -7.0689119361847755e-02 3.3712871844291120e-01
67 1.5977894290266073e-01 -7.0689119363064934e-02 3.3712871844356418e-01
48 1.5977894290174005e-01 -7.0689119361847352e-02 3.3712871844291015e-01
123 1.5977894290174535e-01 -7.0689119361846603e-02 3.3712871844291314e-01
11 1.5978392216690332e-01 -7.0689515601655289e-02 3.3714258752872200e-01
77 1.5978392216666601e-01 -7.0689515602192693e-02 3.3714258752901027e-01
12 1.5978392216690407e-01 -7.0689515601646283e-02 3.3714258752871451e-01
78 1.5978392216623288e-01 -7.0689515603122435e-02 3.3714258752948395e-01
122 1.5939779872354934e-01 -7.1472577359967829e-02 3.3703284633441588e-01
118 1.5939777243748923e-01 -7.1472634677360980e-02 3.3703285488291945e-01
127 1.5939777243744616e-01 -7.1472634677504282e-02 3.3703285488300261e-01
28 1.5939777243744915e-01 -7.1472634677511040e-02 3.3703285488300488e-01
47 1.5939777243744255e-01 -7.1472634677511970e-02 3.3703285488300527e-01
25 1.5938660321171894e-01 -7.1448967027608001e-02 3.3707579484508476e-01
17 1.5938652487181354e-01 -7.1448914730337335e-02 3.3707580619109900e-01
124 1.5938652487108018e-01 -7.1448914729945717e-02 3.3707580619163641e-01
23 1.5938652487089452e-01 -7.1448914729848045e-02 3.3707580619176597e-01
85 1.5938652487134719e-01 -7.1448914730089033e-02 3.3707580619142119e-01
26 1.5945468786316727e-01 -7.1417148152968776e-02 3.3705813717361044e-01
101 1.5945468786301359e-01 -7.1417148152830873e-02 3.3705813717379923e-01
107 1.5945468786301739e-01 -7.1417148152833204e-02 3.3705813717379368e-01
143 1.5945468786301589e-01 -7.1417148152831511e-02 3.3705813717379962e-01
139 1.5945468786300646e-01 -7.1417148152824267e-02 3.3705813717380639e-01
58 1.5947237584377955e-01 -7.1430012836826109e-02 3.3708000181948056e-01
100 1.5943476760714309e-01 -7.1317540131957999e-02 3.3714827258097280e-01
121 1.5943476760714403e-01 -7.1317540132035076e-02 3.3714827258098445e-01
70 1.5943476760716241e-01 -7.1317540132042806e-02 3.3714827258098962e-01
84 1.5943476760715447e-01 -7.1317540132039378e-02 3.3714827258098762e-01
99 1.5943476760718159e-01 -7.1317540132136537e-02 3.3714827258100638e-01
178 1.5905186994637005e-01 -7.1526242737807000e-02 3.3678922403524086e-01
117 1.5905188469832238e-01 -7.1526207502951550e-02 3.3678916804394865e-01
155 1.5905700155760996e-01 -7.1530222072579169e-02 3.3678888805995677e-01
82 1.5905688029030909e-01 -7.1530229837054524e-02 3.3678887289695519e-01
15 1.5906321122795639e-01 -7.1524080784602997e-02 3.3679194650753025e-01
83 1.5906326888326333e-01 -7.1523757295615414e-02 3.3679208662584598e-01
104 1.5906943329110881e-01 -7.1461407164286811e-02 3.3678407275527272e-01
170 1.5906943329110906e-01 -7.1461407164293708e-02 3.3678407275527800e-01
74 1.5906943329110854e-01 -7.1461407164284979e-02 3.3678407275526995e-01
134 1.5906943329110967e-01 -7.1461407164293431e-02 3.3678407275527428e-01
44 1.5906226382396829e-01 -7.1516951847660618e-02 3.3680732003698721e-01
176 1.5906226382407529e-01 -7.1516951847380758e-02 3.3680732003726482e-01