LAMMPS data file via write_data, version 30 Jul 2016, timestep = 50400000

180 atoms
2 atom types

0.0000000000000000e+00 2.0000000000000000e+01 xlo xhi
0.0000000000000000e+00 2.0000000000000000e+01 ylo yhi
0.0000000000000000e+00 2.0000000000000000e+01 zlo zhi

Masses

1 3.896
2 4.31

Atoms # meso-molecular

79 1 2 1.0280000000064571e+00 -5.5793949806032117e+02 1.0000000000000000e+00 2.8461879691121474e+00 7.3356254399385286e+00 6.0269900273617063e+00 
4 1 2 1.0280000000064571e+00 -2.7451123875909843e+02 1.0000000000000000e+00 2.8461879691121474e+00 7.3356254399385286e+00 6.0269900273617063e+00 
132 1 2 1.0280000000064571e+00 -6.0629630672793132e+02 1.0000000000000000e+00 2.8461879691121474e+00 7.3356254399385286e+00 6.0269900273617063e+00 
38 1 2 1.0280000000064571e+00 -5.1087615957544324e+02 1.0000000000000000e+00 2.8461879691117931e+00 7.3356254399384646e+00 6.0269900273616450e+00 
7 1 2 1.0280000000064571e+00 -6.1374779926397559e+02 1.0000000000000000e+00 2.8461879691121474e+00 7.3356254399385286e+00 6.0269900273617063e+00 
37 1 2 1.0280000000064569e+00 -7.2288791006863062e+02 1.0000000000000000e+00 2.8461879691115115e+00 7.3356254399383110e+00 6.0269900273612471e+00 
1 1 2 1.0280000000064571e+00 -6.4010559784194584e+02 1.0000000000000000e+00 2.8461879691121474e+00 7.3356254399385286e+00 6.0269900273617063e+00 
141 1 2 1.0280000000064564e+00 -4.6301420066082255e+02 1.0000000000000000e+00 3.2505516552552289e+00 4.2289493050335176e+00 6.9518489975435420e+00 
6 1 2 1.0280000000064564e+00 -5.7299732731860854e+02 1.0000000000000000e+00 3.2505516552549731e+00 4.2289493050337450e+00 6.9518489975444195e+00 
135 1 2 1.0280000000064564e+00 -6.4636401002076411e+02 1.0000000000000000e+00 3.2505516552551965e+00 4.2289493050335096e+00 6.9518489975435287e+00 
86 1 2 1.0280000000064564e+00 -3.9989082233505621e+02 1.0000000000000000e+00 3.2505516552550415e+00 4.2289493050335718e+00 6.9518489975438067e+00 
20 1 2 1.0280000000064564e+00 -6.1475990498651811e+02 1.0000000000000000e+00 3.2505516552552227e+00 4.2289493050338356e+00 6.9518489975446123e+00 
177 1 2 1.0280000000064564e+00 -6.5331496670643037e+02 1.0000000000000000e+00 3.2505516552551965e+00 4.2289493050335096e+00 6.9518489975435287e+00 
62 1 2 1.0280000000064564e+00 -5.7642132472368871e+02 1.0000000000000000e+00 3.2505516552562490e+00 4.2289493050339431e+00 6.9518489975445252e+00 
129 1 2 1.0279998971816908e+00 -4.8991859270242412e+02 1.0000000000000000e+00 3.3686120757263307e+00 1.3272771094487048e+01 2.7478340573980877e+00 
169 1 2 1.0279998971816879e+00 -5.0454536282697711e+02 1.0000000000000000e+00 3.3686120791558620e+00 1.3272771092033208e+01 2.7478340620725898e+00 
163 1 2 1.0279998971816879e+00 -5.0270497816860518e+02 1.0000000000000000e+00 3.3686120783821378e+00 1.3272771092586806e+01 2.7478340610180010e+00 
133 1 2 1.0279998971758166e+00 -5.8429887465747049e+02 1.0000000000000000e+00 3.3685987211410073e+00 1.3272783849446665e+01 2.7477954921932186e+00 
16 1 2 1.0280002516155136e+00 -3.8015089992521411e+02 1.0000000000000000e+00 6.3007666883041784e+00 1.3002017824811478e+01 1.4774261150694388e+00 
10 1 2 1.0280002516152489e+00 -3.5847977348465400e+02 1.0000000000000000e+00 6.3007666411620491e+00 1.3002017729349038e+01 1.4774260631205591e+00 
9 1 2 1.0280002516155140e+00 -3.6392909655496840e+02 1.0000000000000000e+00 6.3007666883040887e+00 1.3002017824811373e+01 1.4774261150696146e+00 
14 1 2 1.0280002516155786e+00 -4.5117621583076442e+02 1.0000000000000000e+00 6.3007667367868532e+00 1.3002017887071029e+01 1.4774260381876088e+00 
46 1 2 1.0280002516155764e+00 -3.8655256900994596e+02 1.0000000000000000e+00 6.3007667366527080e+00 1.3002017886792387e+01 1.4774260380144963e+00 
119 1 2 1.0279999694430941e+00 -4.6386960814856508e+02 1.0000000000000000e+00 6.2097004965744480e+00 1.2904239590760126e+01 1.4409081017567913e+00 
111 1 2 1.0279995705012028e+00 -2.9218219429751417e+02 1.0000000000000000e+00 5.7755261273437588e+00 1.2990060399030734e+01 1.2711418454504562e+00 
140 1 2 1.0279998227033704e+00 -4.5664049482861986e+02 1.0000000000000000e+00 3.0819349573509172e+00 1.3715033217477844e+01 2.5396517407859176e+00 
31 1 2 1.0280000925932498e+00 -5.7932053083799383e+02 1.0000000000000000e+00 3.4528017970777443e+00 1.6604745980852204e+01 1.3747176033789301e+00 
56 1 2 1.0279999983699692e+00 -6.2680204656372564e+02 1.0000000000000000e+00 3.9343936577500105e+00 1.5245811928978478e+01 4.0936540659499121e-01 
65 1 2 1.0279999983699550e+00 -6.0740716023822358e+02 1.0000000000000000e+00 3.9343936824034977e+00 1.5245811890872323e+01 4.0936540883282829e-01 
120 1 2 1.0279999983699677e+00 -5.1133327204371176e+02 1.0000000000000000e+00 3.9343936551930376e+00 1.5245811932883354e+01 4.0936540641045688e-01 
22 1 2 1.0279999983699877e+00 -5.5353861068350307e+02 1.0000000000000000e+00 3.9343935760587758e+00 1.5245812054883311e+01 4.0936539954417001e-01 
90 1 2 1.0279999631441474e+00 -6.2811100264267736e+02 1.0000000000000000e+00 3.3591719358604490e+00 1.8437186536896295e+01 2.8469088112315082e+00 
153 1 2 1.0279999631443439e+00 -2.4214765143999168e+02 1.0000000000000000e+00 3.3591717788996327e+00 1.8437186890876298e+01 2.8469084554764463e+00 
147 1 2 1.0279999631443424e+00 -2.4918432018950128e+02 1.0000000000000000e+00 3.3591717789089213e+00 1.8437186890855127e+01 2.8469084554977471e+00 
53 1 2 1.0280000114220695e+00 -5.2681689230429981e+02 1.0000000000000000e+00 3.3592080566323306e+00 1.8593659543601547e+01 2.6832382121425415e+00 
32 1 2 1.0280000906150337e+00 -5.9176109956550590e+02 1.0000000000000000e+00 3.4714376657648121e+00 1.6686887210318485e+01 1.7059851926196394e+00 
144 1 2 1.0280000908377114e+00 -5.2686995504388176e+02 1.0000000000000000e+00 3.4898175879625897e+00 1.6703476158745062e+01 1.7796552760418163e+00 
54 1 2 1.0279999807220932e+00 -4.4839836114674608e+02 1.0000000000000000e+00 3.5488866877456040e+00 1.9192596590298500e+01 6.0360509077294722e-01 
89 1 2 1.0279999806549434e+00 -4.8189048201383918e+02 1.0000000000000000e+00 3.5506138334434425e+00 1.9192366966582910e+01 6.0356679986632145e-01 
18 1 2 1.0279999807184181e+00 -6.9857046584343129e+02 1.0000000000000000e+00 3.5489694074836029e+00 1.9192588857506497e+01 6.0360540606455182e-01 
59 1 2 1.0279999807184088e+00 -5.0262488125570820e+02 1.0000000000000000e+00 3.5489698108829684e+00 1.9192588803110883e+01 6.0360539581384931e-01 
52 1 2 1.0279999806405029e+00 -4.6635116348366597e+02 1.0000000000000000e+00 3.5509851898229723e+00 1.9192317675703777e+01 6.0355957132161875e-01 
24 1 2 1.0279999807183700e+00 -7.1420065665141692e+02 1.0000000000000000e+00 3.5489712595341820e+00 1.9192588665779517e+01 6.0360540013094177e-01 
138 1 2 1.0279999733629979e+00 -6.1581573774503431e+02 1.0000000000000000e+00 3.7505468680842990e+00 1.6885798729904717e+01 2.1750342588798630e+00 
105 1 2 1.0280000081744749e+00 -6.2366373770474274e+02 1.0000000000000000e+00 5.7810393193509562e+00 1.2453694348267721e+01 5.4451656352138640e+00 
96 1 2 1.0280000081744705e+00 -3.9217231012935360e+02 1.0000000000000000e+00 5.7810392918033626e+00 1.2453694346390865e+01 5.4451656286273993e+00 
156 1 2 1.0280000081749692e+00 -4.3671723328170970e+02 1.0000000000000000e+00 5.7810472441521190e+00 1.2453694888839648e+01 5.4451675368651395e+00 
102 1 2 1.0280000081744709e+00 -4.4634980113165977e+02 1.0000000000000000e+00 5.7810392918026459e+00 1.2453694346390815e+01 5.4451656286272252e+00 
66 1 2 1.0280000081744707e+00 -4.7247069536154061e+02 1.0000000000000000e+00 5.7810392918031441e+00 1.2453694346390858e+01 5.4451656286274455e+00 
60 1 2 1.0280000081744716e+00 -4.6408147691396692e+02 1.0000000000000000e+00 5.7810392918023732e+00 1.2453694346390813e+01 5.4451656286273442e+00 
43 1 2 1.0279998939313155e+00 -7.3255736823004452e+02 1.0000000000000000e+00 2.7494431841313385e+00 1.3604331424287954e+01 6.3125879817874830e+00 
73 1 2 1.0279998939313157e+00 -5.3096279585008233e+02 1.0000000000000000e+00 2.7494431841206306e+00 1.3604331424303172e+01 6.3125879817271118e+00 
51 1 2 1.0279998939313162e+00 -3.4575626877647579e+02 1.0000000000000000e+00 2.7494431841233227e+00 1.3604331424299172e+01 6.3125879817426700e+00 
45 1 2 1.0279998939313153e+00 -4.5197488660747905e+02 1.0000000000000000e+00 2.7494431841232587e+00 1.3604331424299250e+01 6.3125879817423165e+00 
87 1 2 1.0279998939313164e+00 -3.2544286160906444e+02 1.0000000000000000e+00 2.7494431841233333e+00 1.3604331424299140e+01 6.3125879817427659e+00 
168 1 2 1.0279998920473226e+00 -5.5735349520192176e+02 1.0000000000000000e+00 2.7489677561875854e+00 1.3604549380505050e+01 6.3109035172266195e+00 
34 1 2 1.0280001212512262e+00 -4.8065028546479459e+02 1.0000000000000000e+00 3.6022699613276878e+00 1.4304475077624810e+01 3.5351827094063735e+00 
125 1 2 1.0280001211508034e+00 -5.2681739465958901e+02 1.0000000000000000e+00 3.6022348112468308e+00 1.4304470971095952e+01 3.5351875613993928e+00 
151 1 2 1.0280002495417990e+00 -5.7908719853359389e+02 1.0000000000000000e+00 3.6448696934940878e+00 1.4307827369999691e+01 3.5276867882421339e+00 
136 1 2 1.0279999790515846e+00 -2.8145893979523851e+02 1.0000000000000000e+00 6.0590400113185643e+00 1.4727469001053173e+01 5.2241052246283042e+00 
112 1 2 1.0279999790515850e+00 -3.8750702519298869e+02 1.0000000000000000e+00 6.0590400113185883e+00 1.4727469001053068e+01 5.2241052246283930e+00 
172 1 2 1.0279999790515857e+00 -2.7135848288263929e+02 1.0000000000000000e+00 6.0590400113185163e+00 1.4727469001053009e+01 5.2241052246284783e+00 
160 1 2 1.0279999790515852e+00 -7.6771745391893819e+02 1.0000000000000000e+00 6.0590400113250551e+00 1.4727469001047858e+01 5.2241052246308106e+00 
95 1 2 1.0280000171534849e+00 -4.4554297777902963e+02 1.0000000000000000e+00 6.1117069282181200e+00 1.4659254637680540e+01 5.2653639613253178e+00 
98 1 2 1.0279999154755222e+00 -6.7600743309771462e+02 1.0000000000000000e+00 1.8213520484117998e+00 1.8022822448017333e+01 4.5855889956737599e+00 
137 1 2 1.0280000620557308e+00 -5.3283514511807687e+02 1.0000000000000000e+00 1.5952425722958818e+00 1.9451990297245974e+01 5.0161532821477399e+00 
180 1 2 1.0280000620554697e+00 -5.7630006957863975e+02 1.0000000000000000e+00 1.5952660965926861e+00 1.9452012271918068e+01 5.0161820402254005e+00 
108 1 2 1.0280000620350862e+00 -5.6297250331488590e+02 1.0000000000000000e+00 1.5967968954534995e+00 1.9453437039889330e+01 5.0180568531537757e+00 
103 1 2 1.0280000620289533e+00 -5.6610669098132371e+02 1.0000000000000000e+00 1.5971942541016879e+00 1.9453805253987834e+01 5.0185446723914726e+00 
94 1 2 1.0280000575867800e+00 -5.6935057483491335e+02 1.0000000000000000e+00 1.6542352766101904e+00 1.9501631145874903e+01 5.0961015029655599e+00 
171 1 2 1.0280000017339845e+00 -6.0612949768184103e+02 1.0000000000000000e+00 1.4371686976088625e+00 1.7058028975455425e+01 6.1625044924446248e+00 
179 1 2 1.0280000223589270e+00 -5.2910667582693588e+02 1.0000000000000000e+00 1.3867857156818726e+00 1.7093019844703026e+01 6.2399662879539060e+00 
173 1 2 1.0280000223665893e+00 -5.5710598466929218e+02 1.0000000000000000e+00 1.3867677121822017e+00 1.7093034523412989e+01 6.2399913655548245e+00 
174 1 2 1.0280000228220858e+00 -6.2574531096099611e+02 1.0000000000000000e+00 1.3856967817244825e+00 1.7093910327786755e+01 6.2414795828891982e+00 
126 1 2 1.0279999838465510e+00 -7.3541485268191354e+02 1.0000000000000000e+00 3.6165431611810916e+00 1.6806412985345975e+01 4.9446021020498456e+00 
39 1 2 1.0279999838465532e+00 -5.5916748838450633e+02 1.0000000000000000e+00 3.6165431611815286e+00 1.6806412985345400e+01 4.9446021020513209e+00 
75 1 2 1.0279999838465541e+00 -5.9761372635109331e+02 1.0000000000000000e+00 3.6165431611815984e+00 1.6806412985345318e+01 4.9446021020515349e+00 
40 1 2 1.0279999838465510e+00 -5.1841908258826504e+02 1.0000000000000000e+00 3.6165431611812169e+00 1.6806412985345560e+01 4.9446021020507294e+00 
115 1 2 1.0279999838465534e+00 -5.9297266051534666e+02 1.0000000000000000e+00 3.6165431612598606e+00 1.6806412985615484e+01 4.9446021016120101e+00 
114 1 2 1.0280000355853056e+00 -4.2073321868177572e+02 1.0000000000000000e+00 5.2448337543583943e+00 1.8578110123007257e+01 6.4218724803284815e+00 
110 1 2 1.0280000355849361e+00 -3.3745800442414247e+02 1.0000000000000000e+00 5.2448338033890582e+00 1.8578110251797352e+01 6.4218729559392109e+00 
150 1 2 1.0280000355849852e+00 -4.2589279837904837e+02 1.0000000000000000e+00 5.2448338213014472e+00 1.8578110197361422e+01 6.4218728650525936e+00 
152 1 2 1.0280000355850987e+00 -4.4846745049358196e+02 1.0000000000000000e+00 5.2448338413187798e+00 1.8578109848648424e+01 6.4218720127923401e+00 
146 1 2 1.0280000355853942e+00 -4.4191851025376229e+02 1.0000000000000000e+00 5.2448338271700452e+00 1.8578109988900955e+01 6.4218723381926663e+00 
145 1 2 1.0280000355851684e+00 -4.2834978488959649e+02 1.0000000000000000e+00 5.2448338828319798e+00 1.8578109856239127e+01 6.4218721509303576e+00 
35 1 2 1.0279999881006889e+00 -5.2884133158179827e+02 1.0000000000000000e+00 8.7403783734447782e-01 1.4861206069466583e+01 7.4498413077104280e+00 
72 1 2 1.0280000757973446e+00 -5.4626749256552091e+02 1.0000000000000000e+00 8.0483853690985141e-01 1.4512032585098350e+01 7.4706972394040507e+00 
71 1 2 1.0280000758293426e+00 -5.0299807926742000e+02 1.0000000000000000e+00 8.0105916122090570e-01 1.4509798166061746e+01 7.4642230047770637e+00 
29 1 2 1.0280000751285634e+00 -5.0448767876548243e+02 1.0000000000000000e+00 8.4208452135909562e-01 1.4527457554550557e+01 7.5243705161318539e+00 
36 1 2 1.0280000735597155e+00 -4.7160032782645459e+02 1.0000000000000000e+00 8.7621705111307635e-01 1.4538352209261783e+01 7.5626252219920831e+00 
30 1 2 1.0280000743071414e+00 -4.9906899546159519e+02 1.0000000000000000e+00 8.6282565489073870e-01 1.4534022265471348e+01 7.5485843657266427e+00 
161 1 2 1.0280000203241078e+00 -4.8352753165333075e+02 1.0000000000000000e+00 4.0730172789939427e+00 1.6631466509584179e+01 7.4215556803459526e+00 
164 1 2 1.0279999605462808e+00 -5.2622094119898156e+02 1.0000000000000000e+00 5.4462751214044847e-01 1.9433591426340520e+01 6.9724922372171632e+00 
165 1 2 1.0279999605462800e+00 -4.9232767965339013e+02 1.0000000000000000e+00 5.4462751188289305e-01 1.9433591426459721e+01 6.9724922371499662e+00 
42 1 2 1.0279999605462788e+00 -4.6137551536052069e+02 1.0000000000000000e+00 5.4462751279560817e-01 1.9433591426036511e+01 6.9724922373882796e+00 
158 1 2 1.0279999605462826e+00 -4.8345546220090671e+02 1.0000000000000000e+00 5.4462751209804361e-01 1.9433591426359495e+01 6.9724922372062341e+00 
142 1 2 1.0279999702291416e+00 -5.2208082589755486e+02 1.0000000000000000e+00 2.4094535705190330e+00 1.8149897447919649e+01 7.8375951562758672e+00 
154 1 2 1.0279999702291425e+00 -7.0748425997339871e+02 1.0000000000000000e+00 2.4094535704837030e+00 1.8149897447920296e+01 7.8375951562626183e+00 
106 1 2 1.0279999702291407e+00 -6.5795781828444888e+02 1.0000000000000000e+00 2.4094535705187923e+00 1.8149897447919649e+01 7.8375951562757811e+00 
167 1 2 1.0279999968057634e+00 -4.8829683435910545e+02 1.0000000000000000e+00 3.8986093108273994e+00 1.6923477588672970e+01 8.0912424715900766e+00 
131 1 2 1.0279999954892387e+00 -5.4848410689751586e+02 1.0000000000000000e+00 3.8909520970501879e+00 1.6943946275242240e+01 8.1148472140407453e+00 
166 1 2 1.0279999481360882e+00 -5.9798165570873994e+02 1.0000000000000000e+00 3.8719401656330188e+00 1.8256080142156765e+01 8.0881652446966275e+00 
130 1 2 1.0280000102342026e+00 -6.0285298020538437e+02 1.0000000000000000e+00 4.0250583574601189e+00 1.6734809891252901e+01 7.7419988045394632e+00 
157 1 2 1.0279999975967793e+00 -6.5178690196384082e+02 1.0000000000000000e+00 3.4719733161159274e+00 1.7250626748809378e+01 8.3607472864884844e+00 
97 1 2 1.0279977906550217e+00 -4.8596277128883008e+02 1.0000000000000000e+00 2.4065687404636833e+00 1.0622057632790019e+01 1.9604190148185651e+01 
109 1 2 1.0279977877318272e+00 -5.9005343710968054e+02 1.0000000000000000e+00 2.4061153616701483e+00 1.0626802693462215e+01 1.9601325655870653e+01 
92 1 2 1.0279977877236401e+00 -5.6102738158575710e+02 1.0000000000000000e+00 2.4061173208798317e+00 1.0626786938169031e+01 1.9601335219336697e+01 
55 1 2 1.0279977876854067e+00 -4.8540786557238522e+02 1.0000000000000000e+00 2.4061264503189466e+00 1.0626714846384845e+01 1.9601378098100231e+01 
91 1 2 1.0279977891759990e+00 -5.3858899294258174e+02 1.0000000000000000e+00 2.4059028882851736e+00 1.0628354636644735e+01 1.9600402058481858e+01 
57 1 2 1.0279977901474915e+00 -3.9044850458368245e+02 1.0000000000000000e+00 2.4058029949797426e+00 1.0629006809626986e+01 1.9600021160873450e+01 
128 1 2 1.0279977938254992e+00 -5.2611781878970146e+02 1.0000000000000000e+00 2.4055047868566359e+00 1.0630783268223833e+01 1.9598979646451809e+01 
63 1 2 1.0279998670223169e+00 -8.4118474366592056e+02 1.0000000000000000e+00 5.7624740115455033e+00 1.5794183104695874e+01 1.9848015687283318e+01 
148 1 2 1.0279998670223172e+00 -4.5139600751581952e+02 1.0000000000000000e+00 5.7624740115463453e+00 1.5794183104699909e+01 1.9848015687282409e+01 
113 1 2 1.0279998670223169e+00 -4.9480508984574055e+02 1.0000000000000000e+00 5.7624740115431567e+00 1.5794183104684308e+01 1.9848015687286392e+01 
88 1 2 1.0279998670223167e+00 -4.9809517260370762e+02 1.0000000000000000e+00 5.7624740115620137e+00 1.5794183104778190e+01 1.9848015687259878e+01 
149 1 2 1.0279998670223172e+00 -5.3171692562703834e+02 1.0000000000000000e+00 5.7624740115472655e+00 1.5794183104704624e+01 1.9848015687280874e+01 
12 1 2 1.0280000944053604e+00 -5.7257444855246865e+02 1.0000000000000000e+00 6.4859946463388702e+00 1.7501765025051895e+01 1.8081721931814588e+01 
77 1 2 1.0280000944053640e+00 -5.0891599695149677e+02 1.0000000000000000e+00 6.4859946420874479e+00 1.7501765012919623e+01 1.8081721933977132e+01 
78 1 2 1.0280000944053609e+00 -5.3378110240320848e+02 1.0000000000000000e+00 6.4859946345977750e+00 1.7501764992290656e+01 1.8081721937860578e+01 
11 1 2 1.0280000944053622e+00 -5.7276643608230461e+02 1.0000000000000000e+00 6.4859946462682565e+00 1.7501765024854013e+01 1.8081721931850872e+01 
58 1 2 1.0280002416634069e+00 -7.0820135926131013e+02 1.0000000000000000e+00 8.0407231405945438e+00 1.5509471977736050e+01 2.5665963756774124e+00 
143 1 2 1.0280000151068653e+00 -5.9750268502168842e+02 1.0000000000000000e+00 8.9583985381259996e+00 1.6171883038836025e+01 2.3078821792476942e+00 
139 1 2 1.0280000151068653e+00 -6.2026170284245450e+02 1.0000000000000000e+00 8.9583985381261044e+00 1.6171883038836288e+01 2.3078821792475810e+00 
26 1 2 1.0280000151068631e+00 -4.0633327196614590e+02 1.0000000000000000e+00 8.9583985403842394e+00 1.6171883041471361e+01 2.3078821793753650e+00 
101 1 2 1.0280000151068645e+00 -4.2962253643125547e+02 1.0000000000000000e+00 8.9583985381260760e+00 1.6171883038836139e+01 2.3078821792476751e+00 
107 1 2 1.0280000151068645e+00 -6.1447764538794024e+02 1.0000000000000000e+00 8.9583985381263354e+00 1.6171883038836526e+01 2.3078821792476161e+00 
99 1 2 1.0279999853105215e+00 -5.6070017302453107e+02 1.0000000000000000e+00 6.7109813652693919e+00 1.6144797924867579e+01 3.2689244719753949e+00 
100 1 2 1.0279999853105173e+00 -5.5566549819472016e+02 1.0000000000000000e+00 6.7109813652356163e+00 1.6144797923567175e+01 3.2689244696763509e+00 
121 1 2 1.0279999853105204e+00 -5.2746678023141953e+02 1.0000000000000000e+00 6.7109813652513468e+00 1.6144797924184424e+01 3.2689244707689293e+00 
84 1 2 1.0279999853105219e+00 -6.6482059066770307e+02 1.0000000000000000e+00 6.7109813652512642e+00 1.6144797924178476e+01 3.2689244707581273e+00 
70 1 2 1.0279999853105206e+00 -6.1193186534881147e+02 1.0000000000000000e+00 6.7109813652511878e+00 1.6144797924182381e+01 3.2689244707657750e+00 
118 1 2 1.0279999899079788e+00 -3.5109506457016562e+02 1.0000000000000000e+00 9.9275442699749181e+00 1.8709062157822682e+01 2.8349735616126326e+00 
47 1 2 1.0279999899079810e+00 -6.4748162229317006e+02 1.0000000000000000e+00 9.9275442664815134e+00 1.8709062161325388e+01 2.8349735608208912e+00 
28 1 2 1.0279999899079830e+00 -5.4999058172957143e+02 1.0000000000000000e+00 9.9275442663257856e+00 1.8709062161480862e+01 2.8349735607849724e+00 
127 1 2 1.0279999899079826e+00 -5.4061037525606719e+02 1.0000000000000000e+00 9.9275442666159286e+00 1.8709062161190495e+01 2.8349735608512487e+00 
122 1 2 1.0279999900520103e+00 -6.6718939611874578e+02 1.0000000000000000e+00 9.9281819213124631e+00 1.8707514030605587e+01 2.8342594875333869e+00 
25 1 2 1.0280000373220444e+00 -6.0977060071147037e+02 1.0000000000000000e+00 8.7197295822812428e+00 1.8293754705488233e+01 4.2917883395167831e+00 
124 1 2 1.0280000374901919e+00 -6.7728612792012996e+02 1.0000000000000000e+00 8.7184027584961150e+00 1.8294324189829744e+01 4.2910510064439968e+00 
23 1 2 1.0280000374901976e+00 -6.3617012881810638e+02 1.0000000000000000e+00 8.7184027557238224e+00 1.8294324189754935e+01 4.2910510051439692e+00 
17 1 2 1.0280000374901959e+00 -6.0756278148390754e+02 1.0000000000000000e+00 8.7184027695201536e+00 1.8294324189913443e+01 4.2910510116549032e+00 
85 1 2 1.0280000374901945e+00 -3.9394788676191507e+02 1.0000000000000000e+00 8.7184027624228442e+00 1.8294324189936340e+01 4.2910510082852262e+00 
123 1 2 1.0279998992284485e+00 -6.7308229172311644e+02 1.0000000000000000e+00 7.8233307037553832e+00 1.7959335905876177e+01 1.8839804205118103e+01 
48 1 2 1.0279998992284500e+00 -5.7248367207381148e+02 1.0000000000000000e+00 7.8233307037554853e+00 1.7959335905876252e+01 1.8839804205117758e+01 
67 1 2 1.0279998992284358e+00 -6.9480969853679653e+02 1.0000000000000000e+00 7.8233306967307108e+00 1.7959335935028985e+01 1.8839804190336853e+01 
21 1 2 1.0279998992284491e+00 -4.9635707668304337e+02 1.0000000000000000e+00 7.8233307037552642e+00 1.7959335905876365e+01 1.8839804205118181e+01 
27 1 2 1.0279998992284483e+00 -5.9615628632359108e+02 1.0000000000000000e+00 7.8233307037555528e+00 1.7959335905875957e+01 1.8839804205117932e+01 
49 1 2 1.0279999835926803e+00 -6.3715628702103857e+02 1.0000000000000000e+00 1.8789688687758318e+01 1.0633523193420529e+00 6.6489744126726604e+00 
13 1 2 1.0279999835926801e+00 -7.6694746761737588e+02 1.0000000000000000e+00 1.8789688687758353e+01 1.0633523193419394e+00 6.6489744126728514e+00 
44 1 2 1.0280000075574538e+00 -5.1606039309604091e+02 1.0000000000000000e+00 1.7948516504332808e+01 4.2290528634461350e-01 4.6435879915769469e+00 
81 1 2 1.0280000075574758e+00 -5.4485205943094377e+02 1.0000000000000000e+00 1.7948516428137470e+01 4.2290537305881648e-01 4.6435880023923426e+00 
80 1 2 1.0280000075574767e+00 -5.0914041615174926e+02 1.0000000000000000e+00 1.7948516428301261e+01 4.2290537287045987e-01 4.6435880023681797e+00 
176 1 2 1.0280000075574707e+00 -3.6403431820430183e+02 1.0000000000000000e+00 1.7948516524242724e+01 4.2290526369280601e-01 4.6435879887540681e+00 
19 1 2 1.0279999835926805e+00 -6.5802408401469427e+02 1.0000000000000000e+00 1.8789688687758300e+01 1.0633523193418997e+00 6.6489744126729207e+00 
61 1 2 1.0279999835926803e+00 -4.8220838141868882e+02 1.0000000000000000e+00 1.8789688687758392e+01 1.0633523193418077e+00 6.6489744126730699e+00 
64 1 2 1.0279999848141161e+00 -7.2456797585036225e+02 1.0000000000000000e+00 1.8834280317141264e+01 1.0727132038990996e+00 6.6270801267840405e+00 
50 1 2 1.0280022127442763e+00 -4.6390322694573058e+02 1.0000000000000000e+00 1.9326582107205351e+01 9.7986263332210104e+00 1.8893580444195756e+01 
5 1 2 1.0280022127442761e+00 -5.6573677806173487e+02 1.0000000000000000e+00 1.9326582107204974e+01 9.7986263332216765e+00 1.8893580444196598e+01 
159 1 2 1.0280022127442761e+00 -6.1104543608285337e+02 1.0000000000000000e+00 1.9326582107200682e+01 9.7986263332303558e+00 1.8893580444205107e+01 
2 1 2 1.0280022127442761e+00 -4.6496939538341911e+02 1.0000000000000000e+00 1.9326582107201101e+01 9.7986263332295369e+00 1.8893580444204240e+01 
41 1 2 1.0280022127442761e+00 -4.9490663393438587e+02 1.0000000000000000e+00 1.9326582107200128e+01 9.7986263332314394e+00 1.8893580444206236e+01 
8 1 2 1.0280022127442765e+00 -4.8233801845605001e+02 1.0000000000000000e+00 1.9326582107207422e+01 9.7986263332167614e+00 1.8893580444191738e+01 
3 1 2 1.0280022127442763e+00 -4.9247002988066356e+02 1.0000000000000000e+00 1.9326582107207276e+01 9.7986263332170509e+00 1.8893580444192015e+01 
83 1 2 1.0279999899318932e+00 -5.5981937894146176e+02 1.0000000000000000e+00 1.6055847857885098e+01 1.8877585292689357e+01 4.9162830522289944e+00 
15 1 2 1.0279999899537218e+00 -4.6917625806566105e+02 1.0000000000000000e+00 1.6037540488362559e+01 1.8893107673568394e+01 4.9175492217702796e+00 
155 1 2 1.0280000065446775e+00 -5.1656597533509193e+02 1.0000000000000000e+00 1.5760861602005194e+01 1.9373341074619955e+01 5.0266227705849635e+00 
82 1 2 1.0280000068789459e+00 -6.3336227450032243e+02 1.0000000000000000e+00 1.5760281399771111e+01 1.9380573383378582e+01 5.0265071853122700e+00 
178 1 2 1.0280000233024009e+00 -2.7690732463789777e+02 1.0000000000000000e+00 1.5862853265696502e+01 1.9845764608385700e+01 5.0437768354646879e+00 
117 1 2 1.0280000232345885e+00 -3.0982712340254824e+02 1.0000000000000000e+00 1.5866325397583383e+01 1.9851057239252533e+01 5.0376249210585549e+00 
74 1 2 1.0279999261553265e+00 -5.7820083511870428e+02 1.0000000000000000e+00 1.7716953872924204e+01 1.8877672345869016e+01 6.1939118906627035e+00 
170 1 2 1.0279999261553248e+00 -4.7180878762998532e+02 1.0000000000000000e+00 1.7716953872924556e+01 1.8877672345868586e+01 6.1939118906619477e+00 
104 1 2 1.0279999261553263e+00 -6.0623969945243812e+02 1.0000000000000000e+00 1.7716953872924481e+01 1.8877672345868973e+01 6.1939118906625730e+00 
134 1 2 1.0279999261553352e+00 -4.4584611828233324e+02 1.0000000000000000e+00 1.7716953872924556e+01 1.8877672345868639e+01 6.1939118906619912e+00 
68 1 2 1.0279999999998604e+00 -4.8606306651868130e+02 1.0000000000000000e+00 1.9133407137780267e+01 1.4576851968512848e+01 1.8812881607466597e+01 
162 1 2 1.0279999999998719e+00 -5.6382121534157079e+02 1.0000000000000000e+00 1.9133407139112695e+01 1.4576851965355653e+01 1.8812881605411850e+01 
33 1 2 1.0279999999998715e+00 -4.3989865720004434e+02 1.0000000000000000e+00 1.9133407135893982e+01 1.4576851968301622e+01 1.8812881608297506e+01 
69 1 2 1.0280000000000795e+00 -4.7588440171505033e+02 1.0000000000000000e+00 1.9133407138587781e+01 1.4576851964551636e+01 1.8812881605311237e+01 
175 1 2 1.0280000000011293e+00 -4.2485879070030200e+02 1.0000000000000000e+00 1.8723581620340894e+01 1.4947942487255458e+01 1.7976907443724102e+01 
76 1 2 1.0280000000000327e+00 -5.3021340352501375e+02 1.0000000000000000e+00 1.8723581014391577e+01 1.4947941847275048e+01 1.7976907456689336e+01 
116 1 2 1.0279999999998879e+00 -4.0559917577924500e+02 1.0000000000000000e+00 1.8723581075380281e+01 1.4947941911721298e+01 1.7976907455397363e+01 
93 1 2 1.0279999999984657e+00 -5.5085895165631143e+02 1.0000000000000000e+00 1.8723581496348832e+01 1.4947942356236597e+01 1.7976907446336668e+01 

Velocities

79 1.5725158220800928e-01 -7.2981036432156934e-02 3.2993474935282535e-01
4 1.5725158220800928e-01 -7.2981036432156934e-02 3.2993474935282535e-01
132 1.5725158220800928e-01 -7.2981036432156934e-02 3.2993474935282535e-01
38 1.5725158220800908e-01 -7.2981036432156393e-02 3.2993474935282513e-01
7 1.5725158220800928e-01 -7.2981036432156934e-02 3.2993474935282535e-01
37 1.5725158220800903e-01 -7.2981036432156157e-02 3.2993474935282519e-01
1 1.5725158220800928e-01 -7.2981036432156934e-02 3.2993474935282535e-01
141 1.5725158041925547e-01 -7.2981036149033812e-02 3.2993475224521635e-01
6 1.5725158041925555e-01 -7.2981036149034048e-02 3.2993475224521646e-01
135 1.5725158041925569e-01 -7.2981036149035255e-02 3.2993475224521657e-01
86 1.5725158041925552e-01 -7.2981036149034478e-02 3.2993475224521651e-01
20 1.5725158041925555e-01 -7.2981036149033854e-02 3.2993475224521635e-01
177 1.5725158041925569e-01 -7.2981036149035255e-02 3.2993475224521657e-01
62 1.5725158041925563e-01 -7.2981036149034909e-02 3.2993475224521651e-01
129 1.5958239941589566e-01 -7.0991910524260640e-02 3.3709869361787143e-01
169 1.5958239941560198e-01 -7.0991910524317081e-02 3.3709869361773387e-01
163 1.5958239941568889e-01 -7.0991910524270965e-02 3.3709869361776845e-01
133 1.5958240122127831e-01 -7.0991909344458939e-02 3.3709869483903715e-01
16 1.5964301569487452e-01 -7.0934324922817912e-02 3.3711500124000188e-01
10 1.5964301567053704e-01 -7.0934324920152142e-02 3.3711500123086913e-01
9 1.5964301569487632e-01 -7.0934324922819328e-02 3.3711500124000199e-01
14 1.5964301570480188e-01 -7.0934324917153485e-02 3.3711500123044558e-01
46 1.5964301570473849e-01 -7.0934324917151376e-02 3.3711500123041743e-01
119 1.5961970953824786e-01 -7.0922997370488974e-02 3.3711174334338589e-01
111 1.5962267081115900e-01 -7.0878575762788248e-02 3.3713584004637015e-01
140 1.5961215388698297e-01 -7.1004857567435284e-02 3.3710795759257811e-01
31 1.5958020916903570e-01 -7.0921983664086558e-02 3.3709998583650663e-01
56 1.5965770954918121e-01 -7.0898382348572583e-02 3.3710248070783821e-01
65 1.5965770955020955e-01 -7.0898382347406419e-02 3.3710248070903676e-01
120 1.5965770954902123e-01 -7.0898382348721450e-02 3.3710248070766358e-01
22 1.5965770954551917e-01 -7.0898382352570566e-02 3.3710248070364024e-01
90 1.5950418016082585e-01 -7.0969901659296508e-02 3.3709997444805051e-01
153 1.5950418017581142e-01 -7.0969901634452923e-02 3.3709997446425782e-01
147 1.5950418017580933e-01 -7.0969901634458654e-02 3.3709997446425150e-01
53 1.5950964326782346e-01 -7.0958719463037820e-02 3.3710526865662171e-01
32 1.5956889090268001e-01 -7.0929992665382233e-02 3.3710717131900508e-01
144 1.5956689694787449e-01 -7.0931965237911482e-02 3.3710871560012146e-01
54 1.5954086991757804e-01 -7.0907403702438129e-02 3.3713049837055437e-01
89 1.5954084869952667e-01 -7.0907405129370368e-02 3.3713050538244177e-01
18 1.5954086888857533e-01 -7.0907403860465706e-02 3.3713049873447493e-01
59 1.5954086888363472e-01 -7.0907403860768048e-02 3.3713049873611001e-01
52 1.5954084412370217e-01 -7.0907405441022170e-02 3.3713050687548762e-01