LAMMPS data file via write_data, version 30 Jul 2016, timestep = 50400000

180 atoms
2 atom types

0.0000000000000000e+00 2.0000000000000000e+01 xlo xhi
0.0000000000000000e+00 2.0000000000000000e+01 ylo yhi
0.0000000000000000e+00 2.0000000000000000e+01 zlo zhi

Masses

1 3.896
2 4.31

Atoms # meso-molecular

97 1 2 1.0280000071563578e+00 -1.9634824995429808e+04 1.0000000000000000e+00 6.5311842146604127e+00 5.0267592442428233e-01 5.8211892256028142e+00 
115 1 2 1.0280000071563704e+00 -1.7721264109518306e+04 1.0000000000000000e+00 6.5311826683782348e+00 5.0267571544228606e-01 5.8211881239306216e+00 
79 1 2 1.0280000071563569e+00 -1.0290810504683786e+04 1.0000000000000000e+00 6.5311843909272449e+00 5.0267595625421801e-01 5.8211893254486506e+00 
116 1 2 1.0280000071563702e+00 -1.2066859403605891e+04 1.0000000000000000e+00 6.5311826716657757e+00 5.0267571591853155e-01 5.8211881261702709e+00 
6 1 2 1.0280000075488651e+00 -1.3535020616492813e+04 1.0000000000000000e+00 6.4755075629004857e+00 4.9816559334617033e-01 5.7527202252972174e+00 
34 1 2 1.0280000109057266e+00 -1.7141080391254342e+04 1.0000000000000000e+00 3.0839451869716425e+00 1.0992967674923376e+01 9.5651588589579717e-01 
39 1 2 1.0280000109074652e+00 -1.2237541630871578e+04 1.0000000000000000e+00 3.0839264918831448e+00 1.0992972485136731e+01 9.5650965768289720e-01 
66 1 2 1.0280000109141765e+00 -1.3211870744085028e+04 1.0000000000000000e+00 3.0839112014817633e+00 1.0992990257507730e+01 9.5648715238098359e-01 
40 1 2 1.0280000109074703e+00 -1.2930491686218766e+04 1.0000000000000000e+00 3.0839264925656207e+00 1.0992972484770778e+01 9.5650965814979738e-01 
4 1 2 1.0280000109074652e+00 -1.7996359254218565e+04 1.0000000000000000e+00 3.0839264928707717e+00 1.0992972485988627e+01 9.5650965662015297e-01 
123 1 2 1.0279999906776218e+00 -1.3398011335640962e+04 1.0000000000000000e+00 3.0724205483857432e+00 1.1920436598341810e+01 2.3571725394585776e+00 
168 1 2 1.0280000370169995e+00 -1.2840031807887392e+04 1.0000000000000000e+00 3.0712496021324847e+00 1.2392905417136330e+01 2.1103451828456357e+00 
126 1 2 1.0280000370170042e+00 -1.2697166311791923e+04 1.0000000000000000e+00 3.0712496005891619e+00 1.2392905418223133e+01 2.1103451805359263e+00 
162 1 2 1.0280000370169882e+00 -1.2963602814115804e+04 1.0000000000000000e+00 3.0712496004662180e+00 1.2392905422869745e+01 2.1103451736147028e+00 
163 1 2 1.0280000370170186e+00 -1.2091976435112054e+04 1.0000000000000000e+00 3.0712495999656211e+00 1.2392905410910604e+01 2.1103451910555044e+00 
161 1 2 1.0280000092642620e+00 -1.4038318097337313e+04 1.0000000000000000e+00 5.5855436621047456e+00 1.4063565314943519e+01 2.8398772933892755e+00 
88 1 2 1.0280000092660038e+00 -1.0633254228426647e+04 1.0000000000000000e+00 5.5855383689087974e+00 1.4063568710821379e+01 2.8398601036252451e+00 
134 1 2 1.0280000092706996e+00 -1.7559709194686293e+04 1.0000000000000000e+00 5.5855240578738332e+00 1.4063577882380031e+01 2.8398136579564519e+00 
131 1 2 1.0280000092673329e+00 -1.4643442953000886e+04 1.0000000000000000e+00 5.5855343293411037e+00 1.4063571301065259e+01 2.8398469891578553e+00 
125 1 2 1.0280000092673853e+00 -1.1913019886106467e+04 1.0000000000000000e+00 5.5855341929621556e+00 1.4063571388492813e+01 2.8398465464666880e+00 
112 1 2 1.0280000092663961e+00 -1.5571840214727516e+04 1.0000000000000000e+00 5.5855372305577289e+00 1.4063569440862787e+01 2.8398564076272015e+00 
177 1 2 1.0279999932103885e+00 -1.5632317524126393e+04 1.0000000000000000e+00 4.9151679408365672e+00 1.6093814071380610e+01 1.4234444721354074e+00 
49 1 2 1.0279999933391089e+00 -1.3764415641413452e+04 1.0000000000000000e+00 4.9116697487664469e+00 1.6107965462921538e+01 1.4163075258805342e+00 
85 1 2 1.0279999935931123e+00 -1.4969913876562270e+04 1.0000000000000000e+00 4.9038314572679429e+00 1.6134935189571610e+01 1.4023271262480244e+00 
3 1 2 1.0280000018969357e+00 -1.4556436742726606e+04 1.0000000000000000e+00 3.5711438731736407e+00 1.7021830167685696e+01 1.7342641215546337e+00 
77 1 2 1.0280000019121842e+00 -1.2945032427314794e+04 1.0000000000000000e+00 3.5712902534279034e+00 1.7022269265136309e+01 1.7334944351845352e+00 
90 1 2 1.0280000019166950e+00 -1.5001942262165761e+04 1.0000000000000000e+00 3.5715609417643246e+00 1.7023783230030205e+01 1.7337921656262179e+00 
96 1 2 1.0280000019166926e+00 -1.3835008922069002e+04 1.0000000000000000e+00 3.5715609419189236e+00 1.7023783230851393e+01 1.7337921657026103e+00 
155 1 2 1.0279999961159856e+00 -2.0233545234298377e+04 1.0000000000000000e+00 4.4000013243965652e+00 1.7590161717551002e+01 1.7140451948766628e+00 
152 1 2 1.0279999934854414e+00 -1.4160253566853204e+04 1.0000000000000000e+00 4.6258607949275774e+00 1.7541020148227680e+01 1.7252921406317245e+00 
92 1 2 1.0280000020646485e+00 -9.7111029268824041e+03 1.0000000000000000e+00 3.2998841633352876e+00 1.4038695921718690e+01 5.1802291431420109e+00 
175 1 2 1.0280000020151969e+00 -1.6309034216196205e+04 1.0000000000000000e+00 3.2995998159277655e+00 1.4037992241398092e+01 5.1812659940468864e+00 
167 1 2 1.0280000020060505e+00 -1.4620754988050770e+04 1.0000000000000000e+00 3.2995934013233228e+00 1.4037754929669434e+01 5.1814671575163729e+00 
151 1 2 1.0280000020073448e+00 -1.4222607037420661e+04 1.0000000000000000e+00 3.2995987711655479e+00 1.4037777533883084e+01 5.1814400506356000e+00 
121 1 2 1.0280000012499801e+00 -1.4912393417156660e+04 1.0000000000000000e+00 3.2919503639400798e+00 1.4034701807275692e+01 5.1968683160454576e+00 
108 1 2 1.0280000025599336e+00 -1.5370687305205753e+04 1.0000000000000000e+00 3.0857951734218978e+00 1.4644854617054317e+01 6.2045125003593649e+00 
105 1 2 1.0279999891907143e+00 -1.1687285923381352e+04 1.0000000000000000e+00 5.1399966478088936e+00 1.4630661221660761e+01 5.5474743467702607e+00 
98 1 2 1.0279999891910980e+00 -1.2223671344225944e+04 1.0000000000000000e+00 5.1399972446779412e+00 1.4630664956631403e+01 5.5474903831483982e+00 
104 1 2 1.0279999906664508e+00 -1.3314703285633783e+04 1.0000000000000000e+00 5.1433766225291011e+00 1.4647119496260277e+01 5.6217646491344402e+00 
22 1 2 1.0280000277785897e+00 -1.4251280088841888e+04 1.0000000000000000e+00 5.4485522438813794e+00 1.6367498781034236e+01 3.8256761120717879e+00 
138 1 2 1.0280000223221712e+00 -1.4433996160794111e+04 1.0000000000000000e+00 5.4877668527663443e+00 1.6362406920301652e+01 3.7823522515583887e+00 
101 1 2 1.0280000214465588e+00 -1.7182781388727151e+04 1.0000000000000000e+00 5.2327518242252316e+00 1.6414132172107024e+01 3.9381786364611089e+00 
32 1 2 1.0279999817285594e+00 -1.5971547331203068e+04 1.0000000000000000e+00 3.1445990568474773e+00 1.7954015727504981e+01 6.3081186521624986e+00 
25 1 2 1.0279999817259229e+00 -1.2860765373176368e+04 1.0000000000000000e+00 3.1446360135429630e+00 1.7954032858762666e+01 6.3081397786637323e+00 
31 1 2 1.0279999817539973e+00 -1.4080674748179234e+04 1.0000000000000000e+00 3.1442455804125164e+00 1.7953851360309145e+01 6.3079277354681080e+00 
174 1 2 1.0280000295002578e+00 -1.7648419377272770e+04 1.0000000000000000e+00 1.0171747002517146e+00 1.9060743844488968e+01 4.3916019756371503e+00 
83 1 2 1.0280000295002574e+00 -1.4169743103491423e+04 1.0000000000000000e+00 1.0171747002516598e+00 1.9060743844489085e+01 4.3916019756372711e+00 
120 1 2 1.0280000295002578e+00 -1.4175990423029196e+04 1.0000000000000000e+00 1.0171747002517881e+00 1.9060743844489114e+01 4.3916019756371494e+00 
160 1 2 1.0280000295002563e+00 -1.4124326652247517e+04 1.0000000000000000e+00 1.0171746900978900e+00 1.9060743829637683e+01 4.3916019782922877e+00 
84 1 2 1.0280000295002578e+00 -1.3563390722244432e+04 1.0000000000000000e+00 1.0171747002515552e+00 1.9060743844488972e+01 4.3916019756373279e+00 
114 1 2 1.0280000294995817e+00 -1.6293508382458844e+04 1.0000000000000000e+00 1.0171736494270971e+00 1.9060741565936887e+01 4.3916018217083259e+00 
55 1 2 1.0280000295000953e+00 -1.6539734845218733e+04 1.0000000000000000e+00 1.0171744065368642e+00 1.9060743284150437e+01 4.3916019768516525e+00 
50 1 2 1.0279999329551601e+00 -1.8557036244037503e+04 1.0000000000000000e+00 4.1750247825045914e+00 1.7163770503543461e+01 5.6983290303086802e+00 
87 1 2 1.0279999807624476e+00 -1.4206523960939428e+04 1.0000000000000000e+00 5.7366984132637482e+00 1.7502717085245305e+01 3.9769629871115701e+00 
42 1 2 1.0280000259431656e+00 -1.3011602121351358e+04 1.0000000000000000e+00 5.6362897903090667e+00 1.8217869648707115e+01 4.3754550820988607e+00 
78 1 2 1.0280000259431668e+00 -1.4547678060092534e+04 1.0000000000000000e+00 5.6362897897547777e+00 1.8217869647381296e+01 4.3754550819082016e+00 
41 1 2 1.0280000259431670e+00 -1.6613553057768357e+04 1.0000000000000000e+00 5.6362897901338407e+00 1.8217869648216276e+01 4.3754550819870923e+00 
57 1 2 1.0280000028770240e+00 -1.4257776876372642e+04 1.0000000000000000e+00 6.3808879960031391e+00 1.8258890513217583e+01 5.6352351855141336e+00 
10 1 2 1.0279999945788931e+00 -1.7163888535380709e+04 1.0000000000000000e+00 4.2973289416915055e+00 1.4088436065399124e+01 7.6558533678746263e+00 
110 1 2 1.0280000100852098e+00 -1.3043294903174825e+04 1.0000000000000000e+00 4.6780488236232607e+00 1.4459808907347877e+01 7.7925831313873406e+00 
109 1 2 1.0280000100852307e+00 -1.2268510833216747e+04 1.0000000000000000e+00 4.6780488247787035e+00 1.4459808906763937e+01 7.7925831309653812e+00 
75 1 2 1.0280000100850639e+00 -1.3762678000666145e+04 1.0000000000000000e+00 4.6780520556284761e+00 1.4459806998029748e+01 7.7925819429411165e+00 
73 1 2 1.0280000100852167e+00 -1.1770419304467137e+04 1.0000000000000000e+00 4.6780488247857379e+00 1.4459808906760982e+01 7.7925831309628855e+00 
74 1 2 1.0280000100852176e+00 -9.3053686955204812e+03 1.0000000000000000e+00 4.6780488261189488e+00 1.4459808906043804e+01 7.7925831304747843e+00 
146 1 2 1.0280000856528311e+00 -9.6559191785744879e+03 1.0000000000000000e+00 3.3521241900735679e+00 1.6985458141835402e+01 6.7450169435957452e+00 
147 1 2 1.0280000983370123e+00 -9.4095789493252869e+03 1.0000000000000000e+00 3.3730431812673096e+00 1.6943514598751268e+01 6.7318683745115910e+00 
69 1 2 1.0280000015658930e+00 -1.5137747437495562e+04 1.0000000000000000e+00 3.4329546670663125e+00 1.7622742969611920e+01 6.8516482406761590e+00 
33 1 2 1.0280000015739228e+00 -2.0176106704549376e+04 1.0000000000000000e+00 3.4325741873985698e+00 1.7622688665243640e+01 6.8516809545086144e+00 
124 1 2 1.0279999792180303e+00 -1.5722836061113998e+04 1.0000000000000000e+00 4.8563226720108910e+00 1.4671956551523154e+01 1.1632328081289378e+01 
176 1 2 1.0280000384653218e+00 -1.6885211836794668e+04 1.0000000000000000e+00 4.8814755623348169e+00 1.3840629255768878e+01 1.1092910720772730e+01 
140 1 2 1.0280000380873535e+00 -1.3241300758989753e+04 1.0000000000000000e+00 4.8798982045552783e+00 1.3841892713035831e+01 1.1092452370989724e+01 
20 1 2 1.0280000380873382e+00 -1.4796700016551797e+04 1.0000000000000000e+00 4.8798982231859673e+00 1.3841892698081407e+01 1.1092452376326337e+01 
143 1 2 1.0280000478369145e+00 -1.7771553043756165e+04 1.0000000000000000e+00 4.9143235099193179e+00 1.3802893769383674e+01 1.1119332961914978e+01 
113 1 2 1.0280000438916048e+00 -1.3364451744060374e+04 1.0000000000000000e+00 4.9017485371142824e+00 1.3820500096161377e+01 1.1104459842605772e+01 
119 1 2 1.0280000438895553e+00 -1.4534207988127253e+04 1.0000000000000000e+00 4.9017475371587693e+00 1.3820510373606471e+01 1.1104449370915782e+01 
133 1 2 1.0279998334745801e+00 -1.9089542475261653e+04 1.0000000000000000e+00 6.4509465536788975e+00 1.5966117396865444e+01 1.2693555019821272e+01 
118 1 2 1.0279998149023628e+00 -1.2857555433701336e+04 1.0000000000000000e+00 6.4510356746175601e+00 1.5982809237912306e+01 1.2660858114470614e+01 
76 1 2 1.0279998200540565e+00 -1.3982690322002200e+04 1.0000000000000000e+00 6.4497848662116386e+00 1.5976326871206764e+01 1.2670119021714104e+01 
91 1 2 1.0280000363229158e+00 -1.2338677677131884e+04 1.0000000000000000e+00 5.6507516944497898e+00 1.1966464302983274e+01 1.5800831179817051e+01 
139 1 2 1.0279999984632544e+00 -1.8948628814865384e+04 1.0000000000000000e+00 5.6068744388131728e+00 1.1292178508670460e+01 1.6325112999110992e+01 
53 1 2 1.0279999984631754e+00 -9.4396858318585091e+03 1.0000000000000000e+00 5.6068742989243070e+00 1.1292178318997916e+01 1.6325114209901546e+01 
56 1 2 1.0279999984634673e+00 -1.0356055900703484e+04 1.0000000000000000e+00 5.6068747417181966e+00 1.1292178919551242e+01 1.6325110385272694e+01 
51 1 2 1.0279999984632664e+00 -1.4416979044452894e+04 1.0000000000000000e+00 5.6068744371354180e+00 1.1292178506397804e+01 1.6325113013734207e+01 
45 1 2 1.0279999984632646e+00 -1.3460364002544839e+04 1.0000000000000000e+00 5.6068744371319417e+00 1.1292178506393237e+01 1.6325113013771951e+01 
150 1 2 1.0279998995750876e+00 -1.2663838307495980e+04 1.0000000000000000e+00 5.4427857631741094e+00 1.2909042305857495e+01 1.5145608681269026e+01 
180 1 2 1.0280000240294864e+00 -1.9925430814120220e+04 1.0000000000000000e+00 5.3347310295292143e+00 1.3182810311292640e+01 1.5039931285458900e+01 
144 1 2 1.0279999824553019e+00 -1.9025911787792877e+04 1.0000000000000000e+00 4.9746674640751714e+00 1.4517560616789254e+01 1.3739683612948349e+01 
37 1 2 1.0280000144563721e+00 -1.9508706181503385e+04 1.0000000000000000e+00 5.0002508944090609e+00 1.4391280191232873e+01 1.4016673009275745e+01 
135 1 2 1.0280000447460458e+00 -1.8110282980416447e+04 1.0000000000000000e+00 5.0236058698323225e+00 1.4235625115391413e+01 1.4239303575055350e+01 
117 1 2 1.0280000706974819e+00 -1.5041786323579599e+04 1.0000000000000000e+00 5.0840124380837519e+00 1.3917004100316262e+01 1.4542006470103724e+01 
70 1 2 1.0280000726485596e+00 -1.7425534838707837e+04 1.0000000000000000e+00 5.0833329362654531e+00 1.3930295643251920e+01 1.4536018770993861e+01 
172 1 2 1.0280000412460506e+00 -1.2794212036937673e+04 1.0000000000000000e+00 2.2969845462516032e+00 1.7426488630678829e+01 1.4439650460466014e+01 
61 1 2 1.0280000412460506e+00 -1.6448845360741252e+04 1.0000000000000000e+00 2.2969845462514531e+00 1.7426488630678893e+01 1.4439650460466236e+01 
86 1 2 1.0280000412460506e+00 -1.6594642935607484e+04 1.0000000000000000e+00 2.2969845462515637e+00 1.7426488630678858e+01 1.4439650460466071e+01 
19 1 2 1.0280000412460508e+00 -1.6516803864373036e+04 1.0000000000000000e+00 2.2969845462515166e+00 1.7426488630678769e+01 1.4439650460466229e+01 
107 1 2 1.0280000412460506e+00 -1.1637730884454768e+04 1.0000000000000000e+00 2.2969845462514429e+00 1.7426488630678939e+01 1.4439650460466225e+01 
17 1 2 1.0280000412460513e+00 -1.3602950390461712e+04 1.0000000000000000e+00 2.2969845467111365e+00 1.7426488630465638e+01 1.4439650459811014e+01 
100 1 2 1.0280000412460508e+00 -1.7873413387316472e+04 1.0000000000000000e+00 2.2969845462515361e+00 1.7426488630678904e+01 1.4439650460466098e+01 
27 1 2 1.0279998874616592e+00 -1.5459089158783781e+04 1.0000000000000000e+00 4.9074289142648073e+00 1.8512027184262074e+01 1.5916167364517641e+01 
65 1 2 1.0279998879939627e+00 -1.0981829952679649e+04 1.0000000000000000e+00 4.9101812577894552e+00 1.8515059544401467e+01 1.5918523793113236e+01 
58 1 2 1.0279998879941146e+00 -1.0982370192986771e+04 1.0000000000000000e+00 4.9101816294526559e+00 1.8515059960383006e+01 1.5918524118197022e+01 
64 1 2 1.0279998879940813e+00 -1.0938731830791605e+04 1.0000000000000000e+00 4.9101815768781139e+00 1.8515059901541388e+01 1.5918524072213053e+01 
159 1 2 1.0279998887145920e+00 -1.2035439706293049e+04 1.0000000000000000e+00 4.9137788866907073e+00 1.8519126022357085e+01 1.5921725347392885e+01 
47 1 2 1.0280000307963328e+00 -1.4101699298831612e+04 1.0000000000000000e+00 3.0922567277547448e+00 1.1075976930741405e+01 1.7567182976728958e+01 
67 1 2 1.0280000206029374e+00 -1.3417202026688630e+04 1.0000000000000000e+00 3.0723483334725024e+00 1.1230705609247702e+01 1.7550367479637671e+01 
8 1 2 1.0280000162144591e+00 -1.4698961551793722e+04 1.0000000000000000e+00 3.0773793890821568e+00 1.1266132452797967e+01 1.7545239123431145e+01 
169 1 2 1.0280000164477807e+00 -1.8170204154089472e+04 1.0000000000000000e+00 3.0770371991586800e+00 1.1264330925766897e+01 1.7545506643532310e+01 
106 1 2 1.0280000166293899e+00 -1.8641132115275854e+04 1.0000000000000000e+00 3.0767764187061868e+00 1.1262924279559648e+01 1.7545714744971722e+01 
23 1 2 1.0280000168351815e+00 -1.3522682091640532e+04 1.0000000000000000e+00 3.0764787118204189e+00 1.1261296579621701e+01 1.7545940843488069e+01 
43 1 2 1.0279999771221315e+00 -1.0537559544286180e+04 1.0000000000000000e+00 4.0908123835792969e+00 1.0790344872029332e+01 1.7519125295591241e+01 
60 1 2 1.0280000827168785e+00 -1.5619746639379959e+04 1.0000000000000000e+00 4.6699276740235334e+00 1.7888064174011795e+01 1.7760045518957096e+01 
89 1 2 1.0280000827185192e+00 -1.0504659905650215e+04 1.0000000000000000e+00 4.6698637453666407e+00 1.7888053640607925e+01 1.7760003992179694e+01 
128 1 2 1.0280000827167832e+00 -1.2083127571088698e+04 1.0000000000000000e+00 4.6699331280119871e+00 1.7888064958573413e+01 1.7760049046601576e+01 
7 1 2 1.0280000827404179e+00 -1.9486354128999697e+04 1.0000000000000000e+00 4.6689763928573838e+00 1.7887908648153186e+01 1.7759427038325367e+01 
141 1 2 1.0280000827458542e+00 -1.3156407437187450e+04 1.0000000000000000e+00 4.6691680277981193e+00 1.7888043911746969e+01 1.7759565326504607e+01 
30 1 2 1.0279999716445480e+00 -1.3227142486808421e+04 1.0000000000000000e+00 8.1529848327839787e+00 1.0642712630726341e+00 1.0387559342911358e+01 
35 1 2 1.0279999716445405e+00 -1.4486869571369967e+04 1.0000000000000000e+00 8.1529848457481044e+00 1.0642713095389633e+00 1.0387559424742395e+01 
29 1 2 1.0279999716445498e+00 -1.6145391424804524e+04 1.0000000000000000e+00 8.1529848383760477e+00 1.0642712831199692e+00 1.0387559378215952e+01 
149 1 2 1.0279999717338368e+00 -1.8455827562088318e+04 1.0000000000000000e+00 8.1526087654628618e+00 1.0636246026317724e+00 1.0386343989832453e+01 
148 1 2 1.0279999717338353e+00 -1.7828042346475635e+04 1.0000000000000000e+00 8.1526087661635103e+00 1.0636246026391321e+00 1.0386343990143834e+01 
165 1 2 1.0279999717338431e+00 -1.3282095697779658e+04 1.0000000000000000e+00 8.1526083532030604e+00 1.0636246056460212e+00 1.0386343818485102e+01 
59 1 2 1.0279999998933544e+00 -1.5003512599356412e+04 1.0000000000000000e+00 8.0188250549346005e+00 8.2791752509934347e-01 1.0868530969157712e+01 
48 1 2 1.0279999121457686e+00 -1.5503434326073015e+04 1.0000000000000000e+00 8.5515923439409853e+00 1.7694919426966656e+01 1.5484301146430073e+00 
1 1 2 1.0279999114094267e+00 -1.3814650137799306e+04 1.0000000000000000e+00 8.5521215803067587e+00 1.7694690230460164e+01 1.5494846149520074e+00 
103 1 2 1.0279999133138602e+00 -2.2141769020768770e+04 1.0000000000000000e+00 8.5530444733112585e+00 1.7697447628161967e+01 1.5461719877774842e+00 
44 1 2 1.0279999133138606e+00 -1.8119710754516193e+04 1.0000000000000000e+00 8.5530444735401989e+00 1.7697447629380530e+01 1.5461719859571335e+00 
173 1 2 1.0279999133138620e+00 -1.5907247001462916e+04 1.0000000000000000e+00 8.5530444735740225e+00 1.7697447629560653e+01 1.5461719856879430e+00 
15 1 2 1.0279999133138633e+00 -1.1538155411694412e+04 1.0000000000000000e+00 8.5530444739795470e+00 1.7697447631752770e+01 1.5461719824045510e+00 
14 1 2 1.0279999426575375e+00 -1.6201320485813425e+04 1.0000000000000000e+00 8.6024990349069199e+00 1.7643156904511116e+01 1.5988002455637580e+00 
36 1 2 1.0279999921233820e+00 -1.2584937094707133e+04 1.0000000000000000e+00 7.9701082125216463e+00 1.8883631622496104e+01 5.1703963752279911e+00 
71 1 2 1.0279999921231411e+00 -9.6754886780069555e+03 1.0000000000000000e+00 7.9701033204426439e+00 1.8883612318207479e+01 5.1703702972388648e+00 
122 1 2 1.0279999858142650e+00 -1.5309676520619190e+04 1.0000000000000000e+00 7.8357723982815175e+00 1.8713015761190888e+01 4.7624748072809338e+00 
132 1 2 1.0279999857633946e+00 -1.2314440021381184e+04 1.0000000000000000e+00 7.8346661858507289e+00 1.8712242777192380e+01 4.7604714225672788e+00 
72 1 2 1.0279999852770636e+00 -1.3485936774994410e+04 1.0000000000000000e+00 7.8227454811271580e+00 1.8700032349885117e+01 4.7426119163167222e+00 
127 1 2 1.0279999998367524e+00 -1.3774957794909233e+04 1.0000000000000000e+00 6.7383711556140744e+00 1.9812331514507022e+01 6.3452231796930647e+00 
142 1 2 1.0280004178268036e+00 -1.6912591034451154e+04 1.0000000000000000e+00 6.8927960498401104e+00 1.5876468402459055e+01 1.3130241034033222e+01 
95 1 2 1.0279999830300821e+00 -1.2603388987184297e+04 1.0000000000000000e+00 6.8648404921897921e+00 1.6204711389591001e+01 1.1577798201574984e+01 
130 1 2 1.0280000111809047e+00 -1.0727818830639937e+04 1.0000000000000000e+00 8.4696906741902218e+00 1.7249907261961351e+01 1.2381338139000491e+01 
93 1 2 1.0280000111855290e+00 -8.7854925171502346e+03 1.0000000000000000e+00 8.4694033136379723e+00 1.7249479360122425e+01 1.2381701441387996e+01 
94 1 2 1.0280000112353034e+00 -1.0050691736907454e+04 1.0000000000000000e+00 8.4662377180653543e+00 1.7244779663801374e+01 1.2385675731489806e+01 
170 1 2 1.0280000047456830e+00 -1.6865398150577254e+04 1.0000000000000000e+00 7.7987269239047841e+00 1.8068357059909236e+01 1.0562591123037691e+01 
156 1 2 1.0280000046766440e+00 -1.6289838321025447e+04 1.0000000000000000e+00 7.7985797438967381e+00 1.8070047034870839e+01 1.0562732543506142e+01 
102 1 2 1.0280000044516140e+00 -1.7941946799456815e+04 1.0000000000000000e+00 7.7971843059011556e+00 1.8075541387010524e+01 1.0563071439333783e+01 
157 1 2 1.0280000195205501e+00 -1.7739568676268107e+04 1.0000000000000000e+00 7.6785316323237600e+00 1.6996674480761929e+01 1.0722466305930404e+01 
179 1 2 1.0280000162458214e+00 -1.9200441451574745e+04 1.0000000000000000e+00 7.3100534537586936e+00 1.6960417003519865e+01 1.0767024225118902e+01 
111 1 2 1.0279999783602549e+00 -1.5108734030512685e+04 1.0000000000000000e+00 7.2868995681566719e+00 1.8646226297815655e+01 1.2353487930570980e+01 
171 1 2 1.0279999783598635e+00 -1.7485414127973647e+04 1.0000000000000000e+00 7.2869003287275467e+00 1.8646205471496742e+01 1.2353513155121492e+01 
129 1 2 1.0279999783597331e+00 -1.4838061750030216e+04 1.0000000000000000e+00 7.2869007000008343e+00 1.8646197447715551e+01 1.2353522921723714e+01 
178 1 2 1.0279999783633469e+00 -1.5536580499510877e+04 1.0000000000000000e+00 7.2868584074295981e+00 1.8646398896868327e+01 1.2353257247323867e+01 
54 1 2 1.0279999846133943e+00 -1.5399441729951899e+04 1.0000000000000000e+00 7.4994590541469508e+00 1.3610024687302245e+01 1.3391040461524000e+01 
18 1 2 1.0279999846133949e+00 -1.4054727144742239e+04 1.0000000000000000e+00 7.4994590530266239e+00 1.3610024684991988e+01 1.3391040463345687e+01 
158 1 2 1.0279999846134138e+00 -1.1634221004216726e+04 1.0000000000000000e+00 7.4994590507725265e+00 1.3610024680353785e+01 1.3391040466973411e+01 
28 1 2 1.0279999846134058e+00 -1.3925871203854616e+04 1.0000000000000000e+00 7.4994590529807397e+00 1.3610024684898454e+01 1.3391040463416454e+01 
2 1 2 1.0279999850096651e+00 -1.1789045296551592e+04 1.0000000000000000e+00 7.4985788042153887e+00 1.3610411640053316e+01 1.3384358273128358e+01 
11 1 2 1.0279999809808553e+00 -1.3218706900640431e+04 1.0000000000000000e+00 7.4922445387180820e+00 1.3587608049856740e+01 1.3554147272438124e+01 
63 1 2 1.0280001862569879e+00 -1.2610316378794092e+04 1.0000000000000000e+00 6.9065409051358078e+00 1.6197909164110968e+01 1.6242666487086165e+01 
145 1 2 1.0280002933433949e+00 -1.3301982583825733e+04 1.0000000000000000e+00 6.8456175204177434e+00 1.6386066813074784e+01 1.5998497603645697e+01 
68 1 2 1.0280002936555339e+00 -1.2186449743431642e+04 1.0000000000000000e+00 6.8448276982138809e+00 1.6386769365269512e+01 1.5997774587672559e+01 
24 1 2 1.0280002948521030e+00 -1.3517621309080299e+04 1.0000000000000000e+00 6.8420046857564749e+00 1.6388137146117682e+01 1.5996156226419807e+01 
137 1 2 1.0280002948522047e+00 -1.6173207519704158e+04 1.0000000000000000e+00 6.8420043281188194e+00 1.6388137267826103e+01 1.5996156065170938e+01 
13 1 2 1.0280000883012610e+00 -1.3865141158383447e+04 1.0000000000000000e+00 1.0098755161899129e+01 1.5736758405603156e+01 1.9393676228304095e+01 
62 1 2 1.0280000883012610e+00 -1.3541444917606015e+04 1.0000000000000000e+00 1.0098755161899410e+01 1.5736758405602849e+01 1.9393676228304816e+01 
12 1 2 1.0280000883012608e+00 -1.4450712267208410e+04 1.0000000000000000e+00 1.0098755161899531e+01 1.5736758405603410e+01 1.9393676228304244e+01 
5 1 2 1.0280000883012672e+00 -1.2990259025077648e+04 1.0000000000000000e+00 1.0098755173286474e+01 1.5736758414536348e+01 1.9393676230410207e+01 
52 1 2 1.0280000883012623e+00 -9.1965715938515059e+03 1.0000000000000000e+00 1.0098755161673763e+01 1.5736758405143952e+01 1.9393676228623505e+01 
46 1 2 1.0280000883012617e+00 -1.3233263958286228e+04 1.0000000000000000e+00 1.0098755161794609e+01 1.5736758405435593e+01 1.9393676228394188e+01 
9 1 2 1.0280000883012612e+00 -1.1872386268358519e+04 1.0000000000000000e+00 1.0098755161700421e+01 1.5736758405236662e+01 1.9393676228536609e+01 
81 1 2 1.0279998054525525e+00 -1.5705463183777916e+04 1.0000000000000000e+00 7.4117090566904498e+00 1.7267120189453657e+01 1.7669225605414056e+01 
38 1 2 1.0279998054526074e+00 -1.4230930995930801e+04 1.0000000000000000e+00 7.4117089859321998e+00 1.7267120411186909e+01 1.7669225574270982e+01 
166 1 2 1.0279998054525741e+00 -8.7952937238776249e+03 1.0000000000000000e+00 7.4117091683197005e+00 1.7267119842474866e+01 1.7669225653360744e+01 
153 1 2 1.0279998054525357e+00 -1.4133740201598244e+04 1.0000000000000000e+00 7.4117095949447327e+00 1.7267118526895850e+01 1.7669225832206347e+01 
82 1 2 1.0279998054529755e+00 -1.4165341541668880e+04 1.0000000000000000e+00 7.4117070602564405e+00 1.7267126655211918e+01 1.7669224638990453e+01 
99 1 2 1.0280000000000793e+00 -1.3192499407783984e+04 1.0000000000000000e+00 1.8119690580316945e+01 1.6313135181480718e+01 1.4821558177719192e+01 
16 1 2 1.0280000000000364e+00 -1.5287901630382705e+04 1.0000000000000000e+00 1.8123436316748617e+01 1.6314211910055366e+01 1.4821716768603856e+01 
21 1 2 1.0280000000000094e+00 -1.4786422138014996e+04 1.0000000000000000e+00 1.8152615516089661e+01 1.6325629446082544e+01 1.4822170603785111e+01 
80 1 2 1.0280000000000220e+00 -1.7344890524749368e+04 1.0000000000000000e+00 1.8157705944335810e+01 1.6327787541524035e+01 1.4822044869643708e+01 
136 1 2 1.0280000000000131e+00 -1.7958752586428567e+04 1.0000000000000000e+00 1.8071138908932738e+01 1.6454899178685139e+01 1.3831898343352155e+01 
164 1 2 1.0279999999999896e+00 -1.2686370521980331e+04 1.0000000000000000e+00 1.8112494980724492e+01 1.6452430119982278e+01 1.3829168971085627e+01 
154 1 2 1.0280000000000173e+00 -1.5277271536921588e+04 1.0000000000000000e+00 1.8101429787439546e+01 1.6454194248895806e+01 1.3829671241201368e+01 
26 1 2 1.0280000000001281e+00 -1.3828627435000262e+04 1.0000000000000000e+00 1.8117901640916557e+01 1.6451568748207627e+01 1.3829025538706539e+01 

Velocities

97 2.7455876002489099e-01 -2.4733412102632826e-01 -9.2379715538074933e-02
115 2.7455875986641803e-01 -2.4733412094266294e-01 -9.2379715596689352e-02
79 2.7455876004269547e-01 -2.4733412103405297e-01 -9.2379715533553647e-02
116 2.7455875986682138e-01 -2.4733412094302915e-01 -9.2379715596634007e-02
6 2.7455293097363437e-01 -2.4733041827280275e-01 -9.2384669019063143e-02
34 2.7389084476965769e-01 -2.4608582597214546e-01 -9.1748290064592550e-02
39 2.7389084023895149e-01 -2.4608582656043460e-01 -9.1748293461833899e-02
66 2.7389083455238455e-01 -2.4608582880045479e-01 -9.1748306296051421e-02
40 2.7389084023914251e-01 -2.4608582655975153e-01 -9.1748293461135513e-02
4 2.7389084023903137e-01 -2.4608582656042846e-01 -9.1748293462378505e-02
123 2.7397073798897237e-01 -2.4622672509625029e-01 -9.1632385600132052e-02
168 2.7393451193718865e-01 -2.4609389503870976e-01 -9.1591288661152792e-02
126 2.7393451193691548e-01 -2.4609389503888318e-01 -9.1591288662620396e-02
162 2.7393451193708218e-01 -2.4609389503726786e-01 -9.1591288666125273e-02
163 2.7393451193669538e-01 -2.4609389504224055e-01 -9.1591288657766570e-02
161 2.7451585409307061e-01 -2.4716826051263138e-01 -9.2202274164601222e-02
88 2.7451585621470659e-01 -2.4716826289351931e-01 -9.2202278113718686e-02
134 2.7451586194750754e-01 -2.4716826932778366e-01 -9.2202288786270542e-02
131 2.7451585783302901e-01 -2.4716826470972902e-01 -9.2202281126696789e-02
125 2.7451585788769306e-01 -2.4716826477108161e-01 -9.2202281228428884e-02
112 2.7451585667093986e-01 -2.4716826340552431e-01 -9.2202278962911777e-02
177 2.7439843634356886e-01 -2.4730762198960091e-01 -9.2402616287711112e-02
49 2.7439848200150596e-01 -2.4730923363231461e-01 -9.2403185718112568e-02
85 2.7439865599446783e-01 -2.4731232572311351e-01 -9.2404288670161067e-02
3 2.7440026680752883e-01 -2.4739394980401114e-01 -9.2461181718480001e-02
77 2.7440022740990311e-01 -2.4739394952178495e-01 -9.2461197379653373e-02
90 2.7440020527769299e-01 -2.4739393345860705e-01 -9.2461210460097171e-02
96 2.7440020527694597e-01 -2.4739393345847260e-01 -9.2461210460198159e-02
155 2.7439990624430022e-01 -2.4740749440095056e-01 -9.2463644441759751e-02
152 2.7438867882064338e-01 -2.4741309311606313e-01 -9.2459194880789158e-02
92 2.7436135829296454e-01 -2.4683089786178758e-01 -9.2112363098922026e-02
175 2.7436149726765663e-01 -2.4683078769290329e-01 -9.2112316023185509e-02
167 2.7436152391445739e-01 -2.4683076340183507e-01 -9.2112302280574321e-02
151 2.7436152029223410e-01 -2.4683076641126170e-01 -9.2112303699214984e-02
121 2.7436361416039895e-01 -2.4682932197358390e-01 -9.2112000786302703e-02
108 2.7433253355069165e-01 -2.4680435320629288e-01 -9.2157668884932528e-02
105 2.7433659579659059e-01 -2.4683913437924956e-01 -9.2117370557353445e-02
98 2.7433659691435697e-01 -2.4683913232795063e-01 -9.2117371625639335e-02
104 2.7434142163867403e-01 -2.4682925382653612e-01 -9.2122146364119029e-02
22 2.7445905164898671e-01 -2.4723556915878375e-01 -9.2232654448670334e-02
138 2.7446099409129171e-01 -2.4723792967790365e-01 -9.2246190665488559e-02
101 2.7440399565808782e-01 -2.4722173326199468e-01 -9.2226796718628379e-02