LAMMPS data file via write_data, version 30 Jul 2016, timestep = 50000000

180 atoms
2 atom types

0.0000000000000000e+00 2.0000000000000000e+01 xlo xhi
0.0000000000000000e+00 2.0000000000000000e+01 ylo yhi
0.0000000000000000e+00 2.0000000000000000e+01 zlo zhi

Masses

1 3.896
2 4.31

Atoms # meso-molecular

47 1 2 1.0280000490802987e+00 -1.4101699330709511e+04 1.0000000000000000e+00 1.2202184376741194e+01 6.4778206055196574e-01 1.1834707154789694e+00 
67 1 2 1.0280000441983692e+00 -1.3417202056760187e+04 1.0000000000000000e+00 1.2182076060536730e+01 7.9921319251039891e-01 1.1669810920120560e+00 
8 1 2 1.0280000392581581e+00 -1.4698961581185838e+04 1.0000000000000000e+00 1.2186662996588613e+01 8.3400425560820990e-01 1.1619535993916446e+00 
169 1 2 1.0280000395349669e+00 -1.8170204183571004e+04 1.0000000000000000e+00 1.2186345881781333e+01 8.3223247514303922e-01 1.1622160291537240e+00 
106 1 2 1.0280000397493307e+00 -1.8641132144789663e+04 1.0000000000000000e+00 1.2186104504059138e+01 8.3084925508485741e-01 1.1624201539909347e+00 
23 1 2 1.0280000399884492e+00 -1.3522682121128331e+04 1.0000000000000000e+00 1.2185828714280060e+01 8.2924878246671496e-01 1.1626418735721704e+00 
43 1 2 1.0279999648222262e+00 -1.0537559558121024e+04 1.0000000000000000e+00 1.3192935455749193e+01 3.5135306047355580e-01 1.1381550241199492e+00 
39 1 2 1.0280000322053997e+00 -1.2237541668464952e+04 1.0000000000000000e+00 1.2121818688381893e+01 8.4671007267592302e-01 4.6263004374404533e+00 
34 1 2 1.0280000322030796e+00 -1.7141080428852823e+04 1.0000000000000000e+00 1.2121837108014823e+01 8.4670523438562795e-01 4.6263064818681610e+00 
4 1 2 1.0280000322054037e+00 -1.7996359291817884e+04 1.0000000000000000e+00 1.2121818689361907e+01 8.4671007353319505e-01 4.6263004364114479e+00 
40 1 2 1.0280000322053933e+00 -1.2930491723812140e+04 1.0000000000000000e+00 1.2121818689053510e+01 8.4671007230776119e-01 4.6263004378931205e+00 
66 1 2 1.0280000322145819e+00 -1.3211870781681724e+04 1.0000000000000000e+00 1.2121803708067384e+01 8.4672795421675906e-01 4.6262786252452166e+00 
123 1 2 1.0279999760951131e+00 -1.3398011337096154e+04 1.0000000000000000e+00 1.2107125700314176e+01 1.7774865709073320e+00 6.0226541610079973e+00 
126 1 2 1.0280000197729930e+00 -1.2697166315092154e+04 1.0000000000000000e+00 1.2107397877414607e+01 2.2459875730331351e+00 5.7734345142394723e+00 
163 1 2 1.0280000197729868e+00 -1.2091976438412288e+04 1.0000000000000000e+00 1.2107397876795950e+01 2.2459875658321553e+00 5.7734345246041165e+00 
168 1 2 1.0280000197729839e+00 -1.2840031811187622e+04 1.0000000000000000e+00 1.2107397878947912e+01 2.2459875719454101e+00 5.7734345165049943e+00 
162 1 2 1.0280000197729859e+00 -1.2963602817416035e+04 1.0000000000000000e+00 1.2107397877291733e+01 2.2459875776140001e+00 5.7734345074239437e+00 
3 1 2 1.0280000036808190e+00 -1.4556436742726606e+04 1.0000000000000000e+00 1.2594371632936310e+01 6.9239914380301704e+00 5.4325837151131635e+00 
77 1 2 1.0280000036945645e+00 -1.2945032427314794e+04 1.0000000000000000e+00 1.2594519455243642e+01 6.9244303385382961e+00 5.4318149986329933e+00 
90 1 2 1.0280000037024311e+00 -1.5001942262165761e+04 1.0000000000000000e+00 1.2594791200048089e+01 6.9259430289214041e+00 5.4321131444442896e+00 
96 1 2 1.0280000037024348e+00 -1.3835008922069002e+04 1.0000000000000000e+00 1.2594791200203410e+01 6.9259430297420419e+00 5.4321131445210256e+00 
108 1 2 1.0280000031568444e+00 -1.5370687306660944e+04 1.0000000000000000e+00 1.2111254045986882e+01 4.5229441765627749e+00 9.8911275949867985e+00 
92 1 2 1.0280000002355703e+00 -9.7111029283375956e+03 1.0000000000000000e+00 1.2323847343325081e+01 3.9179793156575622e+00 8.8651106711852297e+00 
175 1 2 1.0280000001856544e+00 -1.6309034217651397e+04 1.0000000000000000e+00 1.2323557300453652e+01 3.9172704668034481e+00 8.8661457651357143e+00 
151 1 2 1.0280000001767711e+00 -1.4222607038875853e+04 1.0000000000000000e+00 1.2323555281002612e+01 3.9170547178140924e+00 8.8663193316283238e+00 
167 1 2 1.0280000001754619e+00 -1.4620754989505962e+04 1.0000000000000000e+00 1.2323549761386031e+01 3.9170319705870917e+00 8.8663463842663717e+00 
121 1 2 1.0279999994839126e+00 -1.4912393418611851e+04 1.0000000000000000e+00 1.2315823605312058e+01 3.9139146818546804e+00 8.8817386696341494e+00 
114 1 2 1.0280000338569115e+00 -1.6293508382458844e+04 1.0000000000000000e+00 1.0041326626235463e+01 8.9581608587019304e+00 8.0937518330787501e+00 
83 1 2 1.0280000338575210e+00 -1.4169743103491423e+04 1.0000000000000000e+00 1.0041327666195517e+01 8.9581630853166843e+00 8.0937519934253768e+00 
160 1 2 1.0280000338575126e+00 -1.4124326652247517e+04 1.0000000000000000e+00 1.0041327656184043e+01 8.9581630708019180e+00 8.0937519959679047e+00 
174 1 2 1.0280000338575210e+00 -1.7648419377272770e+04 1.0000000000000000e+00 1.0041327666195524e+01 8.9581630853165866e+00 8.0937519934253093e+00 
55 1 2 1.0280000338573778e+00 -1.6539734845218733e+04 1.0000000000000000e+00 1.0041327375916834e+01 8.9581625377260963e+00 8.0937519923064905e+00 
120 1 2 1.0280000338575206e+00 -1.4175990423029196e+04 1.0000000000000000e+00 1.0041327666195587e+01 8.9581630853167180e+00 8.0937519934253110e+00 
84 1 2 1.0280000338575210e+00 -1.3563390722244432e+04 1.0000000000000000e+00 1.0041327666195356e+01 8.9581630853165564e+00 8.0937519934254780e+00 
50 1 2 1.0279999401423183e+00 -1.8557036244037503e+04 1.0000000000000000e+00 1.3199134130809600e+01 7.0462769293855141e+00 9.3887957365620700e+00 
10 1 2 1.0279999931168609e+00 -1.7163888564450823e+04 1.0000000000000000e+00 1.3323588021897537e+01 3.9480964695208298e+00 1.1338815745025224e+01 
31 1 2 1.0279999791587866e+00 -1.4080674749634425e+04 1.0000000000000000e+00 1.2165339224989756e+01 7.8320800622938416e+00 1.0002183777076853e+01 
25 1 2 1.0279999791300110e+00 -1.2860765374631559e+04 1.0000000000000000e+00 1.2165730515819467e+01 7.8322639083957126e+00 1.0002397017561828e+01 
32 1 2 1.0279999791327248e+00 -1.5971547332658260e+04 1.0000000000000000e+00 1.2165693475447590e+01 7.8322465612167411e+00 1.0002375773344278e+01 
146 1 2 1.0280000903386683e+00 -9.6559191814848709e+03 1.0000000000000000e+00 1.2380548564054330e+01 6.8639118859284887e+00 1.0430237971929815e+01 
147 1 2 1.0280001043093627e+00 -9.4095789522356699e+03 1.0000000000000000e+00 1.2401810675254778e+01 6.8227678073450342e+00 1.0416405850837441e+01 
69 1 2 1.0279999998566169e+00 -1.5137747438950753e+04 1.0000000000000000e+00 1.2455722359168197e+01 7.4961654404076397e+00 1.0544391512654554e+01 
33 1 2 1.0279999998625733e+00 -2.0176106704549376e+04 1.0000000000000000e+00 1.2455343141589051e+01 7.4961105851000740e+00 1.0544423192184730e+01 
80 1 2 1.0280000000000786e+00 -1.7344890524749368e+04 1.0000000000000000e+00 6.8021269940445341e+00 6.0234100296536841e+00 1.9699441389535906e+01 
21 1 2 1.0279999999999854e+00 -1.4786422138014996e+04 1.0000000000000000e+00 6.7970365657971303e+00 6.0212519342125859e+00 1.9699567123677799e+01 
16 1 2 1.0280000000001257e+00 -1.5287901630382705e+04 1.0000000000000000e+00 6.7678573664558561e+00 6.0098343981849540e+00 1.9699113288496019e+01 
99 1 2 1.0280000000000451e+00 -1.3192499407783984e+04 1.0000000000000000e+00 6.7641116300245043e+00 6.0087576696107279e+00 1.9698954697611939e+01 
26 1 2 1.0280000000000571e+00 -1.3828627435000262e+04 1.0000000000000000e+00 6.7623226906237708e+00 6.1471912363357690e+00 1.8706422058598498e+01 
164 1 2 1.0279999999999907e+00 -1.2686370521980331e+04 1.0000000000000000e+00 6.7569160304310474e+00 6.1480526081117084e+00 1.8706565490978068e+01 
154 1 2 1.0280000000000524e+00 -1.5277271536921588e+04 1.0000000000000000e+00 6.7458508371471897e+00 6.1498167370256427e+00 1.8707067761093985e+01 
136 1 2 1.0280000000001381e+00 -1.7958752586428567e+04 1.0000000000000000e+00 6.7155599586391119e+00 6.1505216668149592e+00 1.8709294863245262e+01 
107 1 2 1.0280000622486942e+00 -1.1637730885692534e+04 1.0000000000000000e+00 1.1361539982203878e+01 7.3175324260994987e+00 1.8151345232518601e+01 
61 1 2 1.0280000622486942e+00 -1.6448845361871081e+04 1.0000000000000000e+00 1.1361539982203880e+01 7.3175324260994419e+00 1.8151345232518647e+01 
172 1 2 1.0280000622486944e+00 -1.2794212038175439e+04 1.0000000000000000e+00 1.1361539982204025e+01 7.3175324260993886e+00 1.8151345232518427e+01 
86 1 2 1.0280000622486942e+00 -1.6594642936737313e+04 1.0000000000000000e+00 1.1361539982203995e+01 7.3175324260994064e+00 1.8151345232518459e+01 
17 1 2 1.0280000622486956e+00 -1.3602950391699478e+04 1.0000000000000000e+00 1.1361539982638398e+01 7.3175324258904322e+00 1.8151345231882264e+01 
100 1 2 1.0280000622486942e+00 -1.7873413388446301e+04 1.0000000000000000e+00 1.1361539982203951e+01 7.3175324260994481e+00 1.8151345232518512e+01 
19 1 2 1.0280000622486944e+00 -1.6516803865502865e+04 1.0000000000000000e+00 1.1361539982203913e+01 7.3175324260993415e+00 1.8151345232518661e+01 
13 1 2 1.0280000565961536e+00 -1.3865141159838638e+04 1.0000000000000000e+00 1.9184848476333222e+01 5.6313107541592222e+00 3.1299820213151168e+00 
62 1 2 1.0280000565961536e+00 -1.3541444919061207e+04 1.0000000000000000e+00 1.9184848476333492e+01 5.6313107541589487e+00 3.1299820213158198e+00 
12 1 2 1.0280000565961540e+00 -1.4450712268663601e+04 1.0000000000000000e+00 1.9184848476333606e+01 5.6313107541594718e+00 3.1299820213152767e+00 
5 1 2 1.0280000565961502e+00 -1.2990259026532840e+04 1.0000000000000000e+00 1.9184848487096346e+01 5.6313107627371091e+00 3.1299820233435756e+00 
52 1 2 1.0280000565961518e+00 -9.1965715953066974e+03 1.0000000000000000e+00 1.9184848476116823e+01 5.6313107537235370e+00 3.1299820216195711e+00 
46 1 2 1.0280000565961529e+00 -1.3233263959741420e+04 1.0000000000000000e+00 1.9184848476233412e+01 5.6313107539998448e+00 3.1299820214010090e+00 
9 1 2 1.0280000565961522e+00 -1.1872386269813711e+04 1.0000000000000000e+00 1.9184848476142804e+01 5.6313107538110989e+00 3.1299820215367875e+00 
153 1 2 1.0279998028834765e+00 -1.4133740209060788e+04 1.0000000000000000e+00 1.6507589987080969e+01 7.1243392820832705e+00 1.3658296505135867e+00 
81 1 2 1.0279998028836335e+00 -1.5705463191240435e+04 1.0000000000000000e+00 1.6507589423439502e+01 7.1243410922581063e+00 1.3658294025462629e+00 
166 1 2 1.0279998028836170e+00 -8.7952937313401508e+03 1.0000000000000000e+00 1.6507589540309930e+01 7.1243407144655446e+00 1.3658294549812793e+00 
82 1 2 1.0279998028843476e+00 -1.4165341549131286e+04 1.0000000000000000e+00 1.6507587336058673e+01 7.1243481327957108e+00 1.3658283444007273e+00 
38 1 2 1.0279998028837001e+00 -1.4230931003393312e+04 1.0000000000000000e+00 1.6507589349378147e+01 7.1243413336862425e+00 1.3658293684795402e+00 
128 1 2 1.0280000880742655e+00 -1.2083127559738183e+04 1.0000000000000000e+00 1.3761906026884070e+01 7.7444764888307267e+00 1.4474295637522407e+00 
60 1 2 1.0280000880744409e+00 -1.5619746628029570e+04 1.0000000000000000e+00 1.3761900847588127e+01 7.7444757466557625e+00 1.4474261828041701e+00 
89 1 2 1.0280000880761542e+00 -1.0504659894301300e+04 1.0000000000000000e+00 1.3761840135242078e+01 7.7444657574335816e+00 1.4473863904736946e+00 
141 1 2 1.0280000881043130e+00 -1.3156407425860218e+04 1.0000000000000000e+00 1.3761179683153438e+01 7.7444582350525932e+00 1.4469654885319569e+00 
7 1 2 1.0280000880997193e+00 -1.9486354117678424e+04 1.0000000000000000e+00 1.3760997417098809e+01 7.7443282744729514e+00 1.4468335596052626e+00 
177 1 2 1.0279999914736375e+00 -1.5632317524126393e+04 1.0000000000000000e+00 1.3938375800010828e+01 5.9923825125089047e+00 5.1194522798053539e+00 
49 1 2 1.0279999916378517e+00 -1.3764415641413452e+04 1.0000000000000000e+00 1.3934872644167850e+01 6.0066049152809589e+00 5.1123361887953180e+00 
85 1 2 1.0279999919579903e+00 -1.4969913876562270e+04 1.0000000000000000e+00 1.3927020923510605e+01 6.0337105005080742e+00 5.0983963073016110e+00 
161 1 2 1.0280000144923467e+00 -1.4038318100247696e+04 1.0000000000000000e+00 1.4603906628752295e+01 3.9576800886331909e+00 6.5287652753916223e+00 
88 1 2 1.0280000144943899e+00 -1.0633254231337030e+04 1.0000000000000000e+00 1.4603901247835907e+01 3.9576835916473430e+00 6.5287482706887818e+00 
134 1 2 1.0280000144999486e+00 -1.7559709197596676e+04 1.0000000000000000e+00 1.4603886699796254e+01 3.9576930527352516e+00 6.5287023251380161e+00 
131 1 2 1.0280000144959647e+00 -1.4643442955911269e+04 1.0000000000000000e+00 1.4603897141346124e+01 3.9576862636361589e+00 6.5287352974213277e+00 
125 1 2 1.0280000144960248e+00 -1.1913019889016850e+04 1.0000000000000000e+00 1.4603897002707734e+01 3.9576863538229898e+00 6.5287348594964509e+00 
112 1 2 1.0280000144948493e+00 -1.5571840217637899e+04 1.0000000000000000e+00 1.4603900090624204e+01 3.9576843447259793e+00 6.5287446144833128e+00 
152 1 2 1.0279999962816548e+00 -1.4160253566853204e+04 1.0000000000000000e+00 1.3649166673377884e+01 7.4437266385356002e+00 5.4236270357477769e+00 
155 1 2 1.0279999987868820e+00 -2.0233545234298377e+04 1.0000000000000000e+00 1.3422940263766025e+01 7.4926078515060581e+00 5.4125485148760824e+00 
1 1 2 1.0279999395194106e+00 -1.3814650139254498e+04 1.0000000000000000e+00 1.7617314327402156e+01 7.5972069575253185e+00 5.2653780160654682e+00 
48 1 2 1.0279999408330076e+00 -1.5503434327528206e+04 1.0000000000000000e+00 1.7616775609144948e+01 7.5974286693168418e+00 5.2642627492442386e+00 
15 1 2 1.0279999432299018e+00 -1.1538155413149603e+04 1.0000000000000000e+00 1.7618332742445780e+01 7.6000512455474034e+00 5.2618812887793389e+00 
173 1 2 1.0279999432298987e+00 -1.5907247002918108e+04 1.0000000000000000e+00 1.7618332741968590e+01 7.6000512433038105e+00 5.2618812922439915e+00 
44 1 2 1.0279999432298987e+00 -1.8119710754516193e+04 1.0000000000000000e+00 1.7618332741928807e+01 7.6000512431193359e+00 5.2618812925280736e+00 
103 1 2 1.0279999432298934e+00 -2.2141769020768770e+04 1.0000000000000000e+00 1.7618332741660222e+01 7.6000512418723112e+00 5.2618812944490676e+00 
14 1 2 1.0279999579577213e+00 -1.6201320487268616e+04 1.0000000000000000e+00 1.7670288289848411e+01 7.5429100093437365e+00 5.3163681716806366e+00 
104 1 2 1.0279999886118798e+00 -1.3314703288544166e+04 1.0000000000000000e+00 1.4169023623836521e+01 4.5260218781915595e+00 9.3068752988504126e+00 
105 1 2 1.0279999870545649e+00 -1.1687285926291735e+04 1.0000000000000000e+00 1.4165847051932294e+01 4.5099748695119164e+00 9.2323837879342836e+00 
98 1 2 1.0279999870549075e+00 -1.2223671347136327e+04 1.0000000000000000e+00 1.4165847601747549e+01 4.5099785191379924e+00 9.2323998695297913e+00 
138 1 2 1.0280000105907756e+00 -1.4433996162249303e+04 1.0000000000000000e+00 1.4509070777703206e+01 6.2582953488136575e+00 7.4727274110143469e+00 
22 1 2 1.0280000154591331e+00 -1.4251280090297079e+04 1.0000000000000000e+00 1.4469876574488810e+01 6.2633005403616782e+00 7.5155662505192797e+00 
101 1 2 1.0280000179935502e+00 -1.7182781388727151e+04 1.0000000000000000e+00 1.4255857829046867e+01 6.3094363580133326e+00 7.6277226478673192e+00 
42 1 2 1.0280000246826453e+00 -1.3011602121758071e+04 1.0000000000000000e+00 1.4659705805425681e+01 8.1130078696181656e+00 8.0707279548229085e+00 
78 1 2 1.0280000246826484e+00 -1.4547678060499247e+04 1.0000000000000000e+00 1.4659705804874566e+01 8.1130078682950888e+00 8.0707279546286959e+00 
87 1 2 1.0279999875796759e+00 -1.4206523960939428e+04 1.0000000000000000e+00 1.4758608554912293e+01 7.3996987875059874e+00 7.6704204931912372e+00 
41 1 2 1.0280000246826475e+00 -1.6613553057768357e+04 1.0000000000000000e+00 1.4659705805251308e+01 8.1130078691284719e+00 8.0707279547101081e+00 
57 1 2 1.0280000031910963e+00 -1.4257776876372642e+04 1.0000000000000000e+00 1.5399244534347378e+01 8.1577210490209122e+00 9.3285016793120192e+00 
36 1 2 1.0279999934941682e+00 -1.2584937094707133e+04 1.0000000000000000e+00 1.6990277504587592e+01 8.7847254963495267e+00 8.8683014713833348e+00 
71 1 2 1.0279999934938679e+00 -9.6754886780069555e+03 1.0000000000000000e+00 1.6990272675599744e+01 8.7847061154761619e+00 8.8682753804258798e+00 
72 1 2 1.0279999828647963e+00 -1.3485936776449602e+04 1.0000000000000000e+00 1.6844287805205351e+01 8.6002708795784812e+00 8.4404396258097751e+00 
132 1 2 1.0279999836909950e+00 -1.2314440022836376e+04 1.0000000000000000e+00 1.6856156379117994e+01 8.6125667416228016e+00 8.4583188150092390e+00 
122 1 2 1.0279999837756550e+00 -1.5309676522074382e+04 1.0000000000000000e+00 1.6857256171156354e+01 8.6133447179562577e+00 8.4603251947404097e+00 
73 1 2 1.0280000094691608e+00 -1.1770419348210158e+04 1.0000000000000000e+00 1.3703769590658849e+01 4.3164331841621424e+00 1.1473127036880543e+01 
74 1 2 1.0280000094691557e+00 -9.3053687392635020e+03 1.0000000000000000e+00 1.3703769591988882e+01 4.3164331834498482e+00 1.1473127036404705e+01 
110 1 2 1.0280000094691613e+00 -1.3043294946917846e+04 1.0000000000000000e+00 1.3703769589499329e+01 4.3164331847449811e+00 1.1473127037294402e+01 
109 1 2 1.0280000094691635e+00 -1.2268510876959768e+04 1.0000000000000000e+00 1.3703769590651794e+01 4.3164331841650689e+00 1.1473127036883037e+01 
75 1 2 1.0280000094689217e+00 -1.3762678044409100e+04 1.0000000000000000e+00 1.3703772814433602e+01 4.3164312866885570e+00 1.1473125879005504e+01 
127 1 2 1.0280000003952896e+00 -1.3774957794909233e+04 1.0000000000000000e+00 1.5755117753325253e+01 9.7137149632021735e+00 1.0040445300645249e+01 
95 1 2 1.0279999340055412e+00 -1.2603388988529028e+04 1.0000000000000000e+00 1.5977493731167741e+01 5.7343570425970407e+00 1.5198820954527999e+01 
118 1 2 1.0279998086027993e+00 -1.2857555487447384e+04 1.0000000000000000e+00 1.5547054696857780e+01 5.5413066405301228e+00 1.6310956295067367e+01 
76 1 2 1.0279998174833165e+00 -1.3982690376740933e+04 1.0000000000000000e+00 1.5546424507972551e+01 5.5347214878046351e+00 1.6320470405381826e+01 
133 1 2 1.0279998420928478e+00 -1.9089542533126780e+04 1.0000000000000000e+00 1.5549301990058986e+01 5.5240939810180105e+00 1.6344564345688987e+01 
143 1 2 1.0280000376768397e+00 -1.7771553079932863e+04 1.0000000000000000e+00 1.3999822237594202e+01 3.3773351214847311e+00 1.4745000455793290e+01 
113 1 2 1.0280000353878185e+00 -1.3364451782559927e+04 1.0000000000000000e+00 1.3987309811143762e+01 3.3947077360319673e+00 1.4730231058435233e+01 
119 1 2 1.0280000353868066e+00 -1.4534208026628334e+04 1.0000000000000000e+00 1.3987308708473172e+01 3.3947179169056336e+00 1.4730220700344793e+01 
176 1 2 1.0280000318558209e+00 -1.6885211877444250e+04 1.0000000000000000e+00 1.3967215464481171e+01 3.4144841520556488e+00 1.4718641900001010e+01 
140 1 2 1.0280000315873870e+00 -1.3241300799755682e+04 1.0000000000000000e+00 1.3965654231752399e+01 3.4157210545492727e+00 1.4718173635749482e+01 
20 1 2 1.0280000315874014e+00 -1.4796700057317725e+04 1.0000000000000000e+00 1.3965654250192838e+01 3.4157210399105247e+00 1.4718173641206381e+01 
124 1 2 1.0279999633384878e+00 -1.5722836063490689e+04 1.0000000000000000e+00 1.3940069829075144e+01 4.2293690318603820e+00 1.5252162120449038e+01 
179 1 2 1.0280000093907040e+00 -1.9200441450841809e+04 1.0000000000000000e+00 1.6431773393719197e+01 6.4866392306280067e+00 1.4389063132101427e+01 
157 1 2 1.0280000146669994e+00 -1.7739568675138442e+04 1.0000000000000000e+00 1.6798595537850659e+01 6.5218405736781850e+00 1.4346026488067091e+01 
129 1 2 1.0279999793979884e+00 -1.4838061756369072e+04 1.0000000000000000e+00 1.6403152760467613e+01 8.1682985995150883e+00 1.5979244276586668e+01 
171 1 2 1.0279999793982655e+00 -1.7485414133794413e+04 1.0000000000000000e+00 1.6403152401628162e+01 8.1683065893597995e+00 1.5979234339308414e+01 
111 1 2 1.0279999793988293e+00 -1.5108734036851192e+04 1.0000000000000000e+00 1.6403151675392731e+01 8.1683273267015704e+00 1.5979208672995941e+01 
178 1 2 1.0279999794042407e+00 -1.5536580505847493e+04 1.0000000000000000e+00 1.6403110445455926e+01 8.1684993393016185e+00 1.5978974114733244e+01 
170 1 2 1.0280000176378430e+00 -1.6865398152873622e+04 1.0000000000000000e+00 1.6918519375443438e+01 7.5834983342825222e+00 1.4181674538696200e+01 
156 1 2 1.0280000176105142e+00 -1.6289838323272308e+04 1.0000000000000000e+00 1.6918374640015777e+01 7.5851741818786849e+00 1.4181799619041639e+01 
102 1 2 1.0280000175170696e+00 -1.7941946801773520e+04 1.0000000000000000e+00 1.6916992151979933e+01 7.5906250196362324e+00 1.4182084549087527e+01 
130 1 2 1.0280000035289387e+00 -1.0727818836251936e+04 1.0000000000000000e+00 1.7583671925114409e+01 6.7672757871955778e+00 1.6007199466894761e+01 
94 1 2 1.0280000035750927e+00 -1.0050691742537803e+04 1.0000000000000000e+00 1.7580197874069988e+01 6.7621828770484713e+00 1.6011561711394634e+01 
93 1 2 1.0280000035329180e+00 -8.7854925227637832e+03 1.0000000000000000e+00 1.7583382787401074e+01 6.7668507568279672e+00 1.6007564823171208e+01 
91 1 2 1.0280000228212489e+00 -1.2338677678197068e+04 1.0000000000000000e+00 1.4751747705891269e+01 1.5224008270649134e+00 1.9414918173675552e+01 
150 1 2 1.0280000190466096e+00 -1.2663838310713996e+04 1.0000000000000000e+00 1.4546625185585917e+01 2.4696678515819550e+00 1.8763245199300762e+01 
180 1 2 1.0279999935013027e+00 -1.9925430825906929e+04 1.0000000000000000e+00 1.4441239232026620e+01 2.7465338086015154e+00 1.8656986444103289e+01 
11 1 2 1.0279999628426228e+00 -1.3218706901893253e+04 1.0000000000000000e+00 1.6606053960908820e+01 3.1441874190179537e+00 1.7180834638014748e+01 
54 1 2 1.0279999658657335e+00 -1.5399441729148015e+04 1.0000000000000000e+00 1.6612727072424196e+01 3.1666046600698481e+00 1.7015477030823185e+01 
18 1 2 1.0279999658657157e+00 -1.4054727143938355e+04 1.0000000000000000e+00 1.6612727071289214e+01 3.1666046577291049e+00 1.7015477032660812e+01 
158 1 2 1.0279999658657299e+00 -1.1634221003412842e+04 1.0000000000000000e+00 1.6612727069005967e+01 3.1666046530308827e+00 1.7015477036319993e+01 
28 1 2 1.0279999658657177e+00 -1.3925871203050732e+04 1.0000000000000000e+00 1.6612727071242698e+01 3.1666046576342954e+00 1.7015477032732111e+01 
2 1 2 1.0279999661859849e+00 -1.1789045295711707e+04 1.0000000000000000e+00 1.6611782136004127e+01 3.1670015158615503e+00 1.7008713635796415e+01 
139 1 2 1.0279999882480686e+00 -1.8948628814865384e+04 1.0000000000000000e+00 1.4709869533837882e+01 8.4599137342174313e-01 1.9938119480551123e+01 
53 1 2 1.0279999882479831e+00 -9.4396858323888082e+03 1.0000000000000000e+00 1.4709869400431749e+01 8.4599117800155688e-01 1.9938120695562400e+01 
56 1 2 1.0279999882482580e+00 -1.0356055901233780e+04 1.0000000000000000e+00 1.4709869822753010e+01 8.4599179671198133e-01 1.9938116857600377e+01 
45 1 2 1.0279999882480673e+00 -1.3460364003075138e+04 1.0000000000000000e+00 1.4709869532235341e+01 8.4599137107505362e-01 1.9938119495263276e+01 
51 1 2 1.0279999882480662e+00 -1.4416979044983193e+04 1.0000000000000000e+00 1.4709869532238628e+01 8.4599137107980360e-01 1.9938119495225429e+01 
142 1 2 1.0280006585340473e+00 -1.6912591239627272e+04 1.0000000000000000e+00 1.5988757609752939e+01 5.4110580581478649e+00 1.6742748858350801e+01 
117 1 2 1.0280000507948681e+00 -1.5041786379824058e+04 1.0000000000000000e+00 1.4202566705591643e+01 3.4845073612805075e+00 1.8162213411578847e+01 
70 1 2 1.0280000534772735e+00 -1.7425534896075333e+04 1.0000000000000000e+00 1.4202240489190064e+01 3.4977363144538378e+00 1.8156203930916394e+01 
135 1 2 1.0280000442443200e+00 -1.8110283043323605e+04 1.0000000000000000e+00 1.4140890485988955e+01 3.8003888235455801e+00 1.7866038250067792e+01 
37 1 2 1.0280000154156537e+00 -1.9508706234243768e+04 1.0000000000000000e+00 1.4111997245367911e+01 3.9546532776425511e+00 1.7647458317393891e+01 
144 1 2 1.0279999801096702e+00 -1.9025911821350393e+04 1.0000000000000000e+00 1.4078277337490485e+01 4.0796853600059206e+00 1.7372277016618064e+01 
137 1 2 1.0280002754534456e+00 -1.6173207648331181e+04 1.0000000000000000e+00 1.5895026748516690e+01 6.2608842790330348e+00 1.9708070051077591e+01 
24 1 2 1.0280002754533490e+00 -1.3517621437707276e+04 1.0000000000000000e+00 1.5895027068625845e+01 6.2608841646475000e+00 1.9708070182601954e+01 
68 1 2 1.0280002746857675e+00 -1.2186449871592466e+04 1.0000000000000000e+00 1.5897556935257791e+01 6.2596261415178809e+00 1.9709410419224675e+01 
145 1 2 1.0280002744413725e+00 -1.3301982711797920e+04 1.0000000000000000e+00 1.5898266954360171e+01 6.2589951800188874e+00 1.9710021664014494e+01 
63 1 2 1.0280001800077390e+00 -1.2610316464423413e+04 1.0000000000000000e+00 1.5956858471392609e+01 6.0833362950293921e+00 1.9921623710065759e+01 
159 1 2 1.0279998815153659e+00 -1.2035439702987618e+04 1.0000000000000000e+00 1.4003152678083074e+01 8.3889239112118563e+00 1.9605147146060084e+01 
65 1 2 1.0279998808231825e+00 -1.0981829949397827e+04 1.0000000000000000e+00 1.3999403424880091e+01 8.3846819304756774e+00 1.9601741081421824e+01 
64 1 2 1.0279998808232325e+00 -1.0938731827509775e+04 1.0000000000000000e+00 1.3999403757513322e+01 8.3846823031385327e+00 1.9601741378321417e+01 
58 1 2 1.0279998808232977e+00 -1.0982370189704941e+04 1.0000000000000000e+00 1.3999403812319382e+01 8.3846823645378787e+00 1.9601741427238348e+01 
27 1 2 1.0279998803149888e+00 -1.5459089155523190e+04 1.0000000000000000e+00 1.3996533706649901e+01 8.3815174187871655e+00 1.9599234962834917e+01 
6 1 2 1.0280000070586874e+00 -1.3535020616492813e+04 1.0000000000000000e+00 1.5493125864646309e+01 1.0397194716776205e+01 9.4480949924572855e+00 
116 1 2 1.0280000068965998e+00 -1.2066859403605891e+04 1.0000000000000000e+00 1.5548578554798997e+01 1.0401835921238041e+01 9.5163642932032744e+00 
115 1 2 1.0280000068965935e+00 -1.7721264109518306e+04 1.0000000000000000e+00 1.5548578551524342e+01 1.0401835920755785e+01 9.5163642909685020e+00 
97 1 2 1.0280000068965929e+00 -1.9634824995429808e+04 1.0000000000000000e+00 1.5548580091695912e+01 1.0401836132644126e+01 9.5163653901953769e+00 
79 1 2 1.0280000068965363e+00 -1.0290810504683786e+04 1.0000000000000000e+00 1.5548580267268617e+01 1.0401836164755961e+01 9.5163654898545111e+00 
148 1 2 1.0279999849556771e+00 -1.7828042346475635e+04 1.0000000000000000e+00 1.7276272486123105e+01 1.0568766302210332e+01 1.3983734770839742e+01 
59 1 2 1.0280000026718874e+00 -1.5003512600814633e+04 1.0000000000000000e+00 1.7141310252505168e+01 1.0331889047257578e+01 1.4470142139853928e+01 
35 1 2 1.0279999849167143e+00 -1.4486869572242240e+04 1.0000000000000000e+00 1.7276654337563073e+01 1.0569424275168963e+01 1.3984963096426418e+01 
29 1 2 1.0279999849167067e+00 -1.6145391425676797e+04 1.0000000000000000e+00 1.7276654330059035e+01 1.0569424248294256e+01 1.3984963049407249e+01 
149 1 2 1.0279999849556785e+00 -1.8455827562088318e+04 1.0000000000000000e+00 1.7276272485413294e+01 1.0568766302202432e+01 1.3983734770524773e+01 
165 1 2 1.0279999849556756e+00 -1.3282095698653611e+04 1.0000000000000000e+00 1.7276272067819551e+01 1.0568766305021475e+01 1.3983734597204844e+01 
30 1 2 1.0279999849167067e+00 -1.3227142487680694e+04 1.0000000000000000e+00 1.7276654324366636e+01 1.0569424227901072e+01 1.3984963013728864e+01 

Velocities

47 2.7214716631729119e-01 -2.3876737359768607e-01 -9.0272552572633363e-02
67 2.7214059654775458e-01 -2.3866626700706081e-01 -9.0281998462707971e-02
8 2.7215228819502085e-01 -2.3864494497617103e-01 -9.0285311342453725e-02
169 2.7215160065711769e-01 -2.3864596306895419e-01 -9.0285141921654363e-02
106 2.7215107053946386e-01 -2.3864676334012233e-01 -9.0285009743920425e-02
23 2.7215047561757305e-01 -2.3864769313076245e-01 -9.0284865128661837e-02
43 2.7241940371463974e-01 -2.3846370613929532e-01 -9.0362237987721999e-02
39 2.7422614616393615e-01 -2.4663695889323042e-01 -9.1776484416410994e-02
34 2.7422615564328584e-01 -2.4663695827212612e-01 -9.1776478610875581e-02
4 2.7422614616426394e-01 -2.4663695889377590e-01 -9.1776484417772961e-02
40 2.7422614616431312e-01 -2.4663695889301718e-01 -9.1776484415841936e-02
66 2.7422613621185959e-01 -2.4663696157910134e-01 -9.1776506408082964e-02
123 2.7430563874851799e-01 -2.4664998776769503e-01 -9.1680769850779831e-02
126 2.7427239332574760e-01 -2.4659728512492954e-01 -9.1600751872512071e-02
163 2.7427239332577308e-01 -2.4659728512702037e-01 -9.1600751870053621e-02
168 2.7427239332575593e-01 -2.4659728512461931e-01 -9.1600751871604089e-02
162 2.7427239332549119e-01 -2.4659728512322440e-01 -9.1600751873899780e-02
3 2.7443963844565600e-01 -2.4770797654758572e-01 -9.2454974681568186e-02
77 2.7443960783372057e-01 -2.4770796716357019e-01 -9.2455006955523111e-02
90 2.7443957923972151e-01 -2.4770791957382982e-01 -9.2455013442928669e-02
96 2.7443957924101958e-01 -2.4770791957403962e-01 -9.2455013442766285e-02
108 2.7439982725719958e-01 -2.4710778790747812e-01 -9.2183489195674179e-02
92 2.7444315313417711e-01 -2.4714113972387508e-01 -9.2146391495161128e-02
175 2.7444329938015788e-01 -2.4714099185450350e-01 -9.2146346580597130e-02
151 2.7444332536050081e-01 -2.4714096127300011e-01 -9.2146333829088004e-02
167 2.7444332924570475e-01 -2.4714095714892695e-01 -9.2146332433521813e-02
121 2.7444538650684447e-01 -2.4713918514566843e-01 -9.2146118987483247e-02
114 2.7442908454094905e-01 -2.4755916525436589e-01 -9.2547165392900102e-02
83 2.7442908485941603e-01 -2.4755916391280569e-01 -9.2547165529375711e-02
160 2.7442908485574063e-01 -2.4755916392163696e-01 -9.2547165526387559e-02
174 2.7442908485941497e-01 -2.4755916391280583e-01 -9.2547165529375683e-02
55 2.7442908476120909e-01 -2.4755916424212610e-01 -9.2547165475971707e-02
120 2.7442908485941547e-01 -2.4755916391280516e-01 -9.2547165529376973e-02
84 2.7442908485942147e-01 -2.4755916391280788e-01 -9.2547165529372200e-02
50 2.7442856780787706e-01 -2.4721768390905960e-01 -9.2285871356618310e-02
10 2.7436917672137834e-01 -2.4661068915275433e-01 -9.2070390257691037e-02
31 2.7449968156105914e-01 -2.4710902909450694e-01 -9.2357678821735595e-02
25 2.7449965601283616e-01 -2.4710909076578513e-01 -9.2357712356775742e-02
32 2.7449965849208341e-01 -2.4710908507454213e-01 -9.2357709063083868e-02
146 2.7431471295230037e-01 -2.4711708379685612e-01 -9.2134519011773067e-02
147 2.7430623539708815e-01 -2.4713779924675858e-01 -9.2117128431398437e-02
69 2.7445367438999446e-01 -2.4698890208974872e-01 -9.2325240585361068e-02