LAMMPS data file via write_data, version 30 Jul 2016, timestep = 50000000

2772 atoms
8 atom types

0.0000000000000000e+00 1.0000000000000000e+02 xlo xhi
0.0000000000000000e+00 4.0000000000000000e+01 ylo yhi
0.0000000000000000e+00 4.0000000000000000e+01 zlo zhi

Masses

1 3.896
2 5.36
3 20.064
4 8.378
5 8.378
6 8.378
7 8.378
8 8.378

Atoms # meso-molecular

447 448 2 1.0843766380276505e+00 4.4794455207839654e+00 1.0000000000000000e+00 2.5379663512205193e+00 1.0000000000000000e+01 8.2504195520529089e-01 
456 457 2 1.0843766380276505e+00 3.8658011688739409e+00 1.0000000000000000e+00 5.3091935954256364e+00 1.0000000000000000e+01 1.4352750815497930e+00 
359 360 2 1.0843766380276505e+00 2.1046926890815121e-01 1.0000000000000000e+00 1.0702978110568054e+01 1.0000000000000000e+01 5.6627817374111067e-01 
43 44 2 1.0843768383932202e+00 1.5891839522319384e+00 1.0000000000000000e+00 1.3032269497905299e+01 1.0000000000000000e+01 1.2184673240553991e+00 
412 413 2 1.0843766380276505e+00 -6.9643190694095871e+00 1.0000000000000000e+00 2.5347064476856797e+01 1.0000000000000000e+01 1.0337602515450612e+00 
73 74 2 1.0843766380276505e+00 -3.3591095399695376e+00 1.0000000000000000e+00 2.7642470922106071e+01 1.0000000000000000e+01 1.1893762893228668e+00 
509 510 2 1.0843766380276505e+00 -1.1822894516816287e+01 1.0000000000000000e+00 3.7874322633806128e+00 1.3400000000000000e+01 6.8708227201287109e-01 
558 559 2 1.0843766380276505e+00 -2.7557098922956129e+00 1.0000000000000000e+00 2.3373097537311367e+01 1.3400000000000000e+01 1.2990288590755912e+00 
474 475 2 1.0843766380276505e+00 3.7006691973921120e+00 1.0000000000000000e+00 3.1713087794959872e+01 1.3400000000000000e+01 8.5937300073239087e-01 
1257 1258 2 1.0843773151882543e+00 -5.8816669526069276e+00 1.0000000000000000e+00 3.5651795089766396e+00 1.6800000000000001e+01 7.7931882011585862e-01 
989 990 2 1.0843766380276505e+00 2.8515871758168538e+00 1.0000000000000000e+00 7.3410305279438797e+00 1.6800000000000001e+01 3.4998795009664108e-01 
1022 1023 2 1.0843766380276505e+00 -5.5510610475021771e-01 1.0000000000000000e+00 1.3262084300403144e+01 1.6800000000000001e+01 1.4076173425635279e+00 
1311 1312 2 1.0843766380276505e+00 -4.5733623055146513e+00 1.0000000000000000e+00 1.7723618774315959e+01 1.6800000000000001e+01 1.0237391518126386e+00 
1287 1288 2 1.0843766381119029e+00 -6.2004065572660705e-01 1.0000000000000000e+00 2.1248662198815875e+01 1.6800000000000001e+01 5.3917055136375069e-02 
974 975 2 1.0843766380276505e+00 -3.6477624437785030e+00 1.0000000000000000e+00 2.5636145687226406e+01 1.6800000000000001e+01 5.2301555634278329e-01 
1075 1076 2 1.0843766380276505e+00 -2.0301215858198618e+00 1.0000000000000000e+00 2.8581156918264913e+01 1.6800000000000001e+01 6.4522671427975098e-01 
223 224 2 1.0843766380276505e+00 -5.0260645889408977e+00 1.0000000000000000e+00 1.6521748532856917e-01 1.0000000000000000e+01 2.4823363002883805e+00 
287 288 2 1.0843766380276505e+00 -2.4355793320841883e+00 1.0000000000000000e+00 1.4647394127735177e+01 1.0000000000000000e+01 2.7823277026132223e+00 
185 186 2 1.0843766380276505e+00 -7.8590937301702279e+00 1.0000000000000000e+00 1.8192111851410203e+01 1.0000000000000000e+01 1.9404446047689787e+00 
259 260 2 1.0843766380276505e+00 8.8812904439519151e+00 1.0000000000000000e+00 2.0430123403356106e+01 1.0000000000000000e+01 2.8751489560546313e+00 
180 181 2 1.0843766380276505e+00 4.2625335212219682e+00 1.0000000000000000e+00 2.2902322343149748e+01 1.0000000000000000e+01 2.7712575736138909e+00 
346 347 2 1.0843766380276505e+00 -8.3557893162939525e+00 1.0000000000000000e+00 2.9272439142329191e+01 1.0000000000000000e+01 2.9779912602518892e+00 
95 96 2 1.0843766380276505e+00 2.6779915378333874e-01 1.0000000000000000e+00 3.1252832897003184e+01 1.0000000000000000e+01 1.7931501292861574e+00 
859 860 2 1.0843767190785876e+00 -1.8530683432508577e+00 1.0000000000000000e+00 1.8061901338162138e+00 1.3400000000000000e+01 2.2694253663421713e+00 
802 803 2 1.0843766380276505e+00 -7.3101126304315489e+00 1.0000000000000000e+00 6.2491987418611474e+00 1.3400000000000000e+01 2.2713433186275109e+00 
717 718 2 1.0843766380276505e+00 9.1421418732591597e+00 1.0000000000000000e+00 1.0495301011411508e+01 1.3400000000000000e+01 2.1636222292505716e+00 
663 664 2 1.0843766380276505e+00 -8.6367462684361951e-01 1.0000000000000000e+00 1.4179037230015114e+01 1.3400000000000000e+01 2.9512020738279450e+00 
611 612 2 1.0843766380276505e+00 -9.3027940817595471e+00 1.0000000000000000e+00 1.8114076749684887e+01 1.3400000000000000e+01 1.6508958600510835e+00 
504 505 2 1.0843766451242129e+00 1.5255896704182700e+01 1.0000000000000000e+00 2.0962105081598207e+01 1.3400000000000000e+01 2.3503954692985056e+00 
641 642 2 1.0843766380276505e+00 -3.4747346800972156e+00 1.0000000000000000e+00 2.5578729800969974e+01 1.3400000000000000e+01 1.8895475285215579e+00 
1183 1184 2 1.0843766380276505e+00 5.9199734348901458e+00 1.0000000000000000e+00 1.0681163513766281e+00 1.6800000000000001e+01 1.6452716854429539e+00 
1084 1085 2 1.0843766380276505e+00 -6.4055543858250115e+00 1.0000000000000000e+00 5.9300760986875405e+00 1.6800000000000001e+01 2.5556458072697823e+00 
1365 1366 2 1.0843766380276505e+00 6.7152588259415946e+00 1.0000000000000000e+00 1.0780936140240454e+01 1.6800000000000001e+01 1.5841654637304416e+00 
1175 1176 2 1.0843766380276505e+00 -5.7477387258208097e+00 1.0000000000000000e+00 2.3318653436650706e+01 1.6800000000000001e+01 2.5979300673890418e+00 
1330 1331 2 1.0843766380276505e+00 -5.7486827209070377e+00 1.0000000000000000e+00 2.9126198096227206e+01 1.6800000000000001e+01 2.9150229865174833e+00 
1148 1149 2 1.0843766380276505e+00 4.7949840373714867e+00 1.0000000000000000e+00 3.2231776916736280e+01 1.6800000000000001e+01 2.1597151819374893e+00 
19 20 2 1.0843766380276505e+00 3.6510008645496228e+00 1.0000000000000000e+00 3.9182837435811151e+00 1.0000000000000000e+01 3.8373411859334730e+00 
381 382 2 1.0843766380276505e+00 -1.9815563147954491e+00 1.0000000000000000e+00 8.8156802664380418e+00 1.0000000000000000e+01 3.3104164456448668e+00 
153 154 2 1.0843766380276505e+00 -5.4067804381675355e+00 1.0000000000000000e+00 2.5181694207567336e+01 1.0000000000000000e+01 3.4212731750813159e+00 
367 368 2 1.0843766380276505e+00 -8.5093627772450411e+00 1.0000000000000000e+00 3.1526712439724545e+01 1.0000000000000000e+01 4.4037189932143077e+00 
541 542 2 1.0843767190785876e+00 -5.1162321212849795e+00 1.0000000000000000e+00 1.3403990821572240e+00 1.3400000000000000e+01 4.4006403691025966e+00 
809 810 2 1.0843766380276505e+00 7.3811619875682126e+00 1.0000000000000000e+00 3.5453606899592005e+00 1.3400000000000000e+01 3.7745292434697406e+00 
810 811 2 1.0843766380276505e+00 -6.2434239326675076e+00 1.0000000000000000e+00 8.3117177340390604e+00 1.3400000000000000e+01 4.0428251460942226e+00 
748 749 2 1.0843766380276505e+00 -1.8990533222624419e+00 1.0000000000000000e+00 1.8288584247156130e+01 1.3400000000000000e+01 4.1370604407689342e+00 
542 543 2 1.0843766451242129e+00 -5.8778549084901561e+00 1.0000000000000000e+00 2.1533907823669981e+01 1.3400000000000000e+01 4.4642748221790187e+00 
501 502 2 1.0843766380276505e+00 3.1159695726675674e+00 1.0000000000000000e+00 2.8191966281342427e+01 1.3400000000000000e+01 3.7638481880225552e+00 
772 773 2 1.0843766380276505e+00 -5.8718101476532070e+00 1.0000000000000000e+00 3.1539449860263829e+01 1.3400000000000000e+01 3.3091408310083894e+00 
1207 1208 2 1.0843766380276505e+00 1.3212891577187298e+00 1.0000000000000000e+00 8.4501919714105722e-01 1.6800000000000001e+01 4.3829564257860545e+00 
1064 1065 2 1.0843766380276505e+00 6.1023319662442024e+00 1.0000000000000000e+00 9.2296383960448658e+00 1.6800000000000001e+01 4.0158932495768216e+00 
1291 1292 2 1.0843766380276505e+00 -4.4252023618390286e+00 1.0000000000000000e+00 1.1920920282202943e+01 1.6800000000000001e+01 3.5716913090767610e+00 
995 996 2 1.0843766380276505e+00 -3.6439829367335390e+00 1.0000000000000000e+00 1.9144313792183237e+01 1.6800000000000001e+01 3.5212750232741223e+00 
1221 1222 2 1.0843766380276505e+00 -1.4333239648347096e-01 1.0000000000000000e+00 2.6691232827657629e+01 1.6800000000000001e+01 3.5100016719326330e+00 
100 101 2 1.0843766380276505e+00 3.1256739485194176e+00 1.0000000000000000e+00 9.4584437199354676e-01 1.0000000000000000e+01 4.9643780595448295e+00 
360 361 2 1.0843766380276505e+00 4.1448152867240395e+00 1.0000000000000000e+00 6.8352217113396412e+00 1.0000000000000000e+01 4.8279629038365073e+00 
263 264 2 1.0843766380276505e+00 -1.5241065671779692e+00 1.0000000000000000e+00 1.6235663746368012e+01 1.0000000000000000e+01 4.8393429002846018e+00 
71 72 2 1.0843766380276505e+00 -2.1445188760700176e+00 1.0000000000000000e+00 2.0209366434910731e+01 1.0000000000000000e+01 5.7735229263715651e+00 
206 207 2 1.0843766380276505e+00 2.8219447517882292e+00 1.0000000000000000e+00 2.3993111287191319e+01 1.0000000000000000e+01 5.3205700851493463e+00 
212 213 2 1.0843766380276505e+00 -5.7753744170886523e-01 1.0000000000000000e+00 3.2970160739886289e+01 1.0000000000000000e+01 6.0737907031979210e+00 
697 698 2 1.0843766380276505e+00 1.6020297112426354e+00 1.0000000000000000e+00 6.0217102155117077e+00 1.3400000000000000e+01 5.2143655625297356e+00 
718 719 2 1.0843766380276505e+00 -1.1873274984101670e-01 1.0000000000000000e+00 1.2738547504094095e+01 1.3400000000000000e+01 5.0182773625099903e+00 
597 598 2 1.0843766380276505e+00 -6.6497550268575392e+00 1.0000000000000000e+00 1.5116571957757014e+01 1.3400000000000000e+01 4.9454861839820241e+00 
559 560 2 1.0843766380276505e+00 -5.1196642152917393e-01 1.0000000000000000e+00 2.5249704826250834e+01 1.3400000000000000e+01 5.1988564633169378e+00 
832 833 2 1.0843766380276505e+00 -8.7323980032681980e-01 1.0000000000000000e+00 3.1570758780694145e+01 1.3400000000000000e+01 5.5211781403179927e+00 
1185 1186 2 1.0843766380276505e+00 5.7233207694863868e+00 1.0000000000000000e+00 4.9106625754904121e+00 1.6800000000000001e+01 4.7205287612820026e+00 
971 972 2 1.0843766380276505e+00 -8.2586928494897123e+00 1.0000000000000000e+00 1.3981235759492739e+01 1.6800000000000001e+01 5.9745687272928745e+00 
1117 1118 2 1.0843766380276505e+00 -7.8882181099864823e+00 1.0000000000000000e+00 1.7217882390268720e+01 1.6800000000000001e+01 5.8101685818014168e+00 
1251 1252 2 1.0843766380276505e+00 -4.3139175101453482e+00 1.0000000000000000e+00 2.0479261448589561e+01 1.6800000000000001e+01 5.8710961980050476e+00 
1301 1302 2 1.0843766380276505e+00 -5.8039500059789990e+00 1.0000000000000000e+00 2.9781111164877672e+01 1.6800000000000001e+01 5.4631129889003933e+00 
24 25 2 1.0843766380276505e+00 4.3585625419811116e+00 1.0000000000000000e+00 1.5704295768008549e+00 1.0000000000000000e+01 7.4775168906110707e+00 
233 234 2 1.0843766380276505e+00 3.9922054209245599e+00 1.0000000000000000e+00 4.1351351717245501e+00 1.0000000000000000e+01 6.8874390662400904e+00 
329 330 2 1.0843766380276505e+00 -5.4334514436828076e+00 1.0000000000000000e+00 1.2150363917702984e+01 1.0000000000000000e+01 6.4129991310997143e+00 
44 45 2 1.0843766380276505e+00 -2.8346487925462256e+00 1.0000000000000000e+00 1.5149264164465890e+01 1.0000000000000000e+01 7.0410269310528362e+00 
51 52 2 1.0843766380276505e+00 1.0139003349427811e+00 1.0000000000000000e+00 1.7563364269358260e+01 1.0000000000000000e+01 7.4680381625191243e+00 
433 434 2 1.0843766380276505e+00 2.2188413932691953e+00 1.0000000000000000e+00 2.5944244441096195e+01 1.0000000000000000e+01 6.6252428941222457e+00 
252 253 2 1.0843766380276505e+00 1.3211186059271192e+01 1.0000000000000000e+00 2.9369177470469928e+01 1.0000000000000000e+01 6.2774703692067151e+00 
502 503 2 1.0843766380276505e+00 1.4254817269734357e+00 1.0000000000000000e+00 3.6115875761576564e+00 1.3400000000000000e+01 7.5150438918242246e+00 
494 495 2 1.0843766380276505e+00 4.6423470932055615e+00 1.0000000000000000e+00 1.0588934842046932e+01 1.3400000000000000e+01 7.5941902881657617e+00 
592 593 2 1.0843766380276505e+00 -1.9338424110631873e+00 1.0000000000000000e+00 1.3068240726035379e+01 1.3400000000000000e+01 7.2648514535467648e+00 
742 743 2 1.0843766380276505e+00 -2.5210962989807371e+00 1.0000000000000000e+00 1.9400478364781915e+01 1.3400000000000000e+01 7.4218355117716515e+00 
863 864 2 1.0843766380276505e+00 -4.8808578729339780e-01 1.0000000000000000e+00 2.2069135423745042e+01 1.3400000000000000e+01 7.4131028749259480e+00 
576 577 2 1.0843766380276505e+00 -7.0724020272439354e+00 1.0000000000000000e+00 3.0112757674012752e+01 1.3400000000000000e+01 7.2031842959436982e+00 
1229 1230 2 1.0843766380276505e+00 4.1136249621645753e+00 1.0000000000000000e+00 5.6407867941559822e+00 1.6800000000000001e+01 6.9508842622082803e+00 
1310 1311 2 1.0843766380276505e+00 -4.9008809796928876e+00 1.0000000000000000e+00 8.0640954369943412e+00 1.6800000000000001e+01 6.5764558796802577e+00 
1366 1367 2 1.0843766380276505e+00 3.3025485183167529e+00 1.0000000000000000e+00 1.0720421708884343e+01 1.6800000000000001e+01 6.1627517576824857e+00 
1020 1021 2 1.0843766380276505e+00 2.6567693159281747e-01 1.0000000000000000e+00 2.3703689164839442e+01 1.6800000000000001e+01 7.5521360469710377e+00 
1240 1241 2 1.0843766380276505e+00 -6.9477741294473088e+00 1.0000000000000000e+00 2.6349350027158327e+01 1.6800000000000001e+01 6.1959521987458093e+00 
1153 1154 2 1.0843766380276505e+00 -1.8074532284466835e+00 1.0000000000000000e+00 2.9021390864879621e+01 1.6800000000000001e+01 7.5470176995251173e+00 
60 61 2 1.0843766380276505e+00 -5.6849805986313329e-01 1.0000000000000000e+00 6.5219877729114097e+00 1.0000000000000000e+01 8.2902505811519323e+00 
47 48 2 1.0843766380276505e+00 -1.0477717798147378e+01 1.0000000000000000e+00 9.4301344821226536e+00 1.0000000000000000e+01 8.4276136657587966e+00 
248 249 2 1.0843766380276505e+00 1.0331831847700851e+01 1.0000000000000000e+00 1.1678347613536504e+01 1.0000000000000000e+01 8.5853705288532645e+00 
152 153 2 1.0843766471576084e+00 -6.3432503225008805e+00 1.0000000000000000e+00 2.4090750785078662e+01 1.0000000000000000e+01 8.8552584847626754e+00 
90 91 2 1.0843766380276505e+00 -7.7692212298023087e+00 1.0000000000000000e+00 2.9487414321201282e+01 1.0000000000000000e+01 9.1352039046802904e+00 
82 83 2 1.0843766380276505e+00 -7.7220330361513767e+00 1.0000000000000000e+00 3.2988155440527812e+01 1.0000000000000000e+01 8.8411531423821845e+00 
780 781 2 1.0843766380276505e+00 -2.8397494388988989e+00 1.0000000000000000e+00 1.4996710642692532e+00 1.3400000000000000e+01 8.4069008828445266e+00 
532 533 2 1.0843766380276505e+00 -1.7205238085353067e+00 1.0000000000000000e+00 7.6709343169351731e+00 1.3400000000000000e+01 8.8774747923429409e+00 
711 712 2 1.0843766380276505e+00 3.6034908017023053e+00 1.0000000000000000e+00 1.4643723441910110e+01 1.3400000000000000e+01 8.8140128860819633e+00 
852 853 2 1.0843766380276505e+00 1.0782375795306063e+01 1.0000000000000000e+00 1.6902232062880493e+01 1.3400000000000000e+01 8.7263784701434144e+00 
678 679 2 1.0843766380276505e+00 -1.4404869960441467e+00 1.0000000000000000e+00 2.4445612556334098e+01 1.3400000000000000e+01 7.7629568455647622e+00 
657 658 2 1.0843766380276505e+00 -4.3618007538392192e+00 1.0000000000000000e+00 2.6874850771168230e+01 1.3400000000000000e+01 8.0833184980932735e+00 
622 623 2 1.0843766380276505e+00 -1.0816986857960494e+01 1.0000000000000000e+00 3.1982903511236895e+01 1.3400000000000000e+01 8.6567428975329026e+00 
1010 1011 2 1.0843766380276505e+00 -7.3678054345383668e+00 1.0000000000000000e+00 2.2722345815265990e+00 1.6800000000000001e+01 7.8444806488189212e+00 
1178 1179 2 1.0843766380276505e+00 3.4958641298074342e+00 1.0000000000000000e+00 9.6098201936764749e+00 1.6800000000000001e+01 8.2474265559324067e+00 
1137 1138 2 1.0843766383585924e+00 -1.5772090095735958e+00 1.0000000000000000e+00 1.8772869171096591e+01 1.6800000000000001e+01 8.1555608054059903e+00 
1217 1218 2 1.0843766383585924e+00 -1.0974327133529067e+00 1.0000000000000000e+00 2.0966438804110652e+01 1.6800000000000001e+01 8.0700456727562724e+00 
1243 1244 2 1.0843766380276505e+00 -1.7898818803969712e+00 1.0000000000000000e+00 2.5991338844142692e+01 1.6800000000000001e+01 8.7163615840190634e+00 
1171 1172 2 1.0843766380276505e+00 -3.2559761528073867e+00 1.0000000000000000e+00 3.1913095359252448e+01 1.6800000000000001e+01 8.5855221073492984e+00 
413 414 2 1.0843766380276505e+00 1.0629948137934644e+00 1.0000000000000000e+00 4.3293830968171870e-01 1.0000000000000000e+01 1.0564718508173209e+01 
357 358 2 1.0843766380276505e+00 2.3117523613623092e+00 1.0000000000000000e+00 2.5369250196870623e+00 1.0000000000000000e+01 9.9211945047569827e+00 
126 127 2 1.0843766380276505e+00 5.6809754934562395e+00 1.0000000000000000e+00 5.0821128492673742e+00 1.0000000000000000e+01 1.0054019123728523e+01 
356 357 2 1.0843766380276505e+00 -2.7791821510759069e+00 1.0000000000000000e+00 1.4181691831621460e+01 1.0000000000000000e+01 9.6265628899002902e+00 
451 452 2 1.0843766380276505e+00 1.6399554523818507e+00 1.0000000000000000e+00 1.9813289180668654e+01 1.0000000000000000e+01 9.8902192203581691e+00 
210 211 2 1.0843766380276505e+00 7.1298628902591474e+00 1.0000000000000000e+00 2.2697744015699332e+01 1.0000000000000000e+01 1.0637314595672320e+01 
417 418 2 1.0843766471576084e+00 -5.6526690992963626e+00 1.0000000000000000e+00 2.6210408868758183e+01 1.0000000000000000e+01 9.4029647827588203e+00 
595 596 2 1.0843766380276505e+00 -3.4755328417698728e+00 1.0000000000000000e+00 2.9261171804196726e+00 1.3400000000000000e+01 1.0419385314663581e+01 
876 877 2 1.0843766380276505e+00 -8.4739482988564241e+00 1.0000000000000000e+00 9.7924663819139539e+00 1.3400000000000000e+01 1.0319240758201422e+01 
835 836 2 1.0843766380276505e+00 -7.0234639071289529e+00 1.0000000000000000e+00 1.1854164649107148e+01 1.3400000000000000e+01 9.5327365730022358e+00 
757 758 2 1.0843766380276505e+00 4.5634513059722828e+00 1.0000000000000000e+00 2.1278934836767068e+01 1.3400000000000000e+01 1.0362759408020530e+01 
566 567 2 1.0843766380276505e+00 -4.7722147654741303e+00 1.0000000000000000e+00 2.5379856877911433e+01 1.3400000000000000e+01 1.0652416158533176e+01 
630 631 2 1.0843766380276505e+00 9.5639644830564698e+00 1.0000000000000000e+00 2.8457176177579026e+01 1.3400000000000000e+01 9.8812899665232923e+00 
1245 1246 2 1.0843766380276505e+00 -7.2683733302970630e+00 1.0000000000000000e+00 1.4794687848408133e+01 1.6800000000000001e+01 9.8718046873830740e+00 
1226 1227 2 1.0843766380276505e+00 -4.1726104215852343e-02 1.0000000000000000e+00 2.8690078080274059e+01 1.6800000000000001e+01 9.8186151950230585e+00 
315 316 2 1.0843766459995583e+00 -1.1669304068029103e+00 1.0000000000000000e+00 8.1438639851673837e+00 1.0000000000000000e+01 1.1527100696633902e+01 
139 140 2 1.0843766380276505e+00 3.0068531678795085e-01 1.0000000000000000e+00 1.1009140733068943e+01 1.0000000000000000e+01 1.0861518539546211e+01 
158 159 2 1.0843766380276505e+00 -6.5235269758395482e+00 1.0000000000000000e+00 1.4789790844604443e+01 1.0000000000000000e+01 1.1933927666099546e+01 
74 75 2 1.0843766380276505e+00 -2.4080593605543266e+00 1.0000000000000000e+00 1.7922340040806453e+01 1.0000000000000000e+01 1.1656306716985531e+01 
2 3 2 1.0843766380276505e+00 1.0356539958725282e+01 1.0000000000000000e+00 2.0625052211128292e+01 1.0000000000000000e+01 1.1975721712964605e+01 
219 220 2 1.0843766380276505e+00 2.9131532264844751e+00 1.0000000000000000e+00 2.9051535710047201e+01 1.0000000000000000e+01 1.1426549091213033e+01 
231 232 2 1.0843766380276505e+00 1.2014495348695284e+01 1.0000000000000000e+00 3.1969290300344447e+01 1.0000000000000000e+01 1.1195766566815655e+01 
516 517 2 1.0843766380276505e+00 -1.7766626581727882e+00 1.0000000000000000e+00 4.6959284036500126e-01 1.3400000000000000e+01 1.1908009085603121e+01 
707 708 2 1.0843766380276505e+00 5.5038097415390705e+00 1.0000000000000000e+00 1.1751204719121029e+01 1.3400000000000000e+01 1.1840100395408239e+01 
779 780 2 1.0843766380276505e+00 -1.2727749938763708e+01 1.0000000000000000e+00 1.5145998736194201e+01 1.3400000000000000e+01 1.1683529053232576e+01 
480 481 2 1.0843766380276505e+00 9.5000230267687904e+00 1.0000000000000000e+00 3.0807172030638753e+01 1.3400000000000000e+01 1.1410020000026734e+01 
1376 1377 2 1.0843766380276505e+00 8.8026007374947071e+00 1.0000000000000000e+00 1.2465882162306696e+00 1.6800000000000001e+01 1.1645729864476088e+01 
973 974 2 1.0843766380276505e+00 -7.7774367046262736e+00 1.0000000000000000e+00 3.5318755588408695e+00 1.6800000000000001e+01 1.1555893234198098e+01 
1110 1111 2 1.0843766380276505e+00 -7.3471880071165998e+00 1.0000000000000000e+00 6.8059360370755035e+00 1.6800000000000001e+01 1.1207493361582495e+01 
1143 1144 2 1.0843766380276505e+00 2.2377672949384575e+00 1.0000000000000000e+00 9.4659215421170337e+00 1.6800000000000001e+01 1.0930430086545261e+01 
1244 1245 2 1.0843766380276505e+00 -6.9982960771973115e+00 1.0000000000000000e+00 1.1980369929072301e+01 1.6800000000000001e+01 1.0831022763866992e+01 
1225 1226 2 1.0843766380276505e+00 2.4472175029262857e+00 1.0000000000000000e+00 1.5683350770090778e+01 1.6800000000000001e+01 1.2245060703025210e+01 
1211 1212 2 1.0843766380276505e+00 -1.9617974157284768e+00 1.0000000000000000e+00 1.8363740779865360e+01 1.6800000000000001e+01 1.1868811826220147e+01 
1196 1197 2 1.0843766380276505e+00 -5.9605906819771315e-01 1.0000000000000000e+00 2.0479989720484085e+01 1.6800000000000001e+01 1.0861532996653466e+01 
1061 1062 2 1.0843766388689589e+00 -3.3587502061962042e+00 1.0000000000000000e+00 2.3525615865670161e+01 1.6800000000000001e+01 1.2004321737005291e+01 
983 984 2 1.0843766380276505e+00 1.8054958236706597e+00 1.0000000000000000e+00 2.6712879752112503e+01 1.6800000000000001e+01 1.0953232393818434e+01 
947 948 2 1.0843766380276505e+00 2.1255517741218179e+00 1.0000000000000000e+00 3.1619579535237797e+01 1.6800000000000001e+01 1.1625590904004232e+01 
23 24 2 1.0843766459995583e+00 1.9062022640479865e+00 1.0000000000000000e+00 6.8361152025489780e+00 1.0000000000000000e+01 1.3282950545098288e+01 
343 344 2 1.0843766380276505e+00 -7.5882299771168231e+00 1.0000000000000000e+00 1.6949584026009695e+01 1.0000000000000000e+01 1.3637106756451622e+01 
388 389 2 1.0843766380276505e+00 -2.2244788178200094e+00 1.0000000000000000e+00 2.4931677234733854e+01 1.0000000000000000e+01 1.2401850248323232e+01 
31 32 2 1.0843766380276505e+00 1.7667474154310554e+01 1.0000000000000000e+00 2.9891938051423917e+01 1.0000000000000000e+01 1.3531816674709710e+01 
465 466 2 1.0843766380276505e+00 2.5251328982727088e+00 1.0000000000000000e+00 2.3196886139293622e+00 1.3400000000000000e+01 1.3335152117877699e+01 
556 557 2 1.0843766380276505e+00 -2.8740818719982570e+00 1.0000000000000000e+00 7.4572595446969698e+00 1.3400000000000000e+01 1.3559439310221364e+01 
613 614 2 1.0843766380276505e+00 -1.8955590736309231e+00 1.0000000000000000e+00 9.5498928081931229e+00 1.3400000000000000e+01 1.2717444248090338e+01 
464 465 2 1.0843766380276505e+00 7.6922076324452000e+00 1.0000000000000000e+00 1.8897171697666096e+01 1.3400000000000000e+01 1.3038424349665844e+01 
519 520 2 1.0843766380276505e+00 -2.5885746028374292e+00 1.0000000000000000e+00 2.5488932226205698e+01 1.3400000000000000e+01 1.3586905304575339e+01 
491 492 2 1.0843766380276505e+00 8.7577899454547747e+00 1.0000000000000000e+00 3.0832166396156477e+01 1.3400000000000000e+01 1.3814281098279706e+01 
990 991 2 1.0843766380276505e+00 -2.6581897686308027e+00 1.0000000000000000e+00 6.3293585058220501e+00 1.6800000000000001e+01 1.3612769393699240e+01 
1090 1091 2 1.0843766380276505e+00 -2.6527414129693483e+00 1.0000000000000000e+00 9.7574171485120598e+00 1.6800000000000001e+01 1.3149741947374315e+01 
1074 1075 2 1.0843766380276505e+00 -5.3220872025438428e+00 1.0000000000000000e+00 1.2001114249285525e+01 1.6800000000000001e+01 1.3759273136775114e+01 
940 941 2 1.0843766380276505e+00 1.1275443448804307e+01 1.0000000000000000e+00 2.1300866279010794e+01 1.6800000000000001e+01 1.3299118276474285e+01 
968 969 2 1.0843766380276505e+00 -3.8386193663879427e+00 1.0000000000000000e+00 2.6299661990587961e+01 1.6800000000000001e+01 1.3218653433138158e+01 
1080 1081 2 1.0843766380276505e+00 2.3036987276796350e-01 1.0000000000000000e+00 2.9204205875041733e+01 1.6800000000000001e+01 1.3650917588793909e+01 
201 202 2 1.0843766380276505e+00 4.1854400399229991e-01 1.0000000000000000e+00 2.4145272767301380e+00 1.0000000000000000e+01 1.4052239984103510e+01 
151 152 2 1.0843766380276505e+00 -2.9590004643990291e+00 1.0000000000000000e+00 4.6779488411104548e+00 1.0000000000000000e+01 1.4091874787856078e+01 
115 116 2 1.0843767538641023e+00 -1.1390978931789126e+00 1.0000000000000000e+00 9.2444232535836601e+00 1.0000000000000000e+01 1.4248655664728757e+01 
122 123 2 1.0843766380276505e+00 -3.8009511189295280e+00 1.0000000000000000e+00 1.1679949166222963e+01 1.0000000000000000e+01 1.4164867139575044e+01 
226 227 2 1.0843766380276505e+00 -1.3836277524229246e-01 1.0000000000000000e+00 1.9234238458782936e+01 1.0000000000000000e+01 1.4652095355725031e+01 
98 99 2 1.0843766380276505e+00 1.3820205642917776e+00 1.0000000000000000e+00 2.1465571289573205e+01 1.0000000000000000e+01 1.4432123888477474e+01 
34 35 2 1.0843766380276505e+00 4.6307030007210823e+00 1.0000000000000000e+00 2.3727065170039726e+01 1.0000000000000000e+01 1.4642221361621486e+01 
450 451 2 1.0843766381055793e+00 9.6769030171323589e+00 1.0000000000000000e+00 2.6159145089750353e+01 1.0000000000000000e+01 1.5095573581451323e+01 
198 199 2 1.0843766380276505e+00 -2.4547036390310186e+00 1.0000000000000000e+00 3.2450558847820041e+01 1.0000000000000000e+01 1.4019362755138269e+01 
789 790 2 1.0843766380276505e+00 -6.7511267226215264e+00 1.0000000000000000e+00 4.1791555011685793e+00 1.3400000000000000e+01 1.4819782317075990e+01 
656 657 2 1.0843766381126256e+00 -1.6229376718821233e+00 1.0000000000000000e+00 1.1519558272584950e+01 1.3400000000000000e+01 1.4457891442182012e+01 
583 584 2 1.0843766380276505e+00 -1.0949077168372916e+01 1.0000000000000000e+00 1.5489699714043050e+01 1.3400000000000000e+01 1.4231079810162873e+01 
469 470 2 1.0843766380276505e+00 5.3186521644703433e+00 1.0000000000000000e+00 1.8238126517414223e+01 1.3400000000000000e+01 1.5346889200974406e+01 
596 597 2 1.0843766380276505e+00 -3.1353000968156772e+00 1.0000000000000000e+00 2.1729538195609400e+01 1.3400000000000000e+01 1.4146755828517763e+01 
1331 1332 2 1.0843766380276505e+00 3.4554560620859742e-01 1.0000000000000000e+00 2.1190183553104949e+00 1.6800000000000001e+01 1.4642237394738777e+01 
1160 1161 2 1.0843766380276505e+00 -6.1851690948927462e-01 1.0000000000000000e+00 1.8211027980088812e+01 1.6800000000000001e+01 1.5017949062037156e+01 
934 935 2 1.0843766388689589e+00 1.3664084378083412e+00 1.0000000000000000e+00 2.3742808117082511e+01 1.6800000000000001e+01 1.4187293121751608e+01 
981 982 2 1.0843766380276505e+00 2.3256152404031055e-01 1.0000000000000000e+00 3.2036397700651627e+01 1.6800000000000001e+01 1.4038838402124732e+01 
371 372 2 1.0843766380276505e+00 -4.6610151401075619e+00 1.0000000000000000e+00 4.6426325333858518e+00 1.0000000000000000e+01 1.6800440501336208e+01 
395 396 2 1.0843767538641023e+00 4.5162117878729197e-01 1.0000000000000000e+00 7.7196651180829781e+00 1.0000000000000000e+01 1.5807055137905845e+01 
183 184 2 1.0843766380276505e+00 -5.5909111331674470e+00 1.0000000000000000e+00 1.6682962189826299e+01 1.0000000000000000e+01 1.5945939047251850e+01 
334 335 2 1.0843766380276505e+00 -1.8161372133038562e+00 1.0000000000000000e+00 2.8460243238392390e+01 1.0000000000000000e+01 1.6593715427492686e+01 
792 793 2 1.0843766380276505e+00 -2.4160020241943672e+00 1.0000000000000000e+00 3.1541550242485150e+00 1.3400000000000000e+01 1.6817756765446145e+01 
698 699 2 1.0843766380276505e+00 -4.3140346621787344e+00 1.0000000000000000e+00 6.5749664202673195e+00 1.3400000000000000e+01 1.6141280640156765e+01 
908 909 2 1.0843766380276505e+00 1.5415715944102523e+01 1.0000000000000000e+00 9.6718696559263311e+00 1.3400000000000000e+01 1.5907940843882468e+01 
856 857 2 1.0843766381126256e+00 4.7987636911561959e-01 1.0000000000000000e+00 1.3303024722225787e+01 1.3400000000000000e+01 1.5737109099256863e+01 
743 744 2 1.0843772953605308e+00 -8.2798041001655687e+00 1.0000000000000000e+00 2.0301164425190173e+01 1.3400000000000000e+01 1.6705398929760953e+01 
807 808 2 1.0843766380276505e+00 -4.8851714330195897e+00 1.0000000000000000e+00 2.3655823058514631e+01 1.3400000000000000e+01 1.6037494205016952e+01 
524 525 2 1.0843766380276505e+00 -3.9247131152937422e+00 1.0000000000000000e+00 2.8151330436430264e+01 1.3400000000000000e+01 1.6018107561155855e+01 
1130 1131 2 1.0843766380276505e+00 1.5631771133742549e+00 1.0000000000000000e+00 4.5324487817353853e+00 1.6800000000000001e+01 1.5428781902411574e+01 
1385 1386 2 1.0843767073661588e+00 1.5304107766659408e+01 1.0000000000000000e+00 1.1002026456312464e+01 1.6800000000000001e+01 1.6066884725638587e+01 
1237 1238 2 1.0843766380276505e+00 -6.7049114179957776e+00 1.0000000000000000e+00 1.5096237637861524e+01 1.6800000000000001e+01 1.5972517196995451e+01 
1206 1207 2 1.0843766380276505e+00 1.4870527280111818e+00 1.0000000000000000e+00 2.2272879157006553e+01 1.6800000000000001e+01 1.6311587180578766e+01 
996 997 2 1.0843766380276505e+00 -6.1134545111696159e+00 1.0000000000000000e+00 2.5955699639797427e+01 1.6800000000000001e+01 1.5672137073295412e+01 
1320 1321 2 1.0843769001112535e+00 -1.1848470125122836e+00 1.0000000000000000e+00 3.0204689146159346e+01 1.6800000000000001e+01 1.5632229462592505e+01 
1005 1006 2 1.0843769001112535e+00 -5.2899864829120764e+00 1.0000000000000000e+00 3.2247697427042745e+01 1.6800000000000001e+01 1.6379494307124812e+01 
78 79 2 1.0843766380276505e+00 -8.4000497567651564e+00 1.0000000000000000e+00 2.6447959915006600e+00 1.0000000000000000e+01 1.8096845385526048e+01 
462 463 2 1.0843766380276505e+00 1.5646003874531765e+01 1.0000000000000000e+00 1.2038051777170365e+01 1.0000000000000000e+01 1.6951728367767377e+01 