LAMMPS data file via write_data, version 30 Jul 2016, timestep = 50000000

180 atoms
2 atom types

0.0000000000000000e+00 2.0000000000000000e+01 xlo xhi
0.0000000000000000e+00 2.0000000000000000e+01 ylo yhi
0.0000000000000000e+00 2.0000000000000000e+01 zlo zhi

Masses

1 3.896
2 5

Atoms # meso-molecular

45 1 2 1.5146627503420274e+00 -8.6794992428246496e+02 1.0000000000000000e+00 5.7472626593205076e+00 5.5896359080529647e+00 4.5730442136841125e+00 
50 1 2 1.5146627503420274e+00 -1.0709051214870551e+03 1.0000000000000000e+00 5.7472626593205076e+00 5.5896359080529647e+00 4.5730442136841125e+00 
44 1 2 1.5146627503420274e+00 -1.0465778695040435e+03 1.0000000000000000e+00 5.7472626593205236e+00 5.5896359080529647e+00 4.5730442136841125e+00 
15 1 2 1.5146627503420274e+00 -9.6314324901852979e+02 1.0000000000000000e+00 5.7472626593205236e+00 5.5896359080529647e+00 4.5730442136841125e+00 
7 1 2 1.5146627503420274e+00 -1.0234655038239800e+03 1.0000000000000000e+00 5.7472626593205236e+00 5.5896359080529647e+00 4.5730442136841125e+00 
13 1 2 1.5146627503420274e+00 -1.1323921676772338e+03 1.0000000000000000e+00 5.7472626593205236e+00 5.5896359080529647e+00 4.5730442136841125e+00 
8 1 2 1.5146627503420274e+00 -1.3960990760740815e+03 1.0000000000000000e+00 5.7472626593205236e+00 5.5896359080529647e+00 4.5730442136841125e+00 
9 1 2 1.5146627503420274e+00 -1.2550317221134064e+03 1.0000000000000000e+00 5.7472626593205076e+00 5.5896359080529647e+00 4.5730442136841125e+00 
14 1 2 1.5146627503420274e+00 -1.3648390866208983e+03 1.0000000000000000e+00 5.7472626593205236e+00 5.5896359080529647e+00 4.5730442136841125e+00 
52 1 2 5.0488758344734253e-01 -9.9842534647634466e+02 1.0000000000000000e+00 5.7608326404598875e+00 8.6801504020633029e+00 1.0095773215880147e+01 
22 1 2 5.0488758344734253e-01 -1.1244693293111400e+03 1.0000000000000000e+00 5.7608326404598733e+00 8.6801504020633189e+00 1.0095773215880133e+01 
16 1 2 5.0488758344734253e-01 -1.2526137018513036e+03 1.0000000000000000e+00 5.7608326404598875e+00 8.6801504020633438e+00 1.0095773215880106e+01 
164 1 2 4.9897956312941369e+00 -1.4681516160249771e+03 1.0000000000000000e+00 1.3800421021894476e+00 5.5738566883382115e+00 1.6489443386000040e+01 
31 1 2 4.9897956312941298e+00 -1.6346903703125777e+03 1.0000000000000000e+00 1.3800421021894580e+00 5.5738566883382132e+00 1.6489443386000026e+01 
73 1 2 4.9897956312941369e+00 -1.3538336548574248e+03 1.0000000000000000e+00 1.3800421021894491e+00 5.5738566883382097e+00 1.6489443386000030e+01 
33 1 2 4.9897956312941201e+00 -1.1736015455254174e+03 1.0000000000000000e+00 1.3800421021894733e+00 5.5738566883382150e+00 1.6489443386000012e+01 
114 1 2 4.9897956312941290e+00 -1.0837805936156542e+03 1.0000000000000000e+00 1.3800421021894584e+00 5.5738566883382150e+00 1.6489443386000030e+01 
149 1 2 4.9897956312941290e+00 -1.6113201220260885e+03 1.0000000000000000e+00 1.3800421021894584e+00 5.5738566883382141e+00 1.6489443386000030e+01 
41 1 2 4.9897956312941227e+00 -5.0246798066593743e+02 1.0000000000000000e+00 1.3800421021894727e+00 5.5738566883382079e+00 1.6489443386000012e+01 
5 1 2 4.9897956312941290e+00 -1.1899389196478746e+03 1.0000000000000000e+00 1.3800421021894589e+00 5.5738566883382141e+00 1.6489443386000030e+01 
34 1 2 4.9897956312941254e+00 -1.3633167179290708e+03 1.0000000000000000e+00 1.3800421021894660e+00 5.5738566883382097e+00 1.6489443386000026e+01 
78 1 2 4.9897956312941503e+00 -1.3166680853692324e+03 1.0000000000000000e+00 1.3800421021894347e+00 5.5738566883382008e+00 1.6489443386000030e+01 
93 1 2 4.9897956312941414e+00 -1.1733866395779460e+03 1.0000000000000000e+00 1.3800421021894385e+00 5.5738566883382239e+00 1.6489443386000026e+01 
38 1 2 4.9897956312941272e+00 -1.3409726802047521e+03 1.0000000000000000e+00 1.3800421021894584e+00 5.5738566883382150e+00 1.6489443386000044e+01 
69 1 2 4.9897956312941272e+00 -1.2490341923090941e+03 1.0000000000000000e+00 1.3800421021894653e+00 5.5738566883382097e+00 1.6489443386000019e+01 
150 1 2 4.9897956312941272e+00 -1.8429342340682954e+03 1.0000000000000000e+00 1.3800421021894660e+00 5.5738566883382052e+00 1.6489443386000023e+01 
170 1 2 4.9897956312941414e+00 -1.4701491155897220e+03 1.0000000000000000e+00 1.3800421021894360e+00 5.5738566883382248e+00 1.6489443386000037e+01 
120 1 2 4.9897956312941343e+00 -1.0656817314873838e+03 1.0000000000000000e+00 1.3800421021894507e+00 5.5738566883382150e+00 1.6489443386000033e+01 
156 1 2 4.9897956312941441e+00 -1.7861957054061481e+03 1.0000000000000000e+00 1.3800421021894378e+00 5.5738566883382186e+00 1.6489443386000016e+01 
56 1 2 4.9897956312941432e+00 -9.4868605807587187e+02 1.0000000000000000e+00 1.3800421021894367e+00 5.5738566883382186e+00 1.6489443386000033e+01 
1 1 2 4.9897956312941290e+00 -9.9734424923315862e+02 1.0000000000000000e+00 1.3800421021894653e+00 5.5738566883381990e+00 1.6489443386000023e+01 
129 1 2 4.9897956312941103e+00 -1.0567005583829769e+03 1.0000000000000000e+00 1.3800421021894880e+00 5.5738566883382124e+00 1.6489443386000016e+01 
42 1 2 4.9897956312941645e+00 -1.2092195790234509e+03 1.0000000000000000e+00 1.3800421021894174e+00 5.5738566883381981e+00 1.6489443386000019e+01 
168 1 2 4.9897956312941458e+00 -1.2290406157588886e+03 1.0000000000000000e+00 1.3800421021894367e+00 5.5738566883382141e+00 1.6489443386000019e+01 
4 1 2 4.9897956312941094e+00 -9.9930707961373230e+02 1.0000000000000000e+00 1.3800421021894900e+00 5.5738566883382088e+00 1.6489443386000019e+01 
151 1 2 4.9897956312941139e+00 -1.3011320570437588e+03 1.0000000000000000e+00 1.3800421021894822e+00 5.5738566883382124e+00 1.6489443386000023e+01 
62 1 2 4.9897956312941352e+00 -1.2737938927008522e+03 1.0000000000000000e+00 1.3800421021894500e+00 5.5738566883382132e+00 1.6489443386000033e+01 
99 1 2 4.9897956312941290e+00 -1.3982143611553979e+03 1.0000000000000000e+00 1.3800421021894589e+00 5.5738566883382141e+00 1.6489443386000026e+01 
126 1 2 4.9897956312941290e+00 -1.1418618205471544e+03 1.0000000000000000e+00 1.3800421021894593e+00 5.5738566883382132e+00 1.6489443386000030e+01 
37 1 2 4.9897956312941449e+00 -1.6326907689115628e+03 1.0000000000000000e+00 1.3800421021894413e+00 5.5738566883382070e+00 1.6489443386000019e+01 
53 1 2 8.4147930574557095e-01 -8.0248372198850484e+02 1.0000000000000000e+00 5.4222600452983736e+00 8.1953190078269120e+00 1.4745131149909527e+01 
23 1 2 8.4147930574557095e-01 -1.2966148938612969e+03 1.0000000000000000e+00 5.4222600452983709e+00 8.1953190078268872e+00 1.4745131149909518e+01 
17 1 2 8.4147930574557095e-01 -1.2494070762096633e+03 1.0000000000000000e+00 5.4222600452983700e+00 8.1953190078268641e+00 1.4745131149909499e+01 
18 1 2 8.4147930574557095e-01 -1.4612341276050038e+03 1.0000000000000000e+00 5.4222600452983629e+00 8.1953190078268872e+00 1.4745131149909499e+01 
24 1 2 8.4147930574557095e-01 -1.5228839227340491e+03 1.0000000000000000e+00 5.4222600452983674e+00 8.1953190078268854e+00 1.4745131149909518e+01 
19 1 2 3.3659172229822837e-01 -8.4675824013933186e+02 1.0000000000000000e+00 6.2746544524097025e+00 1.0060049644292993e+01 1.2425501734161803e+00 
55 1 2 3.3659172229822837e-01 -9.2019168859697720e+02 1.0000000000000000e+00 6.2746544524096990e+00 1.0060049644292965e+01 1.2425501734161783e+00 
29 1 2 3.3659172229822837e-01 -6.7627501369732124e+02 1.0000000000000000e+00 4.0727657855200965e+00 1.3171105279461095e+01 1.2452305438325546e+01 
28 1 2 3.3659172229822837e-01 -7.3546048367711262e+02 1.0000000000000000e+00 4.0727657855200938e+00 1.3171105279461104e+01 1.2452305438325538e+01 
74 1 2 3.3659172229822837e-01 -5.3617046456384230e+02 1.0000000000000000e+00 1.1790544232640388e+01 1.2042246036043538e+00 5.5660486937988285e+00 
75 1 2 3.3659172229822837e-01 -5.3902066745442744e+02 1.0000000000000000e+00 1.1790544232640386e+01 1.2042246036043540e+00 5.5660486937988276e+00 
82 1 2 3.3659172229822837e-01 -6.6647148417463791e+02 1.0000000000000000e+00 1.0482378622499477e+01 4.9915800877193917e+00 9.2705677067295529e+00 
81 1 2 3.3659172229822837e-01 -6.5834706710738021e+02 1.0000000000000000e+00 1.0482378622499482e+01 4.9915800877194059e+00 9.2705677067295458e+00 
88 1 2 1.0097751668946851e+00 -1.0509927032958192e+03 1.0000000000000000e+00 1.2214665511976389e+01 8.6240009091616265e+00 1.1136145446249580e+01 
89 1 2 1.0097751668946851e+00 -1.3719599126486485e+03 1.0000000000000000e+00 1.2214665511976389e+01 8.6240009091616088e+00 1.1136145446249580e+01 
94 1 2 1.0097751668946851e+00 -1.1152776154191795e+03 1.0000000000000000e+00 1.2214665511976389e+01 8.6240009091616088e+00 1.1136145446249580e+01 
131 1 2 1.0097751668946851e+00 -1.3424285888529084e+03 1.0000000000000000e+00 1.2214665511976389e+01 8.6240009091616265e+00 1.1136145446249580e+01 
125 1 2 1.0097751668946851e+00 -1.3678249170539677e+03 1.0000000000000000e+00 1.2214665511976389e+01 8.6240009091616088e+00 1.1136145446249580e+01 
87 1 2 1.0097751668946851e+00 -9.9423022492721543e+02 1.0000000000000000e+00 1.2214665511976389e+01 8.6240009091616088e+00 1.1136145446249580e+01 
85 1 2 6.7318344459645674e-01 -1.3460802347481713e+03 1.0000000000000000e+00 9.1802074203081681e+00 7.1442530488540621e+00 1.9160376819326228e+01 
54 1 2 6.7318344459645674e-01 -1.1651801532306044e+03 1.0000000000000000e+00 9.1802074203081698e+00 7.1442530488540656e+00 1.9160376819326167e+01 
49 1 2 6.7318344459645674e-01 -1.2490321321973652e+03 1.0000000000000000e+00 9.1802074203081574e+00 7.1442530488540905e+00 1.9160376819326203e+01 
90 1 2 6.7318344459645674e-01 -1.2705602341205670e+03 1.0000000000000000e+00 9.1802074203081521e+00 7.1442530488540834e+00 1.9160376819326249e+01 
139 1 2 3.3659172229822837e-01 -5.4055842843212008e+02 1.0000000000000000e+00 1.2967265353271175e+01 1.7532848703229199e+01 5.0910279977974660e-01 
103 1 2 3.3659172229822837e-01 -5.2122082521161565e+02 1.0000000000000000e+00 1.2967265353271181e+01 1.7532848703229270e+01 5.0910279977974671e-01 
76 1 2 5.0488758344734253e-01 -9.1065226371111100e+02 1.0000000000000000e+00 1.2472192693242773e+01 1.9548194194447429e+01 1.0443656524256237e+01 
106 1 2 5.0488758344734253e-01 -8.7512526576796938e+02 1.0000000000000000e+00 1.2472192693242766e+01 1.9548194194447362e+01 1.0443656524256284e+01 
112 1 2 5.0488758344734253e-01 -8.2942103163823549e+02 1.0000000000000000e+00 1.2472192693242766e+01 1.9548194194447429e+01 1.0443656524256282e+01 
59 1 2 6.7318344459645674e-01 -7.7270411849330776e+02 1.0000000000000000e+00 9.1348109489055780e+00 1.2651440075182778e+01 1.6451453995505709e+01 
60 1 2 6.7318344459645674e-01 -7.0487265507149800e+02 1.0000000000000000e+00 9.1348109489055371e+00 1.2651440075182769e+01 1.6451453995505705e+01 
66 1 2 6.7318344459645674e-01 -1.3710800330391803e+03 1.0000000000000000e+00 9.1348109489055567e+00 1.2651440075182778e+01 1.6451453995505709e+01 
102 1 2 6.7318344459645674e-01 -1.3265060865233006e+03 1.0000000000000000e+00 9.1348109489055869e+00 1.2651440075182775e+01 1.6451453995505709e+01 
107 1 2 8.4147930574557095e-01 -9.8319294505197774e+02 1.0000000000000000e+00 8.5433318780021121e+00 1.7000493952708513e+01 1.4630784550338360e+01 
72 1 2 8.4147930574557095e-01 -1.1375961165858143e+03 1.0000000000000000e+00 8.5433318780021121e+00 1.7000493952708510e+01 1.4630784550338340e+01 
71 1 2 8.4147930574557095e-01 -1.5094169323290582e+03 1.0000000000000000e+00 8.5433318780020802e+00 1.7000493952708560e+01 1.4630784550338360e+01 
35 1 2 8.4147930574557095e-01 -1.6068231034311118e+03 1.0000000000000000e+00 8.5433318780020961e+00 1.7000493952708499e+01 1.4630784550338380e+01 
65 1 2 8.4147930574557095e-01 -1.6395680688945156e+03 1.0000000000000000e+00 8.5433318780021121e+00 1.7000493952708513e+01 1.4630784550338356e+01 
86 1 2 1.0097751668946851e+00 -1.7100061296387621e+03 1.0000000000000000e+00 1.3482038870207274e+01 5.8267648256664870e+00 3.9458295085631261e+00 
122 1 2 1.0097751668946851e+00 -1.4412541542637118e+03 1.0000000000000000e+00 1.3482038870207274e+01 5.8267648256664870e+00 3.9458295085631261e+00 
123 1 2 1.0097751668946851e+00 -1.0226608313483514e+03 1.0000000000000000e+00 1.3482038870207274e+01 5.8267648256664826e+00 3.9458295085631234e+00 
115 1 2 1.0097751668946851e+00 -1.2701035752785999e+03 1.0000000000000000e+00 1.3482038870207274e+01 5.8267648256664843e+00 3.9458295085631261e+00 
116 1 2 1.0097751668946851e+00 -1.4493570512431552e+03 1.0000000000000000e+00 1.3482038870207274e+01 5.8267648256664843e+00 3.9458295085631261e+00 
80 1 2 1.0097751668946851e+00 -1.1810799003833845e+03 1.0000000000000000e+00 1.3482038870207294e+01 5.8267648256664870e+00 3.9458295085631261e+00 
117 1 2 8.4147930574557095e-01 -1.3650307480918718e+03 1.0000000000000000e+00 1.7285297693375483e+01 5.4202351745892425e+00 6.1883369502456276e+00 
153 1 2 8.4147930574557095e-01 -1.4671444490406209e+03 1.0000000000000000e+00 1.7285297693375565e+01 5.4202351745892425e+00 6.1883369502456187e+00 
158 1 2 8.4147930574557095e-01 -1.3787532588934737e+03 1.0000000000000000e+00 1.7285297693375576e+01 5.4202351745892283e+00 6.1883369502456320e+00 
152 1 2 8.4147930574557095e-01 -1.2772453533142486e+03 1.0000000000000000e+00 1.7285297693375494e+01 5.4202351745892283e+00 6.1883369502456276e+00 
159 1 2 8.4147930574557095e-01 -1.3989922583796110e+03 1.0000000000000000e+00 1.7285297693375576e+01 5.4202351745892354e+00 6.1883369502456302e+00 
111 1 2 5.0488758344734253e-01 -1.0350837226905107e+03 1.0000000000000000e+00 1.6875714679448055e+01 1.2077840055591167e+00 8.4827645796727360e+00 
147 1 2 5.0488758344734253e-01 -1.1342668596088295e+03 1.0000000000000000e+00 1.6875714679448059e+01 1.2077840055591167e+00 8.4827645796727627e+00 
148 1 2 5.0488758344734253e-01 -9.8705513256127210e+02 1.0000000000000000e+00 1.6875714679447999e+01 1.2077840055591174e+00 8.4827645796727325e+00 
51 1 2 4.9785524854639744e+00 -1.3306526312241742e+03 1.0000000000000000e+00 1.6068366202921883e+01 3.4279641511235117e+00 1.5724033481210219e+01 
91 1 2 4.9785524854639780e+00 -1.7199376163385048e+03 1.0000000000000000e+00 1.6068366202921887e+01 3.4279641511235166e+00 1.5724033481210226e+01 
113 1 2 4.9785524854639798e+00 -1.4988576204664382e+03 1.0000000000000000e+00 1.6068366202921894e+01 3.4279641511235144e+00 1.5724033481210228e+01 
63 1 2 4.9785524854639798e+00 -1.4499198967592936e+03 1.0000000000000000e+00 1.6068366202921897e+01 3.4279641511235108e+00 1.5724033481210224e+01 
104 1 2 4.9785524854639878e+00 -1.1558406417904089e+03 1.0000000000000000e+00 1.6068366202921915e+01 3.4279641511235188e+00 1.5724033481210217e+01 
61 1 2 4.9785524854639815e+00 -1.2477969018792789e+03 1.0000000000000000e+00 1.6068366202921908e+01 3.4279641511235175e+00 1.5724033481210208e+01 
92 1 2 4.9785524854639798e+00 -1.6128160450930488e+03 1.0000000000000000e+00 1.6068366202921897e+01 3.4279641511235117e+00 1.5724033481210229e+01 
133 1 2 4.9785524854639878e+00 -1.5438048262896014e+03 1.0000000000000000e+00 1.6068366202921915e+01 3.4279641511235175e+00 1.5724033481210224e+01 
119 1 2 4.9785524854639798e+00 -1.5492935756153483e+03 1.0000000000000000e+00 1.6068366202921904e+01 3.4279641511235037e+00 1.5724033481210208e+01 
77 1 2 4.9785524854639744e+00 -1.4601054069774907e+03 1.0000000000000000e+00 1.6068366202921883e+01 3.4279641511235139e+00 1.5724033481210222e+01 
98 1 2 4.9785524854639869e+00 -1.8808160065338459e+03 1.0000000000000000e+00 1.6068366202921919e+01 3.4279641511235117e+00 1.5724033481210203e+01 
27 1 2 4.9785524854639780e+00 -1.3133194719088158e+03 1.0000000000000000e+00 1.6068366202921890e+01 3.4279641511235108e+00 1.5724033481210231e+01 
154 1 2 4.9785524854639798e+00 -1.6014914063325477e+03 1.0000000000000000e+00 1.6068366202921904e+01 3.4279641511235055e+00 1.5724033481210210e+01 
118 1 2 4.9785524854639842e+00 -1.5869998676017894e+03 1.0000000000000000e+00 1.6068366202921919e+01 3.4279641511235037e+00 1.5724033481210196e+01 
134 1 2 4.9785524854639807e+00 -1.3988457550440780e+03 1.0000000000000000e+00 1.6068366202921908e+01 3.4279641511235108e+00 1.5724033481210208e+01 
127 1 2 4.9785524854639798e+00 -1.2182468531259744e+03 1.0000000000000000e+00 1.6068366202921897e+01 3.4279641511235130e+00 1.5724033481210226e+01 
83 1 2 4.9785524854639798e+00 -1.3147028025277152e+03 1.0000000000000000e+00 1.6068366202921894e+01 3.4279641511235130e+00 1.5724033481210224e+01 
128 1 2 4.9785524854639798e+00 -1.0396392880957690e+03 1.0000000000000000e+00 1.6068366202921897e+01 3.4279641511235091e+00 1.5724033481210204e+01 
10 1 2 4.9785524854639807e+00 -1.2819686233641598e+03 1.0000000000000000e+00 1.6068366202921904e+01 3.4279641511235108e+00 1.5724033481210206e+01 
100 1 2 4.9785524854639798e+00 -1.6749828441606041e+03 1.0000000000000000e+00 1.6068366202921901e+01 3.4279641511235104e+00 1.5724033481210208e+01 
32 1 2 4.9785524854639842e+00 -1.3479731945078859e+03 1.0000000000000000e+00 1.6068366202921911e+01 3.4279641511235148e+00 1.5724033481210219e+01 
79 1 2 4.9785524854639798e+00 -1.2517110459279040e+03 1.0000000000000000e+00 1.6068366202921901e+01 3.4279641511235170e+00 1.5724033481210222e+01 
84 1 2 4.9785524854639780e+00 -1.1728701595190066e+03 1.0000000000000000e+00 1.6068366202921890e+01 3.4279641511235126e+00 1.5724033481210226e+01 
30 1 2 4.9785524854639815e+00 -1.0057753802794361e+03 1.0000000000000000e+00 1.6068366202921908e+01 3.4279641511235108e+00 1.5724033481210215e+01 
25 1 2 4.9785524854639798e+00 -1.3383551347267983e+03 1.0000000000000000e+00 1.6068366202921897e+01 3.4279641511235122e+00 1.5724033481210215e+01 
67 1 2 4.9785524854639815e+00 -1.7085559715666573e+03 1.0000000000000000e+00 1.6068366202921908e+01 3.4279641511235162e+00 1.5724033481210206e+01 
155 1 2 4.9785524854639815e+00 -1.7010656137460430e+03 1.0000000000000000e+00 1.6068366202921908e+01 3.4279641511235113e+00 1.5724033481210213e+01 
97 1 2 4.9785524854639798e+00 -1.8088319565736704e+03 1.0000000000000000e+00 1.6068366202921894e+01 3.4279641511235144e+00 1.5724033481210226e+01 
26 1 2 4.9743683311700249e+00 -1.1511262368629496e+03 1.0000000000000000e+00 1.8787944691032010e+01 4.5235389207769021e+00 1.6104024108823769e+01 
36 1 2 4.9743683311700293e+00 -1.0972275096240137e+03 1.0000000000000000e+00 1.8787944691032017e+01 4.5235389207769199e+00 1.6104024108823765e+01 
58 1 2 4.9743683311700249e+00 -1.3758764565890272e+03 1.0000000000000000e+00 1.8787944691032020e+01 4.5235389207769012e+00 1.6104024108823761e+01 
3 1 2 4.9743683311700275e+00 -1.1374906900397164e+03 1.0000000000000000e+00 1.8787944691032003e+01 4.5235389207769030e+00 1.6104024108823765e+01 
105 1 2 4.9743683311700275e+00 -1.3104016459982490e+03 1.0000000000000000e+00 1.8787944691031999e+01 4.5235389207769128e+00 1.6104024108823758e+01 
64 1 2 4.9743683311700257e+00 -1.4913085257738644e+03 1.0000000000000000e+00 1.8787944691032010e+01 4.5235389207769110e+00 1.6104024108823754e+01 
43 1 2 4.9743683311700249e+00 -1.3559257970846606e+03 1.0000000000000000e+00 1.8787944691032006e+01 4.5235389207769066e+00 1.6104024108823761e+01 
68 1 2 4.9743683311700266e+00 -1.2170795915491753e+03 1.0000000000000000e+00 1.8787944691032017e+01 4.5235389207769092e+00 1.6104024108823758e+01 
6 1 2 4.9743683311700266e+00 -1.2066659337802553e+03 1.0000000000000000e+00 1.8787944691032006e+01 4.5235389207769048e+00 1.6104024108823758e+01 
20 1 2 4.9743683311700266e+00 -1.0339474854427685e+03 1.0000000000000000e+00 1.8787944691032003e+01 4.5235389207768995e+00 1.6104024108823758e+01 
70 1 2 4.9743683311700257e+00 -9.8856352101330879e+02 1.0000000000000000e+00 1.8787944691031999e+01 4.5235389207768977e+00 1.6104024108823758e+01 
40 1 2 4.9743683311700257e+00 -1.1030866046412216e+03 1.0000000000000000e+00 1.8787944691032006e+01 4.5235389207769146e+00 1.6104024108823758e+01 
169 1 2 4.9743683311700266e+00 -1.3050944118914704e+03 1.0000000000000000e+00 1.8787944691032010e+01 4.5235389207769021e+00 1.6104024108823779e+01 
121 1 2 4.9743683311700257e+00 -9.6477814899728162e+02 1.0000000000000000e+00 1.8787944691032010e+01 4.5235389207769021e+00 1.6104024108823765e+01 
161 1 2 4.9743683311700249e+00 -1.1539745904433312e+03 1.0000000000000000e+00 1.8787944691032010e+01 4.5235389207769030e+00 1.6104024108823769e+01 
47 1 2 4.9743683311700240e+00 -3.5725684815554797e+02 1.0000000000000000e+00 1.8787944691031999e+01 4.5235389207769012e+00 1.6104024108823761e+01 
21 1 2 4.9743683311700249e+00 -1.0650478775721199e+03 1.0000000000000000e+00 1.8787944691032010e+01 4.5235389207769048e+00 1.6104024108823765e+01 
57 1 2 4.9743683311700249e+00 -9.5175737367948670e+02 1.0000000000000000e+00 1.8787944691032006e+01 4.5235389207769083e+00 1.6104024108823761e+01 
162 1 2 4.9743683311700266e+00 -1.6708937208245075e+03 1.0000000000000000e+00 1.8787944691032013e+01 4.5235389207769039e+00 1.6104024108823758e+01 
163 1 2 4.9743683311700266e+00 -1.2394692908647007e+03 1.0000000000000000e+00 1.8787944691032017e+01 4.5235389207769039e+00 1.6104024108823751e+01 
46 1 2 4.9743683311700257e+00 -9.5994834635087102e+02 1.0000000000000000e+00 1.8787944691032010e+01 4.5235389207769074e+00 1.6104024108823751e+01 
157 1 2 4.9743683311700275e+00 -1.1852408112934286e+03 1.0000000000000000e+00 1.8787944691032006e+01 4.5235389207769003e+00 1.6104024108823761e+01 
48 1 2 4.9743683311700249e+00 -9.8081070881305766e+02 1.0000000000000000e+00 1.8787944691032006e+01 4.5235389207769083e+00 1.6104024108823776e+01 
11 1 2 4.9743683311700257e+00 -1.3848108869597595e+03 1.0000000000000000e+00 1.8787944691032010e+01 4.5235389207769021e+00 1.6104024108823751e+01 
2 1 2 4.9743683311700257e+00 -1.4327806093782769e+03 1.0000000000000000e+00 1.8787944691032017e+01 4.5235389207769057e+00 1.6104024108823765e+01 
12 1 2 4.9743683311700266e+00 -1.2816591944198817e+03 1.0000000000000000e+00 1.8787944691032013e+01 4.5235389207769012e+00 1.6104024108823765e+01 
39 1 2 5.0362838845788636e+00 -1.2412156125630465e+03 1.0000000000000000e+00 1.7611068615393009e+01 3.9621590251564265e+00 1.5607016549904550e+01 
175 1 2 1.3463668891929133e+00 -1.3118085687047603e+03 1.0000000000000000e+00 1.6624183578348308e+01 1.8903214862123740e+01 3.3730634602469127e+00 
145 1 2 1.3463668891929133e+00 -1.5156642872959069e+03 1.0000000000000000e+00 1.6624183578348308e+01 1.8903214862123743e+01 3.3730634602469123e+00 
109 1 2 1.3463668891929133e+00 -1.6242481978027151e+03 1.0000000000000000e+00 1.6624183578348308e+01 1.8903214862123743e+01 3.3730634602469127e+00 
146 1 2 1.3463668891929133e+00 -1.5893128291291569e+03 1.0000000000000000e+00 1.6624183578348308e+01 1.8903214862123743e+01 3.3730634602469123e+00 
140 1 2 1.3463668891929133e+00 -1.1949561561373494e+03 1.0000000000000000e+00 1.6624183578348308e+01 1.8903214862123740e+01 3.3730634602469127e+00 
141 1 2 1.3463668891929133e+00 -1.0559317329643566e+03 1.0000000000000000e+00 1.6624183578348308e+01 1.8903214862123740e+01 3.3730634602469127e+00 
110 1 2 1.3463668891929133e+00 -1.3423557807889072e+03 1.0000000000000000e+00 1.6624183578348308e+01 1.8903214862123743e+01 3.3730634602469127e+00 
176 1 2 1.3463668891929133e+00 -1.4466463594744569e+03 1.0000000000000000e+00 1.6624183578348308e+01 1.8903214862123743e+01 3.3730634602469127e+00 
165 1 2 1.3463668891929133e+00 -1.4310328263317801e+03 1.0000000000000000e+00 1.6411264235057555e+01 1.1116614984050607e+01 9.1522970259733576e+00 
171 1 2 1.3463668891929133e+00 -1.3393188454365536e+03 1.0000000000000000e+00 1.6411264235057555e+01 1.1116614984050607e+01 9.1522970259733594e+00 
130 1 2 1.3463668891929133e+00 -1.5025001458711904e+03 1.0000000000000000e+00 1.6411264235057555e+01 1.1116614984050608e+01 9.1522970259733576e+00 
160 1 2 1.3463668891929133e+00 -1.1747785905963628e+03 1.0000000000000000e+00 1.6411264235057555e+01 1.1116614984050607e+01 9.1522970259733576e+00 
166 1 2 1.3463668891929133e+00 -1.3785176872827251e+03 1.0000000000000000e+00 1.6411264235057555e+01 1.1116614984050607e+01 9.1522970259733594e+00 
124 1 2 1.3463668891929133e+00 -1.1996409423967295e+03 1.0000000000000000e+00 1.6411264235057555e+01 1.1116614984050607e+01 9.1522970259733576e+00 
135 1 2 1.3463668891929133e+00 -1.2439021633611965e+03 1.0000000000000000e+00 1.6411264235057555e+01 1.1116614984050607e+01 9.1522970259733576e+00 
172 1 2 1.3463668891929133e+00 -1.3130225667341997e+03 1.0000000000000000e+00 1.6411264235057555e+01 1.1116614984050607e+01 9.1522970259733576e+00 
177 1 2 5.0488758344734253e-01 -7.3372506571969529e+02 1.0000000000000000e+00 1.7254388395803527e+01 1.7207480670717921e+01 9.2978103054814927e+00 
142 1 2 5.0488758344734253e-01 -7.8092755537376252e+02 1.0000000000000000e+00 1.7254388395803538e+01 1.7207480670717931e+01 9.2978103054814998e+00 
178 1 2 5.0488758344734253e-01 -6.4184981491648136e+02 1.0000000000000000e+00 1.7254388395803517e+01 1.7207480670717924e+01 9.2978103054814998e+00 
108 1 2 1.6829586114911415e+00 -1.1623629112536721e+03 1.0000000000000000e+00 1.3421886149413064e+01 1.3013371809416308e+01 1.4931862349842110e+01 
137 1 2 1.6829586114911415e+00 -1.4110574510720364e+03 1.0000000000000000e+00 1.3421886149413064e+01 1.3013371809416308e+01 1.4931862349842110e+01 
143 1 2 1.6829586114911415e+00 -1.4400545173389719e+03 1.0000000000000000e+00 1.3421886149413064e+01 1.3013371809416308e+01 1.4931862349842111e+01 
144 1 2 1.6829586114911415e+00 -1.3885154158223947e+03 1.0000000000000000e+00 1.3421886149413064e+01 1.3013371809416308e+01 1.4931862349842110e+01 
138 1 2 1.6829586114911415e+00 -1.2369815087776431e+03 1.0000000000000000e+00 1.3421886149413064e+01 1.3013371809416308e+01 1.4931862349842111e+01 
95 1 2 1.6829586114911415e+00 -1.2908115347656390e+03 1.0000000000000000e+00 1.3421886149413064e+01 1.3013371809416308e+01 1.4931862349842111e+01 
101 1 2 1.6829586114911415e+00 -1.4952730537600657e+03 1.0000000000000000e+00 1.3421886149413064e+01 1.3013371809416308e+01 1.4931862349842111e+01 
136 1 2 1.6829586114911415e+00 -1.4956704696756183e+03 1.0000000000000000e+00 1.3421886149413064e+01 1.3013371809416308e+01 1.4931862349842111e+01 
132 1 2 1.6829586114911415e+00 -1.3074086413526120e+03 1.0000000000000000e+00 1.3421886149413064e+01 1.3013371809416308e+01 1.4931862349842111e+01 
96 1 2 1.6829586114911415e+00 -1.2897318707730635e+03 1.0000000000000000e+00 1.3421886149413064e+01 1.3013371809416308e+01 1.4931862349842111e+01 
179 1 2 8.4147930574557095e-01 -1.1130825064291330e+03 1.0000000000000000e+00 1.8133022135671016e+01 1.4554776209231179e+01 1.5254361134706853e+01 
180 1 2 8.4147930574557095e-01 -1.0909051061041819e+03 1.0000000000000000e+00 1.8133022135671016e+01 1.4554776209231173e+01 1.5254361134706871e+01 
174 1 2 8.4147930574557095e-01 -1.1927744375270272e+03 1.0000000000000000e+00 1.8133022135670974e+01 1.4554776209231173e+01 1.5254361134706876e+01 
167 1 2 8.4147930574557095e-01 -1.1944111164218800e+03 1.0000000000000000e+00 1.8133022135671027e+01 1.4554776209231173e+01 1.5254361134706846e+01 
173 1 2 8.4147930574557095e-01 -1.2449005169789143e+03 1.0000000000000000e+00 1.8133022135671027e+01 1.4554776209231175e+01 1.5254361134706851e+01 

Velocities

45 2.5898496141048307e-12 2.3093451382986978e-24 3.2385093852576336e-25
50 2.5898496141048307e-12 2.3093451382855275e-24 3.2385093852757546e-25
44 -1.2949248070524153e-12 2.3093451382855275e-24 3.2385093852576336e-25
15 -1.2949248070524153e-12 2.3093451382986978e-24 3.2385093852757546e-25
7 -1.2949248070524153e-12 2.3093451382986978e-24 3.2385093852576336e-25
13 -1.2949248070524153e-12 2.3093451382986978e-24 3.2385093852757546e-25
8 -1.2949248070524153e-12 2.3093451382986978e-24 3.2385093852757546e-25
9 2.5898496141048307e-12 2.3093451382855275e-24 3.2385093852757546e-25
14 -1.2949248070524153e-12 2.3093451382986978e-24 3.2385093852757546e-25
52 -1.1348736233370358e-12 4.5394957491328847e-12 -4.3976303508288393e-12
22 2.2697472115016852e-12 7.0929730993935728e-13 -9.9300951599012476e-13
16 -1.1348736233370360e-12 -5.2487891510284127e-12 5.3906545493325663e-12
164 1.3331323211810933e-01 -1.0962604727880411e-01 -6.0373671664693329e-01
31 1.3331323211810828e-01 -1.0962604727880941e-01 -6.0373671664693407e-01
73 1.3331323211810944e-01 -1.0962604727881138e-01 -6.0373671664693540e-01
33 1.3331323211813148e-01 -1.0962604727879587e-01 -6.0373671664692863e-01
114 1.3331323211810650e-01 -1.0962604727881360e-01 -6.0373671664693407e-01
149 1.3331323211810356e-01 -1.0962604727881677e-01 -6.0373671664693729e-01
41 1.3331323211811441e-01 -1.0962604727880289e-01 -6.0373671664692208e-01
5 1.3331323211809984e-01 -1.0962604727881707e-01 -6.0373671664693318e-01
34 1.3331323211809934e-01 -1.0962604727881811e-01 -6.0373671664693518e-01
78 1.3331323211811416e-01 -1.0962604727880562e-01 -6.0373671664694029e-01
93 1.3331323211810062e-01 -1.0962604727881757e-01 -6.0373671664694240e-01
38 1.3331323211809912e-01 -1.0962604727881360e-01 -6.0373671664693707e-01
69 1.3331323211810001e-01 -1.0962604727880972e-01 -6.0373671664693396e-01
150 1.3331323211810006e-01 -1.0962604727881721e-01 -6.0373671664693618e-01
170 1.3331323211809684e-01 -1.0962604727881668e-01 -6.0373671664692996e-01
120 1.3331323211810356e-01 -1.0962604727881720e-01 -6.0373671664693385e-01
156 1.3331323211811105e-01 -1.0962604727881627e-01 -6.0373671664694184e-01
56 1.3331323211810167e-01 -1.0962604727881134e-01 -6.0373671664693540e-01
1 1.3331323211811355e-01 -1.0962604727881123e-01 -6.0373671664693207e-01
129 1.3331323211811336e-01 -1.0962604727880734e-01 -6.0373671664693473e-01
42 1.3331323211815269e-01 -1.0962604727879258e-01 -6.0373671664693385e-01
168 1.3331323211812215e-01 -1.0962604727881006e-01 -6.0373671664694517e-01
4 1.3331323211811491e-01 -1.0962604727881040e-01 -6.0373671664693551e-01
151 1.3331323211810026e-01 -1.0962604727881273e-01 -6.0373671664693995e-01
62 1.3331323211810628e-01 -1.0962604727881517e-01 -6.0373671664693873e-01
99 1.3331323211810378e-01 -1.0962604727881477e-01 -6.0373671664693640e-01
126 1.3331323211809962e-01 -1.0962604727881645e-01 -6.0373671664693218e-01
37 1.3331323211811660e-01 -1.0962604727880884e-01 -6.0373671664694262e-01
53 -1.1117471357668700e-12 -5.9863300164574485e-12 -3.5917993979526882e-12
23 -4.7035455914013717e-13 6.9872571109743523e-19 -1.4538241425300931e-12