LAMMPS data file via write_data, version 30 Jul 2016, timestep = 50400000

180 atoms
2 atom types

0.0000000000000000e+00 2.0000000000000000e+01 xlo xhi
0.0000000000000000e+00 2.0000000000000000e+01 ylo yhi
0.0000000000000000e+00 2.0000000000000000e+01 zlo zhi

Masses

1 3.896
2 5

Atoms # meso-molecular

45 1 2 1.5146627503420274e+00 -8.6794992428246496e+02 1.0000000000000000e+00 5.7472626593205076e+00 5.5896359080529647e+00 4.5730442136841125e+00 
50 1 2 1.5146627503420274e+00 -1.0709051214870551e+03 1.0000000000000000e+00 5.7472626593205076e+00 5.5896359080529647e+00 4.5730442136841125e+00 
44 1 2 1.5146627503420274e+00 -1.0465778695040435e+03 1.0000000000000000e+00 5.7472626593205236e+00 5.5896359080529647e+00 4.5730442136841125e+00 
15 1 2 1.5146627503420274e+00 -9.6314324901852979e+02 1.0000000000000000e+00 5.7472626593205236e+00 5.5896359080529647e+00 4.5730442136841125e+00 
7 1 2 1.5146627503420274e+00 -1.0234655038239800e+03 1.0000000000000000e+00 5.7472626593205236e+00 5.5896359080529647e+00 4.5730442136841125e+00 
13 1 2 1.5146627503420274e+00 -1.1323921676772338e+03 1.0000000000000000e+00 5.7472626593205236e+00 5.5896359080529647e+00 4.5730442136841125e+00 
8 1 2 1.5146627503420274e+00 -1.3960990760740815e+03 1.0000000000000000e+00 5.7472626593205236e+00 5.5896359080529647e+00 4.5730442136841125e+00 
9 1 2 1.5146627503420274e+00 -1.2550317221134064e+03 1.0000000000000000e+00 5.7472626593205076e+00 5.5896359080529647e+00 4.5730442136841125e+00 
14 1 2 1.5146627503420274e+00 -1.3648390866208983e+03 1.0000000000000000e+00 5.7472626593205236e+00 5.5896359080529647e+00 4.5730442136841125e+00 
52 1 2 5.0488758344734253e-01 -9.9842534647634466e+02 1.0000000000000000e+00 5.7608326404598875e+00 8.6801504020633029e+00 1.0095773215880147e+01 
22 1 2 5.0488758344734253e-01 -1.1244693293111400e+03 1.0000000000000000e+00 5.7608326404598733e+00 8.6801504020633189e+00 1.0095773215880133e+01 
16 1 2 5.0488758344734253e-01 -1.2526137018513036e+03 1.0000000000000000e+00 5.7608326404598875e+00 8.6801504020633438e+00 1.0095773215880106e+01 
24 1 2 8.4147930574557095e-01 -1.5228839227340491e+03 1.0000000000000000e+00 5.4222600452983674e+00 8.1953190078268854e+00 1.4745131149909518e+01 
18 1 2 8.4147930574557095e-01 -1.4612341276050038e+03 1.0000000000000000e+00 5.4222600452983629e+00 8.1953190078268872e+00 1.4745131149909499e+01 
17 1 2 8.4147930574557095e-01 -1.2494070762096633e+03 1.0000000000000000e+00 5.4222600452983700e+00 8.1953190078268641e+00 1.4745131149909499e+01 
23 1 2 8.4147930574557095e-01 -1.2966148938612969e+03 1.0000000000000000e+00 5.4222600452983709e+00 8.1953190078268872e+00 1.4745131149909518e+01 
53 1 2 8.4147930574557095e-01 -8.0248372198850484e+02 1.0000000000000000e+00 5.4222600452983736e+00 8.1953190078269120e+00 1.4745131149909527e+01 
51 1 2 4.9784359174388255e+00 -1.3304237693173479e+03 1.0000000000000000e+00 3.1629329084217578e-01 5.6428891563056771e+00 1.8236736265304526e+01 
91 1 2 4.9784359174388335e+00 -1.7197087544316785e+03 1.0000000000000000e+00 3.1629329084216767e-01 5.6428891563056753e+00 1.8236736265304515e+01 
30 1 2 4.9784359174388300e+00 -1.0055465183725998e+03 1.0000000000000000e+00 3.1629329084217728e-01 5.6428891563056700e+00 1.8236736265304518e+01 
84 1 2 4.9784359174388282e+00 -1.1726412976121803e+03 1.0000000000000000e+00 3.1629329084218294e-01 5.6428891563056744e+00 1.8236736265304515e+01 
79 1 2 4.9784359174388237e+00 -1.2514821840210777e+03 1.0000000000000000e+00 3.1629329084217994e-01 5.6428891563056744e+00 1.8236736265304526e+01 
32 1 2 4.9784359174388300e+00 -1.3477443326010596e+03 1.0000000000000000e+00 3.1629329084217211e-01 5.6428891563056762e+00 1.8236736265304518e+01 
100 1 2 4.9784359174388255e+00 -1.6747539822537778e+03 1.0000000000000000e+00 3.1629329084217339e-01 5.6428891563056771e+00 1.8236736265304526e+01 
10 1 2 4.9784359174388211e+00 -1.2817397614573335e+03 1.0000000000000000e+00 3.1629329084219482e-01 5.6428891563056771e+00 1.8236736265304518e+01 
128 1 2 4.9784359174388229e+00 -1.0394104261889427e+03 1.0000000000000000e+00 3.1629329084218066e-01 5.6428891563056771e+00 1.8236736265304526e+01 
83 1 2 4.9784359174388220e+00 -1.3144739406208889e+03 1.0000000000000000e+00 3.1629329084218027e-01 5.6428891563056700e+00 1.8236736265304533e+01 
127 1 2 4.9784359174388246e+00 -1.2180179912191481e+03 1.0000000000000000e+00 3.1629329084219487e-01 5.6428891563056833e+00 1.8236736265304508e+01 
134 1 2 4.9784359174388175e+00 -1.3986168931372517e+03 1.0000000000000000e+00 3.1629329084218255e-01 5.6428891563056771e+00 1.8236736265304536e+01 
118 1 2 4.9784359174388140e+00 -1.5867710056949632e+03 1.0000000000000000e+00 3.1629329084219621e-01 5.6428891563056762e+00 1.8236736265304533e+01 
154 1 2 4.9784359174388255e+00 -1.6012625444257214e+03 1.0000000000000000e+00 3.1629329084218621e-01 5.6428891563056753e+00 1.8236736265304518e+01 
27 1 2 4.9784359174388264e+00 -1.3130906100019895e+03 1.0000000000000000e+00 3.1629329084218460e-01 5.6428891563056798e+00 1.8236736265304515e+01 
98 1 2 4.9784359174388291e+00 -1.8805871446270196e+03 1.0000000000000000e+00 3.1629329084216867e-01 5.6428891563056798e+00 1.8236736265304522e+01 
77 1 2 4.9784359174388326e+00 -1.4598765450706644e+03 1.0000000000000000e+00 3.1629329084217100e-01 5.6428891563056762e+00 1.8236736265304515e+01 
119 1 2 4.9784359174388175e+00 -1.5490647137085220e+03 1.0000000000000000e+00 3.1629329084218444e-01 5.6428891563056798e+00 1.8236736265304533e+01 
133 1 2 4.9784359174388317e+00 -1.5435759643827751e+03 1.0000000000000000e+00 3.1629329084217306e-01 5.6428891563056762e+00 1.8236736265304515e+01 
92 1 2 4.9784359174388202e+00 -1.6125871831862225e+03 1.0000000000000000e+00 3.1629329084217545e-01 5.6428891563056771e+00 1.8236736265304536e+01 
61 1 2 4.9784359174388211e+00 -1.2475680399724527e+03 1.0000000000000000e+00 3.1629329084219132e-01 5.6428891563056771e+00 1.8236736265304522e+01 
104 1 2 4.9784359174388202e+00 -1.1556117798835826e+03 1.0000000000000000e+00 3.1629329084218527e-01 5.6428891563056736e+00 1.8236736265304529e+01 
63 1 2 4.9784359174388246e+00 -1.4496910348524673e+03 1.0000000000000000e+00 3.1629329084218671e-01 5.6428891563056709e+00 1.8236736265304522e+01 
113 1 2 4.9784359174388220e+00 -1.4986287585596119e+03 1.0000000000000000e+00 3.1629329084218261e-01 5.6428891563056771e+00 1.8236736265304526e+01 
25 1 2 4.9784359174388264e+00 -1.3381262728199720e+03 1.0000000000000000e+00 3.1629329084218744e-01 5.6428891563056753e+00 1.8236736265304515e+01 
67 1 2 4.9784359174388202e+00 -1.7083271096598310e+03 1.0000000000000000e+00 3.1629329084218416e-01 5.6428891563056789e+00 1.8236736265304529e+01 
155 1 2 4.9784359174388237e+00 -1.7008367518392167e+03 1.0000000000000000e+00 3.1629329084218805e-01 5.6428891563056789e+00 1.8236736265304518e+01 
97 1 2 4.9784359174388273e+00 -1.8086030946668441e+03 1.0000000000000000e+00 3.1629329084217495e-01 5.6428891563056753e+00 1.8236736265304522e+01 
19 1 2 3.3659172229822837e-01 -8.4675824013933186e+02 1.0000000000000000e+00 6.2746544524097025e+00 1.0060049644292993e+01 1.2425501734161803e+00 
55 1 2 3.3659172229822837e-01 -9.2019168859697720e+02 1.0000000000000000e+00 6.2746544524096990e+00 1.0060049644292965e+01 1.2425501734161783e+00 
29 1 2 3.3659172229822837e-01 -6.7627501369732124e+02 1.0000000000000000e+00 4.0727657855200965e+00 1.3171105279461095e+01 1.2452305438325546e+01 
28 1 2 3.3659172229822837e-01 -7.3546048367711262e+02 1.0000000000000000e+00 4.0727657855200938e+00 1.3171105279461104e+01 1.2452305438325538e+01 
74 1 2 3.3659172229822837e-01 -5.3617046456384230e+02 1.0000000000000000e+00 1.1790544232640388e+01 1.2042246036043538e+00 5.5660486937988285e+00 
75 1 2 3.3659172229822837e-01 -5.3902066745442744e+02 1.0000000000000000e+00 1.1790544232640386e+01 1.2042246036043540e+00 5.5660486937988276e+00 
82 1 2 3.3659172229822837e-01 -6.6647148417463791e+02 1.0000000000000000e+00 1.0482378622499477e+01 4.9915800877193917e+00 9.2705677067295529e+00 
81 1 2 3.3659172229822837e-01 -6.5834706710738021e+02 1.0000000000000000e+00 1.0482378622499482e+01 4.9915800877194059e+00 9.2705677067295458e+00 
88 1 2 1.0097751668946851e+00 -1.0509927032958192e+03 1.0000000000000000e+00 1.2214665511976389e+01 8.6240009091616265e+00 1.1136145446249580e+01 
89 1 2 1.0097751668946851e+00 -1.3719599126486485e+03 1.0000000000000000e+00 1.2214665511976389e+01 8.6240009091616088e+00 1.1136145446249580e+01 
94 1 2 1.0097751668946851e+00 -1.1152776154191795e+03 1.0000000000000000e+00 1.2214665511976389e+01 8.6240009091616088e+00 1.1136145446249580e+01 
131 1 2 1.0097751668946851e+00 -1.3424285888529084e+03 1.0000000000000000e+00 1.2214665511976389e+01 8.6240009091616265e+00 1.1136145446249580e+01 
125 1 2 1.0097751668946851e+00 -1.3678249170539677e+03 1.0000000000000000e+00 1.2214665511976389e+01 8.6240009091616088e+00 1.1136145446249580e+01 
87 1 2 1.0097751668946851e+00 -9.9423022492721543e+02 1.0000000000000000e+00 1.2214665511976389e+01 8.6240009091616088e+00 1.1136145446249580e+01 
85 1 2 6.7318344459645674e-01 -1.3460802347481713e+03 1.0000000000000000e+00 9.1802074203081681e+00 7.1442530488540621e+00 1.9160376819326228e+01 
54 1 2 6.7318344459645674e-01 -1.1651801532306044e+03 1.0000000000000000e+00 9.1802074203081698e+00 7.1442530488540656e+00 1.9160376819326167e+01 
49 1 2 6.7318344459645674e-01 -1.2490321321973652e+03 1.0000000000000000e+00 9.1802074203081574e+00 7.1442530488540905e+00 1.9160376819326203e+01 
90 1 2 6.7318344459645674e-01 -1.2705602341205670e+03 1.0000000000000000e+00 9.1802074203081521e+00 7.1442530488540834e+00 1.9160376819326249e+01 
139 1 2 3.3659172229822837e-01 -5.4055842843212008e+02 1.0000000000000000e+00 1.2967265353271175e+01 1.7532848703229199e+01 5.0910279977974660e-01 
103 1 2 3.3659172229822837e-01 -5.2122082521161565e+02 1.0000000000000000e+00 1.2967265353271181e+01 1.7532848703229270e+01 5.0910279977974671e-01 
76 1 2 5.0488758344734253e-01 -9.1065226371111100e+02 1.0000000000000000e+00 1.2472192693242773e+01 1.9548194194447429e+01 1.0443656524256237e+01 
106 1 2 5.0488758344734253e-01 -8.7512526576796938e+02 1.0000000000000000e+00 1.2472192693242766e+01 1.9548194194447362e+01 1.0443656524256284e+01 
112 1 2 5.0488758344734253e-01 -8.2942103163823549e+02 1.0000000000000000e+00 1.2472192693242766e+01 1.9548194194447429e+01 1.0443656524256282e+01 
59 1 2 6.7318344459645674e-01 -7.7270411849330776e+02 1.0000000000000000e+00 9.1348109489055780e+00 1.2651440075182778e+01 1.6451453995505709e+01 
60 1 2 6.7318344459645674e-01 -7.0487265507149800e+02 1.0000000000000000e+00 9.1348109489055371e+00 1.2651440075182769e+01 1.6451453995505705e+01 
66 1 2 6.7318344459645674e-01 -1.3710800330391803e+03 1.0000000000000000e+00 9.1348109489055567e+00 1.2651440075182778e+01 1.6451453995505709e+01 
102 1 2 6.7318344459645674e-01 -1.3265060865233006e+03 1.0000000000000000e+00 9.1348109489055869e+00 1.2651440075182775e+01 1.6451453995505709e+01 
107 1 2 8.4147930574557095e-01 -9.8319294505197774e+02 1.0000000000000000e+00 8.5433318780021121e+00 1.7000493952708513e+01 1.4630784550338360e+01 
72 1 2 8.4147930574557095e-01 -1.1375961165858143e+03 1.0000000000000000e+00 8.5433318780021121e+00 1.7000493952708510e+01 1.4630784550338340e+01 
71 1 2 8.4147930574557095e-01 -1.5094169323290582e+03 1.0000000000000000e+00 8.5433318780020802e+00 1.7000493952708560e+01 1.4630784550338360e+01 
35 1 2 8.4147930574557095e-01 -1.6068231034311118e+03 1.0000000000000000e+00 8.5433318780020961e+00 1.7000493952708499e+01 1.4630784550338380e+01 
65 1 2 8.4147930574557095e-01 -1.6395680688945156e+03 1.0000000000000000e+00 8.5433318780021121e+00 1.7000493952708513e+01 1.4630784550338356e+01 
86 1 2 1.0097751668946851e+00 -1.7100061296387621e+03 1.0000000000000000e+00 1.3482038870207274e+01 5.8267648256664870e+00 3.9458295085631261e+00 
122 1 2 1.0097751668946851e+00 -1.4412541542637118e+03 1.0000000000000000e+00 1.3482038870207274e+01 5.8267648256664870e+00 3.9458295085631261e+00 
123 1 2 1.0097751668946851e+00 -1.0226608313483514e+03 1.0000000000000000e+00 1.3482038870207274e+01 5.8267648256664826e+00 3.9458295085631234e+00 
115 1 2 1.0097751668946851e+00 -1.2701035752785999e+03 1.0000000000000000e+00 1.3482038870207274e+01 5.8267648256664843e+00 3.9458295085631261e+00 
116 1 2 1.0097751668946851e+00 -1.4493570512431552e+03 1.0000000000000000e+00 1.3482038870207274e+01 5.8267648256664843e+00 3.9458295085631261e+00 
80 1 2 1.0097751668946851e+00 -1.1810799003833845e+03 1.0000000000000000e+00 1.3482038870207294e+01 5.8267648256664870e+00 3.9458295085631261e+00 
117 1 2 8.4147930574557095e-01 -1.3650307480918718e+03 1.0000000000000000e+00 1.7285297693375483e+01 5.4202351745892425e+00 6.1883369502456276e+00 
153 1 2 8.4147930574557095e-01 -1.4671444490406209e+03 1.0000000000000000e+00 1.7285297693375565e+01 5.4202351745892425e+00 6.1883369502456187e+00 
158 1 2 8.4147930574557095e-01 -1.3787532588934737e+03 1.0000000000000000e+00 1.7285297693375576e+01 5.4202351745892283e+00 6.1883369502456320e+00 
152 1 2 8.4147930574557095e-01 -1.2772453533142486e+03 1.0000000000000000e+00 1.7285297693375494e+01 5.4202351745892283e+00 6.1883369502456276e+00 
159 1 2 8.4147930574557095e-01 -1.3989922583796110e+03 1.0000000000000000e+00 1.7285297693375576e+01 5.4202351745892354e+00 6.1883369502456302e+00 
111 1 2 5.0488758344734253e-01 -1.0350837226905107e+03 1.0000000000000000e+00 1.6875714679448055e+01 1.2077840055591167e+00 8.4827645796727360e+00 
147 1 2 5.0488758344734253e-01 -1.1342668596088295e+03 1.0000000000000000e+00 1.6875714679448059e+01 1.2077840055591167e+00 8.4827645796727627e+00 
148 1 2 5.0488758344734253e-01 -9.8705513256127210e+02 1.0000000000000000e+00 1.6875714679447999e+01 1.2077840055591174e+00 8.4827645796727325e+00 
164 1 2 4.9897710499473149e+00 -1.4679001031302350e+03 1.0000000000000000e+00 1.7163177882640404e+01 3.3661832970658780e+00 1.3961023302844618e+01 
41 1 2 4.9897710499473060e+00 -5.0221646777126938e+02 1.0000000000000000e+00 1.7163177882640394e+01 3.3661832970658661e+00 1.3961023302844625e+01 
5 1 2 4.9897710499473229e+00 -1.1896874067531326e+03 1.0000000000000000e+00 1.7163177882640394e+01 3.3661832970658820e+00 1.3961023302844637e+01 
34 1 2 4.9897710499473096e+00 -1.3630652050343288e+03 1.0000000000000000e+00 1.7163177882640404e+01 3.3661832970658638e+00 1.3961023302844623e+01 
78 1 2 4.9897710499473051e+00 -1.3164165724744903e+03 1.0000000000000000e+00 1.7163177882640394e+01 3.3661832970658701e+00 1.3961023302844618e+01 
93 1 2 4.9897710499473060e+00 -1.1731351266832039e+03 1.0000000000000000e+00 1.7163177882640412e+01 3.3661832970658794e+00 1.3961023302844605e+01 
31 1 2 4.9897710499473185e+00 -1.6344388574178356e+03 1.0000000000000000e+00 1.7163177882640394e+01 3.3661832970658776e+00 1.3961023302844632e+01 
73 1 2 4.9897710499473051e+00 -1.3535821419626827e+03 1.0000000000000000e+00 1.7163177882640397e+01 3.3661832970658740e+00 1.3961023302844612e+01 
33 1 2 4.9897710499473220e+00 -1.1733500326306753e+03 1.0000000000000000e+00 1.7163177882640415e+01 3.3661832970658838e+00 1.3961023302844618e+01 
114 1 2 4.9897710499473149e+00 -1.0835290807209121e+03 1.0000000000000000e+00 1.7163177882640404e+01 3.3661832970658780e+00 1.3961023302844618e+01 
149 1 2 4.9897710499473096e+00 -1.6110686091313464e+03 1.0000000000000000e+00 1.7163177882640408e+01 3.3661832970658763e+00 1.3961023302844614e+01 
37 1 2 4.9897710499473167e+00 -1.6324392560168208e+03 1.0000000000000000e+00 1.7163177882640419e+01 3.3661832970658772e+00 1.3961023302844612e+01 
126 1 2 4.9897710499473051e+00 -1.1416103076524123e+03 1.0000000000000000e+00 1.7163177882640401e+01 3.3661832970658674e+00 1.3961023302844611e+01 
99 1 2 4.9897710499473069e+00 -1.3979628482606558e+03 1.0000000000000000e+00 1.7163177882640397e+01 3.3661832970658705e+00 1.3961023302844621e+01 
62 1 2 4.9897710499473034e+00 -1.2735423798061101e+03 1.0000000000000000e+00 1.7163177882640394e+01 3.3661832970658652e+00 1.3961023302844611e+01 
151 1 2 4.9897710499473051e+00 -1.3008805441490167e+03 1.0000000000000000e+00 1.7163177882640390e+01 3.3661832970658727e+00 1.3961023302844616e+01 
4 1 2 4.9897710499473211e+00 -9.9905556671915508e+02 1.0000000000000000e+00 1.7163177882640394e+01 3.3661832970658803e+00 1.3961023302844634e+01 
168 1 2 4.9897710499473158e+00 -1.2287891028641466e+03 1.0000000000000000e+00 1.7163177882640422e+01 3.3661832970658754e+00 1.3961023302844609e+01 
42 1 2 4.9897710499473149e+00 -1.2089680661287089e+03 1.0000000000000000e+00 1.7163177882640436e+01 3.3661832970658669e+00 1.3961023302844602e+01 
129 1 2 4.9897710499473229e+00 -1.0564490454882348e+03 1.0000000000000000e+00 1.7163177882640397e+01 3.3661832970658829e+00 1.3961023302844634e+01 
1 1 2 4.9897710499473060e+00 -9.9709273633858095e+02 1.0000000000000000e+00 1.7163177882640404e+01 3.3661832970658701e+00 1.3961023302844614e+01 
56 1 2 4.9897710499473060e+00 -9.4843454518129420e+02 1.0000000000000000e+00 1.7163177882640394e+01 3.3661832970658705e+00 1.3961023302844623e+01 
156 1 2 4.9897710499473185e+00 -1.7859441925114061e+03 1.0000000000000000e+00 1.7163177882640422e+01 3.3661832970658767e+00 1.3961023302844612e+01 
120 1 2 4.9897710499473051e+00 -1.0654302185926417e+03 1.0000000000000000e+00 1.7163177882640394e+01 3.3661832970658709e+00 1.3961023302844616e+01 
170 1 2 4.9897710499473051e+00 -1.4698976026949799e+03 1.0000000000000000e+00 1.7163177882640390e+01 3.3661832970658683e+00 1.3961023302844620e+01 
150 1 2 4.9897710499473060e+00 -1.8426827211735533e+03 1.0000000000000000e+00 1.7163177882640394e+01 3.3661832970658767e+00 1.3961023302844620e+01 
69 1 2 4.9897710499473060e+00 -1.2487826794143521e+03 1.0000000000000000e+00 1.7163177882640394e+01 3.3661832970658740e+00 1.3961023302844621e+01 
38 1 2 4.9897710499473051e+00 -1.3407211673100101e+03 1.0000000000000000e+00 1.7163177882640408e+01 3.3661832970658763e+00 1.3961023302844605e+01 
26 1 2 4.9741782039495286e+00 -1.1506126662673121e+03 1.0000000000000000e+00 1.8694153845895279e+01 4.4768686676667757e+00 1.6057055800800562e+01 
36 1 2 4.9741782039495268e+00 -1.0967139390283762e+03 1.0000000000000000e+00 1.8694153845895283e+01 4.4768686676667784e+00 1.6057055800800569e+01 
58 1 2 4.9741782039495268e+00 -1.3753628859933897e+03 1.0000000000000000e+00 1.8694153845895283e+01 4.4768686676667757e+00 1.6057055800800569e+01 
3 1 2 4.9741782039495295e+00 -1.1369771194440789e+03 1.0000000000000000e+00 1.8694153845895283e+01 4.4768686676667730e+00 1.6057055800800562e+01 
105 1 2 4.9741782039495259e+00 -1.3098880754026115e+03 1.0000000000000000e+00 1.8694153845895290e+01 4.4768686676667802e+00 1.6057055800800544e+01 
64 1 2 4.9741782039495233e+00 -1.4907949551782269e+03 1.0000000000000000e+00 1.8694153845895293e+01 4.4768686676667793e+00 1.6057055800800565e+01 
43 1 2 4.9741782039495268e+00 -1.3554122264890232e+03 1.0000000000000000e+00 1.8694153845895283e+01 4.4768686676667784e+00 1.6057055800800565e+01 
68 1 2 4.9741782039495277e+00 -1.2165660209535379e+03 1.0000000000000000e+00 1.8694153845895290e+01 4.4768686676667793e+00 1.6057055800800558e+01 
6 1 2 4.9741782039495277e+00 -1.2061523631846178e+03 1.0000000000000000e+00 1.8694153845895283e+01 4.4768686676667739e+00 1.6057055800800558e+01 
20 1 2 4.9741782039495277e+00 -1.0334339148471311e+03 1.0000000000000000e+00 1.8694153845895276e+01 4.4768686676667730e+00 1.6057055800800562e+01 
70 1 2 4.9741782039495241e+00 -9.8804995041760151e+02 1.0000000000000000e+00 1.8694153845895286e+01 4.4768686676667793e+00 1.6057055800800569e+01 
40 1 2 4.9741782039495224e+00 -1.1025730340455841e+03 1.0000000000000000e+00 1.8694153845895286e+01 4.4768686676667784e+00 1.6057055800800534e+01 
169 1 2 4.9741782039495277e+00 -1.3045808412958329e+03 1.0000000000000000e+00 1.8694153845895283e+01 4.4768686676667739e+00 1.6057055800800558e+01 
121 1 2 4.9741782039495259e+00 -9.6426457840157411e+02 1.0000000000000000e+00 1.8694153845895290e+01 4.4768686676667775e+00 1.6057055800800565e+01 
161 1 2 4.9741782039495295e+00 -1.1534610198476937e+03 1.0000000000000000e+00 1.8694153845895279e+01 4.4768686676667793e+00 1.6057055800800558e+01 
47 1 2 4.9741782039495197e+00 -3.5674327755978914e+02 1.0000000000000000e+00 1.8694153845895293e+01 4.4768686676667828e+00 1.6057055800800573e+01 
21 1 2 4.9741782039495286e+00 -1.0645343069764824e+03 1.0000000000000000e+00 1.8694153845895286e+01 4.4768686676667739e+00 1.6057055800800558e+01 
57 1 2 4.9741782039495286e+00 -9.5124380308377920e+02 1.0000000000000000e+00 1.8694153845895279e+01 4.4768686676667766e+00 1.6057055800800562e+01 
162 1 2 4.9741782039495268e+00 -1.6703801502288700e+03 1.0000000000000000e+00 1.8694153845895283e+01 4.4768686676667784e+00 1.6057055800800569e+01 
163 1 2 4.9741782039495295e+00 -1.2389557202690632e+03 1.0000000000000000e+00 1.8694153845895279e+01 4.4768686676667784e+00 1.6057055800800562e+01 
46 1 2 4.9741782039495286e+00 -9.5943477575516351e+02 1.0000000000000000e+00 1.8694153845895283e+01 4.4768686676667739e+00 1.6057055800800562e+01 
157 1 2 4.9741782039495224e+00 -1.1847272406977911e+03 1.0000000000000000e+00 1.8694153845895297e+01 4.4768686676667775e+00 1.6057055800800565e+01 
48 1 2 4.9741782039495197e+00 -9.8029713821735015e+02 1.0000000000000000e+00 1.8694153845895286e+01 4.4768686676667784e+00 1.6057055800800580e+01 
11 1 2 4.9741782039495277e+00 -1.3842973163641220e+03 1.0000000000000000e+00 1.8694153845895286e+01 4.4768686676667784e+00 1.6057055800800562e+01 
2 1 2 4.9741782039495277e+00 -1.4322670387826395e+03 1.0000000000000000e+00 1.8694153845895283e+01 4.4768686676667775e+00 1.6057055800800562e+01 
12 1 2 4.9741782039495224e+00 -1.2811456238242442e+03 1.0000000000000000e+00 1.8694153845895297e+01 4.4768686676667775e+00 1.6057055800800565e+01 
39 1 2 5.0354191114677134e+00 -1.2405581200488402e+03 1.0000000000000000e+00 1.9179869434240299e+01 4.9725698601357164e+00 1.7268176692704774e+01 
175 1 2 1.3463668891929133e+00 -1.3118085687047603e+03 1.0000000000000000e+00 1.6624183578348308e+01 1.8903214862123740e+01 3.3730634602469127e+00 
145 1 2 1.3463668891929133e+00 -1.5156642872959069e+03 1.0000000000000000e+00 1.6624183578348308e+01 1.8903214862123743e+01 3.3730634602469123e+00 
109 1 2 1.3463668891929133e+00 -1.6242481978027151e+03 1.0000000000000000e+00 1.6624183578348308e+01 1.8903214862123743e+01 3.3730634602469127e+00 
146 1 2 1.3463668891929133e+00 -1.5893128291291569e+03 1.0000000000000000e+00 1.6624183578348308e+01 1.8903214862123743e+01 3.3730634602469123e+00 
140 1 2 1.3463668891929133e+00 -1.1949561561373494e+03 1.0000000000000000e+00 1.6624183578348308e+01 1.8903214862123740e+01 3.3730634602469127e+00 
141 1 2 1.3463668891929133e+00 -1.0559317329643566e+03 1.0000000000000000e+00 1.6624183578348308e+01 1.8903214862123740e+01 3.3730634602469127e+00 
110 1 2 1.3463668891929133e+00 -1.3423557807889072e+03 1.0000000000000000e+00 1.6624183578348308e+01 1.8903214862123743e+01 3.3730634602469127e+00 
176 1 2 1.3463668891929133e+00 -1.4466463594744569e+03 1.0000000000000000e+00 1.6624183578348308e+01 1.8903214862123743e+01 3.3730634602469127e+00 
165 1 2 1.3463668891929133e+00 -1.4310328263317801e+03 1.0000000000000000e+00 1.6411264235057555e+01 1.1116614984050607e+01 9.1522970259733576e+00 
171 1 2 1.3463668891929133e+00 -1.3393188454365536e+03 1.0000000000000000e+00 1.6411264235057555e+01 1.1116614984050607e+01 9.1522970259733594e+00 
130 1 2 1.3463668891929133e+00 -1.5025001458711904e+03 1.0000000000000000e+00 1.6411264235057555e+01 1.1116614984050608e+01 9.1522970259733576e+00 
160 1 2 1.3463668891929133e+00 -1.1747785905963628e+03 1.0000000000000000e+00 1.6411264235057555e+01 1.1116614984050607e+01 9.1522970259733576e+00 
166 1 2 1.3463668891929133e+00 -1.3785176872827251e+03 1.0000000000000000e+00 1.6411264235057555e+01 1.1116614984050607e+01 9.1522970259733594e+00 
124 1 2 1.3463668891929133e+00 -1.1996409423967295e+03 1.0000000000000000e+00 1.6411264235057555e+01 1.1116614984050607e+01 9.1522970259733576e+00 
135 1 2 1.3463668891929133e+00 -1.2439021633611965e+03 1.0000000000000000e+00 1.6411264235057555e+01 1.1116614984050607e+01 9.1522970259733576e+00 
172 1 2 1.3463668891929133e+00 -1.3130225667341997e+03 1.0000000000000000e+00 1.6411264235057555e+01 1.1116614984050607e+01 9.1522970259733576e+00 
177 1 2 5.0488758344734253e-01 -7.3372506571969529e+02 1.0000000000000000e+00 1.7254388395803527e+01 1.7207480670717921e+01 9.2978103054814927e+00 
142 1 2 5.0488758344734253e-01 -7.8092755537376252e+02 1.0000000000000000e+00 1.7254388395803538e+01 1.7207480670717931e+01 9.2978103054814998e+00 
178 1 2 5.0488758344734253e-01 -6.4184981491648136e+02 1.0000000000000000e+00 1.7254388395803517e+01 1.7207480670717924e+01 9.2978103054814998e+00 
108 1 2 1.6829586114911415e+00 -1.1623629112536721e+03 1.0000000000000000e+00 1.3421886149413064e+01 1.3013371809416308e+01 1.4931862349842110e+01 
137 1 2 1.6829586114911415e+00 -1.4110574510720364e+03 1.0000000000000000e+00 1.3421886149413064e+01 1.3013371809416308e+01 1.4931862349842110e+01 
143 1 2 1.6829586114911415e+00 -1.4400545173389719e+03 1.0000000000000000e+00 1.3421886149413064e+01 1.3013371809416308e+01 1.4931862349842111e+01 
144 1 2 1.6829586114911415e+00 -1.3885154158223947e+03 1.0000000000000000e+00 1.3421886149413064e+01 1.3013371809416308e+01 1.4931862349842110e+01 
138 1 2 1.6829586114911415e+00 -1.2369815087776431e+03 1.0000000000000000e+00 1.3421886149413064e+01 1.3013371809416308e+01 1.4931862349842111e+01 
95 1 2 1.6829586114911415e+00 -1.2908115347656390e+03 1.0000000000000000e+00 1.3421886149413064e+01 1.3013371809416308e+01 1.4931862349842111e+01 
101 1 2 1.6829586114911415e+00 -1.4952730537600657e+03 1.0000000000000000e+00 1.3421886149413064e+01 1.3013371809416308e+01 1.4931862349842111e+01 
136 1 2 1.6829586114911415e+00 -1.4956704696756183e+03 1.0000000000000000e+00 1.3421886149413064e+01 1.3013371809416308e+01 1.4931862349842111e+01 
132 1 2 1.6829586114911415e+00 -1.3074086413526120e+03 1.0000000000000000e+00 1.3421886149413064e+01 1.3013371809416308e+01 1.4931862349842111e+01 
96 1 2 1.6829586114911415e+00 -1.2897318707730635e+03 1.0000000000000000e+00 1.3421886149413064e+01 1.3013371809416308e+01 1.4931862349842111e+01 
179 1 2 8.4147930574557095e-01 -1.1130825064291330e+03 1.0000000000000000e+00 1.8133022135671016e+01 1.4554776209231179e+01 1.5254361134706853e+01 
180 1 2 8.4147930574557095e-01 -1.0909051061041819e+03 1.0000000000000000e+00 1.8133022135671016e+01 1.4554776209231173e+01 1.5254361134706871e+01 
174 1 2 8.4147930574557095e-01 -1.1927744375270272e+03 1.0000000000000000e+00 1.8133022135670974e+01 1.4554776209231173e+01 1.5254361134706876e+01 
167 1 2 8.4147930574557095e-01 -1.1944111164218800e+03 1.0000000000000000e+00 1.8133022135671027e+01 1.4554776209231173e+01 1.5254361134706846e+01 
173 1 2 8.4147930574557095e-01 -1.2449005169789143e+03 1.0000000000000000e+00 1.8133022135671027e+01 1.4554776209231175e+01 1.5254361134706851e+01 

Velocities

45 2.5899957717871906e-12 2.9561531212203790e-24 4.1455603446021519e-25
50 2.5899957717871906e-12 2.9561531212035111e-24 4.1455603446254028e-25
44 -1.2949978858935953e-12 2.9561531212035111e-24 4.1455603446021519e-25
15 -1.2949978858935953e-12 2.9561531212203790e-24 4.1455603446254028e-25
7 -1.2949978858935953e-12 2.9561531212203790e-24 4.1455603446021519e-25
13 -1.2949978858935953e-12 2.9561531212203790e-24 4.1455603446254028e-25
8 -1.2949978858935953e-12 2.9561531212203790e-24 4.1455603446254028e-25
9 2.5899957717871906e-12 2.9561531212035111e-24 4.1455603446254028e-25
14 -1.2949978858935953e-12 2.9561531212203790e-24 4.1455603446254028e-25
52 -1.1349777002325696e-12 4.5399124084387011e-12 -4.3980322653008336e-12
22 2.2699553554414803e-12 7.0936272080538183e-13 -9.9309920962691298e-13
16 -1.1349777002325698e-12 -5.2492701266240932e-12 5.3911502697618548e-12
24 3.8486330811443792e-13 4.2762679652369097e-13 -1.4539293073279604e-12
18 1.4539280633564017e-12 8.9442690628266035e-19 3.2499556157366724e-12
17 -2.5657554503074605e-13 5.5591376216850369e-12 3.2499556157366736e-12
23 -4.7038849607913262e-13 8.9442690617807734e-19 -1.4539293073279606e-12
53 -1.1118273492243255e-12 -5.9867617349281222e-12 -3.5920588178119189e-12
51 4.8480335131559432e-01 7.3678011669947668e-02 -3.9570147893845198e-01
91 4.8480335131558988e-01 7.3678011669944060e-02 -3.9570147893846341e-01
30 4.8480335131558178e-01 7.3678011669961518e-02 -3.9570147893843582e-01
84 4.8480335131558222e-01 7.3678011669949389e-02 -3.9570147893845287e-01
79 4.8480335131560098e-01 7.3678011669954857e-02 -3.9570147893843755e-01
32 4.8480335131559865e-01 7.3678011669961518e-02 -3.9570147893843044e-01
100 4.8480335131559077e-01 7.3678011669954122e-02 -3.9570147893845847e-01
10 4.8480335131559266e-01 7.3678011669959589e-02 -3.9570147893842628e-01
128 4.8480335131558211e-01 7.3678011669948487e-02 -3.9570147893845214e-01
83 4.8480335131559454e-01 7.3678011669947030e-02 -3.9570147893843660e-01
127 4.8480335131557423e-01 7.3678011669952401e-02 -3.9570147893846042e-01
134 4.8480335131560909e-01 7.3678011669958854e-02 -3.9570147893842506e-01
118 4.8480335131557833e-01 7.3678011669964225e-02 -3.9570147893843982e-01
154 4.8480335131558588e-01 7.3678011669958118e-02 -3.9570147893844188e-01
27 4.8480335131558222e-01 7.3678011669943894e-02 -3.9570147893846036e-01
98 4.8480335131557989e-01 7.3678011669958257e-02 -3.9570147893844049e-01
77 4.8480335131559610e-01 7.3678011669947432e-02 -3.9570147893845337e-01
119 4.8480335131556868e-01 7.3678011669949431e-02 -3.9570147893845842e-01
133 4.8480335131559354e-01 7.3678011669955468e-02 -3.9570147893844904e-01
92 4.8480335131558489e-01 7.3678011669948071e-02 -3.9570147893845969e-01
61 4.8480335131557301e-01 7.3678011669943810e-02 -3.9570147893846197e-01
104 4.8480335131560998e-01 7.3678011669959700e-02 -3.9570147893842239e-01
63 4.8480335131559266e-01 7.3678011669949417e-02 -3.9570147893843904e-01
113 4.8480335131560653e-01 7.3678011669970858e-02 -3.9570147893842511e-01
25 4.8480335131557634e-01 7.3678011669947321e-02 -3.9570147893844226e-01
67 4.8480335131557389e-01 7.3678011669941076e-02 -3.9570147893846191e-01