LAMMPS data file via write_data, version 30 Jul 2016, timestep = 100000000

5572 atoms
8 atom types

0.0000000000000000e+00 6.0000000000000000e+01 xlo xhi
0.0000000000000000e+00 6.0000000000000000e+01 ylo yhi
0.0000000000000000e+00 6.0000000000000000e+01 zlo zhi

Masses

1 3.896
2 8.3
3 4.31
4 28.378
5 28.378
6 28.378
7 28.378
8 28.378

Atoms # meso-molecular

847 4 3 3.4387207658793817e-01 1.1792675261165807e+02 1.0000000000000000e+00 7.5525540644949878e+00 6.4977093122864549e+00 2.6421325555203434e-01 
1056 4 3 6.8774415317587634e-01 1.1008647425973342e+02 1.0000000000000000e+00 2.9336661538604375e+01 2.5332742693641862e+01 5.8936845388770909e-01 
1413 7 3 6.8774415317587634e-01 -1.6928882496018321e+01 1.0000000000000000e+00 2.9336661538603131e+01 2.5332742693642249e+01 5.8936845388769787e-01 
1244 5 3 3.4387207658793817e-01 -1.9446210043337700e+01 1.0000000000000000e+00 1.0919974933455977e+01 4.3872102152799547e-02 1.9261271563036066e+00 
77 1 1 1.0490890800591182e+00 2.7199495634854275e+03 1.0000000000000000e+00 2.9518295088907660e+01 1.9166810987696927e+01 2.9603812412747952e+00 
2308 15 3 3.4387207658793817e-01 1.0382887805013232e+02 1.0000000000000000e+00 1.2578964868009999e+01 2.4988520515778070e+01 3.3194537867553633e+00 
2328 15 3 3.4387207658793817e-01 4.7816074719814986e+02 1.0000000000000000e+00 1.9393385513625741e+01 2.5403173867289809e+01 3.2896827241576894e+00 
526 2 3 3.4387207658793817e-01 8.0586714877545319e+01 1.0000000000000000e+00 5.4858648676867006e+00 2.7347364973859648e+01 2.3165449494250896e+00 
1523 8 3 3.4387207658793817e-01 2.5184603411931846e+02 1.0000000000000000e+00 1.1955623627498987e+01 2.7958940355107146e+01 3.3478776478690611e+00 
2342 15 1 1.0490890800591182e+00 -7.1428415998027262e+01 1.0000000000000000e+00 7.0897768108356782e+00 2.9750281745257006e+01 1.9037716573189352e+00 
4109 25 3 3.4387207658793817e-01 -4.7844261130113286e+04 1.0000000000000000e+00 2.5553068376048707e+01 6.6599259562754431e+00 5.2246763265071134e+00 
559 2 3 3.4387207658793817e-01 1.0881392026171325e+01 1.0000000000000000e+00 8.0746158276330959e+00 8.2212414944067227e+00 4.5246450810193313e+00 
531 2 3 1.0280000000070149e+00 4.8400068928947144e+02 1.0000000000000000e+00 2.9139443797048784e+01 2.5478285621360701e+01 3.9984285971706486e+00 
550 2 3 1.0280000000046576e+00 -1.4615518775985663e+02 1.0000000000000000e+00 2.9186925436431761e+01 2.5576256518185733e+01 3.9995814427569143e+00 
2347 15 3 1.0279999999929477e+00 -1.1818971365312084e+03 1.0000000000000000e+00 2.9232221105836810e+01 2.5493172100778260e+01 4.0534276475048765e+00 
866 4 3 5.5318305004155832e-01 -6.4254657269308373e+00 1.0000000000000000e+00 9.6240353263339884e+00 9.0488283057423615e+00 7.2663901201388699e+00 
2441 16 3 6.8774415317587634e-01 1.5758939962315225e+02 1.0000000000000000e+00 1.0368030454224177e+01 1.3836081839333493e+01 7.0820668459148512e+00 
164 1 3 6.8774415317587634e-01 -5.9296148913726361e+00 1.0000000000000000e+00 1.0368030454223936e+01 1.3836081839333159e+01 7.0820668459146230e+00 
145 1 3 3.4387207658793817e-01 9.4299316896669112e+01 1.0000000000000000e+00 1.9884839322874377e+01 1.5524365348282945e+01 6.2027775895299291e+00 
2278 15 3 1.0280000000000005e+00 2.4284748682284183e+02 1.0000000000000000e+00 2.7267705989615948e+01 1.9037880259989720e+01 6.8902445590106156e+00 
549 2 3 1.0279999999998473e+00 1.1847088141055588e+01 1.0000000000000000e+00 2.6980840347609497e+01 1.9116370726309409e+01 7.0438422061422390e+00 
2795 19 1 1.0490890800591182e+00 1.0875579726350455e+02 1.0000000000000000e+00 2.3179601922164913e+01 2.2515251674533893e+01 6.2735231245057994e+00 
941 4 3 5.5318305004165891e-01 -5.9323676379234109e+02 1.0000000000000000e+00 1.0889834842570126e+01 2.7426543957496893e+01 7.0941685411283224e+00 
181 1 1 1.0490890800591182e+00 -6.8758649242083692e+01 1.0000000000000000e+00 1.9158513861042344e+01 2.9650065363770942e+01 6.8406424417347349e+00 
489 2 1 1.2806420306713109e+00 -3.0645585736876467e+02 1.0000000000000000e+00 9.2438175404164156e+00 8.1508698977221332e+00 7.8672502869996954e+00 
1876 10 3 5.5318305004160173e-01 -1.6524886629162793e+03 1.0000000000000000e+00 1.7412021724543028e+01 9.0059952600847932e+00 7.3553336739657791e+00 
454 2 1 1.2806420306713588e+00 -7.0200851337961308e+02 1.0000000000000000e+00 1.7719990427910123e+01 1.0055021235737827e+01 7.6968414887133152e+00 
946 4 3 1.0280000000000882e+00 -8.5948652231718484e+01 1.0000000000000000e+00 2.7851247451412220e+01 1.9582660806957424e+01 7.7079237110084948e+00 
963 4 3 1.0280000000000016e+00 -7.3264279407748390e+01 1.0000000000000000e+00 2.7565288257589788e+01 1.9711180996491777e+01 7.8252045168587445e+00 
2306 15 3 6.8774415317587634e-01 5.1780356194222023e+01 1.0000000000000000e+00 9.4957837785074464e+00 2.1392204134567077e+01 8.7734691332598427e+00 
2288 15 3 6.8774415317587634e-01 -1.6454756592156258e+02 1.0000000000000000e+00 9.4957837785081427e+00 2.1392204134566501e+01 8.7734691332602619e+00 
2791 19 1 1.2806420306714221e+00 -2.9995444740903753e+02 1.0000000000000000e+00 1.0994174159805995e+01 2.6343356623922585e+01 7.4515847056265754e+00 
1052 4 1 1.1821848041337724e+00 -3.9093588774334012e+02 1.0000000000000000e+00 2.7546313041948686e+01 2.7079679881324633e+01 8.2091788040275873e+00 
154 1 3 7.0480544804098511e-01 3.1358707005970977e+01 1.0000000000000000e+00 2.7372736845208195e+01 2.8314663351993339e+01 8.8376767321500491e+00 
444 2 1 1.0490890800591182e+00 -8.1551537312829538e+01 1.0000000000000000e+00 2.8369561714126338e+01 4.2900211248500302e+00 9.3680344639582795e+00 
3086 21 3 1.0279999999968392e+00 9.9148579400656274e+01 1.0000000000000000e+00 1.3727168618643516e+01 6.3083868107593677e+00 1.0093841442705033e+01 
848 4 3 1.0280000000065068e+00 -7.7268980039261379e+01 1.0000000000000000e+00 1.3820102524900522e+01 6.2956277735779320e+00 1.0038572755046543e+01 
829 4 3 1.0279999999972054e+00 -5.1129151687015529e+01 1.0000000000000000e+00 1.3822191543394954e+01 6.3338206935069872e+00 1.0140509346435957e+01 
3614 23 3 3.4387207658793817e-01 -2.0247907661928668e+03 1.0000000000000000e+00 1.7288500926518537e+01 1.4224667382464162e+01 9.7410613563959974e+00 
1396 7 3 1.0279999999995595e+00 -5.6126032775656199e+02 1.0000000000000000e+00 2.6031930667824245e+01 1.6840654524743574e+01 9.2123759386268524e+00 
79 1 3 1.0279999999992233e+00 2.4266949759437184e+03 1.0000000000000000e+00 2.6373261690648580e+01 1.6723918788583063e+01 9.5551434404930795e+00 
57 1 1 1.0490890800591182e+00 6.3404578430559354e+01 1.0000000000000000e+00 1.9663121325496839e+01 1.8313424867235089e+01 1.0197094851526320e+01 
569 2 3 1.0279999999999410e+00 -3.3324811045794002e+02 1.0000000000000000e+00 2.5606374051760000e+01 1.7255942216943371e+01 1.0168874054710042e+01 
4435 26 3 1.0280000000004075e+00 -1.1034597263775913e+03 1.0000000000000000e+00 2.5866160294374488e+01 1.7635700469607908e+01 9.9793524536965670e+00 
134 1 1 1.0490890800591335e+00 -2.0119462118943776e+01 1.0000000000000000e+00 2.5027895721235261e+01 2.7513975218072119e+01 1.0739406105023786e+01 
203 1 1 1.1821848064418259e+00 -3.5195982374585668e+01 1.0000000000000000e+00 2.6855649095661455e+01 2.8013497310174237e+01 1.0099517360136501e+01 
200 1 1 1.0490890800592074e+00 -1.0155743543536083e+01 1.0000000000000000e+00 2.2285402035878800e+01 2.9826177684713507e+01 1.0501919472097688e+01 
1449 7 1 1.1821848038734790e+00 -3.2782649189594468e+02 1.0000000000000000e+00 2.8611183678401542e+01 2.8658017633212832e+01 9.3841927845930329e+00 
1328 6 1 1.0490890800591182e+00 -8.2010246437373530e+02 1.0000000000000000e+00 2.2863874429375265e+01 8.6417289495687344e-01 1.1016562650653297e+01 
2209 14 3 6.8774415317587634e-01 -1.3283048533633308e+04 1.0000000000000000e+00 1.1600212075611147e+00 2.0862158167633442e+00 1.2512396114174878e+01 
436 2 3 6.8774415317587634e-01 -2.3201747840036865e+03 1.0000000000000000e+00 1.1600212075610596e+00 2.0862158167632932e+00 1.2512396114174486e+01 
6610 42 3 3.4387207658793817e-01 -4.5585422908793247e+04 1.0000000000000000e+00 9.3558247689784988e+00 4.2696080463999824e+00 1.1424992640353363e+01 
3 0 1 1.0490890800591182e+00 -7.6404563558061454e+01 1.0000000000000000e+00 2.1251411254443934e+01 1.0317840587188840e+01 1.2332393805176721e+01 
945 4 3 1.0279999974039171e+00 -3.2855346081740061e+02 1.0000000000000000e+00 2.9122401676263358e+01 1.2185945863427845e+01 1.2603442273447129e+01 
9 0 3 1.0279999973576126e+00 2.6379758429732607e+02 1.0000000000000000e+00 2.9193117422326260e+01 1.2268916412944385e+01 1.2417692300629094e+01 
451 2 3 6.8774415317587634e-01 8.1470904506616435e+01 1.0000000000000000e+00 1.2186285520529111e+01 1.4660570553023938e+01 1.2346197715801480e+01 
452 2 3 6.8774415317587634e-01 -1.2104164063512735e+03 1.0000000000000000e+00 1.2186285520528546e+01 1.4660570553023513e+01 1.2346197715802120e+01 
61 1 3 1.0279999998885010e+00 2.1691254811834224e+02 1.0000000000000000e+00 2.4361695420993328e+01 1.3431640502913798e+01 1.1855609952583183e+01 
60 1 3 1.0279999998731733e+00 7.4512578390255533e+02 1.0000000000000000e+00 2.4392760142351360e+01 1.3530430784887667e+01 1.1789637143829026e+01 
59 1 3 1.0279999999466947e+00 -2.9222374472994730e+01 1.0000000000000000e+00 2.5005348808430671e+01 1.3573440547039016e+01 1.2251549845635852e+01 
92 1 1 1.0490890800591182e+00 -2.9462209392033643e+01 1.0000000000000000e+00 7.3230903491710508e+00 1.9540779992201468e+01 1.1550862235964845e+01 
99 1 3 1.0280000000097673e+00 2.7991264617200392e+02 1.0000000000000000e+00 2.7557445226036734e+01 1.9413651245258084e+01 1.1846699953288967e+01 
116 1 3 1.0279999999979732e+00 1.5983021013951685e+02 1.0000000000000000e+00 2.7659843000001690e+01 1.9434466140945407e+01 1.1816112900820855e+01 
494 2 3 1.0279999999944953e+00 -1.5252166599471170e+02 1.0000000000000000e+00 2.7635031221908857e+01 1.9427189987615389e+01 1.1921874732948764e+01 
1337 6 3 1.0280000000072995e+00 -5.8106763704631214e+02 1.0000000000000000e+00 5.7869895764093284e+00 2.1627270119151905e+01 1.1090397936635327e+01 
901 4 3 1.0280000000028511e+00 1.2355825343529027e+01 1.0000000000000000e+00 5.8267452457625302e+00 2.1724948283596881e+01 1.1117464423498932e+01 
1335 6 3 1.0279999999944878e+00 -3.0499386043992599e+03 1.0000000000000000e+00 5.7195138790603162e+00 2.1711604486109181e+01 1.1104141176366829e+01 
525 2 3 1.0280000001178267e+00 -6.3830380479974345e+01 1.0000000000000000e+00 1.8550456077322025e+01 2.3667232001178590e+01 1.2725399753944920e+01 
167 1 3 1.0279999985200938e+00 2.7300533496698228e+02 1.0000000000000000e+00 2.1608756153172781e+01 2.7749449062922174e+01 1.1717347572864144e+01 
184 1 3 1.0279999980188563e+00 1.3526627775953051e+02 1.0000000000000000e+00 2.1764021953675851e+01 2.7660106617765884e+01 1.1635229755957491e+01 
1809 9 3 1.0280000008759531e+00 5.4601697166004863e+02 1.0000000000000000e+00 2.1950284896372047e+01 2.8092578407827045e+01 1.2630881817200336e+01 
580 2 3 1.0279999942708222e+00 -7.5088477379738436e+01 1.0000000000000000e+00 1.8459319887353132e+01 2.9286346679040591e+01 1.2455138452471054e+01 
201 1 3 1.0280000027291090e+00 8.3846176878963121e+01 1.0000000000000000e+00 1.8385059780163228e+01 2.8941005749569499e+01 1.2247160689497882e+01 
165 1 3 1.0280000023540743e+00 4.8889799230408656e+01 1.0000000000000000e+00 1.9286993951419031e+01 2.8777614525715137e+01 1.2677558906942529e+01 
185 1 3 1.0279999955552235e+00 3.7449626173910133e+01 1.0000000000000000e+00 2.2761517509464827e+01 2.8175100351814095e+01 1.2320270456588609e+01 
635 3 1 1.0490890800591182e+00 5.6657683982474467e+01 1.0000000000000000e+00 2.5745393286858196e+01 2.9011474067593529e+01 1.1918716023352021e+01 
547 2 1 1.0490890800591182e+00 -6.4820166421899472e+01 1.0000000000000000e+00 2.8010223378725090e+01 2.8753994441134033e+01 1.2218642971144531e+01 
830 4 1 1.0490890800591182e+00 -7.0558139306305819e+01 1.0000000000000000e+00 1.9952182482830203e+01 7.8468955998818224e+00 1.4029852019839307e+01 
1290 6 3 1.0279999999998404e+00 -8.7175061138802477e+00 1.0000000000000000e+00 1.2669176055735901e+01 1.0531264220479859e+01 1.3217337659722231e+01 
3109 21 3 1.0279999999994303e+00 -5.8853383387651809e+02 1.0000000000000000e+00 1.2272583512733000e+01 1.0446295676732296e+01 1.2854329916417015e+01 
1 0 3 1.0280000000000948e+00 -2.4963033425753194e+00 1.0000000000000000e+00 1.1747562088003093e+01 1.1246534841040956e+01 1.3271744398184135e+01 
1524 8 3 1.0280000000002163e+00 -1.5858514094155189e+03 1.0000000000000000e+00 1.2217788484346487e+01 1.1439150752709281e+01 1.3466849926147743e+01 
437 2 3 1.0279999956004697e+00 -2.3228078712123687e+02 1.0000000000000000e+00 2.1733783206987198e+01 1.3087876180461844e+01 1.4393742587995957e+01 
6 0 1 1.0490890800591219e+00 2.7781828118383351e+02 1.0000000000000000e+00 2.3374889233547592e+01 1.1327183891498713e+01 1.3711521203744079e+01 
4912 30 3 1.0280000007829404e+00 -2.6094579744365470e+04 1.0000000000000000e+00 2.8642732478262140e+01 1.3109712938668077e+01 1.2767375306881595e+01 
3049 21 3 1.0280000028471246e+00 -3.1688833172573169e+02 1.0000000000000000e+00 2.1614108580479588e+01 1.3128126785054270e+01 1.4508414268610256e+01 
41 1 3 1.0279999998990814e+00 1.3881438517262669e+02 1.0000000000000000e+00 2.4207436783889857e+01 1.4566043012370820e+01 1.3515787585623450e+01 
438 2 3 1.0280000001466125e+00 -3.5807241725858745e+01 1.0000000000000000e+00 2.3817809154929453e+01 1.4252127832569670e+01 1.4420472100496244e+01 
42 1 3 1.0280000000054681e+00 5.5029044485977280e+01 1.0000000000000000e+00 2.4488770313155747e+01 1.4537504649307571e+01 1.3347116430473546e+01 
8 0 3 1.0279999991282460e+00 2.9816023931724732e+02 1.0000000000000000e+00 2.9479433130291035e+01 1.3652753114214180e+01 1.3554111438712550e+01 
62 1 3 1.0279999945544582e+00 -1.7964591408683738e+01 1.0000000000000000e+00 2.8980882437258579e+01 1.5221928275164981e+01 1.3616869956230781e+01 
44 1 3 1.0279999858602751e+00 -1.3571522439700598e+02 1.0000000000000000e+00 2.8708003470635578e+01 1.6192607396110350e+01 1.3395577092265814e+01 
43 1 3 1.0279999926548518e+00 2.4025070408998950e+01 1.0000000000000000e+00 2.8753999900988926e+01 1.6041079204629952e+01 1.3254131076881333e+01 
886 4 1 1.0490890800591182e+00 8.1366301691986550e+01 1.0000000000000000e+00 2.3439793778191568e+01 1.8518166638299078e+01 1.4379793191685424e+01 
1839 10 3 1.0280000004334260e+00 -5.5578184180651078e+01 1.0000000000000000e+00 1.4423348389071414e+01 2.0394156103981320e+01 1.2818537633171259e+01 
469 2 3 1.0279999997126361e+00 -3.9688082407888444e+01 1.0000000000000000e+00 1.3862201629160600e+01 1.9083364373860192e+01 1.4223949416515755e+01 
91 1 3 1.0280000002511163e+00 -4.3932444390642708e+01 1.0000000000000000e+00 1.3460132894818488e+01 1.8985488819484775e+01 1.4273666916076866e+01 
109 1 3 1.0279999999678617e+00 1.8656808562520462e+02 1.0000000000000000e+00 1.4621024166345483e+01 2.0759751275524817e+01 1.2793527120748990e+01 
110 1 3 1.0279999996725753e+00 8.1455043767014459e+01 1.0000000000000000e+00 1.4369818486986167e+01 2.0905058427145434e+01 1.2971251933015479e+01 
127 1 3 1.0279999997954110e+00 1.6237047937197826e+02 1.0000000000000000e+00 1.5593213881563967e+01 2.3859299217714149e+01 1.3154730888549812e+01 
1801 9 3 1.0280000008889090e+00 4.7298215236563571e+01 1.0000000000000000e+00 1.5369846365746158e+01 2.4050448670978916e+01 1.2948456523357175e+01 
128 1 3 1.0279999993610967e+00 1.0239108855834874e+02 1.0000000000000000e+00 1.5512510765347553e+01 2.4202443084777396e+01 1.2988479033721303e+01 
543 2 3 1.0279999997069975e+00 -1.3789202225466681e+02 1.0000000000000000e+00 1.8662944229832963e+01 2.3457961647982810e+01 1.2788002346669789e+01 
5715 38 3 1.0280000002303726e+00 4.5368962158323495e+02 1.0000000000000000e+00 1.8021523779285570e+01 2.3830979570149530e+01 1.3759675371614291e+01 
940 4 3 1.0280000002459333e+00 -7.6685466139668529e+02 1.0000000000000000e+00 1.9191176997084728e+01 2.3793951623279000e+01 1.4149164173133144e+01 
129 1 3 1.0280000017460664e+00 1.2553303787660388e+02 1.0000000000000000e+00 1.9096765742462484e+01 2.4299047675603770e+01 1.4195200681144671e+01 
513 2 3 7.3927178933762150e-01 -6.6289425698607403e+01 1.0000000000000000e+00 2.8075197629222767e+01 2.3078464118591015e+01 1.4263633310722600e+01 
476 2 3 7.3927178933727933e-01 5.8309479292822289e+02 1.0000000000000000e+00 2.8075197629221879e+01 2.3078464118592844e+01 1.4263633310722071e+01 
5443 37 1 1.0490890800591302e+00 -3.7589654624034210e+02 1.0000000000000000e+00 1.2630751266247286e+01 2.5471780590329995e+01 1.3551624729837075e+01 
147 1 3 1.0279999844497163e+00 2.7430664283806948e+02 1.0000000000000000e+00 1.8598256118747670e+01 2.6002371933514031e+01 1.3835271117783018e+01 
183 1 3 1.0279999960930368e+00 -1.7454632935015624e+02 1.0000000000000000e+00 1.8707405951380068e+01 2.7705121527150293e+01 1.3898190833220960e+01 
1858 10 3 1.0279999777703304e+00 -8.7455258824195369e+01 1.0000000000000000e+00 1.8031170495535399e+01 2.6707783142414574e+01 1.3630733570269959e+01 
166 1 3 1.0280000534228231e+00 8.1453802768732814e+01 1.0000000000000000e+00 1.8785066071439090e+01 2.6498781799245112e+01 1.4323244646632242e+01 
544 2 3 1.0280000157460125e+00 -1.0877176639504356e+02 1.0000000000000000e+00 1.9078669349334227e+01 2.7672323485906610e+01 1.2812961043560101e+01 
564 2 3 1.0280000142071084e+00 -2.4181021609287495e+02 1.0000000000000000e+00 2.3540927180358196e+01 2.6529618772434254e+01 1.2777645917628465e+01 
168 1 3 1.0279999711951902e+00 7.5664085742845515e+01 1.0000000000000000e+00 2.3899607003369226e+01 2.7937744608149742e+01 1.3711909705427871e+01 
1395 7 3 1.0280000660936641e+00 -4.5211931394050040e+01 1.0000000000000000e+00 2.3352033565977674e+01 2.6552623233666580e+01 1.3402467505371009e+01 
186 1 3 1.0279999772474360e+00 3.6301690166163823e+01 1.0000000000000000e+00 2.4335271298707880e+01 2.7770621384410521e+01 1.3691574512143671e+01 
2309 15 3 1.0280000027749965e+00 -1.2468111531611275e+02 1.0000000000000000e+00 2.4529131691396948e+01 2.6853950674988667e+01 1.3098027587845545e+01 
1860 10 1 1.0490890800591182e+00 2.4412710130836594e+01 1.0000000000000000e+00 2.7433433689134759e+01 2.6852431682778217e+01 1.3561206547491832e+01 
1246 5 3 3.4387207658793817e-01 4.2282278967400771e+02 1.0000000000000000e+00 1.8328944601133234e+01 5.4871393188352648e+00 1.6078153967643438e+01 
1247 5 3 3.4387207658793817e-01 7.6113615003634351e+01 1.0000000000000000e+00 2.8441821010779016e+01 7.1020447361114769e+00 1.5098402116474013e+01 
833 4 3 1.0280000026029894e+00 -5.6316043271298248e+01 1.0000000000000000e+00 2.1799789830258078e+01 1.2992157126969211e+01 1.4709100596028069e+01 
1334 6 3 1.0279999999805598e+00 -1.2633192806541026e+03 1.0000000000000000e+00 1.9354393361033065e+01 1.4741505125667327e+01 1.6157622136673872e+01 
2290 15 3 1.0279999998592437e+00 -1.2994811969253783e+02 1.0000000000000000e+00 1.8848443882427674e+01 1.4850365675070741e+01 1.5551689389025778e+01 
5 0 3 1.0280000070016373e+00 -3.5610162842016045e+01 1.0000000000000000e+00 2.3249040252566758e+01 1.4271277689146936e+01 1.5604047662314768e+01 
419 2 3 1.0279999924944876e+00 -7.9712025392317770e+01 1.0000000000000000e+00 2.3675120280919383e+01 1.4670943679834309e+01 1.5587032462007960e+01 
76 1 3 1.0280000002164584e+00 1.0814269030920647e+02 1.0000000000000000e+00 1.8828852242324619e+01 1.5697243165406194e+01 1.5982791417796761e+01 
1282 6 1 1.0490890800591202e+00 -9.0303267086370909e+01 1.0000000000000000e+00 2.6999240005796143e+01 1.5561084840356997e+01 1.5314778354386799e+01 
63 1 3 1.0280001591618193e+00 -4.4912031706020606e+01 1.0000000000000000e+00 2.9735206558373683e+01 1.6263937501735430e+01 1.4808313000673509e+01 
910 4 3 1.0279999385402723e+00 -1.0052269654407087e+02 1.0000000000000000e+00 2.9813153059442964e+01 1.6351488326036307e+01 1.4781476635089456e+01 
55 1 3 1.0279999999831551e+00 3.1041816610160115e+01 1.0000000000000000e+00 1.3477571217784801e+01 1.7860537088267247e+01 1.4594299829617734e+01 
73 1 3 1.0279999991529947e+00 -6.8923978682818145e+01 1.0000000000000000e+00 1.3697752268580686e+01 1.7786221140201732e+01 1.5233324475902359e+01 
1802 9 3 1.0280000029667669e+00 -1.1118042711367985e+02 1.0000000000000000e+00 1.3894570228554652e+01 1.8743783962331467e+01 1.5958256543481577e+01 
471 2 3 1.0279999998639386e+00 7.5898967180135966e+00 1.0000000000000000e+00 1.6839147585664886e+01 1.8671777293120655e+01 1.5697011397724195e+01 
1377 7 3 1.0279999936341724e+00 9.0351664312800872e-01 1.0000000000000000e+00 2.9780740496718600e+01 1.8651336282581589e+01 1.5157690503312395e+01 
495 2 3 1.0280000134623486e+00 -2.1713149842132134e+02 1.0000000000000000e+00 2.9910469650173404e+01 1.8637306151446253e+01 1.5984860476719062e+01 
920 4 3 1.0279999974059468e+00 -6.4578857169923893e+01 1.0000000000000000e+00 1.5758091005473565e+01 2.0072670242371338e+01 1.5354190611609440e+01 
488 2 3 1.0280000013909700e+00 -1.1770567858302238e+02 1.0000000000000000e+00 1.6632631745593727e+01 1.9289688428702362e+01 1.5574580815016008e+01 
1320 6 1 1.0490890800591313e+00 1.3459457317278145e+02 1.0000000000000000e+00 2.5981353453902543e+01 1.9978568582701467e+01 1.5044482375568863e+01 
478 2 3 1.0280000014513981e+00 1.6693326461152674e+02 1.0000000000000000e+00 2.9511407763871432e+01 1.9506736638148617e+01 1.6074450027118012e+01 
100 1 3 1.0280000140247325e+00 -8.8533810902692039e+01 1.0000000000000000e+00 2.9181209503611225e+01 1.9369684862052718e+01 1.5418996428278309e+01 
542 2 3 1.0280000015722570e+00 -8.4769256212003778e+00 1.0000000000000000e+00 1.5250076510074582e+01 2.0762994725693751e+01 1.4849121637225297e+01 
1353 6 3 1.0280000003273153e+00 -1.8775789395932208e+02 1.0000000000000000e+00 1.5347642689877503e+01 2.1296217928535508e+01 1.4902636689030171e+01 
487 2 1 1.0490890800591182e+00 -1.4306400416984244e+00 1.0000000000000000e+00 1.8530640366763055e+01 2.1140525754390179e+01 1.5344492068217621e+01 
505 2 1 1.0490890800591188e+00 -1.6363367047138416e+02 1.0000000000000000e+00 2.4223360588614351e+01 2.1046723439641301e+01 1.5464091364907341e+01 
4802 30 1 1.1630952976445310e+00 -1.4834610560952926e+04 1.0000000000000000e+00 2.9487311314262161e+01 2.2312080382645927e+01 1.4699834248988042e+01 
130 1 3 1.0279999897083678e+00 2.1669059418850085e+02 1.0000000000000000e+00 1.4703305653629194e+01 2.3952679575613590e+01 1.5035497328803116e+01 
2289 15 3 1.0280000002354128e+00 -5.1182973016142583e+01 1.0000000000000000e+00 1.5115731560340897e+01 2.2656339130690686e+01 1.5462157208794498e+01 
937 4 3 1.0280000026785012e+00 -3.1862612635830544e+01 1.0000000000000000e+00 1.5274105837223534e+01 2.2824917349984830e+01 1.5907825374174124e+01 
524 2 3 1.0279999848896917e+00 -9.6526876454244487e+01 1.0000000000000000e+00 1.4686635799511070e+01 2.5344538406900128e+01 1.5471335944941353e+01 
4379 26 3 1.0279999981308694e+00 -1.1477009938298757e+02 1.0000000000000000e+00 1.4597582625940673e+01 2.5371089606484269e+01 1.5090805847465626e+01 
523 2 3 1.0280000433625218e+00 -6.1438303305217914e+01 1.0000000000000000e+00 1.5400885590653782e+01 2.4971100651094559e+01 1.5182092234732142e+01 
939 4 1 1.0490890800600441e+00 -3.2690127748179998e+02 1.0000000000000000e+00 1.7294738637953078e+01 2.6158447870281645e+01 1.6299906517337451e+01 
561 2 1 1.0490890800614459e+00 1.7256294862861189e+01 1.0000000000000000e+00 2.2790518482829132e+01 2.6137516362189547e+01 1.5801476286727748e+01 
560 2 1 1.0490890800591182e+00 4.0111666517262343e+01 1.0000000000000000e+00 2.0500757665950353e+01 2.9330010926841474e+01 1.5586615774682812e+01 
562 2 1 1.0490890800592161e+00 -3.4453413375688612e+01 1.0000000000000000e+00 2.5233550216303438e+01 2.8207831565090018e+01 1.6108070703460484e+01 
3444 21 1 1.0490890800591182e+00 -9.6152273207215524e+02 1.0000000000000000e+00 1.1001189468575401e+01 1.0221538537010870e+00 1.6827512892457083e+01 
3051 21 3 3.4387207658793817e-01 -4.6965182705768979e+02 1.0000000000000000e+00 2.9232172904789195e+01 3.8259047986425356e+00 1.7357199192163829e+01 
3427 21 3 1.0280000000006586e+00 -6.2778388961157464e+02 1.0000000000000000e+00 1.3083783885662729e+01 9.2978634558210143e+00 1.7869820373193587e+01 
3154 21 3 1.0279999999999727e+00 1.1922559126448670e+02 1.0000000000000000e+00 1.3161061527671730e+01 8.7687314141849200e+00 1.7699985892305190e+01 
2674 19 1 1.0490890800591237e+00 -6.7360574847804776e+02 1.0000000000000000e+00 2.7292477705353200e+01 7.6891983612393986e+00 1.7998637731272730e+01 
1680 8 3 1.0280000071535575e+00 -1.9223693387901200e+01 1.0000000000000000e+00 2.3979075905578636e+01 1.4580941994426466e+01 1.7479864696994710e+01 
1230 5 3 1.0280000050716218e+00 1.1014456810457375e+01 1.0000000000000000e+00 2.3967103968997812e+01 1.4402020654431475e+01 1.7396263083314409e+01 
888 4 1 1.0490890800594430e+00 6.3392221185069536e+02 1.0000000000000000e+00 2.9826192891914765e+01 1.3740938981759152e+01 1.7362941920469265e+01 
435 2 1 1.0490890800591226e+00 -4.1930769532869937e+02 1.0000000000000000e+00 1.5802702123694166e+01 1.5827464459737485e+01 1.6979104854029593e+01 
472 2 3 1.0280000000448621e+00 -4.6399626762539219e+02 1.0000000000000000e+00 1.8399124550565876e+01 1.5032611777145558e+01 1.6494934181773424e+01 
1722 8 3 1.0280000003252860e+00 1.2326054958345094e+02 1.0000000000000000e+00 1.9406344373031782e+01 1.6140556882633842e+01 1.7815234491507603e+01 
870 4 3 1.0279999998670994e+00 -4.1843411291466532e+02 1.0000000000000000e+00 2.1862052969717361e+01 1.5815021785112100e+01 1.6904249019203323e+01 
1283 6 3 1.0280000012328638e+00 -6.0822928569663318e+01 1.0000000000000000e+00 2.1643132437814767e+01 1.6188413021521452e+01 1.7686324331665201e+01 
832 4 3 1.0280000018615996e+00 -2.7220321745083851e+02 1.0000000000000000e+00 2.1660751020192244e+01 1.6124571926734713e+01 1.7751346254201991e+01 
5842 39 3 1.0279999920949050e+00 -3.8084574541893094e+03 1.0000000000000000e+00 2.2672748146692914e+01 1.5185434797413254e+01 1.6594282703111457e+01 
75 1 3 1.0279999941402038e+00 3.5916822899914456e+02 1.0000000000000000e+00 1.6793734708698313e+01 1.8292616740909562e+01 1.6405560164807554e+01 
3121 21 3 1.0280000188091369e+00 5.2834176976898448e+02 1.0000000000000000e+00 1.5741311747458624e+01 1.8391813317409440e+01 1.7171694657147373e+01 
93 1 3 1.0279999988461446e+00 1.0338042719513014e+02 1.0000000000000000e+00 1.5499968214405856e+01 1.8305705157559380e+01 1.7100869865175540e+01 
475 2 1 1.0490890800622636e+00 -3.1092527147396467e+01 1.0000000000000000e+00 2.7939334130423056e+01 1.6949916901476684e+01 1.6404064454723873e+01 
1857 10 3 1.0280000031816883e+00 1.6229781090417936e+02 1.0000000000000000e+00 1.4533402807531960e+01 1.8869931637106440e+01 1.6402316740594650e+01 
1351 6 1 1.0490890800591273e+00 -5.4803496512678251e+01 1.0000000000000000e+00 1.7257665886519909e+01 2.0155154815364668e+01 1.8087716308753954e+01 
3045 21 1 1.1821848044098657e+00 -2.7055987411536540e+02 1.0000000000000000e+00 1.9728232922554252e+01 1.9753541996511771e+01 1.6396846568243241e+01 
1300 6 1 1.0490890800591182e+00 -1.9654337866170135e+02 1.0000000000000000e+00 2.2074850461309946e+01 1.8822584248316666e+01 1.6654457625496971e+01 
1301 6 1 1.0490890800597890e+00 -1.5137084778662276e+02 1.0000000000000000e+00 2.5275581377201021e+01 2.0147860923025551e+01 1.6907782519930645e+01 
925 4 1 1.0490890800597548e+00 -2.2520561760491989e+02 1.0000000000000000e+00 2.7272982556028087e+01 1.8791211862871947e+01 1.6925645198949915e+01 
506 2 3 1.0280000010705816e+00 8.0499647110777062e+00 1.0000000000000000e+00 1.4657585801808381e+01 2.0972751261429956e+01 1.7102258331860941e+01 
919 4 3 1.0280000011429578e+00 6.1516455784290599e+01 1.0000000000000000e+00 1.4651817802929552e+01 2.0939215440934493e+01 1.7014479938081511e+01 
955 4 3 1.0279999998824698e+00 -2.0625660575833081e+01 1.0000000000000000e+00 1.4877566378135338e+01 2.2339748294955832e+01 1.7495722645476651e+01 
507 2 3 1.0279999987275303e+00 -3.0508379706254817e+02 1.0000000000000000e+00 1.5703401994409850e+01 2.1736329366112194e+01 1.6866623842469291e+01 
2307 15 3 7.0480544693960467e-01 -3.2464677571035202e+02 1.0000000000000000e+00 2.0414583096937470e+01 2.0630708675805629e+01 1.7239357438906016e+01 
1352 6 1 1.1821848044100065e+00 -2.0430003194834507e+02 1.0000000000000000e+00 2.0204067424056500e+01 2.1839929919011482e+01 1.6573182050007372e+01 
2220 14 3 1.0279999897685799e+00 4.6462833612896674e+01 1.0000000000000000e+00 2.7718440850169532e+01 2.1342650342047573e+01 1.7437553214672807e+01 
1791 9 3 1.0279999911113289e+00 -1.2356175690799277e+02 1.0000000000000000e+00 2.7838320739528005e+01 2.1318455799194837e+01 1.7488828964838316e+01 
1775 9 3 1.0280000757050531e+00 -3.9349930479757944e+02 1.0000000000000000e+00 2.7024513348817091e+01 2.1543638327850577e+01 1.8020434328653092e+01 
563 2 1 1.0490890800591182e+00 3.0007702261008490e+02 1.0000000000000000e+00 2.3319173518343824e+01 2.3926642956862665e+01 1.7180002111336968e+01 
2722 19 1 1.0490890800591215e+00 -4.5256822857129464e+02 1.0000000000000000e+00 2.8581212693650052e+01 2.3886157997055800e+01 1.7507260610565488e+01 
151 1 3 1.0279999932319779e+00 5.6253205194977554e+01 1.0000000000000000e+00 2.6479297749262823e+01 2.5896315362499614e+01 1.6705036665217506e+01 
980 4 3 1.0279999913621849e+00 2.8809682772288250e+00 1.0000000000000000e+00 2.6663431400625598e+01 2.5689669336085078e+01 1.6687549533183397e+01 
1428 7 3 1.0280000372364084e+00 -1.9082090571489232e+01 1.0000000000000000e+00 2.3848304496047952e+01 2.7661030030408210e+01 1.8115199364885036e+01 
548 2 3 1.0280000037751009e+00 -8.0302744110380615e+01 1.0000000000000000e+00 2.7103810752987979e+01 2.6575828192252374e+01 1.7006570804661596e+01 
1895 10 1 1.0490890800591266e+00 -3.0533163199869196e+03 1.0000000000000000e+00 2.9437088494568830e+01 2.7366335696824770e+01 1.6539523334617805e+01 
1442 7 1 1.0490890800591182e+00 -1.9892586666087044e+02 1.0000000000000000e+00 1.6950538132179556e+01 2.9269334371456075e+01 1.8154469509304764e+01 
2798 19 1 1.0490890800592008e+00 -9.0559986771431568e+02 1.0000000000000000e+00 1.9326761245913566e+01 2.9788570045238302e+01 1.8037248153982642e+01 