LAMMPS data file via write_data, version 30 Jul 2016, timestep = 100400000

5572 atoms
8 atom types

0.0000000000000000e+00 6.0000000000000000e+01 xlo xhi
0.0000000000000000e+00 6.0000000000000000e+01 ylo yhi
0.0000000000000000e+00 6.0000000000000000e+01 zlo zhi

Masses

1 3.896
2 8.3
3 4.31
4 28.378
5 28.378
6 28.378
7 28.378
8 28.378

Atoms # meso-molecular

847 4 3 3.4387207658793817e-01 1.1792675261165807e+02 1.0000000000000000e+00 7.5525540644949878e+00 6.4977093122864549e+00 2.6421325555203434e-01 
1056 4 3 6.8774415317587634e-01 1.1008647425973342e+02 1.0000000000000000e+00 2.9336661538603131e+01 2.5332742693642249e+01 5.8936845388770909e-01 
1413 7 3 6.8774415317587634e-01 -1.6928882496018321e+01 1.0000000000000000e+00 2.9336661538604375e+01 2.5332742693641862e+01 5.8936845388769787e-01 
1244 5 3 3.4387207658793817e-01 -1.9446210043337700e+01 1.0000000000000000e+00 1.0919974933455977e+01 4.3872102152799547e-02 1.9261271563036066e+00 
77 1 1 1.0490890800591182e+00 2.7199495634854275e+03 1.0000000000000000e+00 2.9518295088907660e+01 1.9166810987696927e+01 2.9603812412747952e+00 
2308 15 3 3.4387207658793817e-01 1.0382887805013232e+02 1.0000000000000000e+00 1.2578964868009999e+01 2.4988520515778070e+01 3.3194537867553633e+00 
2328 15 3 3.4387207658793817e-01 4.7816074719814986e+02 1.0000000000000000e+00 1.9393385513625741e+01 2.5403173867289809e+01 3.2896827241576894e+00 
526 2 3 3.4387207658793817e-01 8.0586714877545319e+01 1.0000000000000000e+00 5.4858648676867006e+00 2.7347364973859648e+01 2.3165449494250896e+00 
1523 8 3 3.4387207658793817e-01 2.5184603411931846e+02 1.0000000000000000e+00 1.1955623627498987e+01 2.7958940355107146e+01 3.3478776478690611e+00 
2342 15 1 1.0490890800591182e+00 -7.1428415998027262e+01 1.0000000000000000e+00 7.0897768108356782e+00 2.9750281745257006e+01 1.9037716573189352e+00 
4109 25 3 3.4387207658793817e-01 -4.7844261130113286e+04 1.0000000000000000e+00 2.5553068376048707e+01 6.6599259562754431e+00 5.2246763265071134e+00 
559 2 3 3.4387207658793817e-01 1.0881392026171325e+01 1.0000000000000000e+00 8.0746158276330959e+00 8.2212414944067227e+00 4.5246450810193313e+00 
531 2 3 1.0280000000066747e+00 4.8400068928947144e+02 1.0000000000000000e+00 2.9139443797028946e+01 2.5478285621326638e+01 3.9984285971649340e+00 
550 2 3 1.0280000000057845e+00 -1.4615518775985663e+02 1.0000000000000000e+00 2.9186925436474873e+01 2.5576256518147744e+01 3.9995814427772269e+00 
2347 15 3 1.0279999999953386e+00 -1.1818971365312084e+03 1.0000000000000000e+00 2.9232221105810087e+01 2.5493172100750186e+01 4.0534276474815618e+00 
866 4 3 5.5318305004155854e-01 -6.4254657269308373e+00 1.0000000000000000e+00 9.6240353263339884e+00 9.0488283057423615e+00 7.2663901201388699e+00 
2441 16 3 6.8774415317587634e-01 1.5758939962315225e+02 1.0000000000000000e+00 1.0368030454224177e+01 1.3836081839333159e+01 7.0820668459148512e+00 
164 1 3 6.8774415317587634e-01 -5.9296148913726361e+00 1.0000000000000000e+00 1.0368030454223936e+01 1.3836081839333493e+01 7.0820668459146230e+00 
145 1 3 3.4387207658793817e-01 9.4299316896669112e+01 1.0000000000000000e+00 1.9884839322874377e+01 1.5524365348282945e+01 6.2027775895299291e+00 
2278 15 3 1.0280000000000533e+00 2.4284748682284183e+02 1.0000000000000000e+00 2.7267705989615948e+01 1.9037880259989720e+01 6.8902445590102221e+00 
549 2 3 1.0279999999998968e+00 1.1847088141055588e+01 1.0000000000000000e+00 2.6980840347609814e+01 1.9116370726309409e+01 7.0438422061415666e+00 
2795 19 1 1.0490890800591182e+00 1.0875579726350455e+02 1.0000000000000000e+00 2.3179601922164913e+01 2.2515251674533893e+01 6.2735231245057994e+00 
941 4 3 5.5318305004165924e-01 -5.9323676379234109e+02 1.0000000000000000e+00 1.0889834842570126e+01 2.7426543957496893e+01 7.0941685411283224e+00 
181 1 1 1.0490890800591182e+00 -6.8758649242083692e+01 1.0000000000000000e+00 1.9158513861042344e+01 2.9650065363770942e+01 6.8406424417347349e+00 
489 2 1 1.2806420306713111e+00 -3.0645585736876467e+02 1.0000000000000000e+00 9.2438175404164156e+00 8.1508698977221332e+00 7.8672502869996936e+00 
1876 10 3 5.5318305004161017e-01 -1.6524886629162793e+03 1.0000000000000000e+00 1.7412021724543028e+01 9.0059952600847932e+00 7.3553336739657791e+00 
454 2 1 1.2806420306713684e+00 -7.0200851337961308e+02 1.0000000000000000e+00 1.7719990427910123e+01 1.0055021235737803e+01 7.6968414887133152e+00 
946 4 3 1.0280000000001410e+00 -8.5948652231718484e+01 1.0000000000000000e+00 2.7851247451412327e+01 1.9582660806957424e+01 7.7079237110077754e+00 
963 4 3 1.0279999999999214e+00 -7.3264279407748390e+01 1.0000000000000000e+00 2.7565288257589788e+01 1.9711180996491777e+01 7.8252045168585020e+00 
2306 15 3 6.8774415317587634e-01 5.1780356194222023e+01 1.0000000000000000e+00 9.4957837785081427e+00 2.1392204134566501e+01 8.7734691332598427e+00 
2288 15 3 6.8774415317587634e-01 -1.6454756592156258e+02 1.0000000000000000e+00 9.4957837785074464e+00 2.1392204134567077e+01 8.7734691332602619e+00 
2791 19 1 1.2806420306714226e+00 -2.9995444740903753e+02 1.0000000000000000e+00 1.0994174159805995e+01 2.6343356623922585e+01 7.4515847056265754e+00 
1052 4 1 1.1821848044102026e+00 -3.9093588774334012e+02 1.0000000000000000e+00 2.7546314181279755e+01 2.7079671775081842e+01 8.2091746786963675e+00 
154 1 3 7.0480544693737190e-01 3.1358707005970977e+01 1.0000000000000000e+00 2.7372757959478225e+01 2.8314684108692962e+01 8.8376214035855227e+00 
444 2 1 1.0490890800591182e+00 -8.1551537312829538e+01 1.0000000000000000e+00 2.8369561714126338e+01 4.2900211248500302e+00 9.3680344639582795e+00 
3086 21 3 1.0279999999964446e+00 9.9148579400656274e+01 1.0000000000000000e+00 1.3727168618638670e+01 6.3083868107644419e+00 1.0093841442716601e+01 
848 4 3 1.0280000000041591e+00 -7.7268980039261379e+01 1.0000000000000000e+00 1.3820102524891615e+01 6.2956277735670474e+00 1.0038572755009003e+01 
829 4 3 1.0279999999960099e+00 -5.1129151687015529e+01 1.0000000000000000e+00 1.3822191543378857e+01 6.3338206935146841e+00 1.0140509346442331e+01 
3614 23 3 3.4387207658793817e-01 -2.0247907661928668e+03 1.0000000000000000e+00 1.7288500926518537e+01 1.4224667382464162e+01 9.7410613563959974e+00 
1396 7 3 1.0280000000006428e+00 -5.6126032775656199e+02 1.0000000000000000e+00 2.6031930667824245e+01 1.6840654524743574e+01 9.2123759386275470e+00 
79 1 3 1.0280000000001344e+00 2.4266949759437184e+03 1.0000000000000000e+00 2.6373261690647457e+01 1.6723918788586218e+01 9.5551434404888962e+00 
57 1 1 1.0490890800591182e+00 6.3404578430559354e+01 1.0000000000000000e+00 1.9663121325496839e+01 1.8313424867235089e+01 1.0197094851526320e+01 
569 2 3 1.0280000000008351e+00 -3.3324811045794002e+02 1.0000000000000000e+00 2.5606374051760000e+01 1.7255942216943371e+01 1.0168874054707102e+01 
4435 26 3 1.0279999999998910e+00 -1.1034597263775913e+03 1.0000000000000000e+00 2.5866160294374488e+01 1.7635700469610484e+01 9.9793524536964036e+00 
134 1 1 1.0490890800591182e+00 -2.0119462118943776e+01 1.0000000000000000e+00 2.5027806005779023e+01 2.7514044752545075e+01 1.0739045255128657e+01 
203 1 1 1.1821848044100645e+00 -3.5195982374585668e+01 1.0000000000000000e+00 2.6855801951564722e+01 2.8013530915773167e+01 1.0099519082717620e+01 
200 1 1 1.0490890800591182e+00 -1.0155743544804611e+01 1.0000000000000000e+00 2.2285587575524850e+01 2.9825859334693632e+01 1.0500982452033611e+01 
1449 7 1 1.1821848044079242e+00 -3.2782649189594468e+02 1.0000000000000000e+00 2.8611185604791682e+01 2.8658018167350210e+01 9.3841936347034434e+00 
1328 6 1 1.0490890800591182e+00 -8.2010246437373530e+02 1.0000000000000000e+00 2.2863874429375265e+01 8.6417289495687344e-01 1.1016562650653297e+01 
2209 14 3 6.8774415317587634e-01 -1.3283048533633308e+04 1.0000000000000000e+00 1.1600212075610596e+00 2.0862158167633442e+00 1.2512396114174486e+01 
436 2 3 6.8774415317587634e-01 -2.3201747840036865e+03 1.0000000000000000e+00 1.1600212075611147e+00 2.0862158167632932e+00 1.2512396114174878e+01 
6610 42 3 3.4387207658793817e-01 -4.5585422908793247e+04 1.0000000000000000e+00 9.3558247689784988e+00 4.2696080463999824e+00 1.1424992640353363e+01 
3 0 1 1.0490890800591182e+00 -7.6404563558061454e+01 1.0000000000000000e+00 2.1251411254443934e+01 1.0317840587188840e+01 1.2332393805176721e+01 
945 4 3 1.0280000000034102e+00 -3.2855346081740061e+02 1.0000000000000000e+00 2.9122399432569956e+01 1.2185979613093712e+01 1.2603435628452557e+01 
9 0 3 1.0280000000048826e+00 2.6379758429732607e+02 1.0000000000000000e+00 2.9193099448075341e+01 1.2268931626847795e+01 1.2417725633888530e+01 
451 2 3 6.8774415317587634e-01 8.1470904506616435e+01 1.0000000000000000e+00 1.2186285520529111e+01 1.4660570553023938e+01 1.2346197715801480e+01 
452 2 3 6.8774415317587634e-01 -1.2104164063512735e+03 1.0000000000000000e+00 1.2186285520528546e+01 1.4660570553023513e+01 1.2346197715802120e+01 
61 1 3 1.0279999999944687e+00 2.1691254811834224e+02 1.0000000000000000e+00 2.4361696754870302e+01 1.3431642243479278e+01 1.1855611773552546e+01 
60 1 3 1.0279999999936984e+00 7.4512578390255533e+02 1.0000000000000000e+00 2.4392761108029610e+01 1.3530431300584111e+01 1.1789639835533272e+01 
59 1 3 1.0280000000069016e+00 -2.9222374472994730e+01 1.0000000000000000e+00 2.5005346004551456e+01 1.3573440793985780e+01 1.2251548883154552e+01 
92 1 1 1.0490890800591182e+00 -2.9462209392033643e+01 1.0000000000000000e+00 7.3230903491710508e+00 1.9540779992201468e+01 1.1550862235964845e+01 
99 1 3 1.0280000000076586e+00 2.7991264617200392e+02 1.0000000000000000e+00 2.7557445226022587e+01 1.9413651245256361e+01 1.1846699953288693e+01 
116 1 3 1.0279999999987164e+00 1.5983021013951685e+02 1.0000000000000000e+00 2.7659843000072492e+01 1.9434466140945407e+01 1.1816112900880716e+01 
494 2 3 1.0279999999973275e+00 -1.5252166599471170e+02 1.0000000000000000e+00 2.7635031221932749e+01 1.9427189987615389e+01 1.1921874732909357e+01 
1337 6 3 1.0280000000020781e+00 -5.8106763704631214e+02 1.0000000000000000e+00 5.7869895763683852e+00 2.1627270119079594e+01 1.1090397936602459e+01 
901 4 3 1.0279999999994611e+00 1.2355825343529027e+01 1.0000000000000000e+00 5.8267452457521047e+00 2.1724948283677005e+01 1.1117464423514496e+01 
1335 6 3 1.0279999999964797e+00 -3.0499386043992599e+03 1.0000000000000000e+00 5.7195138791203579e+00 2.1711604486109181e+01 1.1104141176366829e+01 
525 2 3 1.0280000000056526e+00 -6.3830380479974345e+01 1.0000000000000000e+00 1.8550452887434339e+01 2.3667240568905488e+01 1.2725390386722527e+01 
167 1 3 1.0280000000336740e+00 2.7300533496698228e+02 1.0000000000000000e+00 2.1608704243916549e+01 2.7749253561764025e+01 1.1717473154847346e+01 
184 1 3 1.0280000000398568e+00 1.3526627775953051e+02 1.0000000000000000e+00 2.1763952272234725e+01 2.7659960005455648e+01 1.1635336532374788e+01 
1809 9 3 1.0279999999860521e+00 5.4601697166004863e+02 1.0000000000000000e+00 2.1950238085378334e+01 2.8092750370493203e+01 1.2630827116694288e+01 
580 2 3 1.0280000000036587e+00 -7.5088477379738436e+01 1.0000000000000000e+00 1.8459245854345561e+01 2.9286315015943625e+01 1.2454924649721088e+01 
201 1 3 1.0280000000076956e+00 8.3846176878963121e+01 1.0000000000000000e+00 1.8384969884803763e+01 2.8941110726297151e+01 1.2247110342514951e+01 
165 1 3 1.0280000000087393e+00 4.8889799230408656e+01 1.0000000000000000e+00 1.9286940672902016e+01 2.8777492542835855e+01 1.2677468559204330e+01 
185 1 3 1.0280000000101139e+00 3.7449626173910133e+01 1.0000000000000000e+00 2.2761503841995737e+01 2.8175278732104768e+01 1.2320294099777014e+01 
635 3 1 1.0490890800591182e+00 5.6657683982474467e+01 1.0000000000000000e+00 2.5745393286858196e+01 2.9011474067593529e+01 1.1918716023352021e+01 
547 2 1 1.0490890800591182e+00 -6.4820166421899472e+01 1.0000000000000000e+00 2.8010223378725090e+01 2.8753994441134033e+01 1.2218642971144531e+01 
830 4 1 1.0490890800591182e+00 -7.0558139306305819e+01 1.0000000000000000e+00 1.9952182482830203e+01 7.8468955998818224e+00 1.4029852019839307e+01 
1290 6 3 1.0279999999996079e+00 -8.7175061138802477e+00 1.0000000000000000e+00 1.2669176055732331e+01 1.0531264220474741e+01 1.3217337659722231e+01 
3109 21 3 1.0279999999997780e+00 -5.8853383387651809e+02 1.0000000000000000e+00 1.2272583512733000e+01 1.0446295676736188e+01 1.2854329916410864e+01 
1 0 3 1.0279999999999123e+00 -2.4963033425753194e+00 1.0000000000000000e+00 1.1747562088003667e+01 1.1246534841042170e+01 1.3271744398184135e+01 
1524 8 3 1.0280000000004939e+00 -1.5858514094155189e+03 1.0000000000000000e+00 1.2217788484348514e+01 1.1439150752707400e+01 1.3466849926147743e+01 
437 2 3 1.0280000000095841e+00 -2.3228078712123687e+02 1.0000000000000000e+00 2.1733787429093187e+01 1.3087877293561233e+01 1.4393753393691050e+01 
6 0 1 1.0490890800591182e+00 2.7781828118383351e+02 1.0000000000000000e+00 2.3375028625168810e+01 1.1327036546753643e+01 1.3711432921072914e+01 
4912 30 3 1.0280000000152050e+00 -2.6094579744365470e+04 1.0000000000000000e+00 2.8642715462335470e+01 1.3109686188933985e+01 1.2767363618976159e+01 
3049 21 3 1.0279999999987948e+00 -3.1688833172573169e+02 1.0000000000000000e+00 2.1614071293754346e+01 1.3128122923179564e+01 1.4508379298179060e+01 
41 1 3 1.0280000000031493e+00 1.3881438517262669e+02 1.0000000000000000e+00 2.4207438208507867e+01 1.4566045102276945e+01 1.3515796189969089e+01 
438 2 3 1.0279999999916563e+00 -3.5807241725858745e+01 1.0000000000000000e+00 2.3817826296351168e+01 1.4252152130770410e+01 1.4420483796620850e+01 
42 1 3 1.0279999999994738e+00 5.5029044485977280e+01 1.0000000000000000e+00 2.4488768605013831e+01 1.4537505743451526e+01 1.3347122926504211e+01 
8 0 3 1.0280000000129799e+00 2.9816023931724732e+02 1.0000000000000000e+00 2.9479452214185851e+01 1.3652799485585621e+01 1.3554130608921552e+01 
62 1 3 1.0279999999883112e+00 -1.7964591409639290e+01 1.0000000000000000e+00 2.8980537990237853e+01 1.5221768508398666e+01 1.3616374894057049e+01 
44 1 3 1.0280000000172331e+00 -1.3571522439700598e+02 1.0000000000000000e+00 2.8707777842854071e+01 1.6192363117268172e+01 1.3395174905641211e+01 
43 1 3 1.0280000000130443e+00 2.4025070408385730e+01 1.0000000000000000e+00 2.8753678156343337e+01 1.6040964473739017e+01 1.3253812161124241e+01 
886 4 1 1.0490890800591182e+00 8.1366301691986550e+01 1.0000000000000000e+00 2.3439793778191568e+01 1.8518166638299078e+01 1.4379793191685424e+01 
1839 10 3 1.0280000000077452e+00 -5.5578184180651078e+01 1.0000000000000000e+00 1.4423345559901305e+01 2.0394153214342680e+01 1.2818529025437156e+01 
469 2 3 1.0279999999928646e+00 -3.9688082407888444e+01 1.0000000000000000e+00 1.3862199805914887e+01 1.9083360591509141e+01 1.4223931564591414e+01 
91 1 3 1.0280000000067553e+00 -4.3932444390642708e+01 1.0000000000000000e+00 1.3460123767724740e+01 1.8985488466030919e+01 1.4273643919967027e+01 
109 1 3 1.0280000000074752e+00 1.8656808562520462e+02 1.0000000000000000e+00 1.4621021906211313e+01 2.0759753699160772e+01 1.2793522487786731e+01 
110 1 3 1.0279999999949077e+00 8.1455043767014459e+01 1.0000000000000000e+00 1.4369817373237135e+01 2.0905057134794486e+01 1.2971247601938305e+01 
127 1 3 1.0279999999926726e+00 1.6237047937197826e+02 1.0000000000000000e+00 1.5593204766754765e+01 2.3859252305873003e+01 1.3154676079219595e+01 
1801 9 3 1.0279999999986069e+00 4.7298215236563571e+01 1.0000000000000000e+00 1.5369831575975775e+01 2.4050416367797297e+01 1.2948405117513593e+01 
128 1 3 1.0279999999984917e+00 1.0239108855834874e+02 1.0000000000000000e+00 1.5512503364251412e+01 2.4202401744088647e+01 1.2988417407610482e+01 
543 2 3 1.0280000000028060e+00 -1.3789202225466681e+02 1.0000000000000000e+00 1.8662940999759869e+01 2.3457963509812441e+01 1.2787997148444040e+01 
5715 38 3 1.0280000000042824e+00 4.5368962158323495e+02 1.0000000000000000e+00 1.8021512349285238e+01 2.3831010585923327e+01 1.3759669551889548e+01 
940 4 3 1.0280000000033278e+00 -7.6685466139668529e+02 1.0000000000000000e+00 1.9191177886527711e+01 2.3793952189787785e+01 1.4149159288394465e+01 
129 1 3 1.0280000000008096e+00 1.2553303787660388e+02 1.0000000000000000e+00 1.9096781705412841e+01 2.4298995833797747e+01 1.4195198445937791e+01 
513 2 3 7.3927178933750937e-01 -6.6289425698607403e+01 1.0000000000000000e+00 2.8075197629232161e+01 2.3078464118596976e+01 1.4263633310721710e+01 
476 2 3 7.3927178933747073e-01 5.8309479292822289e+02 1.0000000000000000e+00 2.8075197629231628e+01 2.3078464118596276e+01 1.4263633310721454e+01 
5443 37 1 1.0490890800591182e+00 -3.7589654624034210e+02 1.0000000000000000e+00 1.2630438875837111e+01 2.5471796582210729e+01 1.3551380257929059e+01 
147 1 3 1.0279999999998848e+00 2.7430664283806948e+02 1.0000000000000000e+00 1.8597979334689285e+01 2.6002359954210192e+01 1.3834980431537566e+01 
183 1 3 1.0279999999950313e+00 -1.7454632935015624e+02 1.0000000000000000e+00 1.8707201780873149e+01 2.7705254193719419e+01 1.3898056245906515e+01 
1858 10 3 1.0280000000329959e+00 -8.7455258824195369e+01 1.0000000000000000e+00 1.8031353039607520e+01 2.6707808906638714e+01 1.3630631149477912e+01 
166 1 3 1.0279999999119547e+00 8.1453802765247119e+01 1.0000000000000000e+00 1.8786655102909741e+01 2.6498822234105646e+01 1.4322337836406025e+01 
544 2 3 1.0280000000304150e+00 -1.0877176639504356e+02 1.0000000000000000e+00 1.9078779363446525e+01 2.7672170475460092e+01 1.2812684401067148e+01 
564 2 3 1.0280000000648468e+00 -2.4181021609287495e+02 1.0000000000000000e+00 2.3541115920853038e+01 2.6529563817611301e+01 1.2777055749093243e+01 
168 1 3 1.0280000000593716e+00 7.5664085742845515e+01 1.0000000000000000e+00 2.3899937418714153e+01 2.7937666980010835e+01 1.3711606835374637e+01 
1395 7 3 1.0280000000543292e+00 -4.5211931399704184e+01 1.0000000000000000e+00 2.3351952138363117e+01 2.6552113460096052e+01 1.3400269074646552e+01 
186 1 3 1.0280000000654714e+00 3.6301690166163823e+01 1.0000000000000000e+00 2.4335041072910141e+01 2.7770831359959736e+01 1.3691443836189411e+01 
2309 15 3 1.0279999999538549e+00 -1.2468111531611275e+02 1.0000000000000000e+00 2.4529651814531057e+01 2.6854376517043743e+01 1.3098504000065564e+01 
1860 10 1 1.0490890800591182e+00 2.4412710130836594e+01 1.0000000000000000e+00 2.7433433689134759e+01 2.6852431682778217e+01 1.3561206547491832e+01 
1246 5 3 3.4387207658793817e-01 4.2282278967400771e+02 1.0000000000000000e+00 1.8328944601133234e+01 5.4871393188352648e+00 1.6078153967643438e+01 
1247 5 3 3.4387207658793817e-01 7.6113615003634351e+01 1.0000000000000000e+00 2.8441821010779016e+01 7.1020447361114769e+00 1.5098402116474013e+01 
833 4 3 1.0280000000035325e+00 -5.6316043271298248e+01 1.0000000000000000e+00 2.1799651954081298e+01 1.2992257582925152e+01 1.4709176124733442e+01 
1334 6 3 1.0280000000060967e+00 -1.2633192806541026e+03 1.0000000000000000e+00 1.9354393855083487e+01 1.4741503812771880e+01 1.6157622973666033e+01 
2290 15 3 1.0280000000034417e+00 -1.2994811969253783e+02 1.0000000000000000e+00 1.8848444345511453e+01 1.4850364913134918e+01 1.5551691304177893e+01 
5 0 3 1.0279999999928702e+00 -3.5610162842016045e+01 1.0000000000000000e+00 2.3249012854343288e+01 1.4271301532591668e+01 1.5604041696939165e+01 
419 2 3 1.0280000000113505e+00 -7.9712025392317770e+01 1.0000000000000000e+00 2.3675044766041250e+01 1.4670955312324288e+01 1.5587026977198013e+01 
76 1 3 1.0280000000126177e+00 1.0814269030920647e+02 1.0000000000000000e+00 1.8828852077670000e+01 1.5697246428487560e+01 1.5982789927988071e+01 
1282 6 1 1.0490890800591182e+00 -9.0303267086370909e+01 1.0000000000000000e+00 2.6998994743059207e+01 1.5560722424480833e+01 1.5314494165187565e+01 
63 1 3 1.0280000000473031e+00 -4.4912031714092770e+01 1.0000000000000000e+00 2.9736526509498848e+01 1.6263881278075729e+01 1.4807670380641808e+01 
910 4 3 1.0280000001048286e+00 -1.0052269654407087e+02 1.0000000000000000e+00 2.9813073736115747e+01 1.6351394590929985e+01 1.4780420480874223e+01 
55 1 3 1.0280000000020053e+00 3.1041816610160115e+01 1.0000000000000000e+00 1.3477565730868873e+01 1.7860522288929172e+01 1.4594283807700043e+01 
73 1 3 1.0280000000078586e+00 -6.8923978682818145e+01 1.0000000000000000e+00 1.3697740008154632e+01 1.7786207826078421e+01 1.5233288758382956e+01 
1802 9 3 1.0279999999942573e+00 -1.1118042711367985e+02 1.0000000000000000e+00 1.3894470637716088e+01 1.8743796924008386e+01 1.5958246555039661e+01 
471 2 3 1.0279999999980916e+00 7.5898967180135966e+00 1.0000000000000000e+00 1.6839202628816011e+01 1.8671768333439527e+01 1.5696976818705469e+01 
1377 7 3 1.0279999999965794e+00 9.0351664336309445e-01 1.0000000000000000e+00 2.9780790103704835e+01 1.8651385195817667e+01 1.5157597302854281e+01 
495 2 3 1.0279999998936571e+00 -2.1713149842132134e+02 1.0000000000000000e+00 2.9909418167516296e+01 1.8637306606754219e+01 1.5985001234931580e+01 
920 4 3 1.0280000000077185e+00 -6.4578857169923893e+01 1.0000000000000000e+00 1.5758099172907521e+01 2.0072684837898240e+01 1.5354189196500375e+01 
488 2 3 1.0279999999944884e+00 -1.1770567858302238e+02 1.0000000000000000e+00 1.6632685912585327e+01 1.9289708424248094e+01 1.5574530340949352e+01 
1320 6 1 1.0490890800591182e+00 1.3459457317278145e+02 1.0000000000000000e+00 2.5981839245165389e+01 1.9978452145482446e+01 1.5043199913242333e+01 
478 2 3 1.0279999999926910e+00 1.6693326461152674e+02 1.0000000000000000e+00 2.9511717075018229e+01 1.9506933129290019e+01 1.6074442950952260e+01 
100 1 3 1.0279999999858673e+00 -8.8533810902692039e+01 1.0000000000000000e+00 2.9181554402997339e+01 1.9370040390619259e+01 1.5418125629771923e+01 
542 2 3 1.0280000000057008e+00 -8.4769256212003778e+00 1.0000000000000000e+00 1.5250088561523816e+01 2.0762973370000342e+01 1.4849111467630646e+01 
1353 6 3 1.0279999999995197e+00 -1.8775789395932208e+02 1.0000000000000000e+00 1.5347654091150478e+01 2.1296205147148047e+01 1.4902631022687718e+01 
487 2 1 1.0490890800591182e+00 -1.4306400416984244e+00 1.0000000000000000e+00 1.8530640366763055e+01 2.1140525754390179e+01 1.5344492068217621e+01 
505 2 1 1.0490890800591182e+00 -1.6363367047138416e+02 1.0000000000000000e+00 2.4223198331376484e+01 2.1046862068430755e+01 1.5463868755661769e+01 
4802 30 1 1.1630952976446187e+00 -1.4834610560952926e+04 1.0000000000000000e+00 2.9487311314268712e+01 2.2312080382645927e+01 1.4699834248988042e+01 
130 1 3 1.0280000000029090e+00 2.1669059418850085e+02 1.0000000000000000e+00 1.4703214859556635e+01 2.3952612202210432e+01 1.5035484706474138e+01 
2289 15 3 1.0279999999918186e+00 -5.1182973016142583e+01 1.0000000000000000e+00 1.5115688876262093e+01 2.2656326187988221e+01 1.5462129981459443e+01 
937 4 3 1.0279999999953218e+00 -3.1862612635830544e+01 1.0000000000000000e+00 1.5274086760861776e+01 2.2824907998193378e+01 1.5907832405408405e+01 
524 2 3 1.0280000000237626e+00 -9.6526876454244487e+01 1.0000000000000000e+00 1.4686397205745433e+01 2.5344441337825518e+01 1.5471256208179565e+01 
4379 26 3 1.0280000000072957e+00 -1.1477009938298757e+02 1.0000000000000000e+00 1.4597549115757195e+01 2.5371136972258210e+01 1.5091083875652430e+01 
523 2 3 1.0280000000041338e+00 -6.1438303305217914e+01 1.0000000000000000e+00 1.5400842756282190e+01 2.4970912591995543e+01 1.5181834554543229e+01 
939 4 1 1.0490890800591182e+00 -3.2690127748179998e+02 1.0000000000000000e+00 1.7295469646827392e+01 2.6158556494076915e+01 1.6300078409900365e+01 
561 2 1 1.0490890800591182e+00 1.7256294848151086e+01 1.0000000000000000e+00 2.2790667083935141e+01 2.6136593262760179e+01 1.5800951525085555e+01 
560 2 1 1.0490890800591182e+00 4.0111666517262343e+01 1.0000000000000000e+00 2.0500841019824353e+01 2.9329967213764700e+01 1.5586651163639965e+01 
562 2 1 1.0490890800591182e+00 -3.4453413375688612e+01 1.0000000000000000e+00 2.5234166074595787e+01 2.8207429668836401e+01 1.6107703210626376e+01 
3444 21 1 1.0490890800591182e+00 -9.6152273207215524e+02 1.0000000000000000e+00 1.1001189468575401e+01 1.0221538537010870e+00 1.6827512892457083e+01 
3051 21 3 3.4387207658793817e-01 -4.6965182705768979e+02 1.0000000000000000e+00 2.9232172904789195e+01 3.8259047986425356e+00 1.7357199192163829e+01 
3427 21 3 1.0280000000001688e+00 -6.2778388961157464e+02 1.0000000000000000e+00 1.3083783885661171e+01 9.2978634558195150e+00 1.7869820373193587e+01 
3154 21 3 1.0279999999999476e+00 1.1922559126448670e+02 1.0000000000000000e+00 1.3161061527672500e+01 8.7687314141829411e+00 1.7699985892304909e+01 
2674 19 1 1.0490890800591182e+00 -6.7360574847804776e+02 1.0000000000000000e+00 2.7292281410692844e+01 7.6890305253621793e+00 1.7998574501341437e+01 
1680 8 3 1.0279999999947091e+00 -1.9223693387901200e+01 1.0000000000000000e+00 2.3979152119526358e+01 1.4580728597406059e+01 1.7479866359731094e+01 
1230 5 3 1.0280000000028626e+00 1.1014456810457375e+01 1.0000000000000000e+00 2.3967154491147650e+01 1.4401884953326826e+01 1.7396339989077763e+01 
888 4 1 1.0490890800591182e+00 6.3392221185069536e+02 1.0000000000000000e+00 2.9825249609983523e+01 1.3739352630388153e+01 1.7363950082585401e+01 
435 2 1 1.0490890800591182e+00 -4.1930769532869937e+02 1.0000000000000000e+00 1.5802731531458850e+01 1.5827223722303563e+01 1.6979093026219392e+01 
472 2 3 1.0280000000013545e+00 -4.6399626762539219e+02 1.0000000000000000e+00 1.8399124445077607e+01 1.5032610160945390e+01 1.6494934806000053e+01 
1722 8 3 1.0279999999984097e+00 1.2326054958345094e+02 1.0000000000000000e+00 1.9406327225958432e+01 1.6140576830805365e+01 1.7815219118845999e+01 
870 4 3 1.0279999999959892e+00 -4.1843411291466532e+02 1.0000000000000000e+00 2.1862100581173582e+01 1.5814978937529471e+01 1.6904198172181228e+01 
1283 6 3 1.0280000000058684e+00 -6.0822928569663318e+01 1.0000000000000000e+00 2.1643150431458981e+01 1.6188416777557865e+01 1.7686287145247633e+01 
832 4 3 1.0280000000059408e+00 -2.7220321745083851e+02 1.0000000000000000e+00 2.1660767470448768e+01 1.6124580483377990e+01 1.7751317271440570e+01 
5842 39 3 1.0279999999977993e+00 -3.8084574541893094e+03 1.0000000000000000e+00 2.2672763187967451e+01 1.5185451189314959e+01 1.6594285623821627e+01 
75 1 3 1.0280000000044514e+00 3.5916822899914456e+02 1.0000000000000000e+00 1.6793758988837642e+01 1.8292683246971656e+01 1.6405436048246585e+01 
3121 21 3 1.0280000000103118e+00 5.2834176976898448e+02 1.0000000000000000e+00 1.5741186955224601e+01 1.8391758398546571e+01 1.7171552481887289e+01 
93 1 3 1.0280000000174565e+00 1.0338042719513014e+02 1.0000000000000000e+00 1.5499939667443419e+01 1.8305890281715005e+01 1.7100836636568872e+01 
475 2 1 1.0490890800591182e+00 -3.1092527165971788e+01 1.0000000000000000e+00 2.7938160333724003e+01 1.6951260897126176e+01 1.6402840340194686e+01 
1857 10 3 1.0279999999904790e+00 1.6229781090417936e+02 1.0000000000000000e+00 1.4533295873234298e+01 1.8869977347231071e+01 1.6402281808259730e+01 
1351 6 1 1.0490890800591182e+00 -5.4803496512678251e+01 1.0000000000000000e+00 1.7257874623717331e+01 2.0155397551010196e+01 1.8087842406792852e+01 
3045 21 1 1.1821848044099510e+00 -2.7055987411536540e+02 1.0000000000000000e+00 1.9728232922554252e+01 1.9753541996516269e+01 1.6396846568243994e+01 
1300 6 1 1.0490890800591182e+00 -1.9654337866170135e+02 1.0000000000000000e+00 2.2074850461309946e+01 1.8822584248316666e+01 1.6654457625496971e+01 
1301 6 1 1.0490890800591182e+00 -1.5137084779205455e+02 1.0000000000000000e+00 2.5275566014616029e+01 2.0146591872658252e+01 1.6906828015516744e+01 
925 4 1 1.0490890800591182e+00 -2.2520561760715339e+02 1.0000000000000000e+00 2.7271807133000411e+01 1.8792532615843246e+01 1.6924722743337476e+01 
506 2 3 1.0279999999961293e+00 8.0499647110777062e+00 1.0000000000000000e+00 1.4657581905845481e+01 2.0972751850675348e+01 1.7102273470858812e+01 
919 4 3 1.0280000000001424e+00 6.1516455784290599e+01 1.0000000000000000e+00 1.4651812301103243e+01 2.0939216626059775e+01 1.7014490615816033e+01 
955 4 3 1.0279999999958560e+00 -2.0625660575833081e+01 1.0000000000000000e+00 1.4877573643016369e+01 2.2339752363766017e+01 1.7495736619585458e+01 
507 2 3 1.0280000000022165e+00 -3.0508379706254817e+02 1.0000000000000000e+00 1.5703390245759087e+01 2.1736320859922323e+01 1.6866624640499079e+01 
2307 15 3 7.0480544694014569e-01 -3.2464677571035202e+02 1.0000000000000000e+00 2.0414583096937349e+01 2.0630708675806488e+01 1.7239357438910247e+01 
1352 6 1 1.1821848044106207e+00 -2.0430003194834507e+02 1.0000000000000000e+00 2.0204067424056500e+01 2.1839929919007982e+01 1.6573182050007372e+01 
2220 14 3 1.0280000000002669e+00 4.6462833612896674e+01 1.0000000000000000e+00 2.7718959328395879e+01 2.1342480280827051e+01 1.7437400753405583e+01 
1791 9 3 1.0280000000043255e+00 -1.2356175690799277e+02 1.0000000000000000e+00 2.7838790967578873e+01 2.1318297898731640e+01 1.7488680399820435e+01 
1775 9 3 1.0280000000076952e+00 -3.9349930479757944e+02 1.0000000000000000e+00 2.7025155554080900e+01 2.1543178527037313e+01 1.8020037575232045e+01 
563 2 1 1.0490890800591182e+00 3.0007702261008490e+02 1.0000000000000000e+00 2.3319173518343824e+01 2.3926642956862665e+01 1.7180002111336968e+01 
2722 19 1 1.0490890800591182e+00 -4.5256822857129464e+02 1.0000000000000000e+00 2.8581312538876372e+01 2.3885988380975899e+01 1.7507199962844002e+01 
151 1 3 1.0280000000138105e+00 5.6253205194977554e+01 1.0000000000000000e+00 2.6479343330727609e+01 2.5896278768084994e+01 1.6704987185761997e+01 
980 4 3 1.0280000000037177e+00 2.8809682771565761e+00 1.0000000000000000e+00 2.6663393969522378e+01 2.5689760581863315e+01 1.6687535083293763e+01 
1428 7 3 1.0280000000113838e+00 -1.9082090571489232e+01 1.0000000000000000e+00 2.3848381042477616e+01 2.7661062829195227e+01 1.8115560052356479e+01 
548 2 3 1.0279999999966984e+00 -8.0302744110380615e+01 1.0000000000000000e+00 2.7103739912808717e+01 2.6575881886500216e+01 1.7006323688145752e+01 
1895 10 1 1.0490890800591182e+00 -3.0533163199869196e+03 1.0000000000000000e+00 2.9437162238442671e+01 2.7366364345846655e+01 1.6539199665676239e+01 
1442 7 1 1.0490890800591182e+00 -1.9892586666087044e+02 1.0000000000000000e+00 1.6950538132179556e+01 2.9269334371456075e+01 1.8154469509304764e+01 
2798 19 1 1.0490890800591182e+00 -9.0559986771431568e+02 1.0000000000000000e+00 1.9326805909976105e+01 2.9788756584589070e+01 1.8036696620621317e+01 