LAMMPS data file via write_data, version 30 Jul 2016, timestep = 1000000

2080 atoms
8 atom types

0.0000000000000000e+00 4.0000000000000000e+01 xlo xhi
0.0000000000000000e+00 4.0000000000000000e+01 ylo yhi
0.0000000000000000e+00 1.0000000000000000e+02 zlo zhi

Masses

1 3.896
2 5.36
3 1058.08
4 8.378
5 8.378
6 8.378
7 8.378
8 8.378

Atoms # meso-molecular

1 2 4 2.2559723595316457e+00 9.9992301782769766e-01 4.2000000000000000e+03 0.0000000000000000e+00 0.0000000000000000e+00 2.5000000000000000e+00 
21 2 4 2.2559723595316457e+00 1.0000000077151192e+00 4.2000000000000000e+03 2.0000000000000000e+00 0.0000000000000000e+00 2.5000000000000000e+00 
41 2 4 2.2559723595316457e+00 9.1991338641397957e-01 4.2000000000000000e+03 4.0000000000000000e+00 0.0000000000000000e+00 2.5000000000000000e+00 
61 2 4 2.2559723595316457e+00 1.0000000000000000e+00 4.2000000000000000e+03 6.0000000000000000e+00 0.0000000000000000e+00 2.5000000000000000e+00 
81 2 4 2.2559723595316457e+00 1.0341387373046658e+00 4.2000000000000000e+03 8.0000000000000000e+00 0.0000000000000000e+00 2.5000000000000000e+00 
101 2 4 2.2559723595316457e+00 1.0000000000000000e+00 4.2000000000000000e+03 1.0000000000000000e+01 0.0000000000000000e+00 2.5000000000000000e+00 
121 2 4 2.2559723595316457e+00 1.0000000000000000e+00 4.2000000000000000e+03 1.2000000000000000e+01 0.0000000000000000e+00 2.5000000000000000e+00 
141 2 4 2.2559723595316457e+00 1.0000000000000000e+00 4.2000000000000000e+03 1.4000000000000000e+01 0.0000000000000000e+00 2.5000000000000000e+00 
161 2 4 2.2559723595316457e+00 9.9987996108220212e-01 4.2000000000000000e+03 1.6000000000000000e+01 0.0000000000000000e+00 2.5000000000000000e+00 
181 2 4 2.2559723595316457e+00 -1.9508388868542657e+01 4.2000000000000000e+03 1.8000000000000000e+01 0.0000000000000000e+00 2.5000000000000000e+00 
2 2 4 2.2559723595316457e+00 9.9999960068826788e-01 4.2000000000000000e+03 0.0000000000000000e+00 2.0000000000000000e+00 2.5000000000000000e+00 
22 2 4 2.2559723595316457e+00 1.0000000316983093e+00 4.2000000000000000e+03 2.0000000000000000e+00 2.0000000000000000e+00 2.5000000000000000e+00 
42 2 4 2.2559723595316457e+00 1.0000000000000000e+00 4.2000000000000000e+03 4.0000000000000000e+00 2.0000000000000000e+00 2.5000000000000000e+00 
62 2 4 2.2559723595316457e+00 1.0000000000000000e+00 4.2000000000000000e+03 6.0000000000000000e+00 2.0000000000000000e+00 2.5000000000000000e+00 
82 2 4 2.2559723595316457e+00 9.9326014939230101e-01 4.2000000000000000e+03 8.0000000000000000e+00 2.0000000000000000e+00 2.5000000000000000e+00 
102 2 4 2.2559723595316457e+00 1.0000000000000000e+00 4.2000000000000000e+03 1.0000000000000000e+01 2.0000000000000000e+00 2.5000000000000000e+00 
122 2 4 2.2559723595316457e+00 1.0000000000000000e+00 4.2000000000000000e+03 1.2000000000000000e+01 2.0000000000000000e+00 2.5000000000000000e+00 
142 2 4 2.2559723595316457e+00 1.0000000000000000e+00 4.2000000000000000e+03 1.4000000000000000e+01 2.0000000000000000e+00 2.5000000000000000e+00 
162 2 4 2.2559723595316457e+00 1.0000000000000000e+00 4.2000000000000000e+03 1.6000000000000000e+01 2.0000000000000000e+00 2.5000000000000000e+00 
182 2 4 2.2559723595458738e+00 1.0008488364618886e+00 4.2000000000000000e+03 1.8000000000000000e+01 2.0000000000000000e+00 2.5000000000000000e+00 
3 2 4 2.2559723595316457e+00 9.9905182249071933e-01 4.2000000000000000e+03 0.0000000000000000e+00 4.0000000000000000e+00 2.5000000000000000e+00 
23 2 4 2.2559723595316457e+00 1.0000000000000000e+00 4.2000000000000000e+03 2.0000000000000000e+00 4.0000000000000000e+00 2.5000000000000000e+00 
43 2 4 2.2559723595316457e+00 1.0000000000000000e+00 4.2000000000000000e+03 4.0000000000000000e+00 4.0000000000000000e+00 2.5000000000000000e+00 
63 2 4 2.2559723595316457e+00 1.0000000000000000e+00 4.2000000000000000e+03 6.0000000000000000e+00 4.0000000000000000e+00 2.5000000000000000e+00 
83 2 4 2.2559723595316457e+00 1.0000000000000000e+00 4.2000000000000000e+03 8.0000000000000000e+00 4.0000000000000000e+00 2.5000000000000000e+00 
103 2 4 2.2559723595316457e+00 1.0000000000000000e+00 4.2000000000000000e+03 1.0000000000000000e+01 4.0000000000000000e+00 2.5000000000000000e+00 
123 2 4 2.2559723595316457e+00 1.0000000000000000e+00 4.2000000000000000e+03 1.2000000000000000e+01 4.0000000000000000e+00 2.5000000000000000e+00 
143 2 4 2.2559723595316457e+00 1.0000000000000000e+00 4.2000000000000000e+03 1.4000000000000000e+01 4.0000000000000000e+00 2.5000000000000000e+00 
163 2 4 2.2559723595316457e+00 1.0000000950900643e+00 4.2000000000000000e+03 1.6000000000000000e+01 4.0000000000000000e+00 2.5000000000000000e+00 
183 2 4 2.2559723595316457e+00 1.0000002966114439e+00 4.2000000000000000e+03 1.8000000000000000e+01 4.0000000000000000e+00 2.5000000000000000e+00 
4 2 4 2.2559723595316457e+00 1.0000000000000000e+00 4.2000000000000000e+03 0.0000000000000000e+00 6.0000000000000000e+00 2.5000000000000000e+00 
24 2 4 2.2559723595316457e+00 1.0000000000000000e+00 4.2000000000000000e+03 2.0000000000000000e+00 6.0000000000000000e+00 2.5000000000000000e+00 
44 2 4 2.2559723595316457e+00 1.0000000000000000e+00 4.2000000000000000e+03 4.0000000000000000e+00 6.0000000000000000e+00 2.5000000000000000e+00 
64 2 4 2.2559723595316457e+00 1.0000000000000000e+00 4.2000000000000000e+03 6.0000000000000000e+00 6.0000000000000000e+00 2.5000000000000000e+00 
84 2 4 2.2559723595316457e+00 1.0000000000000000e+00 4.2000000000000000e+03 8.0000000000000000e+00 6.0000000000000000e+00 2.5000000000000000e+00 
104 2 4 2.2559723595316457e+00 1.0000000000000000e+00 4.2000000000000000e+03 1.0000000000000000e+01 6.0000000000000000e+00 2.5000000000000000e+00 
124 2 4 2.2559723595316457e+00 1.0000000000000000e+00 4.2000000000000000e+03 1.2000000000000000e+01 6.0000000000000000e+00 2.5000000000000000e+00 
144 2 4 2.2559723595316457e+00 1.0000000000000000e+00 4.2000000000000000e+03 1.4000000000000000e+01 6.0000000000000000e+00 2.5000000000000000e+00 
164 2 4 2.2559723595316457e+00 1.0000000000000000e+00 4.2000000000000000e+03 1.6000000000000000e+01 6.0000000000000000e+00 2.5000000000000000e+00 
184 2 4 2.2559723595347743e+00 9.9823982091826469e-01 4.2000000000000000e+03 1.8000000000000000e+01 6.0000000000000000e+00 2.5000000000000000e+00 
5 2 4 2.2559723595316457e+00 1.0000000000000000e+00 4.2000000000000000e+03 0.0000000000000000e+00 8.0000000000000000e+00 2.5000000000000000e+00 
25 2 4 2.2559723595316457e+00 8.7434764170581158e-01 4.2000000000000000e+03 2.0000000000000000e+00 8.0000000000000000e+00 2.5000000000000000e+00 
45 2 4 2.2559723595316457e+00 1.0000000000000000e+00 4.2000000000000000e+03 4.0000000000000000e+00 8.0000000000000000e+00 2.5000000000000000e+00 
65 2 4 2.2559723595316457e+00 1.0000000000000000e+00 4.2000000000000000e+03 6.0000000000000000e+00 8.0000000000000000e+00 2.5000000000000000e+00 
85 2 4 2.2559723595316457e+00 1.0000000000000000e+00 4.2000000000000000e+03 8.0000000000000000e+00 8.0000000000000000e+00 2.5000000000000000e+00 
105 2 4 2.2559723595316457e+00 1.0000000000000000e+00 4.2000000000000000e+03 1.0000000000000000e+01 8.0000000000000000e+00 2.5000000000000000e+00 
125 2 4 2.2559723595316457e+00 1.0000000000000000e+00 4.2000000000000000e+03 1.2000000000000000e+01 8.0000000000000000e+00 2.5000000000000000e+00 
145 2 4 2.2559723595316457e+00 1.0000000000000000e+00 4.2000000000000000e+03 1.4000000000000000e+01 8.0000000000000000e+00 2.5000000000000000e+00 
165 2 4 2.2559723595316457e+00 1.0201615384020432e-01 4.2000000000000000e+03 1.6000000000000000e+01 8.0000000000000000e+00 2.5000000000000000e+00 
185 2 4 2.2559723595316457e+00 -2.8792231170269718e+00 4.2000000000000000e+03 1.8000000000000000e+01 8.0000000000000000e+00 2.5000000000000000e+00 
6 2 4 2.2559723595316457e+00 1.0410413620960302e+00 4.2000000000000000e+03 0.0000000000000000e+00 1.0000000000000000e+01 2.5000000000000000e+00 
26 2 4 2.2559723595316457e+00 2.6148823328039041e+00 4.2000000000000000e+03 2.0000000000000000e+00 1.0000000000000000e+01 2.5000000000000000e+00 
46 2 4 2.2559723595316457e+00 1.0000000000000000e+00 4.2000000000000000e+03 4.0000000000000000e+00 1.0000000000000000e+01 2.5000000000000000e+00 
66 2 4 2.2559723595316457e+00 9.9999990130350969e-01 4.2000000000000000e+03 6.0000000000000000e+00 1.0000000000000000e+01 2.5000000000000000e+00 
86 2 4 2.2559723595316457e+00 1.0000000000000000e+00 4.2000000000000000e+03 8.0000000000000000e+00 1.0000000000000000e+01 2.5000000000000000e+00 
106 2 4 2.2559723595316457e+00 1.0000000000000000e+00 4.2000000000000000e+03 1.0000000000000000e+01 1.0000000000000000e+01 2.5000000000000000e+00 
126 2 4 2.2559723595316457e+00 1.0000000000000000e+00 4.2000000000000000e+03 1.2000000000000000e+01 1.0000000000000000e+01 2.5000000000000000e+00 
146 2 4 2.2559723595316457e+00 1.0000000000000000e+00 4.2000000000000000e+03 1.4000000000000000e+01 1.0000000000000000e+01 2.5000000000000000e+00 
166 2 4 2.2559723595316457e+00 1.0000000000000000e+00 4.2000000000000000e+03 1.6000000000000000e+01 1.0000000000000000e+01 2.5000000000000000e+00 
186 2 4 2.2559723595316457e+00 9.9224483993495305e-01 4.2000000000000000e+03 1.8000000000000000e+01 1.0000000000000000e+01 2.5000000000000000e+00 
7 2 4 2.2559723595316457e+00 1.4125421182587581e+00 4.2000000000000000e+03 0.0000000000000000e+00 1.2000000000000000e+01 2.5000000000000000e+00 
27 2 4 2.2559723595316457e+00 1.0000000000000000e+00 4.2000000000000000e+03 2.0000000000000000e+00 1.2000000000000000e+01 2.5000000000000000e+00 
47 2 4 2.2559723595316457e+00 1.0000000000000000e+00 4.2000000000000000e+03 4.0000000000000000e+00 1.2000000000000000e+01 2.5000000000000000e+00 
67 2 4 2.2559723595316457e+00 1.0000000156057771e+00 4.2000000000000000e+03 6.0000000000000000e+00 1.2000000000000000e+01 2.5000000000000000e+00 
87 2 4 2.2559723595316457e+00 1.0000000000000000e+00 4.2000000000000000e+03 8.0000000000000000e+00 1.2000000000000000e+01 2.5000000000000000e+00 
107 2 4 2.2559723595316457e+00 1.0000000000000000e+00 4.2000000000000000e+03 1.0000000000000000e+01 1.2000000000000000e+01 2.5000000000000000e+00 
127 2 4 2.2559723595316457e+00 1.0000000000000000e+00 4.2000000000000000e+03 1.2000000000000000e+01 1.2000000000000000e+01 2.5000000000000000e+00 
147 2 4 2.2559723595316457e+00 1.0000000000000000e+00 4.2000000000000000e+03 1.4000000000000000e+01 1.2000000000000000e+01 2.5000000000000000e+00 
167 2 4 2.2559723595316457e+00 1.0000000000000000e+00 4.2000000000000000e+03 1.6000000000000000e+01 1.2000000000000000e+01 2.5000000000000000e+00 
187 2 4 2.2559723595316457e+00 3.8558680840164197e+00 4.2000000000000000e+03 1.8000000000000000e+01 1.2000000000000000e+01 2.5000000000000000e+00 
8 2 4 2.2559723595316457e+00 2.0596011795143268e+00 4.2000000000000000e+03 0.0000000000000000e+00 1.4000000000000000e+01 2.5000000000000000e+00 
28 2 4 2.2559723595316457e+00 1.0000000000000000e+00 4.2000000000000000e+03 2.0000000000000000e+00 1.4000000000000000e+01 2.5000000000000000e+00 
48 2 4 2.2559723595316457e+00 9.9996668176430703e-01 4.2000000000000000e+03 4.0000000000000000e+00 1.4000000000000000e+01 2.5000000000000000e+00 
68 2 4 2.2559723595328789e+00 1.0001540314530895e+00 4.2000000000000000e+03 6.0000000000000000e+00 1.4000000000000000e+01 2.5000000000000000e+00 
88 2 4 2.2559723595316457e+00 1.0000000000000000e+00 4.2000000000000000e+03 8.0000000000000000e+00 1.4000000000000000e+01 2.5000000000000000e+00 
108 2 4 2.2559723595316457e+00 9.9998327060603964e-01 4.2000000000000000e+03 1.0000000000000000e+01 1.4000000000000000e+01 2.5000000000000000e+00 
128 2 4 2.2559723595316457e+00 1.0000000000000000e+00 4.2000000000000000e+03 1.2000000000000000e+01 1.4000000000000000e+01 2.5000000000000000e+00 
148 2 4 2.2559723595316457e+00 1.0000000000000000e+00 4.2000000000000000e+03 1.4000000000000000e+01 1.4000000000000000e+01 2.5000000000000000e+00 
168 2 4 2.2559723595316457e+00 1.0000000000000000e+00 4.2000000000000000e+03 1.6000000000000000e+01 1.4000000000000000e+01 2.5000000000000000e+00 
188 2 4 2.2559723595316457e+00 4.5088803656656822e+00 4.2000000000000000e+03 1.8000000000000000e+01 1.4000000000000000e+01 2.5000000000000000e+00 
9 2 4 2.2559723595316457e+00 9.9999143423279602e-01 4.2000000000000000e+03 0.0000000000000000e+00 1.6000000000000000e+01 2.5000000000000000e+00 
29 2 4 2.2559723595316457e+00 1.0000000000000000e+00 4.2000000000000000e+03 2.0000000000000000e+00 1.6000000000000000e+01 2.5000000000000000e+00 
49 2 4 2.2559723595320085e+00 1.0000544172179240e+00 4.2000000000000000e+03 4.0000000000000000e+00 1.6000000000000000e+01 2.5000000000000000e+00 
69 2 4 2.2559723595316457e+00 9.9983947690585340e-01 4.2000000000000000e+03 6.0000000000000000e+00 1.6000000000000000e+01 2.5000000000000000e+00 
89 2 4 2.2559723595316457e+00 1.0000000000000000e+00 4.2000000000000000e+03 8.0000000000000000e+00 1.6000000000000000e+01 2.5000000000000000e+00 
109 2 4 2.2559723595316457e+00 1.0000000000000000e+00 4.2000000000000000e+03 1.0000000000000000e+01 1.6000000000000000e+01 2.5000000000000000e+00 
129 2 4 2.2559723595316457e+00 1.0000000000000000e+00 4.2000000000000000e+03 1.2000000000000000e+01 1.6000000000000000e+01 2.5000000000000000e+00 
149 2 4 2.2559723595316457e+00 1.0000000000000000e+00 4.2000000000000000e+03 1.4000000000000000e+01 1.6000000000000000e+01 2.5000000000000000e+00 
169 2 4 2.2559723595316457e+00 1.0000000000000000e+00 4.2000000000000000e+03 1.6000000000000000e+01 1.6000000000000000e+01 2.5000000000000000e+00 
189 2 4 2.2559723595316457e+00 -8.5059824138833804e+00 4.2000000000000000e+03 1.8000000000000000e+01 1.6000000000000000e+01 2.5000000000000000e+00 
10 2 4 2.2559723595316457e+00 9.9993493955015589e-01 4.2000000000000000e+03 0.0000000000000000e+00 1.8000000000000000e+01 2.5000000000000000e+00 
30 2 4 2.2559723595316457e+00 -5.9571348569751121e+00 4.2000000000000000e+03 2.0000000000000000e+00 1.8000000000000000e+01 2.5000000000000000e+00 
50 2 4 2.2559723595316448e+00 1.0183932723893461e+00 4.2000000000000000e+03 4.0000000000000000e+00 1.8000000000000000e+01 2.5000000000000000e+00 
70 2 4 2.2559723595323224e+00 1.0000971887513548e+00 4.2000000000000000e+03 6.0000000000000000e+00 1.8000000000000000e+01 2.5000000000000000e+00 
90 2 4 2.2559723595316457e+00 1.0000000000000000e+00 4.2000000000000000e+03 8.0000000000000000e+00 1.8000000000000000e+01 2.5000000000000000e+00 
110 2 4 2.2559723595316457e+00 8.9832299684322048e-01 4.2000000000000000e+03 1.0000000000000000e+01 1.8000000000000000e+01 2.5000000000000000e+00 
130 2 4 2.2559723595316457e+00 1.8756161214829854e+00 4.2000000000000000e+03 1.2000000000000000e+01 1.8000000000000000e+01 2.5000000000000000e+00 
150 2 4 2.2559723595316457e+00 1.0000000000000000e+00 4.2000000000000000e+03 1.4000000000000000e+01 1.8000000000000000e+01 2.5000000000000000e+00 
170 2 4 2.2559723595316457e+00 9.9963015066200001e-01 4.2000000000000000e+03 1.6000000000000000e+01 1.8000000000000000e+01 2.5000000000000000e+00 
190 2 4 2.2559723595316457e+00 -2.0531721256761109e+01 4.2000000000000000e+03 1.8000000000000000e+01 1.8000000000000000e+01 2.5000000000000000e+00 
1951 1553 2 1.0279971010850939e+00 -8.8537829417680234e+02 4.2000000000000000e+03 5.9096840715502008e+00 1.0413916742779602e+01 5.6443705880123201e+00 
574 176 2 1.0280040387055238e+00 3.8505400799077793e+03 4.2000000000000000e+03 7.2682695397522741e+00 1.1356895717466941e+01 5.8531645576712297e+00 
1577 1179 2 1.0280011783257585e+00 -2.0642266707885888e+03 4.2000000000000000e+03 6.7660140206441390e+00 1.2852981600112832e+01 5.3470098352521056e+00 
737 339 2 1.0279929940728088e+00 -2.0629762632525640e+03 4.2000000000000000e+03 6.6476071107996582e+00 1.2950781977044533e+01 5.4094090180021279e+00 
887 489 2 1.0280323125227788e+00 -3.5825796744328436e+03 4.2000000000000000e+03 1.1174676673971877e+01 1.3692957699156660e+01 5.6158793160941114e+00 
751 353 2 1.0280048537718511e+00 -2.9757254665622495e+03 4.2000000000000000e+03 1.1143796049111016e+01 1.3695790694304440e+01 5.6029717945813768e+00 
715 317 2 1.0280036320986852e+00 1.1924658989868435e+03 4.2000000000000000e+03 5.0128539734574975e+00 1.4399815142459223e+01 5.3028533323660358e+00 
552 154 2 1.0280049932484117e+00 2.3156593964106688e+02 4.2000000000000000e+03 5.0832999265613337e+00 1.4282496532356280e+01 5.3407664894737126e+00 
2079 1681 2 1.0280004497488011e+00 2.6032966088162107e+02 4.2000000000000000e+03 3.9430359418619103e+00 1.7146760037062634e+01 5.5913564309787533e+00 
567 169 2 1.0280005438357600e+00 2.6348496640302079e+02 4.2000000000000000e+03 4.2860973213831439e+00 1.6314657903455295e+01 5.4682461139264218e+00 
1235 837 2 1.0280039456070189e+00 1.4262294658463416e+03 4.2000000000000000e+03 5.0039319188844456e+00 1.8246790648469798e+01 5.3171647340694621e+00 
1403 1005 2 1.0279983391513194e+00 1.4265958913359518e+03 4.2000000000000000e+03 4.9729530483322408e+00 1.8265266125804768e+01 5.3248851117985989e+00 
1594 1196 2 1.0279998171724187e+00 -3.5995423088973807e+03 4.2000000000000000e+03 5.4776320289530913e+00 7.3409998771095628e+00 6.8872476663425477e+00 
1591 1193 2 1.0279996681153993e+00 -3.0266979636880310e+03 4.2000000000000000e+03 5.1666598022884029e+00 7.2005709259383739e+00 7.0279659596022777e+00 
886 488 2 1.0280056013466907e+00 -3.6105693488443740e+03 4.2000000000000000e+03 7.5944454918718227e+00 6.5216706661650248e+00 7.2631329977694854e+00 
720 322 2 1.0280035609636615e+00 1.9692450305512766e+03 4.2000000000000000e+03 7.5927145755843402e+00 6.3754122986165873e+00 7.8297853333873420e+00 
1930 1532 2 1.0279895536781913e+00 -5.5094264225808161e+02 4.2000000000000000e+03 6.9886143860098313e+00 8.0410934356215318e+00 7.5669663072050168e+00 
443 45 2 1.0279953179488805e+00 -1.7300992291128121e+03 4.2000000000000000e+03 8.4716014555396590e+00 8.5715124108540746e+00 6.6381925799026700e+00 
1955 1557 2 1.0280002799256245e+00 -1.7297488483268012e+03 4.2000000000000000e+03 8.8273316147776839e+00 9.6257049311947007e+00 6.7075449791333233e+00 
903 505 2 1.0280083350718869e+00 -1.2000104166379172e+03 4.2000000000000000e+03 5.9456944891346124e+00 1.0197502328686356e+01 6.1055707395739951e+00 
1385 987 2 1.0279981802211655e+00 2.5208337592390531e+03 4.2000000000000000e+03 6.5409540749956365e+00 1.1426789304885549e+01 6.6573305620407872e+00 
890 492 2 1.0279947707055277e+00 -2.9768489087399071e+03 4.2000000000000000e+03 9.5417628931198610e+00 1.0885831891787944e+01 7.0871257665269196e+00 
891 493 2 1.0280105426592039e+00 -2.9566564758714612e+03 4.2000000000000000e+03 1.0593076245950908e+01 1.1172631772788966e+01 6.1160827988970121e+00 
1896 1498 2 1.0280175227417505e+00 1.9803046959528492e+03 4.2000000000000000e+03 1.1228096386443722e+01 1.1076685919784886e+01 7.2971607420111226e+00 
1726 1328 2 1.0279865352319817e+00 -3.6078502432107480e+03 4.2000000000000000e+03 1.0556765602261363e+01 1.0540925770035585e+01 7.7080343511353062e+00 
780 382 2 1.0279999999999996e+00 1.9885048815236585e+03 4.2000000000000000e+03 1.9777134945524530e+01 1.1871074290458704e+01 6.5968492201960878e+00 
777 379 2 1.0279999999999996e+00 1.9885196309294522e+03 4.2000000000000000e+03 1.8354732685686979e+01 1.1885462155516390e+01 6.5969838123998308e+00 
750 352 2 1.0279699127494011e+00 -3.0184958687100898e+03 4.2000000000000000e+03 1.0864326013596544e+01 1.2451527333160117e+01 6.0603328588399092e+00 
1111 713 2 1.0279999999999991e+00 -5.8874351119591902e+03 4.2000000000000000e+03 1.7980663489564176e+01 1.2565427763366401e+01 6.6216258447344192e+00 
1095 697 2 1.0280000000000002e+00 -1.0952288302346001e+03 4.2000000000000000e+03 1.9435429345744669e+01 1.3764022788747800e+01 6.9307496644095838e+00 
1094 696 2 1.0280000000000005e+00 -1.0952079156246577e+03 4.2000000000000000e+03 1.8703281784646624e+01 1.3773657120846089e+01 6.9332002483820094e+00 
922 524 2 1.0280337228841445e+00 -3.7041314013427365e+02 4.2000000000000000e+03 5.7322607585261371e+00 1.4911003143862416e+01 7.5077951848575930e+00 
2064 1666 2 1.0279951405266916e+00 2.3273979845680665e+02 4.2000000000000000e+03 6.0269775823143021e+00 1.5563687708379383e+01 6.0661395657892383e+00 
1891 1493 2 1.0280011484175402e+00 1.1936790473034634e+03 4.2000000000000000e+03 5.4349394926472199e+00 1.6323870026856788e+01 6.3507880258300977e+00 
1595 1197 2 1.0280007273361611e+00 -3.6251253101093298e+03 4.2000000000000000e+03 5.5273156752737505e+00 6.3921374516455582e+00 8.5284788205728788e+00 
1730 1332 2 1.0280007811712528e+00 -2.9667993174374933e+03 4.2000000000000000e+03 5.5492462485027678e+00 6.4070635724647760e+00 8.5428819208726630e+00 
754 356 2 1.0280036211922958e+00 -3.6018351134913091e+03 4.2000000000000000e+03 8.9072120971794622e+00 7.3888924514257406e+00 7.8561664418184032e+00 
418 20 2 1.0280097459504589e+00 -5.5636248246132595e+02 4.2000000000000000e+03 7.6157003165362545e+00 9.5172895346994473e+00 7.9294968727170438e+00 
1590 1192 2 1.0279970704380932e+00 -3.0084742204936470e+03 4.2000000000000000e+03 7.4407073374282113e+00 8.1036390078055689e+00 9.3833585164002784e+00 
1731 1333 2 1.0279961474222905e+00 -2.9717617772905401e+03 4.2000000000000000e+03 7.6230747537983241e+00 8.3498560635799581e+00 9.5396764259756957e+00 
755 357 2 1.0280001115303126e+00 -3.5955033397125853e+03 4.2000000000000000e+03 9.3716411994392796e+00 8.3809881188112154e+00 7.9251155359164382e+00 
1169 771 2 1.0280043536748886e+00 1.5635744594459657e+03 4.2000000000000000e+03 8.5028316757914819e+00 9.4425942802848812e+00 8.6843568526908559e+00 
1229 831 2 1.0279900073787274e+00 1.9261152385701555e+03 4.2000000000000000e+03 6.2629396186052277e+00 1.2470628594227737e+01 9.5753449517816680e+00 
550 152 2 1.0279846857787331e+00 -5.4319331225543749e+02 4.2000000000000000e+03 6.1511146069605509e+00 1.4218131369310559e+01 7.9038406908668755e+00 
1273 875 2 1.0280055377577002e+00 1.6348521843712685e+03 4.2000000000000000e+03 6.7032727383217496e+00 1.4779739988628274e+01 8.7755057299429726e+00 
1984 1586 2 1.0280285614142475e+00 4.5611204980023172e+02 4.2000000000000000e+03 6.7879881030821094e+00 1.4204333569940998e+01 9.6158164827287891e+00 
1906 1508 2 1.0280076324435008e+00 3.6285508905553647e+03 4.2000000000000000e+03 4.9155104599495463e+00 1.2126024660156784e+01 1.0754063815820770e+01 
1907 1509 2 1.0280077570099400e+00 3.6286978959817111e+03 4.2000000000000000e+03 4.9176970297793066e+00 1.2145248758374597e+01 1.0765247238018871e+01 
723 325 2 1.0279972301707863e+00 1.7029426680720776e+03 4.2000000000000000e+03 6.4906690579290780e+00 1.2054128436781982e+01 1.0150306073458555e+01 
1105 707 2 1.0279921739166991e+00 1.6488389875534201e+03 4.2000000000000000e+03 6.6205275152651577e+00 1.3655230445358969e+01 1.1027661462162337e+01 
1092 694 2 1.0279955490635375e+00 1.2665978542548924e+03 4.2000000000000000e+03 4.7739405481931811e+00 1.5243394246496882e+01 1.1583086568455704e+01 
1767 1369 2 1.0280105261422146e+00 1.3009408620042154e+03 4.2000000000000000e+03 6.4611177869570930e+00 1.4575884950653428e+01 1.1474863702852698e+01 
1089 691 2 1.0280048772100743e+00 1.2664475451846924e+03 4.2000000000000000e+03 3.9494786490646714e+00 1.5621183084733241e+01 1.2246049382565014e+01 
1929 1531 2 1.0279990011332818e+00 1.4730355556209665e+02 4.2000000000000000e+03 5.4915652166143065e+00 1.4656724150659043e+01 1.2115677110844064e+01 
1939 1541 2 1.0279989661546667e+00 -1.4857864455259712e+03 4.2000000000000000e+03 4.1339646191960044e+00 1.6973860842890318e+01 1.2709535559092485e+01 
1938 1540 2 1.0279989857877236e+00 -1.4857848489673511e+03 4.2000000000000000e+03 4.1392736384202529e+00 1.6973876954989464e+01 1.2709363176655176e+01 
663 265 2 1.0279981361721442e+00 2.4170322589564448e+03 4.2000000000000000e+03 5.3536578404101232e-01 8.4626812345431135e-01 1.7621270987850583e+01 
823 425 2 1.0279981361721342e+00 -4.3055476390756739e+03 4.2000000000000000e+03 5.2827017435786294e-01 8.4293563649529646e-01 1.7611914686752264e+01 
1851 1453 2 1.0279999999999092e+00 2.2022040200655892e+03 4.2000000000000000e+03 5.2174414981819393e+00 6.5963038471934832e-01 1.6307831501221717e+01 
1695 1297 2 1.0280000000001264e+00 -3.6274657629816447e+03 4.2000000000000000e+03 5.3016799159890597e+00 6.5722432888601001e-01 1.6442818306732256e+01 
1172 774 2 1.0280000003373260e+00 1.5261777263981271e+03 4.2000000000000000e+03 1.7814144039950744e+01 5.7935722024230216e+00 1.6376462292416360e+01 
1964 1566 2 1.0279999999246128e+00 1.3733434965813731e+03 4.2000000000000000e+03 1.8105355985174459e+01 6.6161139577159265e+00 1.6349353926192020e+01 
2032 1634 2 1.0279999993990891e+00 1.3537997763320200e+03 4.2000000000000000e+03 1.8412413789754368e+01 6.0639917793213254e+00 1.6951841585389502e+01 
2029 1631 2 1.0280000002767329e+00 1.3596449113128235e+03 4.2000000000000000e+03 1.9593101353964396e+01 5.2502031510795009e+00 1.9550848588802378e+01 
1961 1563 2 1.0280000002526566e+00 1.3927495123901385e+03 4.2000000000000000e+03 1.9695876693723687e+01 5.2794131173313961e+00 1.9815012644757264e+01 
698 300 2 1.0280000143018400e+00 2.6536799558424987e+03 4.2000000000000000e+03 8.7721707092328327e-01 1.8967219639553921e+01 2.7667631036634280e+01 
870 472 2 1.0279998254869611e+00 -3.8359869784929160e+03 4.2000000000000000e+03 8.0832716895780921e-01 1.8624504012649631e+01 2.8098652634331373e+01 
895 497 2 1.0279999230237440e+00 6.0175738381879924e+01 4.2000000000000000e+03 2.1335445746333023e-01 1.9639117579054499e+01 3.0303197987205582e+01 
1286 888 2 1.0280003571617857e+00 -5.6227928532640781e+03 4.2000000000000000e+03 1.5841930198550140e+01 1.6773052284916412e+00 3.6481765557313821e+01 
1287 889 2 1.0280002553416965e+00 -5.6233607068486517e+03 4.2000000000000000e+03 1.8775347633045612e+01 7.7850379366050115e-01 3.6727207788118861e+01 
1280 882 2 1.0279989166228212e+00 9.9426427751766960e+02 4.2000000000000000e+03 1.8495607268657587e+01 1.9952224485876453e+00 3.7036067286014543e+01 
1277 879 2 1.0279999470865757e+00 9.9482220556820300e+02 4.2000000000000000e+03 1.6032376074497069e+01 2.6369293782225474e+00 3.6425467537088366e+01 
1297 899 2 1.0279998768162473e+00 1.1126599888805420e+03 4.2000000000000000e+03 1.6448067869715281e+01 2.3293035196982177e+00 3.5793679592688555e+01 
1300 902 2 1.0280005240667811e+00 1.1123584198368701e+03 4.2000000000000000e+03 1.8261879784169398e+01 2.0468762752988070e+00 3.6490365203581788e+01 
1437 1039 2 1.0280009613247427e+00 2.4049099022679193e+03 4.2000000000000000e+03 1.5588515732299089e+00 6.6393176928949185e+00 3.6887906387871936e+01 
1440 1042 2 1.0280009613247343e+00 2.4049090552576949e+03 4.2000000000000000e+03 1.5593979892285645e+00 6.6393840312982046e+00 3.6888447865130146e+01 
801 403 2 1.0279988670339304e+00 1.8142420956324981e+03 4.2000000000000000e+03 1.5344289119346470e+01 7.9743266670013038e-02 3.8825882912717745e+01 
1915 1517 2 1.0279992690465827e+00 -2.1404215154619840e+02 4.2000000000000000e+03 1.6518677237408756e+01 1.4647272661825286e+00 3.8958996773228257e+01 
402 4 2 1.0280031204880566e+00 -2.1492331082873730e+02 4.2000000000000000e+03 1.7091725415564454e+01 1.3657255732699922e+00 3.9000133839615380e+01 
955 557 2 1.0279986859989063e+00 1.8110247457517710e+03 4.2000000000000000e+03 1.7904372834186312e+01 2.0980463417756137e-01 3.7885381882764285e+01 
597 199 2 1.0279990386799269e+00 -7.3533661763980126e+02 4.2000000000000000e+03 9.0266304812120968e-01 5.2808004404031177e+00 3.7719001272067430e+01 
600 202 2 1.0279990386799245e+00 -7.3686878564912490e+02 4.2000000000000000e+03 9.0183302843592172e-01 5.2794533469496940e+00 3.7716136253621478e+01 
965 567 2 1.0280024000881030e+00 2.6608858208007514e+03 4.2000000000000000e+03 1.4858014566415379e+01 1.6827716169180345e+00 4.0061597307417081e+01 
621 223 2 1.0279956548432208e+00 -1.1344719373625444e+03 4.2000000000000000e+03 1.5002488644550100e+01 6.2737445230108069e-01 4.1174284517447646e+01 
821 423 2 1.0279977109044636e+00 1.3500264019041522e+03 4.2000000000000000e+03 1.4969762998817275e+01 1.7309053132692231e-01 3.9859941303038028e+01 
824 426 2 1.0279963646865935e+00 1.3467053291686211e+03 4.2000000000000000e+03 1.8748570577688835e+01 6.4775393992524610e-01 3.9341232555684712e+01 
464 66 2 1.0279991136297033e+00 8.9586293120863786e+02 4.2000000000000000e+03 1.5740460246624686e+01 2.0481278943766039e+00 4.0479550151344412e+01 
461 63 2 1.0280022836736193e+00 8.9412757834005481e+02 4.2000000000000000e+03 1.8874160191219087e+01 2.5187758930994275e+00 3.9736759922247131e+01 
968 570 2 1.0280022542173424e+00 2.6590920546989996e+03 4.2000000000000000e+03 1.8925640233507913e+01 2.5443783426604774e+00 3.9716738432620012e+01 
978 580 2 1.0280001141616821e+00 4.8450701585781735e+03 4.2000000000000000e+03 1.6350284615435861e+01 1.2631035198747365e+00 4.1698642412543656e+01 
1914 1516 2 1.0279995456254587e+00 -2.1318753645153785e+02 4.2000000000000000e+03 1.7580504158705061e+01 1.8983162705949357e+00 4.2103384060401702e+01 
454 56 2 1.0279949936635522e+00 -1.0863917649345867e+03 4.2000000000000000e+03 1.8576698526466057e+01 6.0747161294492336e-01 4.1499334807625900e+01 
403 5 2 1.0279993149005358e+00 -2.1493992169867781e+02 4.2000000000000000e+03 1.6894191924757990e+01 3.3740114223042492e+00 4.1943412389299503e+01 
1139 741 2 1.0279998391219045e+00 -6.3244272450178050e+03 4.2000000000000000e+03 1.8274754347066462e+01 3.1963612677604303e+00 4.2299424292684783e+01 
979 581 2 1.0280014591075617e+00 4.8444890352330449e+03 4.2000000000000000e+03 1.8285339384218457e+01 4.1827944755602591e+00 4.2994309457802288e+01 
1159 761 2 1.0280000739945674e+00 -5.6534456481855432e+03 4.2000000000000000e+03 1.3557125231744658e+01 7.0835276518692725e-01 4.4598169260976853e+01 
661 263 2 1.0279997273447776e+00 -9.2280079253306451e+02 4.2000000000000000e+03 1.5518840777756347e+01 1.2842777192900650e+00 4.4157518435372452e+01 
805 407 2 1.0280007680777556e+00 1.8304913760329525e+03 4.2000000000000000e+03 1.4184325810313480e+01 5.2226538890659235e-01 4.4830222520834972e+01 
753 355 2 1.0279970351557175e+00 2.5935974723638383e+03 4.2000000000000000e+03 1.6082032154344713e+01 1.0872862104988406e+00 4.3648248801040509e+01 