LAMMPS data file via write_data, version 30 Jul 2016, timestep = 50400000

180 atoms
2 atom types

0.0000000000000000e+00 2.0000000000000000e+01 xlo xhi
0.0000000000000000e+00 2.0000000000000000e+01 ylo yhi
0.0000000000000000e+00 2.0000000000000000e+01 zlo zhi

Masses

1 3.896
2 4.31

Atoms # meso-molecular

31 1 2 1.0280031796384548e+00 -1.7798224842899663e+02 1.0000000000000000e+00 4.3730822248622186e-01 2.4209473882757289e+00 9.5832939287033056e-02 
80 1 2 1.0280031796219220e+00 -1.9673299060145027e+02 1.0000000000000000e+00 4.3730947646095375e-01 2.4209495667137828e+00 9.5833818283776920e-02 
19 1 2 1.0280031795989903e+00 -2.2442487018106831e+02 1.0000000000000000e+00 4.3731127012564153e-01 2.4209388028799852e+00 9.5825318960828215e-02 
32 1 2 1.0280031807655479e+00 -1.8047911986379503e+02 1.0000000000000000e+00 4.3722245321905467e-01 2.4208605731841919e+00 9.5816543775341351e-02 
33 1 2 1.0280031802805247e+00 -2.0558950826762455e+02 1.0000000000000000e+00 4.3725935489017009e-01 2.4208996211346050e+00 9.5824787021354205e-02 
70 1 2 1.0280031802805245e+00 -2.8377491667392928e+02 1.0000000000000000e+00 4.3725935490536050e-01 2.4208996211349674e+00 9.5824787013705365e-02 
144 1 2 1.0279925277606752e+00 -2.5899858939989593e+02 1.0000000000000000e+00 9.5375292839844361e-01 9.9272844665872506e-01 1.9597358522651136e+00 
140 1 2 1.0279925313145606e+00 -2.5873131057678535e+02 1.0000000000000000e+00 9.5371825586914638e-01 9.9262031701244879e-01 1.9596869051435726e+00 
37 1 2 1.0279925313145697e+00 -2.4605899291898282e+02 1.0000000000000000e+00 9.5371825579534208e-01 9.9262031678200036e-01 1.9596869050392070e+00 
1 1 2 1.0279925313145635e+00 -2.2790255631912694e+02 1.0000000000000000e+00 9.5371825585616943e-01 9.9262031697274455e-01 1.9596869051256582e+00 
2 1 2 1.0279925313145428e+00 -2.6566524056450959e+02 1.0000000000000000e+00 9.5371825603709937e-01 9.9262031752109925e-01 1.9596869053725585e+00 
38 1 2 1.0279925313145390e+00 -2.2535768630636883e+02 1.0000000000000000e+00 9.5371825605123506e-01 9.9262031756486180e-01 1.9596869053923514e+00 
40 1 2 1.0280280492864726e+00 -1.9810885061707242e+02 1.0000000000000000e+00 3.5886391532599595e+00 3.0263861449536194e+00 7.2662378975082631e-01 
129 1 2 1.0280280492864731e+00 -1.7599953330390593e+02 1.0000000000000000e+00 3.5886391532599675e+00 3.0263861449536060e+00 7.2662378975076103e-01 
82 1 2 1.0280280492864726e+00 -2.2595791613347342e+02 1.0000000000000000e+00 3.5886391532599595e+00 3.0263861449536194e+00 7.2662378975082631e-01 
137 1 2 1.0280280492864731e+00 -2.3561175207282020e+02 1.0000000000000000e+00 3.5886391532599675e+00 3.0263861449536060e+00 7.2662378975076103e-01 
172 1 2 1.0280280492864726e+00 -1.6575913504932618e+02 1.0000000000000000e+00 3.5886391532599595e+00 3.0263861449536194e+00 7.2662378975082631e-01 
108 1 2 1.0280280492864726e+00 -2.1181764435103429e+02 1.0000000000000000e+00 3.5886391532599595e+00 3.0263861449536194e+00 7.2662378975082631e-01 
46 1 2 1.0280280492864731e+00 -1.6523418908088820e+02 1.0000000000000000e+00 3.5886391532599675e+00 3.0263861449536060e+00 7.2662378975076103e-01 
24 1 2 1.0280061432040277e+00 -1.8012252949101861e+02 1.0000000000000000e+00 6.0609944821201962e+00 5.7298617240350147e+00 9.4798890361677574e-02 
25 1 2 1.0280061432040277e+00 -2.1000659830468766e+02 1.0000000000000000e+00 6.0609944821202664e+00 5.7298617240351817e+00 9.4798890361667734e-02 
92 1 2 1.0280061432040273e+00 -1.6721289716593071e+02 1.0000000000000000e+00 6.0609944821203827e+00 5.7298617240353753e+00 9.4798890361735083e-02 
30 1 2 1.0280061432040273e+00 -2.0126076909994606e+02 1.0000000000000000e+00 6.0609944821202166e+00 5.7298617240350618e+00 9.4798890361678809e-02 
84 1 2 1.0280525557291993e+00 -3.0186411645244891e+02 1.0000000000000000e+00 2.9638152633569916e+00 2.3216056894695800e+00 4.8531868959452131e+00 
114 1 2 1.0280525557291993e+00 -2.6405820900228059e+02 1.0000000000000000e+00 2.9638152633569321e+00 2.3216056894696946e+00 4.8531868959451865e+00 
119 1 2 1.0280525557291993e+00 -2.9815728497308902e+02 1.0000000000000000e+00 2.9638152633569228e+00 2.3216056894697181e+00 4.8531868959451891e+00 
47 1 2 1.0280525557291993e+00 -1.6532511767067609e+02 1.0000000000000000e+00 2.9638152633570787e+00 2.3216056894693917e+00 4.8531868959452318e+00 
120 1 2 1.0280525557291995e+00 -3.5181656256772891e+02 1.0000000000000000e+00 2.9638152633573642e+00 2.3216056894686941e+00 4.8531868959452042e+00 
77 1 2 1.0280525557291995e+00 -2.7118604806993864e+02 1.0000000000000000e+00 2.9638152633572790e+00 2.3216056894689423e+00 4.8531868959452504e+00 
83 1 2 1.0280525557291993e+00 -1.6896074443380877e+02 1.0000000000000000e+00 2.9638152633569192e+00 2.3216056894697239e+00 4.8531868959451847e+00 
11 1 2 1.0279464280571837e+00 -1.9947860945687566e+02 1.0000000000000000e+00 5.8059182893615882e+00 3.5561838524062201e+00 3.8146436603724383e+00 
3 1 2 1.0279464280571837e+00 -2.0384090860502968e+02 1.0000000000000000e+00 5.8059182893615837e+00 3.5561838524062348e+00 3.8146436603724418e+00 
39 1 2 1.0279464280571837e+00 -2.0008353004151937e+02 1.0000000000000000e+00 5.8059182893615837e+00 3.5561838524062348e+00 3.8146436603724418e+00 
164 1 2 1.0279464280571837e+00 -2.4070236544641116e+02 1.0000000000000000e+00 5.8059182893615890e+00 3.5561838524062210e+00 3.8146436603724392e+00 
4 1 2 1.0279464280571837e+00 -2.3520111354443341e+02 1.0000000000000000e+00 5.8059182893615837e+00 3.5561838524062348e+00 3.8146436603724418e+00 
51 1 2 1.0279464280571837e+00 -1.1557144839923535e+02 1.0000000000000000e+00 5.8059182893615837e+00 3.5561838524062348e+00 3.8146436603724418e+00 
10 1 2 1.0279464280571837e+00 -2.3228557243933571e+02 1.0000000000000000e+00 5.8059182893615846e+00 3.5561838524062312e+00 3.8146436603724432e+00 
150 1 2 1.0279606466669009e+00 -2.0883783085271835e+02 1.0000000000000000e+00 1.2014471191601677e+00 1.0131188207303350e+00 9.7136525364540294e+00 
134 1 2 1.0279606466669009e+00 -1.8231237961879071e+02 1.0000000000000000e+00 1.2014471191601721e+00 1.0131188207303286e+00 9.7136525364540258e+00 
27 1 2 1.0279606466669009e+00 -1.1735505771074722e+02 1.0000000000000000e+00 1.2014471191601677e+00 1.0131188207303350e+00 9.7136525364540294e+00 
155 1 2 1.0279606466669009e+00 -1.6932129931658690e+02 1.0000000000000000e+00 1.2014471191601677e+00 1.0131188207303350e+00 9.7136525364540294e+00 
57 1 2 1.0279606466669009e+00 -2.7707796779556833e+02 1.0000000000000000e+00 1.2014471191601654e+00 1.0131188207303345e+00 9.7136525364540329e+00 
21 1 2 1.0279606466669009e+00 -1.1904620401776054e+02 1.0000000000000000e+00 1.2014471191601654e+00 1.0131188207303345e+00 9.7136525364540329e+00 
58 1 2 1.0279606466669009e+00 -2.6697660237009217e+02 1.0000000000000000e+00 1.2014471191601725e+00 1.0131188207303228e+00 9.7136525364540294e+00 
130 1 2 1.0280310226189180e+00 -1.9035836524507110e+02 1.0000000000000000e+00 9.1389896908696915e-03 1.7955192891278678e+01 3.4245728290639654e+00 
136 1 2 1.0280310226189178e+00 -2.1400884663500833e+02 1.0000000000000000e+00 9.1389896896612345e-03 1.7955192891277683e+01 3.4245728290657449e+00 
78 1 2 1.0280310226189193e+00 -3.2084790763536807e+02 1.0000000000000000e+00 9.1389897199997492e-03 1.7955192891306513e+01 3.4245728290180431e+00 
166 1 2 1.0280310226189184e+00 -1.5823360713821154e+02 1.0000000000000000e+00 9.1389897108668100e-03 1.7955192891297411e+01 3.4245728290327402e+00 
13 1 2 1.0279999999998559e+00 -3.1715367404323086e+02 1.0000000000000000e+00 5.6114521650609879e+00 1.2324413758246623e+01 1.2143241427615463e+01 
61 1 2 1.0279999999998461e+00 -1.7836190736532382e+02 1.0000000000000000e+00 5.6140744900773152e+00 1.2156504871638051e+01 1.2131364691217577e+01 
100 1 2 1.0279999999998428e+00 -2.2341288410408265e+02 1.0000000000000000e+00 5.6145767484560531e+00 1.2163550455740433e+01 1.2130065527924478e+01 
64 1 2 1.0279999999998499e+00 -2.0498415022057986e+02 1.0000000000000000e+00 5.6145767478716211e+00 1.2163550451428447e+01 1.2130065528880486e+01 
156 1 2 1.0279999999998455e+00 -1.5799211952206412e+02 1.0000000000000000e+00 5.6145767481137936e+00 1.2163550453055752e+01 1.2130065528504201e+01 
55 1 2 1.0279999999998390e+00 -1.4829697540987621e+02 1.0000000000000000e+00 5.6147955079859768e+00 1.2165565116471207e+01 1.2129662885673930e+01 
139 1 2 1.0280003941340277e+00 -2.5308710870522557e+02 1.0000000000000000e+00 1.1557690075418597e+01 1.5642365278015198e+00 6.1725833064709301e-01 
53 1 2 1.0280003941341016e+00 -1.5696736672312193e+02 1.0000000000000000e+00 1.1557690074638074e+01 1.5642366264834657e+00 6.1725838850734260e-01 
56 1 2 1.0280003941340263e+00 -1.6347246588939197e+02 1.0000000000000000e+00 1.1557690075418353e+01 1.5642365278223502e+00 6.1725833065924907e-01 
12 1 2 1.0280003941341020e+00 -2.9878953831782815e+02 1.0000000000000000e+00 1.1557690074639829e+01 1.5642366263211813e+00 6.1725838841256431e-01 
54 1 2 1.0280003941341020e+00 -1.6628441903765736e+02 1.0000000000000000e+00 1.1557690074638089e+01 1.5642366264769889e+00 6.1725838850351455e-01 
18 1 2 1.0279955396930993e+00 -2.6195168874899036e+02 1.0000000000000000e+00 8.3365850605914460e+00 4.9976587038899218e+00 7.6777047021158262e-01 
43 1 2 1.0279955396931009e+00 -2.7199266961547357e+02 1.0000000000000000e+00 8.3365850605913501e+00 4.9976587038898925e+00 7.6777047021170397e-01 
73 1 2 1.0279955396931000e+00 -2.0749302150799960e+02 1.0000000000000000e+00 8.3365850605913607e+00 4.9976587038899121e+00 7.6777047021170164e-01 
133 1 2 1.0279955396931004e+00 -2.0659274102705763e+02 1.0000000000000000e+00 8.3365850605914034e+00 4.9976587038898774e+00 7.6777047021162281e-01 
94 1 2 1.0279955396931006e+00 -2.5065242597249602e+02 1.0000000000000000e+00 8.3365850605913074e+00 4.9976587038898570e+00 7.6777047021175471e-01 
93 1 2 1.0279955348992373e+00 -2.4092382891579985e+02 1.0000000000000000e+00 8.3371447766009048e+00 4.9960783588665114e+00 7.6628649317597020e-01 
16 1 2 1.0279983335258323e+00 -2.1370061440755623e+02 1.0000000000000000e+00 1.1863123444924163e+01 4.6964371421014341e+00 2.0146698856986904e+00 
29 1 2 1.0279983335258323e+00 -1.8522668023790501e+02 1.0000000000000000e+00 1.1863123444923572e+01 4.6964371421013453e+00 2.0146698856988166e+00 
22 1 2 1.0279983335258323e+00 -1.8678669481238805e+02 1.0000000000000000e+00 1.1863123444924803e+01 4.6964371421014368e+00 2.0146698856986531e+00 
65 1 2 1.0279983335258323e+00 -2.2400692756854818e+02 1.0000000000000000e+00 1.1863123444924058e+01 4.6964371421006206e+00 2.0146698856995728e+00 
23 1 2 1.0279983335258323e+00 -2.5462184077773227e+02 1.0000000000000000e+00 1.1863123444924803e+01 4.6964371421014368e+00 2.0146698856986531e+00 
59 1 2 1.0279983335258323e+00 -2.6130837280693208e+02 1.0000000000000000e+00 1.1863123444925051e+01 4.6964371421007174e+00 2.0146698856994134e+00 
17 1 2 1.0279983335258323e+00 -1.9478674085681814e+02 1.0000000000000000e+00 1.1863123444923904e+01 4.6964371421011757e+00 2.0146698856989822e+00 
128 1 2 1.0279995676279468e+00 -1.6654949390354048e+02 1.0000000000000000e+00 1.2597720332998984e+01 2.1500062775037203e+00 1.6422257493418758e+01 
116 1 2 1.0279995676279468e+00 -2.0530020629405951e+02 1.0000000000000000e+00 1.2597720332998986e+01 2.1500062775036874e+00 1.6422257493418883e+01 
158 1 2 1.0279995676279470e+00 -2.3956197358345716e+02 1.0000000000000000e+00 1.2597720333000050e+01 2.1500062775030511e+00 1.6422257493421728e+01 
169 1 2 1.0279995676279465e+00 -2.2422789326960722e+02 1.0000000000000000e+00 1.2597720332998982e+01 2.1500062775037203e+00 1.6422257493418755e+01 
175 1 2 1.0280018534995561e+00 -2.2699243329443985e+02 1.0000000000000000e+00 1.2271768707142854e+01 3.6009246619064075e+00 1.5903881281472884e+01 
111 1 2 1.0280019228783654e+00 -2.5106430684636373e+02 1.0000000000000000e+00 1.2272088592540007e+01 3.6041125453995795e+00 1.5910731158966957e+01 
75 1 2 1.0280019228783654e+00 -2.8172368160438873e+02 1.0000000000000000e+00 1.2272088592540204e+01 3.6041125453998206e+00 1.5910731158967442e+01 
7 1 2 1.0280019228783654e+00 -2.7911021869395688e+02 1.0000000000000000e+00 1.2272088592539854e+01 3.6041125453995888e+00 1.5910731158967009e+01 
52 1 2 1.0280019228783659e+00 -1.4071961897498034e+02 1.0000000000000000e+00 1.2272088592539973e+01 3.6041125453997189e+00 1.5910731158967273e+01 
81 1 2 1.0279993160890126e+00 -2.1675237827121441e+02 1.0000000000000000e+00 1.2069023702518052e+01 2.7741334567936144e+00 1.9527723502491469e+01 
103 1 2 1.0279993160890128e+00 -1.3517364218397077e+02 1.0000000000000000e+00 1.2069023702518788e+01 2.7741334567904308e+00 1.9527723502481436e+01 
67 1 2 1.0279993160890126e+00 -1.4593062255187905e+02 1.0000000000000000e+00 1.2069023702516807e+01 2.7741334567984315e+00 1.9527723502506745e+01 
9 1 2 1.0279991110562987e+00 -1.7309107055448877e+02 1.0000000000000000e+00 1.3308775561435793e+01 1.3885052273431648e+00 1.8863648455739352e+01 
8 1 2 1.0279991110562938e+00 -1.6004728388076452e+02 1.0000000000000000e+00 1.3308775561787225e+01 1.3885052277309631e+00 1.8863648456138556e+01 
14 1 2 1.0279991110561639e+00 -1.5817115472451209e+02 1.0000000000000000e+00 1.3308775435126622e+01 1.3885050876615246e+00 1.8863648312893002e+01 
15 1 2 1.0279991110563047e+00 -2.1376418597384512e+02 1.0000000000000000e+00 1.3308775561058441e+01 1.3885052269245677e+00 1.8863648455315474e+01 
87 1 2 1.0279991110566664e+00 -1.6277081774010756e+02 1.0000000000000000e+00 1.3308776141914599e+01 1.3885058715210958e+00 1.8863649107364214e+01 
178 1 2 1.0279994979035674e+00 -2.4643807811042680e+02 1.0000000000000000e+00 6.7192982784034143e+00 5.3154997630915588e+00 1.8840923477345779e+01 
163 1 2 1.0279994979046441e+00 -2.1136054491157896e+02 1.0000000000000000e+00 6.7192984173913324e+00 5.3154999433832577e+00 1.8840923426911036e+01 
98 1 2 1.0279994979043348e+00 -2.3312340921559863e+02 1.0000000000000000e+00 6.7192983727266160e+00 5.3154998854434021e+00 1.8840923443118889e+01 
121 1 2 1.0279994979042226e+00 -2.0662559527421186e+02 1.0000000000000000e+00 6.7192983517924407e+00 5.3154998582890016e+00 1.8840923450715330e+01 
20 1 2 1.0280335959039644e+00 -2.2445034300291300e+02 1.0000000000000000e+00 9.5526808706810069e+00 5.1020668714295327e+00 1.7246149650178353e+01 
135 1 2 1.0280335959039644e+00 -2.0814912563161133e+02 1.0000000000000000e+00 9.5526808706810300e+00 5.1020668714295478e+00 1.7246149650178396e+01 
141 1 2 1.0280335959039644e+00 -2.5948090035609101e+02 1.0000000000000000e+00 9.5526808706810069e+00 5.1020668714295327e+00 1.7246149650178353e+01 
176 1 2 1.0280335959039644e+00 -2.2012877970566996e+02 1.0000000000000000e+00 9.5526808706810300e+00 5.1020668714295478e+00 1.7246149650178396e+01 
26 1 2 1.0280335959039641e+00 -2.0077784611649213e+02 1.0000000000000000e+00 9.5526808706810318e+00 5.1020668714296242e+00 1.7246149650178470e+01 
177 1 2 1.0280335959039644e+00 -2.4481350900641840e+02 1.0000000000000000e+00 9.5526808706809820e+00 5.1020668714295416e+00 1.7246149650178335e+01 
170 1 2 1.0280335959039644e+00 -2.4041169188080096e+02 1.0000000000000000e+00 9.5526808706809820e+00 5.1020668714295416e+00 1.7246149650178335e+01 
106 1 2 1.0279999999998406e+00 -1.5724258213966081e+02 1.0000000000000000e+00 6.9911272139581273e+00 1.2274641290515815e+01 1.4039932951176427e+01 
28 1 2 1.0279999999998384e+00 -1.6523577922886477e+02 1.0000000000000000e+00 6.9721171110356650e+00 1.2442041138033167e+01 1.4022956176068902e+01 
142 1 2 1.0279999999998464e+00 -1.6539313665036985e+02 1.0000000000000000e+00 6.9924309341035134e+00 1.2282419176432793e+01 1.4039071329980532e+01 
79 1 2 1.0279999999998510e+00 -2.3058326453618946e+02 1.0000000000000000e+00 6.9930338917831447e+00 1.2287578025317215e+01 1.4038607658475806e+01 
149 1 2 1.0279999999998386e+00 -1.6600123492720377e+02 1.0000000000000000e+00 6.9934406982770536e+00 1.2292382421964438e+01 1.4038230310514686e+01 
107 1 2 1.0279999999998390e+00 -2.5013125714779804e+02 1.0000000000000000e+00 6.9912079222924053e+00 1.2275108875912485e+01 1.4039883700581990e+01 
42 1 2 1.0280000355212298e+00 -2.9766776263895133e+02 1.0000000000000000e+00 1.6648514591670313e+01 2.5600631216066452e+00 2.9143584682841350e+00 
143 1 2 1.0280000355212298e+00 -2.4307229479075056e+02 1.0000000000000000e+00 1.6648514591670253e+01 2.5600631216053937e+00 2.9143584682813541e+00 
110 1 2 1.0280000355212298e+00 -1.2207243424920144e+02 1.0000000000000000e+00 1.6648514591670228e+01 2.5600631216067002e+00 2.9143584682840924e+00 
160 1 2 1.0280000355212298e+00 -1.6583114177727816e+02 1.0000000000000000e+00 1.6648514591670320e+01 2.5600631216066652e+00 2.9143584682841959e+00 
97 1 2 1.0280000355212298e+00 -1.8460579698690415e+02 1.0000000000000000e+00 1.6648514591670530e+01 2.5600631216065026e+00 2.9143584682842363e+00 
159 1 2 1.0280000355212298e+00 -1.7161295971266065e+02 1.0000000000000000e+00 1.6648514591670637e+01 2.5600631216050251e+00 2.9143584682812875e+00 
85 1 2 1.0280000355212298e+00 -1.5618158465322841e+02 1.0000000000000000e+00 1.6648514591670637e+01 2.5600631216050251e+00 2.9143584682812875e+00 
132 1 2 1.0280000355212298e+00 -3.1095692943270535e+02 1.0000000000000000e+00 1.4616974953012296e+01 2.4427927656248088e-01 4.0007740453136549e+00 
126 1 2 1.0280000355212298e+00 -3.1098737418589155e+02 1.0000000000000000e+00 1.4616974953012296e+01 2.4427927656248213e-01 4.0007740453136629e+00 
171 1 2 1.0280000355212298e+00 -2.1584717516115757e+02 1.0000000000000000e+00 1.4616974953012296e+01 2.4427927656248088e-01 4.0007740453136549e+00 
125 1 2 1.0280000355212298e+00 -2.3972716950429319e+02 1.0000000000000000e+00 1.4616974953012296e+01 2.4427927656248088e-01 4.0007740453136549e+00 
89 1 2 1.0280000355212298e+00 -2.2567463573508024e+02 1.0000000000000000e+00 1.4616974953012296e+01 2.4427927656248088e-01 4.0007740453136549e+00 
88 1 2 1.0280000355212298e+00 -2.0434805599955644e+02 1.0000000000000000e+00 1.4616974953012296e+01 2.4427927656248088e-01 4.0007740453136549e+00 
131 1 2 1.0280000355212298e+00 -2.6065294624039905e+02 1.0000000000000000e+00 1.4616974953012296e+01 2.4427927656248088e-01 4.0007740453136549e+00 
117 1 2 1.0279618667342820e+00 -1.6107380465402528e+02 1.0000000000000000e+00 1.6379242103606295e+01 6.0514916722671497e-01 1.3904179384032391e+01 
148 1 2 1.0279618667342820e+00 -1.6814828058758471e+02 1.0000000000000000e+00 1.6379242103606295e+01 6.0514916722671497e-01 1.3904179384032391e+01 
153 1 2 1.0279618667342820e+00 -2.2063842694762681e+02 1.0000000000000000e+00 1.6379242103606284e+01 6.0514916722670808e-01 1.3904179384032391e+01 
112 1 2 1.0279618667342822e+00 -1.4414002837785577e+02 1.0000000000000000e+00 1.6379242103606369e+01 6.0514916722673939e-01 1.3904179384032414e+01 
118 1 2 1.0279618667342820e+00 -1.9904212184830988e+02 1.0000000000000000e+00 1.6379242103606288e+01 6.0514916722671264e-01 1.3904179384032389e+01 
154 1 2 1.0279618667342820e+00 -1.4963266372562873e+02 1.0000000000000000e+00 1.6379242103606295e+01 6.0514916722671497e-01 1.3904179384032391e+01 
113 1 2 1.0279618667342820e+00 -1.5273864628716879e+02 1.0000000000000000e+00 1.6379242103606295e+01 6.0514916722671885e-01 1.3904179384032389e+01 
91 1 2 1.0279713744103021e+00 -1.5031913986631102e+02 1.0000000000000000e+00 1.9439314686180797e+01 1.7329413973171768e+01 2.8847249747414403e+00 
35 1 2 1.0279713743873500e+00 -1.9050162682083638e+02 1.0000000000000000e+00 1.9439314700004772e+01 1.7329414174937273e+01 2.8847245475023611e+00 
34 1 2 1.0279713743875332e+00 -1.9029814838274191e+02 1.0000000000000000e+00 1.9439314699702859e+01 1.7329414173249418e+01 2.8847245513837310e+00 
48 1 2 1.0279531737949350e+00 -2.1472561029485112e+02 1.0000000000000000e+00 1.9504234650222394e+01 1.7503538832797393e+01 2.6325548994591523e+00 
174 1 2 1.0280381314691260e+00 -2.0452051742433079e+02 1.0000000000000000e+00 1.8594487840090796e+01 1.9937434864938872e+01 8.0640535074077206e+00 
76 1 2 1.0280381314691260e+00 -2.1830998853683386e+02 1.0000000000000000e+00 1.8594487840090796e+01 1.9937434864938872e+01 8.0640535074077206e+00 
167 1 2 1.0280381314691276e+00 -1.8949844126637058e+02 1.0000000000000000e+00 1.8594487840091233e+01 1.9937434864938155e+01 8.0640535074075146e+00 
45 1 2 1.0280381314691260e+00 -2.0294536420051261e+02 1.0000000000000000e+00 1.8594487840090796e+01 1.9937434864938872e+01 8.0640535074077206e+00 
173 1 2 1.0280381314691260e+00 -1.9624441195139931e+02 1.0000000000000000e+00 1.8594487840090796e+01 1.9937434864938872e+01 8.0640535074077206e+00 
180 1 2 1.0280381314691276e+00 -1.9599061500665516e+02 1.0000000000000000e+00 1.8594487840091233e+01 1.9937434864938155e+01 8.0640535074075146e+00 
179 1 2 1.0280381314691260e+00 -1.9764080888477173e+02 1.0000000000000000e+00 1.8594487840089919e+01 1.9937434864940325e+01 8.0640535074081257e+00 
161 1 2 1.0280384691893676e+00 -1.9893677327211233e+02 1.0000000000000000e+00 1.7739787875904188e+01 1.8753516396308935e+01 1.1581498856508164e+01 
168 1 2 1.0280384691893676e+00 -2.5907767463916991e+02 1.0000000000000000e+00 1.7739787875904227e+01 1.8753516396308957e+01 1.1581498856508169e+01 
86 1 2 1.0280384691893676e+00 -1.3846019498458386e+02 1.0000000000000000e+00 1.7739787875904227e+01 1.8753516396308957e+01 1.1581498856508169e+01 
162 1 2 1.0280384691893676e+00 -2.4755520768517323e+02 1.0000000000000000e+00 1.7739787875904188e+01 1.8753516396308935e+01 1.1581498856508164e+01 
36 1 2 1.0280384691893676e+00 -6.8737258615898781e+01 1.0000000000000000e+00 1.7739787875904188e+01 1.8753516396308935e+01 1.1581498856508164e+01 
122 1 2 1.0280384691893676e+00 -1.1226652083106961e+02 1.0000000000000000e+00 1.7739787875904227e+01 1.8753516396308957e+01 1.1581498856508169e+01 
127 1 2 1.0280384691893676e+00 -2.3171344274232641e+02 1.0000000000000000e+00 1.7739787875904227e+01 1.8753516396308957e+01 1.1581498856508169e+01 
165 1 2 1.0279963617893944e+00 -1.6911010047684422e+02 1.0000000000000000e+00 1.9627905832839684e+01 1.5364927593260965e+01 1.3551662907984253e+01 
152 1 2 1.0279963617893944e+00 -2.3381064724453938e+02 1.0000000000000000e+00 1.9627905832839684e+01 1.5364927593260965e+01 1.3551662907984252e+01 
123 1 2 1.0279963617893944e+00 -1.5419179060339172e+02 1.0000000000000000e+00 1.9627905832839684e+01 1.5364927593260965e+01 1.3551662907984253e+01 
146 1 2 1.0279963617893944e+00 -2.3594858018120368e+02 1.0000000000000000e+00 1.9627905832839684e+01 1.5364927593260965e+01 1.3551662907984253e+01 
124 1 2 1.0279963617893944e+00 -1.4823912476565857e+02 1.0000000000000000e+00 1.9627905832839684e+01 1.5364927593260964e+01 1.3551662907984253e+01 
99 1 2 1.0279963617893944e+00 -1.5035281872277534e+02 1.0000000000000000e+00 1.9627905832839684e+01 1.5364927593260964e+01 1.3551662907984253e+01 
147 1 2 1.0279963617893944e+00 -2.5068247233413081e+02 1.0000000000000000e+00 1.9627905832839684e+01 1.5364927593260965e+01 1.3551662907984253e+01 
157 1 2 1.0279963617893153e+00 -1.5210163264037112e+02 1.0000000000000000e+00 1.9999218730111846e+01 1.8025673233853254e+01 1.5409957237919398e+01 
138 1 2 1.0279963617893155e+00 -2.6861746450114964e+02 1.0000000000000000e+00 1.9999218730111899e+01 1.8025673233853215e+01 1.5409957237919443e+01 
109 1 2 1.0279963617894101e+00 -1.3810685450514660e+02 1.0000000000000000e+00 1.9999218729143937e+01 1.8025673233415400e+01 1.5409957238737015e+01 
145 1 2 1.0279963617894099e+00 -1.7402545874180265e+02 1.0000000000000000e+00 1.9999218729143955e+01 1.8025673233415453e+01 1.5409957238736940e+01 
151 1 2 1.0279963617894494e+00 -1.7414183985548181e+02 1.0000000000000000e+00 1.9999218728767225e+01 1.8025673233239353e+01 1.5409957239063225e+01 
115 1 2 1.0279963617894101e+00 -1.7485207031206528e+02 1.0000000000000000e+00 1.9999218729143937e+01 1.8025673233415400e+01 1.5409957238737015e+01 
74 1 2 1.0279963617894494e+00 -1.9322299876367947e+02 1.0000000000000000e+00 1.9999218728767225e+01 1.8025673233239353e+01 1.5409957239063225e+01 
63 1 2 1.0280073293064897e+00 -1.7000274547416848e+02 1.0000000000000000e+00 1.7637705666774565e+01 1.5661031506865976e+01 1.8050307632542783e+01 
104 1 2 1.0280073293064897e+00 -2.4366315105607856e+02 1.0000000000000000e+00 1.7637705666774611e+01 1.5661031506866030e+01 1.8050307632542886e+01 
68 1 2 1.0280073293064897e+00 -2.4123590035632810e+02 1.0000000000000000e+00 1.7637705666774554e+01 1.5661031506865941e+01 1.8050307632542683e+01 
62 1 2 1.0280073293064897e+00 -2.1769264839674830e+02 1.0000000000000000e+00 1.7637705666774512e+01 1.5661031506865891e+01 1.8050307632542594e+01 
69 1 2 1.0280073293064897e+00 -2.1796763955587249e+02 1.0000000000000000e+00 1.7637705666774764e+01 1.5661031506866113e+01 1.8050307632542900e+01 
105 1 2 1.0280073293064897e+00 -2.2983437295025115e+02 1.0000000000000000e+00 1.7637705666774625e+01 1.5661031506866001e+01 1.8050307632542765e+01 
41 1 2 1.0280073293064897e+00 -2.7420014511502723e+02 1.0000000000000000e+00 1.7637705666774711e+01 1.5661031506866086e+01 1.8050307632542896e+01 
90 1 2 1.0280082116536315e+00 -1.9742915906629298e+02 1.0000000000000000e+00 1.6188405122053556e+01 1.8463253507340188e+01 1.7203779706549199e+01 
101 1 2 1.0280082116536327e+00 -1.6331580810695851e+02 1.0000000000000000e+00 1.6188405122047268e+01 1.8463253507335562e+01 1.7203779706544729e+01 
66 1 2 1.0280082116536278e+00 -2.1103167435181044e+02 1.0000000000000000e+00 1.6188405122080344e+01 1.8463253507356573e+01 1.7203779706557324e+01 
60 1 2 1.0280082116536302e+00 -2.0508553328119288e+02 1.0000000000000000e+00 1.6188405122063799e+01 1.8463253507348643e+01 1.7203779706559583e+01 
96 1 2 1.0280082116536302e+00 -1.9275982630957807e+02 1.0000000000000000e+00 1.6188405122063799e+01 1.8463253507348643e+01 1.7203779706559583e+01 
102 1 2 1.0280082116536315e+00 -1.7668423039918335e+02 1.0000000000000000e+00 1.6188405122053556e+01 1.8463253507340188e+01 1.7203779706549199e+01 
95 1 2 1.0280082116536302e+00 -2.0723463881600148e+02 1.0000000000000000e+00 1.6188405122063799e+01 1.8463253507348643e+01 1.7203779706559583e+01 
6 1 2 1.0280069440094586e+00 -3.2633412211645316e+02 1.0000000000000000e+00 1.9717756232505526e+01 1.8809188395814786e+01 1.9761521315771940e+01 
44 1 2 1.0280069440094588e+00 -1.9844666921232673e+02 1.0000000000000000e+00 1.9717756232505515e+01 1.8809188395814786e+01 1.9761521315771944e+01 
50 1 2 1.0280069440094586e+00 -2.5590503753329219e+02 1.0000000000000000e+00 1.9717756232505522e+01 1.8809188395814786e+01 1.9761521315771940e+01 
72 1 2 1.0280069440094588e+00 -2.3534743801421175e+02 1.0000000000000000e+00 1.9717756232505515e+01 1.8809188395814786e+01 1.9761521315771944e+01 
49 1 2 1.0280069440094586e+00 -2.4682536881128610e+02 1.0000000000000000e+00 1.9717756232505526e+01 1.8809188395814786e+01 1.9761521315771940e+01 
71 1 2 1.0280069440094586e+00 -3.1494965391785115e+02 1.0000000000000000e+00 1.9717756232505536e+01 1.8809188395814797e+01 1.9761521315771933e+01 
5 1 2 1.0280069440094586e+00 -2.7095548938733771e+02 1.0000000000000000e+00 1.9717756232505526e+01 1.8809188395814786e+01 1.9761521315771940e+01 

Velocities

31 -3.4263173534284497e-01 1.3325543491689737e-01 -4.8892821119354932e-02
80 -3.4263174228799476e-01 1.3325542797437712e-01 -4.8892826315725939e-02
19 -3.4263174459241175e-01 1.3325546538247154e-01 -4.8892786230484341e-02
32 -3.4263129450098612e-01 1.3325569771772158e-01 -4.8892678680341028e-02
33 -3.4263148510157154e-01 1.3325557885449041e-01 -4.8892745750605274e-02
70 -3.4263148510164509e-01 1.3325557885449912e-01 -4.8892745750584395e-02
144 -3.4197910238124329e-01 1.3415735522017233e-01 -4.8186131509612713e-02
140 -3.4197893865870832e-01 1.3415706260584762e-01 -4.8186050376821728e-02
37 -3.4197893865835199e-01 1.3415706260521726e-01 -4.8186050376627557e-02
1 -3.4197893865864459e-01 1.3415706260573720e-01 -4.8186050376778942e-02
2 -3.4197893865946755e-01 1.3415706260721008e-01 -4.8186050377185943e-02
38 -3.4197893865953655e-01 1.3415706260733146e-01 -4.8186050377223143e-02
40 -3.4377661180608027e-01 1.3653994048559953e-01 -5.0116824686596825e-02
129 -3.4377661180607966e-01 1.3653994048559950e-01 -5.0116824686597235e-02
82 -3.4377661180608027e-01 1.3653994048559953e-01 -5.0116824686596825e-02
137 -3.4377661180607966e-01 1.3653994048559950e-01 -5.0116824686597235e-02
172 -3.4377661180608027e-01 1.3653994048559953e-01 -5.0116824686596825e-02
108 -3.4377661180608027e-01 1.3653994048559953e-01 -5.0116824686596825e-02
46 -3.4377661180607966e-01 1.3653994048559950e-01 -5.0116824686597235e-02
24 -3.4766481624831402e-01 1.5522711339860848e-01 -3.6418990623062829e-02
25 -3.4766481624830947e-01 1.5522711339860357e-01 -3.6418990623065819e-02
92 -3.4766481624832063e-01 1.5522711339860978e-01 -3.6418990623059831e-02
30 -3.4766481624831985e-01 1.5522711339860973e-01 -3.6418990623060844e-02
84 -3.4147356660128542e-01 1.3045334315893922e-01 -4.1403496243577365e-02
114 -3.4147356660128708e-01 1.3045334315894094e-01 -4.1403496243577483e-02
119 -3.4147356660128725e-01 1.3045334315894141e-01 -4.1403496243577469e-02
47 -3.4147356660128375e-01 1.3045334315893573e-01 -4.1403496243576900e-02
120 -3.4147356660127803e-01 1.3045334315892368e-01 -4.1403496243577871e-02
77 -3.4147356660128009e-01 1.3045334315892790e-01 -4.1403496243576761e-02
83 -3.4147356660128753e-01 1.3045334315894155e-01 -4.1403496243577455e-02
11 -3.4195533522863680e-01 1.3024585788148557e-01 -4.2439034374360418e-02
3 -3.4195533522863680e-01 1.3024585788148527e-01 -4.2439034374360432e-02
39 -3.4195533522863680e-01 1.3024585788148527e-01 -4.2439034374360432e-02
164 -3.4195533522863708e-01 1.3024585788148529e-01 -4.2439034374360300e-02
4 -3.4195533522863680e-01 1.3024585788148524e-01 -4.2439034374360432e-02
51 -3.4195533522863680e-01 1.3024585788148527e-01 -4.2439034374360432e-02
10 -3.4195533522863680e-01 1.3024585788148524e-01 -4.2439034374360432e-02
150 -3.3258388376688325e-01 1.5495575378635743e-01 -3.5484777218480847e-02
134 -3.3258388376688341e-01 1.5495575378635751e-01 -3.5484777218480777e-02
27 -3.3258388376688325e-01 1.5495575378635743e-01 -3.5484777218480847e-02
155 -3.3258388376688325e-01 1.5495575378635743e-01 -3.5484777218480847e-02
57 -3.3258388376688325e-01 1.5495575378635748e-01 -3.5484777218480819e-02