LAMMPS data file via write_data, version 30 Jul 2016, timestep = 50000000

180 atoms
2 atom types

0.0000000000000000e+00 2.0000000000000000e+01 xlo xhi
0.0000000000000000e+00 2.0000000000000000e+01 ylo yhi
0.0000000000000000e+00 2.0000000000000000e+01 zlo zhi

Masses

1 3.896
2 4.31

Atoms # meso-molecular

13 1 2 1.0280000000001286e+00 -3.1715367404323086e+02 1.0000000000000000e+00 7.1925985550193938e-01 6.3934878828175137e+00 1.4447294583782554e+01 
61 1 2 1.0280000000001583e+00 -1.7836190736532382e+02 1.0000000000000000e+00 7.2188218053242614e-01 6.2255789962083981e+00 1.4435417847404153e+01 
100 1 2 1.0280000000001495e+00 -2.2341288410408265e+02 1.0000000000000000e+00 7.2238443891024684e-01 6.2326245803117555e+00 1.4434118684110155e+01 
64 1 2 1.0280000000001501e+00 -2.0498415022057986e+02 1.0000000000000000e+00 7.2238443832593158e-01 6.2326245759997185e+00 1.4434118685066059e+01 
156 1 2 1.0280000000001535e+00 -1.5799211952206412e+02 1.0000000000000000e+00 7.2238443856793344e-01 6.2326245776269786e+00 1.4434118684689933e+01 
55 1 2 1.0280000000001481e+00 -1.4829697540987621e+02 1.0000000000000000e+00 7.2260319843998555e-01 6.2346392410425686e+00 1.4433716041859340e+01 
28 1 2 1.0280000000001435e+00 -1.6523577922886477e+02 1.0000000000000000e+00 2.0799248016341103e+00 6.5111152629413604e+00 1.6327009332100527e+01 
106 1 2 1.0280000000001488e+00 -1.5724258213966081e+02 1.0000000000000000e+00 2.0989349045700232e+00 6.3437154154246223e+00 1.6343986107227110e+01 
107 1 2 1.0280000000001428e+00 -2.5013125714779804e+02 1.0000000000000000e+00 2.0990156129041670e+00 6.3441830008211930e+00 1.6343936856632698e+01 
142 1 2 1.0280000000001173e+00 -1.6539313665036985e+02 1.0000000000000000e+00 2.1002386247150264e+00 6.3514933013435906e+00 1.6343124486030170e+01 
79 1 2 1.0280000000001130e+00 -2.3058326453618946e+02 1.0000000000000000e+00 2.1008415823939099e+00 6.3566521502353766e+00 1.6342660814524965e+01 
149 1 2 1.0280000000000926e+00 -1.6600123492720377e+02 1.0000000000000000e+00 2.1012483888878886e+00 6.3614565468851110e+00 1.6342283466562790e+01 
139 1 2 1.0279986243928163e+00 -2.5308711007450748e+02 1.0000000000000000e+00 5.4312608663017414e+00 1.5266669133528378e+01 1.6977300045138768e+00 
53 1 2 1.0279986243930124e+00 -1.5696736809240412e+02 1.0000000000000000e+00 5.4312608659620052e+00 1.5266669232899714e+01 1.6977300628803820e+00 
56 1 2 1.0279986243928170e+00 -1.6347246725867387e+02 1.0000000000000000e+00 5.4312608663016082e+00 1.5266669133549344e+01 1.6977300045261394e+00 
12 1 2 1.0279986243930088e+00 -2.9878953968705787e+02 1.0000000000000000e+00 5.4312608659630133e+00 1.5266669232736254e+01 1.6977300627847440e+00 
54 1 2 1.0279986243930135e+00 -1.6628442040693955e+02 1.0000000000000000e+00 5.4312608659620141e+00 1.5266669232893182e+01 1.6977300628765319e+00 
103 1 2 1.0280001599905244e+00 -1.3517365020208061e+02 1.0000000000000000e+00 5.9432465578463383e+00 1.6486131086561439e+01 6.0776820628685313e-01 
81 1 2 1.0280001599905235e+00 -2.1675238628932425e+02 1.0000000000000000e+00 5.9432465578457840e+00 1.6486131086564455e+01 6.0776820629691708e-01 
67 1 2 1.0280001599905237e+00 -1.4593063056998889e+02 1.0000000000000000e+00 5.9432465578447697e+00 1.6486131086568999e+01 6.0776820631222750e-01 
178 1 2 1.0280029484339328e+00 -2.4643809745397374e+02 1.0000000000000000e+00 6.3687053118826442e-01 1.9119797942587393e+01 3.0147449878891730e-01 
98 1 2 1.0280029484312390e+00 -2.3312342855914784e+02 1.0000000000000000e+00 6.3687062697619434e-01 1.9119798061948174e+01 3.0147446450302046e-01 
163 1 2 1.0280029484299564e+00 -2.1136056425512947e+02 1.0000000000000000e+00 6.3687067233575045e-01 1.9119798118471603e+01 3.0147444826710157e-01 
121 1 2 1.0280029484318320e+00 -2.0662561461776022e+02 1.0000000000000000e+00 6.3687060571733189e-01 1.9119798035457510e+01 3.0147447211231654e-01 
133 1 2 1.0280028426185197e+00 -2.0659276716617171e+02 1.0000000000000000e+00 2.2586566721991654e+00 1.8809363313073177e+01 2.2168356492788872e+00 
94 1 2 1.0280028426185206e+00 -2.5065245211161010e+02 1.0000000000000000e+00 2.2586566721990780e+00 1.8809363313073163e+01 2.2168356492790084e+00 
73 1 2 1.0280028426185202e+00 -2.0749304764711368e+02 1.0000000000000000e+00 2.2586566721991299e+00 1.8809363313073209e+01 2.2168356492789503e+00 
43 1 2 1.0280028426185206e+00 -2.7199269575455156e+02 1.0000000000000000e+00 2.2586566721991117e+00 1.8809363313073188e+01 2.2168356492789671e+00 
18 1 2 1.0280028426185204e+00 -2.6195171488806835e+02 1.0000000000000000e+00 2.2586566721992143e+00 1.8809363313073217e+01 2.2168356492788281e+00 
93 1 2 1.0280028342138803e+00 -2.4092385509505064e+02 1.0000000000000000e+00 2.2592552839287565e+00 1.8807718981326833e+01 2.2152943410622306e+00 
29 1 2 1.0279979622992161e+00 -1.8522669694110650e+02 1.0000000000000000e+00 5.7737655794684430e+00 1.8391317299756455e+01 3.1214156205813621e+00 
59 1 2 1.0279979622992166e+00 -2.6130838951019371e+02 1.0000000000000000e+00 5.7737655794698961e+00 1.8391317299755713e+01 3.1214156205818502e+00 
65 1 2 1.0279979622992164e+00 -2.2400694427174966e+02 1.0000000000000000e+00 5.7737655794689164e+00 1.8391317299755677e+01 3.1214156205820660e+00 
16 1 2 1.0279979622992161e+00 -2.1370063111075771e+02 1.0000000000000000e+00 5.7737655794690230e+00 1.8391317299756516e+01 3.1214156205811996e+00 
17 1 2 1.0279979622992161e+00 -1.9478675756001962e+02 1.0000000000000000e+00 5.7737655794687708e+00 1.8391317299756260e+01 3.1214156205815033e+00 
23 1 2 1.0279979622992164e+00 -2.5462185748093376e+02 1.0000000000000000e+00 5.7737655794696527e+00 1.8391317299756473e+01 3.1214156205811250e+00 
22 1 2 1.0279979622992164e+00 -1.8678671151558953e+02 1.0000000000000000e+00 5.7737655794696527e+00 1.8391317299756473e+01 3.1214156205811250e+00 
158 1 2 1.0279920234224356e+00 -2.3956199893174613e+02 1.0000000000000000e+00 6.4097546108738701e+00 1.5901636063958767e+01 1.7516489921280108e+01 
116 1 2 1.0279920234224342e+00 -2.0530023164234848e+02 1.0000000000000000e+00 6.4097546108727288e+00 1.5901636063959456e+01 1.7516489921277206e+01 
169 1 2 1.0279920234224338e+00 -2.2422791861789619e+02 1.0000000000000000e+00 6.4097546108727093e+00 1.5901636063959481e+01 1.7516489921277106e+01 
128 1 2 1.0279920234224356e+00 -1.6654951925182945e+02 1.0000000000000000e+00 6.4097546108727181e+00 1.5901636063959483e+01 1.7516489921277124e+01 
20 1 2 1.0279773608638838e+00 -2.2445039049960482e+02 1.0000000000000000e+00 3.4061295584177049e+00 1.8799090858966395e+01 1.8681854116471659e+01 
170 1 2 1.0279773608638834e+00 -2.4041173937749278e+02 1.0000000000000000e+00 3.4061295584176912e+00 1.8799090858966405e+01 1.8681854116471641e+01 
177 1 2 1.0279773608638834e+00 -2.4481355650311022e+02 1.0000000000000000e+00 3.4061295584176912e+00 1.8799090858966405e+01 1.8681854116471641e+01 
26 1 2 1.0279773608638838e+00 -2.0077789361318395e+02 1.0000000000000000e+00 3.4061295584177400e+00 1.8799090858966494e+01 1.8681854116471730e+01 
176 1 2 1.0279773608638836e+00 -2.2012882720236178e+02 1.0000000000000000e+00 3.4061295584177267e+00 1.8799090858966409e+01 1.8681854116471698e+01 
141 1 2 1.0279773608638838e+00 -2.5948094785263777e+02 1.0000000000000000e+00 3.4061295584177049e+00 1.8799090858966395e+01 1.8681854116471659e+01 
135 1 2 1.0279773608638836e+00 -2.0814917312830315e+02 1.0000000000000000e+00 3.4061295584177267e+00 1.8799090858966409e+01 1.8681854116471698e+01 
175 1 2 1.0280073143428359e+00 -2.2699250526213842e+02 1.0000000000000000e+00 6.0622410833046905e+00 1.7355536035947871e+01 1.7042491546910895e+01 
75 1 2 1.0280074214369868e+00 -2.8172375428978626e+02 1.0000000000000000e+00 6.0624667704965143e+00 1.7358397952653164e+01 1.7049247250464365e+01 
7 1 2 1.0280074214369834e+00 -2.7911029137935441e+02 1.0000000000000000e+00 6.0624667704961768e+00 1.7358397952652965e+01 1.7049247250463978e+01 
52 1 2 1.0280074214369848e+00 -1.4071969166038369e+02 1.0000000000000000e+00 6.0624667704962851e+00 1.7358397952653075e+01 1.7049247250464212e+01 
111 1 2 1.0280074214369861e+00 -2.5106437953176709e+02 1.0000000000000000e+00 6.0624667704963331e+00 1.7358397952652954e+01 1.7049247250463921e+01 
63 1 2 1.0282896735469496e+00 -1.7000279701953983e+02 1.0000000000000000e+00 1.1527853636971884e+01 9.4152243173904484e+00 1.9131938830720163e+01 
104 1 2 1.0282896735469496e+00 -2.4366320260144991e+02 1.0000000000000000e+00 1.1527853636971903e+01 9.4152243173904786e+00 1.9131938830720223e+01 
68 1 2 1.0282896735469498e+00 -2.4123595190169945e+02 1.0000000000000000e+00 1.1527853636971878e+01 9.4152243173904306e+00 1.9131938830720106e+01 
62 1 2 1.0282896735469498e+00 -2.1769269994211965e+02 1.0000000000000000e+00 1.1527853636971855e+01 9.4152243173904022e+00 1.9131938830720056e+01 
69 1 2 1.0282896735469491e+00 -2.1796769110124384e+02 1.0000000000000000e+00 1.1527853636971987e+01 9.4152243173905159e+00 1.9131938830720227e+01 
105 1 2 1.0282896735469489e+00 -2.2983442449562250e+02 1.0000000000000000e+00 1.1527853636971912e+01 9.4152243173904573e+00 1.9131938830720152e+01 
41 1 2 1.0282896735469489e+00 -2.7420019666047136e+02 1.0000000000000000e+00 1.1527853636971956e+01 9.4152243173904999e+00 1.9131938830720223e+01 
44 1 2 1.0280453905365905e+00 -1.9844705950471572e+02 1.0000000000000000e+00 1.2983996471166504e+01 1.3468382114368863e+01 1.5108527359477160e+00 
50 1 2 1.0280453905365905e+00 -2.5590542782568119e+02 1.0000000000000000e+00 1.2983996471166508e+01 1.3468382114368863e+01 1.5108527359477162e+00 
72 1 2 1.0280453905365905e+00 -2.3534782830660075e+02 1.0000000000000000e+00 1.2983996471166504e+01 1.3468382114368863e+01 1.5108527359477160e+00 
49 1 2 1.0280453905365905e+00 -2.4682575910367510e+02 1.0000000000000000e+00 1.2983996471166508e+01 1.3468382114368861e+01 1.5108527359477155e+00 
71 1 2 1.0280453905365905e+00 -3.1495004421029182e+02 1.0000000000000000e+00 1.2983996471166524e+01 1.3468382114368872e+01 1.5108527359477197e+00 
5 1 2 1.0280453905365905e+00 -2.7095587967977838e+02 1.0000000000000000e+00 1.2983996471166508e+01 1.3468382114368861e+01 1.5108527359477155e+00 
6 1 2 1.0280453905365905e+00 -3.2633451240889383e+02 1.0000000000000000e+00 1.2983996471166508e+01 1.3468382114368861e+01 1.5108527359477155e+00 
91 1 2 1.0279150061587810e+00 -1.5031935810771532e+02 1.0000000000000000e+00 1.2679646128558026e+01 1.2029436652528432e+01 4.5318269635369175e+00 
35 1 2 1.0279150060955153e+00 -1.9050184506215433e+02 1.0000000000000000e+00 1.2679646040744977e+01 1.2029436802156676e+01 4.5318263224521216e+00 
34 1 2 1.0279150060960902e+00 -1.9029836662406095e+02 1.0000000000000000e+00 1.2679646041252665e+01 1.2029436801010222e+01 4.5318263282796192e+00 
48 1 2 1.0278834023558225e+00 -2.1472596725305533e+02 1.0000000000000000e+00 1.2714911500486259e+01 1.2210212454764489e+01 4.1135481344985871e+00 
130 1 2 1.0281136915596611e+00 -1.9035869021982009e+02 1.0000000000000000e+00 1.3269523950720322e+01 1.2737059014192884e+01 4.9296011082132152e+00 
166 1 2 1.0281136915596618e+00 -1.5823393211296053e+02 1.0000000000000000e+00 1.3269523950732498e+01 1.2737059014206810e+01 4.9296011081907452e+00 
78 1 2 1.0281136915596640e+00 -3.2084823261006369e+02 1.0000000000000000e+00 1.3269523950738170e+01 1.2737059014213482e+01 4.9296011081801057e+00 
136 1 2 1.0281136915596609e+00 -2.1400917160975732e+02 1.0000000000000000e+00 1.3269523950719545e+01 1.2737059014192178e+01 4.9296011082144933e+00 
88 1 2 1.0279994348493111e+00 -2.0434807083561947e+02 1.0000000000000000e+00 8.4404400009608054e+00 1.4589962441690684e+01 5.3410405369724465e+00 
131 1 2 1.0279994348493111e+00 -2.6065296107645565e+02 1.0000000000000000e+00 8.4404400009608054e+00 1.4589962441690684e+01 5.3410405369724465e+00 
89 1 2 1.0279994348493111e+00 -2.2567465057114327e+02 1.0000000000000000e+00 8.4404400009608054e+00 1.4589962441690684e+01 5.3410405369724465e+00 
125 1 2 1.0279994348493111e+00 -2.3972718434035622e+02 1.0000000000000000e+00 8.4404400009608054e+00 1.4589962441690684e+01 5.3410405369724465e+00 
171 1 2 1.0279994348493111e+00 -2.1584718999722060e+02 1.0000000000000000e+00 8.4404400009608054e+00 1.4589962441690684e+01 5.3410405369724465e+00 
126 1 2 1.0279994348493111e+00 -3.1098738902194816e+02 1.0000000000000000e+00 8.4404400009608054e+00 1.4589962441690686e+01 5.3410405369724483e+00 
132 1 2 1.0279994348493111e+00 -3.1095694426876196e+02 1.0000000000000000e+00 8.4404400009608054e+00 1.4589962441690684e+01 5.3410405369724465e+00 
42 1 2 1.0279994348493116e+00 -2.9766777747500794e+02 1.0000000000000000e+00 1.0574439797870857e+01 1.6828508280134471e+01 4.2896945721685604e+00 
143 1 2 1.0279994348493113e+00 -2.4307230962681359e+02 1.0000000000000000e+00 1.0574439797870797e+01 1.6828508280133221e+01 4.2896945721657724e+00 
110 1 2 1.0279994348493113e+00 -1.2207244908526437e+02 1.0000000000000000e+00 1.0574439797870776e+01 1.6828508280134528e+01 4.2896945721685125e+00 
160 1 2 1.0279994348493111e+00 -1.6583115661334119e+02 1.0000000000000000e+00 1.0574439797870866e+01 1.6828508280134493e+01 4.2896945721686182e+00 
97 1 2 1.0279994348493116e+00 -1.8460581182296718e+02 1.0000000000000000e+00 1.0574439797871062e+01 1.6828508280134326e+01 4.2896945721686635e+00 
159 1 2 1.0279994348493116e+00 -1.7161297454872368e+02 1.0000000000000000e+00 1.0574439797871163e+01 1.6828508280132841e+01 4.2896945721657147e+00 
85 1 2 1.0279994348493116e+00 -1.5618159948929144e+02 1.0000000000000000e+00 1.0574439797871163e+01 1.6828508280132841e+01 4.2896945721657147e+00 
173 1 2 1.0280043416177582e+00 -1.9624451663984570e+02 1.0000000000000000e+00 1.1840119482912534e+01 1.3708948152320378e+01 9.5086436961059864e+00 
167 1 2 1.0280043416177582e+00 -1.8949854595481696e+02 1.0000000000000000e+00 1.1840119482912666e+01 1.3708948152320151e+01 9.5086436961059260e+00 
76 1 2 1.0280043416177582e+00 -2.1831009322528024e+02 1.0000000000000000e+00 1.1840119482912534e+01 1.3708948152320378e+01 9.5086436961059864e+00 
174 1 2 1.0280043416177582e+00 -2.0452062211277718e+02 1.0000000000000000e+00 1.1840119482912534e+01 1.3708948152320378e+01 9.5086436961059864e+00 
179 1 2 1.0280043416177582e+00 -1.9764091357321811e+02 1.0000000000000000e+00 1.1840119482912238e+01 1.3708948152320877e+01 9.5086436961061356e+00 
45 1 2 1.0280043416177582e+00 -2.0294546888895900e+02 1.0000000000000000e+00 1.1840119482912534e+01 1.3708948152320378e+01 9.5086436961059864e+00 
180 1 2 1.0280043416177582e+00 -1.9599071969510155e+02 1.0000000000000000e+00 1.1840119482912666e+01 1.3708948152320151e+01 9.5086436961059260e+00 
161 1 2 1.0280075689360626e+00 -1.9893687317701858e+02 1.0000000000000000e+00 1.1546620870474102e+01 1.3330487042255481e+01 1.3370048719451260e+01 
168 1 2 1.0280075689360626e+00 -2.5907777454404356e+02 1.0000000000000000e+00 1.1546620870474113e+01 1.3330487042255486e+01 1.3370048719451262e+01 
86 1 2 1.0280075689360626e+00 -1.3846029488949011e+02 1.0000000000000000e+00 1.1546620870474113e+01 1.3330487042255486e+01 1.3370048719451262e+01 
162 1 2 1.0280075689360626e+00 -2.4755530759007948e+02 1.0000000000000000e+00 1.1546620870474102e+01 1.3330487042255481e+01 1.3370048719451260e+01 
36 1 2 1.0280075689360626e+00 -6.8737358520801720e+01 1.0000000000000000e+00 1.1546620870474102e+01 1.3330487042255481e+01 1.3370048719451260e+01 
122 1 2 1.0280075689360626e+00 -1.1226662073597255e+02 1.0000000000000000e+00 1.1546620870474113e+01 1.3330487042255486e+01 1.3370048719451262e+01 
127 1 2 1.0280075689360626e+00 -2.3171354264723266e+02 1.0000000000000000e+00 1.1546620870474113e+01 1.3330487042255486e+01 1.3370048719451262e+01 
117 1 2 1.0279990847027696e+00 -1.6107381842805324e+02 1.0000000000000000e+00 1.0210644958853516e+01 1.5123563984980006e+01 1.5751319740409084e+01 
148 1 2 1.0279990847027696e+00 -1.6814829436161267e+02 1.0000000000000000e+00 1.0210644958853516e+01 1.5123563984980006e+01 1.5751319740409084e+01 
153 1 2 1.0279990847027694e+00 -2.2063844072165477e+02 1.0000000000000000e+00 1.0210644958853496e+01 1.5123563984979995e+01 1.5751319740409082e+01 
112 1 2 1.0279990847027694e+00 -1.4414004215188373e+02 1.0000000000000000e+00 1.0210644958853749e+01 1.5123563984980079e+01 1.5751319740409162e+01 
118 1 2 1.0279990847027694e+00 -1.9904213562233784e+02 1.0000000000000000e+00 1.0210644958853498e+01 1.5123563984980001e+01 1.5751319740409079e+01 
154 1 2 1.0279990847027696e+00 -1.4963267749965669e+02 1.0000000000000000e+00 1.0210644958853516e+01 1.5123563984980006e+01 1.5751319740409084e+01 
113 1 2 1.0279990847027694e+00 -1.5273866006119675e+02 1.0000000000000000e+00 1.0210644958853527e+01 1.5123563984980015e+01 1.5751319740409086e+01 
101 1 2 1.0276612717954399e+00 -1.6331590260061810e+02 1.0000000000000000e+00 9.7844032222681907e+00 1.2068610823833316e+01 1.8340293450543882e+01 
90 1 2 1.0276612717954374e+00 -1.9742925355995257e+02 1.0000000000000000e+00 9.7844032222894040e+00 1.2068610823852058e+01 1.8340293450559823e+01 
66 1 2 1.0276612717954274e+00 -2.1103176884546997e+02 1.0000000000000000e+00 9.7844032223812576e+00 1.2068610823920592e+01 1.8340293450586550e+01 
60 1 2 1.0276612717954261e+00 -2.0508562777485241e+02 1.0000000000000000e+00 9.7844032223249577e+00 1.2068610823886488e+01 1.8340293450596146e+01 
96 1 2 1.0276612717954261e+00 -1.9275992080323761e+02 1.0000000000000000e+00 9.7844032223249577e+00 1.2068610823886488e+01 1.8340293450596146e+01 
102 1 2 1.0276612717954374e+00 -1.7668432489284294e+02 1.0000000000000000e+00 9.7844032222894040e+00 1.2068610823852058e+01 1.8340293450559823e+01 
95 1 2 1.0276612717954261e+00 -2.0723473330966101e+02 1.0000000000000000e+00 9.7844032223249577e+00 1.2068610823886488e+01 1.8340293450596146e+01 
9 1 2 1.0280007871721983e+00 -1.7309107674598772e+02 1.0000000000000000e+00 7.1774138735413642e+00 1.5100091213042727e+01 1.9949735148277746e+01 
14 1 2 1.0280007871726193e+00 -1.5817116091601196e+02 1.0000000000000000e+00 7.1774137462269270e+00 1.5100091074215955e+01 1.9949735006596381e+01 
8 1 2 1.0280007871721957e+00 -1.6004729007226348e+02 1.0000000000000000e+00 7.1774138738956621e+00 1.5100091213428131e+01 1.9949735148673902e+01 
15 1 2 1.0280007871721979e+00 -2.1376419216534407e+02 1.0000000000000000e+00 7.1774138731611155e+00 1.5100091212626751e+01 1.9949735147857300e+01 
87 1 2 1.0280007871702552e+00 -1.6277082393160134e+02 1.0000000000000000e+00 7.1774144585838417e+00 1.5100091853325804e+01 1.9949735794595249e+01 
165 1 2 1.0276649499007184e+00 -1.6911017414415934e+02 1.0000000000000000e+00 1.4003466587990891e+01 9.1134593357072973e+00 1.5875210691410704e+01 
152 1 2 1.0276649499007184e+00 -2.3381072091185450e+02 1.0000000000000000e+00 1.4003466587990891e+01 9.1134593357072937e+00 1.5875210691410707e+01 
123 1 2 1.0276649499007184e+00 -1.5419186427070684e+02 1.0000000000000000e+00 1.4003466587990891e+01 9.1134593357072973e+00 1.5875210691410704e+01 
146 1 2 1.0276649499007184e+00 -2.3594865384851880e+02 1.0000000000000000e+00 1.4003466587990891e+01 9.1134593357072973e+00 1.5875210691410704e+01 
124 1 2 1.0276649499007184e+00 -1.4823919843297369e+02 1.0000000000000000e+00 1.4003466587990893e+01 9.1134593357073026e+00 1.5875210691410697e+01 
99 1 2 1.0276649499007184e+00 -1.5035289239009046e+02 1.0000000000000000e+00 1.4003466587990893e+01 9.1134593357073026e+00 1.5875210691410697e+01 
147 1 2 1.0276649499007184e+00 -2.5068254600144593e+02 1.0000000000000000e+00 1.4003466587990891e+01 9.1134593357072973e+00 1.5875210691410704e+01 
32 1 2 1.0278614721718580e+00 -1.8047920967934891e+02 1.0000000000000000e+00 1.4138233578959326e+01 1.7159130896958626e+01 2.1341173114097218e+00 
33 1 2 1.0278614793177467e+00 -2.0558959807879054e+02 1.0000000000000000e+00 1.4138313832982817e+01 1.7159207012250032e+01 2.1341377141785456e+00 
70 1 2 1.0278614793177485e+00 -2.8377500648510693e+02 1.0000000000000000e+00 1.4138313833015596e+01 1.7159207012249560e+01 2.1341377141630540e+00 
31 1 2 1.0278614887701283e+00 -1.7798233823226786e+02 1.0000000000000000e+00 1.4138419989835484e+01 1.7159299796311270e+01 2.1341587764364478e+00 
80 1 2 1.0278614890200983e+00 -1.9673308040503449e+02 1.0000000000000000e+00 1.4138422744582286e+01 1.7159304110742607e+01 2.1341607634087802e+00 
19 1 2 1.0278614892734519e+00 -2.2442495997756188e+02 1.0000000000000000e+00 1.4138426238999752e+01 1.7159282110165478e+01 2.1341425378680134e+00 
40 1 2 1.0279411953116284e+00 -1.9810892141698309e+02 1.0000000000000000e+00 1.7435921856702738e+01 1.7582771525589603e+01 2.7058430787867613e+00 
129 1 2 1.0279411953116289e+00 -1.7599960410381661e+02 1.0000000000000000e+00 1.7435921856702734e+01 1.7582771525589596e+01 2.7058430787867271e+00 
82 1 2 1.0279411953116284e+00 -2.2595798693338409e+02 1.0000000000000000e+00 1.7435921856702738e+01 1.7582771525589603e+01 2.7058430787867613e+00 
137 1 2 1.0279411953116289e+00 -2.3561182287273087e+02 1.0000000000000000e+00 1.7435921856702734e+01 1.7582771525589596e+01 2.7058430787867271e+00 
172 1 2 1.0279411953116284e+00 -1.6575920584923685e+02 1.0000000000000000e+00 1.7435921856702738e+01 1.7582771525589603e+01 2.7058430787867613e+00 
108 1 2 1.0279411953116284e+00 -2.1181771515094496e+02 1.0000000000000000e+00 1.7435921856702738e+01 1.7582771525589603e+01 2.7058430787867613e+00 
46 1 2 1.0279411953116289e+00 -1.6523425988079887e+02 1.0000000000000000e+00 1.7435921856702734e+01 1.7582771525589596e+01 2.7058430787867271e+00 
24 1 2 1.0279903539936419e+00 -1.8012262491253816e+02 1.0000000000000000e+00 1.9960110979037086e+01 1.9523343132476182e+01 1.5656376311917981e+00 
25 1 2 1.0279903539936417e+00 -2.1000669372620720e+02 1.0000000000000000e+00 1.9960110979037157e+01 1.9523343132476345e+01 1.5656376311917708e+00 
92 1 2 1.0279903539936428e+00 -1.6721299258745026e+02 1.0000000000000000e+00 1.9960110979037285e+01 1.9523343132476541e+01 1.5656376311918168e+00 
30 1 2 1.0279903539936410e+00 -2.0126086452146561e+02 1.0000000000000000e+00 1.9960110979037090e+01 1.9523343132476214e+01 1.5656376311917748e+00 
140 1 2 1.0281710491193727e+00 -2.5873182870207540e+02 1.0000000000000000e+00 1.4658463281000603e+01 1.5701571146684346e+01 3.9478212739218228e+00 
37 1 2 1.0281710491193747e+00 -2.4605951104422618e+02 1.0000000000000000e+00 1.4658463280925401e+01 1.5701571146551339e+01 3.9478212738313059e+00 
38 1 2 1.0281710491193512e+00 -2.2535820443161003e+02 1.0000000000000000e+00 1.4658463281184945e+01 1.5701571147005275e+01 3.9478212741396006e+00 
2 1 2 1.0281710491193632e+00 -2.6566575868979851e+02 1.0000000000000000e+00 1.4658463281170400e+01 1.5701571146979731e+01 3.9478212741221812e+00 
1 1 2 1.0281710491193694e+00 -2.2790307444436962e+02 1.0000000000000000e+00 1.4658463280987348e+01 1.5701571146661378e+01 3.9478212739062770e+00 
144 1 2 1.0281710443334997e+00 -2.5899910725334036e+02 1.0000000000000000e+00 1.4658498762144008e+01 1.5701633829796483e+01 3.9478639352067497e+00 
114 1 2 1.0284201168131955e+00 -2.6405811564898204e+02 1.0000000000000000e+00 1.6632726060490480e+01 1.7119726603641283e+01 6.5210449735705422e+00 
84 1 2 1.0284201168131952e+00 -3.0186402309915036e+02 1.0000000000000000e+00 1.6632726060490523e+01 1.7119726603641169e+01 6.5210449735705538e+00 
83 1 2 1.0284201168131955e+00 -1.6896065108038923e+02 1.0000000000000000e+00 1.6632726060490473e+01 1.7119726603641293e+01 6.5210449735705387e+00 
77 1 2 1.0284201168131946e+00 -2.7118595471664008e+02 1.0000000000000000e+00 1.6632726060490729e+01 1.7119726603640657e+01 6.5210449735705955e+00 
120 1 2 1.0284201168131946e+00 -3.5181646921443036e+02 1.0000000000000000e+00 1.6632726060490764e+01 1.7119726603640494e+01 6.5210449735705636e+00 
47 1 2 1.0284201168131948e+00 -1.6532502431725655e+02 1.0000000000000000e+00 1.6632726060490576e+01 1.7119726603641030e+01 6.5210449735705742e+00 
119 1 2 1.0284201168131955e+00 -2.9815719161979047e+02 1.0000000000000000e+00 1.6632726060490473e+01 1.7119726603641300e+01 6.5210449735705440e+00 
11 1 2 1.0276480468689033e+00 -1.9947858928166417e+02 1.0000000000000000e+00 1.9519770677050030e+01 1.8370371051006018e+01 5.5517380968835939e+00 
10 1 2 1.0276480468689033e+00 -2.3228555226412422e+02 1.0000000000000000e+00 1.9519770677050030e+01 1.8370371051006014e+01 5.5517380968835992e+00 
51 1 2 1.0276480468689033e+00 -1.1557142822399847e+02 1.0000000000000000e+00 1.9519770677050026e+01 1.8370371051006021e+01 5.5517380968835885e+00 
4 1 2 1.0276480468689033e+00 -2.3520109336922192e+02 1.0000000000000000e+00 1.9519770677050026e+01 1.8370371051006021e+01 5.5517380968835939e+00 
164 1 2 1.0276480468689035e+00 -2.4070234527119968e+02 1.0000000000000000e+00 1.9519770677050026e+01 1.8370371051006018e+01 5.5517380968835885e+00 
39 1 2 1.0276480468689033e+00 -2.0008350986630788e+02 1.0000000000000000e+00 1.9519770677050026e+01 1.8370371051006021e+01 5.5517380968835885e+00 
3 1 2 1.0276480468689033e+00 -2.0384088842981819e+02 1.0000000000000000e+00 1.9519770677050026e+01 1.8370371051006021e+01 5.5517380968835885e+00 
134 1 2 1.0279958573844650e+00 -1.8231239330406777e+02 1.0000000000000000e+00 1.4485932266097088e+01 1.4811516383585436e+01 1.1075414337818074e+01 
57 1 2 1.0279958573844650e+00 -2.7707798148057771e+02 1.0000000000000000e+00 1.4485932266097063e+01 1.4811516383585458e+01 1.1075414337818101e+01 
21 1 2 1.0279958573844650e+00 -1.1904621770305533e+02 1.0000000000000000e+00 1.4485932266097063e+01 1.4811516383585458e+01 1.1075414337818101e+01 
58 1 2 1.0279958573844650e+00 -2.6697661605510154e+02 1.0000000000000000e+00 1.4485932266097086e+01 1.4811516383585436e+01 1.1075414337818076e+01 
150 1 2 1.0279958573844650e+00 -2.0883784453799541e+02 1.0000000000000000e+00 1.4485932266097072e+01 1.4811516383585458e+01 1.1075414337818085e+01 
27 1 2 1.0279958573844650e+00 -1.1735507139604201e+02 1.0000000000000000e+00 1.4485932266097072e+01 1.4811516383585458e+01 1.1075414337818085e+01 
155 1 2 1.0279958573844650e+00 -1.6932131300186396e+02 1.0000000000000000e+00 1.4485932266097072e+01 1.4811516383585458e+01 1.1075414337818085e+01 
138 1 2 1.0282933516526371e+00 -2.6861750009263540e+02 1.0000000000000000e+00 1.4129602721924908e+01 1.1688153608662239e+01 1.7890507412229464e+01 
109 1 2 1.0282933516521560e+00 -1.3810689009659987e+02 1.0000000000000000e+00 1.4129602721411846e+01 1.1688153608453067e+01 1.7890507412668402e+01 
145 1 2 1.0282933516521562e+00 -1.7402549433325592e+02 1.0000000000000000e+00 1.4129602721411860e+01 1.1688153608453089e+01 1.7890507412668359e+01 
151 1 2 1.0282933516519555e+00 -1.7414187544693507e+02 1.0000000000000000e+00 1.4129602721211871e+01 1.1688153608368685e+01 1.7890507412844144e+01 
115 1 2 1.0282933516521560e+00 -1.7485210590351855e+02 1.0000000000000000e+00 1.4129602721411846e+01 1.1688153608453067e+01 1.7890507412668402e+01 
74 1 2 1.0282933516519555e+00 -1.9322303435513274e+02 1.0000000000000000e+00 1.4129602721211871e+01 1.1688153608368685e+01 1.7890507412844144e+01 
157 1 2 1.0282933516526374e+00 -1.5210166823182439e+02 1.0000000000000000e+00 1.4129602721924877e+01 1.1688153608662258e+01 1.7890507412229436e+01 

Velocities

13 -3.7766747827113339e-01 1.4826226712625032e-01 -5.7597102321529842e-02
61 -3.7766747827292296e-01 1.4826226712568355e-01 -5.7597102324195487e-02
100 -3.7766747827288755e-01 1.4826226712577631e-01 -5.7597102324170202e-02
64 -3.7766747827288272e-01 1.4826226712577667e-01 -5.7597102324167648e-02
156 -3.7766747827290942e-01 1.4826226712577359e-01 -5.7597102324193232e-02
55 -3.7766747827288016e-01 1.4826226712577614e-01 -5.7597102324174955e-02
28 -3.7766747828906327e-01 1.4826226708501636e-01 -5.7597102303427253e-02
106 -3.7766747829054681e-01 1.4826226708425705e-01 -5.7597102305287369e-02
107 -3.7766747829055675e-01 1.4826226708424944e-01 -5.7597102305285239e-02
142 -3.7766747829054359e-01 1.4826226708402043e-01 -5.7597102305245090e-02
79 -3.7766747829044833e-01 1.4826226708396761e-01 -5.7597102305148910e-02
149 -3.7766747829043124e-01 1.4826226708408261e-01 -5.7597102305021124e-02
139 -3.4696250433443898e-01 1.5756029158383333e-01 -2.6445916339051034e-02
53 -3.4696250434730941e-01 1.5756029157062526e-01 -2.6445916350027972e-02
56 -3.4696250433443532e-01 1.5756029158383586e-01 -2.6445916339061518e-02
12 -3.4696250434729631e-01 1.5756029157064047e-01 -2.6445916349999536e-02
54 -3.4696250434731180e-01 1.5756029157062409e-01 -2.6445916350022983e-02
103 -3.4700020950558164e-01 1.5735235663743416e-01 -2.6427571394536834e-02
81 -3.4700020950559635e-01 1.5735235663749303e-01 -2.6427571394556006e-02
67 -3.4700020950559263e-01 1.5735235663745406e-01 -2.6427571394541893e-02
178 -3.4920341401854077e-01 1.5406277653617756e-01 -3.5958927611440969e-02
98 -3.4920341414485240e-01 1.5406277669922833e-01 -3.5958927512593553e-02
163 -3.4920341420465401e-01 1.5406277677643618e-01 -3.5958927465766927e-02
121 -3.4920341411682432e-01 1.5406277666303875e-01 -3.5958927534537659e-02
133 -3.4896320716753276e-01 1.5399620267686370e-01 -3.5992230831210524e-02
94 -3.4896320716753226e-01 1.5399620267686429e-01 -3.5992230831212023e-02
73 -3.4896320716753221e-01 1.5399620267686392e-01 -3.5992230831210885e-02
43 -3.4896320716753276e-01 1.5399620267686434e-01 -3.5992230831211842e-02
18 -3.4896320716753193e-01 1.5399620267686409e-01 -3.5992230831210906e-02
93 -3.4896593560323785e-01 1.5400046013498150e-01 -3.5988011719292438e-02
29 -3.4790429542120760e-01 1.5789637896012229e-01 -2.7457539950023389e-02
59 -3.4790429542120699e-01 1.5789637896012543e-01 -2.7457539950020163e-02
65 -3.4790429542120715e-01 1.5789637896012365e-01 -2.7457539950022335e-02
16 -3.4790429542120804e-01 1.5789637896012162e-01 -2.7457539950023629e-02
17 -3.4790429542120788e-01 1.5789637896012179e-01 -2.7457539950023736e-02
23 -3.4790429542120760e-01 1.5789637896012326e-01 -2.7457539950022130e-02
22 -3.4790429542120760e-01 1.5789637896012326e-01 -2.7457539950022130e-02
158 -3.4582751611175794e-01 1.5623622795989689e-01 -2.6530264226794595e-02
116 -3.4582751611175555e-01 1.5623622795989547e-01 -2.6530264226793880e-02
169 -3.4582751611175372e-01 1.5623622795988387e-01 -2.6530264226797835e-02
128 -3.4582751611175794e-01 1.5623622795990624e-01 -2.6530264226789703e-02
20 -3.4626109424243973e-01 1.5784177673675501e-01 -3.6548424746308386e-02