LAMMPS data file via write_data, version 30 Jul 2016, timestep = 100000000

604 atoms
2 atom types

0.0000000000000000e+00 2.0000000000000000e+01 xlo xhi
0.0000000000000000e+00 2.0000000000000000e+01 ylo yhi
0.0000000000000000e+00 2.0000000000000000e+01 zlo zhi

Masses

1 4.31
2 3.896

Atoms # meso-molecular

255 0 1 9.9998941765918237e-01 -1.3344135787783406e+01 1.0000000000000000e+00 4.3446655974571531e+00 9.6628277853050495e+00 5.7164611360929669e+00 
391 0 1 1.0000064882883428e+00 -2.3457637696750631e+01 1.0000000000000000e+00 5.2356771246502296e+00 8.9771913447258438e+00 5.7830381249467440e+00 
169 0 1 9.9999621297666941e-01 -3.8424063662861521e+01 1.0000000000000000e+00 5.8775717929326028e+00 8.4089314972227704e+00 6.2271560551787903e+00 
102 0 1 9.9999472408465362e-01 -1.2485188300680615e+01 1.0000000000000000e+00 2.9504349822100422e+00 6.6373678214437106e+00 9.6928607675324514e+00 
513 0 1 9.9999220558764690e-01 -2.5219780074217791e+01 1.0000000000000000e+00 3.1981758606957187e+00 6.5343674223305666e+00 9.4047817909854157e+00 
546 0 1 9.9996972253190430e-01 -4.0937296709311184e+01 1.0000000000000000e+00 4.7146770066106685e+00 5.8946247714567477e+00 7.6672562441447747e+00 
314 0 1 1.0000082957869671e+00 -3.0924585632825313e+01 1.0000000000000000e+00 5.4186861908578239e+00 5.8379915172533234e+00 7.1433275407618098e+00 
161 0 1 1.0000050714152755e+00 -5.0804054464607859e+01 1.0000000000000000e+00 5.4344644706190897e+00 5.8345043725029608e+00 7.1470091388148873e+00 
575 0 1 1.0000123734102431e+00 -3.8137495985978930e+01 1.0000000000000000e+00 5.4743113238410901e+00 5.8243735069094340e+00 7.1601711022997954e+00 
241 0 1 1.0000103243488963e+00 -2.6385980455195963e+01 1.0000000000000000e+00 5.5054981687347695e+00 5.7978772993122201e+00 7.1955376081669122e+00 
159 0 1 1.0000102477642505e+00 -3.2189244194692400e+01 1.0000000000000000e+00 5.4564316431910074e+00 5.8319825867245552e+00 7.1504894014620568e+00 
360 0 1 9.9997181265568802e-01 -2.0809474296567974e+01 1.0000000000000000e+00 4.1044966273522157e+00 5.4521441082772757e+00 9.6524363894364651e+00 
210 0 1 1.0000000641771054e+00 -2.0366033459951584e+01 1.0000000000000000e+00 2.7525017775092122e+00 7.7709651165614835e+00 9.6454453113664904e+00 
217 0 1 9.9999067490240778e-01 -4.4051802034151009e+01 1.0000000000000000e+00 2.7773836086011272e+00 7.8990550720111372e+00 9.6493613570004939e+00 
94 0 1 9.9997026310955517e-01 -3.0959957303338790e+01 1.0000000000000000e+00 2.9622120605755065e+00 8.3428174662447017e+00 9.8518509933245788e+00 
167 0 1 9.9997908998469254e-01 -5.2545870164337721e+01 1.0000000000000000e+00 2.9816400421372986e+00 8.3725347789615334e+00 9.8628025428612762e+00 
428 0 1 9.9998684749300282e-01 -2.1183880972699669e+01 1.0000000000000000e+00 2.9167796391232845e+00 8.2661844541350256e+00 9.8341342438955461e+00 
607 0 1 9.9998262872711685e-01 -3.1324156375118740e+01 1.0000000000000000e+00 4.3405914755294335e+00 6.7971664149375250e+00 7.9398285808736508e+00 
130 0 1 1.0001601075457818e+00 -2.1382585800081724e+01 1.0000000000000000e+00 5.4149765009393205e+00 9.1884629093011991e+00 8.7495804473921321e+00 
541 0 1 9.9991916100355582e-01 -3.0075634589383920e+01 1.0000000000000000e+00 4.2154505521013323e+00 9.8731858105732346e+00 9.9876727731594066e+00 
387 0 1 1.0001846313309644e+00 -1.8918924052609256e+01 1.0000000000000000e+00 5.4378895764374349e+00 7.7831341380677692e+00 9.0643311284492416e+00 
248 0 1 9.9995582650709447e-01 -2.3802716863703889e+01 1.0000000000000000e+00 5.5215704125541647e+00 7.7697089370896499e+00 8.9711109581887865e+00 
576 0 1 9.9999491695595488e-01 -3.0596543015063492e+01 1.0000000000000000e+00 4.6367422659960997e+00 8.9651931626003574e+00 6.9682555870447853e+00 
590 0 1 9.9999110803002256e-01 -3.1407417990800077e+01 1.0000000000000000e+00 4.6593925781745327e+00 9.0373022172946094e+00 7.2220364285505863e+00 
80 0 1 9.9981330502647392e-01 -4.9890172170364849e+01 1.0000000000000000e+00 5.6182432334487515e+00 8.6374691585170531e+00 8.4959219763312301e+00 
123 0 1 9.9999068636478383e-01 -2.4449228410662140e+01 1.0000000000000000e+00 3.6049660646935977e+00 5.0194297064253846e+00 1.0715700412070177e+01 
533 0 1 9.9999892974517024e-01 -2.8349628601020715e+01 1.0000000000000000e+00 3.5430930968256589e+00 6.6295366779285612e+00 1.1781959384743432e+01 
56 0 1 9.9999594663099578e-01 -6.2712790128479959e+01 1.0000000000000000e+00 3.7310124929356556e+00 4.8969044201653960e+00 1.0735606833304233e+01 
559 0 1 9.9999228055414946e-01 -3.0272544052967543e+01 1.0000000000000000e+00 3.7219278868357573e+00 5.5416952350037647e+00 1.1837371160033841e+01 
459 0 1 9.9996983380362237e-01 -1.5824828633582387e+01 1.0000000000000000e+00 6.4355269103209345e+00 3.9579437616411695e+00 1.0857176523889212e+01 
363 0 1 9.9996245161641717e-01 -2.7587865481030729e+01 1.0000000000000000e+00 6.4456526369534677e+00 3.9518092516272207e+00 1.0873533037795152e+01 
211 0 1 9.9994944292512244e-01 -3.3521920967317257e+01 1.0000000000000000e+00 6.4772580041892658e+00 3.9433384718366917e+00 1.0862902440773185e+01 
202 0 1 1.0000027534356841e+00 -2.2326613117305733e+01 1.0000000000000000e+00 4.1030827595419863e+00 4.7316264072772238e+00 1.0478387434955495e+01 
595 0 1 1.0000017717220508e+00 -6.2541696885988109e+01 1.0000000000000000e+00 4.8550024549511619e+00 4.3829046264978722e+00 1.0905978485890826e+01 
214 0 1 1.0000006315328718e+00 -1.8906674655167834e+01 1.0000000000000000e+00 4.8405406927800980e+00 5.5003026565097892e+00 1.2167312208227321e+01 
641 0 1 1.0000114463426386e+00 -4.8639045191301960e+01 1.0000000000000000e+00 4.2059794116651261e+00 6.5758409859507569e+00 1.2338126742320471e+01 
587 0 1 1.0000151595671170e+00 -3.2046534950560805e+01 1.0000000000000000e+00 4.3129573024358558e+00 6.5892762758266450e+00 1.2383352993508174e+01 
544 0 1 1.0001215790716740e+00 -2.4299144176436119e+01 1.0000000000000000e+00 5.9117369893604996e+00 5.1906414205043756e+00 1.0098054033916320e+01 
442 0 1 9.9989706713193816e-01 -3.1308901999763762e+01 1.0000000000000000e+00 6.6505894443086682e+00 5.2204953245521493e+00 1.2291261422207484e+01 
601 0 1 9.9999707844636954e-01 -2.8436856711770737e+01 1.0000000000000000e+00 2.9719260384544670e+00 9.6873440262450448e+00 1.2683362194581209e+01 
131 0 1 1.0002002656001006e+00 -2.5463348822465047e+01 1.0000000000000000e+00 5.4910063046359507e+00 8.4495242637521439e+00 1.2601079222355139e+01 
187 0 1 1.0000138930424463e+00 -4.7601529358946468e+00 1.0000000000000000e+00 5.1356901726565747e+00 7.1940046382935954e+00 1.1098007586325037e+01 
512 0 1 9.9997481156571777e-01 -5.1339014526945697e+01 1.0000000000000000e+00 4.9185098810774894e+00 7.5202444167438784e+00 1.2596895191993688e+01 
356 0 1 9.9972996212795728e-01 -2.2217807103830658e+01 1.0000000000000000e+00 5.4810678247376767e+00 8.3100312657992763e+00 1.2407521578159020e+01 
630 0 1 9.9945235199795057e-01 -3.0566434663578818e+01 1.0000000000000000e+00 6.1191987255421063e+00 9.9313270863166530e+00 1.0505248601204570e+01 
118 0 1 1.0000586507153606e+00 -2.8052013013761897e+01 1.0000000000000000e+00 4.7528669018639098e+00 8.5783847096954631e+00 1.2836469491612972e+01 
503 0 1 9.9984389496505388e-01 -2.8273829046134157e+01 1.0000000000000000e+00 6.6557883601450225e+00 9.2946767909593220e+00 1.2632370117483720e+01 
173 0 1 9.9999782988588892e-01 -1.7937514853413717e+01 1.0000000000000000e+00 6.1581004256772687e+00 4.4632662249117976e+00 1.4196267210917025e+01 
165 0 1 1.0000002210591115e+00 -4.8634097301048683e+01 1.0000000000000000e+00 6.5244494869733671e+00 4.5740689262209813e+00 1.5197335978241449e+01 
22 0 1 9.9999865510930463e-01 -3.7471786362345782e+01 1.0000000000000000e+00 6.5078277285324670e+00 4.5048540963974748e+00 1.5176783933393180e+01 
24 0 1 9.9999480969460641e-01 -3.2590891322272867e+01 1.0000000000000000e+00 6.5103933763275359e+00 3.9955443951874776e+00 1.4988802357549472e+01 
405 0 1 1.0000050306153103e+00 -4.1812897147961124e+01 1.0000000000000000e+00 2.8375172957267853e+00 9.3311375635256208e+00 1.3403279433489852e+01 
433 0 1 1.0000095849796922e+00 -2.2556952025224451e+01 1.0000000000000000e+00 4.4392008850512124e+00 9.3035378517616731e+00 1.5099433179161240e+01 
8 0 1 1.0000173307921754e+00 -5.5083415862432297e+01 1.0000000000000000e+00 4.5175888635375454e+00 8.8820320583837447e+00 1.5066130392570928e+01 
417 0 1 9.9999418861561518e-01 -2.0519280697129695e+01 1.0000000000000000e+00 5.8785009058144535e+00 7.4831971507510575e+00 1.6433340915364056e+01 
274 0 1 9.9999679348828574e-01 -5.0784813608081919e+01 1.0000000000000000e+00 5.8007335853024289e+00 7.4188913492348236e+00 1.6302679577121388e+01 
271 0 1 9.9998804927883156e-01 -1.0117553377492984e+01 1.0000000000000000e+00 5.7646557376673977e+00 7.3831476665879263e+00 1.5388750370406052e+01 
553 0 1 1.0000087892435985e+00 -4.3389399226192054e+01 1.0000000000000000e+00 4.3939602836059031e+00 9.3310784862951586e+00 1.4981544523736387e+01 
174 0 1 1.0000320096092621e+00 -4.5069669174198559e+01 1.0000000000000000e+00 4.2518860859992653e+00 9.4756633898968747e+00 1.4784149507392522e+01 
300 0 1 1.0000886339628006e+00 -3.0468164398822037e+01 1.0000000000000000e+00 6.6558432806294920e+00 6.7325535883890657e+00 1.5262193511906483e+01 
628 0 1 1.0000031282709805e+00 -3.3842046392980379e+01 1.0000000000000000e+00 5.7011900623574601e+00 7.8369124032215325e+00 1.6738158140045069e+01 
319 0 1 9.9999542457299917e-01 -2.2275144661643843e+01 1.0000000000000000e+00 5.1063856000799461e+00 8.7417207613412611e+00 1.6671564404398662e+01 
103 0 1 1.0000007358920944e+00 -1.6465328218425913e+01 1.0000000000000000e+00 6.1492596125865173e+00 7.9882534798903073e+00 1.6852094828227990e+01 
99 0 1 9.9998780379146701e-01 -4.1199688847125870e+01 1.0000000000000000e+00 5.1498522112825595e+00 1.0480363023419470e+01 5.2946459272683528e+00 
108 0 1 9.9999636050125695e-01 -2.8867633832371038e+01 1.0000000000000000e+00 5.0411265492827573e+00 1.0367716096270156e+01 5.2764467917640214e+00 
578 0 1 1.0000014368929226e+00 -3.6426909650448842e+01 1.0000000000000000e+00 4.1650552157509670e+00 1.0513738284283002e+01 6.4655555826113389e+00 
583 0 1 9.9996881676703142e-01 -3.5753393985279182e+01 1.0000000000000000e+00 6.1860106391947740e+00 1.1069455533692951e+01 5.8066299832194019e+00 
341 0 1 1.0000070205075327e+00 -1.5819803055948020e+01 1.0000000000000000e+00 4.2069665996059760e+00 1.0145748505088108e+01 5.8250851011002709e+00 
61 0 1 1.0000361256991928e+00 -2.2573621313251589e+01 1.0000000000000000e+00 5.5777005281406531e+00 1.1762123940349678e+01 6.4072283284184000e+00 
298 0 1 9.9998694546897915e-01 -2.6063275095613722e+01 1.0000000000000000e+00 2.9045424479473536e+00 1.2381497229600241e+01 8.8852075050876778e+00 
259 0 1 9.9998659261255640e-01 -3.3886713957408176e+01 1.0000000000000000e+00 2.8968507482269277e+00 1.2387108797575280e+01 8.8930337048483423e+00 
332 0 1 1.0000013932553542e+00 -2.6011287435560913e+01 1.0000000000000000e+00 2.4019254406553578e+00 1.2511980677986836e+01 9.7789936509168456e+00 
565 0 1 9.9999857867145714e-01 -4.2295725451206330e+01 1.0000000000000000e+00 2.3854573142330615e+00 1.2485579598327444e+01 9.8514236359006588e+00 
424 0 1 9.9999192035941131e-01 -2.1147481945480589e+01 1.0000000000000000e+00 2.9164198110522497e+00 1.2119092579923612e+01 8.8254800339145358e+00 
567 0 1 9.9997606066468170e-01 -6.9426935057872683e+01 1.0000000000000000e+00 4.7450608093105107e+00 1.2475733652496988e+01 8.2360246930855716e+00 
427 0 1 9.9997519250964195e-01 -1.4152738080341900e+01 1.0000000000000000e+00 4.7062187013452119e+00 1.2059398049043548e+01 7.9770151058903860e+00 
444 0 1 1.0000668634172736e+00 -1.4236659178432950e+01 1.0000000000000000e+00 5.1205986972286270e+00 1.2593115014833501e+01 8.0344809776995412e+00 
177 0 1 1.0000111911994005e+00 -3.3118305729218562e+01 1.0000000000000000e+00 4.7670444664343918e+00 1.0659567913933662e+01 9.2738031977599960e+00 
23 0 1 1.0000261059946378e+00 -2.7407121243322209e+01 1.0000000000000000e+00 4.7373627625343708e+00 1.1425515913143322e+01 6.7885001830730847e+00 
542 0 1 9.9992857827015169e-01 -1.6236742071096916e+01 1.0000000000000000e+00 4.2656789434386493e+00 1.0238717420475576e+01 9.7839527848509853e+00 
67 0 1 1.0001713038398656e+00 -4.1554042002478027e+01 1.0000000000000000e+00 5.6037401711087176e+00 1.2218703758277053e+01 9.7505766081416567e+00 
299 0 1 9.9998714461697957e-01 -1.6043374460279310e+01 1.0000000000000000e+00 4.7312917594306363e+00 1.6111111746534213e+01 9.1106257506961210e+00 
256 0 1 1.0000545283469198e+00 -2.0772508065760899e+01 1.0000000000000000e+00 6.6359915755449386e+00 1.3737286680948666e+01 7.5933108922433048e+00 
280 0 1 1.0000196594484503e+00 -3.1257528103510737e+01 1.0000000000000000e+00 5.3908253930222960e+00 1.4703724797084231e+01 7.9285058797851997e+00 
229 0 1 1.0000065158083959e+00 -2.3440308911907771e+01 1.0000000000000000e+00 5.3554944101547806e+00 1.6218209110102094e+01 8.1596897181226993e+00 
111 0 1 1.0000004631582755e+00 -2.3668680840348124e+01 1.0000000000000000e+00 4.9537463038467404e+00 1.6215816932833182e+01 8.6522493889651635e+00 
155 0 1 1.0000243431973919e+00 -5.2356152881121581e+01 1.0000000000000000e+00 5.8091223891244708e+00 1.4269129686923241e+01 7.7903575072208202e+00 
185 0 1 1.0000040274126569e+00 -1.3838259271802050e+01 1.0000000000000000e+00 5.6507962365346458e+00 1.6196502716591802e+01 7.9470380592524208e+00 
261 0 1 9.9998795586742784e-01 -2.8283387393273578e+01 1.0000000000000000e+00 4.6966829847414342e+00 1.6073082650897341e+01 9.2112031639530834e+00 
207 0 1 9.9999302901547371e-01 -6.3262219507680104e+00 1.0000000000000000e+00 4.7178598127191389e+00 1.5782557559458715e+01 9.9703340532943265e+00 
378 0 1 1.0000270148019255e+00 -3.6859072284367983e+01 1.0000000000000000e+00 2.5913784174704002e+00 1.1822188853473824e+01 1.0725022749121068e+01 
216 0 1 1.0000093984223557e+00 -2.8390928955756330e+01 1.0000000000000000e+00 2.4346781113170297e+00 1.2454256341654750e+01 1.0162900645389648e+01 
525 0 1 1.0000413903782897e+00 -4.8639009301966212e+01 1.0000000000000000e+00 2.7763853358264119e+00 1.1665272824618960e+01 1.0975822103956565e+01 
320 0 1 1.0001027755829619e+00 -1.9594996978868952e+01 1.0000000000000000e+00 3.3077050015382103e+00 1.1336193563125635e+01 1.1894682895871320e+01 
10 0 1 1.0000022581718002e+00 -4.1581310824906531e+01 1.0000000000000000e+00 2.3203187918754273e+00 1.0024506012046510e+01 1.2760971650666667e+01 
292 0 1 9.9959649381793225e-01 -2.0561006731216672e+01 1.0000000000000000e+00 4.1191551141457747e+00 1.0976859433717189e+01 1.1680773171560869e+01 
60 0 1 1.0000486112850686e+00 -2.4957953475383729e+01 1.0000000000000000e+00 4.2469361836695043e+00 1.2219481024169987e+01 1.3086604757832651e+01 
616 0 1 9.9999380664951487e-01 -3.5335661462007970e+01 1.0000000000000000e+00 4.4306413783803631e+00 1.3025019541957294e+01 1.1688999543640415e+01 
410 0 1 9.9991407949662858e-01 -2.1721816921876719e+01 1.0000000000000000e+00 6.5064122352880487e+00 1.1118623697448085e+01 1.3007405529146549e+01 
273 0 1 1.0002547628563376e+00 -4.7456836165712524e+01 1.0000000000000000e+00 5.7344244192590645e+00 1.1066452805806575e+01 1.2353242188182120e+01 
209 0 1 1.0002254417181791e+00 -1.9338717819803378e+01 1.0000000000000000e+00 6.6539117230265079e+00 1.2121475976292231e+01 1.0253414735992562e+01 
245 0 1 1.0005830257372705e+00 -7.1697104620031510e+01 1.0000000000000000e+00 5.0562015443861990e+00 1.0018541704952412e+01 1.0929661056749694e+01 
70 0 1 9.9995497962400681e-01 -6.2031347271610301e+01 1.0000000000000000e+00 5.8914600529611567e+00 1.1401516412796372e+01 1.3255220571405136e+01 
573 0 1 9.9969223297590948e-01 -4.9868835159834475e+01 1.0000000000000000e+00 6.4597919992372592e+00 1.3017810790070993e+01 1.0833725147029643e+01 
366 0 1 1.0000647040056476e+00 -3.0300450808271382e+01 1.0000000000000000e+00 4.9262027862966287e+00 1.4849566989059495e+01 1.0878358923344228e+01 
201 0 1 1.0000229597212755e+00 -1.6711656292438594e+01 1.0000000000000000e+00 4.6657604467218379e+00 1.4293585385446200e+01 1.2001123343684874e+01 
569 0 1 1.0000469186844274e+00 -5.0871349872812210e+01 1.0000000000000000e+00 4.9213151747000152e+00 1.4900439821229090e+01 1.0840967382835284e+01 
560 0 1 9.9993981758002726e-01 -4.8141883574378987e+01 1.0000000000000000e+00 6.6089621410680044e+00 1.5109458437934498e+01 1.0873692970403294e+01 
206 0 1 1.0000046478685061e+00 -1.3846552311930482e+00 1.0000000000000000e+00 4.8600915756931462e+00 1.5479701902826950e+01 1.0412574207090730e+01 
461 0 1 9.9998111668581191e-01 -1.8344451261425377e+01 1.0000000000000000e+00 5.2871847087130535e+00 1.3642672269026836e+01 1.0167220108579492e+01 
408 0 1 1.0000135853656229e+00 -4.1723002159990912e+01 1.0000000000000000e+00 2.0831026454907189e+00 1.0863029776888279e+01 1.3555775887369107e+01 
208 0 1 1.0000067400060597e+00 -8.7435468691512206e+00 1.0000000000000000e+00 1.9330151944640239e+00 1.0599180245565051e+01 1.3657168708363486e+01 
568 0 1 1.0000067252809726e+00 -7.8628052409379237e+01 1.0000000000000000e+00 2.1080025155431872e+00 1.0600599100335977e+01 1.3973363056808793e+01 
456 0 1 1.0000081324160592e+00 -2.1195720614154517e+01 1.0000000000000000e+00 2.3823149133722343e+00 1.0464756280024179e+01 1.4250477659817111e+01 
415 0 1 9.9999601337417243e-01 -2.6985103720622721e+01 1.0000000000000000e+00 1.9986579679304006e+00 1.0275634834244590e+01 1.3955734798899309e+01 
518 0 1 9.9998161188560142e-01 -3.8565767014351920e+01 1.0000000000000000e+00 5.4382011629201719e+00 1.3225476631723861e+01 1.4437429928592497e+01 
409 0 1 1.0000054115901575e+00 -2.0906597310730991e+01 1.0000000000000000e+00 5.9535574160978726e+00 1.0128391342552614e+01 1.6452087340589760e+01 
491 0 1 9.9999022036692120e-01 -5.4377718462966179e+01 1.0000000000000000e+00 5.7262540626610985e+00 1.0065424979583412e+01 1.6387490935337063e+01 
475 0 1 9.9997860391653259e-01 -3.2289022282117394e+01 1.0000000000000000e+00 6.4080172837006311e+00 1.0904414736344785e+01 1.6383713967448212e+01 
96 0 1 9.9992019921376052e-01 -2.8388289803049155e+01 1.0000000000000000e+00 5.2547588590627550e+00 1.0375297654971313e+01 1.3804184448890750e+01 
364 0 1 9.9988157028111579e-01 -3.9881243793538090e+01 1.0000000000000000e+00 6.5414467517994961e+00 1.1320554117517061e+01 1.4641543278633396e+01 
355 0 1 9.9999402052073172e-01 -2.1662125625648482e+01 1.0000000000000000e+00 4.0101148956568089e+00 1.3730158401315078e+01 1.3421147227263937e+01 
304 0 1 9.9999438941574226e-01 -1.0275448139319240e+01 1.0000000000000000e+00 4.0122911583376260e+00 1.3732471159251183e+01 1.3425507184788851e+01 
162 0 1 9.9999704671394918e-01 -6.6195056592811881e+01 1.0000000000000000e+00 4.0547151791725993e+00 1.3800638083817244e+01 1.3473665568375871e+01 
521 0 1 1.0000021352026984e+00 -2.2563180663255388e+01 1.0000000000000000e+00 4.0968582920082959e+00 1.3802353285307692e+01 1.3566467648923840e+01 
492 0 1 1.0000164543173360e+00 -2.9530166389262639e+01 1.0000000000000000e+00 5.4673075857402162e+00 1.4053956216941648e+01 1.3923011676530392e+01 
435 0 1 9.9999647849957352e-01 -3.8890576291009431e+01 1.0000000000000000e+00 5.9495079125549841e+00 1.3876569456774078e+01 1.3976709922303089e+01 
180 0 1 9.9996763901301056e-01 -1.4269714037984537e+01 1.0000000000000000e+00 6.4338918352730916e+00 1.3664909528108385e+01 1.4103950278495095e+01 
196 0 1 9.9999751105953005e-01 -2.5230402892566548e+01 1.0000000000000000e+00 6.4920155594029714e+00 1.2547770101698983e+01 1.6880985981835888e+01 
41 0 1 1.0000065123641144e+00 -3.3914071134204399e+01 1.0000000000000000e+00 6.4352013728264081e+00 1.2440415894151739e+01 1.6816490563109937e+01 
380 0 1 1.0000016503851810e+00 -1.3260573378897826e+01 1.0000000000000000e+00 6.3502874506840818e+00 1.2311214821768258e+01 1.6701193178477720e+01 
1 0 1 1.0000056449976373e+00 -9.5003043316893866e+01 1.0000000000000000e+00 6.6474075786098910e+00 1.3333467689385772e+01 1.6948225831531158e+01 
9 0 1 1.0000047449568712e+00 -4.6813712561759523e+01 1.0000000000000000e+00 6.6652361018587243e+00 1.3445854458722787e+01 1.6918584800970507e+01 
334 0 1 9.9999180767789786e-01 -1.4815483450344939e+01 1.0000000000000000e+00 9.8115933847681998e+00 8.4203428409941257e+00 3.2259332002862720e+00 
530 0 1 9.9999688720855207e-01 -2.5289778382755753e+01 1.0000000000000000e+00 9.9193776722562976e+00 8.2662935249142304e+00 3.2309914976414746e+00 
379 0 1 1.0000035839846602e+00 -4.6714787648156808e+01 1.0000000000000000e+00 1.0083900921260906e+01 7.4721611645565336e+00 3.2930085179182451e+00 
312 0 1 1.0000088275628765e+00 -1.5411967778986909e+01 1.0000000000000000e+00 9.7658140842188690e+00 5.8071031927449255e+00 6.1371083358654488e+00 
598 0 1 1.0000146825645337e+00 -3.4644393992184305e+01 1.0000000000000000e+00 9.8215121756751298e+00 5.7964869886311545e+00 5.9431050272170811e+00 
638 0 1 1.0000094136000537e+00 -6.3695180950493246e+01 1.0000000000000000e+00 1.0055150957259887e+01 5.7969807944699365e+00 5.4631142701061473e+00 
82 0 1 9.9996394798711441e-01 -5.0110823430482846e+01 1.0000000000000000e+00 1.1367103612849228e+01 5.6646401005391311e+00 6.2831878827949215e+00 
372 0 1 1.0000082987479160e+00 -2.4817070881351945e+01 1.0000000000000000e+00 1.0034878495831219e+01 5.7867037454957693e+00 5.5523012168493189e+00 
480 0 1 9.9995674316286365e-01 -2.3341976996828922e+01 1.0000000000000000e+00 1.1708280696676519e+01 5.6736373781280305e+00 6.3517052952014419e+00 
376 0 1 1.0000735175438247e+00 -4.7658293219160370e+00 1.0000000000000000e+00 1.3100838668777008e+01 5.3199434848839902e+00 6.5513544217628921e+00 
79 0 1 1.0000083961033461e+00 -4.5462688341050807e+01 1.0000000000000000e+00 1.0388397227980322e+01 6.5759113796685051e+00 3.9953489217664506e+00 
294 0 1 1.0000115463454384e+00 -2.5536890892853190e+01 1.0000000000000000e+00 1.0370644433263864e+01 6.6344828875805772e+00 3.9215853026393512e+00 
117 0 1 1.0000105244672521e+00 -2.0431184543947126e+01 1.0000000000000000e+00 7.8619044639707587e+00 7.3331026391954248e+00 5.6847445298666264e+00 
95 0 1 9.9999068697720672e-01 -3.1434134837714165e+01 1.0000000000000000e+00 7.8492374067165631e+00 7.3257691028280547e+00 5.7099839492756539e+00 
635 0 1 1.0000013487064352e+00 -3.1621043457590730e+01 1.0000000000000000e+00 7.8487420402930006e+00 7.3204339301375185e+00 5.7172692345442169e+00 
554 0 1 9.9999449335390311e-01 -4.5800755220295024e+01 1.0000000000000000e+00 7.7564581312055871e+00 7.3752284755357058e+00 5.7662992066885730e+00 
7 0 1 9.9997505941748044e-01 -7.8118095763826020e+01 1.0000000000000000e+00 7.5003321473939542e+00 7.5771680701683763e+00 5.8275709876436421e+00 
570 0 1 1.0000034458653759e+00 -5.3360636692800234e+01 1.0000000000000000e+00 8.9521510323659008e+00 8.2398559492850456e+00 3.6053521651811358e+00 
287 0 1 9.9997942581840749e-01 -3.9305068726166027e+01 1.0000000000000000e+00 9.0691705561257994e+00 7.9006955393499636e+00 3.5407693794765471e+00 
534 0 1 1.0001363598266027e+00 -2.4869749268651717e+01 1.0000000000000000e+00 9.6985124057028660e+00 8.9804807898441013e+00 6.2150672095161328e+00 
269 0 1 1.0000017027983443e+00 -1.8249780786047069e+01 1.0000000000000000e+00 6.7409051890828975e+00 9.1529158958459043e+00 6.0776916383953257e+00 
189 0 1 9.9998012415907711e-01 -4.4758234203005777e+01 1.0000000000000000e+00 1.0825605853696812e+01 9.2450129180419793e+00 5.0942641531844721e+00 
243 0 1 1.0000023743192268e+00 -3.3676525667030212e+01 1.0000000000000000e+00 1.0304060106720090e+01 6.7927387494559168e+00 3.7331943581372462e+00 
526 0 1 1.0001397235589251e+00 -4.5386334597040651e+01 1.0000000000000000e+00 1.0999766414990798e+01 8.0918162138261174e+00 6.3023849710421045e+00 
107 0 1 1.0000456842482077e+00 -2.2480942159662220e+01 1.0000000000000000e+00 1.2013437825620187e+01 9.6179013814507623e+00 6.3962083863850063e+00 
498 0 1 1.0000058826006599e+00 -4.3203094209104520e+01 1.0000000000000000e+00 1.1041181797988033e+01 8.0773447520325341e+00 5.1347379101878516e+00 
281 0 1 9.9969704661082781e-01 -1.3682396271183723e+01 1.0000000000000000e+00 1.1014413405097736e+01 8.2696778447021160e+00 6.2885746406371679e+00 
620 0 1 1.0000012281162494e+00 -3.3564302488432723e+01 1.0000000000000000e+00 1.0744376791643093e+01 9.8398857797386032e+00 4.9227681706331055e+00 
124 0 1 9.9997859313683268e-01 -1.4606806805809443e+01 1.0000000000000000e+00 7.6158851768155946e+00 3.1042824534390223e+00 9.2728764353529822e+00 
350 0 1 9.9999512032093718e-01 -3.9094223931119153e+01 1.0000000000000000e+00 8.8601126792581262e+00 2.8176599921839602e+00 8.8001694329126110e+00 
191 0 1 9.9997948557066485e-01 -2.2131717053905746e+01 1.0000000000000000e+00 8.9035257332217945e+00 2.7645421980025429e+00 9.0445869512569299e+00 
263 0 1 9.9998546906230301e-01 -1.7749374092239762e+01 1.0000000000000000e+00 8.7727781941879961e+00 2.7561819047380514e+00 8.9294644206408567e+00 
406 0 1 9.9997974181964333e-01 -7.0665642423324385e+01 1.0000000000000000e+00 7.5087206174876986e+00 3.2034082714984482e+00 9.3834243919269458e+00 
262 0 1 9.9997153675274542e-01 -1.5777679653841622e+01 1.0000000000000000e+00 1.0276008793615466e+01 2.2690339623279212e+00 9.9938241355312432e+00 
466 0 1 9.9999784594672703e-01 -1.7438063923234452e+01 1.0000000000000000e+00 8.3082275660833460e+00 4.4839677273201932e+00 7.9991094596650312e+00 
368 0 1 9.9999425539742781e-01 -1.1646676589001993e+01 1.0000000000000000e+00 8.2979422307279727e+00 4.4527051491767180e+00 7.9962782353474244e+00 
231 0 1 9.9999333101051924e-01 -4.1922629939660247e+01 1.0000000000000000e+00 8.2955470419129878e+00 4.4526629666765833e+00 7.9967170043972891e+00 
275 0 1 1.0000112302202671e+00 -2.0717732250540490e+01 1.0000000000000000e+00 8.1334550572280016e+00 3.5387782368001908e+00 8.0887600891713500e+00 
77 0 1 9.9982801726121262e-01 -5.9622541789424453e+01 1.0000000000000000e+00 8.3493822512301925e+00 6.1710188816542502e+00 8.6523273403966474e+00 
282 0 1 1.0006235331738169e+00 -1.2926719395629654e+01 1.0000000000000000e+00 7.7119247163189097e+00 6.5663018209104695e+00 9.7383774888697054e+00 
420 0 1 9.9998660350536117e-01 -3.5303358627281050e+01 1.0000000000000000e+00 6.9834784980903670e+00 5.2857348582668999e+00 9.6682106573083288e+00 
305 0 1 1.0000659161566345e+00 -4.9125965434976102e+00 1.0000000000000000e+00 9.9609661094229587e+00 4.1127546688569510e+00 9.5401540201663657e+00 
407 0 1 1.0003718545187497e+00 -5.8597027410874709e+01 1.0000000000000000e+00 1.0203302800074496e+01 6.1805324592852120e+00 8.2500560005224628e+00 
307 0 1 9.9958658708257198e-01 -1.6011164031800515e+01 1.0000000000000000e+00 1.0668515487539439e+01 5.7585390447302380e+00 9.1630719204234818e+00 
306 0 1 1.0000541692394029e+00 -7.3408030704826821e+00 1.0000000000000000e+00 1.2266629712295288e+01 3.7599731430082630e+00 9.2374063664677823e+00 
288 0 1 9.9998814436121963e-01 -4.6110458092981204e+01 1.0000000000000000e+00 1.2255810168477083e+01 3.9047842375437924e+00 7.6407032782146151e+00 
133 0 1 9.9997867237175564e-01 -4.7125145991998366e+01 1.0000000000000000e+00 1.2263837575892467e+01 3.9119371748202201e+00 7.6258738921090758e+00 
84 0 1 9.9998389164031420e-01 -8.8150215557919609e+01 1.0000000000000000e+00 1.2268232776904620e+01 3.9021241767752111e+00 7.6521570737310203e+00 
352 0 1 9.9998699214481079e-01 -2.7147505997949406e+01 1.0000000000000000e+00 1.2250445966277141e+01 3.9010634560908035e+00 7.6481850692021558e+00 
348 0 1 9.9997833258491120e-01 -9.4490866507509672e+00 1.0000000000000000e+00 1.2089208246635932e+01 3.8441953303177812e+00 7.7977972996290195e+00 
83 0 1 1.0000768225540528e+00 -5.9132197985730464e+01 1.0000000000000000e+00 1.1955497923183430e+01 3.4942025873894060e+00 9.8266117060941465e+00 
506 0 1 1.0002822673039613e+00 -2.2916806882571315e+01 1.0000000000000000e+00 1.0587311280579138e+01 6.3040616108721705e+00 8.7165435466171672e+00 
524 0 1 9.9969081783702229e-01 -3.4444430637949054e+01 1.0000000000000000e+00 7.7345074804209464e+00 6.8941153302252962e+00 9.3190659022319515e+00 
455 0 1 9.9982086156211802e-01 -2.5793471691129405e+01 1.0000000000000000e+00 8.5631533561633510e+00 9.7845202771527884e+00 6.7591315968814829e+00 
110 0 1 9.9998251604642141e-01 -1.2938721105263021e+01 1.0000000000000000e+00 7.8895152321432764e+00 9.1933452384757288e+00 7.9289701215659267e+00 
181 0 1 1.0001177531300036e+00 -1.5085976364249271e+01 1.0000000000000000e+00 7.5962568534533936e+00 9.5305894617047056e+00 6.9110419039946942e+00 
272 0 1 9.9976270070183082e-01 -2.7031915259656817e+01 1.0000000000000000e+00 8.1884993376712334e+00 8.7084998639560194e+00 8.5832758509381453e+00 
290 0 1 9.9978617047452534e-01 -7.8712332868370520e+00 1.0000000000000000e+00 9.9141571661855874e+00 7.6132467828913812e+00 8.7543807134264870e+00 
148 0 1 1.0005039342018631e+00 -4.5510937816493737e+01 1.0000000000000000e+00 8.4903624462105931e+00 8.1375716578960340e+00 8.6126769005044093e+00 
265 0 1 9.9978649117345186e-01 -1.7882416795248496e+01 1.0000000000000000e+00 9.2676349978008385e+00 6.8324647797039431e+00 7.8427039892542858e+00 
631 0 1 9.9989209155698477e-01 -4.1901795198137286e+01 1.0000000000000000e+00 7.1207223306468714e+00 7.9644508902342510e+00 9.8529195612717384e+00 
28 0 1 1.0000194433043506e+00 -7.1853457435607709e+01 1.0000000000000000e+00 1.3208385059441898e+01 6.6852304097290016e+00 7.5946039485702377e+00 
164 0 1 1.0003953693884200e+00 -4.7969727750656425e+01 1.0000000000000000e+00 1.1989195143654660e+01 9.0871185616656351e+00 7.1619518217589055e+00 
195 0 1 9.9998002202099801e-01 -2.2099333466257043e+01 1.0000000000000000e+00 1.2338487712033761e+01 6.7501521268370839e+00 8.4031343295281484e+00 
158 0 1 1.0000169116320976e+00 -4.2500365726396197e+01 1.0000000000000000e+00 1.0314890796042963e+01 9.6001532097180053e+00 8.1002688694969240e+00 
431 0 1 9.9982391963891726e-01 -1.4279086839527780e+01 1.0000000000000000e+00 1.0930646733678040e+01 8.6111018974343629e+00 9.4491384342678550e+00 
171 0 1 1.0004531772088516e+00 -3.1920239507394989e+01 1.0000000000000000e+00 1.2174531940105553e+01 8.0410924983541481e+00 9.2744409446075888e+00 