LAMMPS data file via write_data, version 30 Jul 2016, timestep = 100400000

604 atoms
2 atom types

0.0000000000000000e+00 2.0000000000000000e+01 xlo xhi
0.0000000000000000e+00 2.0000000000000000e+01 ylo yhi
0.0000000000000000e+00 2.0000000000000000e+01 zlo zhi

Masses

1 4.31
2 3.896

Atoms # meso-molecular

255 0 1 1.0000039649302452e+00 -1.3344103209857654e+01 1.0000000000000000e+00 4.3581379382664212e+00 9.6928340134745454e+00 5.6899088724337519e+00 
391 0 1 1.0000028293231622e+00 -2.3457576931516918e+01 1.0000000000000000e+00 5.2755303150952226e+00 9.0086905215139605e+00 5.7327951621837219e+00 
169 0 1 1.0000455217278528e+00 -3.8424031628640556e+01 1.0000000000000000e+00 5.9186561370594681e+00 8.3510978752456566e+00 6.2156703964817295e+00 
102 0 1 1.0000111556286322e+00 -1.2485183232224911e+01 1.0000000000000000e+00 2.9578231329945406e+00 6.6512933144954207e+00 9.6901191503136541e+00 
513 0 1 1.0000163628280518e+00 -2.5219777991200363e+01 1.0000000000000000e+00 3.2109581185517713e+00 6.5405429875003769e+00 9.3854439529811433e+00 
546 0 1 9.9998922525908263e-01 -4.0937314466013582e+01 1.0000000000000000e+00 4.6650568019447256e+00 5.9192459657405090e+00 7.6868425056740373e+00 
314 0 1 1.0000069989241096e+00 -3.0924610780792015e+01 1.0000000000000000e+00 5.4006458617963746e+00 5.8827722665379980e+00 7.1464235863574590e+00 
161 0 1 1.0000069515683714e+00 -5.0804080275847056e+01 1.0000000000000000e+00 5.4142063886208645e+00 5.8802284954329309e+00 7.1507079274367138e+00 
575 0 1 1.0000083163016495e+00 -3.8137523599585776e+01 1.0000000000000000e+00 5.4473348579241074e+00 5.8726865547801843e+00 7.1646923535303433e+00 
241 0 1 1.0000076102903788e+00 -2.6386010155443408e+01 1.0000000000000000e+00 5.4735420844820553e+00 5.8501676407790288e+00 7.2001048509956682e+00 
159 0 1 1.0000118822858168e+00 -3.2189270910465872e+01 1.0000000000000000e+00 5.4327511190769622e+00 5.8790468342554387e+00 7.1545343730581683e+00 
360 0 1 9.9998049225789820e-01 -2.0809469764688313e+01 1.0000000000000000e+00 4.1256604186683514e+00 5.4680558174954532e+00 9.6383227351623724e+00 
210 0 1 1.0000033835936810e+00 -2.0366024690271605e+01 1.0000000000000000e+00 2.7381094586349572e+00 7.7967144123556169e+00 9.6652081691005733e+00 
217 0 1 1.0000044581070020e+00 -4.4051791857207256e+01 1.0000000000000000e+00 2.7612697957333801e+00 7.9178175984584156e+00 9.6772691477650365e+00 
94 0 1 9.9998019338559341e-01 -3.0959924629478746e+01 1.0000000000000000e+00 2.9448624420034499e+00 8.3433254730263915e+00 9.8686549778983039e+00 
167 0 1 9.9998398469140304e-01 -5.2545835429593524e+01 1.0000000000000000e+00 2.9630584564274334e+00 8.3711511534431882e+00 9.8778716975724858e+00 
428 0 1 9.9999224849192125e-01 -2.1183853409188732e+01 1.0000000000000000e+00 2.9025891781438902e+00 8.2745524034188556e+00 9.8436417321126886e+00 
607 0 1 9.9999779064202932e-01 -3.1324182891787260e+01 1.0000000000000000e+00 4.2771766850685680e+00 6.8729511709188174e+00 7.8954660820490945e+00 
130 0 1 1.0004574965907980e+00 -2.1382603069536604e+01 1.0000000000000000e+00 5.5218011610445252e+00 9.0565103979480295e+00 8.8625443172705616e+00 
541 0 1 9.9993974248293493e-01 -3.0075448113648477e+01 1.0000000000000000e+00 4.2800557423993331e+00 9.8738456786588120e+00 9.9794892015942498e+00 
387 0 1 9.9997473708873463e-01 -1.8919044499056298e+01 1.0000000000000000e+00 5.4232777248419275e+00 7.7724837266779216e+00 8.9374231318356419e+00 
248 0 1 9.9997861844330671e-01 -2.3802830400571757e+01 1.0000000000000000e+00 5.3436427722150901e+00 7.8445077885604144e+00 9.0663287674109032e+00 
576 0 1 1.0000187506520184e+00 -3.0596489563026790e+01 1.0000000000000000e+00 4.6125711721783409e+00 8.9383023856859669e+00 6.9491696013357087e+00 
590 0 1 1.0000214032995707e+00 -3.1407368672046989e+01 1.0000000000000000e+00 4.6337493371855052e+00 9.0169398998692589e+00 7.2516663088835420e+00 
80 0 1 9.9960886400444415e-01 -4.9890237770789433e+01 1.0000000000000000e+00 5.5715245858441493e+00 8.8703834087453384e+00 8.1952065186890408e+00 
123 0 1 9.9999282284083613e-01 -2.4449226997561315e+01 1.0000000000000000e+00 3.6459818567259701e+00 5.0223189336511460e+00 1.0725729082669845e+01 
56 0 1 9.9999498092516337e-01 -6.2712788297095067e+01 1.0000000000000000e+00 3.7623688689593866e+00 4.9070696629362347e+00 1.0745388478028683e+01 
559 0 1 1.0000004915521059e+00 -3.0272529276522434e+01 1.0000000000000000e+00 3.7512998422658415e+00 5.5530266962964445e+00 1.1843026306386893e+01 
459 0 1 9.9997752423023700e-01 -1.5824821445611047e+01 1.0000000000000000e+00 6.4231875524278754e+00 3.9373887675209311e+00 1.0805884234369758e+01 
363 0 1 9.9997708050699796e-01 -2.7587857889395789e+01 1.0000000000000000e+00 6.4332283146225633e+00 3.9319189389665898e+00 1.0822578005432238e+01 
211 0 1 9.9997257303973375e-01 -3.3521912864372133e+01 1.0000000000000000e+00 6.4661832636954193e+00 3.9222920677287161e+00 1.0809993511674239e+01 
202 0 1 9.9999469934573926e-01 -2.2326609864517600e+01 1.0000000000000000e+00 4.1080826297439677e+00 4.7390659573078349e+00 1.0501839385143121e+01 
595 0 1 9.9999075676204330e-01 -6.2541690050504634e+01 1.0000000000000000e+00 4.8212549789897299e+00 4.3922233265261870e+00 1.0906933794691758e+01 
214 0 1 1.0000038663790527e+00 -1.8906508868639349e+01 1.0000000000000000e+00 4.8757799993629014e+00 5.5573778883133533e+00 1.2206138898504911e+01 
641 0 1 1.0000131552187845e+00 -4.8638920458687984e+01 1.0000000000000000e+00 4.2533145799973280e+00 6.5976743653876335e+00 1.2377195350577646e+01 
587 0 1 1.0000101937024526e+00 -3.2046389992271287e+01 1.0000000000000000e+00 4.3380332852545989e+00 6.5997604759537376e+00 1.2414628455444134e+01 
544 0 1 1.0000830933762666e+00 -2.4299169564840913e+01 1.0000000000000000e+00 5.8993085987870906e+00 5.2884233793487025e+00 1.0120456241282321e+01 
442 0 1 9.9994255171759350e-01 -3.1308376751962619e+01 1.0000000000000000e+00 6.6351883136412244e+00 5.1781055136607375e+00 1.2365452325500367e+01 
601 0 1 9.9998036745558361e-01 -2.8436983987608016e+01 1.0000000000000000e+00 2.9823033353351698e+00 9.6586283679908167e+00 1.2689325080142728e+01 
10 0 1 9.9999519504777246e-01 -4.1581415510355598e+01 1.0000000000000000e+00 2.3204925666067449e+00 9.9879611386709133e+00 1.2788593367707078e+01 
533 0 1 1.0000131260738676e+00 -2.8349589344119146e+01 1.0000000000000000e+00 3.5782511019576884e+00 6.6711167755962091e+00 1.1798713593724885e+01 
131 0 1 9.9989790292231995e-01 -2.5463463279540715e+01 1.0000000000000000e+00 5.5052241749214454e+00 8.2767531354910382e+00 1.2567486408721170e+01 
187 0 1 9.9997438510933545e-01 -4.7600689141323889e+00 1.0000000000000000e+00 5.1429255042621085e+00 7.2234344523670888e+00 1.1025997609858393e+01 
512 0 1 1.0000639969580147e+00 -5.1338864234342758e+01 1.0000000000000000e+00 4.8547189438986367e+00 7.4945730396664461e+00 1.2631181364027748e+01 
356 0 1 9.9953173993698918e-01 -2.2217936774662235e+01 1.0000000000000000e+00 5.5796031699520565e+00 8.4398705533592349e+00 1.2380787886124669e+01 
630 0 1 9.9964445022252169e-01 -3.0566326995374304e+01 1.0000000000000000e+00 6.1214152369000283e+00 9.9408206472254736e+00 1.0432085473695095e+01 
118 0 1 1.0003980305191611e+00 -2.8052163089764015e+01 1.0000000000000000e+00 4.8308204024783414e+00 8.6224383071068011e+00 1.2758049887355721e+01 
503 0 1 1.0000601713516681e+00 -2.8274065653947755e+01 1.0000000000000000e+00 6.6193319054234818e+00 9.2757660666931674e+00 1.2542664729070282e+01 
245 0 1 1.0002885744311818e+00 -7.1697195981893998e+01 1.0000000000000000e+00 5.0776688601382016e+00 9.9701747570694934e+00 1.0887321831419095e+01 
173 0 1 1.0000033754436028e+00 -1.7937294806299310e+01 1.0000000000000000e+00 6.1245073501704530e+00 4.4823543553085630e+00 1.4153020578442447e+01 
165 0 1 9.9999331029947114e-01 -4.8634044642876027e+01 1.0000000000000000e+00 6.5085416422516635e+00 4.5232408228532828e+00 1.5190982416072313e+01 
22 0 1 9.9998592211554205e-01 -3.7471729273247611e+01 1.0000000000000000e+00 6.4929196047978062e+00 4.4613622653574234e+00 1.5171519256643652e+01 
24 0 1 9.9998905997909759e-01 -3.2590827068083229e+01 1.0000000000000000e+00 6.4928697382859282e+00 3.9974572167670428e+00 1.5001632439230010e+01 
405 0 1 9.9999220279396406e-01 -4.1812981388396054e+01 1.0000000000000000e+00 2.8927598820152975e+00 9.2993783084807689e+00 1.3365278147730416e+01 
433 0 1 9.9997114101076101e-01 -2.2556980419013264e+01 1.0000000000000000e+00 4.4406170421464832e+00 9.2927039657398751e+00 1.5099697806982798e+01 
8 0 1 1.0000053810123735e+00 -5.5083460608043069e+01 1.0000000000000000e+00 4.5311264914505500e+00 8.8938667101540645e+00 1.5067320018890070e+01 
417 0 1 1.0000058387633539e+00 -2.0519585873855878e+01 1.0000000000000000e+00 5.8951663264080523e+00 7.4801338406834219e+00 1.6454985434137303e+01 
274 0 1 9.9999335898471975e-01 -5.0785147066161457e+01 1.0000000000000000e+00 5.8075683001073806e+00 7.4184068588807337e+00 1.6324360857180640e+01 
271 0 1 1.0000176487946428e+00 -1.0118071673013111e+01 1.0000000000000000e+00 5.7291789386803842e+00 7.4071937984331795e+00 1.5432768170594647e+01 
553 0 1 1.0000317293340222e+00 -4.3389433560176968e+01 1.0000000000000000e+00 4.3919920727415906e+00 9.3212674530507407e+00 1.4979044581324011e+01 
174 0 1 9.9999141557386939e-01 -4.5069718518571314e+01 1.0000000000000000e+00 4.2208006614213760e+00 9.4785530457592788e+00 1.4782760279951564e+01 
300 0 1 9.9991458140945977e-01 -3.0468795733410090e+01 1.0000000000000000e+00 6.6516856245575964e+00 6.7841602458776702e+00 1.5305844824824192e+01 
319 0 1 1.0000070102091925e+00 -2.2275154922994915e+01 1.0000000000000000e+00 5.1016624977732876e+00 8.7578278935351221e+00 1.6650397250084232e+01 
628 0 1 9.9999051860657584e-01 -3.3842185948759372e+01 1.0000000000000000e+00 5.7140104260932638e+00 7.8332226293583709e+00 1.6748618511160419e+01 
103 0 1 9.9999593437378997e-01 -1.6465487462730387e+01 1.0000000000000000e+00 6.1947805866368499e+00 7.9848233318514232e+00 1.6864151927567590e+01 
99 0 1 9.9998630077259698e-01 -4.1199673686735188e+01 1.0000000000000000e+00 5.1612990541193300e+00 1.0471924526231385e+01 5.2792132429961303e+00 
108 0 1 9.9997889245592697e-01 -2.8867620036938686e+01 1.0000000000000000e+00 5.0504247870671017e+00 1.0363746501568896e+01 5.2635636711631353e+00 
578 0 1 1.0000080141481380e+00 -3.6426876076729798e+01 1.0000000000000000e+00 4.1705048354542473e+00 1.0540176968741790e+01 6.4628217663212570e+00 
583 0 1 9.9993061529089944e-01 -3.5753354508869535e+01 1.0000000000000000e+00 6.1987645354816765e+00 1.1054989067513091e+01 5.7825826113865011e+00 
341 0 1 9.9999261812366458e-01 -1.5819779045144081e+01 1.0000000000000000e+00 4.2163796272946152e+00 1.0160100592519830e+01 5.8165286322822158e+00 
61 0 1 1.0000104007264237e+00 -2.2573643696635628e+01 1.0000000000000000e+00 5.5780355573886586e+00 1.1733079847368469e+01 6.4009582918050834e+00 
298 0 1 1.0000010219517723e+00 -2.6063271513803244e+01 1.0000000000000000e+00 2.9102724222622114e+00 1.2370285817497304e+01 8.8524700684656352e+00 
259 0 1 1.0000007679847231e+00 -3.3886710199346574e+01 1.0000000000000000e+00 2.9021265055698078e+00 1.2375794704458215e+01 8.8608460058888632e+00 
332 0 1 9.9999412690623002e-01 -2.6011277028183542e+01 1.0000000000000000e+00 2.4155330117437237e+00 1.2495112502637113e+01 9.7744893553576713e+00 
565 0 1 9.9999356936927186e-01 -4.2295715666314017e+01 1.0000000000000000e+00 2.4000658920820275e+00 1.2467242996851562e+01 9.8458051179240158e+00 
424 0 1 1.0000108072818801e+00 -2.1147473745750361e+01 1.0000000000000000e+00 2.9121418625016346e+00 1.2083289009657717e+01 8.8003125355560883e+00 
567 0 1 1.0000353900416037e+00 -6.9426959850366984e+01 1.0000000000000000e+00 4.7246980911788015e+00 1.2472197824036062e+01 8.2376919795388179e+00 
427 0 1 1.0000078852174950e+00 -1.4152767976971468e+01 1.0000000000000000e+00 4.6672490025503173e+00 1.2045292079129922e+01 7.9732704288947174e+00 
444 0 1 1.0000737447784382e+00 -1.4236697418949710e+01 1.0000000000000000e+00 5.1254030664809589e+00 1.2575095708350808e+01 8.0548031385712342e+00 
177 0 1 9.9981939752243998e-01 -3.3118120805021469e+01 1.0000000000000000e+00 4.8347231763650758e+00 1.0626520827639103e+01 9.2424045019647281e+00 
23 0 1 1.0000264294923336e+00 -2.7407118992593031e+01 1.0000000000000000e+00 4.7120576997741850e+00 1.1413325468454246e+01 6.8008276610982001e+00 
542 0 1 1.0000280365850687e+00 -1.6236523318301838e+01 1.0000000000000000e+00 4.2778262056007907e+00 1.0267459503963584e+01 9.8443097215866331e+00 
67 0 1 1.0000033337838916e+00 -4.1553973513266897e+01 1.0000000000000000e+00 5.5527890830305120e+00 1.2208252635112778e+01 9.7199677401524518e+00 
299 0 1 9.9998970268038267e-01 -1.6043371558318416e+01 1.0000000000000000e+00 4.7291145766324103e+00 1.6104986280699666e+01 9.1040054086512665e+00 
256 0 1 1.0000411864048375e+00 -2.0772504310389348e+01 1.0000000000000000e+00 6.6558616203699259e+00 1.3785876861800144e+01 7.6017082579683253e+00 
280 0 1 1.0000103887268164e+00 -3.1257507320194168e+01 1.0000000000000000e+00 5.3918805301229789e+00 1.4699007846524887e+01 7.9248289128270288e+00 
229 0 1 1.0000040796943208e+00 -2.3440304169718299e+01 1.0000000000000000e+00 5.3466425587446933e+00 1.6226298559027413e+01 8.1437212135320394e+00 
111 0 1 9.9999616406871306e-01 -2.3668676608329960e+01 1.0000000000000000e+00 4.9447771576690558e+00 1.6217947259826644e+01 8.6441388681338420e+00 
155 0 1 1.0000338818481382e+00 -5.2356134821316942e+01 1.0000000000000000e+00 5.8095878991165675e+00 1.4298560723440227e+01 7.7842659134701693e+00 
185 0 1 1.0000060896115079e+00 -1.3838254592140858e+01 1.0000000000000000e+00 5.6428381400622261e+00 1.6203479416284651e+01 7.9278896166142925e+00 
261 0 1 9.9999165123600375e-01 -2.8283384750559961e+01 1.0000000000000000e+00 4.6959167091058491e+00 1.6064906337942162e+01 9.2022477242192018e+00 
207 0 1 9.9998597200366657e-01 -6.3262189186139581e+00 1.0000000000000000e+00 4.7277855654691159e+00 1.5779115481541730e+01 9.9495510994214662e+00 
378 0 1 1.0000379550407623e+00 -3.6859092878624125e+01 1.0000000000000000e+00 2.6102414832452827e+00 1.1805618582923758e+01 1.0700120980730407e+01 
216 0 1 1.0000025078706685e+00 -2.8390930182335335e+01 1.0000000000000000e+00 2.4503565532054004e+00 1.2431255469626093e+01 1.0150304314723535e+01 
525 0 1 1.0000496585674929e+00 -4.8639054759364527e+01 1.0000000000000000e+00 2.8021034962344791e+00 1.1659401339875531e+01 1.0954901499875621e+01 
320 0 1 1.0003031271464644e+00 -1.9595172695426324e+01 1.0000000000000000e+00 3.3505865759892637e+00 1.1304705156779816e+01 1.1911222623644113e+01 
292 0 1 9.9951428544310339e-01 -2.0561199522313956e+01 1.0000000000000000e+00 4.0353979314683714e+00 1.1057494860381192e+01 1.1749168181062148e+01 
60 0 1 9.9993817999417522e-01 -2.4958118599438215e+01 1.0000000000000000e+00 4.2635686080142676e+00 1.2159118481981537e+01 1.3070617721424187e+01 
616 0 1 1.0000099572526593e+00 -3.5335757023253322e+01 1.0000000000000000e+00 4.4669024195975719e+00 1.3031650791083912e+01 1.1720040421621805e+01 
410 0 1 9.9952865138600022e-01 -2.1721922198680030e+01 1.0000000000000000e+00 6.4407876016197179e+00 1.1135868772868392e+01 1.3031910513125734e+01 
273 0 1 1.0004006020696965e+00 -4.7456955494216999e+01 1.0000000000000000e+00 5.7810172785671163e+00 1.1100698242749328e+01 1.2337229873143496e+01 
70 0 1 1.0000726246619753e+00 -6.2031479777222920e+01 1.0000000000000000e+00 5.8744249471514891e+00 1.1353577118259901e+01 1.3245200266579797e+01 
573 0 1 9.9951780866133377e-01 -4.9868699235165941e+01 1.0000000000000000e+00 6.4317700788215637e+00 1.3017878856330876e+01 1.0829416392624310e+01 
366 0 1 9.9998055340139391e-01 -3.0300467943190458e+01 1.0000000000000000e+00 4.9616838645586894e+00 1.4833772397730518e+01 1.0902423217985278e+01 
201 0 1 1.0000061849649786e+00 -1.6711687550040640e+01 1.0000000000000000e+00 4.7030066481248678e+00 1.4303918823718970e+01 1.1998202670132510e+01 
569 0 1 9.9998736156197854e-01 -5.0871365481237142e+01 1.0000000000000000e+00 4.9569701279183667e+00 1.4885839471849872e+01 1.0862348661614048e+01 
560 0 1 1.0000403464499996e+00 -4.8141865581444257e+01 1.0000000000000000e+00 6.6479288171984221e+00 1.5152913253504014e+01 1.0894368365323215e+01 
206 0 1 9.9998852806758776e-01 -1.3846566581245170e+00 1.0000000000000000e+00 4.8805694669165343e+00 1.5478172570466230e+01 1.0402789116821765e+01 
461 0 1 1.0001099457594040e+00 -1.8344444946219301e+01 1.0000000000000000e+00 5.2765099594831071e+00 1.3682218459629333e+01 1.0161591274111625e+01 
408 0 1 1.0000146928452627e+00 -4.1723108892473213e+01 1.0000000000000000e+00 2.1009046944685816e+00 1.0855481677330111e+01 1.3556232955160839e+01 
208 0 1 1.0000112366388771e+00 -8.7436248518313597e+00 1.0000000000000000e+00 1.9450027660438876e+00 1.0580974551604823e+01 1.3662019903590918e+01 
568 0 1 1.0000040045920982e+00 -7.8628120666775004e+01 1.0000000000000000e+00 2.1173626934839636e+00 1.0586727942014528e+01 1.3980828592808518e+01 
456 0 1 9.9999939458896403e-01 -2.1195776092822072e+01 1.0000000000000000e+00 2.4001092153572401e+00 1.0453558330730315e+01 1.4269429448975247e+01 
415 0 1 9.9999726986193771e-01 -2.6985154171746927e+01 1.0000000000000000e+00 2.0078028898521145e+00 1.0252876509658293e+01 1.3959965070464765e+01 
518 0 1 1.0000057076931512e+00 -3.8565674104125648e+01 1.0000000000000000e+00 5.4171114337384534e+00 1.3258248918260074e+01 1.4450318118728331e+01 
409 0 1 9.9999013124794101e-01 -2.0906583045664181e+01 1.0000000000000000e+00 5.9565948987205735e+00 1.0138770576160891e+01 1.6416120781104159e+01 
491 0 1 9.9999239199626921e-01 -5.4377706494333587e+01 1.0000000000000000e+00 5.7446309733424572e+00 1.0079102433605003e+01 1.6359985019307977e+01 
475 0 1 9.9990503165289712e-01 -3.2289004584803244e+01 1.0000000000000000e+00 6.4029792848973024e+00 1.0911482604251031e+01 1.6336817878655783e+01 
96 0 1 9.9995478331729271e-01 -2.8388510640660048e+01 1.0000000000000000e+00 5.2148734959934311e+00 1.0421614093425575e+01 1.3831648055118425e+01 
364 0 1 1.0004522561544806e+00 -3.9881252086875698e+01 1.0000000000000000e+00 6.5394453103423205e+00 1.1324452371366011e+01 1.4593717582211571e+01 
355 0 1 1.0000009123653897e+00 -2.1662144159927905e+01 1.0000000000000000e+00 4.0244710090242153e+00 1.3745159959376348e+01 1.3449141557468140e+01 
304 0 1 9.9999888262078274e-01 -1.0275466209300973e+01 1.0000000000000000e+00 4.0266828863781399e+00 1.3747646205919267e+01 1.3453722155601790e+01 
162 0 1 9.9999051994919275e-01 -6.6195066784129750e+01 1.0000000000000000e+00 4.0701055158691997e+00 1.3820303801350910e+01 1.3503550678082568e+01 
521 0 1 9.9999657867390745e-01 -2.2563184118609268e+01 1.0000000000000000e+00 4.1150422894506375e+00 1.3834183003997778e+01 1.3593439045034954e+01 
492 0 1 9.9999439284104907e-01 -2.9530062297049053e+01 1.0000000000000000e+00 5.4673866315732056e+00 1.4083178228939710e+01 1.3928223880812844e+01 
435 0 1 9.9999889365547023e-01 -3.8890439744024839e+01 1.0000000000000000e+00 5.9001094932974780e+00 1.3899509265529050e+01 1.3990582536195037e+01 
180 0 1 9.9996752525473409e-01 -1.4269608468404622e+01 1.0000000000000000e+00 6.4026689433226904e+00 1.3628862135620146e+01 1.4145342122377345e+01 
196 0 1 9.9998414626072729e-01 -2.5230404257955406e+01 1.0000000000000000e+00 6.4860812656548612e+00 1.2545129841935172e+01 1.6873309887402019e+01 
41 0 1 9.9997410136487686e-01 -3.3914072567833209e+01 1.0000000000000000e+00 6.4345620503848631e+00 1.2441268486512108e+01 1.6811975536654771e+01 
380 0 1 9.9996787233207018e-01 -1.3260574944541462e+01 1.0000000000000000e+00 6.3580859324060981e+00 1.2317646089853284e+01 1.6705757214809239e+01 
1 0 1 9.9999288143896825e-01 -9.5003046765034426e+01 1.0000000000000000e+00 6.6456567630089571e+00 1.3329414729972635e+01 1.6948633163516121e+01 
9 0 1 1.0000063759633946e+00 -4.6813716438495554e+01 1.0000000000000000e+00 6.6641712491635019e+00 1.3441756045575469e+01 1.6919850413970021e+01 
334 0 1 9.9998508073895265e-01 -1.4815493553213226e+01 1.0000000000000000e+00 9.8117755618051383e+00 8.4176258512328914e+00 3.2118753959532778e+00 
530 0 1 9.9999624648514318e-01 -2.5289787994130549e+01 1.0000000000000000e+00 9.9163919342113687e+00 8.2626644390516386e+00 3.2157105720367078e+00 
379 0 1 9.9999814969618317e-01 -4.6714791206563596e+01 1.0000000000000000e+00 1.0084967318730301e+01 7.4681213509516358e+00 3.2813325071704571e+00 
312 0 1 9.9998060473330974e-01 -1.5412056946683679e+01 1.0000000000000000e+00 9.7464907319653467e+00 5.7891896820841984e+00 6.1270584842670948e+00 
598 0 1 9.9999677826300959e-01 -3.4644464519300357e+01 1.0000000000000000e+00 9.8039796717542185e+00 5.7786268473409681e+00 5.9342626706571968e+00 
638 0 1 1.0000105018699441e+00 -6.3695204912871837e+01 1.0000000000000000e+00 1.0056903097451706e+01 5.7820100554639051e+00 5.4629429930875837e+00 
82 0 1 1.0000409681203377e+00 -5.0110914780631688e+01 1.0000000000000000e+00 1.1354894597400703e+01 5.6780551771476873e+00 6.3122507578106841e+00 
372 0 1 1.0000095203468189e+00 -2.4817102369211856e+01 1.0000000000000000e+00 1.0031774104858652e+01 5.7716142037842726e+00 5.5469217943603981e+00 
480 0 1 1.0000449934171682e+00 -2.3342072766075919e+01 1.0000000000000000e+00 1.1680912991704540e+01 5.6777928831381290e+00 6.3840595941735767e+00 
376 0 1 9.9993951032664841e-01 -4.7659258430170466e+00 1.0000000000000000e+00 1.3090667635557008e+01 5.3047171753684550e+00 6.5530098996870363e+00 
79 0 1 1.0000122372861431e+00 -4.5462683718483049e+01 1.0000000000000000e+00 1.0396403855833272e+01 6.5804608818753039e+00 3.9867519576172588e+00 
294 0 1 1.0000103747049458e+00 -2.5536886806635536e+01 1.0000000000000000e+00 1.0378066510153573e+01 6.6371335258069086e+00 3.9137790844584726e+00 
117 0 1 9.9996798951377752e-01 -2.0431202558763026e+01 1.0000000000000000e+00 7.8624270263948084e+00 7.3185214819119198e+00 5.6765340272047506e+00 
95 0 1 9.9999878408007614e-01 -3.1434155121128448e+01 1.0000000000000000e+00 7.8520153584784955e+00 7.3125912496489676e+00 5.6980980147365887e+00 
635 0 1 9.9998857988008083e-01 -3.1621064780332766e+01 1.0000000000000000e+00 7.8517399566467745e+00 7.3077613703954922e+00 5.7040243149966008e+00 
554 0 1 9.9997588993185738e-01 -4.5800779039198616e+01 1.0000000000000000e+00 7.7672818504862429e+00 7.3611193534268491e+00 5.7527818643200224e+00 
7 0 1 1.0000196295594954e+00 -7.8118111051183163e+01 1.0000000000000000e+00 7.5262057801636226e+00 7.5388548742471997e+00 5.8335674142499210e+00 
570 0 1 1.0000113502088728e+00 -5.3360636034947802e+01 1.0000000000000000e+00 8.9468925325001063e+00 8.2327155647101833e+00 3.6093812306962727e+00 
287 0 1 9.9999433092630952e-01 -3.9305067998010379e+01 1.0000000000000000e+00 9.0622174167727838e+00 7.8956074802457579e+00 3.5419354672687731e+00 
534 0 1 1.0002240499988926e+00 -2.4869876772501279e+01 1.0000000000000000e+00 9.7482637176818852e+00 8.9666594294887219e+00 6.2467938738197839e+00 
269 0 1 1.0001184554942881e+00 -1.8249762671770139e+01 1.0000000000000000e+00 6.7491425291104390e+00 9.1674929137269938e+00 6.0800618552997800e+00 
189 0 1 1.0000066575425632e+00 -4.4758267815766736e+01 1.0000000000000000e+00 1.0843797840430028e+01 9.2245954554054812e+00 5.0951313508448246e+00 
243 0 1 1.0000009274813704e+00 -3.3676523287062793e+01 1.0000000000000000e+00 1.0310098395126220e+01 6.7921623595398755e+00 3.7254050888370616e+00 
526 0 1 9.9966729548787436e-01 -4.5386362726864384e+01 1.0000000000000000e+00 1.0966531600990372e+01 8.1097586565136748e+00 6.2775380142696173e+00 
107 0 1 1.0002112937435303e+00 -2.2480772531822744e+01 1.0000000000000000e+00 1.1996438758452669e+01 9.6362430092205589e+00 6.3707525322981384e+00 
498 0 1 1.0000101173424611e+00 -4.3203115245840593e+01 1.0000000000000000e+00 1.1054404599631875e+01 8.0390888058441714e+00 5.1010812124840559e+00 
281 0 1 1.0001188247762480e+00 -1.3682416634322740e+01 1.0000000000000000e+00 1.0959444745134315e+01 8.2510087919661466e+00 6.2953317653398777e+00 
620 0 1 9.9996648388977494e-01 -3.3564328098375441e+01 1.0000000000000000e+00 1.0732878354742754e+01 9.8170895388519597e+00 4.8783816136523823e+00 
124 0 1 9.9997550795938617e-01 -1.4606804674553628e+01 1.0000000000000000e+00 7.5611367314149085e+00 3.0933444383921760e+00 9.3066757663623854e+00 
350 0 1 9.9999284361609986e-01 -3.9094227462367627e+01 1.0000000000000000e+00 8.8466553526330607e+00 2.8260267400135315e+00 8.8274172545658480e+00 
191 0 1 9.9999757782496534e-01 -2.2131716654015765e+01 1.0000000000000000e+00 8.8953100984053766e+00 2.7814004329971529e+00 9.0559319446911442e+00 
263 0 1 9.9998129309425043e-01 -1.7749373700018484e+01 1.0000000000000000e+00 8.7580878122654919e+00 2.7671748736883441e+00 8.9452396505802376e+00 
406 0 1 9.9997537041508089e-01 -7.0665640853485428e+01 1.0000000000000000e+00 7.4415654793532884e+00 3.1969718277357937e+00 9.4273563526441997e+00 
466 0 1 1.0000082574515805e+00 -1.7438103547066738e+01 1.0000000000000000e+00 8.3552604881177981e+00 4.4731975284078302e+00 8.0122924327338172e+00 
368 0 1 1.0000022859195594e+00 -1.1646713299557600e+01 1.0000000000000000e+00 8.3425797473328895e+00 4.4414266584552777e+00 8.0095303848499473e+00 
231 0 1 1.0000026468194478e+00 -4.1922666392113634e+01 1.0000000000000000e+00 8.3401137290389187e+00 4.4412219578912859e+00 8.0099957591105788e+00 
275 0 1 9.9999591466011728e-01 -2.0717735695470076e+01 1.0000000000000000e+00 8.1280550731069017e+00 3.5084540026008599e+00 8.1123210465858993e+00 
77 0 1 1.0001233315492422e+00 -5.9622596270975471e+01 1.0000000000000000e+00 8.3195505719556255e+00 6.1212553683001207e+00 8.7162878047104773e+00 
282 0 1 1.0000191141171662e+00 -1.2926742938654932e+01 1.0000000000000000e+00 7.7305711492887683e+00 6.6099362292007742e+00 9.7448966012182581e+00 
420 0 1 9.9999172698775940e-01 -3.5303346335810062e+01 1.0000000000000000e+00 6.9304456055129311e+00 5.1593911499762877e+00 9.6865150927443402e+00 
305 0 1 1.0001145011761987e+00 -4.9128095527849478e+00 1.0000000000000000e+00 9.9415272722513137e+00 4.1919691040392095e+00 9.5234921506537180e+00 
407 0 1 9.9959367519157205e-01 -5.8597325592250108e+01 1.0000000000000000e+00 1.0255179599665043e+01 6.1872838274325943e+00 8.2863134951051620e+00 
307 0 1 9.9985835867046902e-01 -1.6011550612509762e+01 1.0000000000000000e+00 1.0694061278551045e+01 5.7689751454164311e+00 9.1637337782394646e+00 
306 0 1 1.0000019383598600e+00 -7.3408399696803190e+00 1.0000000000000000e+00 1.2283779199245885e+01 3.8063322247410385e+00 9.2602495711386155e+00 
288 0 1 1.0000180808267429e+00 -4.6110522663391329e+01 1.0000000000000000e+00 1.2259130334629347e+01 3.9215807948782810e+00 7.6381384714100236e+00 
133 0 1 1.0000127208324592e+00 -4.7125210942979180e+01 1.0000000000000000e+00 1.2265562897787744e+01 3.9277233937317741e+00 7.6244463012854009e+00 
84 0 1 1.0000160369225810e+00 -8.8150280321033051e+01 1.0000000000000000e+00 1.2269146493136425e+01 3.9190532622545828e+00 7.6486194436176929e+00 
352 0 1 1.0000203611591860e+00 -2.7147570368666202e+01 1.0000000000000000e+00 1.2254788792171732e+01 3.9183889618859320e+00 7.6451012620738545e+00 
348 0 1 1.0000132102708583e+00 -9.4491481042050189e+00 1.0000000000000000e+00 1.2099923607710549e+01 3.8656382291818931e+00 7.7927851609574654e+00 
83 0 1 9.9998270495930008e-01 -5.9132178435793953e+01 1.0000000000000000e+00 1.1950702058933677e+01 3.5632622068050637e+00 9.8809894382347210e+00 
506 0 1 1.0002316236625386e+00 -2.2917226779432990e+01 1.0000000000000000e+00 1.0512769756055155e+01 6.2217973845881591e+00 8.8419666569194906e+00 
524 0 1 9.9954792487640498e-01 -3.4444378376435530e+01 1.0000000000000000e+00 7.8458816893331349e+00 7.0565659545407362e+00 9.2349922563101146e+00 
455 0 1 9.9976237153070280e-01 -2.5793736836942490e+01 1.0000000000000000e+00 8.5905008477159619e+00 9.7750956464866192e+00 6.7640790113347773e+00 
110 0 1 9.9962755759967237e-01 -1.2939074113197288e+01 1.0000000000000000e+00 7.8935342012033329e+00 9.1896677920295176e+00 8.0048754728440681e+00 
181 0 1 1.0001358136299867e+00 -1.5086148138525990e+01 1.0000000000000000e+00 7.5790555779398181e+00 9.5883782334718415e+00 6.8995299813137994e+00 
272 0 1 1.0002137871789252e+00 -2.7032151959873776e+01 1.0000000000000000e+00 8.1522337136532812e+00 8.7235920413282582e+00 8.5806358380824506e+00 
290 0 1 1.0000920430126989e+00 -7.8713408652582588e+00 1.0000000000000000e+00 9.8337498642534094e+00 7.6428730174126960e+00 8.7520771376234219e+00 
148 0 1 1.0002308679328260e+00 -4.5510970684250069e+01 1.0000000000000000e+00 8.5147493556416407e+00 8.1767673889539569e+00 8.5373112532221462e+00 
265 0 1 1.0002343305731010e+00 -1.7882555014555262e+01 1.0000000000000000e+00 9.3109815764523027e+00 6.7815706658354840e+00 7.7649691876067441e+00 
631 0 1 9.9999966936683626e-01 -4.1901752143774445e+01 1.0000000000000000e+00 7.3055871038844868e+00 7.7662608625350549e+00 9.9683415859531781e+00 
605 0 1 1.0003606167767507e+00 -2.7886109977839521e+01 1.0000000000000000e+00 1.2388754540439390e+01 8.1622568977442960e+00 7.6518512300143922e+00 
28 0 1 9.9965171263511154e-01 -7.1853560680405437e+01 1.0000000000000000e+00 1.3204665793016089e+01 6.7424764768542982e+00 7.6510635311496840e+00 
164 0 1 9.9964194833941677e-01 -4.7969603845743713e+01 1.0000000000000000e+00 1.2007340815626124e+01 9.0486422803233530e+00 7.0575495217817208e+00 
195 0 1 1.0004191974564682e+00 -2.2099534701372018e+01 1.0000000000000000e+00 1.2492421167167779e+01 6.8039310877285528e+00 8.3881727435197178e+00 
158 0 1 1.0000389449434848e+00 -4.2500605476049330e+01 1.0000000000000000e+00 1.0233152956423185e+01 9.6364744796150443e+00 8.0883017940805750e+00 
431 0 1 9.9967952940314542e-01 -1.4279305907922298e+01 1.0000000000000000e+00 1.0967762245244709e+01 8.6784129156754872e+00 9.5033023180624436e+00 
171 0 1 9.9965802958566019e-01 -3.1920237239084038e+01 1.0000000000000000e+00 1.1923788025884352e+01 8.1356925708507291e+00 9.1800996644307968e+00 
470 0 1 1.0000243475495396e+00 -3.2355633589791502e+01 1.0000000000000000e+00 7.2117183614190479e+00 3.2994609972969258e+00 1.3286905646411144e+01 