LAMMPS data file via write_data, version 30 Jul 2016, timestep = 50000000

2080 atoms
8 atom types

0.0000000000000000e+00 4.0000000000000000e+01 xlo xhi
0.0000000000000000e+00 4.0000000000000000e+01 ylo yhi
0.0000000000000000e+00 1.0000000000000000e+02 zlo zhi

Masses

1 3.896
2 5.36
3 20.064
4 8.378
5 8.378
6 8.378
7 8.378
8 8.378

Atoms # meso-molecular

1 2 4 2.2559723595316457e+00 5.1722586139899024e-02 1.0000000000000000e+00 0.0000000000000000e+00 0.0000000000000000e+00 2.5000000000000000e+00 
2 2 4 2.2559723595316457e+00 -7.9620191766569728e-03 1.0000000000000000e+00 0.0000000000000000e+00 2.0000000000000000e+00 2.5000000000000000e+00 
21 2 4 2.2559723595316457e+00 1.7168271845036650e-06 1.0000000000000000e+00 2.0000000000000000e+00 0.0000000000000000e+00 2.5000000000000000e+00 
22 2 4 2.2559723595316457e+00 5.2625846504813711e-08 1.0000000000000000e+00 2.0000000000000000e+00 2.0000000000000000e+00 2.5000000000000000e+00 
41 2 4 2.2559723595316457e+00 1.9748557040736370e-08 1.0000000000000000e+00 4.0000000000000000e+00 0.0000000000000000e+00 2.5000000000000000e+00 
42 2 4 2.2559723595316465e+00 4.5252999300892182e-07 1.0000000000000000e+00 4.0000000000000000e+00 2.0000000000000000e+00 2.5000000000000000e+00 
61 2 4 2.2559723595316457e+00 1.2102433915225704e-05 1.0000000000000000e+00 6.0000000000000000e+00 0.0000000000000000e+00 2.5000000000000000e+00 
62 2 4 2.2559723595316457e+00 0.0000000000000000e+00 1.0000000000000000e+00 6.0000000000000000e+00 2.0000000000000000e+00 2.5000000000000000e+00 
81 2 4 2.2559723595316457e+00 -4.6597174784767020e-07 1.0000000000000000e+00 8.0000000000000000e+00 0.0000000000000000e+00 2.5000000000000000e+00 
82 2 4 2.2559723595316457e+00 2.2730578169816825e-10 1.0000000000000000e+00 8.0000000000000000e+00 2.0000000000000000e+00 2.5000000000000000e+00 
101 2 4 2.2559723595316457e+00 -5.7302060886903593e-05 1.0000000000000000e+00 1.0000000000000000e+01 0.0000000000000000e+00 2.5000000000000000e+00 
102 2 4 2.2559723595316457e+00 0.0000000000000000e+00 1.0000000000000000e+00 1.0000000000000000e+01 2.0000000000000000e+00 2.5000000000000000e+00 
121 2 4 2.2559723595316457e+00 -2.3014110789786261e-04 1.0000000000000000e+00 1.2000000000000000e+01 0.0000000000000000e+00 2.5000000000000000e+00 
122 2 4 2.2559723595316457e+00 8.7785287851322491e-08 1.0000000000000000e+00 1.2000000000000000e+01 2.0000000000000000e+00 2.5000000000000000e+00 
141 2 4 2.2559723595316457e+00 9.1119573547577507e-05 1.0000000000000000e+00 1.4000000000000000e+01 0.0000000000000000e+00 2.5000000000000000e+00 
142 2 4 2.2559723595316457e+00 1.2477983447362058e-07 1.0000000000000000e+00 1.4000000000000000e+01 2.0000000000000000e+00 2.5000000000000000e+00 
161 2 4 2.2559723595316457e+00 1.4116712379849674e-03 1.0000000000000000e+00 1.6000000000000000e+01 0.0000000000000000e+00 2.5000000000000000e+00 
162 2 4 2.2559723595316457e+00 4.1459931899436351e-07 1.0000000000000000e+00 1.6000000000000000e+01 2.0000000000000000e+00 2.5000000000000000e+00 
181 2 4 2.2559723595316457e+00 -2.4483862305849395e-04 1.0000000000000000e+00 1.8000000000000000e+01 0.0000000000000000e+00 2.5000000000000000e+00 
182 2 4 2.2559723595316457e+00 4.2646058426985519e-07 1.0000000000000000e+00 1.8000000000000000e+01 2.0000000000000000e+00 2.5000000000000000e+00 
3 2 4 2.2559723595316465e+00 3.2229155836803899e-03 1.0000000000000000e+00 0.0000000000000000e+00 4.0000000000000000e+00 2.5000000000000000e+00 
4 2 4 2.2559723595316457e+00 9.2515524912559990e-06 1.0000000000000000e+00 0.0000000000000000e+00 6.0000000000000000e+00 2.5000000000000000e+00 
23 2 4 2.2559723595316457e+00 5.1228456842801449e-08 1.0000000000000000e+00 2.0000000000000000e+00 4.0000000000000000e+00 2.5000000000000000e+00 
24 2 4 2.2559723595316457e+00 0.0000000000000000e+00 1.0000000000000000e+00 2.0000000000000000e+00 6.0000000000000000e+00 2.5000000000000000e+00 
43 2 4 2.2559723595316465e+00 3.8417295190693114e-07 1.0000000000000000e+00 4.0000000000000000e+00 4.0000000000000000e+00 2.5000000000000000e+00 
44 2 4 2.2559723595316457e+00 9.8923501692304520e-12 1.0000000000000000e+00 4.0000000000000000e+00 6.0000000000000000e+00 2.5000000000000000e+00 
63 2 4 2.2559723595316457e+00 3.4304920277156813e-11 1.0000000000000000e+00 6.0000000000000000e+00 4.0000000000000000e+00 2.5000000000000000e+00 
64 2 4 2.2559723595316457e+00 1.7423479805495758e-11 1.0000000000000000e+00 6.0000000000000000e+00 6.0000000000000000e+00 2.5000000000000000e+00 
83 2 4 2.2559723595316457e+00 7.1366845476415852e-11 1.0000000000000000e+00 8.0000000000000000e+00 4.0000000000000000e+00 2.5000000000000000e+00 
84 2 4 2.2559723595316457e+00 0.0000000000000000e+00 1.0000000000000000e+00 8.0000000000000000e+00 6.0000000000000000e+00 2.5000000000000000e+00 
103 2 4 2.2559723595316457e+00 8.7880371501356003e-11 1.0000000000000000e+00 1.0000000000000000e+01 4.0000000000000000e+00 2.5000000000000000e+00 
104 2 4 2.2559723595316457e+00 8.1941815313194850e-11 1.0000000000000000e+00 1.0000000000000000e+01 6.0000000000000000e+00 2.5000000000000000e+00 
123 2 4 2.2559723595316457e+00 0.0000000000000000e+00 1.0000000000000000e+00 1.2000000000000000e+01 4.0000000000000000e+00 2.5000000000000000e+00 
124 2 4 2.2559723595316457e+00 0.0000000000000000e+00 1.0000000000000000e+00 1.2000000000000000e+01 6.0000000000000000e+00 2.5000000000000000e+00 
143 2 4 2.2559723595316457e+00 0.0000000000000000e+00 1.0000000000000000e+00 1.4000000000000000e+01 4.0000000000000000e+00 2.5000000000000000e+00 
144 2 4 2.2559723595316457e+00 0.0000000000000000e+00 1.0000000000000000e+00 1.4000000000000000e+01 6.0000000000000000e+00 2.5000000000000000e+00 
163 2 4 2.2559723595316457e+00 0.0000000000000000e+00 1.0000000000000000e+00 1.6000000000000000e+01 4.0000000000000000e+00 2.5000000000000000e+00 
164 2 4 2.2559723595316457e+00 1.0485587142184013e-10 1.0000000000000000e+00 1.6000000000000000e+01 6.0000000000000000e+00 2.5000000000000000e+00 
183 2 4 2.2559723595316457e+00 1.5932385355774870e-10 1.0000000000000000e+00 1.8000000000000000e+01 4.0000000000000000e+00 2.5000000000000000e+00 
184 2 4 2.2559723595316457e+00 0.0000000000000000e+00 1.0000000000000000e+00 1.8000000000000000e+01 6.0000000000000000e+00 2.5000000000000000e+00 
5 2 4 2.2559723595316457e+00 -5.0520469953219810e-05 1.0000000000000000e+00 0.0000000000000000e+00 8.0000000000000000e+00 2.5000000000000000e+00 
25 2 4 2.2559723595316457e+00 6.6254088072650108e-11 1.0000000000000000e+00 2.0000000000000000e+00 8.0000000000000000e+00 2.5000000000000000e+00 
45 2 4 2.2559723595316457e+00 3.4273836817091297e-10 1.0000000000000000e+00 4.0000000000000000e+00 8.0000000000000000e+00 2.5000000000000000e+00 
65 2 4 2.2559723595316457e+00 1.4084341864600086e-10 1.0000000000000000e+00 6.0000000000000000e+00 8.0000000000000000e+00 2.5000000000000000e+00 
85 2 4 2.2559723595316457e+00 5.5580033795320682e-11 1.0000000000000000e+00 8.0000000000000000e+00 8.0000000000000000e+00 2.5000000000000000e+00 
105 2 4 2.2559723595316457e+00 6.7814958286035801e-11 1.0000000000000000e+00 1.0000000000000000e+01 8.0000000000000000e+00 2.5000000000000000e+00 
125 2 4 2.2559723595316457e+00 5.1334219704353098e-11 1.0000000000000000e+00 1.2000000000000000e+01 8.0000000000000000e+00 2.5000000000000000e+00 
145 2 4 2.2559723595316457e+00 0.0000000000000000e+00 1.0000000000000000e+00 1.4000000000000000e+01 8.0000000000000000e+00 2.5000000000000000e+00 
165 2 4 2.2559723595316457e+00 0.0000000000000000e+00 1.0000000000000000e+00 1.6000000000000000e+01 8.0000000000000000e+00 2.5000000000000000e+00 
185 2 4 2.2559723595316457e+00 0.0000000000000000e+00 1.0000000000000000e+00 1.8000000000000000e+01 8.0000000000000000e+00 2.5000000000000000e+00 
6 2 4 2.2559723595316457e+00 -7.6476287206187973e-02 1.0000000000000000e+00 0.0000000000000000e+00 1.0000000000000000e+01 2.5000000000000000e+00 
7 2 4 2.2559723595316457e+00 -1.3245899078232714e-05 1.0000000000000000e+00 0.0000000000000000e+00 1.2000000000000000e+01 2.5000000000000000e+00 
26 2 4 2.2559723595316457e+00 1.4838972251457275e-10 1.0000000000000000e+00 2.0000000000000000e+00 1.0000000000000000e+01 2.5000000000000000e+00 
27 2 4 2.2559723595316457e+00 2.4245442356069274e-11 1.0000000000000000e+00 2.0000000000000000e+00 1.2000000000000000e+01 2.5000000000000000e+00 
46 2 4 2.2559723595316457e+00 0.0000000000000000e+00 1.0000000000000000e+00 4.0000000000000000e+00 1.0000000000000000e+01 2.5000000000000000e+00 
47 2 4 2.2559723595316457e+00 6.1448131343552024e-11 1.0000000000000000e+00 4.0000000000000000e+00 1.2000000000000000e+01 2.5000000000000000e+00 
66 2 4 2.2559723595316457e+00 0.0000000000000000e+00 1.0000000000000000e+00 6.0000000000000000e+00 1.0000000000000000e+01 2.5000000000000000e+00 
67 2 4 2.2559723595316457e+00 2.5809721216040194e-10 1.0000000000000000e+00 6.0000000000000000e+00 1.2000000000000000e+01 2.5000000000000000e+00 
86 2 4 2.2559723595316457e+00 5.9841160102856543e-11 1.0000000000000000e+00 8.0000000000000000e+00 1.0000000000000000e+01 2.5000000000000000e+00 
87 2 4 2.2559723595316457e+00 2.2318178184696017e-10 1.0000000000000000e+00 8.0000000000000000e+00 1.2000000000000000e+01 2.5000000000000000e+00 
106 2 4 2.2559723595316457e+00 0.0000000000000000e+00 1.0000000000000000e+00 1.0000000000000000e+01 1.0000000000000000e+01 2.5000000000000000e+00 
107 2 4 2.2559723595316457e+00 7.0671446484165351e-11 1.0000000000000000e+00 1.0000000000000000e+01 1.2000000000000000e+01 2.5000000000000000e+00 
126 2 4 2.2559723595316457e+00 1.2245146024180430e-10 1.0000000000000000e+00 1.2000000000000000e+01 1.0000000000000000e+01 2.5000000000000000e+00 
127 2 4 2.2559723595316457e+00 4.2546930242517849e-11 1.0000000000000000e+00 1.2000000000000000e+01 1.2000000000000000e+01 2.5000000000000000e+00 
146 2 4 2.2559723595316457e+00 0.0000000000000000e+00 1.0000000000000000e+00 1.4000000000000000e+01 1.0000000000000000e+01 2.5000000000000000e+00 
147 2 4 2.2559723595316457e+00 2.8871925077848888e-11 1.0000000000000000e+00 1.4000000000000000e+01 1.2000000000000000e+01 2.5000000000000000e+00 
166 2 4 2.2559723595316457e+00 0.0000000000000000e+00 1.0000000000000000e+00 1.6000000000000000e+01 1.0000000000000000e+01 2.5000000000000000e+00 
167 2 4 2.2559723595316457e+00 0.0000000000000000e+00 1.0000000000000000e+00 1.6000000000000000e+01 1.2000000000000000e+01 2.5000000000000000e+00 
186 2 4 2.2559723595316457e+00 1.0085494564774760e-10 1.0000000000000000e+00 1.8000000000000000e+01 1.0000000000000000e+01 2.5000000000000000e+00 
187 2 4 2.2559723595316457e+00 0.0000000000000000e+00 1.0000000000000000e+00 1.8000000000000000e+01 1.2000000000000000e+01 2.5000000000000000e+00 
8 2 4 2.2559723595316457e+00 5.2344153507020612e-11 1.0000000000000000e+00 0.0000000000000000e+00 1.4000000000000000e+01 2.5000000000000000e+00 
9 2 4 2.2559723595316457e+00 1.1844409803527220e-10 1.0000000000000000e+00 0.0000000000000000e+00 1.6000000000000000e+01 2.5000000000000000e+00 
28 2 4 2.2559723595316457e+00 1.0156160391761051e-10 1.0000000000000000e+00 2.0000000000000000e+00 1.4000000000000000e+01 2.5000000000000000e+00 
29 2 4 2.2559723595316457e+00 0.0000000000000000e+00 1.0000000000000000e+00 2.0000000000000000e+00 1.6000000000000000e+01 2.5000000000000000e+00 
48 2 4 2.2559723595316457e+00 1.3222507093355658e-10 1.0000000000000000e+00 4.0000000000000000e+00 1.4000000000000000e+01 2.5000000000000000e+00 
49 2 4 2.2559723595316457e+00 2.1244367489304581e-11 1.0000000000000000e+00 4.0000000000000000e+00 1.6000000000000000e+01 2.5000000000000000e+00 
68 2 4 2.2559723595316457e+00 0.0000000000000000e+00 1.0000000000000000e+00 6.0000000000000000e+00 1.4000000000000000e+01 2.5000000000000000e+00 
69 2 4 2.2559723595316457e+00 1.2026965832553221e-10 1.0000000000000000e+00 6.0000000000000000e+00 1.6000000000000000e+01 2.5000000000000000e+00 
88 2 4 2.2559723595316457e+00 0.0000000000000000e+00 1.0000000000000000e+00 8.0000000000000000e+00 1.4000000000000000e+01 2.5000000000000000e+00 
89 2 4 2.2559723595316457e+00 1.8561195091797650e-10 1.0000000000000000e+00 8.0000000000000000e+00 1.6000000000000000e+01 2.5000000000000000e+00 
108 2 4 2.2559723595316457e+00 9.4049218722771150e-12 1.0000000000000000e+00 1.0000000000000000e+01 1.4000000000000000e+01 2.5000000000000000e+00 
109 2 4 2.2559723595316457e+00 2.0216579179524034e-10 1.0000000000000000e+00 1.0000000000000000e+01 1.6000000000000000e+01 2.5000000000000000e+00 
128 2 4 2.2559723595316457e+00 0.0000000000000000e+00 1.0000000000000000e+00 1.2000000000000000e+01 1.4000000000000000e+01 2.5000000000000000e+00 
129 2 4 2.2559723595316457e+00 6.3180071576496423e-11 1.0000000000000000e+00 1.2000000000000000e+01 1.6000000000000000e+01 2.5000000000000000e+00 
148 2 4 2.2559723595316457e+00 1.6104757324208063e-10 1.0000000000000000e+00 1.4000000000000000e+01 1.4000000000000000e+01 2.5000000000000000e+00 
149 2 4 2.2559723595316457e+00 2.3308081233783283e-11 1.0000000000000000e+00 1.4000000000000000e+01 1.6000000000000000e+01 2.5000000000000000e+00 
168 2 4 2.2559723595316457e+00 0.0000000000000000e+00 1.0000000000000000e+00 1.6000000000000000e+01 1.4000000000000000e+01 2.5000000000000000e+00 
169 2 4 2.2559723595316457e+00 3.9575590187007760e-11 1.0000000000000000e+00 1.6000000000000000e+01 1.6000000000000000e+01 2.5000000000000000e+00 
188 2 4 2.2559723595316457e+00 0.0000000000000000e+00 1.0000000000000000e+00 1.8000000000000000e+01 1.4000000000000000e+01 2.5000000000000000e+00 
189 2 4 2.2559723595316457e+00 0.0000000000000000e+00 1.0000000000000000e+00 1.8000000000000000e+01 1.6000000000000000e+01 2.5000000000000000e+00 
10 2 4 2.2559723595316457e+00 0.0000000000000000e+00 1.0000000000000000e+00 0.0000000000000000e+00 1.8000000000000000e+01 2.5000000000000000e+00 
30 2 4 2.2559723595316457e+00 3.7997021213798740e-11 1.0000000000000000e+00 2.0000000000000000e+00 1.8000000000000000e+01 2.5000000000000000e+00 
50 2 4 2.2559723595316457e+00 6.8884797928172976e-11 1.0000000000000000e+00 4.0000000000000000e+00 1.8000000000000000e+01 2.5000000000000000e+00 
70 2 4 2.2559723595316457e+00 9.7553943290559129e-11 1.0000000000000000e+00 6.0000000000000000e+00 1.8000000000000000e+01 2.5000000000000000e+00 
90 2 4 2.2559723595316457e+00 0.0000000000000000e+00 1.0000000000000000e+00 8.0000000000000000e+00 1.8000000000000000e+01 2.5000000000000000e+00 
110 2 4 2.2559723595316457e+00 6.3517742075108070e-11 1.0000000000000000e+00 1.0000000000000000e+01 1.8000000000000000e+01 2.5000000000000000e+00 
130 2 4 2.2559723595316457e+00 3.2978711553905029e-11 1.0000000000000000e+00 1.2000000000000000e+01 1.8000000000000000e+01 2.5000000000000000e+00 
150 2 4 2.2559723595316457e+00 0.0000000000000000e+00 1.0000000000000000e+00 1.4000000000000000e+01 1.8000000000000000e+01 2.5000000000000000e+00 
170 2 4 2.2559723595316457e+00 1.1930399318601112e-10 1.0000000000000000e+00 1.6000000000000000e+01 1.8000000000000000e+01 2.5000000000000000e+00 
190 2 4 2.2559723595316457e+00 0.0000000000000000e+00 1.0000000000000000e+00 1.8000000000000000e+01 1.8000000000000000e+01 2.5000000000000000e+00 
452 54 2 1.0279999853134674e+00 2.9286504136429039e+03 1.0000000000000000e+00 1.8226922368079215e+00 2.2987271313423454e+00 6.9862949594746802e+00 
1152 754 2 1.0279999531418038e+00 -2.0784091626935178e+03 1.0000000000000000e+00 1.2640100341487579e+00 2.2288027195937556e+00 6.9332742977937292e+00 
1617 1219 2 1.0279999128885609e+00 5.0154374801587437e+03 1.0000000000000000e+00 3.4238121478177761e+00 3.1632676336538514e+00 6.9508418969294894e+00 
1267 869 2 1.0279999201894316e+00 -7.2489927601604961e+02 1.0000000000000000e+00 3.4216317703558961e+00 2.9093551474519153e+00 6.8720749123670499e+00 
777 379 2 1.0280003029888711e+00 5.0149259395426625e+03 1.0000000000000000e+00 3.5416020410625633e+00 2.6523660799902040e+00 6.9281362127561703e+00 
602 204 2 1.0279999370656892e+00 -9.3590746311858618e+02 1.0000000000000000e+00 3.4911858892381891e+00 2.9017438552380503e+00 6.8791247947610756e+00 
1778 1380 2 1.0279999193802534e+00 -9.3616647546709748e+02 1.0000000000000000e+00 3.9191416355132906e+00 3.1013414539680570e+00 6.9146885484442473e+00 
1934 1536 2 1.0279999856964905e+00 -4.2148995279206010e+03 1.0000000000000000e+00 5.3741838912578332e+00 1.2982177823243022e+00 7.8127037294212967e+00 
1939 1541 2 1.0279999920558360e+00 -2.3044068778453038e+03 1.0000000000000000e+00 5.2487452928905221e+00 1.0519811407707722e+00 8.6530123226171938e+00 
967 569 2 1.0279999922909031e+00 -6.9797742401032770e+02 1.0000000000000000e+00 5.7131684536066176e+00 9.7499404068134099e-01 8.6482842065668617e+00 
609 211 2 1.0279999947117298e+00 1.5710044645686321e+03 1.0000000000000000e+00 5.6136429922501554e+00 9.7307477275601995e-01 8.8279482562022675e+00 
1253 855 2 1.0280000573220442e+00 8.3920495133343084e+03 1.0000000000000000e+00 3.5780307954414861e+00 2.0238349664613824e+00 8.8970311711106937e+00 
1602 1204 2 1.0279999758282510e+00 -3.0517506066276695e+02 1.0000000000000000e+00 6.9010854284240741e+00 2.7125157203440815e+00 7.0456512396589446e+00 
1438 1040 2 1.0279999756080322e+00 -6.7077082301279722e+02 1.0000000000000000e+00 6.9655219323164665e+00 2.9369415116782913e+00 7.0886500266072314e+00 
934 536 2 1.0279999771366048e+00 -6.6912813225381842e+02 1.0000000000000000e+00 7.0430255412537051e+00 2.9200363810995631e+00 7.1407862110714513e+00 
762 364 2 1.0279999832769284e+00 -3.0677834297323523e+02 1.0000000000000000e+00 7.2229892087903131e+00 3.0699462487234701e+00 7.3337782636062112e+00 
1137 739 2 1.0279999842348462e+00 -1.7321948186140448e+03 1.0000000000000000e+00 7.2474123387030742e+00 2.8998680434953910e+00 7.3117805626961978e+00 
1305 907 2 1.0279999866987777e+00 -1.7325107242473578e+03 1.0000000000000000e+00 7.2973105176935285e+00 2.9497370440780206e+00 7.3751740628624649e+00 
1582 1184 2 1.0280000430739036e+00 -5.5822083954279624e+03 1.0000000000000000e+00 9.5558493790908461e+00 2.2865535684993148e+00 8.8505418037054433e+00 
742 344 2 1.0280000252814188e+00 -5.5811087020404066e+03 1.0000000000000000e+00 1.0026704565825032e+01 1.2131194799836404e+00 8.1035644262021886e+00 
918 520 2 1.0279999916179630e+00 -5.2890169669836623e+03 1.0000000000000000e+00 1.0912244634723354e+01 2.4630586488648030e+00 7.1913002651445632e+00 
776 378 2 1.0279999868445882e+00 8.8332871858130366e+03 1.0000000000000000e+00 1.1442962622937761e+01 2.4951151477716143e+00 6.9538596001107944e+00 
1761 1363 2 1.0279999867721115e+00 4.9623606810896690e+03 1.0000000000000000e+00 1.1271776561510842e+01 2.4624572101712072e+00 6.9526802392153861e+00 
1889 1491 2 1.0280000095940354e+00 3.0667661823877665e+03 1.0000000000000000e+00 1.1586339225445622e+01 2.7155176092059015e+00 7.8053779602478341e+00 
466 68 2 1.0280000161105418e+00 -3.1962030461484960e+03 1.0000000000000000e+00 1.1839244764199384e+01 2.4735602554242027e+00 6.9717416073042973e+00 
1930 1532 2 1.0280000290485634e+00 -2.7388999253827387e+03 1.0000000000000000e+00 1.2925668074228668e+01 1.5559813547122383e+00 7.3418245111855098e+00 
1883 1485 2 1.0280000041713440e+00 -3.4347131966691932e+03 1.0000000000000000e+00 1.2755362338012533e+01 9.7020400417850117e-01 6.8284651862661816e+00 
707 309 2 1.0280000041713433e+00 -3.4383494091166767e+03 1.0000000000000000e+00 1.2755362338012535e+01 9.7020400417848152e-01 6.8284651862661896e+00 
712 314 2 1.0280000303977026e+00 -2.7240822616706532e+03 1.0000000000000000e+00 1.0505496467368726e+01 6.7435047829954198e-01 8.5828760107319280e+00 
1422 1024 2 1.0279999905431751e+00 -5.2888437129713793e+03 1.0000000000000000e+00 1.1350796429802866e+01 5.6481201176579931e-03 7.0382407770715636e+00 
1413 1015 2 1.0279999558609589e+00 1.4309574276076617e+03 1.0000000000000000e+00 1.6419959808889242e+01 2.2341593081819524e+00 7.0853368669394827e+00 
909 511 2 1.0279999566994886e+00 1.4309511563495917e+03 1.0000000000000000e+00 1.6415175848192987e+01 2.2056101242215012e+00 7.0840323018172384e+00 
647 249 2 1.0279999707643201e+00 -2.9033353933861072e+03 1.0000000000000000e+00 1.6454490616736393e+01 9.3002448254052503e-02 8.1776809201566785e+00 
1729 1331 2 1.0280000909462961e+00 8.0323667162718093e+03 1.0000000000000000e+00 1.5781735186792474e+01 2.6399568367072432e+00 8.9039894402432651e+00 
1416 1018 2 1.0279999970279139e+00 1.4309857287721275e+03 1.0000000000000000e+00 1.8071613057892602e+01 2.1601089676775995e+00 7.0836536143626789e+00 
912 514 2 1.0279999981157242e+00 1.4309799635613256e+03 1.0000000000000000e+00 1.8080672816218357e+01 2.1407460508464209e+00 7.0816051586944431e+00 
518 120 2 1.0280000756698209e+00 -4.0405434691096393e+03 1.0000000000000000e+00 1.7899147087031018e+01 1.2619508820983814e+00 6.9374960589888062e+00 
2030 1632 2 1.0280000747559768e+00 -4.0400836307357390e+03 1.0000000000000000e+00 1.7891825885516010e+01 1.2551340484109323e+00 6.9361860013354404e+00 
519 121 2 1.0280000649485375e+00 -4.0405496401074520e+03 1.0000000000000000e+00 1.7804410081326989e+01 1.1858374572169488e+00 6.9210079388563246e+00 
2031 1633 2 1.0280000649485361e+00 -4.0401076419654132e+03 1.0000000000000000e+00 1.7804410081327610e+01 1.1858374572173684e+00 6.9210079388564258e+00 
1964 1566 2 1.0279999940938049e+00 2.9281832554281664e+03 1.0000000000000000e+00 1.2546475959333534e+00 3.4665788002921225e+00 6.9053439539625812e+00 
1320 922 2 1.0279999818054761e+00 -2.0776614164902721e+03 1.0000000000000000e+00 8.5543848076627726e-01 3.4628376427379526e+00 6.8849132297933471e+00 
1099 701 2 1.0280001576428317e+00 -7.2585024350272909e+02 1.0000000000000000e+00 4.7261834229078898e+00 3.4275039456238399e+00 6.9033286664565994e+00 
422 24 2 1.0279999947211673e+00 -4.2155389642885120e+03 1.0000000000000000e+00 5.3072599839824450e+00 4.8135283774480238e+00 8.0387088236121880e+00 
427 29 2 1.0280000049872944e+00 -2.3051165184329889e+03 1.0000000000000000e+00 5.2058480477049560e+00 5.0815499613096637e+00 8.8057905728764023e+00 
1471 1073 2 1.0280000091864963e+00 -6.9850369451523966e+02 1.0000000000000000e+00 5.6496289214652027e+00 5.1331516388548506e+00 8.8349891359447934e+00 
1785 1387 2 1.0280000100083388e+00 1.5704757477445853e+03 1.0000000000000000e+00 5.5628715045976724e+00 5.1430285550942809e+00 8.9865099525279959e+00 
1823 1425 2 1.0279999498123360e+00 -2.9033085551572999e+03 1.0000000000000000e+00 1.6435366604711984e+01 3.9832866436735617e+00 7.4369146490272913e+00 
1822 1424 2 1.0279999525287433e+00 -2.9033028288166111e+03 1.0000000000000000e+00 1.6497403252139954e+01 4.0423378523036035e+00 7.4070072779289244e+00 
643 245 2 1.0280000002923277e+00 -3.3284793308972698e+03 1.0000000000000000e+00 1.6128351639156843e+01 5.9982005839023103e+00 7.6376192649098114e+00 
642 244 2 1.0279999997991329e+00 -3.3284783821803153e+03 1.0000000000000000e+00 1.6582058373019596e+01 6.0082744742155292e+00 7.6350147366641687e+00 
486 88 2 1.0280000005367249e+00 -3.7853234695118394e+03 1.0000000000000000e+00 1.6340872928201108e+01 6.0627378923046988e+00 7.6467100012981142e+00 
487 89 2 1.0280000005066865e+00 -3.7853235332389845e+03 1.0000000000000000e+00 1.6362610118625170e+01 6.0632949223638155e+00 7.6465746853636949e+00 
1990 1592 2 1.0280000050502007e+00 -3.1044106000462821e+03 1.0000000000000000e+00 1.6342707663500846e+01 6.0930997547192165e+00 7.7944547905237140e+00 
1991 1593 2 1.0280000050350697e+00 -3.1044105973317533e+03 1.0000000000000000e+00 1.6352136196934847e+01 6.0934179074311032e+00 7.7944315310959880e+00 
654 256 2 1.0280000332913526e+00 -3.1079108743575816e+03 1.0000000000000000e+00 1.6333284333082542e+01 4.9779848667835660e+00 8.5322211837704280e+00 
655 257 2 1.0280000331035850e+00 -3.1079096447385928e+03 1.0000000000000000e+00 1.6352689027533405e+01 4.9796511710154174e+00 8.5334960649787277e+00 
1097 699 2 1.0279999969566944e+00 -2.6244775298897202e+03 1.0000000000000000e+00 4.7963282079325353e-01 1.9892271017186939e+01 6.9729794271919738e+00 
921 523 2 1.0279999947511982e+00 3.2103497581433066e+03 1.0000000000000000e+00 4.8623174917689643e-01 1.9296741845518589e+01 6.9649493423947693e+00 
875 477 2 1.0279999992812781e+00 2.5214229744886828e+02 1.0000000000000000e+00 1.7449444387114608e+00 1.8074759576436474e+01 7.9956595470025018e+00 
948 550 2 1.0280000001122305e+00 3.1843604226055500e+03 1.0000000000000000e+00 1.6358728987572337e+00 1.7945873548236481e+01 8.1804618340787254e+00 
1032 634 2 1.0280000003383090e+00 3.1843654665441686e+03 1.0000000000000000e+00 1.6356187212565934e+00 1.7948342276153003e+01 8.3888343508586942e+00 
767 369 2 1.0279999996517610e+00 2.5210640699784184e+02 1.0000000000000000e+00 1.7448012201322933e+00 1.8085628156495442e+01 8.5790640319566407e+00 
1104 706 2 1.0279999970343714e+00 -2.9750711245772163e+03 1.0000000000000000e+00 2.0985270766665670e-01 1.8188675357184916e+01 7.0961120140390870e+00 
774 376 2 1.0280000471733766e+00 4.3617923208563610e+02 1.0000000000000000e+00 3.7842370400979193e+00 1.9711429150418663e+01 6.9852113213661813e+00 
741 343 2 1.0279999968807645e+00 1.2723585876733764e+03 1.0000000000000000e+00 4.9595283816396147e+00 1.9904628309138417e+01 7.2887227992912660e+00 
441 43 2 1.0279999964955182e+00 4.1985932823056555e+02 1.0000000000000000e+00 4.3363173821460812e+00 1.8973297816200162e+01 7.4562902574285888e+00 
1129 731 2 1.0279999948794549e+00 -1.5302634363955391e+02 1.0000000000000000e+00 3.9070782001026250e+00 1.8618127515642573e+01 7.8312908533375420e+00 
1181 783 2 1.0279999953075667e+00 -1.5303474808826104e+02 1.0000000000000000e+00 3.9006258498216688e+00 1.8621000275786908e+01 8.7312000177556932e+00 
1085 687 2 1.0280002716485286e+00 8.3930030416484096e+03 1.0000000000000000e+00 2.8868244377028049e+00 3.0564230965612218e+00 9.5101835393864942e+00 
1973 1575 2 1.0280000092886477e+00 1.5848989280685996e+03 1.0000000000000000e+00 1.9079286186906386e+00 2.4926193955066691e+00 1.0158910626596318e+01 
704 306 2 1.0279999746414192e+00 1.7551014663234605e+02 1.0000000000000000e+00 1.4676677327259626e+00 2.1859320426912401e+00 1.0975539906904304e+01 
1276 878 2 1.0279999619877400e+00 -8.3599375467907510e+02 1.0000000000000000e+00 2.5751530404477085e+00 1.6280008334928358e+00 1.0765772603922132e+01 
1741 1343 2 1.0280000595322998e+00 4.3940792877032964e+03 1.0000000000000000e+00 7.0044318435846697e-01 2.8277825030770631e+00 1.1475324195169826e+01 
583 185 2 1.0279999777940780e+00 -3.9118110353250995e+03 1.0000000000000000e+00 4.6102360635183848e+00 1.6505123839358471e+00 1.0491640784827991e+01 
1436 1038 2 1.0279999888350764e+00 2.3438348613645662e+03 1.0000000000000000e+00 4.7292427062363220e+00 1.6004832039810770e+00 1.0351901035719530e+01 
600 202 2 1.0280000363448714e+00 7.7013548240872217e+02 1.0000000000000000e+00 6.2150121921519421e+00 1.5706201972356668e+00 9.7246979123443023e+00 
429 31 2 1.0280000563606058e+00 -2.9054318142197167e+03 1.0000000000000000e+00 6.6152695188751389e+00 1.3592609660302879e+00 9.4249715295022618e+00 
954 556 2 1.0280000442327379e+00 5.4364481208339339e+02 1.0000000000000000e+00 3.7854296168358057e+00 1.1616056598800817e+00 1.1769114523725428e+01 
1957 1559 2 1.0280000181664193e+00 -6.4377565417162577e+02 1.0000000000000000e+00 3.3595945312202855e+00 8.8426579299671138e-01 1.2075888423525841e+01 
1590 1192 2 1.0280000203898418e+00 -7.1158304761546733e+03 1.0000000000000000e+00 3.4049588907795250e+00 8.9105040682763192e-01 1.2086033426908019e+01 
939 541 2 1.0280000546000170e+00 -1.1465070923750261e+03 1.0000000000000000e+00 6.7726409351365735e+00 1.2565272925062305e+00 9.1868855190006844e+00 
1069 671 2 1.0280000515052901e+00 1.5804173109127146e+03 1.0000000000000000e+00 9.0121290587280676e+00 1.7839741989556916e+00 1.0249175294299675e+01 
2053 1655 2 1.0280000522215542e+00 -1.5542117975707529e+03 1.0000000000000000e+00 9.0191201668515451e+00 1.7688969337327158e+00 1.0145583142900291e+01 
541 143 2 1.0280000454524947e+00 -1.5537319032781070e+03 1.0000000000000000e+00 9.0394794667066005e+00 1.6576296249701539e+00 1.0234311994359230e+01 
1573 1175 2 1.0280000499123412e+00 1.5812767660282709e+03 1.0000000000000000e+00 9.0321435681620983e+00 1.5834174242183832e+00 1.0575965569720873e+01 
1888 1490 2 1.0279999986582267e+00 -2.7250800616455203e+03 1.0000000000000000e+00 1.0335995719731692e+01 2.6525364370514155e+00 9.1080232191168236e+00 
1791 1393 2 1.0279999913278459e+00 -2.5883171526530814e+03 1.0000000000000000e+00 1.0366975777754888e+01 3.1685168066244489e+00 1.1362409190973690e+01 
727 329 2 1.0279999875227559e+00 -5.1366789278728220e+03 1.0000000000000000e+00 1.0572119869520245e+01 3.1124282167425119e+00 1.1220139451413562e+01 
923 525 2 1.0279999983875874e+00 -4.1177760872141761e+02 1.0000000000000000e+00 1.1365692879187636e+01 2.7151415709871358e+00 1.0248675904994341e+01 
1427 1029 2 1.0280000130541509e+00 -4.1131163494693959e+02 1.0000000000000000e+00 1.1488340556503232e+01 1.0332088512253177e+00 1.0411137652083269e+01 
1903 1505 2 1.0279999921148189e+00 -5.1353133841042845e+03 1.0000000000000000e+00 1.1145635018895636e+01 8.4073929189509711e-01 1.1145257753091141e+01 
615 217 2 1.0279999926714916e+00 -2.5867499452689030e+03 1.0000000000000000e+00 1.1059484826182752e+01 8.2219140877052377e-01 1.1186206859610826e+01 
2023 1625 2 1.0280000097498345e+00 -2.9622709991795277e+03 1.0000000000000000e+00 1.3447198562235094e+01 2.5318539205237598e+00 1.0164105913788429e+01 
511 113 2 1.0280000545199597e+00 -2.9624113574828284e+03 1.0000000000000000e+00 1.3495067185193850e+01 1.6116388069933816e+00 1.0044233161063538e+01 
711 313 2 1.0280000566264726e+00 -3.6283640520547360e+03 1.0000000000000000e+00 1.4166870988937896e+01 2.3094038341826479e+00 1.0029595396923799e+01 
1887 1489 2 1.0280001047370759e+00 -3.6283057010327502e+03 1.0000000000000000e+00 1.4205111630678863e+01 2.2534704707123292e+00 9.9781051902871027e+00 
1947 1549 2 1.0280000358818377e+00 -1.2088468609793738e+03 1.0000000000000000e+00 1.4340244173239487e+01 2.2096195327107409e+00 1.0130984708528034e+01 
435 37 2 1.0280000403789633e+00 -1.2089237009202304e+03 1.0000000000000000e+00 1.4353081573574837e+01 2.1868991260390787e+00 1.0125798113661986e+01 