LAMMPS data file via write_data, version 30 Jul 2016, timestep = 50400000

2080 atoms
8 atom types

0.0000000000000000e+00 4.0000000000000000e+01 xlo xhi
0.0000000000000000e+00 4.0000000000000000e+01 ylo yhi
0.0000000000000000e+00 1.0000000000000000e+02 zlo zhi

Masses

1 3.896
2 5.36
3 20.064
4 8.378
5 8.378
6 8.378
7 8.378
8 8.378

Atoms # meso-molecular

1 2 4 2.2559723595316457e+00 5.1722586139899024e-02 1.0000000000000000e+00 0.0000000000000000e+00 0.0000000000000000e+00 2.5000000000000000e+00 
2 2 4 2.2559723595316457e+00 -7.9620140575638078e-03 1.0000000000000000e+00 0.0000000000000000e+00 2.0000000000000000e+00 2.5000000000000000e+00 
21 2 4 2.2559723595316457e+00 1.7168271845036650e-06 1.0000000000000000e+00 2.0000000000000000e+00 0.0000000000000000e+00 2.5000000000000000e+00 
22 2 4 2.2559723595316457e+00 5.4098413650906235e-08 1.0000000000000000e+00 2.0000000000000000e+00 2.0000000000000000e+00 2.5000000000000000e+00 
41 2 4 2.2559723595316457e+00 1.9748557040736370e-08 1.0000000000000000e+00 4.0000000000000000e+00 0.0000000000000000e+00 2.5000000000000000e+00 
42 2 4 2.2559723595316465e+00 4.5562488077897461e-07 1.0000000000000000e+00 4.0000000000000000e+00 2.0000000000000000e+00 2.5000000000000000e+00 
61 2 4 2.2559723595316457e+00 1.2102433915225704e-05 1.0000000000000000e+00 6.0000000000000000e+00 0.0000000000000000e+00 2.5000000000000000e+00 
62 2 4 2.2559723595316457e+00 0.0000000000000000e+00 1.0000000000000000e+00 6.0000000000000000e+00 2.0000000000000000e+00 2.5000000000000000e+00 
81 2 4 2.2559723595316457e+00 -4.6597174784767020e-07 1.0000000000000000e+00 8.0000000000000000e+00 0.0000000000000000e+00 2.5000000000000000e+00 
82 2 4 2.2559723595316457e+00 2.2730578169816825e-10 1.0000000000000000e+00 8.0000000000000000e+00 2.0000000000000000e+00 2.5000000000000000e+00 
101 2 4 2.2559723595316457e+00 -5.7302060886903593e-05 1.0000000000000000e+00 1.0000000000000000e+01 0.0000000000000000e+00 2.5000000000000000e+00 
102 2 4 2.2559723595316457e+00 0.0000000000000000e+00 1.0000000000000000e+00 1.0000000000000000e+01 2.0000000000000000e+00 2.5000000000000000e+00 
121 2 4 2.2559723595316457e+00 -2.3014013356980061e-04 1.0000000000000000e+00 1.2000000000000000e+01 0.0000000000000000e+00 2.5000000000000000e+00 
122 2 4 2.2559723595316457e+00 8.7546185414357815e-08 1.0000000000000000e+00 1.2000000000000000e+01 2.0000000000000000e+00 2.5000000000000000e+00 
141 2 4 2.2559723595316457e+00 9.1119573547577507e-05 1.0000000000000000e+00 1.4000000000000000e+01 0.0000000000000000e+00 2.5000000000000000e+00 
142 2 4 2.2559723595316457e+00 1.2477983447362058e-07 1.0000000000000000e+00 1.4000000000000000e+01 2.0000000000000000e+00 2.5000000000000000e+00 
161 2 4 2.2559723595316457e+00 1.4116712379849674e-03 1.0000000000000000e+00 1.6000000000000000e+01 0.0000000000000000e+00 2.5000000000000000e+00 
162 2 4 2.2559723595316457e+00 4.1459931899436351e-07 1.0000000000000000e+00 1.6000000000000000e+01 2.0000000000000000e+00 2.5000000000000000e+00 
181 2 4 2.2559723595316457e+00 -2.4483862305849395e-04 1.0000000000000000e+00 1.8000000000000000e+01 0.0000000000000000e+00 2.5000000000000000e+00 
182 2 4 2.2559723595316457e+00 4.2084893902563310e-07 1.0000000000000000e+00 1.8000000000000000e+01 2.0000000000000000e+00 2.5000000000000000e+00 
3 2 4 2.2559723595316465e+00 3.2229032898296209e-03 1.0000000000000000e+00 0.0000000000000000e+00 4.0000000000000000e+00 2.5000000000000000e+00 
4 2 4 2.2559723595316457e+00 9.2515524912559990e-06 1.0000000000000000e+00 0.0000000000000000e+00 6.0000000000000000e+00 2.5000000000000000e+00 
23 2 4 2.2559723595316457e+00 4.7995165888677173e-08 1.0000000000000000e+00 2.0000000000000000e+00 4.0000000000000000e+00 2.5000000000000000e+00 
24 2 4 2.2559723595316457e+00 0.0000000000000000e+00 1.0000000000000000e+00 2.0000000000000000e+00 6.0000000000000000e+00 2.5000000000000000e+00 
43 2 4 2.2559723595316465e+00 3.7588857364793608e-07 1.0000000000000000e+00 4.0000000000000000e+00 4.0000000000000000e+00 2.5000000000000000e+00 
44 2 4 2.2559723595316457e+00 9.8923501692304520e-12 1.0000000000000000e+00 4.0000000000000000e+00 6.0000000000000000e+00 2.5000000000000000e+00 
63 2 4 2.2559723595316457e+00 3.4304920277156813e-11 1.0000000000000000e+00 6.0000000000000000e+00 4.0000000000000000e+00 2.5000000000000000e+00 
64 2 4 2.2559723595316457e+00 1.7423479805495758e-11 1.0000000000000000e+00 6.0000000000000000e+00 6.0000000000000000e+00 2.5000000000000000e+00 
83 2 4 2.2559723595316457e+00 7.1366845476415852e-11 1.0000000000000000e+00 8.0000000000000000e+00 4.0000000000000000e+00 2.5000000000000000e+00 
84 2 4 2.2559723595316457e+00 0.0000000000000000e+00 1.0000000000000000e+00 8.0000000000000000e+00 6.0000000000000000e+00 2.5000000000000000e+00 
103 2 4 2.2559723595316457e+00 8.7880371501356003e-11 1.0000000000000000e+00 1.0000000000000000e+01 4.0000000000000000e+00 2.5000000000000000e+00 
104 2 4 2.2559723595316457e+00 8.1941815313194850e-11 1.0000000000000000e+00 1.0000000000000000e+01 6.0000000000000000e+00 2.5000000000000000e+00 
123 2 4 2.2559723595316457e+00 0.0000000000000000e+00 1.0000000000000000e+00 1.2000000000000000e+01 4.0000000000000000e+00 2.5000000000000000e+00 
124 2 4 2.2559723595316457e+00 0.0000000000000000e+00 1.0000000000000000e+00 1.2000000000000000e+01 6.0000000000000000e+00 2.5000000000000000e+00 
143 2 4 2.2559723595316457e+00 0.0000000000000000e+00 1.0000000000000000e+00 1.4000000000000000e+01 4.0000000000000000e+00 2.5000000000000000e+00 
144 2 4 2.2559723595316457e+00 0.0000000000000000e+00 1.0000000000000000e+00 1.4000000000000000e+01 6.0000000000000000e+00 2.5000000000000000e+00 
163 2 4 2.2559723595316457e+00 0.0000000000000000e+00 1.0000000000000000e+00 1.6000000000000000e+01 4.0000000000000000e+00 2.5000000000000000e+00 
164 2 4 2.2559723595316457e+00 1.0485587142184013e-10 1.0000000000000000e+00 1.6000000000000000e+01 6.0000000000000000e+00 2.5000000000000000e+00 
183 2 4 2.2559723595316457e+00 1.5932385355774870e-10 1.0000000000000000e+00 1.8000000000000000e+01 4.0000000000000000e+00 2.5000000000000000e+00 
184 2 4 2.2559723595316457e+00 0.0000000000000000e+00 1.0000000000000000e+00 1.8000000000000000e+01 6.0000000000000000e+00 2.5000000000000000e+00 
5 2 4 2.2559723595316457e+00 -5.0520469953219810e-05 1.0000000000000000e+00 0.0000000000000000e+00 8.0000000000000000e+00 2.5000000000000000e+00 
25 2 4 2.2559723595316457e+00 6.6254088072650108e-11 1.0000000000000000e+00 2.0000000000000000e+00 8.0000000000000000e+00 2.5000000000000000e+00 
45 2 4 2.2559723595316457e+00 3.4273836817091297e-10 1.0000000000000000e+00 4.0000000000000000e+00 8.0000000000000000e+00 2.5000000000000000e+00 
65 2 4 2.2559723595316457e+00 1.4084341864600086e-10 1.0000000000000000e+00 6.0000000000000000e+00 8.0000000000000000e+00 2.5000000000000000e+00 
85 2 4 2.2559723595316457e+00 5.5580033795320682e-11 1.0000000000000000e+00 8.0000000000000000e+00 8.0000000000000000e+00 2.5000000000000000e+00 
105 2 4 2.2559723595316457e+00 6.7814958286035801e-11 1.0000000000000000e+00 1.0000000000000000e+01 8.0000000000000000e+00 2.5000000000000000e+00 
125 2 4 2.2559723595316457e+00 5.1334219704353098e-11 1.0000000000000000e+00 1.2000000000000000e+01 8.0000000000000000e+00 2.5000000000000000e+00 
145 2 4 2.2559723595316457e+00 0.0000000000000000e+00 1.0000000000000000e+00 1.4000000000000000e+01 8.0000000000000000e+00 2.5000000000000000e+00 
165 2 4 2.2559723595316457e+00 0.0000000000000000e+00 1.0000000000000000e+00 1.6000000000000000e+01 8.0000000000000000e+00 2.5000000000000000e+00 
185 2 4 2.2559723595316457e+00 0.0000000000000000e+00 1.0000000000000000e+00 1.8000000000000000e+01 8.0000000000000000e+00 2.5000000000000000e+00 
6 2 4 2.2559723595316457e+00 -7.6476287206187973e-02 1.0000000000000000e+00 0.0000000000000000e+00 1.0000000000000000e+01 2.5000000000000000e+00 
7 2 4 2.2559723595316457e+00 -1.3245899078232714e-05 1.0000000000000000e+00 0.0000000000000000e+00 1.2000000000000000e+01 2.5000000000000000e+00 
26 2 4 2.2559723595316457e+00 1.4838972251457275e-10 1.0000000000000000e+00 2.0000000000000000e+00 1.0000000000000000e+01 2.5000000000000000e+00 
27 2 4 2.2559723595316457e+00 2.4245442356069274e-11 1.0000000000000000e+00 2.0000000000000000e+00 1.2000000000000000e+01 2.5000000000000000e+00 
46 2 4 2.2559723595316457e+00 0.0000000000000000e+00 1.0000000000000000e+00 4.0000000000000000e+00 1.0000000000000000e+01 2.5000000000000000e+00 
47 2 4 2.2559723595316457e+00 6.1448131343552024e-11 1.0000000000000000e+00 4.0000000000000000e+00 1.2000000000000000e+01 2.5000000000000000e+00 
66 2 4 2.2559723595316457e+00 0.0000000000000000e+00 1.0000000000000000e+00 6.0000000000000000e+00 1.0000000000000000e+01 2.5000000000000000e+00 
67 2 4 2.2559723595316457e+00 2.5809721216040194e-10 1.0000000000000000e+00 6.0000000000000000e+00 1.2000000000000000e+01 2.5000000000000000e+00 
86 2 4 2.2559723595316457e+00 5.9841160102856543e-11 1.0000000000000000e+00 8.0000000000000000e+00 1.0000000000000000e+01 2.5000000000000000e+00 
87 2 4 2.2559723595316457e+00 2.2318178184696017e-10 1.0000000000000000e+00 8.0000000000000000e+00 1.2000000000000000e+01 2.5000000000000000e+00 
106 2 4 2.2559723595316457e+00 0.0000000000000000e+00 1.0000000000000000e+00 1.0000000000000000e+01 1.0000000000000000e+01 2.5000000000000000e+00 
107 2 4 2.2559723595316457e+00 7.0671446484165351e-11 1.0000000000000000e+00 1.0000000000000000e+01 1.2000000000000000e+01 2.5000000000000000e+00 
126 2 4 2.2559723595316457e+00 1.2245146024180430e-10 1.0000000000000000e+00 1.2000000000000000e+01 1.0000000000000000e+01 2.5000000000000000e+00 
127 2 4 2.2559723595316457e+00 4.2546930242517849e-11 1.0000000000000000e+00 1.2000000000000000e+01 1.2000000000000000e+01 2.5000000000000000e+00 
146 2 4 2.2559723595316457e+00 0.0000000000000000e+00 1.0000000000000000e+00 1.4000000000000000e+01 1.0000000000000000e+01 2.5000000000000000e+00 
147 2 4 2.2559723595316457e+00 2.8871925077848888e-11 1.0000000000000000e+00 1.4000000000000000e+01 1.2000000000000000e+01 2.5000000000000000e+00 
166 2 4 2.2559723595316457e+00 0.0000000000000000e+00 1.0000000000000000e+00 1.6000000000000000e+01 1.0000000000000000e+01 2.5000000000000000e+00 
167 2 4 2.2559723595316457e+00 0.0000000000000000e+00 1.0000000000000000e+00 1.6000000000000000e+01 1.2000000000000000e+01 2.5000000000000000e+00 
186 2 4 2.2559723595316457e+00 1.0085494564774760e-10 1.0000000000000000e+00 1.8000000000000000e+01 1.0000000000000000e+01 2.5000000000000000e+00 
187 2 4 2.2559723595316457e+00 0.0000000000000000e+00 1.0000000000000000e+00 1.8000000000000000e+01 1.2000000000000000e+01 2.5000000000000000e+00 
8 2 4 2.2559723595316457e+00 5.2344153507020612e-11 1.0000000000000000e+00 0.0000000000000000e+00 1.4000000000000000e+01 2.5000000000000000e+00 
9 2 4 2.2559723595316457e+00 1.1844409803527220e-10 1.0000000000000000e+00 0.0000000000000000e+00 1.6000000000000000e+01 2.5000000000000000e+00 
28 2 4 2.2559723595316457e+00 1.0156160391761051e-10 1.0000000000000000e+00 2.0000000000000000e+00 1.4000000000000000e+01 2.5000000000000000e+00 
29 2 4 2.2559723595316457e+00 0.0000000000000000e+00 1.0000000000000000e+00 2.0000000000000000e+00 1.6000000000000000e+01 2.5000000000000000e+00 
48 2 4 2.2559723595316457e+00 1.3222507093355658e-10 1.0000000000000000e+00 4.0000000000000000e+00 1.4000000000000000e+01 2.5000000000000000e+00 
49 2 4 2.2559723595316457e+00 2.1244367489304581e-11 1.0000000000000000e+00 4.0000000000000000e+00 1.6000000000000000e+01 2.5000000000000000e+00 
68 2 4 2.2559723595316457e+00 0.0000000000000000e+00 1.0000000000000000e+00 6.0000000000000000e+00 1.4000000000000000e+01 2.5000000000000000e+00 
69 2 4 2.2559723595316457e+00 1.2026965832553221e-10 1.0000000000000000e+00 6.0000000000000000e+00 1.6000000000000000e+01 2.5000000000000000e+00 
88 2 4 2.2559723595316457e+00 0.0000000000000000e+00 1.0000000000000000e+00 8.0000000000000000e+00 1.4000000000000000e+01 2.5000000000000000e+00 
89 2 4 2.2559723595316457e+00 1.8561195091797650e-10 1.0000000000000000e+00 8.0000000000000000e+00 1.6000000000000000e+01 2.5000000000000000e+00 
108 2 4 2.2559723595316457e+00 9.4049218722771150e-12 1.0000000000000000e+00 1.0000000000000000e+01 1.4000000000000000e+01 2.5000000000000000e+00 
109 2 4 2.2559723595316457e+00 2.0216579179524034e-10 1.0000000000000000e+00 1.0000000000000000e+01 1.6000000000000000e+01 2.5000000000000000e+00 
128 2 4 2.2559723595316457e+00 0.0000000000000000e+00 1.0000000000000000e+00 1.2000000000000000e+01 1.4000000000000000e+01 2.5000000000000000e+00 
129 2 4 2.2559723595316457e+00 6.3180071576496423e-11 1.0000000000000000e+00 1.2000000000000000e+01 1.6000000000000000e+01 2.5000000000000000e+00 
148 2 4 2.2559723595316457e+00 1.6104757324208063e-10 1.0000000000000000e+00 1.4000000000000000e+01 1.4000000000000000e+01 2.5000000000000000e+00 
149 2 4 2.2559723595316457e+00 2.3308081233783283e-11 1.0000000000000000e+00 1.4000000000000000e+01 1.6000000000000000e+01 2.5000000000000000e+00 
168 2 4 2.2559723595316457e+00 0.0000000000000000e+00 1.0000000000000000e+00 1.6000000000000000e+01 1.4000000000000000e+01 2.5000000000000000e+00 
169 2 4 2.2559723595316457e+00 3.9575590187007760e-11 1.0000000000000000e+00 1.6000000000000000e+01 1.6000000000000000e+01 2.5000000000000000e+00 
188 2 4 2.2559723595316457e+00 0.0000000000000000e+00 1.0000000000000000e+00 1.8000000000000000e+01 1.4000000000000000e+01 2.5000000000000000e+00 
189 2 4 2.2559723595316457e+00 0.0000000000000000e+00 1.0000000000000000e+00 1.8000000000000000e+01 1.6000000000000000e+01 2.5000000000000000e+00 
10 2 4 2.2559723595316457e+00 0.0000000000000000e+00 1.0000000000000000e+00 0.0000000000000000e+00 1.8000000000000000e+01 2.5000000000000000e+00 
30 2 4 2.2559723595316457e+00 3.7997021213798740e-11 1.0000000000000000e+00 2.0000000000000000e+00 1.8000000000000000e+01 2.5000000000000000e+00 
50 2 4 2.2559723595316457e+00 6.8884797928172976e-11 1.0000000000000000e+00 4.0000000000000000e+00 1.8000000000000000e+01 2.5000000000000000e+00 
70 2 4 2.2559723595316457e+00 9.7553943290559129e-11 1.0000000000000000e+00 6.0000000000000000e+00 1.8000000000000000e+01 2.5000000000000000e+00 
90 2 4 2.2559723595316457e+00 0.0000000000000000e+00 1.0000000000000000e+00 8.0000000000000000e+00 1.8000000000000000e+01 2.5000000000000000e+00 
110 2 4 2.2559723595316457e+00 6.3517742075108070e-11 1.0000000000000000e+00 1.0000000000000000e+01 1.8000000000000000e+01 2.5000000000000000e+00 
130 2 4 2.2559723595316457e+00 3.2978711553905029e-11 1.0000000000000000e+00 1.2000000000000000e+01 1.8000000000000000e+01 2.5000000000000000e+00 
150 2 4 2.2559723595316457e+00 0.0000000000000000e+00 1.0000000000000000e+00 1.4000000000000000e+01 1.8000000000000000e+01 2.5000000000000000e+00 
170 2 4 2.2559723595316457e+00 1.1930399318601112e-10 1.0000000000000000e+00 1.6000000000000000e+01 1.8000000000000000e+01 2.5000000000000000e+00 
190 2 4 2.2559723595316457e+00 0.0000000000000000e+00 1.0000000000000000e+00 1.8000000000000000e+01 1.8000000000000000e+01 2.5000000000000000e+00 
452 54 2 1.0279999862767430e+00 2.9286504172808827e+03 1.0000000000000000e+00 1.8239646404170082e+00 2.3013381757115652e+00 6.9861674827337783e+00 
1152 754 2 1.0279999546427911e+00 -2.0784091590555390e+03 1.0000000000000000e+00 1.2656320118934341e+00 2.2320293062661496e+00 6.9333739858541019e+00 
1617 1219 2 1.0279999116825966e+00 5.0154374830691268e+03 1.0000000000000000e+00 3.4260317121820854e+00 3.1661993666099648e+00 6.9498165678430892e+00 
1267 869 2 1.0279999187680100e+00 -7.2489927301471710e+02 1.0000000000000000e+00 3.4234175655561376e+00 2.9138750473006714e+00 6.8712524124250036e+00 
777 379 2 1.0280003017767463e+00 5.0149259453634286e+03 1.0000000000000000e+00 3.5406038560336959e+00 2.6520286487436855e+00 6.9280821110012178e+00 
602 204 2 1.0279999417501695e+00 -9.3590746004522225e+02 1.0000000000000000e+00 3.4929118849685126e+00 2.9065338156934089e+00 6.8783127322890056e+00 
1778 1380 2 1.0279999191054952e+00 -9.3616647246576497e+02 1.0000000000000000e+00 3.9221252149851575e+00 3.1052323012828520e+00 6.9142830991629127e+00 
1934 1536 2 1.0279999858732849e+00 -4.2148995264654095e+03 1.0000000000000000e+00 5.3803513899808113e+00 1.3011886319675929e+00 7.8048766021161704e+00 
1939 1541 2 1.0279999923193455e+00 -2.3044068763901123e+03 1.0000000000000000e+00 5.2540411705303729e+00 1.0535005539636364e+00 8.6437009503484816e+00 
967 569 2 1.0279999925263965e+00 -6.9797742261138899e+02 1.0000000000000000e+00 5.7177494059252369e+00 9.7692241871587548e-01 8.6384338491398189e+00 
609 211 2 1.0279999949788903e+00 1.5710044659118619e+03 1.0000000000000000e+00 5.6181826404269417e+00 9.7460680021803614e-01 8.8180376222171084e+00 
1253 855 2 1.0280000563398077e+00 8.3920495176998829e+03 1.0000000000000000e+00 3.5795103113492561e+00 2.0229362613255093e+00 8.8889038824093003e+00 
1602 1204 2 1.0279999759895422e+00 -3.0517505945140408e+02 1.0000000000000000e+00 6.9062762673237730e+00 2.7182546870844830e+00 7.0396133807643650e+00 
1438 1040 2 1.0279999757960749e+00 -6.7077082183045411e+02 1.0000000000000000e+00 6.9705443407276144e+00 2.9422135749109035e+00 7.0825667682306106e+00 
934 536 2 1.0279999772919424e+00 -6.6912813098052584e+02 1.0000000000000000e+00 7.0477989069126536e+00 2.9253933698114207e+00 7.1342838455448989e+00 
762 364 2 1.0279999833506976e+00 -3.0677834160899317e+02 1.0000000000000000e+00 7.2273618230974641e+00 3.0752119840269292e+00 7.3261552850096923e+00 
1137 739 2 1.0279999842378866e+00 -1.7321948171588533e+03 1.0000000000000000e+00 7.2517009576459666e+00 2.9054314024231953e+00 7.3039775459029554e+00 
1305 907 2 1.0279999866657539e+00 -1.7325107227921662e+03 1.0000000000000000e+00 7.3015442379975619e+00 2.9552891109468464e+00 7.3670349719920640e+00 
1582 1184 2 1.0280000425264224e+00 -5.5822083932451751e+03 1.0000000000000000e+00 9.5574327629884852e+00 2.2943250720151749e+00 8.8377594560976007e+00 
742 344 2 1.0280000248331547e+00 -5.5811086991300235e+03 1.0000000000000000e+00 1.0027945930362904e+01 1.2156905505556486e+00 8.0927488506380083e+00 
918 520 2 1.0279999916094433e+00 -5.2890169648008750e+03 1.0000000000000000e+00 1.0915456472497512e+01 2.4678732087716138e+00 7.1839517494279361e+00 
776 378 2 1.0279999868864129e+00 8.8332871872682281e+03 1.0000000000000000e+00 1.1445870379831904e+01 2.4994045796357884e+00 6.9478439148870077e+00 
1761 1363 2 1.0279999868004035e+00 4.9623606832724563e+03 1.0000000000000000e+00 1.1274909168174673e+01 2.4667695989951577e+00 6.9465430863074706e+00 
1889 1491 2 1.0280000094975672e+00 3.0667661849343517e+03 1.0000000000000000e+00 1.1588780113907365e+01 2.7222427608653037e+00 7.7970530594665508e+00 
466 68 2 1.0280000160516700e+00 -3.1962030406915278e+03 1.0000000000000000e+00 1.1842054503034998e+01 2.4807841795801857e+00 6.9710711770710354e+00 
1930 1532 2 1.0280000286998714e+00 -2.7388999210171642e+03 1.0000000000000000e+00 1.2930465517258863e+01 1.5603288119004923e+00 7.3338226070828583e+00 
1883 1485 2 1.0280000049966969e+00 -3.4347131937588101e+03 1.0000000000000000e+00 1.2759637473714694e+01 9.7432876976229821e-01 6.8267839521564104e+00 
707 309 2 1.0280000049966982e+00 -3.4383494062062937e+03 1.0000000000000000e+00 1.2759637473714685e+01 9.7432876976224536e-01 6.8267839521564131e+00 
712 314 2 1.0280000302445043e+00 -2.7240822583964723e+03 1.0000000000000000e+00 1.0507384652141603e+01 6.7420348935186936e-01 8.5742514874884481e+00 
1422 1024 2 1.0279999903612127e+00 -5.2888437107885920e+03 1.0000000000000000e+00 1.1354194803732467e+01 8.8304718282676570e-03 7.0342695885691944e+00 
1413 1015 2 1.0279999563158071e+00 1.4309574314855713e+03 1.0000000000000000e+00 1.6418995254853520e+01 2.2366001876828014e+00 7.0799035771988699e+00 
909 511 2 1.0279999571525100e+00 1.4309511602307809e+03 1.0000000000000000e+00 1.6414172389177459e+01 2.2080543387107046e+00 7.0786179708445136e+00 
647 249 2 1.0279999710179952e+00 -2.9033353904757241e+03 1.0000000000000000e+00 1.6452423618492496e+01 9.0228989296925188e-02 8.1730600380575673e+00 
1729 1331 2 1.0280000884521556e+00 8.0323667213542158e+03 1.0000000000000000e+00 1.5779165976783077e+01 2.6459818572748954e+00 8.8921716362881220e+00 
1416 1018 2 1.0279999964918500e+00 1.4309857322282073e+03 1.0000000000000000e+00 1.8068258619628271e+01 2.1628872110496484e+00 7.0776272425772664e+00 
912 514 2 1.0279999975612417e+00 1.4309799670174054e+03 1.0000000000000000e+00 1.8077391902364891e+01 2.1434986920957897e+00 7.0755794797078462e+00 
518 120 2 1.0280000746225233e+00 -4.0405434624417267e+03 1.0000000000000000e+00 1.7898418986965329e+01 1.2570545994776923e+00 6.9366638458715784e+00 
2030 1632 2 1.0280000737011161e+00 -4.0400836241873772e+03 1.0000000000000000e+00 1.7890998083162010e+01 1.2501926223270809e+00 6.9353347832237366e+00 
519 121 2 1.0280000638354556e+00 -4.0405496339228880e+03 1.0000000000000000e+00 1.7802488823681685e+01 1.1805413677306900e+00 6.9199460179781411e+00 
2031 1633 2 1.0280000638354567e+00 -4.0401076357808493e+03 1.0000000000000000e+00 1.7802488823682328e+01 1.1805413677311243e+00 6.9199460179782557e+00 
1964 1566 2 1.0279999919180738e+00 2.9281832583385494e+03 1.0000000000000000e+00 1.2572497132714968e+00 3.4696124951593141e+00 6.9061566787709339e+00 
1320 922 2 1.0279999820425527e+00 -2.0776614135798891e+03 1.0000000000000000e+00 8.5962993725057457e-01 3.4653862376512725e+00 6.8844018831430107e+00 
1099 701 2 1.0280001547001745e+00 -7.2585023858799491e+02 1.0000000000000000e+00 4.7333720623699440e+00 3.4363880769694086e+00 6.9032879810930581e+00 
422 24 2 1.0279999951281604e+00 -4.2155389635609163e+03 1.0000000000000000e+00 5.3146942966201918e+00 4.8212274938927715e+00 8.0333621199882597e+00 
427 29 2 1.0280000053463820e+00 -2.3051165177053931e+03 1.0000000000000000e+00 5.2130733553127895e+00 5.0903674021395036e+00 8.7996551753309298e+00 
1471 1073 2 1.0280000094915558e+00 -6.9850369387393278e+02 1.0000000000000000e+00 5.6569123351424278e+00 5.1417797194046333e+00 8.8286965848162424e+00 
1785 1387 2 1.0280000103095464e+00 1.5704757483269755e+03 1.0000000000000000e+00 5.5701128345099402e+00 5.1518058438516858e+00 8.9802248840099157e+00 
1823 1425 2 1.0279999507080151e+00 -2.9033085526107147e+03 1.0000000000000000e+00 1.6435300928924143e+01 3.9873329405325295e+00 7.4249403026555916e+00 
1822 1424 2 1.0279999534509801e+00 -2.9033028262700259e+03 1.0000000000000000e+00 1.6496919015406764e+01 4.0462611417683050e+00 7.3950120991394224e+00 
643 245 2 1.0280000001546745e+00 -3.3284793305334720e+03 1.0000000000000000e+00 1.6128384236588900e+01 6.0016315774504365e+00 7.6203078717285084e+00 
642 244 2 1.0279999996905465e+00 -3.3284783818165174e+03 1.0000000000000000e+00 1.6582196382145554e+01 6.0116416161158002e+00 7.6177404225247409e+00 
486 88 2 1.0280000003732204e+00 -3.7853234691480416e+03 1.0000000000000000e+00 1.6340963519485094e+01 6.0662016214682088e+00 7.6293875933337469e+00 
487 89 2 1.0280000003446663e+00 -3.7853235328751866e+03 1.0000000000000000e+00 1.6362707271825041e+01 6.0667554501298966e+00 7.6292538720718648e+00 
1990 1592 2 1.0280000048452353e+00 -3.1044105996824842e+03 1.0000000000000000e+00 1.6342787119947463e+01 6.0968950121093437e+00 7.7771543537673775e+00 
1991 1593 2 1.0280000048306890e+00 -3.1044105969679554e+03 1.0000000000000000e+00 1.6352224096252602e+01 6.0972118877368890e+00 7.7771314576060773e+00 
654 256 2 1.0280000330275134e+00 -3.1079108736299859e+03 1.0000000000000000e+00 1.6333198593972124e+01 4.9823920916505715e+00 8.5177514892413608e+00 
655 257 2 1.0280000328490675e+00 -3.1079096440109970e+03 1.0000000000000000e+00 1.6352672772251257e+01 4.9840584422693777e+00 8.5190271445596260e+00 
1097 699 2 1.0279999961136834e+00 -2.6244775298897202e+03 1.0000000000000000e+00 4.8881627136113615e-01 1.9893272925176930e+01 6.9720200407971324e+00 
921 523 2 1.0279999947523111e+00 3.2103497581433066e+03 1.0000000000000000e+00 4.9527650320926225e-01 1.9297588571568507e+01 6.9638340625142394e+00 
875 477 2 1.0279999993023463e+00 2.5214229756255511e+02 1.0000000000000000e+00 1.7535669629187551e+00 1.8075452676398303e+01 7.9940701461266714e+00 
948 550 2 1.0280000001432463e+00 3.1843604226055500e+03 1.0000000000000000e+00 1.6445666739894200e+00 1.7946550032085788e+01 8.1787605391503124e+00 
1032 634 2 1.0280000003650707e+00 3.1843654665441686e+03 1.0000000000000000e+00 1.6443509234931000e+00 1.7949020383716725e+01 8.3871132409622966e+00 
767 369 2 1.0279999996603566e+00 2.5210640711152868e+02 1.0000000000000000e+00 1.7535335445119937e+00 1.8086347581915923e+01 8.5773806432497075e+00 
1104 706 2 1.0279999970491631e+00 -2.9750711245772163e+03 1.0000000000000000e+00 2.1889523437147765e-01 1.8189364488565531e+01 7.0946593180388584e+00 
774 376 2 1.0280000476192772e+00 4.3617923244943398e+02 1.0000000000000000e+00 3.7929325431027188e+00 1.9710805642203354e+01 6.9855794617083262e+00 
741 343 2 1.0279999968777056e+00 1.2723585876733764e+03 1.0000000000000000e+00 4.9691254662285926e+00 1.9905732102474044e+01 7.2889643566689566e+00 
441 43 2 1.0279999964917106e+00 4.1985932832151502e+02 1.0000000000000000e+00 4.3456988734645510e+00 1.8974054643396098e+01 7.4565066105615170e+00 
1129 731 2 1.0279999948522911e+00 -1.5302634348039234e+02 1.0000000000000000e+00 3.9162397263431044e+00 1.8619043577405265e+01 7.8313350880562833e+00 
1181 783 2 1.0279999952578731e+00 -1.5303474795183683e+02 1.0000000000000000e+00 3.9097886671019153e+00 1.8622126445596262e+01 8.7307180247012717e+00 
1085 687 2 1.0280002748379391e+00 8.3930030503795588e+03 1.0000000000000000e+00 2.8849163592551239e+00 3.0657124016251247e+00 9.4986011402051655e+00 
1973 1575 2 1.0280000086168932e+00 1.5848989309789827e+03 1.0000000000000000e+00 1.9091618780385489e+00 2.4959943421260591e+00 1.0150555752980209e+01 
704 306 2 1.0279999740149943e+00 1.7551014901165712e+02 1.0000000000000000e+00 1.4697969721858413e+00 2.1904218844734871e+00 1.0966368802201368e+01 
1276 878 2 1.0279999615713213e+00 -8.3599375258723728e+02 1.0000000000000000e+00 2.5774019149369018e+00 1.6322790138342540e+00 1.0755944484117284e+01 
1741 1343 2 1.0280000590007283e+00 4.3940792913412752e+03 1.0000000000000000e+00 6.9991963756004194e-01 2.8319566949491985e+00 1.1464930448080841e+01 
583 185 2 1.0279999767541081e+00 -3.9118110333615482e+03 1.0000000000000000e+00 4.6147208161985676e+00 1.6536348621128958e+00 1.0479851515457046e+01 
1436 1038 2 1.0279999887034541e+00 2.3438348631835556e+03 1.0000000000000000e+00 4.7340139660541585e+00 1.6031683230368312e+00 1.0340641165599772e+01 
600 202 2 1.0280000364736730e+00 7.7013548468245892e+02 1.0000000000000000e+00 6.2188578847926950e+00 1.5725539902536279e+00 9.7168261059682308e+00 
429 31 2 1.0280000558088798e+00 -2.9054318116731315e+03 1.0000000000000000e+00 6.6191308330006420e+00 1.3592093504343212e+00 9.4168614944754196e+00 
954 556 2 1.0280000439655106e+00 5.4364481404797368e+02 1.0000000000000000e+00 3.7888252651117833e+00 1.1622199344322512e+00 1.1753723184247235e+01 
1957 1559 2 1.0280000179787958e+00 -6.4377565292665633e+02 1.0000000000000000e+00 3.3611708229037873e+00 8.8546015700542258e-01 1.2060215663611061e+01 
1590 1192 2 1.0280000202002577e+00 -7.1158304746994818e+03 1.0000000000000000e+00 3.4066603127335267e+00 8.9215991759449953e-01 1.2070335852962835e+01 
1244 846 2 1.0280000637530320e+00 -1.0233203853635782e+03 1.0000000000000000e+00 4.1568525921065662e+00 1.4966007002312891e+00 1.2118767760229730e+01 
939 541 2 1.0280000536591927e+00 -1.1465070896465420e+03 1.0000000000000000e+00 6.7766126168745444e+00 1.2557911439331131e+00 9.1773023147585331e+00 
1069 671 2 1.0280000510737293e+00 1.5804173127317040e+03 1.0000000000000000e+00 9.0120103532366116e+00 1.7883010681863747e+00 1.0238186828765556e+01 
2053 1655 2 1.0280000517026777e+00 -1.5542117957517635e+03 1.0000000000000000e+00 9.0190985854170815e+00 1.7730802956293306e+00 1.0134343753732869e+01 
541 143 2 1.0280000449197868e+00 -1.5537319015820451e+03 1.0000000000000000e+00 9.0396955963995822e+00 1.6609612848471145e+00 1.0223292596638409e+01 
1573 1175 2 1.0280000495547559e+00 1.5812767682110582e+03 1.0000000000000000e+00 9.0319169879804253e+00 1.5861083241241767e+00 1.0565497114354464e+01 
1888 1490 2 1.0279999992515441e+00 -2.7250800605541267e+03 1.0000000000000000e+00 1.0339122699656256e+01 2.6593021451463379e+00 9.0969905962186903e+00 
1791 1393 2 1.0279999915303975e+00 -2.5883171519254856e+03 1.0000000000000000e+00 1.0369329674784471e+01 3.1751749321872347e+00 1.1350208454428703e+01 
727 329 2 1.0279999877325852e+00 -5.1366789271452262e+03 1.0000000000000000e+00 1.0574275004263164e+01 3.1187539404703006e+00 1.1208259784876438e+01 
923 525 2 1.0279999983843351e+00 -4.1177760785739764e+02 1.0000000000000000e+00 1.1366650577193468e+01 2.7216531714553485e+00 1.0237694068805384e+01 
1427 1029 2 1.0280000131998537e+00 -4.1131163330984913e+02 1.0000000000000000e+00 1.1489848436075444e+01 1.0348603363951288e+00 1.0400467076178838e+01 
1903 1505 2 1.0279999920268206e+00 -5.1353133833766888e+03 1.0000000000000000e+00 1.1147400650060359e+01 8.4364473749534097e-01 1.1133801536819528e+01 
615 217 2 1.0279999926053842e+00 -2.5867499441775094e+03 1.0000000000000000e+00 1.1061393171403870e+01 8.2506170185913097e-01 1.1174690239569337e+01 
2023 1625 2 1.0280000094736217e+00 -2.9622709980881341e+03 1.0000000000000000e+00 1.3445235201470661e+01 2.5385822041333803e+00 1.0153420752172140e+01 
511 113 2 1.0280000550247754e+00 -2.9624113549362432e+03 1.0000000000000000e+00 1.3494170659490731e+01 1.6117473003990972e+00 1.0032968679900888e+01 
711 313 2 1.0280000555945852e+00 -3.6283640505995445e+03 1.0000000000000000e+00 1.4167739108717800e+01 2.3154952166817133e+00 1.0018539992565419e+01 
1887 1489 2 1.0280001036633049e+00 -3.6283056988499629e+03 1.0000000000000000e+00 1.4206666578256845e+01 2.2596259423818634e+00 9.9664118199065612e+00 
1947 1549 2 1.0280000353973908e+00 -1.2088468597060812e+03 1.0000000000000000e+00 1.4341839062574351e+01 2.2143042780892150e+00 1.0120856811458824e+01 