LAMMPS data file via write_data, version 30 Jul 2016, timestep = 100400000

211 atoms
8 atom types

0.0000000000000000e+00 2.0000000000000000e+01 xlo xhi
0.0000000000000000e+00 2.0000000000000000e+01 ylo yhi
0.0000000000000000e+00 2.0000000000000000e+01 zlo zhi

Masses

1 3.896
2 5.36
3 20.064
4 8.378
5 8.378
6 8.378
7 8.378
8 8.378

Atoms # meso-molecular

1 2 4 2.2938640322379165e+00 0.0000000000000000e+00 1.0000000000000000e+00 0.0000000000000000e+00 0.0000000000000000e+00 5.0000000000000000e-01 
2 2 4 2.3317557049441873e+00 0.0000000000000000e+00 1.0000000000000000e+00 0.0000000000000000e+00 1.6000000000000001e+00 5.0000000000000000e-01 
14 2 4 2.2938640322379165e+00 -2.5704608081537276e+02 1.0000000000000000e+00 2.0000000000000000e+00 0.0000000000000000e+00 5.0000000000000000e-01 
15 2 4 2.3317557049441873e+00 -2.1116186590538712e+02 1.0000000000000000e+00 2.0000000000000000e+00 1.6000000000000001e+00 5.0000000000000000e-01 
27 2 4 2.2938640322379165e+00 -5.7522671077731638e+02 1.0000000000000000e+00 4.0000000000000000e+00 0.0000000000000000e+00 5.0000000000000000e-01 
28 2 4 2.3317557049441873e+00 -1.0014154850132197e+03 1.0000000000000000e+00 4.0000000000000000e+00 1.6000000000000001e+00 5.0000000000000000e-01 
40 2 4 2.2938640322379165e+00 -5.7713920996900504e+02 1.0000000000000000e+00 6.0000000000000000e+00 0.0000000000000000e+00 5.0000000000000000e-01 
41 2 4 2.3317557049448738e+00 -1.0456269559035454e+03 1.0000000000000000e+00 6.0000000000000000e+00 1.6000000000000001e+00 5.0000000000000000e-01 
3 2 4 2.3317557049441877e+00 0.0000000000000000e+00 1.0000000000000000e+00 0.0000000000000000e+00 3.2000000000000002e+00 5.0000000000000000e-01 
16 2 4 2.3317557049441877e+00 -2.4900618664086369e+02 1.0000000000000000e+00 2.0000000000000000e+00 3.2000000000000002e+00 5.0000000000000000e-01 
29 2 4 2.3317557049441877e+00 -1.0295233511816382e+03 1.0000000000000000e+00 4.0000000000000000e+00 3.2000000000000002e+00 5.0000000000000000e-01 
42 2 4 2.3317557049441877e+00 -1.0654650297779431e+03 1.0000000000000000e+00 6.0000000000000000e+00 3.2000000000000002e+00 5.0000000000000000e-01 
4 2 4 2.3317557049441877e+00 -4.0820727146690046e-06 1.0000000000000000e+00 0.0000000000000000e+00 4.7999999999999998e+00 5.0000000000000000e-01 
17 2 4 2.3317557049441877e+00 -2.6482683570810377e+02 1.0000000000000000e+00 2.0000000000000000e+00 4.7999999999999998e+00 5.0000000000000000e-01 
30 2 4 2.3317557049441877e+00 -1.0345963851371139e+03 1.0000000000000000e+00 4.0000000000000000e+00 4.7999999999999998e+00 5.0000000000000000e-01 
43 2 4 2.3317557049441877e+00 -1.0660123490783565e+03 1.0000000000000000e+00 6.0000000000000000e+00 4.7999999999999998e+00 5.0000000000000000e-01 
5 2 4 2.3317557049441877e+00 1.0973614542677078e-07 1.0000000000000000e+00 0.0000000000000000e+00 6.4000000000000004e+00 5.0000000000000000e-01 
18 2 4 2.3317557049441877e+00 -1.9794843321529063e+02 1.0000000000000000e+00 2.0000000000000000e+00 6.4000000000000004e+00 5.0000000000000000e-01 
31 2 4 2.3317557049441877e+00 -9.9923059465467384e+02 1.0000000000000000e+00 4.0000000000000000e+00 6.4000000000000004e+00 5.0000000000000000e-01 
44 2 4 2.3317557049441877e+00 -1.0497110335553593e+03 1.0000000000000000e+00 6.0000000000000000e+00 6.4000000000000004e+00 5.0000000000000000e-01 
6 2 4 2.3317557049441882e+00 1.1476949435750330e-08 1.0000000000000000e+00 0.0000000000000000e+00 8.0000000000000000e+00 5.0000000000000000e-01 
7 2 4 2.3317557049441882e+00 0.0000000000000000e+00 1.0000000000000000e+00 0.0000000000000000e+00 9.5999999999999996e+00 5.0000000000000000e-01 
19 2 4 2.3317557049441882e+00 -3.0937959667931722e+02 1.0000000000000000e+00 2.0000000000000000e+00 8.0000000000000000e+00 5.0000000000000000e-01 
20 2 4 2.3317557049441882e+00 -1.5691643563109943e+02 1.0000000000000000e+00 2.0000000000000000e+00 9.5999999999999996e+00 5.0000000000000000e-01 
32 2 4 2.3317557049441882e+00 -1.0484595919328226e+03 1.0000000000000000e+00 4.0000000000000000e+00 8.0000000000000000e+00 5.0000000000000000e-01 
33 2 4 2.3317557049441882e+00 -9.6670393194488065e+02 1.0000000000000000e+00 4.0000000000000000e+00 9.5999999999999996e+00 5.0000000000000000e-01 
45 2 4 2.3317557049441882e+00 -1.0669018776051987e+03 1.0000000000000000e+00 6.0000000000000000e+00 8.0000000000000000e+00 5.0000000000000000e-01 
46 2 4 2.3317557049441882e+00 -1.0287108145839156e+03 1.0000000000000000e+00 6.0000000000000000e+00 9.5999999999999996e+00 5.0000000000000000e-01 
204 2 1 1.0281752557229134e+00 -1.1884218194685673e+03 1.0000000000000000e+00 5.2242212422171663e+00 1.3389710669271992e+00 3.3862636239147457e+00 
639 2 1 1.0282007646123743e+00 -8.4184119840301946e+01 1.0000000000000000e+00 5.2217998042242453e+00 1.3456704167509683e+00 3.4013444602861016e+00 
249 2 1 1.0282021136536534e+00 -7.3926202673707522e+01 1.0000000000000000e+00 5.2218076439589725e+00 1.3442374242757078e+00 3.3875345523165494e+00 
397 2 1 1.0280125235673347e+00 -9.5945010055661712e+01 1.0000000000000000e+00 1.0024585828156487e+00 5.5752891642706119e+00 3.2267949681183365e+00 
279 2 1 1.0280115019297882e+00 -8.9422164711721351e+01 1.0000000000000000e+00 1.0151922341278181e+00 5.6706510229321081e+00 3.2480120036580007e+00 
747 2 1 1.0281312949385542e+00 -6.6291986651498036e+01 1.0000000000000000e+00 1.0027310817643924e+00 5.5748202423011302e+00 3.2288243414019875e+00 
525 2 1 1.0279282205973557e+00 -7.6744097395121955e+01 1.0000000000000000e+00 3.2852844970099366e+00 5.8164440351143245e+00 3.3974714161079316e+00 
514 2 1 1.0278644419041567e+00 -8.8919897790097281e+01 1.0000000000000000e+00 3.1855596577142604e+00 5.5807750144433728e+00 3.2814940346498802e+00 
547 2 1 1.0279711436444534e+00 -4.6928938775706712e+01 1.0000000000000000e+00 2.6311621081933865e+00 5.3275632996860516e+00 3.3881202262079704e+00 
195 2 1 1.0281610622384272e+00 -1.0926571385603597e+03 1.0000000000000000e+00 4.9738437895177698e+00 5.5110622984144984e+00 3.2736720857609316e+00 
346 2 1 1.0279173445600014e+00 -5.2104801909749675e+01 1.0000000000000000e+00 5.1240926987816469e+00 5.5844640591814807e+00 3.2655486348511031e+00 
664 2 1 1.0279125378001950e+00 -5.0011936050691418e+01 1.0000000000000000e+00 4.6624193551491997e+00 7.2067588448085766e+00 3.3178701931609553e+00 
424 2 1 1.0280797587224135e+00 -6.1226201521471936e+01 1.0000000000000000e+00 5.5319721891663312e+00 6.4533676883448363e+00 3.5581215814188134e+00 
240 2 1 1.0278942351567537e+00 -5.7844095076794417e+01 1.0000000000000000e+00 4.9737087020442914e+00 7.2802585772590156e+00 3.2485939866877840e+00 
477 2 1 1.0278553211873140e+00 -6.5507750005342785e+01 1.0000000000000000e+00 4.9362863862040403e+00 9.0027070578515946e+00 3.4453395440739225e+00 
221 2 1 1.0279118224872479e+00 -8.0902502910810099e+01 1.0000000000000000e+00 4.6224132676704155e+00 9.1680155418547091e+00 3.4075688595458673e+00 
8 2 4 2.3317557049441873e+00 9.1845768486843401e-05 1.0000000000000000e+00 0.0000000000000000e+00 1.1199999999999999e+01 5.0000000000000000e-01 
21 2 4 2.3317557049441873e+00 -3.3896767123578127e+02 1.0000000000000000e+00 2.0000000000000000e+00 1.1199999999999999e+01 5.0000000000000000e-01 
34 2 4 2.3317557049441873e+00 -1.0550274012597156e+03 1.0000000000000000e+00 4.0000000000000000e+00 1.1199999999999999e+01 5.0000000000000000e-01 
47 2 4 2.3317557049441873e+00 -1.0650125108829636e+03 1.0000000000000000e+00 6.0000000000000000e+00 1.1199999999999999e+01 5.0000000000000000e-01 
9 2 4 2.3317557049441873e+00 0.0000000000000000e+00 1.0000000000000000e+00 0.0000000000000000e+00 1.2800000000000001e+01 5.0000000000000000e-01 
22 2 4 2.3317557049441873e+00 -1.3582277824618561e+02 1.0000000000000000e+00 2.0000000000000000e+00 1.2800000000000001e+01 5.0000000000000000e-01 
35 2 4 2.3317557049441873e+00 -9.4818913241620066e+02 1.0000000000000000e+00 4.0000000000000000e+00 1.2800000000000001e+01 5.0000000000000000e-01 
48 2 4 2.3317557049441873e+00 -1.0161262484805484e+03 1.0000000000000000e+00 6.0000000000000000e+00 1.2800000000000001e+01 5.0000000000000000e-01 
10 2 4 2.3317557049441882e+00 0.0000000000000000e+00 1.0000000000000000e+00 0.0000000000000000e+00 1.4400000000000000e+01 5.0000000000000000e-01 
23 2 4 2.3317557049441882e+00 -3.4736342911184454e+02 1.0000000000000000e+00 2.0000000000000000e+00 1.4400000000000000e+01 5.0000000000000000e-01 
36 2 4 2.3317557049441882e+00 -1.0569919433845325e+03 1.0000000000000000e+00 4.0000000000000000e+00 1.4400000000000000e+01 5.0000000000000000e-01 
49 2 4 2.3317557049441882e+00 -1.0643581663230104e+03 1.0000000000000000e+00 6.0000000000000000e+00 1.4400000000000000e+01 5.0000000000000000e-01 
11 2 4 2.3317557049441873e+00 0.0000000000000000e+00 1.0000000000000000e+00 0.0000000000000000e+00 1.6000000000000000e+01 5.0000000000000000e-01 
12 2 4 2.3317557049441877e+00 -4.0909894081967079e-10 1.0000000000000000e+00 0.0000000000000000e+00 1.7600000000000001e+01 5.0000000000000000e-01 
24 2 4 2.3317557049446505e+00 -1.3897805227436112e+02 1.0000000000000000e+00 2.0000000000000000e+00 1.6000000000000000e+01 5.0000000000000000e-01 
25 2 4 2.3317557049441877e+00 -3.3281444881237701e+02 1.0000000000000000e+00 2.0000000000000000e+00 1.7600000000000001e+01 5.0000000000000000e-01 
37 2 4 2.3317557049441873e+00 -9.5085302128597561e+02 1.0000000000000000e+00 4.0000000000000000e+00 1.6000000000000000e+01 5.0000000000000000e-01 
38 2 4 2.3317557049441877e+00 -1.0538011598788153e+03 1.0000000000000000e+00 4.0000000000000000e+00 1.7600000000000001e+01 5.0000000000000000e-01 
50 2 4 2.3317557049441873e+00 -1.0178642157851524e+03 1.0000000000000000e+00 6.0000000000000000e+00 1.6000000000000000e+01 5.0000000000000000e-01 
51 2 4 2.3317557049441877e+00 -1.0651234706539526e+03 1.0000000000000000e+00 6.0000000000000000e+00 1.7600000000000001e+01 5.0000000000000000e-01 
13 2 4 2.2938640322379173e+00 -2.4518693856925347e-05 1.0000000000000000e+00 0.0000000000000000e+00 1.9199999999999999e+01 5.0000000000000000e-01 
26 2 4 2.2938640322379173e+00 -1.4430765347631981e+02 1.0000000000000000e+00 2.0000000000000000e+00 1.9199999999999999e+01 5.0000000000000000e-01 
39 2 4 2.2938640322379173e+00 -7.7694628252443101e+02 1.0000000000000000e+00 4.0000000000000000e+00 1.9199999999999999e+01 5.0000000000000000e-01 
52 2 4 2.2938640322379173e+00 -8.2985987864166998e+02 1.0000000000000000e+00 6.0000000000000000e+00 1.9199999999999999e+01 5.0000000000000000e-01 
646 2 1 1.0282364611306070e+00 -4.8557263885766893e+01 1.0000000000000000e+00 4.9936728695659420e+00 1.0264083581678287e+01 3.2531433211037108e+00 
378 2 1 1.0278709958126748e+00 -7.7295823400871356e+01 1.0000000000000000e+00 4.8345263862011798e+00 1.0184263364757438e+01 3.4043191513399336e+00 
317 2 1 1.0279662083839616e+00 -6.4397857785736335e+01 1.0000000000000000e+00 3.9068139601126202e+00 1.6799168718340312e+01 3.3905882439743054e+00 
563 2 1 1.0279769401916841e+00 -7.5931447455859058e+01 1.0000000000000000e+00 3.9044714138503767e+00 1.6768195728007523e+01 3.4021499566775604e+00 
744 2 1 1.0280228589391176e+00 -1.4826383001792024e+01 1.0000000000000000e+00 2.9680983962232252e+00 1.6804306648068817e+01 3.2304194227809004e+00 
482 2 1 1.0280410881489395e+00 -1.1379888010794664e+02 1.0000000000000000e+00 2.9682209639568056e+00 1.6778644721518031e+01 3.2288031809331708e+00 
53 2 4 2.2938640322379165e+00 -5.7729983676863844e+02 1.0000000000000000e+00 8.0000000000000000e+00 0.0000000000000000e+00 5.0000000000000000e-01 
54 2 4 2.3317557049891633e+00 -1.0458160868839120e+03 1.0000000000000000e+00 8.0000000000000000e+00 1.6000000000000001e+00 5.0000000000000000e-01 
66 2 4 2.2938640322379165e+00 -5.7730524698298984e+02 1.0000000000000000e+00 1.0000000000000000e+01 0.0000000000000000e+00 5.0000000000000000e-01 
67 2 4 2.3317557049441873e+00 -1.0458228297227770e+03 1.0000000000000000e+00 1.0000000000000000e+01 1.6000000000000001e+00 5.0000000000000000e-01 
79 2 4 2.2938640322379165e+00 -5.7720396877419114e+02 1.0000000000000000e+00 1.2000000000000000e+01 0.0000000000000000e+00 5.0000000000000000e-01 
80 2 4 2.3317557049441873e+00 -1.0457704505080505e+03 1.0000000000000000e+00 1.2000000000000000e+01 1.6000000000000001e+00 5.0000000000000000e-01 
55 2 4 2.3317557049441877e+00 -1.0656644156331597e+03 1.0000000000000000e+00 8.0000000000000000e+00 3.2000000000000002e+00 5.0000000000000000e-01 
68 2 4 2.3317557049441877e+00 -1.0656710651442327e+03 1.0000000000000000e+00 1.0000000000000000e+01 3.2000000000000002e+00 5.0000000000000000e-01 
81 2 4 2.3317557049441877e+00 -1.0656091110668992e+03 1.0000000000000000e+00 1.2000000000000000e+01 3.2000000000000002e+00 5.0000000000000000e-01 
56 2 4 2.3317557049441877e+00 -1.0662218107080832e+03 1.0000000000000000e+00 8.0000000000000000e+00 4.7999999999999998e+00 5.0000000000000000e-01 
69 2 4 2.3317557049441877e+00 -1.0662280570974483e+03 1.0000000000000000e+00 1.0000000000000000e+01 4.7999999999999998e+00 5.0000000000000000e-01 
82 2 4 2.3317557049441877e+00 -1.0661577138627604e+03 1.0000000000000000e+00 1.2000000000000000e+01 4.7999999999999998e+00 5.0000000000000000e-01 
57 2 4 2.3317557049441877e+00 -1.0499190283359399e+03 1.0000000000000000e+00 8.0000000000000000e+00 6.4000000000000004e+00 5.0000000000000000e-01 
70 2 4 2.3317557049441877e+00 -1.0499251729819962e+03 1.0000000000000000e+00 1.0000000000000000e+01 6.4000000000000004e+00 5.0000000000000000e-01 
83 2 4 2.3317557049441877e+00 -1.0498799682786707e+03 1.0000000000000000e+00 1.2000000000000000e+01 6.4000000000000004e+00 5.0000000000000000e-01 
58 2 4 2.3317557049441882e+00 -1.0671212207602930e+03 1.0000000000000000e+00 8.0000000000000000e+00 8.0000000000000000e+00 5.0000000000000000e-01 
59 2 4 2.3317557049441882e+00 -1.0289287256001644e+03 1.0000000000000000e+00 8.0000000000000000e+00 9.5999999999999996e+00 5.0000000000000000e-01 
71 2 4 2.3317557049441882e+00 -1.0671331315135171e+03 1.0000000000000000e+00 1.0000000000000000e+01 8.0000000000000000e+00 5.0000000000000000e-01 
72 2 4 2.3317557049441882e+00 -1.0289362403799291e+03 1.0000000000000000e+00 1.0000000000000000e+01 9.5999999999999996e+00 5.0000000000000000e-01 
84 2 4 2.3317557049441882e+00 -1.0670403734553392e+03 1.0000000000000000e+00 1.2000000000000000e+01 8.0000000000000000e+00 5.0000000000000000e-01 
85 2 4 2.3317557049441882e+00 -1.0289001441060709e+03 1.0000000000000000e+00 1.2000000000000000e+01 9.5999999999999996e+00 5.0000000000000000e-01 
624 2 1 1.0278195051142940e+00 -1.2383685631455994e+02 1.0000000000000000e+00 6.9952438955582164e+00 1.9801185152097462e+00 3.4022304082783306e+00 
493 2 1 1.0276197955318744e+00 -9.3618734111395398e+01 1.0000000000000000e+00 6.9748264770537389e+00 2.3696183427409734e+00 3.3001641179920420e+00 
452 2 1 1.0281380641909883e+00 -4.9275317244388731e+01 1.0000000000000000e+00 7.0049604682350282e+00 2.2922761008450028e+00 3.2384848595020306e+00 
358 2 1 1.0281334975929135e+00 -5.5874825389450940e+01 1.0000000000000000e+00 8.2741973045593369e+00 3.9961620638499906e+00 3.4135086751706050e+00 
473 2 1 1.0278232590285332e+00 -6.8423574012450416e+01 1.0000000000000000e+00 9.0557123073903725e+00 3.7979131162202564e+00 3.3061101820404502e+00 
657 2 1 1.0281419776815661e+00 -4.5749522305487162e+01 1.0000000000000000e+00 8.3227030386845300e+00 4.1043932108749175e+00 3.4200563627845533e+00 
410 2 1 1.0279309943872190e+00 -2.2750215430473553e+01 1.0000000000000000e+00 9.5250886789952247e+00 4.3578859213842938e+00 3.6396314010543391e+00 
440 2 1 1.0283847034402642e+00 -5.9914883958662195e+01 1.0000000000000000e+00 1.0329964254690427e+01 5.4726352382007919e+00 3.7927166061457345e+00 
501 2 1 1.0277704427373011e+00 -5.5376501031631989e+01 1.0000000000000000e+00 1.0581845530418434e+01 5.6621145887559408e+00 3.3807728099373464e+00 
696 2 1 1.0279981118098689e+00 -7.9555967921529572e+01 1.0000000000000000e+00 1.0219783971053937e+01 6.2991708155927792e+00 3.6449663328396698e+00 
557 2 1 1.0279254588904656e+00 -4.1621807920136391e+01 1.0000000000000000e+00 1.0842607712401858e+01 6.9480470854920391e+00 3.3467846514270438e+00 
220 2 1 1.0275671536885789e+00 -9.1996990241791579e+01 1.0000000000000000e+00 1.3083496246229700e+01 7.1146129187179348e+00 3.3063670334147774e+00 
532 2 1 1.0282406063748100e+00 -8.2269215115962012e+01 1.0000000000000000e+00 1.2976902450443802e+01 7.0620886789513788e+00 3.2678361344855937e+00 
361 2 1 1.0281102970236928e+00 -9.1759220775346719e+01 1.0000000000000000e+00 1.3059985563389024e+01 7.1691149973320707e+00 3.2930930284889630e+00 
604 2 1 1.0280635553415456e+00 -7.1914839457467465e+01 1.0000000000000000e+00 1.0969733460961914e+01 8.1627805321126115e+00 3.5379590236944538e+00 
715 2 1 1.0280206651428483e+00 -3.4010508594301825e+01 1.0000000000000000e+00 1.1110608553722860e+01 8.7135742324525971e+00 3.3215287179706214e+00 
177 2 1 1.0280322787418583e+00 -1.1882000612055369e+03 1.0000000000000000e+00 1.1692340830900045e+01 8.4745468159150530e+00 3.4791624540724908e+00 
60 2 4 2.3317557049441873e+00 -1.0652358944846562e+03 1.0000000000000000e+00 8.0000000000000000e+00 1.1199999999999999e+01 5.0000000000000000e-01 
73 2 4 2.3317557049441873e+00 -1.0652461142616096e+03 1.0000000000000000e+00 1.0000000000000000e+01 1.1199999999999999e+01 5.0000000000000000e-01 
86 2 4 2.3317557049442610e+00 -1.0651456757600447e+03 1.0000000000000000e+00 1.2000000000000000e+01 1.1199999999999999e+01 5.0000000000000000e-01 
61 2 4 2.3317557049441873e+00 -1.0163523011426385e+03 1.0000000000000000e+00 8.0000000000000000e+00 1.2800000000000001e+01 5.0000000000000000e-01 
74 2 4 2.3317557049441873e+00 -1.0163597478695744e+03 1.0000000000000000e+00 1.0000000000000000e+01 1.2800000000000001e+01 5.0000000000000000e-01 
87 2 4 2.3317557049441873e+00 -1.0163272954942643e+03 1.0000000000000000e+00 1.2000000000000000e+01 1.2800000000000001e+01 5.0000000000000000e-01 
62 2 4 2.3317557049441882e+00 -1.0645838416198062e+03 1.0000000000000000e+00 8.0000000000000000e+00 1.4400000000000000e+01 5.0000000000000000e-01 
75 2 4 2.3317557049441882e+00 -1.0645941948115785e+03 1.0000000000000000e+00 1.0000000000000000e+01 1.4400000000000000e+01 5.0000000000000000e-01 
88 2 4 2.3317557049441882e+00 -1.0644906754418812e+03 1.0000000000000000e+00 1.2000000000000000e+01 1.4400000000000000e+01 5.0000000000000000e-01 
63 2 4 2.3317557049441873e+00 -1.0180859758433724e+03 1.0000000000000000e+00 8.0000000000000000e+00 1.6000000000000000e+01 5.0000000000000000e-01 
64 2 4 2.3317557049441877e+00 -1.0653165470779329e+03 1.0000000000000000e+00 8.0000000000000000e+00 1.7600000000000001e+01 5.0000000000000000e-01 
76 2 4 2.3317557049441873e+00 -1.0180933167773057e+03 1.0000000000000000e+00 1.0000000000000000e+01 1.6000000000000000e+01 5.0000000000000000e-01 
77 2 4 2.3317557049441877e+00 -1.0653255190195523e+03 1.0000000000000000e+00 1.0000000000000000e+01 1.7600000000000001e+01 5.0000000000000000e-01 
89 2 4 2.3317557049441873e+00 -1.0180614069409467e+03 1.0000000000000000e+00 1.2000000000000000e+01 1.6000000000000000e+01 5.0000000000000000e-01 
90 2 4 2.3317557049441877e+00 -1.0652409711370797e+03 1.0000000000000000e+00 1.2000000000000000e+01 1.7600000000000001e+01 5.0000000000000000e-01 
65 2 4 2.2938640322379173e+00 -8.3009654105843288e+02 1.0000000000000000e+00 8.0000000000000000e+00 1.9199999999999999e+01 5.0000000000000000e-01 
78 2 4 2.2938640322379173e+00 -8.3009994915293203e+02 1.0000000000000000e+00 1.0000000000000000e+01 1.9199999999999999e+01 5.0000000000000000e-01 
91 2 4 2.2938640322379173e+00 -8.3009805321426848e+02 1.0000000000000000e+00 1.2000000000000000e+01 1.9199999999999999e+01 5.0000000000000000e-01 
155 2 1 1.0277141642204386e+00 -1.1490183768562893e+03 1.0000000000000000e+00 6.9209252262648917e+00 1.0455294225330217e+01 3.3232001740871855e+00 
180 2 1 1.0281827938248302e+00 -1.1532096489555724e+03 1.0000000000000000e+00 6.6758828867413964e+00 1.0449483745811005e+01 3.3388096124775690e+00 
217 2 1 1.0282052016879326e+00 -7.5556360439065230e+01 1.0000000000000000e+00 7.2528183614098953e+00 1.0309292682279642e+01 3.4370236400108816e+00 
351 2 1 1.0279731013319753e+00 -9.1279302374883699e+01 1.0000000000000000e+00 8.8364299858193363e+00 1.0347825648044747e+01 3.2946544255153936e+00 
467 2 1 1.0282510300040923e+00 -9.5371938159988034e+01 1.0000000000000000e+00 9.0009194083751503e+00 1.0393001027518107e+01 3.2240297450245539e+00 
293 2 1 1.0277633681838028e+00 -7.0883196652365157e+01 1.0000000000000000e+00 9.7713821023277330e+00 1.0591856123910803e+01 3.5232472106193371e+00 
447 2 1 1.0277024317793149e+00 -6.1797178407547996e+01 1.0000000000000000e+00 1.1142576280692969e+01 1.0518007916778394e+01 3.3506142458780728e+00 
561 2 1 1.0284477353644943e+00 -5.2675081665006275e+01 1.0000000000000000e+00 1.1243197298256296e+01 1.0352934471100076e+01 3.3696332214995026e+00 
540 2 1 1.0282812513418997e+00 -8.1223923300220676e+01 1.0000000000000000e+00 1.2458909031521763e+01 1.1703853422704173e+01 3.4660630431598203e+00 
582 2 1 1.0279286865675279e+00 -6.8578044552693200e+01 1.0000000000000000e+00 1.2439812932027408e+01 1.1296237376232039e+01 3.4649000956014038e+00 
451 2 1 1.0277114412738213e+00 -5.0449184835607070e+01 1.0000000000000000e+00 8.7368511071765891e+00 1.2249151977451614e+01 3.3734488487414374e+00 
686 2 1 1.0282796910331624e+00 -3.7852258829954117e+01 1.0000000000000000e+00 8.8827530643895187e+00 1.2492514857123815e+01 3.3702485742480222e+00 
338 2 1 1.0284430255692942e+00 -4.6291849241936319e+01 1.0000000000000000e+00 9.0752137123589876e+00 1.2651691159946619e+01 3.5634817562397294e+00 
310 2 1 1.0281236525144188e+00 -1.1202597412519795e+02 1.0000000000000000e+00 1.0543462946757158e+01 1.3243896644975955e+01 3.4227940089564957e+00 
483 2 1 1.0281349009788985e+00 -6.8690147107052198e+01 1.0000000000000000e+00 1.1002824242382884e+01 1.3586696731232450e+01 3.2351196412759977e+00 
382 2 1 1.0277579490866027e+00 -7.6980744571694430e+01 1.0000000000000000e+00 1.0983393361248581e+01 1.3565205941442938e+01 3.2301886967355844e+00 
422 2 1 1.0279023235910127e+00 -7.3713756911941346e+01 1.0000000000000000e+00 1.2293409376900998e+01 1.2053461324910177e+01 3.3985248224127735e+00 
325 2 1 1.0283386121128471e+00 -5.4617196826345612e+01 1.0000000000000000e+00 1.2874504757478753e+01 1.3846667509696411e+01 3.3365195322218248e+00 
236 2 1 1.0280282121055959e+00 -6.0528605977191134e+01 1.0000000000000000e+00 1.2731575583451843e+01 1.5039625891094172e+01 3.3931149453733722e+00 
344 2 1 1.0277798116530428e+00 -5.5559782914486931e+01 1.0000000000000000e+00 1.2481948722615066e+01 1.4977979181875474e+01 3.4049287044071446e+00 
419 2 1 1.0279753377622760e+00 -4.7013570265689090e+01 1.0000000000000000e+00 1.3183894186405476e+01 1.4348490009494787e+01 3.4086012067842359e+00 
92 2 4 2.2938640322379165e+00 -5.7592621944564451e+02 1.0000000000000000e+00 1.4000000000000000e+01 0.0000000000000000e+00 5.0000000000000000e-01 
93 2 4 2.3317557049441873e+00 -1.0444147820904766e+03 1.0000000000000000e+00 1.4000000000000000e+01 1.6000000000000001e+00 5.0000000000000000e-01 
105 2 4 2.2938640322379165e+00 -2.6932030105082623e+02 1.0000000000000000e+00 1.6000000000000000e+01 0.0000000000000000e+00 5.0000000000000000e-01 
106 2 4 2.3317557049441873e+00 -7.3721880545405077e+02 1.0000000000000000e+00 1.6000000000000000e+01 1.6000000000000001e+00 5.0000000000000000e-01 
118 2 4 2.2938640322379165e+00 -7.9143895183667588e-06 1.0000000000000000e+00 1.8000000000000000e+01 0.0000000000000000e+00 5.0000000000000000e-01 
119 2 4 2.3317557049441873e+00 -2.7454270010981045e+01 1.0000000000000000e+00 1.8000000000000000e+01 1.6000000000000001e+00 5.0000000000000000e-01 
94 2 4 2.3317557049441877e+00 -1.0643985212310240e+03 1.0000000000000000e+00 1.4000000000000000e+01 3.2000000000000002e+00 5.0000000000000000e-01 
107 2 4 2.3317557049441877e+00 -7.0666212983077094e+02 1.0000000000000000e+00 1.6000000000000000e+01 3.2000000000000002e+00 5.0000000000000000e-01 
120 2 4 2.3317557049441877e+00 -2.0342881889016805e+01 1.0000000000000000e+00 1.8000000000000000e+01 3.2000000000000002e+00 5.0000000000000000e-01 
95 2 4 2.3317557049441877e+00 -1.0649321454950648e+03 1.0000000000000000e+00 1.4000000000000000e+01 4.7999999999999998e+00 5.0000000000000000e-01 
108 2 4 2.3317557049441877e+00 -6.8725164748195641e+02 1.0000000000000000e+00 1.6000000000000000e+01 4.7999999999999998e+00 5.0000000000000000e-01 
121 2 4 2.3317557049441877e+00 -1.7145298802970391e+01 1.0000000000000000e+00 1.8000000000000000e+01 4.7999999999999998e+00 5.0000000000000000e-01 
96 2 4 2.3317557049441877e+00 -1.0486191738938824e+03 1.0000000000000000e+00 1.4000000000000000e+01 6.4000000000000004e+00 5.0000000000000000e-01 
109 2 4 2.3317557049441877e+00 -7.5810881484373067e+02 1.0000000000000000e+00 1.6000000000000000e+01 6.4000000000000004e+00 5.0000000000000000e-01 
122 2 4 2.3317557049441877e+00 -3.0606242948195479e+01 1.0000000000000000e+00 1.8000000000000000e+01 6.4000000000000004e+00 5.0000000000000000e-01 
97 2 4 2.3317557049441882e+00 -1.0658538866853200e+03 1.0000000000000000e+00 1.4000000000000000e+01 8.0000000000000000e+00 5.0000000000000000e-01 
98 2 4 2.3317557049441882e+00 -1.0276126134543099e+03 1.0000000000000000e+00 1.4000000000000000e+01 9.5999999999999996e+00 5.0000000000000000e-01 
110 2 4 2.3317557049441882e+00 -6.3446676214174579e+02 1.0000000000000000e+00 1.6000000000000000e+01 8.0000000000000000e+00 5.0000000000000000e-01 
111 2 4 2.3317557049441882e+00 -7.9410854346200540e+02 1.0000000000000000e+00 1.6000000000000000e+01 9.5999999999999996e+00 5.0000000000000000e-01 
123 2 4 2.3317557049441882e+00 -8.1798577122165508e+00 1.0000000000000000e+00 1.8000000000000000e+01 8.0000000000000000e+00 5.0000000000000000e-01 
124 2 4 2.3317557049441882e+00 -3.9015590405393098e+01 1.0000000000000000e+00 1.8000000000000000e+01 9.5999999999999996e+00 5.0000000000000000e-01 
393 2 1 1.0282207973281117e+00 -5.5686007846163676e+01 1.0000000000000000e+00 1.4999219973769778e+01 8.1156204397833531e-01 3.2182194248387583e+00 
641 2 1 1.0282377570617343e+00 -1.2652408052937096e+02 1.0000000000000000e+00 1.4980521738889333e+01 8.1824891916282716e-01 3.2295939851282798e+00 
156 2 1 1.0281755447510521e+00 -1.1328336546327396e+03 1.0000000000000000e+00 1.5218678654757190e+01 8.1260871369301702e-01 3.2998957498476238e+00 
190 2 1 1.0279216130892734e+00 -1.2140323402127824e+03 1.0000000000000000e+00 1.5030146682767430e+01 2.7902358270198580e+00 3.3164886251704386e+00 
390 2 1 1.0280553690384926e+00 -4.7353931371855140e+01 1.0000000000000000e+00 1.4978597009988583e+01 3.9903718866992515e+00 3.2538664094631220e+00 
589 2 1 1.0278713274203279e+00 -8.5951182803890944e+01 1.0000000000000000e+00 1.5481278683391752e+01 2.3946282986611278e+00 3.3621511346341486e+00 
154 2 1 1.0281229947426049e+00 -1.1747806070998538e+03 1.0000000000000000e+00 1.5986211604254535e+01 3.7807576889299259e+00 3.4497319734655423e+00 
381 2 1 1.0277405875551253e+00 -4.2086387741639733e+01 1.0000000000000000e+00 1.4950951855453971e+01 5.9449418453379206e+00 3.3873551991316777e+00 
226 2 1 1.0281137638986229e+00 -7.7410535736093721e+01 1.0000000000000000e+00 1.5030783048058000e+01 5.8821768167136739e+00 3.3283512964174684e+00 
228 2 1 1.0280384778680729e+00 -8.3580594439218387e+01 1.0000000000000000e+00 1.5874104460936259e+01 4.1102881663697284e+00 3.4968489390719073e+00 
296 2 1 1.0282511130726013e+00 -1.6059316799161499e+02 1.0000000000000000e+00 1.4862354178703946e+01 6.0010772947159934e+00 3.3634949947888577e+00 
99 2 4 2.3317557049441873e+00 -1.0640130626586672e+03 1.0000000000000000e+00 1.4000000000000000e+01 1.1199999999999999e+01 5.0000000000000000e-01 
112 2 4 2.3317557049441873e+00 -5.9901448660454105e+02 1.0000000000000000e+00 1.6000000000000000e+01 1.1199999999999999e+01 5.0000000000000000e-01 
125 2 4 2.3317557049441873e+00 -2.3700580364554931e+00 1.0000000000000000e+00 1.8000000000000000e+01 1.1199999999999999e+01 5.0000000000000000e-01 
100 2 4 2.3317557049441979e+00 -1.0150056271462083e+03 1.0000000000000000e+00 1.4000000000000000e+01 1.2800000000000001e+01 5.0000000000000000e-01 
113 2 4 2.3317557050331650e+00 -8.1182675780615682e+02 1.0000000000000000e+00 1.6000000000000000e+01 1.2800000000000001e+01 5.0000000000000000e-01 
126 2 4 2.3317557049441873e+00 -4.3456336626193973e+01 1.0000000000000000e+00 1.8000000000000000e+01 1.2800000000000001e+01 5.0000000000000000e-01 
101 2 4 2.3317557049441882e+00 -1.0633835964608857e+03 1.0000000000000000e+00 1.4000000000000000e+01 1.4400000000000000e+01 5.0000000000000000e-01 
114 2 4 2.3317557049441882e+00 -5.8917253925319153e+02 1.0000000000000000e+00 1.6000000000000000e+01 1.4400000000000000e+01 5.0000000000000000e-01 
127 2 4 2.3317557049441882e+00 -5.8365440987250750e-01 1.0000000000000000e+00 1.8000000000000000e+01 1.4400000000000000e+01 5.0000000000000000e-01 
102 2 4 2.3317557049441873e+00 -1.0167589988026189e+03 1.0000000000000000e+00 1.4000000000000000e+01 1.6000000000000000e+01 5.0000000000000000e-01 
103 2 4 2.3317557049474851e+00 -1.0641816256857778e+03 1.0000000000000000e+00 1.4000000000000000e+01 1.7600000000000001e+01 5.0000000000000000e-01 
115 2 4 2.3317557049441873e+00 -8.0904861755967693e+02 1.0000000000000000e+00 1.6000000000000000e+01 1.6000000000000000e+01 5.0000000000000000e-01 
116 2 4 2.3317557049441877e+00 -6.0605681204574091e+02 1.0000000000000000e+00 1.6000000000000000e+01 1.7600000000000001e+01 5.0000000000000000e-01 
128 2 4 2.3317557049441873e+00 -4.2784800189747088e+01 1.0000000000000000e+00 1.8000000000000000e+01 1.6000000000000000e+01 5.0000000000000000e-01 
129 2 4 2.3317557049441877e+00 -3.4995362400233350e+00 1.0000000000000000e+00 1.8000000000000000e+01 1.7600000000000001e+01 5.0000000000000000e-01 
104 2 4 2.2938640322379173e+00 -8.2839932764966125e+02 1.0000000000000000e+00 1.4000000000000000e+01 1.9199999999999999e+01 5.0000000000000000e-01 
117 2 4 2.2938640322379173e+00 -6.1362856465476330e+02 1.0000000000000000e+00 1.6000000000000000e+01 1.9199999999999999e+01 5.0000000000000000e-01 
130 2 4 2.2938640322379173e+00 -3.2776953931099790e+01 1.0000000000000000e+00 1.8000000000000000e+01 1.9199999999999999e+01 5.0000000000000000e-01 