LAMMPS data file via write_data, version 30 Jul 2016, timestep = 100000000

211 atoms
8 atom types

0.0000000000000000e+00 2.0000000000000000e+01 xlo xhi
0.0000000000000000e+00 2.0000000000000000e+01 ylo yhi
0.0000000000000000e+00 2.0000000000000000e+01 zlo zhi

Masses

1 3.896
2 5.36
3 20.064
4 8.378
5 8.378
6 8.378
7 8.378
8 8.378

Atoms # meso-molecular

1 2 4 2.2938640322379165e+00 0.0000000000000000e+00 1.0000000000000000e+00 0.0000000000000000e+00 0.0000000000000000e+00 5.0000000000000000e-01 
2 2 4 2.3317557049441873e+00 0.0000000000000000e+00 1.0000000000000000e+00 0.0000000000000000e+00 1.6000000000000001e+00 5.0000000000000000e-01 
14 2 4 2.2938640322379165e+00 -2.5704608081537276e+02 1.0000000000000000e+00 2.0000000000000000e+00 0.0000000000000000e+00 5.0000000000000000e-01 
15 2 4 2.3317557049441873e+00 -2.1116186590538712e+02 1.0000000000000000e+00 2.0000000000000000e+00 1.6000000000000001e+00 5.0000000000000000e-01 
27 2 4 2.2938640322379165e+00 -5.7522671077731638e+02 1.0000000000000000e+00 4.0000000000000000e+00 0.0000000000000000e+00 5.0000000000000000e-01 
28 2 4 2.3317557049441873e+00 -1.0014154850132197e+03 1.0000000000000000e+00 4.0000000000000000e+00 1.6000000000000001e+00 5.0000000000000000e-01 
40 2 4 2.2938640322379165e+00 -5.7713920996900504e+02 1.0000000000000000e+00 6.0000000000000000e+00 0.0000000000000000e+00 5.0000000000000000e-01 
41 2 4 2.3317557049442459e+00 -1.0456269568567911e+03 1.0000000000000000e+00 6.0000000000000000e+00 1.6000000000000001e+00 5.0000000000000000e-01 
3 2 4 2.3317557049441877e+00 0.0000000000000000e+00 1.0000000000000000e+00 0.0000000000000000e+00 3.2000000000000002e+00 5.0000000000000000e-01 
16 2 4 2.3317557049441877e+00 -2.4900618664086369e+02 1.0000000000000000e+00 2.0000000000000000e+00 3.2000000000000002e+00 5.0000000000000000e-01 
29 2 4 2.3317557049441877e+00 -1.0295233511816382e+03 1.0000000000000000e+00 4.0000000000000000e+00 3.2000000000000002e+00 5.0000000000000000e-01 
42 2 4 2.3317557049441877e+00 -1.0654650297779431e+03 1.0000000000000000e+00 6.0000000000000000e+00 3.2000000000000002e+00 5.0000000000000000e-01 
4 2 4 2.3317557049441877e+00 -4.0820727146690046e-06 1.0000000000000000e+00 0.0000000000000000e+00 4.7999999999999998e+00 5.0000000000000000e-01 
17 2 4 2.3317557049441877e+00 -2.6482683570817153e+02 1.0000000000000000e+00 2.0000000000000000e+00 4.7999999999999998e+00 5.0000000000000000e-01 
30 2 4 2.3317557049441877e+00 -1.0345963851373090e+03 1.0000000000000000e+00 4.0000000000000000e+00 4.7999999999999998e+00 5.0000000000000000e-01 
43 2 4 2.3317557049441877e+00 -1.0660123490781182e+03 1.0000000000000000e+00 6.0000000000000000e+00 4.7999999999999998e+00 5.0000000000000000e-01 
5 2 4 2.3317557049441877e+00 1.0973614542677078e-07 1.0000000000000000e+00 0.0000000000000000e+00 6.4000000000000004e+00 5.0000000000000000e-01 
18 2 4 2.3317557049441877e+00 -1.9794843321529203e+02 1.0000000000000000e+00 2.0000000000000000e+00 6.4000000000000004e+00 5.0000000000000000e-01 
31 2 4 2.3317557049453312e+00 -9.9923059332830826e+02 1.0000000000000000e+00 4.0000000000000000e+00 6.4000000000000004e+00 5.0000000000000000e-01 
44 2 4 2.3317557049441877e+00 -1.0497110335553530e+03 1.0000000000000000e+00 6.0000000000000000e+00 6.4000000000000004e+00 5.0000000000000000e-01 
6 2 4 2.3317557049441882e+00 1.1476949435750330e-08 1.0000000000000000e+00 0.0000000000000000e+00 8.0000000000000000e+00 5.0000000000000000e-01 
7 2 4 2.3317557049441882e+00 0.0000000000000000e+00 1.0000000000000000e+00 0.0000000000000000e+00 9.5999999999999996e+00 5.0000000000000000e-01 
19 2 4 2.3317557049441882e+00 -3.0937959667931722e+02 1.0000000000000000e+00 2.0000000000000000e+00 8.0000000000000000e+00 5.0000000000000000e-01 
20 2 4 2.3317557049441882e+00 -1.5691643563109943e+02 1.0000000000000000e+00 2.0000000000000000e+00 9.5999999999999996e+00 5.0000000000000000e-01 
32 2 4 2.3317557049442685e+00 -1.0484595917425165e+03 1.0000000000000000e+00 4.0000000000000000e+00 8.0000000000000000e+00 5.0000000000000000e-01 
33 2 4 2.3317557049441882e+00 -9.6670393194534904e+02 1.0000000000000000e+00 4.0000000000000000e+00 9.5999999999999996e+00 5.0000000000000000e-01 
45 2 4 2.3317557049441882e+00 -1.0669018776051987e+03 1.0000000000000000e+00 6.0000000000000000e+00 8.0000000000000000e+00 5.0000000000000000e-01 
46 2 4 2.3317557049441882e+00 -1.0287108145840093e+03 1.0000000000000000e+00 6.0000000000000000e+00 9.5999999999999996e+00 5.0000000000000000e-01 
204 2 1 1.0280650166404868e+00 -1.1884218307302658e+03 1.0000000000000000e+00 5.2658046993884975e+00 1.3112108364335997e+00 3.3933883468328991e+00 
639 2 1 1.0280616673330008e+00 -8.4184131539337670e+01 1.0000000000000000e+00 5.2623828951312399e+00 1.3187765521342669e+00 3.4094072518537732e+00 
249 2 1 1.0280563909908369e+00 -7.3926211881938329e+01 1.0000000000000000e+00 5.2625109204793743e+00 1.3170416709808275e+00 3.3969785326662270e+00 
397 2 1 1.0279519198468468e+00 -9.5945000889509572e+01 1.0000000000000000e+00 1.0101086457078829e+00 5.6346028198023772e+00 3.2265373246150073e+00 
279 2 1 1.0279514224564741e+00 -8.9422157148911637e+01 1.0000000000000000e+00 1.0042566478078820e+00 5.6002460380581809e+00 3.2220070822554718e+00 
747 2 1 1.0278631174875132e+00 -6.6291976932435347e+01 1.0000000000000000e+00 1.0047864654968921e+00 5.5227679478126745e+00 3.2415008310374174e+00 
525 2 1 1.0278664822534815e+00 -7.6744086008465629e+01 1.0000000000000000e+00 3.2792474981177562e+00 5.7895202252489586e+00 3.3452724331990806e+00 
514 2 1 1.0280262291913702e+00 -8.8919903633204271e+01 1.0000000000000000e+00 3.2752990915339080e+00 5.6213327029368685e+00 3.3058737714957971e+00 
547 2 1 1.0280652277384879e+00 -4.6928951493283400e+01 1.0000000000000000e+00 2.6087872871603000e+00 5.3730679454519708e+00 3.4014283614450345e+00 
195 2 1 1.0279296113935583e+00 -1.0926571375410003e+03 1.0000000000000000e+00 5.0229540840424933e+00 5.5291084060598621e+00 3.2533687650769894e+00 
346 2 1 1.0281873951604701e+00 -5.2104807289484555e+01 1.0000000000000000e+00 5.1305900901459065e+00 5.5826489936174832e+00 3.2626063113045185e+00 
664 2 1 1.0279178482183875e+00 -5.0011939299340206e+01 1.0000000000000000e+00 4.6469881119111802e+00 7.2190960085152156e+00 3.3222645216761642e+00 
424 2 1 1.0280604539264413e+00 -6.1226186140110315e+01 1.0000000000000000e+00 5.5597158900010850e+00 6.4697983156668357e+00 3.4691527486057510e+00 
240 2 1 1.0278590328654529e+00 -5.7844099102548356e+01 1.0000000000000000e+00 4.9615687497570562e+00 7.3193913460392190e+00 3.2607874740748475e+00 
477 2 1 1.0280521447744535e+00 -6.5507759073707916e+01 1.0000000000000000e+00 4.9684092442577157e+00 8.9377593500685997e+00 3.3447383055539128e+00 
221 2 1 1.0279998784642081e+00 -8.0902517426197008e+01 1.0000000000000000e+00 4.5683140714770376e+00 9.2418341845941701e+00 3.4473152825458575e+00 
8 2 4 2.3317557049441873e+00 9.1845768486843401e-05 1.0000000000000000e+00 0.0000000000000000e+00 1.1199999999999999e+01 5.0000000000000000e-01 
21 2 4 2.3317557049441873e+00 -3.3896767123578127e+02 1.0000000000000000e+00 2.0000000000000000e+00 1.1199999999999999e+01 5.0000000000000000e-01 
34 2 4 2.3317557049441873e+00 -1.0550274012597156e+03 1.0000000000000000e+00 4.0000000000000000e+00 1.1199999999999999e+01 5.0000000000000000e-01 
47 2 4 2.3317557049441873e+00 -1.0650125108826376e+03 1.0000000000000000e+00 6.0000000000000000e+00 1.1199999999999999e+01 5.0000000000000000e-01 
9 2 4 2.3317557049441873e+00 0.0000000000000000e+00 1.0000000000000000e+00 0.0000000000000000e+00 1.2800000000000001e+01 5.0000000000000000e-01 
22 2 4 2.3317557049441873e+00 -1.3582277824618561e+02 1.0000000000000000e+00 2.0000000000000000e+00 1.2800000000000001e+01 5.0000000000000000e-01 
35 2 4 2.3317557049441873e+00 -9.4818913241620066e+02 1.0000000000000000e+00 4.0000000000000000e+00 1.2800000000000001e+01 5.0000000000000000e-01 
48 2 4 2.3317557049441873e+00 -1.0161262484805484e+03 1.0000000000000000e+00 6.0000000000000000e+00 1.2800000000000001e+01 5.0000000000000000e-01 
10 2 4 2.3317557049441882e+00 0.0000000000000000e+00 1.0000000000000000e+00 0.0000000000000000e+00 1.4400000000000000e+01 5.0000000000000000e-01 
23 2 4 2.3317557049441882e+00 -3.4736342911184454e+02 1.0000000000000000e+00 2.0000000000000000e+00 1.4400000000000000e+01 5.0000000000000000e-01 
36 2 4 2.3317557049441882e+00 -1.0569919433845325e+03 1.0000000000000000e+00 4.0000000000000000e+00 1.4400000000000000e+01 5.0000000000000000e-01 
49 2 4 2.3317557049441882e+00 -1.0643581663230104e+03 1.0000000000000000e+00 6.0000000000000000e+00 1.4400000000000000e+01 5.0000000000000000e-01 
11 2 4 2.3317557049441873e+00 0.0000000000000000e+00 1.0000000000000000e+00 0.0000000000000000e+00 1.6000000000000000e+01 5.0000000000000000e-01 
12 2 4 2.3317557049441877e+00 -4.0909894081967079e-10 1.0000000000000000e+00 0.0000000000000000e+00 1.7600000000000001e+01 5.0000000000000000e-01 
24 2 4 2.3317557049441908e+00 -1.3897805294419845e+02 1.0000000000000000e+00 2.0000000000000000e+00 1.6000000000000000e+01 5.0000000000000000e-01 
25 2 4 2.3317557049441877e+00 -3.3281444881237292e+02 1.0000000000000000e+00 2.0000000000000000e+00 1.7600000000000001e+01 5.0000000000000000e-01 
37 2 4 2.3317557049441873e+00 -9.5085302128596356e+02 1.0000000000000000e+00 4.0000000000000000e+00 1.6000000000000000e+01 5.0000000000000000e-01 
38 2 4 2.3317557049441877e+00 -1.0538011598788153e+03 1.0000000000000000e+00 4.0000000000000000e+00 1.7600000000000001e+01 5.0000000000000000e-01 
50 2 4 2.3317557049441873e+00 -1.0178642157851524e+03 1.0000000000000000e+00 6.0000000000000000e+00 1.6000000000000000e+01 5.0000000000000000e-01 
51 2 4 2.3317557049441877e+00 -1.0651234706539526e+03 1.0000000000000000e+00 6.0000000000000000e+00 1.7600000000000001e+01 5.0000000000000000e-01 
13 2 4 2.2938640322379173e+00 -2.4518693856925347e-05 1.0000000000000000e+00 0.0000000000000000e+00 1.9199999999999999e+01 5.0000000000000000e-01 
26 2 4 2.2938640322379173e+00 -1.4430765347631981e+02 1.0000000000000000e+00 2.0000000000000000e+00 1.9199999999999999e+01 5.0000000000000000e-01 
39 2 4 2.2938640322379173e+00 -7.7694628252443101e+02 1.0000000000000000e+00 4.0000000000000000e+00 1.9199999999999999e+01 5.0000000000000000e-01 
52 2 4 2.2938640322379173e+00 -8.2985987864166998e+02 1.0000000000000000e+00 6.0000000000000000e+00 1.9199999999999999e+01 5.0000000000000000e-01 
646 2 1 1.0280099898830939e+00 -4.8557246345796351e+01 1.0000000000000000e+00 5.0314393747866211e+00 1.0229809005200496e+01 3.2692040752843532e+00 
378 2 1 1.0278812581957213e+00 -7.7295769722219575e+01 1.0000000000000000e+00 4.8406696594055418e+00 1.0141120061567712e+01 3.3488644949956692e+00 
317 2 1 1.0280015707038235e+00 -6.4397858423900047e+01 1.0000000000000000e+00 3.9215540983694397e+00 1.6761075597581229e+01 3.4025188483388651e+00 
563 2 1 1.0280084640781115e+00 -7.5931448103232455e+01 1.0000000000000000e+00 3.9185857651823803e+00 1.6765697256617550e+01 3.4178029510657160e+00 
744 2 1 1.0280013906859522e+00 -1.4826382802726741e+01 1.0000000000000000e+00 2.9874534465026494e+00 1.6794646230494724e+01 3.2184713208821769e+00 
482 2 1 1.0279896935667840e+00 -1.1379888064479650e+02 1.0000000000000000e+00 2.9852571374765908e+00 1.6778844822463071e+01 3.2272951912914065e+00 
53 2 4 2.2938640322379165e+00 -5.7729983676863844e+02 1.0000000000000000e+00 8.0000000000000000e+00 0.0000000000000000e+00 5.0000000000000000e-01 
54 2 4 2.3317557049441873e+00 -1.0458161091067072e+03 1.0000000000000000e+00 8.0000000000000000e+00 1.6000000000000001e+00 5.0000000000000000e-01 
66 2 4 2.2938640322379165e+00 -5.7730524698298984e+02 1.0000000000000000e+00 1.0000000000000000e+01 0.0000000000000000e+00 5.0000000000000000e-01 
67 2 4 2.3317557049441873e+00 -1.0458228297227770e+03 1.0000000000000000e+00 1.0000000000000000e+01 1.6000000000000001e+00 5.0000000000000000e-01 
79 2 4 2.2938640322379165e+00 -5.7720396877419114e+02 1.0000000000000000e+00 1.2000000000000000e+01 0.0000000000000000e+00 5.0000000000000000e-01 
80 2 4 2.3317557049441873e+00 -1.0457704505080505e+03 1.0000000000000000e+00 1.2000000000000000e+01 1.6000000000000001e+00 5.0000000000000000e-01 
55 2 4 2.3317557049441877e+00 -1.0656644156331597e+03 1.0000000000000000e+00 8.0000000000000000e+00 3.2000000000000002e+00 5.0000000000000000e-01 
68 2 4 2.3317557049441877e+00 -1.0656710651425788e+03 1.0000000000000000e+00 1.0000000000000000e+01 3.2000000000000002e+00 5.0000000000000000e-01 
81 2 4 2.3317557049441877e+00 -1.0656091110668992e+03 1.0000000000000000e+00 1.2000000000000000e+01 3.2000000000000002e+00 5.0000000000000000e-01 
56 2 4 2.3317557049441877e+00 -1.0662218107082670e+03 1.0000000000000000e+00 8.0000000000000000e+00 4.7999999999999998e+00 5.0000000000000000e-01 
69 2 4 2.3317557049441877e+00 -1.0662280570974483e+03 1.0000000000000000e+00 1.0000000000000000e+01 4.7999999999999998e+00 5.0000000000000000e-01 
82 2 4 2.3317557049441877e+00 -1.0661577138627604e+03 1.0000000000000000e+00 1.2000000000000000e+01 4.7999999999999998e+00 5.0000000000000000e-01 
57 2 4 2.3317557049441877e+00 -1.0499190283359399e+03 1.0000000000000000e+00 8.0000000000000000e+00 6.4000000000000004e+00 5.0000000000000000e-01 
70 2 4 2.3317557049441877e+00 -1.0499251729808398e+03 1.0000000000000000e+00 1.0000000000000000e+01 6.4000000000000004e+00 5.0000000000000000e-01 
83 2 4 2.3317557049441877e+00 -1.0498799682786707e+03 1.0000000000000000e+00 1.2000000000000000e+01 6.4000000000000004e+00 5.0000000000000000e-01 
58 2 4 2.3317557049441882e+00 -1.0671212207602930e+03 1.0000000000000000e+00 8.0000000000000000e+00 8.0000000000000000e+00 5.0000000000000000e-01 
59 2 4 2.3317557049441882e+00 -1.0289287256001644e+03 1.0000000000000000e+00 8.0000000000000000e+00 9.5999999999999996e+00 5.0000000000000000e-01 
71 2 4 2.3317557049441882e+00 -1.0671331315135171e+03 1.0000000000000000e+00 1.0000000000000000e+01 8.0000000000000000e+00 5.0000000000000000e-01 
72 2 4 2.3317557049441882e+00 -1.0289362403799291e+03 1.0000000000000000e+00 1.0000000000000000e+01 9.5999999999999996e+00 5.0000000000000000e-01 
84 2 4 2.3317557049441882e+00 -1.0670403734563333e+03 1.0000000000000000e+00 1.2000000000000000e+01 8.0000000000000000e+00 5.0000000000000000e-01 
85 2 4 2.3317557049441882e+00 -1.0289001441060968e+03 1.0000000000000000e+00 1.2000000000000000e+01 9.5999999999999996e+00 5.0000000000000000e-01 
657 2 1 1.0281351817883591e+00 -4.5749527029484312e+01 1.0000000000000000e+00 8.2562186871683014e+00 3.9769997826979457e+00 3.4073775205758832e+00 
493 2 1 1.0278930081149300e+00 -9.3618713467657940e+01 1.0000000000000000e+00 7.0287890782635261e+00 2.3354226604640460e+00 3.2772716950340510e+00 
624 2 1 1.0277134431546966e+00 -1.2383679556525607e+02 1.0000000000000000e+00 7.0086779410617375e+00 2.0897315173608781e+00 3.2924007150980290e+00 
452 2 1 1.0282622799938348e+00 -4.9275295158130923e+01 1.0000000000000000e+00 6.8585471225342394e+00 2.4938951477357931e+00 3.3509479647684408e+00 
473 2 1 1.0280743515716841e+00 -6.8423657859139951e+01 1.0000000000000000e+00 9.0499962379493137e+00 3.7275858754113100e+00 3.5025110228454328e+00 
358 2 1 1.0277185789708030e+00 -5.5874781137533667e+01 1.0000000000000000e+00 8.3898617867352616e+00 4.2624655211848710e+00 3.4645508568658800e+00 
410 2 1 1.0281238042262022e+00 -2.2750259439396526e+01 1.0000000000000000e+00 9.5245928229354710e+00 4.2989889393605347e+00 3.6313411647498266e+00 
440 2 1 1.0279689145192306e+00 -5.9914950960974949e+01 1.0000000000000000e+00 1.0173753790453999e+01 5.4596192943825699e+00 3.6270255526132043e+00 
501 2 1 1.0281420155855630e+00 -5.5376501760748447e+01 1.0000000000000000e+00 1.0665274900341920e+01 5.8970051188288046e+00 3.4868576501743962e+00 
696 2 1 1.0279471720551165e+00 -7.9555942219356240e+01 1.0000000000000000e+00 1.0146063542288202e+01 6.3116033392623514e+00 3.5917801150806659e+00 
557 2 1 1.0279405865786335e+00 -4.1621846717799777e+01 1.0000000000000000e+00 1.0796269084420269e+01 7.0036411041191311e+00 3.3537856176380982e+00 
220 2 1 1.0279121317167346e+00 -9.1996981855973047e+01 1.0000000000000000e+00 1.3076958389082851e+01 7.2081449386880889e+00 3.2469373237932357e+00 
532 2 1 1.0278905421347093e+00 -8.2269272631905309e+01 1.0000000000000000e+00 1.3127169777020931e+01 7.1304263740682217e+00 3.3042340289155021e+00 
361 2 1 1.0279543023192990e+00 -9.1759195866382115e+01 1.0000000000000000e+00 1.3133757762416291e+01 7.1695230051824339e+00 3.2958314567810238e+00 
604 2 1 1.0278677330132420e+00 -7.1914862136712614e+01 1.0000000000000000e+00 1.1054726355567833e+01 8.1885529614360841e+00 3.6263481781648572e+00 
715 2 1 1.0284085880703888e+00 -3.4010410509853273e+01 1.0000000000000000e+00 1.1135010373987994e+01 8.7611115193420090e+00 3.3189414568212023e+00 
177 2 1 1.0279743210189975e+00 -1.1882001060643074e+03 1.0000000000000000e+00 1.1736727974196244e+01 8.4857758739310700e+00 3.5099716633024602e+00 
60 2 4 2.3317557049441873e+00 -1.0652358944846899e+03 1.0000000000000000e+00 8.0000000000000000e+00 1.1199999999999999e+01 5.0000000000000000e-01 
73 2 4 2.3317557049441873e+00 -1.0652461142615264e+03 1.0000000000000000e+00 1.0000000000000000e+01 1.1199999999999999e+01 5.0000000000000000e-01 
86 2 4 2.3317557049441873e+00 -1.0651456759733937e+03 1.0000000000000000e+00 1.2000000000000000e+01 1.1199999999999999e+01 5.0000000000000000e-01 
61 2 4 2.3317557049441873e+00 -1.0163523011427465e+03 1.0000000000000000e+00 8.0000000000000000e+00 1.2800000000000001e+01 5.0000000000000000e-01 
74 2 4 2.3317557049441873e+00 -1.0163597478694696e+03 1.0000000000000000e+00 1.0000000000000000e+01 1.2800000000000001e+01 5.0000000000000000e-01 
87 2 4 2.3317557049441873e+00 -1.0163272954942561e+03 1.0000000000000000e+00 1.2000000000000000e+01 1.2800000000000001e+01 5.0000000000000000e-01 
62 2 4 2.3317557049441882e+00 -1.0645838416198062e+03 1.0000000000000000e+00 8.0000000000000000e+00 1.4400000000000000e+01 5.0000000000000000e-01 
75 2 4 2.3317557049441882e+00 -1.0645941948115785e+03 1.0000000000000000e+00 1.0000000000000000e+01 1.4400000000000000e+01 5.0000000000000000e-01 
88 2 4 2.3317557049441882e+00 -1.0644906754416470e+03 1.0000000000000000e+00 1.2000000000000000e+01 1.4400000000000000e+01 5.0000000000000000e-01 
63 2 4 2.3317557049441873e+00 -1.0180859758433724e+03 1.0000000000000000e+00 8.0000000000000000e+00 1.6000000000000000e+01 5.0000000000000000e-01 
64 2 4 2.3317557049441877e+00 -1.0653165470779329e+03 1.0000000000000000e+00 8.0000000000000000e+00 1.7600000000000001e+01 5.0000000000000000e-01 
76 2 4 2.3317557049441873e+00 -1.0180933167773057e+03 1.0000000000000000e+00 1.0000000000000000e+01 1.6000000000000000e+01 5.0000000000000000e-01 
77 2 4 2.3317557049441877e+00 -1.0653255190195523e+03 1.0000000000000000e+00 1.0000000000000000e+01 1.7600000000000001e+01 5.0000000000000000e-01 
89 2 4 2.3317557049441873e+00 -1.0180614069409467e+03 1.0000000000000000e+00 1.2000000000000000e+01 1.6000000000000000e+01 5.0000000000000000e-01 
90 2 4 2.3317557049441877e+00 -1.0652409711370797e+03 1.0000000000000000e+00 1.2000000000000000e+01 1.7600000000000001e+01 5.0000000000000000e-01 
65 2 4 2.2938640322379173e+00 -8.3009654105843288e+02 1.0000000000000000e+00 8.0000000000000000e+00 1.9199999999999999e+01 5.0000000000000000e-01 
78 2 4 2.2938640322379173e+00 -8.3009994915293203e+02 1.0000000000000000e+00 1.0000000000000000e+01 1.9199999999999999e+01 5.0000000000000000e-01 
91 2 4 2.2938640322379173e+00 -8.3009805321426848e+02 1.0000000000000000e+00 1.2000000000000000e+01 1.9199999999999999e+01 5.0000000000000000e-01 
155 2 1 1.0281901253385257e+00 -1.1490183896081467e+03 1.0000000000000000e+00 6.9679296091421747e+00 1.0395209653691674e+01 3.2895061542157484e+00 
180 2 1 1.0279028017462624e+00 -1.1532096267976401e+03 1.0000000000000000e+00 6.7951434227671257e+00 1.0349841358683140e+01 3.4018348110269563e+00 
217 2 1 1.0280503336195896e+00 -7.5556415652691783e+01 1.0000000000000000e+00 7.2528682419067501e+00 1.0169518655403772e+01 3.3588775782626930e+00 
467 2 1 1.0277502202562239e+00 -9.5371977165975295e+01 1.0000000000000000e+00 8.9514552523520177e+00 1.0458933588472854e+01 3.2758148593948353e+00 
351 2 1 1.0280300548096599e+00 -9.1279282586893117e+01 1.0000000000000000e+00 8.9500258398949821e+00 1.0440212200367155e+01 3.3736643427411810e+00 
293 2 1 1.0283387642562245e+00 -7.0883056407743382e+01 1.0000000000000000e+00 9.8876550086268864e+00 1.0619952066677467e+01 3.4866431400927644e+00 
447 2 1 1.0277798500818964e+00 -6.1797184434037248e+01 1.0000000000000000e+00 1.1108299689281491e+01 1.0447697834450528e+01 3.3427762272003041e+00 
561 2 1 1.0278803823823826e+00 -5.2675122939608009e+01 1.0000000000000000e+00 1.1326266501657660e+01 1.0415196523803044e+01 3.3361850916056919e+00 
540 2 1 1.0280032969515935e+00 -8.1224070958513408e+01 1.0000000000000000e+00 1.2561351513052550e+01 1.1662081285331071e+01 3.4853800417871676e+00 
582 2 1 1.0279962567263856e+00 -6.8578156997023910e+01 1.0000000000000000e+00 1.2544843172119540e+01 1.1421195940610987e+01 3.4899994689962832e+00 
451 2 1 1.0278985241565373e+00 -5.0449274590589084e+01 1.0000000000000000e+00 8.7501273358206557e+00 1.2294897803028007e+01 3.4038753821854604e+00 
686 2 1 1.0280429125314261e+00 -3.7852338765979226e+01 1.0000000000000000e+00 8.8767315223869776e+00 1.2564137505060653e+01 3.3709497743157550e+00 
338 2 1 1.0281556637514218e+00 -4.6291942942333058e+01 1.0000000000000000e+00 9.0475721847311288e+00 1.2732487866894258e+01 3.5933868158586741e+00 
310 2 1 1.0282971654301991e+00 -1.1202596269403388e+02 1.0000000000000000e+00 1.0484540916451936e+01 1.3354964959144016e+01 3.4501044213140042e+00 
483 2 1 1.0283335244351617e+00 -6.8690052233896807e+01 1.0000000000000000e+00 1.1004800437597959e+01 1.3597764149100716e+01 3.2604688338996870e+00 
382 2 1 1.0281305051146967e+00 -7.6980718029311006e+01 1.0000000000000000e+00 1.0951101786893600e+01 1.3557333174985628e+01 3.2892116550234767e+00 
422 2 1 1.0282988574191549e+00 -7.3713778800375991e+01 1.0000000000000000e+00 1.2351162796239851e+01 1.2001505845731327e+01 3.3729118241804610e+00 
325 2 1 1.0278768341997171e+00 -5.4617145404253428e+01 1.0000000000000000e+00 1.2882397834379519e+01 1.3831079183486645e+01 3.3314094849060192e+00 
236 2 1 1.0280121833413165e+00 -6.0528536745984013e+01 1.0000000000000000e+00 1.2476051883869197e+01 1.4968664033819856e+01 3.4208461124893987e+00 
344 2 1 1.0279734638350309e+00 -5.5559695229620928e+01 1.0000000000000000e+00 1.2649055998722227e+01 1.5000459052366391e+01 3.4529863643325740e+00 
419 2 1 1.0280614302758750e+00 -4.7013541551375717e+01 1.0000000000000000e+00 1.3156984499510148e+01 1.4302800958159953e+01 3.3883777633359409e+00 
92 2 4 2.2938640322379165e+00 -5.7592621944564451e+02 1.0000000000000000e+00 1.4000000000000000e+01 0.0000000000000000e+00 5.0000000000000000e-01 
93 2 4 2.3317557049441873e+00 -1.0444147820905312e+03 1.0000000000000000e+00 1.4000000000000000e+01 1.6000000000000001e+00 5.0000000000000000e-01 
105 2 4 2.2938640322379165e+00 -2.6932030105087489e+02 1.0000000000000000e+00 1.6000000000000000e+01 0.0000000000000000e+00 5.0000000000000000e-01 
106 2 4 2.3317557049488200e+00 -7.3721880148413618e+02 1.0000000000000000e+00 1.6000000000000000e+01 1.6000000000000001e+00 5.0000000000000000e-01 
118 2 4 2.2938640322379165e+00 -7.9143895183667588e-06 1.0000000000000000e+00 1.8000000000000000e+01 0.0000000000000000e+00 5.0000000000000000e-01 
119 2 4 2.3317557049441873e+00 -2.7454270010981045e+01 1.0000000000000000e+00 1.8000000000000000e+01 1.6000000000000001e+00 5.0000000000000000e-01 
94 2 4 2.3317557049441877e+00 -1.0643985212310572e+03 1.0000000000000000e+00 1.4000000000000000e+01 3.2000000000000002e+00 5.0000000000000000e-01 
107 2 4 2.3317557049448139e+00 -7.0666212891836858e+02 1.0000000000000000e+00 1.6000000000000000e+01 3.2000000000000002e+00 5.0000000000000000e-01 
120 2 4 2.3317557049441877e+00 -2.0342881889016805e+01 1.0000000000000000e+00 1.8000000000000000e+01 3.2000000000000002e+00 5.0000000000000000e-01 
95 2 4 2.3317557049441877e+00 -1.0649321454950648e+03 1.0000000000000000e+00 1.4000000000000000e+01 4.7999999999999998e+00 5.0000000000000000e-01 
108 2 4 2.3317557049441877e+00 -6.8725164748195641e+02 1.0000000000000000e+00 1.6000000000000000e+01 4.7999999999999998e+00 5.0000000000000000e-01 
121 2 4 2.3317557049441877e+00 -1.7145298802970391e+01 1.0000000000000000e+00 1.8000000000000000e+01 4.7999999999999998e+00 5.0000000000000000e-01 
96 2 4 2.3317557049441877e+00 -1.0486191738941902e+03 1.0000000000000000e+00 1.4000000000000000e+01 6.4000000000000004e+00 5.0000000000000000e-01 
109 2 4 2.3317557049441877e+00 -7.5810881484373067e+02 1.0000000000000000e+00 1.6000000000000000e+01 6.4000000000000004e+00 5.0000000000000000e-01 
122 2 4 2.3317557049441877e+00 -3.0606242948195479e+01 1.0000000000000000e+00 1.8000000000000000e+01 6.4000000000000004e+00 5.0000000000000000e-01 
97 2 4 2.3317557049441882e+00 -1.0658538866853200e+03 1.0000000000000000e+00 1.4000000000000000e+01 8.0000000000000000e+00 5.0000000000000000e-01 
98 2 4 2.3317557049441882e+00 -1.0276126134543099e+03 1.0000000000000000e+00 1.4000000000000000e+01 9.5999999999999996e+00 5.0000000000000000e-01 
110 2 4 2.3317557049441882e+00 -6.3446676214174579e+02 1.0000000000000000e+00 1.6000000000000000e+01 8.0000000000000000e+00 5.0000000000000000e-01 
111 2 4 2.3317557049441882e+00 -7.9410854346200540e+02 1.0000000000000000e+00 1.6000000000000000e+01 9.5999999999999996e+00 5.0000000000000000e-01 
123 2 4 2.3317557049441882e+00 -8.1798577122165508e+00 1.0000000000000000e+00 1.8000000000000000e+01 8.0000000000000000e+00 5.0000000000000000e-01 
124 2 4 2.3317557049441882e+00 -3.9015590405393098e+01 1.0000000000000000e+00 1.8000000000000000e+01 9.5999999999999996e+00 5.0000000000000000e-01 
393 2 1 1.0280245059781545e+00 -5.5686009248505322e+01 1.0000000000000000e+00 1.4957286848880253e+01 8.1935668549006790e-01 3.2384557825504472e+00 
641 2 1 1.0280743204660920e+00 -1.2652408325209078e+02 1.0000000000000000e+00 1.5019730608692990e+01 7.9274519360175266e-01 3.2249185541636072e+00 
156 2 1 1.0280494982224617e+00 -1.1328336560050773e+03 1.0000000000000000e+00 1.5234364501498263e+01 8.0577823852059027e-01 3.3028388986490542e+00 
190 2 1 1.0280600806568210e+00 -1.2140323335557596e+03 1.0000000000000000e+00 1.5016739710827784e+01 2.7430144249085067e+00 3.3044381781894487e+00 
390 2 1 1.0278987056438791e+00 -4.7353939917862604e+01 1.0000000000000000e+00 1.4957173773027813e+01 3.9016251524437129e+00 3.2732019043943668e+00 
589 2 1 1.0279713817500744e+00 -8.5951177548416794e+01 1.0000000000000000e+00 1.5500884383371700e+01 2.3978619067758280e+00 3.3454595022857210e+00 
154 2 1 1.0279597150084601e+00 -1.1747806011531700e+03 1.0000000000000000e+00 1.5946169391078691e+01 3.8937751745978488e+00 3.5020406345971784e+00 
381 2 1 1.0282513468584216e+00 -4.2086305997178904e+01 1.0000000000000000e+00 1.4997623906181245e+01 5.8765272456912561e+00 3.3306731812164303e+00 
226 2 1 1.0280652281679052e+00 -7.7410464829204884e+01 1.0000000000000000e+00 1.4971441373782859e+01 5.9009707119399630e+00 3.3470432835599131e+00 
296 2 1 1.0279958923001999e+00 -1.6059307997516223e+02 1.0000000000000000e+00 1.4866655048995025e+01 5.9840940836048357e+00 3.3539191189707362e+00 
228 2 1 1.0281367194573674e+00 -8.3580600322166163e+01 1.0000000000000000e+00 1.5910163603674210e+01 4.0432047861483325e+00 3.4369218636903023e+00 
99 2 4 2.3317557049441873e+00 -1.0640130626586672e+03 1.0000000000000000e+00 1.4000000000000000e+01 1.1199999999999999e+01 5.0000000000000000e-01 
112 2 4 2.3317557049441873e+00 -5.9901448660454105e+02 1.0000000000000000e+00 1.6000000000000000e+01 1.1199999999999999e+01 5.0000000000000000e-01 
125 2 4 2.3317557049441873e+00 -2.3700580364554931e+00 1.0000000000000000e+00 1.8000000000000000e+01 1.1199999999999999e+01 5.0000000000000000e-01 
100 2 4 2.3317557049441873e+00 -1.0150056272079456e+03 1.0000000000000000e+00 1.4000000000000000e+01 1.2800000000000001e+01 5.0000000000000000e-01 
113 2 4 2.3317557049441873e+00 -8.1182679464177340e+02 1.0000000000000000e+00 1.6000000000000000e+01 1.2800000000000001e+01 5.0000000000000000e-01 
126 2 4 2.3317557049441873e+00 -4.3456336626193973e+01 1.0000000000000000e+00 1.8000000000000000e+01 1.2800000000000001e+01 5.0000000000000000e-01 
101 2 4 2.3317557049441882e+00 -1.0633835964610871e+03 1.0000000000000000e+00 1.4000000000000000e+01 1.4400000000000000e+01 5.0000000000000000e-01 
114 2 4 2.3317557049441882e+00 -5.8917253925319153e+02 1.0000000000000000e+00 1.6000000000000000e+01 1.4400000000000000e+01 5.0000000000000000e-01 
127 2 4 2.3317557049441882e+00 -5.8365440987250750e-01 1.0000000000000000e+00 1.8000000000000000e+01 1.4400000000000000e+01 5.0000000000000000e-01 
102 2 4 2.3317557049441873e+00 -1.0167589988026189e+03 1.0000000000000000e+00 1.4000000000000000e+01 1.6000000000000000e+01 5.0000000000000000e-01 
103 2 4 2.3317557049441877e+00 -1.0641816288685970e+03 1.0000000000000000e+00 1.4000000000000000e+01 1.7600000000000001e+01 5.0000000000000000e-01 
115 2 4 2.3317557049441873e+00 -8.0904861755971240e+02 1.0000000000000000e+00 1.6000000000000000e+01 1.6000000000000000e+01 5.0000000000000000e-01 
116 2 4 2.3317557049441877e+00 -6.0605681204574091e+02 1.0000000000000000e+00 1.6000000000000000e+01 1.7600000000000001e+01 5.0000000000000000e-01 
128 2 4 2.3317557049441873e+00 -4.2784800189747088e+01 1.0000000000000000e+00 1.8000000000000000e+01 1.6000000000000000e+01 5.0000000000000000e-01 
129 2 4 2.3317557049441877e+00 -3.4995362400233350e+00 1.0000000000000000e+00 1.8000000000000000e+01 1.7600000000000001e+01 5.0000000000000000e-01 
104 2 4 2.2938640322379173e+00 -8.2839932764966125e+02 1.0000000000000000e+00 1.4000000000000000e+01 1.9199999999999999e+01 5.0000000000000000e-01 
117 2 4 2.2938640322379173e+00 -6.1362856465476330e+02 1.0000000000000000e+00 1.6000000000000000e+01 1.9199999999999999e+01 5.0000000000000000e-01 
130 2 4 2.2938640322379173e+00 -3.2776953931099790e+01 1.0000000000000000e+00 1.8000000000000000e+01 1.9199999999999999e+01 5.0000000000000000e-01 