LAMMPS data file via write_data, version 30 Jul 2016, timestep = 1000000

2080 atoms
8 atom types

0.0000000000000000e+00 4.0000000000000000e+01 xlo xhi
0.0000000000000000e+00 4.0000000000000000e+01 ylo yhi
0.0000000000000000e+00 1.0000000000000000e+02 zlo zhi

Masses

1 3.896
2 10.72
3 1058.08
4 8.378
5 8.378
6 8.378
7 8.378
8 8.378

Atoms # meso-molecular

1 2 4 2.2559723595316457e+00 9.8701877977606856e-01 4.2000000000000000e+03 0.0000000000000000e+00 0.0000000000000000e+00 2.5000000000000000e+00 
2 2 4 2.2559723595316457e+00 1.0059305286861266e+00 4.2000000000000000e+03 0.0000000000000000e+00 2.0000000000000000e+00 2.5000000000000000e+00 
3 2 4 2.2559723595316457e+00 1.0002621985943092e+00 4.2000000000000000e+03 0.0000000000000000e+00 4.0000000000000000e+00 2.5000000000000000e+00 
21 2 4 2.2559723595316457e+00 9.6979776327953904e-01 4.2000000000000000e+03 2.0000000000000000e+00 0.0000000000000000e+00 2.5000000000000000e+00 
22 2 4 2.2559723595316457e+00 9.9451552599638271e-01 4.2000000000000000e+03 2.0000000000000000e+00 2.0000000000000000e+00 2.5000000000000000e+00 
23 2 4 2.2559723595316457e+00 9.9959059434063846e-01 4.2000000000000000e+03 2.0000000000000000e+00 4.0000000000000000e+00 2.5000000000000000e+00 
41 2 4 2.2559723595316457e+00 9.9462978262409130e-01 4.2000000000000000e+03 4.0000000000000000e+00 0.0000000000000000e+00 2.5000000000000000e+00 
42 2 4 2.2559723595316457e+00 9.9602371304452098e-01 4.2000000000000000e+03 4.0000000000000000e+00 2.0000000000000000e+00 2.5000000000000000e+00 
43 2 4 2.2559723595316457e+00 9.9969551307218341e-01 4.2000000000000000e+03 4.0000000000000000e+00 4.0000000000000000e+00 2.5000000000000000e+00 
61 2 4 2.2559723595316457e+00 9.6115079835095885e-01 4.2000000000000000e+03 6.0000000000000000e+00 0.0000000000000000e+00 2.5000000000000000e+00 
62 2 4 2.2559723595316457e+00 1.0052705745501975e+00 4.2000000000000000e+03 6.0000000000000000e+00 2.0000000000000000e+00 2.5000000000000000e+00 
63 2 4 2.2559723595316457e+00 9.9955445678955623e-01 4.2000000000000000e+03 6.0000000000000000e+00 4.0000000000000000e+00 2.5000000000000000e+00 
81 2 4 2.2559723595316457e+00 9.5802094806375893e-01 4.2000000000000000e+03 8.0000000000000000e+00 0.0000000000000000e+00 2.5000000000000000e+00 
82 2 4 2.2559723595316457e+00 1.0021775268364705e+00 4.2000000000000000e+03 8.0000000000000000e+00 2.0000000000000000e+00 2.5000000000000000e+00 
83 2 4 2.2559723595316457e+00 9.9115129906221644e-01 4.2000000000000000e+03 8.0000000000000000e+00 4.0000000000000000e+00 2.5000000000000000e+00 
101 2 4 2.2559723595316457e+00 1.0003560445861397e+00 4.2000000000000000e+03 1.0000000000000000e+01 0.0000000000000000e+00 2.5000000000000000e+00 
102 2 4 2.2559723595316457e+00 9.8903566667205389e-01 4.2000000000000000e+03 1.0000000000000000e+01 2.0000000000000000e+00 2.5000000000000000e+00 
103 2 4 2.2559723595316457e+00 9.9067664628747087e-01 4.2000000000000000e+03 1.0000000000000000e+01 4.0000000000000000e+00 2.5000000000000000e+00 
121 2 4 2.2559723595316457e+00 1.0000000000000000e+00 4.2000000000000000e+03 1.2000000000000000e+01 0.0000000000000000e+00 2.5000000000000000e+00 
122 2 4 2.2559723595316457e+00 1.0048076688980934e+00 4.2000000000000000e+03 1.2000000000000000e+01 2.0000000000000000e+00 2.5000000000000000e+00 
123 2 4 2.2559723595316457e+00 1.0023282360241241e+00 4.2000000000000000e+03 1.2000000000000000e+01 4.0000000000000000e+00 2.5000000000000000e+00 
141 2 4 2.2559723595316457e+00 1.0000000000000000e+00 4.2000000000000000e+03 1.4000000000000000e+01 0.0000000000000000e+00 2.5000000000000000e+00 
142 2 4 2.2559723595316457e+00 1.0000290545536092e+00 4.2000000000000000e+03 1.4000000000000000e+01 2.0000000000000000e+00 2.5000000000000000e+00 
143 2 4 2.2559723595316457e+00 1.0073309055821906e+00 4.2000000000000000e+03 1.4000000000000000e+01 4.0000000000000000e+00 2.5000000000000000e+00 
161 2 4 2.2559723595316457e+00 1.0000000000000000e+00 4.2000000000000000e+03 1.6000000000000000e+01 0.0000000000000000e+00 2.5000000000000000e+00 
162 2 4 2.2559723595316457e+00 9.9979802301637655e-01 4.2000000000000000e+03 1.6000000000000000e+01 2.0000000000000000e+00 2.5000000000000000e+00 
163 2 4 2.2559723595316457e+00 1.0024024630539410e+00 4.2000000000000000e+03 1.6000000000000000e+01 4.0000000000000000e+00 2.5000000000000000e+00 
181 2 4 2.2559723595316457e+00 9.8278547296695917e-01 4.2000000000000000e+03 1.8000000000000000e+01 0.0000000000000000e+00 2.5000000000000000e+00 
182 2 4 2.2559723595316457e+00 9.9582221954885286e-01 4.2000000000000000e+03 1.8000000000000000e+01 2.0000000000000000e+00 2.5000000000000000e+00 
183 2 4 2.2559723595316457e+00 9.8785191877902490e-01 4.2000000000000000e+03 1.8000000000000000e+01 4.0000000000000000e+00 2.5000000000000000e+00 
4 2 4 2.2559723595316457e+00 9.7756735409291828e-01 4.2000000000000000e+03 0.0000000000000000e+00 6.0000000000000000e+00 2.5000000000000000e+00 
5 2 4 2.2559723595316457e+00 9.5972645935877365e-01 4.2000000000000000e+03 0.0000000000000000e+00 8.0000000000000000e+00 2.5000000000000000e+00 
24 2 4 2.2559723595316457e+00 9.9521528531685011e-01 4.2000000000000000e+03 2.0000000000000000e+00 6.0000000000000000e+00 2.5000000000000000e+00 
25 2 4 2.2559723595316457e+00 1.0049320541761126e+00 4.2000000000000000e+03 2.0000000000000000e+00 8.0000000000000000e+00 2.5000000000000000e+00 
44 2 4 2.2559723595316457e+00 9.9660975065307422e-01 4.2000000000000000e+03 4.0000000000000000e+00 6.0000000000000000e+00 2.5000000000000000e+00 
45 2 4 2.2559723595316457e+00 9.9549380068064197e-01 4.2000000000000000e+03 4.0000000000000000e+00 8.0000000000000000e+00 2.5000000000000000e+00 
64 2 4 2.2559723595316457e+00 9.8983616115306416e-01 4.2000000000000000e+03 6.0000000000000000e+00 6.0000000000000000e+00 2.5000000000000000e+00 
65 2 4 2.2559723595316457e+00 9.6137460784350570e-01 4.2000000000000000e+03 6.0000000000000000e+00 8.0000000000000000e+00 2.5000000000000000e+00 
84 2 4 2.2559723595316457e+00 9.9231830071697935e-01 4.2000000000000000e+03 8.0000000000000000e+00 6.0000000000000000e+00 2.5000000000000000e+00 
85 2 4 2.2559723595316457e+00 9.9176398124480758e-01 4.2000000000000000e+03 8.0000000000000000e+00 8.0000000000000000e+00 2.5000000000000000e+00 
104 2 4 2.2559723595316457e+00 9.9759723005130363e-01 4.2000000000000000e+03 1.0000000000000000e+01 6.0000000000000000e+00 2.5000000000000000e+00 
105 2 4 2.2559723595316457e+00 9.9202868551425882e-01 4.2000000000000000e+03 1.0000000000000000e+01 8.0000000000000000e+00 2.5000000000000000e+00 
124 2 4 2.2559723595316457e+00 9.9871711689521969e-01 4.2000000000000000e+03 1.2000000000000000e+01 6.0000000000000000e+00 2.5000000000000000e+00 
125 2 4 2.2559723595316457e+00 -5.2891898788553434e+01 4.2000000000000000e+03 1.2000000000000000e+01 8.0000000000000000e+00 2.5000000000000000e+00 
144 2 4 2.2559723595316457e+00 -5.2900146644773301e+01 4.2000000000000000e+03 1.4000000000000000e+01 6.0000000000000000e+00 2.5000000000000000e+00 
145 2 4 2.2559723595316457e+00 -9.3027200521448185e+02 4.2000000000000000e+03 1.4000000000000000e+01 8.0000000000000000e+00 2.5000000000000000e+00 
164 2 4 2.2559723595316457e+00 -2.2903063562161563e+02 4.2000000000000000e+03 1.6000000000000000e+01 6.0000000000000000e+00 2.5000000000000000e+00 
165 2 4 2.2559723595316457e+00 -2.6168235869143837e+03 4.2000000000000000e+03 1.6000000000000000e+01 8.0000000000000000e+00 2.5000000000000000e+00 
184 2 4 2.2559723595316457e+00 -2.9024153499445072e+02 4.2000000000000000e+03 1.8000000000000000e+01 6.0000000000000000e+00 2.5000000000000000e+00 
185 2 4 2.2559723595316457e+00 -3.5632397506294792e+03 4.2000000000000000e+03 1.8000000000000000e+01 8.0000000000000000e+00 2.5000000000000000e+00 
6 2 4 2.2559723595316457e+00 9.7849593289356551e-01 4.2000000000000000e+03 0.0000000000000000e+00 1.0000000000000000e+01 2.5000000000000000e+00 
7 2 4 2.2559723595316457e+00 1.0126510243454598e+00 4.2000000000000000e+03 0.0000000000000000e+00 1.2000000000000000e+01 2.5000000000000000e+00 
8 2 4 2.2559723595316457e+00 1.0052032775672404e+00 4.2000000000000000e+03 0.0000000000000000e+00 1.4000000000000000e+01 2.5000000000000000e+00 
26 2 4 2.2559723595316457e+00 1.0021149868617560e+00 4.2000000000000000e+03 2.0000000000000000e+00 1.0000000000000000e+01 2.5000000000000000e+00 
27 2 4 2.2559723595316457e+00 9.9826559135669279e-01 4.2000000000000000e+03 2.0000000000000000e+00 1.2000000000000000e+01 2.5000000000000000e+00 
28 2 4 2.2559723595316457e+00 9.9518949618723496e-01 4.2000000000000000e+03 2.0000000000000000e+00 1.4000000000000000e+01 2.5000000000000000e+00 
46 2 4 2.2559723595316457e+00 9.9395138824179075e-01 4.2000000000000000e+03 4.0000000000000000e+00 1.0000000000000000e+01 2.5000000000000000e+00 
47 2 4 2.2559723595316457e+00 9.5956734615688466e-01 4.2000000000000000e+03 4.0000000000000000e+00 1.2000000000000000e+01 2.5000000000000000e+00 
48 2 4 2.2559723595316457e+00 9.8187637308561859e-01 4.2000000000000000e+03 4.0000000000000000e+00 1.4000000000000000e+01 2.5000000000000000e+00 
66 2 4 2.2559723595316457e+00 9.8457919005005379e-01 4.2000000000000000e+03 6.0000000000000000e+00 1.0000000000000000e+01 2.5000000000000000e+00 
67 2 4 2.2559723595316457e+00 9.8645895339890399e-01 4.2000000000000000e+03 6.0000000000000000e+00 1.2000000000000000e+01 2.5000000000000000e+00 
68 2 4 2.2559723595316457e+00 9.5801682602281657e-01 4.2000000000000000e+03 6.0000000000000000e+00 1.4000000000000000e+01 2.5000000000000000e+00 
86 2 4 2.2559723595316457e+00 9.9924168372616284e-01 4.2000000000000000e+03 8.0000000000000000e+00 1.0000000000000000e+01 2.5000000000000000e+00 
87 2 4 2.2559723595316457e+00 9.9613801552526093e-01 4.2000000000000000e+03 8.0000000000000000e+00 1.2000000000000000e+01 2.5000000000000000e+00 
88 2 4 2.2559723595316457e+00 9.7426014216360723e-01 4.2000000000000000e+03 8.0000000000000000e+00 1.4000000000000000e+01 2.5000000000000000e+00 
106 2 4 2.2559723595316457e+00 1.0004153377662077e+00 4.2000000000000000e+03 1.0000000000000000e+01 1.0000000000000000e+01 2.5000000000000000e+00 
107 2 4 2.2559723595316457e+00 9.8686495900571580e-01 4.2000000000000000e+03 1.0000000000000000e+01 1.2000000000000000e+01 2.5000000000000000e+00 
108 2 4 2.2559723595316457e+00 9.9922386519363182e-01 4.2000000000000000e+03 1.0000000000000000e+01 1.4000000000000000e+01 2.5000000000000000e+00 
126 2 4 2.2559723595316457e+00 -2.2906567612512879e+02 4.2000000000000000e+03 1.2000000000000000e+01 1.0000000000000000e+01 2.5000000000000000e+00 
127 2 4 2.2559723595316457e+00 -2.9051373782089854e+02 4.2000000000000000e+03 1.2000000000000000e+01 1.2000000000000000e+01 2.5000000000000000e+00 
128 2 4 2.2559723595316457e+00 -2.9380995157341880e+02 4.2000000000000000e+03 1.2000000000000000e+01 1.4000000000000000e+01 2.5000000000000000e+00 
146 2 4 2.2559723595316457e+00 -2.6178430273948788e+03 4.2000000000000000e+03 1.4000000000000000e+01 1.0000000000000000e+01 2.5000000000000000e+00 
147 2 4 2.2559723595316457e+00 -3.5693977609006106e+03 4.2000000000000000e+03 1.4000000000000000e+01 1.2000000000000000e+01 2.5000000000000000e+00 
148 2 4 2.2559723595316457e+00 -3.6611012095006436e+03 4.2000000000000000e+03 1.4000000000000000e+01 1.4000000000000000e+01 2.5000000000000000e+00 
166 2 4 2.2559723595316457e+00 -6.9332547884685446e+03 4.2000000000000000e+03 1.6000000000000000e+01 1.0000000000000000e+01 2.5000000000000000e+00 
167 2 4 2.2559723595316457e+00 -9.5501352042287981e+03 4.2000000000000000e+03 1.6000000000000000e+01 1.2000000000000000e+01 2.5000000000000000e+00 
168 2 4 2.2559723595316457e+00 -9.8803393077663914e+03 4.2000000000000000e+03 1.6000000000000000e+01 1.4000000000000000e+01 2.5000000000000000e+00 
186 2 4 2.2559723595316457e+00 -9.5403746902032854e+03 4.2000000000000000e+03 1.8000000000000000e+01 1.0000000000000000e+01 2.5000000000000000e+00 
187 2 4 2.2559723595316457e+00 -1.3175090590572041e+04 4.2000000000000000e+03 1.8000000000000000e+01 1.2000000000000000e+01 2.5000000000000000e+00 
188 2 4 2.2559723595316457e+00 -1.3604235468376413e+04 4.2000000000000000e+03 1.8000000000000000e+01 1.4000000000000000e+01 2.5000000000000000e+00 
9 2 4 2.2559723595316457e+00 9.7136715520711747e-01 4.2000000000000000e+03 0.0000000000000000e+00 1.6000000000000000e+01 2.5000000000000000e+00 
10 2 4 2.2559723595316457e+00 9.9070535078738597e-01 4.2000000000000000e+03 0.0000000000000000e+00 1.8000000000000000e+01 2.5000000000000000e+00 
29 2 4 2.2559723595316457e+00 9.9082400106404811e-01 4.2000000000000000e+03 2.0000000000000000e+00 1.6000000000000000e+01 2.5000000000000000e+00 
30 2 4 2.2559723595316457e+00 9.9992248887117774e-01 4.2000000000000000e+03 2.0000000000000000e+00 1.8000000000000000e+01 2.5000000000000000e+00 
49 2 4 2.2559723595316457e+00 9.7273749655394659e-01 4.2000000000000000e+03 4.0000000000000000e+00 1.6000000000000000e+01 2.5000000000000000e+00 
50 2 4 2.2559723595316457e+00 9.9248944595713473e-01 4.2000000000000000e+03 4.0000000000000000e+00 1.8000000000000000e+01 2.5000000000000000e+00 
69 2 4 2.2559723595316457e+00 9.8847292141823462e-01 4.2000000000000000e+03 6.0000000000000000e+00 1.6000000000000000e+01 2.5000000000000000e+00 
70 2 4 2.2559723595316457e+00 9.9661394916099655e-01 4.2000000000000000e+03 6.0000000000000000e+00 1.8000000000000000e+01 2.5000000000000000e+00 
89 2 4 2.2559723595316457e+00 9.9933357315012339e-01 4.2000000000000000e+03 8.0000000000000000e+00 1.6000000000000000e+01 2.5000000000000000e+00 
90 2 4 2.2559723595316457e+00 8.8615834690077977e-01 4.2000000000000000e+03 8.0000000000000000e+00 1.8000000000000000e+01 2.5000000000000000e+00 
109 2 4 2.2559723595316457e+00 9.9170065301483645e-01 4.2000000000000000e+03 1.0000000000000000e+01 1.6000000000000000e+01 2.5000000000000000e+00 
110 2 4 2.2559723595316457e+00 9.4458237035665982e-01 4.2000000000000000e+03 1.0000000000000000e+01 1.8000000000000000e+01 2.5000000000000000e+00 
129 2 4 2.2559723595316457e+00 -2.9409301459725674e+02 4.2000000000000000e+03 1.2000000000000000e+01 1.6000000000000000e+01 2.5000000000000000e+00 
130 2 4 2.2559723595316457e+00 -2.9411403934564743e+02 4.2000000000000000e+03 1.2000000000000000e+01 1.8000000000000000e+01 2.5000000000000000e+00 
149 2 4 2.2559723595316457e+00 -3.6682555297307849e+03 4.2000000000000000e+03 1.4000000000000000e+01 1.6000000000000000e+01 2.5000000000000000e+00 
150 2 4 2.2559723595316457e+00 -3.6685935118439447e+03 4.2000000000000000e+03 1.4000000000000000e+01 1.8000000000000000e+01 2.5000000000000000e+00 
169 2 4 2.2559723595316457e+00 -9.8964538528322464e+03 4.2000000000000000e+03 1.6000000000000000e+01 1.6000000000000000e+01 2.5000000000000000e+00 
170 2 4 2.2559723595316457e+00 -9.8975489593939692e+03 4.2000000000000000e+03 1.6000000000000000e+01 1.8000000000000000e+01 2.5000000000000000e+00 
189 2 4 2.2559723595316457e+00 -1.3620199021428905e+04 4.2000000000000000e+03 1.8000000000000000e+01 1.6000000000000000e+01 2.5000000000000000e+00 
190 2 4 2.2559723595316457e+00 -1.3619199483211480e+04 4.2000000000000000e+03 1.8000000000000000e+01 1.8000000000000000e+01 2.5000000000000000e+00 
1500 1102 2 1.0280000054230551e+00 1.7031676265583785e+03 4.2000000000000000e+03 1.6156849007184499e+00 3.9678958499749002e+00 7.0936670567094254e+01 
1115 717 2 1.0280000053261347e+00 -1.6199916514285476e+03 4.2000000000000000e+03 1.6177229365094361e+00 3.9748097841417680e+00 7.0938572441423091e+01 
511 113 2 1.0280000105611982e+00 2.7371990293128583e+03 4.2000000000000000e+03 1.1430537376060255e+00 3.9783037384114137e+00 7.0985110711886477e+01 
906 508 2 1.0280000113734429e+00 -7.0546030563704198e+03 4.2000000000000000e+03 9.4654854854164450e-01 4.0868331595734038e+00 7.1051679845448845e+01 
1161 763 2 1.0280000163945335e+00 8.4494326026153132e+01 4.2000000000000000e+03 8.2181942139123498e-01 1.6323040221705634e+00 7.1173371602968501e+01 
1169 771 2 1.0280000022909592e+00 2.6824985705382016e+02 4.2000000000000000e+03 3.3432795880319319e+00 3.6560805196640542e+00 7.1241890439509660e+01 
1453 1055 2 1.0280000028919234e+00 1.3313488067810299e+03 4.2000000000000000e+03 3.4116918468278121e+00 3.5930564192900887e+00 7.1266784318354382e+01 
1130 732 2 1.0280000031513890e+00 -2.0822787557601969e+03 4.2000000000000000e+03 3.4659200802330465e+00 3.5043772605988606e+00 7.1282355441868262e+01 
1762 1364 2 1.0280000032518539e+00 -1.3509030862588297e+03 4.2000000000000000e+03 3.4824119539989740e+00 3.4874179853192664e+00 7.1289598213348924e+01 
1652 1254 2 1.0280000031967285e+00 1.3916327659397907e+03 4.2000000000000000e+03 3.5407948806381766e+00 3.3820135022628133e+00 7.1311568755972544e+01 
965 567 2 1.0280000036797867e+00 3.1616024960740282e+02 4.2000000000000000e+03 3.5348870741530454e+00 4.0661746063776993e+00 7.1511126863513965e+01 
1847 1449 2 1.0280000049621112e+00 -1.4152193158650241e+03 4.2000000000000000e+03 3.6102145383434787e+00 4.0502436118607283e+00 7.1558831479046731e+01 
1619 1221 2 1.0280000000043412e+00 -2.3389616499534877e+03 4.2000000000000000e+03 3.4578665422136154e+00 4.3293874214275023e+00 7.1611523513183812e+01 
1654 1256 2 1.0280000085253420e+00 1.2903191441843308e+03 4.2000000000000000e+03 3.9957857754569779e+00 4.6890494403500691e+00 7.2434688996000531e+01 
506 108 2 1.0279999162057203e+00 2.1612050692114708e+03 4.2000000000000000e+03 4.7249317251771163e+00 2.9261844966940402e+00 7.4533636382422145e+01 
797 399 2 1.0280000559980429e+00 1.5510884127789157e+03 4.2000000000000000e+03 5.0266136522770530e+00 3.4146438505420575e+00 7.3080351996016290e+01 
2076 1678 2 1.0279999935468871e+00 -3.1658554155090919e+03 4.2000000000000000e+03 5.2514856940565053e+00 1.5121400894744943e+00 7.3478104393094640e+01 
499 101 2 1.0280003449120469e+00 1.8711649811670666e+03 4.2000000000000000e+03 6.0790355205263928e+00 3.0065872979829478e+00 7.4282877132476017e+01 
618 220 2 1.0280001196756687e+00 1.5934047838668823e+03 4.2000000000000000e+03 6.1375693656279031e+00 1.9072555047998510e+00 7.4318585478044866e+01 
1125 727 2 1.0280000711801365e+00 1.5565251706419358e+03 4.2000000000000000e+03 6.1737348964351861e+00 1.6356349532928254e+00 7.4366516967832254e+01 
545 147 2 1.0280000474491158e+00 1.9793438851353071e+03 4.2000000000000000e+03 7.6598522223718142e+00 4.5502627125335620e+00 7.4608288571516368e+01 
1624 1226 2 1.0280000039049331e+00 1.4047378729938998e+03 4.2000000000000000e+03 8.6988341781347351e+00 1.9502975755058947e+00 7.4980386562980016e+01 
759 361 2 1.0279999898447443e+00 1.1409732038832790e+03 4.2000000000000000e+03 9.1164277633228767e+00 1.9042332293520112e+00 7.5132080476884042e+01 
831 433 2 1.0279999830884587e+00 5.2456891188065231e+02 4.2000000000000000e+03 9.3835962348067152e+00 2.0098438757646071e+00 7.5251268082602166e+01 
975 577 2 1.0279999730039673e+00 -3.6282590289404027e+02 4.2000000000000000e+03 9.5572536364968670e+00 2.4600226990088663e+00 7.5333388971004325e+01 
985 587 2 1.0279999660348733e+00 2.1826811635295589e+03 4.2000000000000000e+03 9.7331784330136557e+00 5.9460392684028462e-01 7.5405157929987439e+01 
1965 1567 2 1.0279999791946131e+00 2.5632614828345204e+03 4.2000000000000000e+03 9.7165913194394555e+00 1.5392669726912089e+00 7.5432494767173523e+01 
1424 1026 2 1.0279999730448153e+00 1.5381878839035660e+03 4.2000000000000000e+03 9.7739516896846244e+00 2.2559290773561385e+00 7.5468678125415053e+01 
517 119 2 1.0279992746199618e+00 1.1203772031381843e+03 4.2000000000000000e+03 5.9221279994195903e+00 4.4463129169884317e+00 7.5781395035746328e+01 
1145 747 2 1.0279999409255471e+00 -8.5509799088596267e+01 4.2000000000000000e+03 1.0322271258549486e+01 2.8239349914121306e+00 7.5893117887452860e+01 
738 340 2 1.0279999225507575e+00 -9.8538763523851903e+03 4.2000000000000000e+03 1.0459066942434704e+01 3.8376844798658509e+00 7.6098515129257422e+01 
1155 757 2 1.0280000232767330e+00 -2.5560951280374625e+03 4.2000000000000000e+03 1.2343772865067811e-01 8.7607767929840321e+00 7.3418929126084123e+01 
1159 761 2 1.0280000213934362e+00 -2.3587640349463122e+03 4.2000000000000000e+03 5.6244713230582742e-02 8.8017268312099759e+00 7.3421379935364314e+01 
1620 1222 2 1.0280000319532103e+00 -1.0123386654662304e+03 4.2000000000000000e+03 1.2783544721969626e+00 8.8353536355094011e+00 7.3620010988108305e+01 
1740 1342 2 1.0280000310492117e+00 1.2443278947578995e+03 4.2000000000000000e+03 1.5168187444859187e+00 8.7868882353400171e+00 7.3669140770547870e+01 
530 132 2 1.0280000012586570e+00 4.9758389060112805e+01 4.2000000000000000e+03 6.5007099337689922e-01 9.7507469229814863e+00 7.3671177970767630e+01 
615 217 2 1.0280000787771064e+00 -6.6411042254427343e+02 4.2000000000000000e+03 2.5211327050983385e+00 7.6966101914123932e+00 7.4107484344709803e+01 
1076 678 2 1.0279999323087148e+00 -1.1315191748453483e+03 4.2000000000000000e+03 2.7207461179802674e+00 7.4129019989385894e+00 7.4340761058881284e+01 
1694 1296 2 1.0280000139115719e+00 -1.2976398603653565e+03 4.2000000000000000e+03 4.7850537414942168e-01 6.2242152875628927e+00 7.4407415250781824e+01 
1288 890 2 1.0280000175886479e+00 8.9599963114008958e+01 4.2000000000000000e+03 2.8705227968125655e+00 7.3821547494182784e+00 7.4443848000698964e+01 
1785 1387 2 1.0279999531891753e+00 -2.2625993601304475e+02 4.2000000000000000e+03 4.8020943819308641e+00 9.9519951467898959e+00 7.4519857641577971e+01 
1461 1063 2 1.0279998759907354e+00 2.0160633710409602e+03 4.2000000000000000e+03 2.8044561179360037e+00 7.3719061304576767e+00 7.5240890586841104e+01 
470 72 2 1.0280002637353614e+00 1.9310165994976610e+03 4.2000000000000000e+03 4.7092676556838136e+00 9.6774715127406541e+00 7.5555838961929226e+01 
1850 1452 2 1.0280000532534659e+00 -1.4207999748954917e+03 4.2000000000000000e+03 4.6938168280833361e+00 5.5921310751415323e+00 7.5874237216994359e+01 
1869 1471 2 1.0280000323878586e+00 3.4895293493113462e+02 4.2000000000000000e+03 7.0407857762851940e+00 5.7721925350768624e+00 7.4637689410042611e+01 
878 480 2 1.0280000261030813e+00 -2.0608407643056034e+03 4.2000000000000000e+03 6.6456434252807481e+00 6.4821761948767325e+00 7.4657977033364745e+01 
1083 685 2 1.0279999267452717e+00 -4.2728796295960692e+03 4.2000000000000000e+03 5.2823159340272010e+00 9.7393890581865659e+00 7.4704865549087017e+01 
1822 1424 2 1.0279999249495042e+00 -1.5679706989436015e+03 4.2000000000000000e+03 5.2718635511751062e+00 9.7202995142304172e+00 7.4706857874481756e+01 
1601 1203 2 1.0280000167922434e+00 2.0731514932956898e+03 4.2000000000000000e+03 6.5283152604241081e+00 7.2587716915300895e+00 7.4708830533026855e+01 
603 205 2 1.0279999027329805e+00 2.4656569125657043e+03 4.2000000000000000e+03 5.2400561521391564e+00 9.0267799627847385e+00 7.4789668046738441e+01 
1006 608 2 1.0280000053829192e+00 -6.1963097429710945e+02 4.2000000000000000e+03 7.5005285916040307e+00 8.4880750814009129e+00 7.4815514047908280e+01 
908 510 2 1.0280000134047589e+00 1.6123135426376948e+02 4.2000000000000000e+03 8.1050104711724131e+00 6.9140580056720644e+00 7.4921934619501130e+01 
936 538 2 1.0280000120963970e+00 2.4474213180725728e+03 4.2000000000000000e+03 8.4292669920490919e+00 7.0381361256497019e+00 7.5015091700984470e+01 
744 346 2 1.0280000061417878e+00 1.4780477068517698e+03 4.2000000000000000e+03 7.9959979120729603e+00 9.5743637423528636e+00 7.5073634335218273e+01 
714 316 2 1.0280000080644602e+00 -3.2704675534442532e+02 4.2000000000000000e+03 8.8853633786066339e+00 6.5641230917138955e+00 7.5171341752917357e+01 
1284 886 2 1.0280000055766014e+00 7.9703527943002211e+02 4.2000000000000000e+03 9.0593792598953868e+00 6.3115418372977041e+00 7.5226240434411707e+01 
713 315 2 1.0279999997511029e+00 1.3008655656317731e+03 4.2000000000000000e+03 9.8325674375323384e+00 6.1047075158515671e+00 7.5626705409376399e+01 
1014 616 2 1.0279999929339911e+00 -3.7490541964470060e+02 4.2000000000000000e+03 1.0130809570273714e+01 5.6998358090116445e+00 7.5794683900718610e+01 
1084 686 2 1.0279999747926467e+00 1.0071764569363748e+03 4.2000000000000000e+03 1.6428704292600815e+00 1.0671855475079868e+01 7.3928244523190003e+01 
1566 1168 2 1.0279999860257731e+00 -1.9642678317930552e+03 4.2000000000000000e+03 2.5693427782284717e+00 1.1466467642519341e+01 7.4128332677445698e+01 
504 106 2 1.0280000004260905e+00 4.0987229837396590e+03 4.2000000000000000e+03 3.4287786340142477e+00 1.2066591150120212e+01 7.4199647515684205e+01 
922 524 2 1.0279998817742153e+00 -6.6902563372880638e+02 4.2000000000000000e+03 2.3003428356182742e+00 1.1734191495387437e+01 7.4199769915964623e+01 
909 511 2 1.0279999746859452e+00 -6.3514863640895939e+01 4.2000000000000000e+03 2.7136205222253764e+00 1.2048414011752341e+01 7.4215536396975708e+01 
1302 904 2 1.0279998950465832e+00 -3.1961873455572163e+03 4.2000000000000000e+03 2.1978436621051070e+00 1.1797131060309550e+01 7.4228707274152356e+01 
1653 1255 2 1.0280000111244278e+00 2.2484583079292561e+03 4.2000000000000000e+03 4.0028352634445810e+00 1.3660155289636505e+01 7.4385060177509715e+01 
1385 987 2 1.0280000068618675e+00 -1.1198473103847221e+03 4.2000000000000000e+03 4.9662105605792410e+00 1.4781246727711219e+01 7.4849186777559069e+01 
1807 1409 2 1.0280002479962591e+00 -1.8830244500921524e+03 4.2000000000000000e+03 1.6323522158621528e+00 1.3602005966099030e+01 7.4890127374035615e+01 
1266 868 2 1.0280000010778554e+00 -6.3777259225130570e+02 4.2000000000000000e+03 5.1346844997710059e+00 1.1216261775093132e+01 7.4332295399101852e+01 
1317 919 2 1.0280000247425967e+00 8.8404932164580555e+02 4.2000000000000000e+03 5.3436412277833911e+00 1.3768360858223470e+01 7.4679326794099964e+01 
805 407 2 1.0280000102801508e+00 2.8448721133557933e+03 4.2000000000000000e+03 5.3127377340401614e+00 1.4374704488796686e+01 7.4892977336929604e+01 
1787 1389 2 1.0280000105257632e+00 3.0032242923869044e+03 4.2000000000000000e+03 5.3539156381795401e+00 1.4344007793891139e+01 7.4898570775701529e+01 
1521 1123 2 1.0280000104652935e+00 1.1950738319210882e+03 4.2000000000000000e+03 5.3487604219375182e+00 1.4348406669946890e+01 7.4898090767956262e+01 
1275 877 2 1.0279999968519871e+00 -2.4246311205545599e+03 4.2000000000000000e+03 5.5918991798597855e+00 1.4468647476731412e+01 7.5041159242560994e+01 
689 291 2 1.0280000146567918e+00 6.0795926436798550e+02 4.2000000000000000e+03 7.5268531773089062e+00 1.1563891981570642e+01 7.5135277423485689e+01 
605 207 2 1.0279999350809059e+00 -4.6292984298873046e+02 4.2000000000000000e+03 6.0986364373834423e+00 1.4865016602175782e+01 7.5409711294150171e+01 
697 299 2 1.0279999452702708e+00 8.1735945284134129e+02 4.2000000000000000e+03 6.2348611755923899e+00 1.4798997270824858e+01 7.5457073467281845e+01 
1810 1412 2 1.0280000273413756e+00 -2.1716977066053219e+03 4.2000000000000000e+03 8.4089126288253020e+00 1.1152150910192770e+01 7.5680997014799090e+01 
1830 1432 2 1.0279999931129737e+00 -1.7678206527755001e+03 4.2000000000000000e+03 8.4582239952385780e+00 1.2818037508717506e+01 7.5993938708599089e+01 
1102 704 2 1.0280000532441218e+00 -4.2825575580847769e+01 4.2000000000000000e+03 8.8575795301389064e+00 1.0961077022382513e+01 7.6038607692591640e+01 
613 215 2 1.0279999443926850e+00 1.1967376901764615e+03 4.2000000000000000e+03 8.8948813425708320e+00 1.1170587247900899e+01 7.6167780006464213e+01 
934 536 2 1.0279999612222408e+00 -3.0225888557146882e+03 4.2000000000000000e+03 8.9034699355641713e+00 1.1160252679248643e+01 7.6176404234863796e+01 
1420 1022 2 1.0279999945293901e+00 1.3578418053460550e+03 4.2000000000000000e+03 2.7741212270058613e+00 1.9230605245976168e+01 7.4617476393124974e+01 
665 267 2 1.0279999943330593e+00 3.4341467540416380e+02 4.2000000000000000e+03 3.0756929530358934e+00 1.9290640024363942e+01 7.4645423756853006e+01 
916 518 2 1.0280000004149150e+00 1.3578096890821218e+03 4.2000000000000000e+03 2.7776009460020155e+00 1.8812108492581903e+01 7.4638865830656300e+01 
1841 1443 2 1.0280000056975807e+00 3.4275599121523339e+02 4.2000000000000000e+03 3.0995978736939280e+00 1.8623861224815762e+01 7.4671272742073754e+01 
969 571 2 1.0280000191599479e+00 1.4517332265050643e+03 4.2000000000000000e+03 3.4578473681571644e+00 1.6761618634767665e+01 7.4671723270330929e+01 
1434 1036 2 1.0280000174908805e+00 -3.1415124227495548e+03 4.2000000000000000e+03 3.3747040651209206e+00 1.7507801926524017e+01 7.4700901416355549e+01 
1287 889 2 1.0280000015863970e+00 -2.5579214725042434e+03 4.2000000000000000e+03 2.3111049596953741e+00 1.8060639642240783e+01 7.4714253828243955e+01 
958 560 2 1.0279999504962689e+00 -5.9896117796669739e+02 4.2000000000000000e+03 2.0741459512263241e+00 1.6773176755942519e+01 7.4890997213166969e+01 
976 578 2 1.0279999491114484e+00 1.6460964675796856e+03 4.2000000000000000e+03 2.0591605394891701e+00 1.6761730295979866e+01 7.4894224950195195e+01 
1321 923 2 1.0279998663679595e+00 4.8735212051683050e+02 4.2000000000000000e+03 1.2645782694121330e+00 1.6387907187436042e+01 7.5053724223093170e+01 
1911 1513 2 1.0279999721787629e+00 -2.1423519943588749e+03 4.2000000000000000e+03 7.2659807964169616e+00 1.5282843822038769e+01 7.5951801026841636e+01 
649 251 2 1.0279999699337974e+00 5.7509724806111910e+02 4.2000000000000000e+03 6.0546219495563269e+00 1.9270450833219854e+01 7.6159328737261859e+01 
1825 1427 2 1.0280002889362010e+00 5.7491714845526485e+02 4.2000000000000000e+03 6.0691292095736875e+00 1.9248481269978367e+01 7.6167131055411048e+01 
607 209 2 1.0280000342343274e+00 1.0755228076395276e+03 4.2000000000000000e+03 8.0320080595372079e-01 3.0021842835277748e+00 7.7727219420532251e+01 
534 136 2 1.0280001481813128e+00 4.0632166228148589e+02 4.2000000000000000e+03 1.1855523078419948e-01 1.6090284989641730e+00 7.7845031162315678e+01 
962 564 2 1.0280001388556781e+00 -1.3788104378357611e+03 4.2000000000000000e+03 6.4029169607670722e-01 4.2378886292841722e+00 7.7870532012355653e+01 
1452 1054 2 1.0280005072848544e+00 9.2394924930554168e+02 4.2000000000000000e+03 2.1923638078135390e+00 2.2502790963301513e+00 7.7960603992807378e+01 
795 397 2 1.0279996468176698e+00 -1.3342523584011280e+03 4.2000000000000000e+03 7.2846803212548950e-01 1.5429940553131420e+00 7.8065758270952600e+01 