LAMMPS data file via write_data, version 30 Jul 2016, timestep = 600000

2080 atoms
8 atom types

0.0000000000000000e+00 4.0000000000000000e+01 xlo xhi
0.0000000000000000e+00 4.0000000000000000e+01 ylo yhi
0.0000000000000000e+00 1.0000000000000000e+02 zlo zhi

Masses

1 3.896
2 10.72
3 1058.08
4 8.378
5 8.378
6 8.378
7 8.378
8 8.378

Atoms # meso-molecular

1 2 4 2.2559723595316457e+00 9.8701877977606856e-01 4.2000000000000000e+03 0.0000000000000000e+00 0.0000000000000000e+00 2.5000000000000000e+00 
2 2 4 2.2559723595316457e+00 1.0059305286861266e+00 4.2000000000000000e+03 0.0000000000000000e+00 2.0000000000000000e+00 2.5000000000000000e+00 
3 2 4 2.2559723595316457e+00 1.0002621985943092e+00 4.2000000000000000e+03 0.0000000000000000e+00 4.0000000000000000e+00 2.5000000000000000e+00 
21 2 4 2.2559723595316457e+00 9.6979776327953904e-01 4.2000000000000000e+03 2.0000000000000000e+00 0.0000000000000000e+00 2.5000000000000000e+00 
22 2 4 2.2559723595316457e+00 9.9451552599638271e-01 4.2000000000000000e+03 2.0000000000000000e+00 2.0000000000000000e+00 2.5000000000000000e+00 
23 2 4 2.2559723595316457e+00 9.9959059434063846e-01 4.2000000000000000e+03 2.0000000000000000e+00 4.0000000000000000e+00 2.5000000000000000e+00 
41 2 4 2.2559723595316457e+00 9.9462978262409130e-01 4.2000000000000000e+03 4.0000000000000000e+00 0.0000000000000000e+00 2.5000000000000000e+00 
42 2 4 2.2559723595316457e+00 9.9602371304452098e-01 4.2000000000000000e+03 4.0000000000000000e+00 2.0000000000000000e+00 2.5000000000000000e+00 
43 2 4 2.2559723595316457e+00 9.9969551307218341e-01 4.2000000000000000e+03 4.0000000000000000e+00 4.0000000000000000e+00 2.5000000000000000e+00 
61 2 4 2.2559723595316457e+00 9.6115079835095885e-01 4.2000000000000000e+03 6.0000000000000000e+00 0.0000000000000000e+00 2.5000000000000000e+00 
62 2 4 2.2559723595316457e+00 1.0052705745501975e+00 4.2000000000000000e+03 6.0000000000000000e+00 2.0000000000000000e+00 2.5000000000000000e+00 
63 2 4 2.2559723595316457e+00 9.9955445678955623e-01 4.2000000000000000e+03 6.0000000000000000e+00 4.0000000000000000e+00 2.5000000000000000e+00 
81 2 4 2.2559723595316457e+00 9.5802094806375893e-01 4.2000000000000000e+03 8.0000000000000000e+00 0.0000000000000000e+00 2.5000000000000000e+00 
82 2 4 2.2559723595316457e+00 1.0021775268364705e+00 4.2000000000000000e+03 8.0000000000000000e+00 2.0000000000000000e+00 2.5000000000000000e+00 
83 2 4 2.2559723595316457e+00 9.9115129906221644e-01 4.2000000000000000e+03 8.0000000000000000e+00 4.0000000000000000e+00 2.5000000000000000e+00 
101 2 4 2.2559723595316457e+00 1.0003560445861397e+00 4.2000000000000000e+03 1.0000000000000000e+01 0.0000000000000000e+00 2.5000000000000000e+00 
102 2 4 2.2559723595316457e+00 9.8903566667205389e-01 4.2000000000000000e+03 1.0000000000000000e+01 2.0000000000000000e+00 2.5000000000000000e+00 
103 2 4 2.2559723595316457e+00 9.9067664628747087e-01 4.2000000000000000e+03 1.0000000000000000e+01 4.0000000000000000e+00 2.5000000000000000e+00 
121 2 4 2.2559723595316457e+00 1.0000000000000000e+00 4.2000000000000000e+03 1.2000000000000000e+01 0.0000000000000000e+00 2.5000000000000000e+00 
122 2 4 2.2559723595316457e+00 1.0048076688980934e+00 4.2000000000000000e+03 1.2000000000000000e+01 2.0000000000000000e+00 2.5000000000000000e+00 
123 2 4 2.2559723595316457e+00 1.0023282360241241e+00 4.2000000000000000e+03 1.2000000000000000e+01 4.0000000000000000e+00 2.5000000000000000e+00 
141 2 4 2.2559723595316457e+00 1.0000000000000000e+00 4.2000000000000000e+03 1.4000000000000000e+01 0.0000000000000000e+00 2.5000000000000000e+00 
142 2 4 2.2559723595316457e+00 1.0000290545536092e+00 4.2000000000000000e+03 1.4000000000000000e+01 2.0000000000000000e+00 2.5000000000000000e+00 
143 2 4 2.2559723595316457e+00 1.0073309055821906e+00 4.2000000000000000e+03 1.4000000000000000e+01 4.0000000000000000e+00 2.5000000000000000e+00 
161 2 4 2.2559723595316457e+00 1.0000000000000000e+00 4.2000000000000000e+03 1.6000000000000000e+01 0.0000000000000000e+00 2.5000000000000000e+00 
162 2 4 2.2559723595316457e+00 9.9979802301637655e-01 4.2000000000000000e+03 1.6000000000000000e+01 2.0000000000000000e+00 2.5000000000000000e+00 
163 2 4 2.2559723595316457e+00 1.0024024630539410e+00 4.2000000000000000e+03 1.6000000000000000e+01 4.0000000000000000e+00 2.5000000000000000e+00 
181 2 4 2.2559723595316457e+00 9.8278547296695917e-01 4.2000000000000000e+03 1.8000000000000000e+01 0.0000000000000000e+00 2.5000000000000000e+00 
182 2 4 2.2559723595316457e+00 9.9582221954885286e-01 4.2000000000000000e+03 1.8000000000000000e+01 2.0000000000000000e+00 2.5000000000000000e+00 
183 2 4 2.2559723595316457e+00 9.8785191877902490e-01 4.2000000000000000e+03 1.8000000000000000e+01 4.0000000000000000e+00 2.5000000000000000e+00 
4 2 4 2.2559723595316457e+00 9.7756735409291828e-01 4.2000000000000000e+03 0.0000000000000000e+00 6.0000000000000000e+00 2.5000000000000000e+00 
5 2 4 2.2559723595316457e+00 9.5972645935877365e-01 4.2000000000000000e+03 0.0000000000000000e+00 8.0000000000000000e+00 2.5000000000000000e+00 
24 2 4 2.2559723595316457e+00 9.9521528531685011e-01 4.2000000000000000e+03 2.0000000000000000e+00 6.0000000000000000e+00 2.5000000000000000e+00 
25 2 4 2.2559723595316457e+00 1.0049320541761126e+00 4.2000000000000000e+03 2.0000000000000000e+00 8.0000000000000000e+00 2.5000000000000000e+00 
44 2 4 2.2559723595316457e+00 9.9660975065307422e-01 4.2000000000000000e+03 4.0000000000000000e+00 6.0000000000000000e+00 2.5000000000000000e+00 
45 2 4 2.2559723595316457e+00 9.9549380068064197e-01 4.2000000000000000e+03 4.0000000000000000e+00 8.0000000000000000e+00 2.5000000000000000e+00 
64 2 4 2.2559723595316457e+00 9.8983616115306416e-01 4.2000000000000000e+03 6.0000000000000000e+00 6.0000000000000000e+00 2.5000000000000000e+00 
65 2 4 2.2559723595316457e+00 9.6137460784350570e-01 4.2000000000000000e+03 6.0000000000000000e+00 8.0000000000000000e+00 2.5000000000000000e+00 
84 2 4 2.2559723595316457e+00 9.9231830071697935e-01 4.2000000000000000e+03 8.0000000000000000e+00 6.0000000000000000e+00 2.5000000000000000e+00 
85 2 4 2.2559723595316457e+00 9.9176398124480758e-01 4.2000000000000000e+03 8.0000000000000000e+00 8.0000000000000000e+00 2.5000000000000000e+00 
104 2 4 2.2559723595316457e+00 9.9759723005130363e-01 4.2000000000000000e+03 1.0000000000000000e+01 6.0000000000000000e+00 2.5000000000000000e+00 
105 2 4 2.2559723595316457e+00 9.9202868551425882e-01 4.2000000000000000e+03 1.0000000000000000e+01 8.0000000000000000e+00 2.5000000000000000e+00 
124 2 4 2.2559723595316457e+00 9.9871711689521969e-01 4.2000000000000000e+03 1.2000000000000000e+01 6.0000000000000000e+00 2.5000000000000000e+00 
125 2 4 2.2559723595316457e+00 -5.2891898788553434e+01 4.2000000000000000e+03 1.2000000000000000e+01 8.0000000000000000e+00 2.5000000000000000e+00 
144 2 4 2.2559723595316457e+00 -5.2900146644773301e+01 4.2000000000000000e+03 1.4000000000000000e+01 6.0000000000000000e+00 2.5000000000000000e+00 
145 2 4 2.2559723595316457e+00 -9.3027200521448185e+02 4.2000000000000000e+03 1.4000000000000000e+01 8.0000000000000000e+00 2.5000000000000000e+00 
164 2 4 2.2559723595316457e+00 -2.2903063562161563e+02 4.2000000000000000e+03 1.6000000000000000e+01 6.0000000000000000e+00 2.5000000000000000e+00 
165 2 4 2.2559723595316457e+00 -2.6168235869143837e+03 4.2000000000000000e+03 1.6000000000000000e+01 8.0000000000000000e+00 2.5000000000000000e+00 
184 2 4 2.2559723595316457e+00 -2.9024153499445072e+02 4.2000000000000000e+03 1.8000000000000000e+01 6.0000000000000000e+00 2.5000000000000000e+00 
185 2 4 2.2559723595316457e+00 -3.5632397506294792e+03 4.2000000000000000e+03 1.8000000000000000e+01 8.0000000000000000e+00 2.5000000000000000e+00 
6 2 4 2.2559723595316457e+00 9.7849593289356551e-01 4.2000000000000000e+03 0.0000000000000000e+00 1.0000000000000000e+01 2.5000000000000000e+00 
7 2 4 2.2559723595316457e+00 1.0126510243454598e+00 4.2000000000000000e+03 0.0000000000000000e+00 1.2000000000000000e+01 2.5000000000000000e+00 
8 2 4 2.2559723595316457e+00 1.0052032775672404e+00 4.2000000000000000e+03 0.0000000000000000e+00 1.4000000000000000e+01 2.5000000000000000e+00 
26 2 4 2.2559723595316457e+00 1.0021149868617560e+00 4.2000000000000000e+03 2.0000000000000000e+00 1.0000000000000000e+01 2.5000000000000000e+00 
27 2 4 2.2559723595316457e+00 9.9826559135669279e-01 4.2000000000000000e+03 2.0000000000000000e+00 1.2000000000000000e+01 2.5000000000000000e+00 
28 2 4 2.2559723595316457e+00 9.9518949618723496e-01 4.2000000000000000e+03 2.0000000000000000e+00 1.4000000000000000e+01 2.5000000000000000e+00 
46 2 4 2.2559723595316457e+00 9.9395138824179075e-01 4.2000000000000000e+03 4.0000000000000000e+00 1.0000000000000000e+01 2.5000000000000000e+00 
47 2 4 2.2559723595316457e+00 9.5956734615688466e-01 4.2000000000000000e+03 4.0000000000000000e+00 1.2000000000000000e+01 2.5000000000000000e+00 
48 2 4 2.2559723595316457e+00 9.8187637308561859e-01 4.2000000000000000e+03 4.0000000000000000e+00 1.4000000000000000e+01 2.5000000000000000e+00 
66 2 4 2.2559723595316457e+00 9.8457919005005379e-01 4.2000000000000000e+03 6.0000000000000000e+00 1.0000000000000000e+01 2.5000000000000000e+00 
67 2 4 2.2559723595316457e+00 9.8645895339890399e-01 4.2000000000000000e+03 6.0000000000000000e+00 1.2000000000000000e+01 2.5000000000000000e+00 
68 2 4 2.2559723595316457e+00 9.5801682602281657e-01 4.2000000000000000e+03 6.0000000000000000e+00 1.4000000000000000e+01 2.5000000000000000e+00 
86 2 4 2.2559723595316457e+00 9.9924168372616284e-01 4.2000000000000000e+03 8.0000000000000000e+00 1.0000000000000000e+01 2.5000000000000000e+00 
87 2 4 2.2559723595316457e+00 9.9613801552526093e-01 4.2000000000000000e+03 8.0000000000000000e+00 1.2000000000000000e+01 2.5000000000000000e+00 
88 2 4 2.2559723595316457e+00 9.7426014216360723e-01 4.2000000000000000e+03 8.0000000000000000e+00 1.4000000000000000e+01 2.5000000000000000e+00 
106 2 4 2.2559723595316457e+00 1.0004153377662077e+00 4.2000000000000000e+03 1.0000000000000000e+01 1.0000000000000000e+01 2.5000000000000000e+00 
107 2 4 2.2559723595316457e+00 9.8686495900571580e-01 4.2000000000000000e+03 1.0000000000000000e+01 1.2000000000000000e+01 2.5000000000000000e+00 
108 2 4 2.2559723595316457e+00 9.9922386519363182e-01 4.2000000000000000e+03 1.0000000000000000e+01 1.4000000000000000e+01 2.5000000000000000e+00 
126 2 4 2.2559723595316457e+00 -2.2906567612512879e+02 4.2000000000000000e+03 1.2000000000000000e+01 1.0000000000000000e+01 2.5000000000000000e+00 
127 2 4 2.2559723595316457e+00 -2.9051373782089854e+02 4.2000000000000000e+03 1.2000000000000000e+01 1.2000000000000000e+01 2.5000000000000000e+00 
128 2 4 2.2559723595316457e+00 -2.9380995157341880e+02 4.2000000000000000e+03 1.2000000000000000e+01 1.4000000000000000e+01 2.5000000000000000e+00 
146 2 4 2.2559723595316457e+00 -2.6178430273948788e+03 4.2000000000000000e+03 1.4000000000000000e+01 1.0000000000000000e+01 2.5000000000000000e+00 
147 2 4 2.2559723595316457e+00 -3.5693977609006106e+03 4.2000000000000000e+03 1.4000000000000000e+01 1.2000000000000000e+01 2.5000000000000000e+00 
148 2 4 2.2559723595316457e+00 -3.6611012095006436e+03 4.2000000000000000e+03 1.4000000000000000e+01 1.4000000000000000e+01 2.5000000000000000e+00 
166 2 4 2.2559723595316457e+00 -6.9332547884685446e+03 4.2000000000000000e+03 1.6000000000000000e+01 1.0000000000000000e+01 2.5000000000000000e+00 
167 2 4 2.2559723595316457e+00 -9.5501352042287981e+03 4.2000000000000000e+03 1.6000000000000000e+01 1.2000000000000000e+01 2.5000000000000000e+00 
168 2 4 2.2559723595316457e+00 -9.8803393077663914e+03 4.2000000000000000e+03 1.6000000000000000e+01 1.4000000000000000e+01 2.5000000000000000e+00 
186 2 4 2.2559723595316457e+00 -9.5403746902032854e+03 4.2000000000000000e+03 1.8000000000000000e+01 1.0000000000000000e+01 2.5000000000000000e+00 
187 2 4 2.2559723595316457e+00 -1.3175090590572041e+04 4.2000000000000000e+03 1.8000000000000000e+01 1.2000000000000000e+01 2.5000000000000000e+00 
188 2 4 2.2559723595316457e+00 -1.3604235468376413e+04 4.2000000000000000e+03 1.8000000000000000e+01 1.4000000000000000e+01 2.5000000000000000e+00 
9 2 4 2.2559723595316457e+00 9.7136715520711747e-01 4.2000000000000000e+03 0.0000000000000000e+00 1.6000000000000000e+01 2.5000000000000000e+00 
10 2 4 2.2559723595316457e+00 9.9070535078738597e-01 4.2000000000000000e+03 0.0000000000000000e+00 1.8000000000000000e+01 2.5000000000000000e+00 
29 2 4 2.2559723595316457e+00 9.9082400106404811e-01 4.2000000000000000e+03 2.0000000000000000e+00 1.6000000000000000e+01 2.5000000000000000e+00 
30 2 4 2.2559723595316457e+00 9.9992248887117774e-01 4.2000000000000000e+03 2.0000000000000000e+00 1.8000000000000000e+01 2.5000000000000000e+00 
49 2 4 2.2559723595316457e+00 9.7273749655394659e-01 4.2000000000000000e+03 4.0000000000000000e+00 1.6000000000000000e+01 2.5000000000000000e+00 
50 2 4 2.2559723595316457e+00 9.9248944595713473e-01 4.2000000000000000e+03 4.0000000000000000e+00 1.8000000000000000e+01 2.5000000000000000e+00 
69 2 4 2.2559723595316457e+00 9.8847292141823462e-01 4.2000000000000000e+03 6.0000000000000000e+00 1.6000000000000000e+01 2.5000000000000000e+00 
70 2 4 2.2559723595316457e+00 9.9661394916099655e-01 4.2000000000000000e+03 6.0000000000000000e+00 1.8000000000000000e+01 2.5000000000000000e+00 
89 2 4 2.2559723595316457e+00 9.9933357315012339e-01 4.2000000000000000e+03 8.0000000000000000e+00 1.6000000000000000e+01 2.5000000000000000e+00 
90 2 4 2.2559723595316457e+00 8.8615834690077977e-01 4.2000000000000000e+03 8.0000000000000000e+00 1.8000000000000000e+01 2.5000000000000000e+00 
109 2 4 2.2559723595316457e+00 9.9170065301483645e-01 4.2000000000000000e+03 1.0000000000000000e+01 1.6000000000000000e+01 2.5000000000000000e+00 
110 2 4 2.2559723595316457e+00 9.4458237035665982e-01 4.2000000000000000e+03 1.0000000000000000e+01 1.8000000000000000e+01 2.5000000000000000e+00 
129 2 4 2.2559723595316457e+00 -2.9409301459725674e+02 4.2000000000000000e+03 1.2000000000000000e+01 1.6000000000000000e+01 2.5000000000000000e+00 
130 2 4 2.2559723595316457e+00 -2.9411403934564743e+02 4.2000000000000000e+03 1.2000000000000000e+01 1.8000000000000000e+01 2.5000000000000000e+00 
149 2 4 2.2559723595316457e+00 -3.6682555297307849e+03 4.2000000000000000e+03 1.4000000000000000e+01 1.6000000000000000e+01 2.5000000000000000e+00 
150 2 4 2.2559723595316457e+00 -3.6685935118439447e+03 4.2000000000000000e+03 1.4000000000000000e+01 1.8000000000000000e+01 2.5000000000000000e+00 
169 2 4 2.2559723595316457e+00 -9.8964538528322464e+03 4.2000000000000000e+03 1.6000000000000000e+01 1.6000000000000000e+01 2.5000000000000000e+00 
170 2 4 2.2559723595316457e+00 -9.8975489593939692e+03 4.2000000000000000e+03 1.6000000000000000e+01 1.8000000000000000e+01 2.5000000000000000e+00 
189 2 4 2.2559723595316457e+00 -1.3620199021428905e+04 4.2000000000000000e+03 1.8000000000000000e+01 1.6000000000000000e+01 2.5000000000000000e+00 
190 2 4 2.2559723595316457e+00 -1.3619199483211480e+04 4.2000000000000000e+03 1.8000000000000000e+01 1.8000000000000000e+01 2.5000000000000000e+00 
1500 1102 2 1.0279974566243013e+00 1.7031671723656111e+03 4.2000000000000000e+03 1.6266874345237474e+00 3.9441502212059434e+00 7.7813210180689140e+01 
1115 717 2 1.0279974476629901e+00 -1.6199921038894415e+03 4.2000000000000000e+03 1.6287397601170150e+00 3.9510242793001109e+00 7.7815049772127580e+01 
511 113 2 1.0279968131947563e+00 2.7371986227848074e+03 4.2000000000000000e+03 1.1544744748976090e+00 3.9547234661088551e+00 7.7858977143510870e+01 
906 508 2 1.0279965408057634e+00 -7.0546034184669443e+03 4.2000000000000000e+03 9.5784189389550023e-01 4.0633398529063882e+00 7.7923591425828178e+01 
1169 771 2 1.0280001231075888e+00 2.6824917202279198e+02 4.2000000000000000e+03 3.3332030889896243e+00 3.6353583520382875e+00 7.8136199798128629e+01 
1453 1055 2 1.0280002996191149e+00 1.3313480989413599e+03 4.2000000000000000e+03 3.3998452470744720e+00 3.5737209159190320e+00 7.8162471490260955e+01 
1762 1364 2 1.0280005428557988e+00 -1.3509038295791268e+03 4.2000000000000000e+03 3.4684024777388771e+00 3.4706508665157862e+00 7.8187079675739113e+01 
1130 732 2 1.0280004986009328e+00 -2.0822794929189331e+03 4.2000000000000000e+03 3.4523688363311620e+00 3.4871938603602493e+00 7.8179511881434451e+01 
1652 1254 2 1.0280007311456285e+00 1.3916319869371778e+03 4.2000000000000000e+03 3.5248541543761043e+00 3.3679663455670665e+00 7.8210592813057303e+01 
1161 763 2 1.0279999609474357e+00 8.4492847078509243e+01 4.2000000000000000e+03 8.1163284964784543e-01 1.6229301919056573e+00 7.8079829822190746e+01 
965 567 2 1.0279996126964392e+00 3.1615962447952194e+02 4.2000000000000000e+03 3.5239170121051360e+00 4.0354977429425727e+00 7.8401387710456689e+01 
1847 1449 2 1.0279996419440063e+00 -1.4152199532711268e+03 4.2000000000000000e+03 3.5976577444062214e+00 4.0193575604387322e+00 7.8450127159582792e+01 
1619 1221 2 1.0279991477981361e+00 -2.3389622351082476e+03 4.2000000000000000e+03 3.4500087791314562e+00 4.2947728935813112e+00 7.8496817516096655e+01 
1654 1256 2 1.0279983657544292e+00 1.2903185048294044e+03 4.2000000000000000e+03 3.9799656316195331e+00 4.6439382610788300e+00 7.9327064548999559e+01 
797 399 2 1.0280011898930568e+00 1.5510876951021778e+03 4.2000000000000000e+03 4.9616143382436997e+00 3.3901213624132156e+00 8.0015006637637910e+01 
2076 1678 2 1.0280029060980052e+00 -3.1658556691582676e+03 4.2000000000000000e+03 5.1691031256561546e+00 1.5235552064563673e+00 8.0445538987614057e+01 
1155 757 2 1.0279969898641044e+00 -2.5560926881648747e+03 4.2000000000000000e+03 1.4261211366964380e-01 8.7243931627806628e+00 8.0323245473541633e+01 
1159 761 2 1.0279970398060438e+00 -2.3587614566957732e+03 4.2000000000000000e+03 7.6055435969952762e-02 8.7657511096193268e+00 8.0325732153566392e+01 
1620 1222 2 1.0279969747119198e+00 -1.0123365789621216e+03 4.2000000000000000e+03 1.2867875424439419e+00 8.8033616409229722e+00 8.0534637702014166e+01 
1740 1342 2 1.0279967697503916e+00 1.2443297264264406e+03 4.2000000000000000e+03 1.5231849675197107e+00 8.7559340311600469e+00 8.0584381485026100e+01 
530 132 2 1.0279985789327943e+00 4.9763505998678866e+01 4.2000000000000000e+03 6.7090649252823897e-01 9.7234719196782091e+00 8.0597729326325450e+01 
1084 686 2 1.0280010424825965e+00 1.0071814699355774e+03 4.2000000000000000e+03 1.6604307839861616e+00 1.0651795839364143e+01 8.0878194770735320e+01 
506 108 2 1.0280196517187490e+00 2.1612045726636375e+03 4.2000000000000000e+03 4.6719256603203725e+00 2.8967445586866845e+00 8.1450084143975701e+01 
607 209 2 1.0280236624662160e+00 1.0755219915558739e+03 4.2000000000000000e+03 7.9106360927552599e-01 3.0252108973523248e+00 8.4691275067905792e+01 
534 136 2 1.0280098391589683e+00 4.0632094823928912e+02 4.2000000000000000e+03 1.1820161650819372e-01 1.6482755709983563e+00 8.4785680106050592e+01 
962 564 2 1.0280022156670152e+00 -1.3788143257294973e+03 4.2000000000000000e+03 6.3351237319060616e-01 4.2757648943092210e+00 8.4802228876172336e+01 
1452 1054 2 1.0280232493980750e+00 9.2394939589676881e+02 4.2000000000000000e+03 2.2159162051679893e+00 2.2172356878065025e+00 8.4895336744036442e+01 
795 397 2 1.0280023729173247e+00 -1.3342528269495501e+03 4.2000000000000000e+03 7.0846853644207175e-01 1.5571935687181349e+00 8.4997035298227360e+01 
799 401 2 1.0280055270167299e+00 -2.1395176916581445e+03 4.2000000000000000e+03 1.9227127014043854e+00 1.8616237333703198e+00 8.5070449970234506e+01 
542 144 2 1.0279641962283914e+00 2.3113868245285198e+02 4.2000000000000000e+03 2.2945766441739099e+00 3.2166572198699468e+00 8.5083482235064011e+01 
1055 657 2 1.0279931954777770e+00 -2.5541055336831450e+03 4.2000000000000000e+03 2.0544035756306060e+00 1.6874542345682557e+00 8.5152819143079583e+01 
1699 1301 2 1.0279858473095032e+00 -1.6205625932466078e+03 4.2000000000000000e+03 2.1502504271285701e+00 1.5217046350928216e+00 8.5215912008239016e+01 
1595 1197 2 1.0279963828634913e+00 -5.2645662183651916e+02 4.2000000000000000e+03 3.0749605428948210e+00 1.2982008037774624e+00 8.5446475045599271e+01 
1305 907 2 1.0280023963783058e+00 -2.0590289376146251e+02 4.2000000000000000e+03 4.5531870788114741e+00 1.3448021155745655e+00 8.5478622776577794e+01 
1168 770 2 1.0279967135964423e+00 -2.0837657123301631e+02 4.2000000000000000e+03 3.2397329922115214e+00 1.2623395617982358e+00 8.5478030459583323e+01 
499 101 2 1.0279975519332454e+00 1.8711643767695400e+03 4.2000000000000000e+03 5.9725195054305855e+00 2.9835341375710640e+00 8.1267883608308438e+01 
618 220 2 1.0280024165829265e+00 1.5934046065675141e+03 4.2000000000000000e+03 6.0337981094901103e+00 1.9080603424200746e+00 8.1309095117505308e+01 
1125 727 2 1.0280027876512583e+00 1.5565251303445052e+03 4.2000000000000000e+03 6.0721021228579541e+00 1.6369354860914134e+00 8.1357940838349819e+01 
545 147 2 1.0280017610682697e+00 1.9793433926626521e+03 4.2000000000000000e+03 7.5736168668206156e+00 4.5068927191974018e+00 8.1605524323129899e+01 
1624 1226 2 1.0280006348772843e+00 1.4047374716697816e+03 4.2000000000000000e+03 8.5954683034836581e+00 1.9396070883043126e+00 8.2035376106693334e+01 
759 361 2 1.0280005965695971e+00 1.1409728306888569e+03 4.2000000000000000e+03 9.0204197235100825e+00 1.8921836663291132e+00 8.2200931170524683e+01 
831 433 2 1.0280006577733971e+00 5.2456852516963977e+02 4.2000000000000000e+03 9.2926802266731467e+00 1.9961237564109813e+00 8.2327818588874180e+01 
975 577 2 1.0280008084553698e+00 -3.6282633878299936e+02 4.2000000000000000e+03 9.4718437614569595e+00 2.4428278388397002e+00 8.2407982709561409e+01 
985 587 2 1.0279988455804281e+00 2.1826810682129817e+03 4.2000000000000000e+03 9.6445938872158603e+00 5.9128838585294918e-01 8.2501048123692257e+01 
1965 1567 2 1.0280003646155711e+00 2.5632611660410803e+03 4.2000000000000000e+03 9.6274212233679162e+00 1.5278589975093249e+00 8.2526288157749107e+01 
1424 1026 2 1.0280007365390136e+00 1.5381874598536688e+03 4.2000000000000000e+03 9.6889068636565803e+00 2.2387937644781020e+00 8.2554676664740754e+01 
517 119 2 1.0280131254941249e+00 1.1203759450188945e+03 4.2000000000000000e+03 5.8302032053058586e+00 4.3904262876190305e+00 8.2791017205285257e+01 
1145 747 2 1.0280000754390557e+00 -8.5510283026297714e+01 4.2000000000000000e+03 1.0246180802568313e+01 2.7988221058384135e+00 8.2985260332287552e+01 
738 340 2 1.0280001353241397e+00 -9.8538768872647724e+03 4.2000000000000000e+03 1.0395856466969587e+01 3.8038254517552001e+00 8.3178548876625683e+01 
1913 1515 2 1.0279952505138072e+00 -3.7486985092354894e+03 4.2000000000000000e+03 1.0787614339676816e+01 4.1145698444660388e+00 8.3582282768948659e+01 
478 80 2 1.0279971251723643e+00 2.4683745181447794e+03 4.2000000000000000e+03 1.2515386087100028e+01 9.0633606288166391e-01 8.4154308270761064e+01 
1177 779 2 1.0279967523003659e+00 -1.1302429784795510e+02 4.2000000000000000e+03 1.3977792056426924e+01 3.4768327623493367e-01 8.4304271227281404e+01 
657 259 2 1.0280007685207406e+00 -3.3218997670946965e+02 4.2000000000000000e+03 1.3196154659422433e+01 3.7565730871804059e+00 8.4471046095231728e+01 
503 105 2 1.0279985019355609e+00 1.9685580184280241e+03 4.2000000000000000e+03 1.4888620933111099e+01 1.8768339928791811e+00 8.4504025401027192e+01 
496 98 2 1.0280002952008647e+00 2.9877031210904470e+03 4.2000000000000000e+03 1.4949831930527498e+01 3.4325436923507220e+00 8.4657182881014990e+01 
642 244 2 1.0280081325353005e+00 -2.1413706996485566e+03 4.2000000000000000e+03 1.0604841118266224e+01 9.4660117033088698e-01 8.5520597481033676e+01 
1269 871 2 1.0279975336466842e+00 6.0220993735852096e+02 4.2000000000000000e+03 1.5631787131980021e+01 1.2240720585065137e+00 8.4543402056569008e+01 
444 46 2 1.0279987216187243e+00 6.0051850849701086e+03 4.2000000000000000e+03 1.5150671869453335e+01 2.1363858865348551e+00 8.4568559703586573e+01 
801 403 2 1.0279988580757253e+00 1.6265654968870535e+03 4.2000000000000000e+03 1.5183110353344821e+01 2.2502186235943826e+00 8.4585304584528956e+01 
486 88 2 1.0279991422984081e+00 2.0740103052578584e+03 4.2000000000000000e+03 1.6171775703984089e+01 3.2279142927797775e+00 8.4903959461263128e+01 
1714 1316 2 1.0279994531174050e+00 -2.9892667677889165e+02 4.2000000000000000e+03 1.6898230343779336e+01 3.9213089952908216e+00 8.5273643914877795e+01 
492 94 2 1.0279962958868718e+00 3.1642433027256129e+03 4.2000000000000000e+03 1.7067778018075032e+01 3.5250490085357780e+00 8.5383459072659392e+01 
516 118 2 1.0279946199588990e+00 1.2915930285338404e+03 4.2000000000000000e+03 1.7000350983175128e+01 2.8717903265534921e+00 8.5391263795801521e+01 
615 217 2 1.0279959413021480e+00 -6.6411027720131256e+02 4.2000000000000000e+03 2.5226527553453231e+00 7.6615866911228618e+00 8.1018007626734587e+01 
1694 1296 2 1.0280018918260732e+00 -1.2976400480773684e+03 4.2000000000000000e+03 4.7917587023983832e-01 6.2157866157858646e+00 8.1300717797266557e+01 
1785 1387 2 1.0279950140929459e+00 -2.2625954055282236e+02 4.2000000000000000e+03 4.8007964453708025e+00 9.9264863348732142e+00 8.1450655014428932e+01 
1076 678 2 1.0279846576870719e+00 -1.1315192686425607e+03 4.2000000000000000e+03 2.7256258812014020e+00 7.3696433905120307e+00 8.1258162164455996e+01 
1288 890 2 1.0279759761750749e+00 8.9599771888565400e+01 4.2000000000000000e+03 2.8796229742107484e+00 7.3374240606776189e+00 8.1363789700920833e+01 
1461 1063 2 1.0280211396407015e+00 2.0160638931249650e+03 4.2000000000000000e+03 2.7942731202875550e+00 7.3554467100115026e+00 8.2186794763606670e+01 
470 72 2 1.0280243081694400e+00 1.9310168244293948e+03 4.2000000000000000e+03 4.7161317297567793e+00 9.6337357507279613e+00 8.2465760977269781e+01 
1850 1452 2 1.0279979050187107e+00 -1.4208008715952005e+03 4.2000000000000000e+03 4.6659353118595508e+00 5.5749926758752117e+00 8.2851749144739216e+01 
1605 1207 2 1.0280053558607323e+00 3.2295742345365447e+03 4.2000000000000000e+03 3.5798318941584566e+00 6.1138458288836244e+00 8.4248229982817591e+01 
1080 682 2 1.0280029438170772e+00 1.0005014110609901e+02 4.2000000000000000e+03 1.5649004853611783e+00 7.1238217398930184e+00 8.5017742671978965e+01 
1052 654 2 1.0279927907417903e+00 6.7403285214552500e+02 4.2000000000000000e+03 1.5068611400412162e+00 7.3674137994723257e+00 8.5237375489773981e+01 
878 480 2 1.0280005695830665e+00 -2.0608410798436535e+03 4.2000000000000000e+03 6.5958545173045868e+00 6.4367792711305851e+00 8.1618543650637960e+01 
1083 685 2 1.0279944975355426e+00 -4.2728792885900784e+03 4.2000000000000000e+03 5.2860064596941294e+00 9.7095003605439807e+00 8.1638295986387021e+01 
603 205 2 1.0279955290092142e+00 2.4656571108253565e+03 4.2000000000000000e+03 5.2381344832374390e+00 8.9883097809640340e+00 8.1716542079156255e+01 
1869 1471 2 1.0280009320402410e+00 3.4895253840808618e+02 4.2000000000000000e+03 6.9795784552278786e+00 5.7211488008588747e+00 8.1608523005542978e+01 
1601 1203 2 1.0280003729386633e+00 2.0731513616349907e+03 4.2000000000000000e+03 6.4916108409205320e+00 7.2194649465205671e+00 8.1665709830951130e+01 
1822 1424 2 1.0279943907818931e+00 -1.5679703580164914e+03 4.2000000000000000e+03 5.2753095674264392e+00 9.6901447679152533e+00 8.1640059953367853e+01 
1006 608 2 1.0280030015819506e+00 -6.1963090734637558e+02 4.2000000000000000e+03 7.4836035303609858e+00 8.4531952515331579e+00 8.1783063027397787e+01 
908 510 2 1.0280034053180747e+00 1.6123126618620768e+02 4.2000000000000000e+03 8.0613194604423111e+00 6.8743940601901787e+00 8.1910908147213362e+01 
744 346 2 1.0280035997482411e+00 1.4780476786986819e+03 4.2000000000000000e+03 7.9900863300781753e+00 9.5348079213069159e+00 8.2035930726928228e+01 
936 538 2 1.0280036700989705e+00 2.4474212040188122e+03 4.2000000000000000e+03 8.3871184404412684e+00 6.9995868486286641e+00 8.2010167286742970e+01 
714 316 2 1.0280033545959419e+00 -3.2704697426371962e+02 4.2000000000000000e+03 8.8363114538619936e+00 6.5236125174514203e+00 8.2180852573985518e+01 
1284 886 2 1.0280031094811142e+00 7.9703501692881946e+02 4.2000000000000000e+03 9.0072489112933880e+00 6.2696791806256744e+00 8.2241986927101564e+01 
713 315 2 1.0280022797043296e+00 1.3008650966677553e+03 4.2000000000000000e+03 9.7812513455021950e+00 6.0619036004052615e+00 8.2665105251701135e+01 
954 556 2 1.0279893433240366e+00 -6.7661441224794726e+02 4.2000000000000000e+03 5.3263610783972473e+00 5.3580487268068211e+00 8.3691876218555251e+01 
770 372 2 1.0280088038206805e+00 -1.3029635252377923e+03 4.2000000000000000e+03 5.4241187172999306e+00 5.3679843607923612e+00 8.4147227551271342e+01 
1014 616 2 1.0280014621659916e+00 -3.7490594773232488e+02 4.2000000000000000e+03 1.0077439050980061e+01 5.6554008044889859e+00 8.2844714548518667e+01 
820 422 2 1.0280041245710678e+00 1.2856146293229122e+03 4.2000000000000000e+03 1.0288825173782543e+01 8.2067021668706737e+00 8.3209841606645156e+01 
1697 1299 2 1.0279957825475874e+00 4.3996387637831572e+02 4.2000000000000000e+03 1.0217048753059251e+01 9.3226437448730675e+00 8.3461871585642498e+01 
460 62 2 1.0280018897848828e+00 8.4287873739660347e+02 4.2000000000000000e+03 1.1177552642705173e+01 5.8375653339040658e+00 8.3684766469686522e+01 
497 99 2 1.0279907707606415e+00 4.0839313623019220e+03 4.2000000000000000e+03 1.1371094487109451e+01 8.7880216859782703e+00 8.3919849825835229e+01 
469 71 2 1.0279969858694891e+00 1.1341034756829611e+03 4.2000000000000000e+03 1.1655849452950729e+01 7.4548296171511383e+00 8.3917440402948216e+01 
873 475 2 1.0279982272876376e+00 1.7808040742435271e+03 4.2000000000000000e+03 1.2098723314947847e+01 6.3401119684367746e+00 8.4065750110254285e+01 
793 395 2 1.0279997590061221e+00 1.6306103210129518e+03 4.2000000000000000e+03 1.2731559399385228e+01 8.4346425298564256e+00 8.4288606512481778e+01 
1423 1025 2 1.0280004762485786e+00 -3.4683436023155934e+02 4.2000000000000000e+03 1.3088277270173734e+01 8.9891119273778326e+00 8.4409983383219057e+01 
474 76 2 1.0279994973516362e+00 2.2035622610749274e+03 4.2000000000000000e+03 1.3194711527795061e+01 5.3946327202101791e+00 8.4411291576227882e+01 