LAMMPS data file via write_data, version 30 Jul 2016, timestep = 50400000

180 atoms
2 atom types

0.0000000000000000e+00 2.0000000000000000e+01 xlo xhi
0.0000000000000000e+00 2.0000000000000000e+01 ylo yhi
0.0000000000000000e+00 2.0000000000000000e+01 zlo zhi

Masses

1 3.896
2 4.31

Atoms # meso-molecular

84 1 2 1.0280000000000897e+00 -2.7177469490411670e+02 1.0000000000000000e+00 2.7903307882293600e+00 6.2232566714238913e-01 1.2555002982769979e+01 
116 1 2 1.0280000000000897e+00 -1.2346741236840791e+02 1.0000000000000000e+00 2.7903307882293600e+00 6.2232566714238913e-01 1.2555002982769979e+01 
110 1 2 1.0280000000000897e+00 -1.9817015697189146e+02 1.0000000000000000e+00 2.7903307882293600e+00 6.2232566714238913e-01 1.2555002982769979e+01 
86 1 2 1.0280000000000897e+00 -1.2138329799082638e+02 1.0000000000000000e+00 2.7903307882293600e+00 6.2232566714238913e-01 1.2555002982769979e+01 
48 1 2 1.0280000000000897e+00 -2.4172904198329894e+02 1.0000000000000000e+00 2.7903307882293600e+00 6.2232566714238913e-01 1.2555002982769979e+01 
74 1 2 1.0280000000000897e+00 -1.9510065981778772e+02 1.0000000000000000e+00 2.7903307882293600e+00 6.2232566714238913e-01 1.2555002982769979e+01 
80 1 2 1.0280000000000897e+00 -1.0777510168683216e+02 1.0000000000000000e+00 2.7903307882293600e+00 6.2232566714238913e-01 1.2555002982769979e+01 
109 1 2 1.0280000000000902e+00 -2.3511533366514968e+02 1.0000000000000000e+00 6.9621207103011021e-02 2.1146887891126092e+00 1.3575249227857208e+01 
140 1 2 1.0280000000000902e+00 -2.6529458981505377e+02 1.0000000000000000e+00 6.9621207103011021e-02 2.1146887891126092e+00 1.3575249227857208e+01 
104 1 2 1.0280000000000902e+00 -2.1816206900763592e+02 1.0000000000000000e+00 6.9621207103011021e-02 2.1146887891126092e+00 1.3575249227857208e+01 
137 1 2 1.0280000000000902e+00 -2.3449876948581806e+02 1.0000000000000000e+00 6.9621207103011021e-02 2.1146887891126092e+00 1.3575249227857208e+01 
73 1 2 1.0280000000000902e+00 -2.4814478051450590e+02 1.0000000000000000e+00 6.9621207103011021e-02 2.1146887891126092e+00 1.3575249227857208e+01 
103 1 2 1.0280000000000902e+00 -3.0835078594251286e+02 1.0000000000000000e+00 6.9621207103011021e-02 2.1146887891126092e+00 1.3575249227857208e+01 
139 1 2 1.0280000000000902e+00 -2.6259551862445085e+02 1.0000000000000000e+00 6.9621207103011021e-02 2.1146887891126092e+00 1.3575249227857208e+01 
164 1 2 1.0280012076214919e+00 -1.7642017774740839e+02 1.0000000000000000e+00 4.6402019806139378e+00 1.5907677032457823e+01 5.8746213592774976e-01 
92 1 2 1.0280012076214919e+00 -1.8487189087721458e+02 1.0000000000000000e+00 4.6402019806139378e+00 1.5907677032457823e+01 5.8746213592774976e-01 
71 1 2 1.0280012076214919e+00 -1.9413475798701654e+02 1.0000000000000000e+00 4.6402019806139378e+00 1.5907677032457823e+01 5.8746213592774976e-01 
98 1 2 1.0280012076214919e+00 -1.7354818922270044e+02 1.0000000000000000e+00 4.6402019806139378e+00 1.5907677032457823e+01 5.8746213592774976e-01 
70 1 2 1.0280012076214919e+00 -1.9085350721492802e+02 1.0000000000000000e+00 4.6402019806139378e+00 1.5907677032457823e+01 5.8746213592774976e-01 
163 1 2 1.0280012076214919e+00 -1.6578184877065587e+02 1.0000000000000000e+00 4.6402019806139378e+00 1.5907677032457823e+01 5.8746213592774976e-01 
100 1 2 1.0280012076214919e+00 -2.2508314555616727e+02 1.0000000000000000e+00 4.6402019806139378e+00 1.5907677032457823e+01 5.8746213592774976e-01 
30 1 2 1.0279988920419942e+00 -2.6948303733949393e+02 1.0000000000000000e+00 2.0442825751903406e+00 1.7006024680607101e+01 2.1735292876394992e+00 
65 1 2 1.0279988920419942e+00 -2.6976452351977304e+02 1.0000000000000000e+00 2.0442825751903406e+00 1.7006024680607101e+01 2.1735292876394992e+00 
179 1 2 1.0279988920419942e+00 -2.6752031113546445e+02 1.0000000000000000e+00 2.0442825751903406e+00 1.7006024680607101e+01 2.1735292876394992e+00 
29 1 2 1.0279988920419942e+00 -2.4897114828929730e+02 1.0000000000000000e+00 2.0442825751903406e+00 1.7006024680607101e+01 2.1735292876394992e+00 
72 1 2 1.0279988920419942e+00 -2.6350433479547758e+02 1.0000000000000000e+00 2.0442825751903406e+00 1.7006024680607101e+01 2.1735292876394992e+00 
66 1 2 1.0279988920419942e+00 -2.5690438270549839e+02 1.0000000000000000e+00 2.0442825751903406e+00 1.7006024680607101e+01 2.1735292876394992e+00 
27 1 2 1.0280011183373492e+00 -2.5245960628415600e+02 1.0000000000000000e+00 7.7049054955004659e-01 1.7298648697576901e+01 1.9523426533238528e-01 
14 1 2 1.0280011183373490e+00 -1.8620809039437924e+02 1.0000000000000000e+00 7.7049054935788042e-01 1.7298648697565195e+01 1.9523426536272998e-01 
20 1 2 1.0280011183373499e+00 -1.9155076087846481e+02 1.0000000000000000e+00 7.7049054934355132e-01 1.7298648697767707e+01 1.9523426499412405e-01 
145 1 2 1.0280011183373501e+00 -1.5532074312087207e+02 1.0000000000000000e+00 7.7049054929139427e-01 1.7298648698011121e+01 1.9523426455269849e-01 
146 1 2 1.0280011183373465e+00 -1.8097107629605733e+02 1.0000000000000000e+00 7.7049055012490519e-01 1.7298648696446875e+01 1.9523426736604932e-01 
26 1 2 1.0280010703443336e+00 -2.6203903195168118e+02 1.0000000000000000e+00 1.2328577128422571e+00 1.7078666882547587e+01 5.3035615769387068e+00 
62 1 2 1.0280010703443336e+00 -2.0362785258777964e+02 1.0000000000000000e+00 1.2328577128422571e+00 1.7078666882547587e+01 5.3035615769387068e+00 
25 1 2 1.0280010703443336e+00 -2.6636937687910512e+02 1.0000000000000000e+00 1.2328577128422571e+00 1.7078666882547587e+01 5.3035615769387068e+00 
63 1 2 1.0280010703443336e+00 -2.4972002424298717e+02 1.0000000000000000e+00 1.2328577128422571e+00 1.7078666882547587e+01 5.3035615769387068e+00 
3 1 2 1.0280010703443336e+00 -2.2619710719102059e+02 1.0000000000000000e+00 1.2328577128422571e+00 1.7078666882547587e+01 5.3035615769387068e+00 
68 1 2 1.0280010703443336e+00 -1.7875360676505520e+02 1.0000000000000000e+00 1.2328577128422571e+00 1.7078666882547587e+01 5.3035615769387068e+00 
32 1 2 1.0280010703443336e+00 -2.4732864658342322e+02 1.0000000000000000e+00 1.2328577128422571e+00 1.7078666882547587e+01 5.3035615769387068e+00 
135 1 2 1.0279999481026076e+00 -2.4379908867669383e+02 1.0000000000000000e+00 6.0607281768259780e+00 1.7482305694540326e+01 1.5643125938707149e+01 
178 1 2 1.0279999481085358e+00 -1.7724674396253317e+02 1.0000000000000000e+00 6.0607454379123311e+00 1.7482332720172785e+01 1.5643132609756135e+01 
136 1 2 1.0279999481085460e+00 -2.2761884220217752e+02 1.0000000000000000e+00 6.0607486859416619e+00 1.7482334042834026e+01 1.5643138968193853e+01 
106 1 2 1.0279999481048145e+00 -2.3339617722884850e+02 1.0000000000000000e+00 6.0607343785520138e+00 1.7482315651578077e+01 1.5643128001029075e+01 
67 1 2 1.0279999494749665e+00 -2.8222035286276986e+02 1.0000000000000000e+00 6.0678115455252390e+00 1.7489618621455389e+01 1.5650610050750920e+01 
7 1 2 1.0280000610643036e+00 -3.1068475373568600e+02 1.0000000000000000e+00 9.7152911550177166e+00 5.1558177233214622e+00 5.4629054797838226e+00 
8 1 2 1.0280000610643036e+00 -2.1362000870322046e+02 1.0000000000000000e+00 9.7152911550177166e+00 5.1558177233214622e+00 5.4629054797838226e+00 
1 1 2 1.0280000610643036e+00 -2.9702262879635038e+02 1.0000000000000000e+00 9.7152911550177166e+00 5.1558177233214622e+00 5.4629054797838226e+00 
44 1 2 1.0280000610643036e+00 -1.8823269007951566e+02 1.0000000000000000e+00 9.7152911550177166e+00 5.1558177233214622e+00 5.4629054797838226e+00 
31 1 2 1.0280000610643036e+00 -2.0694860474865729e+02 1.0000000000000000e+00 9.7152911550177166e+00 5.1558177233214622e+00 5.4629054797838226e+00 
9 1 2 1.0280000610643036e+00 -2.0426257928719778e+02 1.0000000000000000e+00 9.7152911550177166e+00 5.1558177233214622e+00 5.4629054797838226e+00 
2 1 2 1.0280000610643036e+00 -2.5001675735776473e+02 1.0000000000000000e+00 9.7152911550177166e+00 5.1558177233214622e+00 5.4629054797838226e+00 
171 1 2 1.0280000579621518e+00 -1.6379858896910940e+02 1.0000000000000000e+00 7.8098219957338113e+00 2.4861482395030134e+00 9.7645836694815760e+00 
112 1 2 1.0280000562382237e+00 -1.6288613004366528e+02 1.0000000000000000e+00 7.8122317533788275e+00 2.4579903921482575e+00 9.7978128924447336e+00 
147 1 2 1.0280000562382241e+00 -1.5176994369357942e+02 1.0000000000000000e+00 7.8122317536862562e+00 2.4579903915093131e+00 9.7978128938218436e+00 
148 1 2 1.0280000562382243e+00 -1.6173621190700618e+02 1.0000000000000000e+00 7.8122317536165076e+00 2.4579903916505561e+00 9.7978128935132514e+00 
46 1 2 1.0280004444476782e+00 -2.1551719837461135e+02 1.0000000000000000e+00 1.3251322667496115e+01 1.2155719735427615e+00 9.4804414512974056e+00 
38 1 2 1.0280004444476782e+00 -2.1467219429646869e+02 1.0000000000000000e+00 1.3251322667496005e+01 1.2155719735425836e+00 9.4804414512974091e+00 
76 1 2 1.0280004444476782e+00 -2.0113690490134647e+02 1.0000000000000000e+00 1.3251322667496115e+01 1.2155719735427615e+00 9.4804414512974056e+00 
40 1 2 1.0280004444476782e+00 -1.5808872829838469e+02 1.0000000000000000e+00 1.3251322667496115e+01 1.2155719735427615e+00 9.4804414512974056e+00 
4 1 2 1.0279999438640650e+00 -2.2966340235185976e+02 1.0000000000000000e+00 8.1174040721112153e+00 3.6947514502859256e+00 8.0672418225757401e+00 
5 1 2 1.0279999438640650e+00 -2.5127377784284809e+02 1.0000000000000000e+00 8.1174040721112153e+00 3.6947514502859256e+00 8.0672418225757401e+00 
11 1 2 1.0279999438640650e+00 -2.8810636703935569e+02 1.0000000000000000e+00 8.1174040721112153e+00 3.6947514502859256e+00 8.0672418225757401e+00 
6 1 2 1.0279999438640650e+00 -2.0908914829250074e+02 1.0000000000000000e+00 8.1174040721112153e+00 3.6947514502859256e+00 8.0672418225757401e+00 
10 1 2 1.0279999438640650e+00 -1.9284782510419666e+02 1.0000000000000000e+00 8.1174040721112153e+00 3.6947514502859256e+00 8.0672418225757401e+00 
36 1 2 1.0279999438640650e+00 -4.3086199837889751e+01 1.0000000000000000e+00 8.1174040721112153e+00 3.6947514502859256e+00 8.0672418225757401e+00 
43 1 2 1.0279999285236505e+00 -1.4823703878635558e+02 1.0000000000000000e+00 1.2566743189202773e+01 5.5999376389117153e+00 7.2168188208295252e+00 
17 1 2 1.0279999285236505e+00 -2.0692238292258244e+02 1.0000000000000000e+00 1.2566743189202773e+01 5.5999376389117153e+00 7.2168188208295252e+00 
53 1 2 1.0279999285236505e+00 -2.1503700057738703e+02 1.0000000000000000e+00 1.2566743189202773e+01 5.5999376389117153e+00 7.2168188208295252e+00 
79 1 2 1.0279999285236505e+00 -1.9041029561839150e+02 1.0000000000000000e+00 1.2566743189202773e+01 5.5999376389117153e+00 7.2168188208295252e+00 
141 1 2 1.0279999285236505e+00 -2.2412729125217439e+02 1.0000000000000000e+00 1.2566743189202773e+01 5.5999376389117153e+00 7.2168188208295252e+00 
23 1 2 1.0279999285236505e+00 -2.3131310623823961e+02 1.0000000000000000e+00 1.2566743189202773e+01 5.5999376389117153e+00 7.2168188208295252e+00 
37 1 2 1.0279999285236505e+00 -1.3699100008417045e+02 1.0000000000000000e+00 1.2566743189202773e+01 5.5999376389117153e+00 7.2168188208295252e+00 
118 1 2 1.0280000079414775e+00 -1.9893684365691814e+02 1.0000000000000000e+00 7.5025761092677490e+00 1.1871742171430200e+00 1.1651685430630614e+01 
127 1 2 1.0280000079414775e+00 -2.0306087164192127e+02 1.0000000000000000e+00 7.5025761092677490e+00 1.1871742171430200e+00 1.1651685430630614e+01 
128 1 2 1.0280000079414775e+00 -2.1364802905780201e+02 1.0000000000000000e+00 7.5025761092677490e+00 1.1871742171430200e+00 1.1651685430630614e+01 
119 1 2 1.0280000079414775e+00 -2.1087604249724643e+02 1.0000000000000000e+00 7.5025761092677490e+00 1.1871742171430200e+00 1.1651685430630614e+01 
111 1 2 1.0280000033404271e+00 -2.3764133726737012e+02 1.0000000000000000e+00 9.7706170586661614e+00 1.1569721327267255e+00 1.3145800112049152e+01 
83 1 2 1.0280000033404273e+00 -2.9141599773444000e+02 1.0000000000000000e+00 9.7706170586660814e+00 1.1569721327267997e+00 1.3145800112049283e+01 
113 1 2 1.0280000033404273e+00 -1.8301486886254844e+02 1.0000000000000000e+00 9.7706170586660814e+00 1.1569721327267997e+00 1.3145800112049283e+01 
82 1 2 1.0280000033404273e+00 -2.2996379146874753e+02 1.0000000000000000e+00 9.7706170586660814e+00 1.1569721327267997e+00 1.3145800112049283e+01 
77 1 2 1.0280000033404273e+00 -2.2500122770418551e+02 1.0000000000000000e+00 9.7706170586660814e+00 1.1569721327267997e+00 1.3145800112049283e+01 
89 1 2 1.0280000033404273e+00 -2.0192211964321623e+02 1.0000000000000000e+00 9.7706170586660814e+00 1.1569721327267997e+00 1.3145800112049283e+01 
129 1 2 1.0279999767272090e+00 -2.2453970763961868e+02 1.0000000000000000e+00 9.6023070905122037e+00 6.3803097023445410e-01 1.0146190844847313e+01 
159 1 2 1.0279999767272090e+00 -2.3785541738155266e+02 1.0000000000000000e+00 9.6023070905122037e+00 6.3803097023445410e-01 1.0146190844847313e+01 
69 1 2 1.0279999767272090e+00 -1.9542740898270355e+02 1.0000000000000000e+00 9.6023070905122037e+00 6.3803097023445410e-01 1.0146190844847313e+01 
122 1 2 1.0279999767272090e+00 -1.4029058809447147e+02 1.0000000000000000e+00 9.6023070905122037e+00 6.3803097023445410e-01 1.0146190844847313e+01 
165 1 2 1.0279999767272090e+00 -1.8839359305076070e+02 1.0000000000000000e+00 9.6023070905122037e+00 6.3803097023445410e-01 1.0146190844847313e+01 
123 1 2 1.0279999767272090e+00 -1.9397633570181861e+02 1.0000000000000000e+00 9.6023070905122037e+00 6.3803097023445410e-01 1.0146190844847313e+01 
41 1 2 1.0280000189108709e+00 -3.1707371701872819e+02 1.0000000000000000e+00 1.1794759891033790e+01 3.1547461722940295e+00 1.0271547420453901e+01 
47 1 2 1.0280000189108711e+00 -2.7993776973036796e+02 1.0000000000000000e+00 1.1794759891033790e+01 3.1547461722940202e+00 1.0271547420453860e+01 
78 1 2 1.0280000189108711e+00 -3.1716896291288629e+02 1.0000000000000000e+00 1.1794759891033790e+01 3.1547461722940202e+00 1.0271547420453860e+01 
42 1 2 1.0280000189108711e+00 -2.3588871061556034e+02 1.0000000000000000e+00 1.1794759891033719e+01 3.1547461722940353e+00 1.0271547420453901e+01 
143 1 2 1.0280001080866665e+00 -2.0324821369048504e+02 1.0000000000000000e+00 1.1585800005193459e+01 4.7190826877182595e+00 1.0302457517698302e+01 
174 1 2 1.0280001080866665e+00 -2.2525204915078004e+02 1.0000000000000000e+00 1.1585800005194550e+01 4.7190826877182754e+00 1.0302457517699379e+01 
108 1 2 1.0280001080866663e+00 -1.9697993739270640e+02 1.0000000000000000e+00 1.1585800005193494e+01 4.7190826877182772e+00 1.0302457517698240e+01 
144 1 2 1.0280001080866663e+00 -2.0040030038102174e+02 1.0000000000000000e+00 1.1585800005193533e+01 4.7190826877182861e+00 1.0302457517698231e+01 
180 1 2 1.0280001080866665e+00 -2.2158185620925300e+02 1.0000000000000000e+00 1.1585800005193478e+01 4.7190826877182710e+00 1.0302457517698256e+01 
90 1 2 1.0279999784913008e+00 -2.2750472635812901e+02 1.0000000000000000e+00 6.6674641559233265e+00 5.7848657417709604e-01 1.3604489867323519e+01 
138 1 2 1.0279999784912994e+00 -1.8725269833212280e+02 1.0000000000000000e+00 6.6674641559233185e+00 5.7848657417712479e-01 1.3604489867323476e+01 
96 1 2 1.0279999784913001e+00 -2.1735080599760522e+02 1.0000000000000000e+00 6.6674641559233514e+00 5.7848657417712979e-01 1.3604489867323581e+01 
102 1 2 1.0279999784913001e+00 -1.9786756131004208e+02 1.0000000000000000e+00 6.6674641559233017e+00 5.7848657417707883e-01 1.3604489867323453e+01 
55 1 2 1.0279998667557595e+00 -1.1261601564555956e+02 1.0000000000000000e+00 1.0248135352954851e+01 1.6681792564782771e+01 1.3005060813732891e+01 
49 1 2 1.0279998667557595e+00 -1.7911215405101592e+02 1.0000000000000000e+00 1.0248135352954851e+01 1.6681792564782771e+01 1.3005060813732891e+01 
75 1 2 1.0279998667557595e+00 -2.3826022567089510e+02 1.0000000000000000e+00 1.0248135352954851e+01 1.6681792564782771e+01 1.3005060813732891e+01 
134 1 2 1.0279998667557595e+00 -2.4488729542146334e+02 1.0000000000000000e+00 1.0248135352954851e+01 1.6681792564782771e+01 1.3005060813732891e+01 
97 1 2 1.0279998667557595e+00 -1.1868927721357308e+02 1.0000000000000000e+00 1.0248135352954851e+01 1.6681792564782771e+01 1.3005060813732891e+01 
50 1 2 1.0279998667557595e+00 -1.6736075297574325e+02 1.0000000000000000e+00 1.0248135352954851e+01 1.6681792564782771e+01 1.3005060813732891e+01 
61 1 2 1.0279998667557595e+00 -1.0120274780851516e+02 1.0000000000000000e+00 1.0248135352954851e+01 1.6681792564782771e+01 1.3005060813732891e+01 
56 1 2 1.0280001328367843e+00 -2.8232303009172489e+02 1.0000000000000000e+00 1.3170884850039759e+01 1.6918715137961556e+01 1.1539742559857627e+01 
57 1 2 1.0280001328367914e+00 -2.5160209534682593e+02 1.0000000000000000e+00 1.3170884865612869e+01 1.6918715139054569e+01 1.1539742562328600e+01 
21 1 2 1.0280001328367818e+00 -2.0653191728276138e+02 1.0000000000000000e+00 1.3170884833832487e+01 1.6918715136819184e+01 1.1539742557277357e+01 
93 1 2 1.0280001328367372e+00 -2.0414722824836636e+02 1.0000000000000000e+00 1.3170884682691691e+01 1.6918715126186470e+01 1.1539742533251655e+01 
177 1 2 1.0280001328973642e+00 -2.0192792615997374e+02 1.0000000000000000e+00 1.3171076408285240e+01 1.6918728588629271e+01 1.1539772896300637e+01 
105 1 2 1.0280001334232172e+00 -2.7224514013348005e+02 1.0000000000000000e+00 1.3172782282969488e+01 1.6918790195226382e+01 1.1539933832763204e+01 
117 1 2 1.0280000813232362e+00 -2.0992572584480095e+02 1.0000000000000000e+00 7.4812416538433677e+00 1.6520036759262602e+01 1.5122323722422275e+01 
81 1 2 1.0280000813232351e+00 -1.4064835083678722e+02 1.0000000000000000e+00 7.4812416519923834e+00 1.6520036758408342e+01 1.5122323718782619e+01 
87 1 2 1.0280000813232359e+00 -1.4109709579461051e+02 1.0000000000000000e+00 7.4812416519469940e+00 1.6520036758353694e+01 1.5122323718782850e+01 
88 1 2 1.0280000813232362e+00 -1.4394029219074631e+02 1.0000000000000000e+00 7.4812416519923728e+00 1.6520036758408203e+01 1.5122323718782964e+01 
51 1 2 1.0280000813232357e+00 -1.6197676050845760e+02 1.0000000000000000e+00 7.4812416519470295e+00 1.6520036758353790e+01 1.5122323718782708e+01 
126 1 2 1.0280000346861313e+00 -1.1519071158963965e+02 1.0000000000000000e+00 7.8878298228769461e+00 1.9734928548498001e+01 1.4120691489673476e+01 
162 1 2 1.0280000346861311e+00 -1.0913451387471392e+02 1.0000000000000000e+00 7.8878298228769106e+00 1.9734928548498008e+01 1.4120691489673497e+01 
45 1 2 1.0280000346861324e+00 -2.0473105639227504e+02 1.0000000000000000e+00 7.8878298228767596e+00 1.9734928548497891e+01 1.4120691489673412e+01 
39 1 2 1.0280000346861315e+00 -1.9705937606478960e+02 1.0000000000000000e+00 7.8878298228769479e+00 1.9734928548498015e+01 1.4120691489673492e+01 
15 1 2 1.0279998458002455e+00 -1.5759788631704896e+02 1.0000000000000000e+00 1.4750249061728335e+01 6.7517837586203389e-01 8.5765969491153875e+00 
52 1 2 1.0279998458002455e+00 -2.4982814316058395e+02 1.0000000000000000e+00 1.4750249061728246e+01 6.7517837586236951e-01 8.5765969491153449e+00 
22 1 2 1.0279998458002464e+00 -2.0524014418789380e+02 1.0000000000000000e+00 1.4750249061728239e+01 6.7517837586204710e-01 8.5765969491153182e+00 
16 1 2 1.0279998458002457e+00 -2.4380212586093151e+02 1.0000000000000000e+00 1.4750249061728187e+01 6.7517837586232732e-01 8.5765969491152987e+00 
58 1 2 1.0279998458002459e+00 -1.7487753885081483e+02 1.0000000000000000e+00 1.4750249061728194e+01 6.7517837586232898e-01 8.5765969491153040e+00 
85 1 2 1.0279999667735751e+00 -1.8864849349917793e+02 1.0000000000000000e+00 1.5583565493571012e+01 9.8754957716436720e-01 1.1542098181850672e+01 
91 1 2 1.0279999667735749e+00 -2.1496826725055391e+02 1.0000000000000000e+00 1.5583565493575071e+01 9.8754957717060687e-01 1.1542098181828695e+01 
121 1 2 1.0279999667735749e+00 -2.1117864139580902e+02 1.0000000000000000e+00 1.5583565493575000e+01 9.8754957716906355e-01 1.1542098181858043e+01 
133 1 2 1.0279999667735753e+00 -2.5017503856467007e+02 1.0000000000000000e+00 1.5583565493567514e+01 9.8754957715964464e-01 1.1542098181856391e+01 
95 1 2 1.0280000306335315e+00 -2.3456308263057417e+02 1.0000000000000000e+00 1.6341353988294536e+01 6.0259454033109561e-01 1.2992973089203041e+01 
60 1 2 1.0280000306335313e+00 -3.2527848281901584e+02 1.0000000000000000e+00 1.6341353987580916e+01 6.0259454026128401e-01 1.2992973089077774e+01 
59 1 2 1.0280000306335337e+00 -2.1888295384393837e+02 1.0000000000000000e+00 1.6341353990603274e+01 6.0259454049200190e-01 1.2992973089638738e+01 
54 1 2 1.0280000306335333e+00 -2.8115259073472703e+02 1.0000000000000000e+00 1.6341353990285750e+01 6.0259454049969519e-01 1.2992973089564844e+01 
114 1 2 1.0279999742666717e+00 -2.4439625115803025e+02 1.0000000000000000e+00 1.7585220953547349e+01 2.8576209425511823e-01 1.0284469435682963e+01 
156 1 2 1.0279999742666710e+00 -3.0133426288484100e+02 1.0000000000000000e+00 1.7585220953529550e+01 2.8576209425276045e-01 1.0284469435668971e+01 
155 1 2 1.0279999742666712e+00 -2.4891293561993587e+02 1.0000000000000000e+00 1.7585220953536801e+01 2.8576209425740456e-01 1.0284469435674890e+01 
150 1 2 1.0279999742666710e+00 -3.3613031698317042e+02 1.0000000000000000e+00 1.7585220953529550e+01 2.8576209425276045e-01 1.0284469435668971e+01 
120 1 2 1.0279999742666710e+00 -2.7429285225553508e+02 1.0000000000000000e+00 1.7585220953529550e+01 2.8576209425276045e-01 1.0284469435668971e+01 
149 1 2 1.0279999742666717e+00 -2.3078399412795540e+02 1.0000000000000000e+00 1.7585220953547349e+01 2.8576209425511823e-01 1.0284469435682963e+01 
154 1 2 1.0280006919721407e+00 -1.9003151871841749e+02 1.0000000000000000e+00 1.8551593779147723e+01 1.9934340269030240e+01 1.6786598631197309e+00 
94 1 2 1.0280006919721407e+00 -1.9831560903345172e+02 1.0000000000000000e+00 1.8551593779147723e+01 1.9934340269030240e+01 1.6786598631197309e+00 
160 1 2 1.0280006919721407e+00 -1.8267953852229249e+02 1.0000000000000000e+00 1.8551593779147723e+01 1.9934340269030240e+01 1.6786598631197309e+00 
130 1 2 1.0280006919721407e+00 -1.9800327297239392e+02 1.0000000000000000e+00 1.8551593779147723e+01 1.9934340269030240e+01 1.6786598631197309e+00 
125 1 2 1.0280006919721407e+00 -1.7244889979074802e+02 1.0000000000000000e+00 1.8551593779147723e+01 1.9934340269030240e+01 1.6786598631197309e+00 
124 1 2 1.0280006919721407e+00 -1.7078995654428016e+02 1.0000000000000000e+00 1.8551593779147723e+01 1.9934340269030240e+01 1.6786598631197309e+00 
161 1 2 1.0280006919721407e+00 -2.4457534687136763e+02 1.0000000000000000e+00 1.8551593779147723e+01 1.9934340269030240e+01 1.6786598631197309e+00 
173 1 2 1.0279997554838545e+00 -1.7797284702935329e+02 1.0000000000000000e+00 1.3686791626419712e+01 1.8770683417308199e+01 1.0278216551437245e+01 
33 1 2 1.0279997554838545e+00 -1.3987899585233083e+02 1.0000000000000000e+00 1.3686791626419712e+01 1.8770683417308199e+01 1.0278216551437245e+01 
34 1 2 1.0279997554838545e+00 -2.3972770993957010e+02 1.0000000000000000e+00 1.3686791626419712e+01 1.8770683417308199e+01 1.0278216551437245e+01 
35 1 2 1.0279997554838545e+00 -2.1874219142697800e+02 1.0000000000000000e+00 1.3686791626419712e+01 1.8770683417308199e+01 1.0278216551437245e+01 
28 1 2 1.0279997554838545e+00 -2.6492688038899047e+02 1.0000000000000000e+00 1.3686791626419712e+01 1.8770683417308199e+01 1.0278216551437245e+01 
157 1 2 1.0280002989096177e+00 -2.6695516435754450e+02 1.0000000000000000e+00 1.7713044130407408e+01 1.8669790582562310e+01 1.2689412134311363e+01 
158 1 2 1.0280002989110140e+00 -2.2236140815399290e+02 1.0000000000000000e+00 1.7713043753493800e+01 1.8669790588412148e+01 1.2689412956878092e+01 
153 1 2 1.0280002989110142e+00 -2.3534990115228152e+02 1.0000000000000000e+00 1.7713043753488012e+01 1.8669790588408031e+01 1.2689412956872347e+01 
115 1 2 1.0280002989096191e+00 -2.6297292233694344e+02 1.0000000000000000e+00 1.7713044130398600e+01 1.8669790582556818e+01 1.2689412134305988e+01 
151 1 2 1.0280002989096182e+00 -3.1864212116943389e+02 1.0000000000000000e+00 1.7713044130391321e+01 1.8669790582552746e+01 1.2689412134303602e+01 
152 1 2 1.0280002989109598e+00 -2.4641319490095603e+02 1.0000000000000000e+00 1.7713043766800997e+01 1.8669790588075944e+01 1.2689412927270682e+01 
24 1 2 1.0280000311743080e+00 -2.2608433235065709e+02 1.0000000000000000e+00 1.8910540618268239e+01 1.7671721824830165e+01 1.5618143637273965e+01 
168 1 2 1.0280000311743080e+00 -2.0227120429069103e+02 1.0000000000000000e+00 1.8910540618268239e+01 1.7671721824830165e+01 1.5618143637273965e+01 
132 1 2 1.0280000311743080e+00 -1.8921477367982226e+02 1.0000000000000000e+00 1.8910540618268239e+01 1.7671721824830165e+01 1.5618143637273965e+01 
131 1 2 1.0280000311743080e+00 -1.8781717447173443e+02 1.0000000000000000e+00 1.8910540618268239e+01 1.7671721824830165e+01 1.5618143637273965e+01 
19 1 2 1.0280000311743080e+00 -2.2181117526610271e+02 1.0000000000000000e+00 1.8910540618268239e+01 1.7671721824830165e+01 1.5618143637273965e+01 
13 1 2 1.0280000311743080e+00 -2.4796038105879322e+02 1.0000000000000000e+00 1.8910540618268239e+01 1.7671721824830165e+01 1.5618143637273965e+01 
167 1 2 1.0280000311743080e+00 -1.8453689963091963e+02 1.0000000000000000e+00 1.8910540618268239e+01 1.7671721824830165e+01 1.5618143637273965e+01 
142 1 2 1.0280009867910778e+00 -1.9425198587279669e+02 1.0000000000000000e+00 1.6574683377911207e+01 1.7524942999429520e+01 1.9332519834886877e+01 
64 1 2 1.0280009867910778e+00 -1.8667909051924113e+02 1.0000000000000000e+00 1.6574683377911207e+01 1.7524942999429520e+01 1.9332519834886877e+01 
101 1 2 1.0280009867910778e+00 -1.7521184725667501e+02 1.0000000000000000e+00 1.6574683377911207e+01 1.7524942999429520e+01 1.9332519834886877e+01 
99 1 2 1.0280009867910778e+00 -1.7464066353306953e+02 1.0000000000000000e+00 1.6574683377911207e+01 1.7524942999429520e+01 1.9332519834886877e+01 
172 1 2 1.0280009867910778e+00 -9.5643406762803806e+01 1.0000000000000000e+00 1.6574683377911207e+01 1.7524942999429520e+01 1.9332519834886877e+01 
107 1 2 1.0280009867910778e+00 -1.9202298742415826e+02 1.0000000000000000e+00 1.6574683377911207e+01 1.7524942999429520e+01 1.9332519834886877e+01 
166 1 2 1.0280009867910778e+00 -9.3173408389439530e+01 1.0000000000000000e+00 1.6574683377911207e+01 1.7524942999429520e+01 1.9332519834886877e+01 
169 1 2 1.0279990353207078e+00 -2.4345048960673768e+02 1.0000000000000000e+00 1.9508043154247947e+01 1.8782821573327951e+01 1.8808512951535061e+01 
18 1 2 1.0279990353207078e+00 -1.0666514995721732e+02 1.0000000000000000e+00 1.9508043154247947e+01 1.8782821573327951e+01 1.8808512951535061e+01 
12 1 2 1.0279990353207078e+00 -1.0939741025776462e+02 1.0000000000000000e+00 1.9508043154247947e+01 1.8782821573327951e+01 1.8808512951535061e+01 
175 1 2 1.0279990353207078e+00 -1.3665273030795930e+02 1.0000000000000000e+00 1.9508043154247947e+01 1.8782821573327951e+01 1.8808512951535061e+01 
170 1 2 1.0279990353207078e+00 -2.3313917398902447e+02 1.0000000000000000e+00 1.9508043154247947e+01 1.8782821573327951e+01 1.8808512951535061e+01 
176 1 2 1.0279990353207078e+00 -1.7759637894038244e+02 1.0000000000000000e+00 1.9508043154247947e+01 1.8782821573327951e+01 1.8808512951535061e+01 

Velocities

84 -2.9709376216087929e-01 -9.9040749830699146e-02 2.0907156781797182e-01
116 -2.9709376216087929e-01 -9.9040749830699146e-02 2.0907156781797182e-01
110 -2.9709376216087929e-01 -9.9040749830699146e-02 2.0907156781797182e-01
86 -2.9709376216087929e-01 -9.9040749830699146e-02 2.0907156781797182e-01
48 -2.9709376216087929e-01 -9.9040749830699146e-02 2.0907156781797182e-01
74 -2.9709376216087929e-01 -9.9040749830699146e-02 2.0907156781797182e-01
80 -2.9709376216087929e-01 -9.9040749830699146e-02 2.0907156781797182e-01
109 -2.9709376571661605e-01 -9.9040766961953602e-02 2.0907158339392248e-01
140 -2.9709376571661605e-01 -9.9040766961953602e-02 2.0907158339392248e-01
104 -2.9709376571661605e-01 -9.9040766961953602e-02 2.0907158339392248e-01
137 -2.9709376571661605e-01 -9.9040766961953602e-02 2.0907158339392248e-01
73 -2.9709376571661605e-01 -9.9040766961953602e-02 2.0907158339392248e-01
103 -2.9709376571661605e-01 -9.9040766961953602e-02 2.0907158339392248e-01
139 -2.9709376571661605e-01 -9.9040766961953602e-02 2.0907158339392248e-01
164 -2.9804470003781180e-01 -9.9923276550313578e-02 2.1107249073594175e-01
92 -2.9804470003781180e-01 -9.9923276550313578e-02 2.1107249073594175e-01
71 -2.9804470003781180e-01 -9.9923276550313578e-02 2.1107249073594175e-01
98 -2.9804470003781180e-01 -9.9923276550313578e-02 2.1107249073594175e-01
70 -2.9804470003781180e-01 -9.9923276550313578e-02 2.1107249073594175e-01
163 -2.9804470003781180e-01 -9.9923276550313578e-02 2.1107249073594175e-01
100 -2.9804470003781180e-01 -9.9923276550313578e-02 2.1107249073594175e-01
30 -2.9806064475213684e-01 -9.9966128679205499e-02 2.1107616103454360e-01
65 -2.9806064475213684e-01 -9.9966128679205499e-02 2.1107616103454360e-01
179 -2.9806064475213684e-01 -9.9966128679205499e-02 2.1107616103454360e-01
29 -2.9806064475213684e-01 -9.9966128679205499e-02 2.1107616103454360e-01
72 -2.9806064475213684e-01 -9.9966128679205499e-02 2.1107616103454360e-01
66 -2.9806064475213684e-01 -9.9966128679205499e-02 2.1107616103454360e-01
27 -2.9805860802643075e-01 -1.0001005869770840e-01 2.1106839365039565e-01
14 -2.9805860802645234e-01 -1.0001005869770734e-01 2.1106839365040025e-01
20 -2.9805860802645406e-01 -1.0001005869769011e-01 2.1106839365035693e-01
145 -2.9805860802645973e-01 -1.0001005869767512e-01 2.1106839365030103e-01
146 -2.9805860802636663e-01 -1.0001005869779105e-01 2.1106839365064428e-01
26 -2.9806183311671608e-01 -9.9915157840157059e-02 2.1107471102355435e-01
62 -2.9806183311671608e-01 -9.9915157840157059e-02 2.1107471102355435e-01
25 -2.9806183311671608e-01 -9.9915157840157059e-02 2.1107471102355435e-01
63 -2.9806183311671608e-01 -9.9915157840157059e-02 2.1107471102355435e-01
3 -2.9806183311671608e-01 -9.9915157840157059e-02 2.1107471102355435e-01
68 -2.9806183311671608e-01 -9.9915157840157059e-02 2.1107471102355435e-01
32 -2.9806183311671608e-01 -9.9915157840157059e-02 2.1107471102355435e-01
135 -2.9791662773524075e-01 -1.0125996682080886e-01 2.1098557533026693e-01
178 -2.9791662798075841e-01 -1.0125996690208432e-01 2.1098557536412335e-01
136 -2.9791662799781210e-01 -1.0125996690896025e-01 2.1098557533118545e-01