LAMMPS data file via write_data, version 30 Jul 2016, timestep = 50000000

180 atoms
2 atom types

0.0000000000000000e+00 2.0000000000000000e+01 xlo xhi
0.0000000000000000e+00 2.0000000000000000e+01 ylo yhi
0.0000000000000000e+00 2.0000000000000000e+01 zlo zhi

Masses

1 3.896
2 4.31

Atoms # meso-molecular

93 1 2 1.0280001484516066e+00 -2.0414722827110373e+02 1.0000000000000000e+00 5.0880231683068038e+00 9.6129346832593909e-01 3.1002605694301155e+00 
21 1 2 1.0280001484516508e+00 -2.0653191730549875e+02 1.0000000000000000e+00 5.0880233193497659e+00 9.6129347894160588e-01 3.1002605934215479e+00 
57 1 2 1.0280001484516599e+00 -2.5160209536956330e+02 1.0000000000000000e+00 5.0880233511096469e+00 9.6129348117335578e-01 3.1002605984654981e+00 
56 1 2 1.0280001484516548e+00 -2.8232303009326665e+02 1.0000000000000000e+00 5.0880233355465183e+00 9.6129348008210691e-01 3.1002605959980487e+00 
177 1 2 1.0280001485065779e+00 -2.0192792618271110e+02 1.0000000000000000e+00 5.0882147694934066e+00 9.6130690911971006e-01 3.1002908891424781e+00 
105 1 2 1.0280001489755115e+00 -2.7224514013371351e+02 1.0000000000000000e+00 5.0899195372489441e+00 9.6136833508251629e-01 3.1004515127449075e+00 
33 1 2 1.0279997388035449e+00 -1.3987899589780557e+02 1.0000000000000000e+00 5.6041263828146315e+00 2.8128418039784759e+00 1.8381712175622376e+00 
34 1 2 1.0279997388035449e+00 -2.3972770998504484e+02 1.0000000000000000e+00 5.6041263828146315e+00 2.8128418039784759e+00 1.8381712175622376e+00 
35 1 2 1.0279997388035449e+00 -2.1874219147245273e+02 1.0000000000000000e+00 5.6041263828146315e+00 2.8128418039784759e+00 1.8381712175622376e+00 
28 1 2 1.0279997388035449e+00 -2.6492688043446520e+02 1.0000000000000000e+00 5.6041263828146315e+00 2.8128418039784759e+00 1.8381712175622376e+00 
173 1 2 1.0279997388035449e+00 -1.7797284707482802e+02 1.0000000000000000e+00 5.6041263828146315e+00 2.8128418039784759e+00 1.8381712175622376e+00 
129 1 2 1.0279999840061316e+00 -2.2453970768509342e+02 1.0000000000000000e+00 1.5192265278893673e+00 4.6887374719988273e+00 1.7064303519371018e+00 
159 1 2 1.0279999840061316e+00 -2.3785541742702739e+02 1.0000000000000000e+00 1.5192265278893673e+00 4.6887374719988273e+00 1.7064303519371018e+00 
69 1 2 1.0279999840061316e+00 -1.9542740902817829e+02 1.0000000000000000e+00 1.5192265278893673e+00 4.6887374719988273e+00 1.7064303519371018e+00 
122 1 2 1.0279999840061316e+00 -1.4029058813994621e+02 1.0000000000000000e+00 1.5192265278893673e+00 4.6887374719988273e+00 1.7064303519371018e+00 
165 1 2 1.0279999840061316e+00 -1.8839359309623543e+02 1.0000000000000000e+00 1.5192265278893673e+00 4.6887374719988273e+00 1.7064303519371018e+00 
123 1 2 1.0279999840061316e+00 -1.9397633574729335e+02 1.0000000000000000e+00 1.5192265278893673e+00 4.6887374719988273e+00 1.7064303519371018e+00 
76 1 2 1.0280004655750297e+00 -2.0113690497163856e+02 1.0000000000000000e+00 5.1698060434712083e+00 5.2579081131817587e+00 1.0398794679639534e+00 
38 1 2 1.0280004655750294e+00 -2.1467219436676078e+02 1.0000000000000000e+00 5.1698060434711062e+00 5.2579081131815926e+00 1.0398794679639569e+00 
40 1 2 1.0280004655750297e+00 -1.5808872836867678e+02 1.0000000000000000e+00 5.1698060434712083e+00 5.2579081131817587e+00 1.0398794679639534e+00 
46 1 2 1.0280004655750297e+00 -2.1551719844490344e+02 1.0000000000000000e+00 5.1698060434712083e+00 5.2579081131817587e+00 1.0398794679639534e+00 
180 1 2 1.0280000945274417e+00 -2.2158185623199037e+02 1.0000000000000000e+00 3.5048648141937782e+00 8.7632117819285984e+00 1.8616280339118758e+00 
144 1 2 1.0280000945274415e+00 -2.0040030040375910e+02 1.0000000000000000e+00 3.5048648141938386e+00 8.7632117819286144e+00 1.8616280339118503e+00 
108 1 2 1.0280000945274415e+00 -1.9697993741544377e+02 1.0000000000000000e+00 3.5048648141937924e+00 8.7632117819286037e+00 1.8616280339118609e+00 
174 1 2 1.0280000945274417e+00 -2.2525204917351741e+02 1.0000000000000000e+00 3.5048648141948497e+00 8.7632117819286037e+00 1.8616280339129920e+00 
143 1 2 1.0280000945274419e+00 -2.0324821371322241e+02 1.0000000000000000e+00 3.5048648141937622e+00 8.7632117819285877e+00 1.8616280339119167e+00 
42 1 2 1.0280000386966992e+00 -2.3588871070650981e+02 1.0000000000000000e+00 3.7139203794295286e+00 7.1988552800354997e+00 1.8306373691826074e+00 
41 1 2 1.0280000386966992e+00 -3.1707371710967766e+02 1.0000000000000000e+00 3.7139203794295996e+00 7.1988552800354935e+00 1.8306373691826072e+00 
47 1 2 1.0280000386966994e+00 -2.7993776982131743e+02 1.0000000000000000e+00 3.7139203794295996e+00 7.1988552800354846e+00 1.8306373691825646e+00 
78 1 2 1.0280000386966994e+00 -3.1716896300383576e+02 1.0000000000000000e+00 3.7139203794295996e+00 7.1988552800354846e+00 1.8306373691825646e+00 
50 1 2 1.0279998757905526e+00 -1.6736075299848062e+02 1.0000000000000000e+00 2.1652174024161370e+00 7.2759296987335265e-01 4.5658406402692782e+00 
55 1 2 1.0279998757905526e+00 -1.1261601567966561e+02 1.0000000000000000e+00 2.1652174024161370e+00 7.2759296987335265e-01 4.5658406402692782e+00 
49 1 2 1.0279998757905526e+00 -1.7911215407375329e+02 1.0000000000000000e+00 2.1652174024161370e+00 7.2759296987335265e-01 4.5658406402692782e+00 
75 1 2 1.0279998757905526e+00 -2.3826022569363246e+02 1.0000000000000000e+00 2.1652174024161370e+00 7.2759296987335265e-01 4.5658406402692782e+00 
134 1 2 1.0279998757905526e+00 -2.4488729544420070e+02 1.0000000000000000e+00 2.1652174024161370e+00 7.2759296987335265e-01 4.5658406402692782e+00 
97 1 2 1.0279998757905526e+00 -1.1868927724767913e+02 1.0000000000000000e+00 2.1652174024161370e+00 7.2759296987335265e-01 4.5658406402692782e+00 
61 1 2 1.0279998757905526e+00 -1.0120274784262121e+02 1.0000000000000000e+00 2.1652174024161370e+00 7.2759296987335265e-01 4.5658406402692782e+00 
82 1 2 1.0280000029057619e+00 -2.2996379146874753e+02 1.0000000000000000e+00 1.6872572955211251e+00 5.2082583938662550e+00 4.7062082744914306e+00 
113 1 2 1.0280000029057619e+00 -1.8301486886254844e+02 1.0000000000000000e+00 1.6872572955211251e+00 5.2082583938662550e+00 4.7062082744914306e+00 
83 1 2 1.0280000029057619e+00 -2.9141599773444000e+02 1.0000000000000000e+00 1.6872572955211251e+00 5.2082583938662550e+00 4.7062082744914306e+00 
111 1 2 1.0280000029057619e+00 -2.3764133726737012e+02 1.0000000000000000e+00 1.6872572955212009e+00 5.2082583938661857e+00 4.7062082744913027e+00 
89 1 2 1.0280000029057619e+00 -2.0192211964321623e+02 1.0000000000000000e+00 1.6872572955211251e+00 5.2082583938662550e+00 4.7062082744914306e+00 
77 1 2 1.0280000029057619e+00 -2.2500122770418551e+02 1.0000000000000000e+00 1.6872572955211251e+00 5.2082583938662550e+00 4.7062082744914306e+00 
7 1 2 1.0280000559624929e+00 -3.1068475373568600e+02 1.0000000000000000e+00 1.6322640055919926e+00 9.2058263046284470e+00 1.7023209871057293e+01 
2 1 2 1.0280000559624929e+00 -2.5001675735776473e+02 1.0000000000000000e+00 1.6322640055919926e+00 9.2058263046284470e+00 1.7023209871057293e+01 
9 1 2 1.0280000559624929e+00 -2.0426257928719778e+02 1.0000000000000000e+00 1.6322640055919926e+00 9.2058263046284470e+00 1.7023209871057293e+01 
31 1 2 1.0280000559624929e+00 -2.0694860474865729e+02 1.0000000000000000e+00 1.6322640055919926e+00 9.2058263046284470e+00 1.7023209871057293e+01 
44 1 2 1.0280000559624929e+00 -1.8823269007951566e+02 1.0000000000000000e+00 1.6322640055919926e+00 9.2058263046284470e+00 1.7023209871057293e+01 
1 1 2 1.0280000559624929e+00 -2.9702262879635038e+02 1.0000000000000000e+00 1.6322640055919926e+00 9.2058263046284470e+00 1.7023209871057293e+01 
8 1 2 1.0280000559624929e+00 -2.1362000870322046e+02 1.0000000000000000e+00 1.6322640055919926e+00 9.2058263046284470e+00 1.7023209871057293e+01 
4 1 2 1.0279999385146394e+00 -2.2966340235185976e+02 1.0000000000000000e+00 3.4175668351195287e-02 7.7457338486648331e+00 1.9627709241530059e+01 
36 1 2 1.0279999385146394e+00 -4.3086199837889751e+01 1.0000000000000000e+00 3.4175668351195287e-02 7.7457338486648331e+00 1.9627709241530059e+01 
10 1 2 1.0279999385146394e+00 -1.9284782510419666e+02 1.0000000000000000e+00 3.4175668351195287e-02 7.7457338486648331e+00 1.9627709241530059e+01 
6 1 2 1.0279999385146394e+00 -2.0908914829250074e+02 1.0000000000000000e+00 3.4175668351195287e-02 7.7457338486648331e+00 1.9627709241530059e+01 
11 1 2 1.0279999385146394e+00 -2.8810636703935569e+02 1.0000000000000000e+00 3.4175668351195287e-02 7.7457338486648331e+00 1.9627709241530059e+01 
5 1 2 1.0279999385146394e+00 -2.5127377784284809e+02 1.0000000000000000e+00 3.4175668351195287e-02 7.7457338486648331e+00 1.9627709241530059e+01 
23 1 2 1.0279999437027545e+00 -2.3131310626097698e+02 1.0000000000000000e+00 4.4843681166489082e+00 9.6479704564987188e+00 1.8776878970598293e+01 
37 1 2 1.0279999437027545e+00 -1.3699100010690782e+02 1.0000000000000000e+00 4.4843681166489082e+00 9.6479704564987188e+00 1.8776878970598293e+01 
141 1 2 1.0279999437027545e+00 -2.2412729127491176e+02 1.0000000000000000e+00 4.4843681166489082e+00 9.6479704564987188e+00 1.8776878970598293e+01 
79 1 2 1.0279999437027545e+00 -1.9041029564112887e+02 1.0000000000000000e+00 4.4843681166489082e+00 9.6479704564987188e+00 1.8776878970598293e+01 
43 1 2 1.0279999437027545e+00 -1.4823703880909295e+02 1.0000000000000000e+00 4.4843681166489082e+00 9.6479704564987188e+00 1.8776878970598293e+01 
17 1 2 1.0279999437027545e+00 -2.0692238294531981e+02 1.0000000000000000e+00 4.4843681166489082e+00 9.6479704564987188e+00 1.8776878970598293e+01 
53 1 2 1.0279999437027545e+00 -2.1503700060012440e+02 1.0000000000000000e+00 4.4843681166489082e+00 9.6479704564987188e+00 1.8776878970598293e+01 
85 1 2 1.0279999591341897e+00 -1.8864849366868265e+02 1.0000000000000000e+00 7.5024826198734926e+00 5.0253707438703206e+00 3.1009676165850624e+00 
133 1 2 1.0279999591341895e+00 -2.5017503873417479e+02 1.0000000000000000e+00 7.5024826198699897e+00 5.0253707438656008e+00 3.1009676165907845e+00 
121 1 2 1.0279999591341895e+00 -2.1117864156531374e+02 1.0000000000000000e+00 7.5024826198774859e+00 5.0253707438749977e+00 3.1009676165924365e+00 
91 1 2 1.0279999591341895e+00 -2.1496826742005862e+02 1.0000000000000000e+00 7.5024826198775498e+00 5.0253707438765716e+00 3.1009676165630893e+00 
114 1 2 1.0279999736816148e+00 -2.4439625120350499e+02 1.0000000000000000e+00 9.5043958845570540e+00 4.3226130807278098e+00 1.8434480106862710e+00 
156 1 2 1.0279999736816152e+00 -3.0133426293031573e+02 1.0000000000000000e+00 9.5043958845392247e+00 4.3226130807254641e+00 1.8434480106722861e+00 
155 1 2 1.0279999736816152e+00 -2.4891293566541060e+02 1.0000000000000000e+00 9.5043958845464989e+00 4.3226130807301031e+00 1.8434480106782123e+00 
150 1 2 1.0279999736816152e+00 -3.3613031702864515e+02 1.0000000000000000e+00 9.5043958845392247e+00 4.3226130807254641e+00 1.8434480106722861e+00 
120 1 2 1.0279999736816152e+00 -2.7429285230100982e+02 1.0000000000000000e+00 9.5043958845392247e+00 4.3226130807254641e+00 1.8434480106722861e+00 
149 1 2 1.0279999736816148e+00 -2.3078399417343013e+02 1.0000000000000000e+00 9.5043958845570540e+00 4.3226130807278098e+00 1.8434480106862710e+00 
58 1 2 1.0279998479419208e+00 -1.7487753891902693e+02 1.0000000000000000e+00 6.6679453261047046e+00 4.7174394819578866e+00 1.3583870658191910e-01 
16 1 2 1.0279998479419221e+00 -2.4380212592914361e+02 1.0000000000000000e+00 6.6679453261047010e+00 4.7174394819578858e+00 1.3583870658192093e-01 
22 1 2 1.0279998479419219e+00 -2.0524014425610591e+02 1.0000000000000000e+00 6.6679453261047508e+00 4.7174394819576060e+00 1.3583870658193978e-01 
52 1 2 1.0279998479419203e+00 -2.4982814322879605e+02 1.0000000000000000e+00 6.6679453261047676e+00 4.7174394819579240e+00 1.3583870658196825e-01 
15 1 2 1.0279998479419208e+00 -1.5759788638526106e+02 1.0000000000000000e+00 6.6679453261048556e+00 4.7174394819575882e+00 1.3583870658201178e-01 
151 1 2 1.0280003152028778e+00 -3.1864212161595918e+02 1.0000000000000000e+00 9.6317611279398783e+00 2.7053425181635093e+00 4.2468681367017105e+00 
152 1 2 1.0280003152043249e+00 -2.4641319534805234e+02 1.0000000000000000e+00 9.6317607644655148e+00 2.7053425239118818e+00 4.2468689281169070e+00 
153 1 2 1.0280003152043782e+00 -2.3534990159937789e+02 1.0000000000000000e+00 9.6317607511566017e+00 2.7053425242519773e+00 4.2468689576601015e+00 
157 1 2 1.0280003152028787e+00 -2.6695516480406980e+02 1.0000000000000000e+00 9.6317611279559401e+00 2.7053425181730586e+00 4.2468681367094625e+00 
158 1 2 1.0280003152043775e+00 -2.2236140860108927e+02 1.0000000000000000e+00 9.6317607511623713e+00 2.7053425242560816e+00 4.2468689576658276e+00 
115 1 2 1.0280003152028789e+00 -2.6297292278346873e+02 1.0000000000000000e+00 9.6317611279471453e+00 2.7053425181675719e+00 4.2468681367040917e+00 
54 1 2 1.0280000378216039e+00 -2.8115259078020176e+02 1.0000000000000000e+00 8.2607472160672675e+00 4.6388173110747823e+00 4.5512400546769376e+00 
59 1 2 1.0280000378216039e+00 -2.1888295388941310e+02 1.0000000000000000e+00 8.2607472163847486e+00 4.6388173110669504e+00 4.5512400547507488e+00 
60 1 2 1.0280000378216065e+00 -3.2527848286449057e+02 1.0000000000000000e+00 8.2607472133628708e+00 4.6388173108374122e+00 4.5512400541903810e+00 
95 1 2 1.0280000378216045e+00 -2.3456308267604891e+02 1.0000000000000000e+00 8.2607472140763605e+00 4.6388173109069752e+00 4.5512400543155058e+00 
109 1 2 1.0279999999999743e+00 -2.3511533366514968e+02 1.0000000000000000e+00 1.1953371321389103e+01 6.0763205401242173e+00 5.2123852341365389e+00 
103 1 2 1.0279999999999743e+00 -3.0835078594251286e+02 1.0000000000000000e+00 1.1953371321389103e+01 6.0763205401242173e+00 5.2123852341365389e+00 
73 1 2 1.0279999999999743e+00 -2.4814478051450590e+02 1.0000000000000000e+00 1.1953371321389103e+01 6.0763205401242173e+00 5.2123852341365389e+00 
137 1 2 1.0279999999999743e+00 -2.3449876948581806e+02 1.0000000000000000e+00 1.1953371321389103e+01 6.0763205401242173e+00 5.2123852341365389e+00 
140 1 2 1.0279999999999743e+00 -2.6529458981505377e+02 1.0000000000000000e+00 1.1953371321389103e+01 6.0763205401242173e+00 5.2123852341365389e+00 
104 1 2 1.0279999999999743e+00 -2.1816206900763592e+02 1.0000000000000000e+00 1.1953371321389103e+01 6.0763205401242173e+00 5.2123852341365389e+00 
139 1 2 1.0279999999999743e+00 -2.6259551862445085e+02 1.0000000000000000e+00 1.1953371321389103e+01 6.0763205401242173e+00 5.2123852341365389e+00 
132 1 2 1.0280000055705685e+00 -1.8921477443129467e+02 1.0000000000000000e+00 1.0829934854310677e+01 1.6917208794919039e+00 7.1700397193000933e+00 
131 1 2 1.0280000055705685e+00 -1.8781717522320685e+02 1.0000000000000000e+00 1.0829934854310677e+01 1.6917208794919039e+00 7.1700397193000933e+00 
168 1 2 1.0280000055705685e+00 -2.0227120504216344e+02 1.0000000000000000e+00 1.0829934854310677e+01 1.6917208794919039e+00 7.1700397193000933e+00 
19 1 2 1.0280000055705685e+00 -2.2181117601757512e+02 1.0000000000000000e+00 1.0829934854310677e+01 1.6917208794919039e+00 7.1700397193000933e+00 
24 1 2 1.0280000055705685e+00 -2.2608433310212951e+02 1.0000000000000000e+00 1.0829934854310677e+01 1.6917208794919039e+00 7.1700397193000933e+00 
167 1 2 1.0280000055705685e+00 -1.8453690038239205e+02 1.0000000000000000e+00 1.0829934854310677e+01 1.6917208794919039e+00 7.1700397193000933e+00 
13 1 2 1.0280000055705685e+00 -2.4796038181026563e+02 1.0000000000000000e+00 1.0829934854310677e+01 1.6917208794919039e+00 7.1700397193000933e+00 
166 1 2 1.0280010840135123e+00 -9.3173408389439530e+01 1.0000000000000000e+00 8.4985007901044654e+00 1.5239917877407998e+00 1.0890273028808299e+01 
107 1 2 1.0280010840135123e+00 -1.9202298742415826e+02 1.0000000000000000e+00 8.4985007901044654e+00 1.5239917877407998e+00 1.0890273028808299e+01 
172 1 2 1.0280010840135123e+00 -9.5643406762803806e+01 1.0000000000000000e+00 8.4985007901044654e+00 1.5239917877407998e+00 1.0890273028808299e+01 
99 1 2 1.0280010840135123e+00 -1.7464066353306953e+02 1.0000000000000000e+00 8.4985007901044654e+00 1.5239917877407998e+00 1.0890273028808299e+01 
101 1 2 1.0280010840135123e+00 -1.7521184725667501e+02 1.0000000000000000e+00 8.4985007901044654e+00 1.5239917877407998e+00 1.0890273028808299e+01 
64 1 2 1.0280010840135123e+00 -1.8667909051924113e+02 1.0000000000000000e+00 8.4985007901044654e+00 1.5239917877407998e+00 1.0890273028808299e+01 
142 1 2 1.0280010840135123e+00 -1.9425198587279669e+02 1.0000000000000000e+00 8.4985007901044654e+00 1.5239917877407998e+00 1.0890273028808299e+01 
146 1 2 1.0280012179869482e+00 -1.8097107634153207e+02 1.0000000000000000e+00 1.2692940651746353e+01 1.2979253159111737e+00 1.1752332126135956e+01 
27 1 2 1.0280012179869493e+00 -2.5245960632963073e+02 1.0000000000000000e+00 1.2692940651174217e+01 1.2979253170371305e+00 1.1752332124112426e+01 
14 1 2 1.0280012179869489e+00 -1.8620809043985398e+02 1.0000000000000000e+00 1.2692940650982903e+01 1.2979253170255647e+00 1.1752332124142645e+01 
20 1 2 1.0280012179869493e+00 -1.9155076092393955e+02 1.0000000000000000e+00 1.2692940650968652e+01 1.2979253172273322e+00 1.1752332123775806e+01 
145 1 2 1.0280012179869487e+00 -1.5532074316634680e+02 1.0000000000000000e+00 1.2692940650916748e+01 1.2979253174697902e+00 1.1752332123336659e+01 
12 1 2 1.0279989396822222e+00 -1.0939741074913562e+02 1.0000000000000000e+00 1.1431219947696015e+01 2.7833777359882363e+00 1.0366309682620390e+01 
169 1 2 1.0279989396822222e+00 -2.4345049009808153e+02 1.0000000000000000e+00 1.1431219947696015e+01 2.7833777359882363e+00 1.0366309682620390e+01 
175 1 2 1.0279989396822222e+00 -1.3665273079930316e+02 1.0000000000000000e+00 1.1431219947696015e+01 2.7833777359882363e+00 1.0366309682620390e+01 
170 1 2 1.0279989396822222e+00 -2.3313917448036833e+02 1.0000000000000000e+00 1.1431219947696015e+01 2.7833777359882363e+00 1.0366309682620390e+01 
176 1 2 1.0279989396822222e+00 -1.7759637943172629e+02 1.0000000000000000e+00 1.1431219947696015e+01 2.7833777359882363e+00 1.0366309682620390e+01 
18 1 2 1.0279989396822222e+00 -1.0666515044858832e+02 1.0000000000000000e+00 1.1431219947696015e+01 2.7833777359882363e+00 1.0366309682620390e+01 
160 1 2 1.0280007604630614e+00 -1.8267953852229249e+02 1.0000000000000000e+00 1.0475013257261953e+01 3.9325406153355775e+00 1.3237510074859006e+01 
94 1 2 1.0280007604630614e+00 -1.9831560903345172e+02 1.0000000000000000e+00 1.0475013257261953e+01 3.9325406153355775e+00 1.3237510074859006e+01 
154 1 2 1.0280007604630614e+00 -1.9003151871841749e+02 1.0000000000000000e+00 1.0475013257261953e+01 3.9325406153355775e+00 1.3237510074859006e+01 
130 1 2 1.0280007604630614e+00 -1.9800327297239392e+02 1.0000000000000000e+00 1.0475013257261953e+01 3.9325406153355775e+00 1.3237510074859006e+01 
125 1 2 1.0280007604630614e+00 -1.7244889979074802e+02 1.0000000000000000e+00 1.0475013257261953e+01 3.9325406153355775e+00 1.3237510074859006e+01 
124 1 2 1.0280007604630614e+00 -1.7078995654428016e+02 1.0000000000000000e+00 1.0475013257261953e+01 3.9325406153355775e+00 1.3237510074859006e+01 
161 1 2 1.0280007604630614e+00 -2.4457534687136763e+02 1.0000000000000000e+00 1.0475013257261953e+01 3.9325406153355775e+00 1.3237510074859006e+01 
26 1 2 1.0280011720180831e+00 -2.6203903195168118e+02 1.0000000000000000e+00 1.3155404160566075e+01 1.0739787607359965e+00 1.6860389510861410e+01 
32 1 2 1.0280011720180831e+00 -2.4732864658342322e+02 1.0000000000000000e+00 1.3155404160566075e+01 1.0739787607359965e+00 1.6860389510861410e+01 
68 1 2 1.0280011720180831e+00 -1.7875360676505520e+02 1.0000000000000000e+00 1.3155404160566075e+01 1.0739787607359965e+00 1.6860389510861410e+01 
3 1 2 1.0280011720180831e+00 -2.2619710719102059e+02 1.0000000000000000e+00 1.3155404160566075e+01 1.0739787607359965e+00 1.6860389510861410e+01 
63 1 2 1.0280011720180831e+00 -2.4972002424298717e+02 1.0000000000000000e+00 1.3155404160566075e+01 1.0739787607359965e+00 1.6860389510861410e+01 
25 1 2 1.0280011720180831e+00 -2.6636937687910512e+02 1.0000000000000000e+00 1.3155404160566075e+01 1.0739787607359965e+00 1.6860389510861410e+01 
62 1 2 1.0280011720180831e+00 -2.0362785258777964e+02 1.0000000000000000e+00 1.3155404160566075e+01 1.0739787607359965e+00 1.6860389510861410e+01 
118 1 2 1.0280000004715644e+00 -1.9893684365691814e+02 1.0000000000000000e+00 1.9419323428352495e+01 5.2384016774706437e+00 3.2120268784631532e+00 
119 1 2 1.0280000004715644e+00 -2.1087604249724643e+02 1.0000000000000000e+00 1.9419323428352495e+01 5.2384016774706437e+00 3.2120268784631532e+00 
128 1 2 1.0280000004715644e+00 -2.1364802905780201e+02 1.0000000000000000e+00 1.9419323428352495e+01 5.2384016774706437e+00 3.2120268784631532e+00 
127 1 2 1.0280000004715644e+00 -2.0306087164192127e+02 1.0000000000000000e+00 1.9419323428352495e+01 5.2384016774706437e+00 3.2120268784631532e+00 
171 1 2 1.0280000598867198e+00 -1.6379858896910940e+02 1.0000000000000000e+00 1.9726640084447489e+01 6.5370743502149642e+00 1.3250695111707960e+00 
112 1 2 1.0280000573418564e+00 -1.6288613004366528e+02 1.0000000000000000e+00 1.9729048915178755e+01 6.5089216336803348e+00 1.3582921303737687e+00 
147 1 2 1.0280000573418560e+00 -1.5176994369357942e+02 1.0000000000000000e+00 1.9729048915486128e+01 6.5089216330414823e+00 1.3582921317506171e+00 
148 1 2 1.0280000573418557e+00 -1.6173621190700618e+02 1.0000000000000000e+00 1.9729048915416392e+01 6.5089216331827053e+00 1.3582921314420855e+00 
84 1 2 1.0279999999999747e+00 -2.7177469490411670e+02 1.0000000000000000e+00 1.4674080205450558e+01 4.5839540599220365e+00 4.1921420424246847e+00 
80 1 2 1.0279999999999747e+00 -1.0777510168683216e+02 1.0000000000000000e+00 1.4674080205450558e+01 4.5839540599220365e+00 4.1921420424246847e+00 
74 1 2 1.0279999999999747e+00 -1.9510065981778772e+02 1.0000000000000000e+00 1.4674080205450558e+01 4.5839540599220365e+00 4.1921420424246847e+00 
48 1 2 1.0279999999999747e+00 -2.4172904198329894e+02 1.0000000000000000e+00 1.4674080205450558e+01 4.5839540599220365e+00 4.1921420424246847e+00 
86 1 2 1.0279999999999747e+00 -1.2138329799082638e+02 1.0000000000000000e+00 1.4674080205450558e+01 4.5839540599220365e+00 4.1921420424246847e+00 
110 1 2 1.0279999999999747e+00 -1.9817015697189146e+02 1.0000000000000000e+00 1.4674080205450558e+01 4.5839540599220365e+00 4.1921420424246847e+00 
116 1 2 1.0279999999999747e+00 -1.2346741236840791e+02 1.0000000000000000e+00 1.4674080205450558e+01 4.5839540599220365e+00 4.1921420424246847e+00 
90 1 2 1.0279999858781155e+00 -2.2750472635812901e+02 1.0000000000000000e+00 1.8584136345515173e+01 4.6298779051062988e+00 5.1649000107420111e+00 
138 1 2 1.0279999858781195e+00 -1.8725269833212280e+02 1.0000000000000000e+00 1.8584136345515176e+01 4.6298779051063264e+00 5.1649000107419720e+00 
96 1 2 1.0279999858781168e+00 -2.1735080599760522e+02 1.0000000000000000e+00 1.8584136345515198e+01 4.6298779051063281e+00 5.1649000107420617e+00 
102 1 2 1.0279999858781166e+00 -1.9786756131004208e+02 1.0000000000000000e+00 1.8584136345515152e+01 4.6298779051062775e+00 5.1649000107419445e+00 
39 1 2 1.0280000301185164e+00 -1.9705937606478960e+02 1.0000000000000000e+00 1.9804495803389646e+01 3.7863369789816810e+00 5.6810640126475063e+00 
45 1 2 1.0280000301185164e+00 -2.0473105639227504e+02 1.0000000000000000e+00 1.9804495803389457e+01 3.7863369789815531e+00 5.6810640126474254e+00 
162 1 2 1.0280000301185168e+00 -1.0913451387471392e+02 1.0000000000000000e+00 1.9804495803389603e+01 3.7863369789816708e+00 5.6810640126475080e+00 
126 1 2 1.0280000301185162e+00 -1.1519071158963965e+02 1.0000000000000000e+00 1.9804495803389635e+01 3.7863369789816641e+00 5.6810640126474912e+00 
51 1 2 1.0280001331413731e+00 -1.6197676053119497e+02 1.0000000000000000e+00 1.9397722488846863e+01 5.7092999523771437e-01 6.6830060536578104e+00 
88 1 2 1.0280001331413731e+00 -1.4394029221348367e+02 1.0000000000000000e+00 1.9397722488892182e+01 5.7092999529211708e-01 6.6830060536580751e+00 
87 1 2 1.0280001331413731e+00 -1.4109709581734788e+02 1.0000000000000000e+00 1.9397722488846838e+01 5.7092999523763177e-01 6.6830060536579525e+00 
81 1 2 1.0280001331413733e+00 -1.4064835085952458e+02 1.0000000000000000e+00 1.9397722488892171e+01 5.7092999529223876e-01 6.6830060536577189e+00 
117 1 2 1.0280001331413733e+00 -2.0992572586753832e+02 1.0000000000000000e+00 1.9397722490742410e+01 5.7092999614623452e-01 6.6830060572954899e+00 
136 1 2 1.0279998992725421e+00 -2.2761884220217752e+02 1.0000000000000000e+00 1.7977321553383501e+01 1.5332837406300328e+00 7.2037849266833573e+00 
135 1 2 1.0279998992673058e+00 -2.4379908867669383e+02 1.0000000000000000e+00 1.7977301032391477e+01 1.5332553861434104e+00 7.2037718956439116e+00 
106 1 2 1.0279998992692616e+00 -2.3339617722884850e+02 1.0000000000000000e+00 1.7977307238096394e+01 1.5332653453001031e+00 7.2037739576942359e+00 
178 1 2 1.0279998992725492e+00 -1.7724674396253317e+02 1.0000000000000000e+00 1.7977318304359297e+01 1.5332824175512378e+00 7.2037785663025762e+00 
67 1 2 1.0279999004811704e+00 -2.8222035286276986e+02 1.0000000000000000e+00 1.7984387849224298e+01 1.5405699525071028e+00 7.2112576952888015e+00 
30 1 2 1.0279987841480518e+00 -2.6948303738496867e+02 1.0000000000000000e+00 1.3966811358645343e+01 1.0034646436656580e+00 1.3730305776096214e+01 
66 1 2 1.0279987841480518e+00 -2.5690438275097313e+02 1.0000000000000000e+00 1.3966811358645343e+01 1.0034646436656580e+00 1.3730305776096214e+01 
72 1 2 1.0279987841480518e+00 -2.6350433484095231e+02 1.0000000000000000e+00 1.3966811358645343e+01 1.0034646436656580e+00 1.3730305776096214e+01 
29 1 2 1.0279987841480518e+00 -2.4897114833477204e+02 1.0000000000000000e+00 1.3966811358645343e+01 1.0034646436656580e+00 1.3730305776096214e+01 
179 1 2 1.0279987841480518e+00 -2.6752031118093919e+02 1.0000000000000000e+00 1.3966811358645343e+01 1.0034646436656580e+00 1.3730305776096214e+01 
65 1 2 1.0279987841480518e+00 -2.6976452356524777e+02 1.0000000000000000e+00 1.3966811358645343e+01 1.0034646436656580e+00 1.3730305776096214e+01 
92 1 2 1.0280013231278480e+00 -1.8487189087721458e+02 1.0000000000000000e+00 1.6562042977661132e+01 1.9903326158724557e+01 1.2144358270407473e+01 
164 1 2 1.0280013231278480e+00 -1.7642017774740839e+02 1.0000000000000000e+00 1.6562042977661132e+01 1.9903326158724557e+01 1.2144358270407473e+01 
100 1 2 1.0280013231278480e+00 -2.2508314555616727e+02 1.0000000000000000e+00 1.6562042977661132e+01 1.9903326158724557e+01 1.2144358270407473e+01 
163 1 2 1.0280013231278480e+00 -1.6578184877065587e+02 1.0000000000000000e+00 1.6562042977661132e+01 1.9903326158724557e+01 1.2144358270407473e+01 
70 1 2 1.0280013231278480e+00 -1.9085350721492802e+02 1.0000000000000000e+00 1.6562042977661132e+01 1.9903326158724557e+01 1.2144358270407473e+01 
98 1 2 1.0280013231278480e+00 -1.7354818922270044e+02 1.0000000000000000e+00 1.6562042977661132e+01 1.9903326158724557e+01 1.2144358270407473e+01 
71 1 2 1.0280013231278480e+00 -1.9413475798701654e+02 1.0000000000000000e+00 1.6562042977661132e+01 1.9903326158724557e+01 1.2144358270407473e+01 

Velocities

93 -2.9792902246587577e-01 -1.0107765988002775e-01 2.1098162228152556e-01
21 -2.9792902246331299e-01 -1.0107765987952615e-01 2.1098162228240774e-01
57 -2.9792902246277314e-01 -1.0107765987942366e-01 2.1098162228259509e-01
56 -2.9792902246303843e-01 -1.0107765987946667e-01 2.1098162228249959e-01
177 -2.9792901921318793e-01 -1.0107765924594511e-01 2.1098162339990603e-01
105 -2.9792899029516073e-01 -1.0107765389669238e-01 2.1098163140179207e-01
33 -2.9793443158911664e-01 -1.0106635075016962e-01 2.1099659107003341e-01
34 -2.9793443158911664e-01 -1.0106635075016962e-01 2.1099659107003341e-01
35 -2.9793443158911664e-01 -1.0106635075016962e-01 2.1099659107003341e-01
28 -2.9793443158911664e-01 -1.0106635075016962e-01 2.1099659107003341e-01
173 -2.9793443158911664e-01 -1.0106635075016962e-01 2.1099659107003341e-01
129 -2.9791843890708741e-01 -1.0128197242447813e-01 2.1099235623957294e-01
159 -2.9791843890708741e-01 -1.0128197242447813e-01 2.1099235623957294e-01
69 -2.9791843890708741e-01 -1.0128197242447813e-01 2.1099235623957294e-01
122 -2.9791843890708741e-01 -1.0128197242447813e-01 2.1099235623957294e-01
165 -2.9791843890708741e-01 -1.0128197242447813e-01 2.1099235623957294e-01
123 -2.9791843890708741e-01 -1.0128197242447813e-01 2.1099235623957294e-01
76 -2.9796358472450341e-01 -1.0107068262291180e-01 2.1101053020205446e-01
38 -2.9796358472450102e-01 -1.0107068262291347e-01 2.1101053020205446e-01
40 -2.9796358472450341e-01 -1.0107068262291180e-01 2.1101053020205446e-01
46 -2.9796358472450341e-01 -1.0107068262291180e-01 2.1101053020205446e-01
180 -2.9797572571492803e-01 -1.0111438035913639e-01 2.1101823709060985e-01
144 -2.9797572571492803e-01 -1.0111438035913625e-01 2.1101823709060982e-01
108 -2.9797572571492803e-01 -1.0111438035913596e-01 2.1101823709060985e-01
174 -2.9797572571492764e-01 -1.0111438035913940e-01 2.1101823709060952e-01
143 -2.9797572571492831e-01 -1.0111438035913542e-01 2.1101823709061002e-01
42 -2.9797862559009153e-01 -1.0111391192333337e-01 2.1102026344884961e-01
41 -2.9797862559009153e-01 -1.0111391192333234e-01 2.1102026344884939e-01
47 -2.9797862559009153e-01 -1.0111391192333342e-01 2.1102026344884980e-01
78 -2.9797862559009153e-01 -1.0111391192333342e-01 2.1102026344884980e-01
50 -2.9792750742620688e-01 -1.0115999568977113e-01 2.1097460443310789e-01
55 -2.9792750742620688e-01 -1.0115999568977113e-01 2.1097460443310789e-01
49 -2.9792750742620688e-01 -1.0115999568977113e-01 2.1097460443310789e-01
75 -2.9792750742620688e-01 -1.0115999568977113e-01 2.1097460443310789e-01
134 -2.9792750742620688e-01 -1.0115999568977113e-01 2.1097460443310789e-01
97 -2.9792750742620688e-01 -1.0115999568977113e-01 2.1097460443310789e-01
61 -2.9792750742620688e-01 -1.0115999568977113e-01 2.1097460443310789e-01
82 -2.9791152676647809e-01 -1.0129636489446756e-01 2.1098849664591871e-01
113 -2.9791152676647809e-01 -1.0129636489446756e-01 2.1098849664591871e-01
83 -2.9791152676647809e-01 -1.0129636489446756e-01 2.1098849664591871e-01
111 -2.9791152676647753e-01 -1.0129636489446781e-01 2.1098849664591873e-01
89 -2.9791152676647809e-01 -1.0129636489446756e-01 2.1098849664591871e-01