LAMMPS data file via write_data, version 30 Jul 2016, timestep = 50400000

384 atoms
2 atom types

0.0000000000000000e+00 2.0000000000000000e+01 xlo xhi
0.0000000000000000e+00 2.0000000000000000e+01 ylo yhi
0.0000000000000000e+00 2.0000000000000000e+01 zlo zhi

Masses

1 3.89
2 2.094

Atoms # meso-molecular

23 1 2 4.9999999999999156e-01 1.2774732854782375e+01 1.0000000000000000e+00 8.9599898496448838e-01 4.9773660946858946e+00 3.0169925381912712e+00 
364 1 2 5.0000000000005540e-01 1.3510293082502580e+01 1.0000000000000000e+00 2.0336228410173183e+00 6.1856348753419441e+00 3.2693247397467449e+00 
32 1 2 5.0000000000002554e-01 1.3482747101116310e+01 1.0000000000000000e+00 2.9061388350606188e+00 8.4575868938377585e+00 2.9139718384431288e+00 
81 1 2 4.9999999999998807e-01 1.0539115981598046e+01 1.0000000000000000e+00 2.7356330710159420e+00 8.4190055033490090e+00 3.0773220609835645e+00 
264 1 2 4.9999999999998035e-01 -1.4573942008420325e+01 1.0000000000000000e+00 5.1687996911798884e+00 8.6461703666659258e+00 2.4560728135834204e+00 
34 1 2 5.0000000000002010e-01 -1.4001931745377927e+01 1.0000000000000000e+00 4.0277361615884457e+00 7.4803437186181512e+00 2.3415505527695064e+00 
19 1 2 4.9999999999998418e-01 -2.6602219042660323e+01 1.0000000000000000e+00 4.6059201397213316e+00 7.4086699838810830e+00 2.5090967767633754e+00 
138 1 2 4.9999999999999173e-01 2.6323378286256371e+00 1.0000000000000000e+00 4.7558160716705578e+00 7.2960208379453872e+00 2.7239788550604715e+00 
25 1 2 5.0000000000002109e-01 2.0914284780560827e+01 1.0000000000000000e+00 4.6990822643450176e+00 6.9531685157978869e+00 3.0484040152887517e+00 
206 1 2 5.0000000000003297e-01 1.4658805004994464e+01 1.0000000000000000e+00 2.0621699369779711e+00 5.4408945141277254e+00 3.4801086560977672e+00 
9 1 2 5.0000000000000988e-01 -1.8917261611947879e+01 1.0000000000000000e+00 1.9268963013243114e+00 5.4396644455258052e+00 3.3824116494717655e+00 
21 1 2 4.9999999999996864e-01 -9.7818421981060766e+00 1.0000000000000000e+00 2.1071429532896979e+00 5.6386458639573043e+00 4.6728496903216161e+00 
14 1 2 4.9999999999998918e-01 9.9775164116756621e+00 1.0000000000000000e+00 1.5228050874888215e+00 5.0625402181416668e+00 4.8707574726481893e+00 
347 1 2 4.9999999999996836e-01 2.0670240802764166e+01 1.0000000000000000e+00 1.4622663242013956e+00 5.4895875619607342e+00 4.9963585694654133e+00 
33 1 2 5.0000000000002842e-01 2.9705992257511291e+01 1.0000000000000000e+00 8.1343474084331624e-01 5.1179735248826290e+00 5.0527095092168128e+00 
83 1 2 4.9999999999995748e-01 1.6275383891855611e+01 1.0000000000000000e+00 2.4646908873477771e-01 4.7802091894687138e+00 4.8946563041311233e+00 
86 1 2 4.9999999999997252e-01 2.4578015109889272e+01 1.0000000000000000e+00 1.1575874936855411e-01 4.7706642026769188e+00 4.8676297564190971e+00 
11 1 2 5.0000000000003120e-01 -2.9663190726646512e+01 1.0000000000000000e+00 4.3999931494903910e+00 6.6357177606038569e+00 3.4559487907223736e+00 
10 1 2 4.9999999999998640e-01 2.2859326766035572e+01 1.0000000000000000e+00 3.2974245807369318e+00 6.7812997487522457e+00 4.2443777202927926e+00 
26 1 2 4.9999999999999772e-01 -2.0360003828489390e+01 1.0000000000000000e+00 1.2082863776749968e+00 8.9553950037998646e+00 3.8306941497106339e+00 
98 1 2 4.9999999999997413e-01 1.2863926850353284e+01 1.0000000000000000e+00 1.1550670166334200e+00 9.0225098348925314e+00 3.7494786563735172e+00 
27 1 2 4.9999999999997552e-01 -3.9975224526090422e+01 1.0000000000000000e+00 9.9967649329253450e-01 9.0653319624911628e+00 3.8279533445197780e+00 
35 1 2 4.9999999999992228e-01 -4.7140799890348916e+01 1.0000000000000000e+00 8.4410853613148673e-01 9.1159576741326873e+00 3.8253426590940602e+00 
90 1 2 5.0000000000005218e-01 5.5182912477849877e+00 1.0000000000000000e+00 4.3783601020719681e-01 9.1629153138028450e+00 3.7892779248320378e+00 
322 1 2 5.0000000000004308e-01 5.8444486597648160e+00 1.0000000000000000e+00 3.1227306279673112e-01 9.1479857288865176e+00 3.8002912220527545e+00 
211 1 2 4.9999999999998884e-01 4.3887211218028144e+00 1.0000000000000000e+00 2.2185387652367766e-01 6.7993597455325263e+00 3.4648688177915035e+00 
106 1 2 5.0000000000002265e-01 6.8452104625831565e+00 1.0000000000000000e+00 3.2792805085328292e+00 8.5994714597077770e+00 6.4523920833326756e+00 
128 1 2 5.0000000000000955e-01 -2.3633555168312846e+01 1.0000000000000000e+00 2.9992082826233322e+00 8.4853331237721914e+00 6.5364240301270708e+00 
2 1 2 4.9999999999997280e-01 1.3627752320172878e+01 1.0000000000000000e+00 3.5926024317935630e+00 7.0523907107982557e+00 4.2210241063346450e+00 
276 1 2 5.0000000000000488e-01 1.4581404268919833e+01 1.0000000000000000e+00 4.3081585076395674e+00 6.8163467246789819e+00 3.8067946085574098e+00 
185 1 2 4.9999999999996919e-01 2.2687067178078742e+01 1.0000000000000000e+00 5.4001349870138240e+00 9.0878671096729757e+00 6.1798459370665784e+00 
379 1 2 4.9999999999995937e-01 -1.9059521883379261e+01 1.0000000000000000e+00 4.5586684653412259e+00 9.5755161939556004e+00 6.4433557371649934e+00 
30 1 2 5.0000000000002998e-01 1.2813002957458362e+01 1.0000000000000000e+00 3.4165340977757124e+00 8.6832935258029895e+00 6.4348930568621592e+00 
292 1 2 5.0000000000001832e-01 -4.7818307353923881e+00 1.0000000000000000e+00 4.0997935887217247e+00 9.9385651116652411e+00 3.4352381230849316e+00 
103 1 2 5.0000000000000766e-01 6.8486320851142253e+00 1.0000000000000000e+00 2.3062794818829135e+00 8.0757404238389743e+00 6.8650518885905809e+00 
38 1 2 4.9999999999999856e-01 -1.8463275142628873e+01 1.0000000000000000e+00 1.8723861289935055e+00 8.0324712050770035e+00 7.3927292194080412e+00 
296 1 2 4.9999999999993405e-01 -1.6933615311707712e+01 1.0000000000000000e+00 2.2964342392930837e+00 6.9965653179419727e+00 7.3595226867270069e+00 
254 1 2 5.0000000000001488e-01 -9.9646352266621037e+00 1.0000000000000000e+00 7.6737599117750743e-01 7.6829783656606132e+00 8.4596494203997317e+00 
101 1 2 5.0000000000000389e-01 8.9333706918152238e+00 1.0000000000000000e+00 3.0460330432982889e+00 6.8074777774380122e+00 8.1495469226534407e+00 
159 1 2 4.9999999999999306e-01 1.1683751737307386e+01 1.0000000000000000e+00 2.5392591003244638e+00 7.0647503815103008e+00 8.6604931508317389e+00 
230 1 2 4.9999999999998518e-01 -1.6179437799954428e+01 1.0000000000000000e+00 1.9171930125194463e+00 7.2876254614182008e+00 8.7284977768720626e+00 
177 1 2 5.0000000000002265e-01 5.8980303826458957e+00 1.0000000000000000e+00 1.9201728480725144e-01 7.9853323376951524e+00 8.5858745402401073e+00 
46 1 2 4.9999999999999856e-01 -2.8304745143362481e+01 1.0000000000000000e+00 1.7850150936705877e-01 7.3487470816115987e+00 9.4630653965398146e+00 
96 1 2 4.9999999999999450e-01 9.5367657082701491e+00 1.0000000000000000e+00 5.3641488399487347e-02 7.2152516908475786e+00 9.4784414441353455e+00 
121 1 2 4.9999999999999917e-01 -1.0339972839960982e+01 1.0000000000000000e+00 3.6077542957823132e+00 7.8083170767072740e+00 8.6706234956367059e+00 
377 1 2 4.9999999999995814e-01 -1.3502191315108448e+01 1.0000000000000000e+00 5.1343817949551545e+00 9.0310025497940281e+00 7.8324279603460463e+00 
122 1 2 5.0000000000002165e-01 8.5408547548209448e+00 1.0000000000000000e+00 5.4062357328991446e+00 9.8505127646215040e+00 7.4058337192573687e+00 
223 1 2 5.0000000000000111e-01 1.8456564087472573e+00 1.0000000000000000e+00 3.7997488739146412e+00 7.6020347941780884e+00 8.5436969449719555e+00 
192 1 2 5.0000000000000311e-01 3.9975215135481861e+01 1.0000000000000000e+00 4.0774229910960882e+00 8.1443903385209797e+00 8.4567593873311946e+00 
94 1 2 5.0000000000002409e-01 1.0423798237654949e+00 1.0000000000000000e+00 5.4975318358834224e+00 9.8576172906202455e+00 7.3518420023253386e+00 
114 1 2 4.9999999999999989e-01 2.0231338848309970e+00 1.0000000000000000e+00 3.9468594283934055e+00 7.2522782890396700e+00 7.4821235866114000e+00 
104 1 2 5.0000000000000011e-01 4.9203934789856660e+00 1.0000000000000000e+00 5.3687363677407660e+00 9.3417226402107580e+00 7.6435244113754957e+00 
198 1 2 5.0000000000000322e-01 4.9421350114933666e+00 1.0000000000000000e+00 6.5688373316765745e+00 1.1362140933935748e+01 1.0882451721575534e-01 
142 1 2 4.9999999999999273e-01 4.8410382667707132e+00 1.0000000000000000e+00 6.4435850000382668e+00 1.1665998623827194e+01 9.2921053857981406e-01 
24 1 2 5.0000000000000544e-01 -1.6080123126880324e+01 1.0000000000000000e+00 6.0521803292475802e+00 1.0297077327377707e+01 1.5068763514001218e-01 
219 1 2 5.0000000000000655e-01 -2.1978241565757703e+01 1.0000000000000000e+00 6.2822488472148308e+00 1.0280016751114204e+01 2.0223324652869485e-02 
144 1 2 4.9999999999999156e-01 1.7680734297519642e+01 1.0000000000000000e+00 5.2271301905571477e+00 1.0694143104158837e+01 1.1669080423877511e+00 
133 1 2 4.9999999999998074e-01 3.2807584858429898e+01 1.0000000000000000e+00 4.9492210519574575e+00 1.0253661968477434e+01 1.4431304554153133e+00 
348 1 2 4.9999999999997968e-01 1.6812385632154257e+01 1.0000000000000000e+00 4.8630975867770854e+00 1.0081690505819934e+01 1.5330918823784985e+00 
252 1 2 5.0000000000002576e-01 1.0882430109836518e+01 1.0000000000000000e+00 6.6123306368513584e+00 1.0203156911729607e+01 2.7898917880702001e+00 
282 1 2 4.9999999999998346e-01 -1.1172499704866222e+01 1.0000000000000000e+00 6.3981986301033018e+00 1.2914818495875428e+01 3.2470504541081233e+00 
291 1 2 5.0000000000003453e-01 8.8183550355783957e+00 1.0000000000000000e+00 4.2473130477447851e+00 1.0359844256288659e+01 3.0899574550023052e+00 
293 1 2 5.0000000000003630e-01 -7.4720811006782899e+00 1.0000000000000000e+00 4.1765683090876928e+00 1.0252916841560873e+01 3.1861419632743115e+00 
357 1 2 4.9999999999998956e-01 -7.7407860833563582e+00 1.0000000000000000e+00 4.0990115601231967e+00 1.0173149460658404e+01 3.2270349949259503e+00 
267 1 2 5.0000000000001066e-01 1.3937204416746347e+01 1.0000000000000000e+00 4.0967596315209107e+00 1.0114166429680848e+01 3.2895189201117736e+00 
359 1 2 5.0000000000001599e-01 -3.8504541572168804e+00 1.0000000000000000e+00 4.9660171081120108e+00 1.3066131873881064e+01 4.6520861084494420e+00 
341 1 2 5.0000000000000611e-01 -1.0856432289275819e+01 1.0000000000000000e+00 4.9500391012378850e+00 1.2805347958261661e+01 4.6972112054814730e+00 
277 1 2 4.9999999999995520e-01 1.7808697942568863e+01 1.0000000000000000e+00 5.6552762626160789e+00 1.1793538325869346e+01 5.4468089708974992e+00 
269 1 2 5.0000000000007039e-01 5.3412477856372629e+00 1.0000000000000000e+00 5.9242686153944897e+00 1.1713029111092922e+01 5.5709173869640889e+00 
240 1 2 5.0000000000001854e-01 -1.4733883674275869e+01 1.0000000000000000e+00 6.1569165477991694e+00 1.1694246584491173e+01 6.0818931136861289e+00 
16 1 2 4.9999999999999017e-01 2.2043494809679508e+01 1.0000000000000000e+00 5.9881262373000697e+00 1.3260872232841919e+01 3.4715440277478788e+00 
217 1 2 4.9999999999999317e-01 -1.9240224175204098e+01 1.0000000000000000e+00 5.7435000279257258e+00 1.3347307251063038e+01 3.6116135992539684e+00 
196 1 2 5.0000000000002054e-01 1.2363475555317318e+00 1.0000000000000000e+00 5.3254987130790239e+00 1.3493860245463770e+01 4.1337946422596037e+00 
13 1 2 5.0000000000001810e-01 -2.0969715166367074e+01 1.0000000000000000e+00 5.7803075849251204e+00 1.3839647619942379e+01 4.5866593702722458e+00 
253 1 2 4.9999999999998579e-01 -8.9774835738516678e+00 1.0000000000000000e+00 5.3272235830677577e+00 1.3462873800612320e+01 6.3326771312088903e+00 
111 1 2 4.9999999999992889e-01 -4.1000688057060941e+00 1.0000000000000000e+00 6.0956159772405556e+00 1.2156576906144398e+01 7.2278750531068727e+00 
306 1 2 5.0000000000006539e-01 2.6588217080536754e+01 1.0000000000000000e+00 5.4150821707494865e+00 1.0205529029239043e+01 7.0130017121799630e+00 
126 1 2 4.9999999999991723e-01 -8.3293981108300166e+00 1.0000000000000000e+00 6.3667589582937856e+00 1.4028760684616225e+01 6.9247235998234968e+00 
109 1 2 4.9999999999995970e-01 1.1103020919460533e+01 1.0000000000000000e+00 5.5590145546919292e+00 1.3448638495672101e+01 6.8883306472069208e+00 
39 1 2 4.9999999999992872e-01 -1.2579472397118394e+01 1.0000000000000000e+00 6.4040626824801308e+00 1.4031471110042718e+01 6.9053528077712834e+00 
134 1 2 5.0000000000001421e-01 -9.0026757701460340e+00 1.0000000000000000e+00 8.5053944549286644e+00 9.4445568830223863e+00 6.3683086360197505e-01 
214 1 2 5.0000000000002098e-01 8.3251075089947566e+00 1.0000000000000000e+00 8.7274408436779183e+00 9.4206915254207004e+00 8.0910059068989415e-01 
208 1 2 5.0000000000005496e-01 -5.9817183049475968e+00 1.0000000000000000e+00 8.6045882748141604e+00 8.9600360199474576e+00 1.5232072021135870e+00 
335 1 2 4.9999999999986849e-01 -1.8956787456266206e+01 1.0000000000000000e+00 9.1468963230448281e+00 9.7963622535946389e+00 1.9774654423585993e+00 
6 1 2 5.0000000000005629e-01 -1.1910655921782327e+00 1.0000000000000000e+00 9.9431024343800622e+00 8.5141568166827177e+00 2.3538847547021287e+00 
70 1 2 5.0000000000003175e-01 -2.0105726876999562e+01 1.0000000000000000e+00 7.1906790730390933e+00 9.6596833089134719e+00 2.6089165499517439e+00 
199 1 2 4.9999999999996464e-01 -1.6425062255179881e+01 1.0000000000000000e+00 7.6296522215794322e+00 9.3652813377304920e+00 2.6851944905334073e+00 
220 1 2 5.0000000000001310e-01 6.5526533838761472e+00 1.0000000000000000e+00 8.6268241296294015e+00 9.6152301022505000e+00 5.3998334162556749e-01 
149 1 2 4.9999999999998535e-01 1.5943821140360646e+01 1.0000000000000000e+00 7.7705027961851263e+00 9.4034693575015798e+00 3.1857665913429831e+00 
200 1 2 5.0000000000001743e-01 -1.4026364285890960e+01 1.0000000000000000e+00 1.0385278202172728e+01 8.3083553788431423e+00 2.4152858013091287e+00 
82 1 2 4.9999999999998568e-01 -4.2804105858103558e-01 1.0000000000000000e+00 1.2596606425799836e+01 7.6591384313474000e+00 2.1689851048507194e+00 
87 1 2 4.9999999999998435e-01 2.9612444245855229e+00 1.0000000000000000e+00 1.2170208838296924e+01 7.6573235040171426e+00 2.2467330325926196e+00 
339 1 2 4.9999999999998762e-01 2.0603952848763370e+01 1.0000000000000000e+00 1.1123910729697403e+01 8.3803974773069143e+00 2.3575924812697537e+00 
72 1 2 5.0000000000003875e-01 3.1542415545148195e+01 1.0000000000000000e+00 1.3298329930955230e+01 7.1490255361261221e+00 2.5986641119732683e+00 
29 1 2 5.0000000000007783e-01 -1.4497389089262505e+01 1.0000000000000000e+00 1.1686461362371675e+01 8.9063705044832435e+00 2.6590671569011595e+00 
71 1 2 5.0000000000013323e-01 9.4790121520100945e-01 1.0000000000000000e+00 1.2994999816052134e+01 5.3886434365020248e+00 3.7524432433333668e+00 
245 1 2 5.0000000000016398e-01 -4.6515964209819876e+00 1.0000000000000000e+00 1.2154123368799628e+01 5.1254652745450757e+00 4.1495105171048712e+00 
181 1 2 4.9999999999987943e-01 1.8229446004270846e+00 1.0000000000000000e+00 1.2195343316606106e+01 5.0520251728621339e+00 4.3990100498215909e+00 
182 1 2 4.9999999999992001e-01 -1.1859331528215414e+01 1.0000000000000000e+00 1.2297809206017876e+01 4.9322835466388799e+00 4.4620380526120620e+00 
12 1 2 4.9999999999986627e-01 -1.1750415313321326e+01 1.0000000000000000e+00 1.2121655280495009e+01 5.3427892192642314e+00 4.4660082810484552e+00 
309 1 2 5.0000000000001277e-01 1.9290830354132684e+00 1.0000000000000000e+00 1.2741839193261765e+01 4.6646694656334997e+00 4.7092585434999146e+00 
150 1 2 4.9999999999982003e-01 -6.1580100539056417e+00 1.0000000000000000e+00 1.2284598113886076e+01 5.0990553920196833e+00 4.5881035349219221e+00 
151 1 2 5.0000000000003308e-01 -1.1588956124323483e+01 1.0000000000000000e+00 9.1858944494081047e+00 7.9614252621803994e+00 4.0088768836804167e+00 
140 1 2 5.0000000000003664e-01 5.9200119811199707e+00 1.0000000000000000e+00 8.4945706447270872e+00 8.0414553812840701e+00 3.9961240166915633e+00 
204 1 2 5.0000000000000677e-01 4.3511099235665665e+00 1.0000000000000000e+00 8.6456705386449642e+00 8.5054476173281834e+00 5.5478548750309962e+00 
141 1 2 4.9999999999998912e-01 -1.6575318127505646e+01 1.0000000000000000e+00 7.3381034486869083e+00 7.8847707139572796e+00 5.6186545745742738e+00 
342 1 2 4.9999999999999328e-01 -5.9220519277016130e+00 1.0000000000000000e+00 7.1533682629820365e+00 8.2664043676875458e+00 4.7764082770810399e+00 
205 1 2 5.0000000000000955e-01 -1.5308005753195776e+01 1.0000000000000000e+00 7.4353420480259018e+00 8.0578060614269997e+00 5.8818079603395139e+00 
304 1 2 5.0000000000000655e-01 -1.1418581963711350e+01 1.0000000000000000e+00 7.6626276537510423e+00 8.1118941680277565e+00 5.8963354005705657e+00 
8 1 2 5.0000000000000977e-01 3.4305158086678645e+01 1.0000000000000000e+00 7.0932994438598707e+00 8.1512665828012896e+00 5.8813174736102765e+00 
213 1 2 4.9999999999996675e-01 9.4082685330853688e-01 1.0000000000000000e+00 6.9451364746383346e+00 8.1465066211469441e+00 5.5188409134918333e+00 
15 1 2 5.0000000000000044e-01 -2.5670062752485098e+01 1.0000000000000000e+00 1.0053194233843344e+01 7.9881216857183688e+00 4.0396403866867781e+00 
278 1 2 5.0000000000002809e-01 4.0754108578990405e+00 1.0000000000000000e+00 1.0072869369161715e+01 8.3231281954007734e+00 4.2263916198234481e+00 
336 1 2 4.9999999999990685e-01 4.7186681874351155e+00 1.0000000000000000e+00 1.1057275850447517e+01 8.0150433834540866e+00 4.0647699341130767e+00 
79 1 2 4.9999999999999062e-01 1.3893644807513862e+01 1.0000000000000000e+00 1.1120282748245122e+01 7.5309857426827405e+00 3.9409878729252950e+00 
80 1 2 4.9999999999996492e-01 -5.0123035018733564e-01 1.0000000000000000e+00 1.2613200026387318e+01 9.1409903584094963e+00 3.7906056600666673e+00 
334 1 2 4.9999999999995315e-01 -7.5939918093832421e+00 1.0000000000000000e+00 1.2888970589218138e+01 7.7163247509885995e+00 3.8159420826490429e+00 
63 1 2 5.0000000000004985e-01 3.0090849880443990e+01 1.0000000000000000e+00 1.1951017430682375e+01 1.2001647703861766e+00 7.6662914334609713e+00 
203 1 2 5.0000000000289191e-01 1.8975477810519841e+01 1.0000000000000000e+00 1.2994677744542074e+01 1.8439547272441765e+00 6.8671486117914187e+00 
241 1 2 4.9999999999985373e-01 3.5343791235878088e+00 1.0000000000000000e+00 1.2151008557866078e+01 8.3576607333236996e-01 7.8246509280013568e+00 
275 1 2 4.9999999999987366e-01 -6.4821808873281377e+00 1.0000000000000000e+00 1.2032109852125510e+01 7.1127310165025448e-01 7.8464918980080292e+00 
131 1 2 4.9999999999939049e-01 -7.3330600498396867e+00 1.0000000000000000e+00 1.1551744733267975e+01 5.8363981028459133e-01 8.0076004351801622e+00 
36 1 2 4.9999999999758210e-01 -6.3244617747941971e+00 1.0000000000000000e+00 1.3139811544380681e+01 1.9826473073404152e+00 6.7456349769599058e+00 
176 1 2 4.9999999999984557e-01 1.1763449721110522e+01 1.0000000000000000e+00 1.3141953249501997e+01 1.9878889715756376e+00 6.7446824022015024e+00 
20 1 2 4.9999999999976297e-01 -1.0628917236101991e+01 1.0000000000000000e+00 1.3177058040769360e+01 2.0490964965254777e+00 6.7183866895871045e+00 
263 1 2 4.9999999999998740e-01 -1.0480543912549367e+01 1.0000000000000000e+00 1.0719857531010865e+01 9.4952668245836822e+00 8.1665217426493353e+00 
239 1 2 4.9999999999998551e-01 8.0037659969470987e+00 1.0000000000000000e+00 1.0655570622930856e+01 9.5438766991398918e+00 8.0793033772755560e+00 
271 1 2 4.9999999999996853e-01 1.0832372279294631e+01 1.0000000000000000e+00 1.0782223141181488e+01 9.4423884562566407e+00 8.2113664373826527e+00 
376 1 2 4.9999999999993672e-01 9.7947544745923985e+00 1.0000000000000000e+00 1.1890435504574022e+01 8.9046232125209404e+00 8.5514942704692860e+00 
107 1 2 4.9999999999994688e-01 -1.2139144423365803e+01 1.0000000000000000e+00 1.2336914152958405e+01 8.9097324296511484e+00 8.3350605876130395e+00 
318 1 2 4.9999999999994410e-01 9.3156682664065116e+00 1.0000000000000000e+00 1.2310316310320708e+01 8.8239893934875955e+00 8.5785145594089069e+00 
344 1 2 4.9999999999992195e-01 -2.2769702093610967e+01 1.0000000000000000e+00 1.3296722508622564e+01 9.5824779568432188e+00 1.2954732255743815e+01 
340 1 2 5.0000000000000167e-01 1.5241983738557565e+00 1.0000000000000000e+00 7.1655932730558547e+00 1.1678882984344975e+01 3.6961766122058798e-01 
349 1 2 5.0000000000000266e-01 -1.4223970648554969e+01 1.0000000000000000e+00 8.2768421711539606e+00 1.0044484497212864e+01 8.8886191022398961e-02 
295 1 2 5.0000000000000999e-01 -1.3249682789884569e+00 1.0000000000000000e+00 6.9049949558273118e+00 1.1719772416482391e+01 5.6582213369652401e-01 
300 1 2 5.0000000000000500e-01 -1.2946265730385901e+01 1.0000000000000000e+00 9.2388103943904856e+00 1.2520449806047541e+01 1.6076222640205518e+00 
212 1 2 5.0000000000001144e-01 -1.1369776756570364e+01 1.0000000000000000e+00 9.1794449352512526e+00 1.2473354103346903e+01 1.5996848585577674e+00 
290 1 2 4.9999999999998906e-01 3.3614393457382414e+00 1.0000000000000000e+00 9.3751538750307226e+00 1.2812466874696970e+01 1.6677653533322987e+00 
225 1 2 4.9999999999999156e-01 9.2454060627501988e-01 1.0000000000000000e+00 9.4070523671174016e+00 1.2696846198547760e+01 1.6724192598398488e+00 
235 1 2 5.0000000000000411e-01 2.2048909095448252e+01 1.0000000000000000e+00 9.3389049246379177e+00 1.1882336113971485e+01 2.3109781432599480e-01 
44 1 2 5.0000000000000400e-01 1.3475373052724530e+01 1.0000000000000000e+00 9.3435767267845957e+00 1.1894014275968322e+01 2.3114036540347152e-01 
88 1 2 5.0000000000002331e-01 1.7544046796818034e+01 1.0000000000000000e+00 7.1651707013049357e+00 1.0938964969339942e+01 2.8064675429087331e+00 
197 1 2 4.9999999999998390e-01 -7.5803258660717727e+00 1.0000000000000000e+00 7.0575251144667055e+00 1.2755930740040377e+01 3.2977806544207549e+00 
370 1 2 4.9999999999994799e-01 1.0269437151887267e+01 1.0000000000000000e+00 1.3061739985687197e+01 1.1592777646157668e+01 3.1295780221238076e+00 
64 1 2 4.9999999999999750e-01 -2.0418917992216208e+01 1.0000000000000000e+00 1.1217534826750940e+01 1.1696727624326686e+01 6.0907794556258787e-01 
297 1 2 5.0000000000000577e-01 -1.0929640012758369e+01 1.0000000000000000e+00 1.0356705976146612e+01 1.1430274894972012e+01 4.5448518091486029e-01 
362 1 2 4.9999999999999212e-01 4.0312507165219857e+00 1.0000000000000000e+00 1.3219997667860323e+01 1.1022831791700627e+01 1.9463112464224843e+00 
329 1 2 5.0000000000000200e-01 -1.8906678720888912e+01 1.0000000000000000e+00 1.2303502782127007e+01 1.3255760407851291e+01 4.7769611824478109e-01 
321 1 2 5.0000000000002764e-01 -2.6876848186165908e+01 1.0000000000000000e+00 1.2310971523003690e+01 1.3272378127883155e+01 4.1066582480420721e-01 
189 1 2 4.9999999999998029e-01 1.2885226381470090e+01 1.0000000000000000e+00 9.8738493026813057e+00 1.4616688448454854e+01 1.9822515424609781e+00 
246 1 2 5.0000000000001588e-01 -1.1022428585985928e+01 1.0000000000000000e+00 1.1526371949412205e+01 1.3998967163899028e+01 3.1519174055549231e+00 
243 1 2 4.9999999999998568e-01 8.0241521419091981e+00 1.0000000000000000e+00 1.0414366814891968e+01 1.5323252595005142e+01 2.4118226336220476e+00 
307 1 2 4.9999999999996847e-01 1.2065754183428385e+00 1.0000000000000000e+00 1.0347337308798254e+01 1.5276222269184565e+01 2.3713236521900654e+00 
186 1 2 4.9999999999994832e-01 2.0475039245238982e+01 1.0000000000000000e+00 1.0951648378021289e+01 1.5464998347934378e+01 2.2236335019678171e+00 
330 1 2 5.0000000000001088e-01 -6.0572359584542248e+00 1.0000000000000000e+00 1.2041046262410271e+01 1.5002467696673934e+01 2.8351583203706787e+00 
337 1 2 5.0000000000000611e-01 2.3854265641222421e+00 1.0000000000000000e+00 1.2122196629682868e+01 1.4746202459250384e+01 2.8782863765242013e+00 
195 1 2 5.0000000000000655e-01 1.1068482236178527e+00 1.0000000000000000e+00 1.2122739205230658e+01 1.4776560941464913e+01 2.8665516139307474e+00 
85 1 2 5.0000000000001321e-01 -6.4920891864873145e+00 1.0000000000000000e+00 1.2382274663566497e+01 1.4492156568850564e+01 2.3452633742718731e+00 
312 1 2 5.0000000000006084e-01 1.8304925367342410e+01 1.0000000000000000e+00 1.2414873716217198e+01 1.4204064348285623e+01 1.7444754038624195e+00 
250 1 2 5.0000000000001232e-01 5.3710217265733879e+00 1.0000000000000000e+00 1.1146919980294085e+01 1.4291754908007018e+01 1.4335636008534430e-01 
346 1 2 5.0000000000001643e-01 -1.0835716887928760e+01 1.0000000000000000e+00 1.1225954439821548e+01 1.4190482867717353e+01 9.7402488217055436e-04 
188 1 2 5.0000000000001654e-01 -9.9347217593116888e+00 1.0000000000000000e+00 7.5112857781683813e+00 1.2504842678720269e+01 3.4273586486470098e+00 
331 1 2 4.9999999999996120e-01 -1.4032150271318136e+01 1.0000000000000000e+00 8.0309079580238407e+00 1.1708286032632946e+01 4.2357457095397377e+00 
244 1 2 4.9999999999996719e-01 1.2099475885006060e+01 1.0000000000000000e+00 9.6435011750442143e+00 1.1096822450086934e+01 5.1127375192589026e+00 
152 1 2 5.0000000000014488e-01 -1.9754528412468919e+00 1.0000000000000000e+00 8.0445117149272125e+00 1.1547015804283431e+01 4.7493023112705295e+00 
68 1 2 4.9999999999995387e-01 -2.2317137506500089e+01 1.0000000000000000e+00 8.5330309040458658e+00 1.1718390521828621e+01 5.5720750591140167e+00 
158 1 2 5.0000000000015299e-01 1.0351275710844124e+01 1.0000000000000000e+00 8.6987354382177262e+00 1.0791432058295483e+01 5.4712391556513671e+00 
143 1 2 4.9999999999984956e-01 -2.2581818782261251e+01 1.0000000000000000e+00 9.0558339147325118e+00 1.0089373665225040e+01 4.8924511413993148e+00 
272 1 2 4.9999999999996897e-01 2.0433286361916679e+01 1.0000000000000000e+00 9.0644790184996449e+00 1.0626617837027950e+01 5.8576631115450946e+00 
255 1 2 4.9999999999995148e-01 1.8705645313819135e+00 1.0000000000000000e+00 1.2664678059995879e+01 1.1661777522789061e+01 3.5961797958081267e+00 
170 1 2 4.9999999999994083e-01 1.4144029782756459e+01 1.0000000000000000e+00 1.2102776753657944e+01 1.1385551581864478e+01 3.9790340043764298e+00 
115 1 2 5.0000000000003331e-01 -2.4603369611436200e+01 1.0000000000000000e+00 1.3158651162075389e+01 1.0767817022727286e+01 4.9173264232491656e+00 
127 1 2 5.0000000000008094e-01 7.2812920110894286e+00 1.0000000000000000e+00 1.1660478021973846e+01 1.0921127565348533e+01 4.8664642013655977e+00 
119 1 2 5.0000000000000977e-01 3.4973985024059773e+00 1.0000000000000000e+00 1.2221048106901014e+01 1.0865510717739081e+01 5.2009417403730831e+00 
234 1 2 5.0000000000000933e-01 2.0468982910675770e+01 1.0000000000000000e+00 1.2063550704873505e+01 1.0846459915760382e+01 5.1917910712874873e+00 
247 1 2 4.9999999999985945e-01 4.3466342227860411e+00 1.0000000000000000e+00 1.0606694754335232e+01 1.1171615747714766e+01 5.4683614958056497e+00 
257 1 2 4.9999999999994388e-01 2.0945089208277494e+01 1.0000000000000000e+00 9.2785128234420924e+00 1.4133617414033196e+01 3.4020809394370661e+00 
289 1 2 5.0000000000008582e-01 -1.0364315597188504e+01 1.0000000000000000e+00 9.2610997575464058e+00 1.4122146057805059e+01 3.7156780831897467e+00 
371 1 2 5.0000000000003564e-01 2.2267188762324508e+01 1.0000000000000000e+00 9.3001620361964292e+00 1.4342968449448453e+01 4.0411884558957247e+00 
308 1 2 4.9999999999981432e-01 9.4999518243769661e+00 1.0000000000000000e+00 8.8828478891501099e+00 1.3414782440972582e+01 5.5471208584351652e+00 
139 1 2 4.9999999999998684e-01 1.7781408196220101e+00 1.0000000000000000e+00 9.5587720969276830e+00 1.5318649312698692e+01 6.1820006319839838e+00 
155 1 2 4.9999999999996347e-01 -2.5023754226015242e+00 1.0000000000000000e+00 9.5932730057196007e+00 1.4838488099826421e+01 4.9902075203162592e+00 
108 1 2 4.9999999999996109e-01 -7.8861778958591637e+00 1.0000000000000000e+00 9.6245756335258470e+00 1.4871351620171129e+01 5.0937301298114930e+00 
316 1 2 4.9999999999998362e-01 -3.0167501913087076e+01 1.0000000000000000e+00 1.0185818282637984e+01 1.3609791569152435e+01 6.0747350950879833e+00 
369 1 2 5.0000000000014178e-01 9.7389568050193720e-01 1.0000000000000000e+00 1.0197308865505637e+01 1.4255270220606258e+01 5.3403309453971621e+00 
190 1 2 4.9999999999995365e-01 7.1358158245220622e+00 1.0000000000000000e+00 9.5172014302001600e+00 1.1972712504738505e+01 7.8214496545649492e+00 
261 1 2 5.0000000000003475e-01 -1.3633800804490047e+01 1.0000000000000000e+00 7.5128914089191783e+00 1.2335656059861321e+01 8.5763030816928030e+00 
237 1 2 4.9999999999982797e-01 -5.9893407466837267e+00 1.0000000000000000e+00 8.3199747586753592e+00 1.2812866159916151e+01 9.4779372486097362e+00 
351 1 2 5.0000000000008338e-01 -1.3487814924497552e+01 1.0000000000000000e+00 7.4370913539579826e+00 1.2274399818425854e+01 8.2827540593012152e+00 
135 1 2 5.0000000000006184e-01 -1.7732581951720064e+01 1.0000000000000000e+00 8.6105526253387072e+00 1.2889645317831981e+01 9.5361534460746586e+00 
268 1 2 5.0000000000002764e-01 4.7404933267326070e+00 1.0000000000000000e+00 8.6248478256594581e+00 1.2881546259705521e+01 9.5384693971693899e+00 
260 1 2 4.9999999999985040e-01 -2.3488231865663749e+01 1.0000000000000000e+00 8.5989643290575177e+00 1.2881549343162371e+01 9.5371008863467654e+00 
372 1 2 5.0000000000013856e-01 -2.9697422021817022e+01 1.0000000000000000e+00 9.9247704205411242e+00 1.2901409576006193e+01 7.1741423918113920e+00 
100 1 2 5.0000000000014433e-01 3.3746903049149921e+01 1.0000000000000000e+00 9.9413925654431647e+00 1.2934494221034026e+01 7.1188931391651815e+00 
40 1 2 5.0000000000002043e-01 -8.5134510163793529e+00 1.0000000000000000e+00 6.9539396787239998e+00 1.2713643083947554e+01 8.4980310054404136e+00 
160 1 2 4.9999999999991701e-01 6.8222001929635043e+00 1.0000000000000000e+00 1.0120987028306974e+01 1.0105726351696111e+01 7.2491341958878621e+00 
61 1 2 5.0000000000004963e-01 -1.2999005584851574e+01 1.0000000000000000e+00 1.0435086288400836e+01 1.1554138658014415e+01 7.5765808848697880e+00 
50 1 2 5.0000000000001132e-01 -1.0304227340029679e-01 1.0000000000000000e+00 1.0545623187552213e+01 1.1357413764476632e+01 7.7193356824772685e+00 
310 1 2 5.0000000000010381e-01 -1.1323001027058471e+01 1.0000000000000000e+00 1.1427683941874223e+01 1.0160269413050511e+01 7.1573964351788701e+00 
191 1 2 5.0000000000005951e-01 1.4796588632539130e+01 1.0000000000000000e+00 1.1713538276477468e+01 1.0519804532052131e+01 8.6583831922457399e+00 
41 1 2 4.9999999999995126e-01 5.1325881930593660e+01 1.0000000000000000e+00 9.4729121433509693e+00 1.5607003510145924e+01 6.7190218747647341e+00 