LAMMPS data file via write_data, version 30 Jul 2016, timestep = 50000000

180 atoms
2 atom types

0.0000000000000000e+00 2.0000000000000000e+01 xlo xhi
0.0000000000000000e+00 2.0000000000000000e+01 ylo yhi
0.0000000000000000e+00 2.0000000000000000e+01 zlo zhi

Masses

1 3.896
2 4.31

Atoms # meso-molecular

133 1 2 1.0274758905501646e+00 -4.8912672727573619e+02 1.0000000000000000e+00 4.6527629726363191e+00 2.1382065775622136e-01 1.1180534226580154e+01 
98 1 2 1.0274758905501644e+00 -3.5857201000277894e+02 1.0000000000000000e+00 4.6527629726363191e+00 2.1382065775622369e-01 1.1180534226580154e+01 
24 1 2 1.0274758905501642e+00 -5.0650306634451221e+02 1.0000000000000000e+00 4.6527629726363191e+00 2.1382065775623002e-01 1.1180534226580154e+01 
75 1 2 1.0274758905501644e+00 -4.0417971049385744e+02 1.0000000000000000e+00 4.6527629726363173e+00 2.1382065775622361e-01 1.1180534226580155e+01 
147 1 2 1.0274758905501642e+00 -5.8464989964404890e+02 1.0000000000000000e+00 4.6527629726363173e+00 2.1382065775623110e-01 1.1180534226580148e+01 
95 1 2 1.0274758905501644e+00 -3.6937719077409389e+02 1.0000000000000000e+00 4.6527629726363182e+00 2.1382065775622194e-01 1.1180534226580154e+01 
36 1 2 1.0274758905501642e+00 -5.3065855430768806e+02 1.0000000000000000e+00 4.6527629726363173e+00 2.1382065775623305e-01 1.1180534226580155e+01 
102 1 2 1.0274758905501644e+00 -4.3542230288425304e+02 1.0000000000000000e+00 4.6527629726363227e+00 2.1382065775622275e-01 1.1180534226580154e+01 
71 1 2 1.0274758905501646e+00 -4.5172878683519917e+02 1.0000000000000000e+00 4.6527629726363120e+00 2.1382065775622242e-01 1.1180534226580155e+01 
109 1 2 1.0274758905501642e+00 -4.4437715253155653e+02 1.0000000000000000e+00 4.6527629726363120e+00 2.1382065775623552e-01 1.1180534226580154e+01 
65 1 2 1.0274758905501644e+00 -4.8873683706786318e+02 1.0000000000000000e+00 4.6527629726363191e+00 2.1382065775622153e-01 1.1180534226580152e+01 
101 1 2 1.0274758905501642e+00 -3.5716635313084294e+02 1.0000000000000000e+00 4.6527629726363227e+00 2.1382065775622527e-01 1.1180534226580152e+01 
68 1 2 1.0274758905501646e+00 -4.3899775234509019e+02 1.0000000000000000e+00 4.6527629726363191e+00 2.1382065775622136e-01 1.1180534226580154e+01 
34 1 2 1.0274758905501642e+00 -4.5153258074442425e+02 1.0000000000000000e+00 4.6527629726363164e+00 2.1382065775622991e-01 1.1180534226580152e+01 
96 1 2 1.0274758905501644e+00 -3.9524731070549939e+02 1.0000000000000000e+00 4.6527629726363218e+00 2.1382065775622328e-01 1.1180534226580154e+01 
28 1 2 1.0274758905501644e+00 -4.1399203523759780e+02 1.0000000000000000e+00 4.6527629726363182e+00 2.1382065775622183e-01 1.1180534226580155e+01 
58 1 2 1.0274758905501644e+00 -3.7918319111389172e+02 1.0000000000000000e+00 4.6527629726363209e+00 2.1382065775622394e-01 1.1180534226580155e+01 
106 1 2 1.0274758905501646e+00 -3.8613613975345538e+02 1.0000000000000000e+00 4.6527629726363200e+00 2.1382065775621981e-01 1.1180534226580155e+01 
35 1 2 1.0274758905501644e+00 -5.3298285066795643e+02 1.0000000000000000e+00 4.6527629726363173e+00 2.1382065775622330e-01 1.1180534226580155e+01 
97 1 2 1.0274758905501642e+00 -4.4730745245045023e+02 1.0000000000000000e+00 4.6527629726363164e+00 2.1382065775623429e-01 1.1180534226580154e+01 
94 1 2 1.0274758905501646e+00 -3.1284412823225409e+02 1.0000000000000000e+00 4.6527629726363147e+00 2.1382065775622228e-01 1.1180534226580154e+01 
100 1 2 1.0274758905501642e+00 -3.8834004360178744e+02 1.0000000000000000e+00 4.6527629726363191e+00 2.1382065775623002e-01 1.1180534226580154e+01 
59 1 2 1.0274758905501644e+00 -4.4438980485716928e+02 1.0000000000000000e+00 4.6527629726363209e+00 2.1382065775622280e-01 1.1180534226580154e+01 
66 1 2 1.0274758905501644e+00 -4.5053578244845772e+02 1.0000000000000000e+00 4.6527629726363200e+00 2.1382065775622147e-01 1.1180534226580154e+01 
70 1 2 1.0274758905501644e+00 -3.5371971595592964e+02 1.0000000000000000e+00 4.6527629726363209e+00 2.1382065775622092e-01 1.1180534226580154e+01 
23 1 2 1.0274758905501646e+00 -4.9992564865829257e+02 1.0000000000000000e+00 4.6527629726363147e+00 2.1382065775622458e-01 1.1180534226580154e+01 
85 1 2 1.0274758905501644e+00 -3.6980347211884543e+02 1.0000000000000000e+00 4.6527629726363200e+00 2.1382065775622527e-01 1.1180534226580154e+01 
64 1 2 1.0274758905501644e+00 -3.8879186274768279e+02 1.0000000000000000e+00 4.6527629726363173e+00 2.1382065775622330e-01 1.1180534226580155e+01 
148 1 2 1.0274758905501642e+00 -4.9619651698247884e+02 1.0000000000000000e+00 4.6527629726363200e+00 2.1382065775622724e-01 1.1180534226580154e+01 
26 1 2 1.0274758905501642e+00 -5.5293422519662124e+02 1.0000000000000000e+00 4.6527629726363191e+00 2.1382065775622824e-01 1.1180534226580154e+01 
121 1 2 1.0274758905501642e+00 -4.2807050157576833e+02 1.0000000000000000e+00 4.6527629726363191e+00 2.1382065775622819e-01 1.1180534226580152e+01 
124 1 2 1.0274758905501642e+00 -4.4181726956386348e+02 1.0000000000000000e+00 4.6527629726363191e+00 2.1382065775622824e-01 1.1180534226580154e+01 
72 1 2 1.0274758905501644e+00 -5.0823556251602321e+02 1.0000000000000000e+00 4.6527629726363173e+00 2.1382065775622761e-01 1.1180534226580154e+01 
22 1 2 1.0274758905501644e+00 -4.3324659866883150e+02 1.0000000000000000e+00 4.6527629726363191e+00 2.1382065775622480e-01 1.1180534226580154e+01 
30 1 2 1.0274758905501642e+00 -5.1982918647678707e+02 1.0000000000000000e+00 4.6527629726363191e+00 2.1382065775623002e-01 1.1180534226580154e+01 
29 1 2 1.0274758905501644e+00 -5.1700040817721981e+02 1.0000000000000000e+00 4.6527629726363209e+00 2.1382065775622394e-01 1.1180534226580155e+01 
60 1 2 1.0274758905501646e+00 -4.6413308437735822e+02 1.0000000000000000e+00 4.6527629726363147e+00 2.1382065775622364e-01 1.1180534226580154e+01 
73 1 2 1.0280209555598110e+00 -4.2279873936597573e+02 1.0000000000000000e+00 1.0121048605121190e+00 1.6433871556735596e+01 1.0744398925967523e+01 
161 1 2 1.0280209555598103e+00 -4.9577277655409307e+02 1.0000000000000000e+00 1.0121048605121266e+00 1.6433871556735596e+01 1.0744398925967515e+01 
157 1 2 1.0280209555598105e+00 -5.0516901129182338e+02 1.0000000000000000e+00 1.0121048605121112e+00 1.6433871556735607e+01 1.0744398925967538e+01 
151 1 2 1.0280209555598108e+00 -4.9916857150236615e+02 1.0000000000000000e+00 1.0121048605121197e+00 1.6433871556735596e+01 1.0744398925967536e+01 
117 1 2 1.0280209555598105e+00 -4.9166493157571051e+02 1.0000000000000000e+00 1.0121048605121219e+00 1.6433871556735596e+01 1.0744398925967529e+01 
119 1 2 1.0280209555598108e+00 -4.8244074006949234e+02 1.0000000000000000e+00 1.0121048605121152e+00 1.6433871556735603e+01 1.0744398925967539e+01 
123 1 2 1.0280209555598105e+00 -4.6533755522990299e+02 1.0000000000000000e+00 1.0121048605121252e+00 1.6433871556735593e+01 1.0744398925967532e+01 
162 1 2 1.0280209555598108e+00 -6.2478204677132294e+02 1.0000000000000000e+00 1.0121048605121097e+00 1.6433871556735607e+01 1.0744398925967543e+01 
126 1 2 1.0280209555598094e+00 -5.0451695556327763e+02 1.0000000000000000e+00 1.0121048605121254e+00 1.6433871556735603e+01 1.0744398925967539e+01 
77 1 2 1.0280209555598108e+00 -3.7974297757872546e+02 1.0000000000000000e+00 1.0121048605121268e+00 1.6433871556735589e+01 1.0744398925967534e+01 
156 1 2 1.0280209555598110e+00 -6.7567596956596526e+02 1.0000000000000000e+00 1.0121048605121110e+00 1.6433871556735603e+01 1.0744398925967538e+01 
131 1 2 1.0280209555598094e+00 -4.3738716841785936e+02 1.0000000000000000e+00 1.0121048605121266e+00 1.6433871556735603e+01 1.0744398925967543e+01 
67 1 2 1.0280209555598099e+00 -5.0958919771371507e+02 1.0000000000000000e+00 1.0121048605121321e+00 1.6433871556735593e+01 1.0744398925967548e+01 
159 1 2 1.0280209555598108e+00 -4.5683781400810079e+02 1.0000000000000000e+00 1.0121048605121163e+00 1.6433871556735600e+01 1.0744398925967541e+01 
132 1 2 1.0280209555598110e+00 -4.6697887212942567e+02 1.0000000000000000e+00 1.0121048605121277e+00 1.6433871556735589e+01 1.0744398925967520e+01 
152 1 2 1.0280209555598105e+00 -6.3557367928957012e+02 1.0000000000000000e+00 1.0121048605121072e+00 1.6433871556735610e+01 1.0744398925967543e+01 
80 1 2 1.0280209555598105e+00 -3.8846683620686451e+02 1.0000000000000000e+00 1.0121048605121219e+00 1.6433871556735596e+01 1.0744398925967545e+01 
145 1 2 1.0280209555598112e+00 -5.3705045551934484e+02 1.0000000000000000e+00 1.0121048605121252e+00 1.6433871556735589e+01 1.0744398925967522e+01 
154 1 2 1.0280209555598097e+00 -5.4736792422418443e+02 1.0000000000000000e+00 1.0121048605121346e+00 1.6433871556735593e+01 1.0744398925967531e+01 
163 1 2 1.0280209555598103e+00 -6.0327341220259405e+02 1.0000000000000000e+00 1.0121048605121252e+00 1.6433871556735596e+01 1.0744398925967539e+01 
116 1 2 1.0280209555598112e+00 -4.9245405376573831e+02 1.0000000000000000e+00 1.0121048605121243e+00 1.6433871556735589e+01 1.0744398925967523e+01 
146 1 2 1.0280209555598105e+00 -5.0216051740087863e+02 1.0000000000000000e+00 1.0121048605121212e+00 1.6433871556735596e+01 1.0744398925967538e+01 
158 1 2 1.0280209555598108e+00 -4.1349451155143765e+02 1.0000000000000000e+00 1.0121048605121132e+00 1.6433871556735603e+01 1.0744398925967539e+01 
120 1 2 1.0280209555598108e+00 -4.6393357920514779e+02 1.0000000000000000e+00 1.0121048605121175e+00 1.6433871556735600e+01 1.0744398925967534e+01 
118 1 2 1.0280209555598105e+00 -4.4717572402355859e+02 1.0000000000000000e+00 1.0121048605121270e+00 1.6433871556735593e+01 1.0744398925967541e+01 
177 1 2 1.0280209555598094e+00 -6.2264163222748607e+02 1.0000000000000000e+00 1.0121048605121281e+00 1.6433871556735600e+01 1.0744398925967547e+01 
176 1 2 1.0280209555598117e+00 -4.9341701411911225e+02 1.0000000000000000e+00 1.0121048605121168e+00 1.6433871556735593e+01 1.0744398925967531e+01 
115 1 2 1.0278077749851613e+00 -4.8517240669987262e+02 1.0000000000000000e+00 9.6401441979988594e+00 4.9225471039099684e+00 9.7423184861670453e+00 
15 1 2 1.0278077749851642e+00 -4.9041987861790972e+02 1.0000000000000000e+00 9.6401441979988576e+00 4.9225471039099853e+00 9.7423184861670418e+00 
104 1 2 1.0278077749851626e+00 -3.6377578875659731e+02 1.0000000000000000e+00 9.6401441979988736e+00 4.9225471039099631e+00 9.7423184861670453e+00 
86 1 2 1.0278077749851642e+00 -3.4845099687518780e+02 1.0000000000000000e+00 9.6401441979988611e+00 4.9225471039099791e+00 9.7423184861670578e+00 
130 1 2 1.0278077749851622e+00 -3.9444330347443895e+02 1.0000000000000000e+00 9.6401441979988522e+00 4.9225471039099826e+00 9.7423184861670507e+00 
81 1 2 1.0278077749851622e+00 -4.4719574522325513e+02 1.0000000000000000e+00 9.6401441979988594e+00 4.9225471039099746e+00 9.7423184861670347e+00 
136 1 2 1.0278077749851626e+00 -3.8176728257593413e+02 1.0000000000000000e+00 9.6401441979988594e+00 4.9225471039099764e+00 9.7423184861670613e+00 
166 1 2 1.0278077749851628e+00 -5.0366399518672495e+02 1.0000000000000000e+00 9.6401441979988611e+00 4.9225471039099773e+00 9.7423184861670400e+00 
140 1 2 1.0278077749851648e+00 -5.0634506290884349e+02 1.0000000000000000e+00 9.6401441979988665e+00 4.9225471039099924e+00 9.7423184861670435e+00 
122 1 2 1.0278077749851613e+00 -4.2720145691742732e+02 1.0000000000000000e+00 9.6401441979988611e+00 4.9225471039099684e+00 9.7423184861670453e+00 
172 1 2 1.0278077749851622e+00 -4.3309967233971201e+02 1.0000000000000000e+00 9.6401441979988647e+00 4.9225471039099684e+00 9.7423184861670595e+00 
33 1 2 1.0278077749851617e+00 -5.1853411192773467e+02 1.0000000000000000e+00 9.6401441979988576e+00 4.9225471039099729e+00 9.7423184861670578e+00 
164 1 2 1.0278077749851622e+00 -5.2246681179240716e+02 1.0000000000000000e+00 9.6401441979988558e+00 4.9225471039099782e+00 9.7423184861670471e+00 
171 1 2 1.0278077749851628e+00 -4.4011746949518158e+02 1.0000000000000000e+00 9.6401441979988665e+00 4.9225471039099720e+00 9.7423184861670435e+00 
165 1 2 1.0278077749851613e+00 -5.8134024519679303e+02 1.0000000000000000e+00 9.6401441979988611e+00 4.9225471039099666e+00 9.7423184861670471e+00 
135 1 2 1.0278077749851626e+00 -4.4184004613247197e+02 1.0000000000000000e+00 9.6401441979988682e+00 4.9225471039099675e+00 9.7423184861670542e+00 
139 1 2 1.0278077749851640e+00 -4.9270816233431788e+02 1.0000000000000000e+00 9.6401441979988629e+00 4.9225471039099764e+00 9.7423184861670524e+00 
134 1 2 1.0278077749851617e+00 -5.0230374785263803e+02 1.0000000000000000e+00 9.6401441979988558e+00 4.9225471039099746e+00 9.7423184861670578e+00 
141 1 2 1.0278077749851624e+00 -4.7806487055241047e+02 1.0000000000000000e+00 9.6401441979988629e+00 4.9225471039099720e+00 9.7423184861670595e+00 
27 1 2 1.0278077749851624e+00 -4.6252127794148595e+02 1.0000000000000000e+00 9.6401441979988611e+00 4.9225471039099746e+00 9.7423184861670471e+00 
127 1 2 1.0278077749851617e+00 -4.6732509502601624e+02 1.0000000000000000e+00 9.6401441979988665e+00 4.9225471039099649e+00 9.7423184861670400e+00 
91 1 2 1.0278077749851626e+00 -4.1467423495927761e+02 1.0000000000000000e+00 9.6401441979988594e+00 4.9225471039099773e+00 9.7423184861670418e+00 
129 1 2 1.0278077749851617e+00 -4.5181946925060572e+02 1.0000000000000000e+00 9.6401441979988576e+00 4.9225471039099729e+00 9.7423184861670560e+00 
69 1 2 1.0278077749851626e+00 -3.5983706000862139e+02 1.0000000000000000e+00 9.6401441979988753e+00 4.9225471039099613e+00 9.7423184861670382e+00 
31 1 2 1.0278077749851617e+00 -6.4014112444495481e+02 1.0000000000000000e+00 9.6401441979988647e+00 4.9225471039099675e+00 9.7423184861670453e+00 
57 1 2 1.0278077749851617e+00 -3.9334091162343287e+02 1.0000000000000000e+00 9.6401441979988540e+00 4.9225471039099782e+00 9.7423184861670453e+00 
43 1 2 1.0278077749851642e+00 -5.7009531916355445e+02 1.0000000000000000e+00 9.6401441979988665e+00 4.9225471039099755e+00 9.7423184861670507e+00 
128 1 2 1.0278077749851635e+00 -4.7612751114270031e+02 1.0000000000000000e+00 9.6401441979988594e+00 4.9225471039099800e+00 9.7423184861670507e+00 
99 1 2 1.0278077749851622e+00 -4.0646528269246210e+02 1.0000000000000000e+00 9.6401441979988665e+00 4.9225471039099684e+00 9.7423184861670471e+00 
62 1 2 1.0278077749851617e+00 -4.7748509151734982e+02 1.0000000000000000e+00 9.6401441979988558e+00 4.9225471039099764e+00 9.7423184861670418e+00 
63 1 2 1.0278077749851628e+00 -4.2353261512626000e+02 1.0000000000000000e+00 9.6401441979988594e+00 4.9225471039099782e+00 9.7423184861670524e+00 
175 1 2 1.0278077749851628e+00 -5.4185976007519764e+02 1.0000000000000000e+00 9.6401441979988647e+00 4.9225471039099737e+00 9.7423184861670507e+00 
25 1 2 1.0278077749851622e+00 -4.8627417303789662e+02 1.0000000000000000e+00 9.6401441979988629e+00 4.9225471039099720e+00 9.7423184861670453e+00 
92 1 2 1.0278077749851646e+00 -3.9184509364135914e+02 1.0000000000000000e+00 9.6401441979988682e+00 4.9225471039099782e+00 9.7423184861670435e+00 
169 1 2 1.0278077749851617e+00 -5.6195572828188767e+02 1.0000000000000000e+00 9.6401441979988647e+00 4.9225471039099666e+00 9.7423184861670507e+00 
111 1 2 1.0278077749851622e+00 -4.6876601357839519e+02 1.0000000000000000e+00 9.6401441979988611e+00 4.9225471039099729e+00 9.7423184861670507e+00 
19 1 2 1.0278546531687125e+00 -4.6535762719896081e+02 1.0000000000000000e+00 1.3117864461661561e+01 8.3638224345671368e+00 9.9568907583916531e+00 
103 1 2 1.0278546531687125e+00 -4.1925631079142954e+02 1.0000000000000000e+00 1.3117864461661560e+01 8.3638224345671386e+00 9.9568907583916531e+00 
87 1 2 1.0278546531687129e+00 -3.2560682492901304e+02 1.0000000000000000e+00 1.3117864461661568e+01 8.3638224345671386e+00 9.9568907583916513e+00 
170 1 2 1.0278546531687129e+00 -5.8711714959810831e+02 1.0000000000000000e+00 1.3117864461661565e+01 8.3638224345671368e+00 9.9568907583916531e+00 
160 1 2 1.0278546531687125e+00 -5.4191162919365786e+02 1.0000000000000000e+00 1.3117864461661556e+01 8.3638224345671421e+00 9.9568907583916477e+00 
49 1 2 1.0278546531687125e+00 -4.4816043943491360e+02 1.0000000000000000e+00 1.3117864461661560e+01 8.3638224345671386e+00 9.9568907583916548e+00 
20 1 2 1.0278546531687125e+00 -4.9048321978850879e+02 1.0000000000000000e+00 1.3117864461661561e+01 8.3638224345671386e+00 9.9568907583916495e+00 
21 1 2 1.0278546531687125e+00 -4.9281104049407543e+02 1.0000000000000000e+00 1.3117864461661563e+01 8.3638224345671350e+00 9.9568907583916495e+00 
50 1 2 1.0278546531687125e+00 -4.4508214173553381e+02 1.0000000000000000e+00 1.3117864461661558e+01 8.3638224345671350e+00 9.9568907583916477e+00 
56 1 2 1.0278546531687125e+00 -4.2366535087314440e+02 1.0000000000000000e+00 1.3117864461661560e+01 8.3638224345671386e+00 9.9568907583916531e+00 
51 1 2 1.0278546531687125e+00 -3.7893391495918740e+02 1.0000000000000000e+00 1.3117864461661551e+01 8.3638224345671404e+00 9.9568907583916477e+00 
13 1 2 1.0278546531687129e+00 -5.6917747335073011e+02 1.0000000000000000e+00 1.3117864461661558e+01 8.3638224345671439e+00 9.9568907583916548e+00 
55 1 2 1.0278546531687129e+00 -4.1039043694552277e+02 1.0000000000000000e+00 1.3117864461661556e+01 8.3638224345671457e+00 9.9568907583916513e+00 
3 1 2 1.0278546531687123e+00 -4.3127399606197559e+02 1.0000000000000000e+00 1.3117864461661553e+01 8.3638224345671368e+00 9.9568907583916459e+00 
7 1 2 1.0278546531687125e+00 -6.0993922455120128e+02 1.0000000000000000e+00 1.3117864461661556e+01 8.3638224345671421e+00 9.9568907583916531e+00 
76 1 2 1.0278546531687132e+00 -3.9747009969300399e+02 1.0000000000000000e+00 1.3117864461661563e+01 8.3638224345671421e+00 9.9568907583916513e+00 
1 1 2 1.0278546531687125e+00 -7.2269809966991750e+02 1.0000000000000000e+00 1.3117864461661558e+01 8.3638224345671368e+00 9.9568907583916548e+00 
9 1 2 1.0278546531687123e+00 -5.4842912282692487e+02 1.0000000000000000e+00 1.3117864461661553e+01 8.3638224345671368e+00 9.9568907583916531e+00 
14 1 2 1.0278546531687129e+00 -5.7809495439279704e+02 1.0000000000000000e+00 1.3117864461661556e+01 8.3638224345671457e+00 9.9568907583916548e+00 
8 1 2 1.0278546531687125e+00 -5.9064849387589868e+02 1.0000000000000000e+00 1.3117864461661560e+01 8.3638224345671386e+00 9.9568907583916531e+00 
45 1 2 1.0278546531687125e+00 -4.8864559088755396e+02 1.0000000000000000e+00 1.3117864461661560e+01 8.3638224345671386e+00 9.9568907583916513e+00 
44 1 2 1.0278546531687125e+00 -5.5618190772900846e+02 1.0000000000000000e+00 1.3117864461661560e+01 8.3638224345671386e+00 9.9568907583916513e+00 
37 1 2 1.0278546531687125e+00 -4.9675729170645741e+02 1.0000000000000000e+00 1.3117864461661554e+01 8.3638224345671421e+00 9.9568907583916513e+00 
39 1 2 1.0278546531687125e+00 -3.9774836997179193e+02 1.0000000000000000e+00 1.3117864461661556e+01 8.3638224345671421e+00 9.9568907583916513e+00 
38 1 2 1.0278546531687125e+00 -5.1430998309976792e+02 1.0000000000000000e+00 1.3117864461661556e+01 8.3638224345671421e+00 9.9568907583916548e+00 
2 1 2 1.0278546531687129e+00 -6.4700613005459991e+02 1.0000000000000000e+00 1.3117864461661558e+01 8.3638224345671439e+00 9.9568907583916548e+00 
4 1 2 1.0278546531687125e+00 -5.7569085753416516e+02 1.0000000000000000e+00 1.3117864461661558e+01 8.3638224345671368e+00 9.9568907583916477e+00 
105 1 2 1.0278546531687125e+00 -3.8724526778340203e+02 1.0000000000000000e+00 1.3117864461661556e+01 8.3638224345671350e+00 9.9568907583916531e+00 
61 1 2 1.0278546531687125e+00 -4.6277405876707212e+02 1.0000000000000000e+00 1.3117864461661554e+01 8.3638224345671368e+00 9.9568907583916531e+00 
93 1 2 1.0281629731033319e+00 -3.3856750466114823e+02 1.0000000000000000e+00 1.4983923938264647e+01 9.4024971713901415e+00 9.2066546752154892e+00 
16 1 2 1.0277746992601502e+00 -4.1818442631642682e+02 1.0000000000000000e+00 1.5930229207028232e+01 1.1169972622082808e+01 1.0159739202180713e+01 
84 1 2 1.0277746992601502e+00 -3.3852778928737013e+02 1.0000000000000000e+00 1.5930229207028232e+01 1.1169972622082808e+01 1.0159739202180713e+01 
89 1 2 1.0277746992601497e+00 -3.5995573349025835e+02 1.0000000000000000e+00 1.5930229207028235e+01 1.1169972622082811e+01 1.0159739202180706e+01 
11 1 2 1.0277746992601497e+00 -4.8750444473262422e+02 1.0000000000000000e+00 1.5930229207028235e+01 1.1169972622082801e+01 1.0159739202180717e+01 
41 1 2 1.0277746992601502e+00 -4.3747180206056856e+02 1.0000000000000000e+00 1.5930229207028237e+01 1.1169972622082803e+01 1.0159739202180713e+01 
83 1 2 1.0277746992601500e+00 -4.2025724543673880e+02 1.0000000000000000e+00 1.5930229207028233e+01 1.1169972622082804e+01 1.0159739202180717e+01 
18 1 2 1.0277746992601506e+00 -5.3083211678298596e+02 1.0000000000000000e+00 1.5930229207028223e+01 1.1169972622082801e+01 1.0159739202180718e+01 
48 1 2 1.0277746992601506e+00 -4.8550601803739056e+02 1.0000000000000000e+00 1.5930229207028221e+01 1.1169972622082803e+01 1.0159739202180717e+01 
52 1 2 1.0277746992601497e+00 -3.4200874980893144e+02 1.0000000000000000e+00 1.5930229207028230e+01 1.1169972622082804e+01 1.0159739202180715e+01 
46 1 2 1.0277746992601500e+00 -4.0568871202180787e+02 1.0000000000000000e+00 1.5930229207028232e+01 1.1169972622082806e+01 1.0159739202180711e+01 
6 1 2 1.0277746992601500e+00 -5.7663860586671137e+02 1.0000000000000000e+00 1.5930229207028228e+01 1.1169972622082804e+01 1.0159739202180704e+01 
88 1 2 1.0277746992601500e+00 -2.6646840517170284e+02 1.0000000000000000e+00 1.5930229207028237e+01 1.1169972622082806e+01 1.0159739202180715e+01 
12 1 2 1.0277746992601497e+00 -5.0879349110072826e+02 1.0000000000000000e+00 1.5930229207028228e+01 1.1169972622082806e+01 1.0159739202180713e+01 
153 1 2 1.0277746992601497e+00 -5.2641939423884025e+02 1.0000000000000000e+00 1.5930229207028230e+01 1.1169972622082803e+01 1.0159739202180715e+01 
53 1 2 1.0277746992601497e+00 -4.1170771956429587e+02 1.0000000000000000e+00 1.5930229207028235e+01 1.1169972622082813e+01 1.0159739202180715e+01 
40 1 2 1.0277746992601502e+00 -3.1119409269504303e+02 1.0000000000000000e+00 1.5930229207028239e+01 1.1169972622082803e+01 1.0159739202180713e+01 
125 1 2 1.0277746992601509e+00 -4.5788493307730471e+02 1.0000000000000000e+00 1.5930229207028225e+01 1.1169972622082797e+01 1.0159739202180717e+01 
47 1 2 1.0277746992601506e+00 -4.7445463658225219e+02 1.0000000000000000e+00 1.5930229207028225e+01 1.1169972622082799e+01 1.0159739202180713e+01 
17 1 2 1.0277746992601497e+00 -4.5329000615605844e+02 1.0000000000000000e+00 1.5930229207028235e+01 1.1169972622082801e+01 1.0159739202180720e+01 
42 1 2 1.0277746992601500e+00 -4.6840582172237964e+02 1.0000000000000000e+00 1.5930229207028233e+01 1.1169972622082806e+01 1.0159739202180710e+01 
10 1 2 1.0277746992601500e+00 -4.6756407445912492e+02 1.0000000000000000e+00 1.5930229207028237e+01 1.1169972622082806e+01 1.0159739202180717e+01 
90 1 2 1.0277746992601497e+00 -3.7697329672672856e+02 1.0000000000000000e+00 1.5930229207028232e+01 1.1169972622082804e+01 1.0159739202180713e+01 
155 1 2 1.0277746992601502e+00 -4.9864524966916235e+02 1.0000000000000000e+00 1.5930229207028232e+01 1.1169972622082810e+01 1.0159739202180708e+01 
74 1 2 1.0277746992601500e+00 -4.2530700509087615e+02 1.0000000000000000e+00 1.5930229207028232e+01 1.1169972622082799e+01 1.0159739202180718e+01 
54 1 2 1.0277746992601502e+00 -4.4278597150288482e+02 1.0000000000000000e+00 1.5930229207028230e+01 1.1169972622082811e+01 1.0159739202180708e+01 
5 1 2 1.0277746992601497e+00 -5.8982894520476714e+02 1.0000000000000000e+00 1.5930229207028235e+01 1.1169972622082810e+01 1.0159739202180715e+01 
32 1 2 1.0277746992601500e+00 -6.1981033986575562e+02 1.0000000000000000e+00 1.5930229207028233e+01 1.1169972622082804e+01 1.0159739202180713e+01 
167 1 2 1.0277746992601500e+00 -4.7017986905242310e+02 1.0000000000000000e+00 1.5930229207028232e+01 1.1169972622082806e+01 1.0159739202180717e+01 
142 1 2 1.0275957836868803e+00 -4.2042715659846402e+02 1.0000000000000000e+00 1.8897606179546383e+01 1.4289537564042575e+01 1.0549491424716992e+01 
150 1 2 1.0275957836868803e+00 -4.9552966760152776e+02 1.0000000000000000e+00 1.8897606179546390e+01 1.4289537564042563e+01 1.0549491424716994e+01 
180 1 2 1.0275957836868805e+00 -5.5252685268997448e+02 1.0000000000000000e+00 1.8897606179546383e+01 1.4289537564042567e+01 1.0549491424716994e+01 
78 1 2 1.0275957836868803e+00 -3.3196286054898201e+02 1.0000000000000000e+00 1.8897606179546393e+01 1.4289537564042559e+01 1.0549491424716988e+01 
174 1 2 1.0275957836868805e+00 -3.5821766488869196e+02 1.0000000000000000e+00 1.8897606179546390e+01 1.4289537564042561e+01 1.0549491424716987e+01 
144 1 2 1.0275957836868805e+00 -4.2657157002421962e+02 1.0000000000000000e+00 1.8897606179546393e+01 1.4289537564042561e+01 1.0549491424716985e+01 
114 1 2 1.0275957836868803e+00 -4.5008387849435377e+02 1.0000000000000000e+00 1.8897606179546386e+01 1.4289537564042575e+01 1.0549491424716997e+01 
82 1 2 1.0275957836868805e+00 -4.0797911129042194e+02 1.0000000000000000e+00 1.8897606179546390e+01 1.4289537564042565e+01 1.0549491424716987e+01 
110 1 2 1.0275957836868801e+00 -4.5493665623700520e+02 1.0000000000000000e+00 1.8897606179546390e+01 1.4289537564042556e+01 1.0549491424716985e+01 
112 1 2 1.0275957836868805e+00 -4.6377306386623036e+02 1.0000000000000000e+00 1.8897606179546390e+01 1.4289537564042563e+01 1.0549491424716987e+01 
79 1 2 1.0275957836868805e+00 -4.0926865878422001e+02 1.0000000000000000e+00 1.8897606179546386e+01 1.4289537564042565e+01 1.0549491424716997e+01 
168 1 2 1.0275957836868805e+00 -5.4434382513797686e+02 1.0000000000000000e+00 1.8897606179546393e+01 1.4289537564042561e+01 1.0549491424716987e+01 
113 1 2 1.0275957836868803e+00 -4.0977642552475152e+02 1.0000000000000000e+00 1.8897606179546390e+01 1.4289537564042565e+01 1.0549491424716988e+01 
179 1 2 1.0275957836868814e+00 -4.7227126681640436e+02 1.0000000000000000e+00 1.8897606179546397e+01 1.4289537564042583e+01 1.0549491424716987e+01 
107 1 2 1.0275957836868792e+00 -3.7582740404304542e+02 1.0000000000000000e+00 1.8897606179546386e+01 1.4289537564042558e+01 1.0549491424716990e+01 
108 1 2 1.0275957836868805e+00 -4.0051873531306666e+02 1.0000000000000000e+00 1.8897606179546393e+01 1.4289537564042552e+01 1.0549491424716988e+01 
138 1 2 1.0275957836868805e+00 -3.5805586850896611e+02 1.0000000000000000e+00 1.8897606179546390e+01 1.4289537564042561e+01 1.0549491424716988e+01 
137 1 2 1.0275957836868805e+00 -3.6237259002071175e+02 1.0000000000000000e+00 1.8897606179546390e+01 1.4289537564042561e+01 1.0549491424716988e+01 
143 1 2 1.0275957836868794e+00 -4.2551315944616664e+02 1.0000000000000000e+00 1.8897606179546379e+01 1.4289537564042552e+01 1.0549491424716987e+01 
149 1 2 1.0275957836868805e+00 -5.9134342695841042e+02 1.0000000000000000e+00 1.8897606179546390e+01 1.4289537564042561e+01 1.0549491424716992e+01 
178 1 2 1.0275957836868805e+00 -4.8915640401170037e+02 1.0000000000000000e+00 1.8897606179546386e+01 1.4289537564042568e+01 1.0549491424716985e+01 
173 1 2 1.0275957836868805e+00 -3.4226011616389695e+02 1.0000000000000000e+00 1.8897606179546386e+01 1.4289537564042563e+01 1.0549491424716987e+01 

Velocities

133 -7.5687788626845720e-02 5.8865344614674922e-02 1.3986118390207661e-01
98 -7.5687788626844901e-02 5.8865344614675269e-02 1.3986118390207658e-01
24 -7.5687788626846025e-02 5.8865344614674422e-02 1.3986118390207594e-01
75 -7.5687788626844638e-02 5.8865344614675616e-02 1.3986118390207636e-01
147 -7.5687788626845900e-02 5.8865344614673729e-02 1.3986118390207655e-01
95 -7.5687788626845318e-02 5.8865344614675186e-02 1.3986118390207625e-01
36 -7.5687788626842667e-02 5.8865344614675470e-02 1.3986118390207589e-01
102 -7.5687788626845748e-02 5.8865344614675533e-02 1.3986118390207627e-01
71 -7.5687788626846303e-02 5.8865344614674991e-02 1.3986118390207639e-01
109 -7.5687788626844332e-02 5.8865344614674034e-02 1.3986118390207594e-01
65 -7.5687788626845262e-02 5.8865344614674978e-02 1.3986118390207625e-01
101 -7.5687788626845304e-02 5.8865344614675935e-02 1.3986118390207661e-01
68 -7.5687788626845720e-02 5.8865344614674922e-02 1.3986118390207661e-01
34 -7.5687788626843930e-02 5.8865344614675214e-02 1.3986118390207589e-01
96 -7.5687788626846067e-02 5.8865344614674436e-02 1.3986118390207583e-01
28 -7.5687788626845331e-02 5.8865344614675172e-02 1.3986118390207625e-01
58 -7.5687788626845387e-02 5.8865344614674853e-02 1.3986118390207589e-01
106 -7.5687788626847066e-02 5.8865344614674228e-02 1.3986118390207594e-01
35 -7.5687788626844568e-02 5.8865344614675588e-02 1.3986118390207636e-01
97 -7.5687788626845123e-02 5.8865344614673909e-02 1.3986118390207528e-01
94 -7.5687788626849578e-02 5.8865344614672473e-02 1.3986118390207564e-01
100 -7.5687788626846025e-02 5.8865344614674422e-02 1.3986118390207594e-01
59 -7.5687788626846081e-02 5.8865344614674506e-02 1.3986118390207514e-01
66 -7.5687788626845748e-02 5.8865344614674645e-02 1.3986118390207589e-01
70 -7.5687788626845290e-02 5.8865344614675741e-02 1.3986118390207530e-01
23 -7.5687788626844374e-02 5.8865344614675102e-02 1.3986118390207630e-01
85 -7.5687788626844818e-02 5.8865344614675200e-02 1.3986118390207616e-01
64 -7.5687788626844568e-02 5.8865344614675588e-02 1.3986118390207636e-01
148 -7.5687788626845123e-02 5.8865344614675436e-02 1.3986118390207636e-01
26 -7.5687788626844832e-02 5.8865344614675713e-02 1.3986118390207625e-01
121 -7.5687788626846705e-02 5.8865344614674131e-02 1.3986118390207572e-01
124 -7.5687788626844832e-02 5.8865344614675713e-02 1.3986118390207625e-01
72 -7.5687788626849467e-02 5.8865344614672369e-02 1.3986118390207547e-01
22 -7.5687788626845318e-02 5.8865344614675380e-02 1.3986118390207627e-01
30 -7.5687788626846025e-02 5.8865344614674422e-02 1.3986118390207594e-01
29 -7.5687788626845387e-02 5.8865344614674853e-02 1.3986118390207589e-01
60 -7.5687788626843597e-02 5.8865344614676365e-02 1.3986118390207650e-01
73 -3.8218668934403774e-02 3.1035387697943794e-02 7.1972551190786466e-02
161 -3.8218668934405856e-02 3.1035387697941851e-02 7.1972551190786507e-02
157 -3.8218668934404586e-02 3.1035387697943503e-02 7.1972551190786382e-02
151 -3.8218668934403302e-02 3.1035387697944176e-02 7.1972551190786258e-02
117 -3.8218668934404593e-02 3.1035387697943773e-02 7.1972551190786216e-02