LAMMPS data file via write_data, version 30 Jul 2016, timestep = 50400000

180 atoms
2 atom types

0.0000000000000000e+00 2.0000000000000000e+01 xlo xhi
0.0000000000000000e+00 2.0000000000000000e+01 ylo yhi
0.0000000000000000e+00 2.0000000000000000e+01 zlo zhi

Masses

1 3.896
2 4.31

Atoms # meso-molecular

133 1 2 1.0274535287837903e+00 -4.8912554219413732e+02 1.0000000000000000e+00 3.9245766501797030e-01 9.5421396694004346e-01 1.6265005338486514e+01 
98 1 2 1.0274535287837905e+00 -3.5857082492118008e+02 1.0000000000000000e+00 3.9245766501797119e-01 9.5421396694004157e-01 1.6265005338486514e+01 
24 1 2 1.0274535287837905e+00 -5.0650188126291334e+02 1.0000000000000000e+00 3.9245766501796997e-01 9.5421396694003824e-01 1.6265005338486514e+01 
75 1 2 1.0274535287837905e+00 -4.0417852541225858e+02 1.0000000000000000e+00 3.9245766501796781e-01 9.5421396694004379e-01 1.6265005338486514e+01 
147 1 2 1.0274535287837905e+00 -5.8464871456254275e+02 1.0000000000000000e+00 3.9245766501796903e-01 9.5421396694003879e-01 1.6265005338486514e+01 
95 1 2 1.0274535287837903e+00 -3.6937600569249503e+02 1.0000000000000000e+00 3.9245766501796908e-01 9.5421396694004368e-01 1.6265005338486514e+01 
36 1 2 1.0274535287837907e+00 -5.3065736922618191e+02 1.0000000000000000e+00 3.9245766501797069e-01 9.5421396694003879e-01 1.6265005338486510e+01 
102 1 2 1.0274535287837905e+00 -4.3542111780265418e+02 1.0000000000000000e+00 3.9245766501797152e-01 9.5421396694004390e-01 1.6265005338486510e+01 
71 1 2 1.0274535287837903e+00 -4.5172760175360031e+02 1.0000000000000000e+00 3.9245766501796692e-01 9.5421396694004357e-01 1.6265005338486517e+01 
109 1 2 1.0274535287837907e+00 -4.4437596744995767e+02 1.0000000000000000e+00 3.9245766501796697e-01 9.5421396694004101e-01 1.6265005338486510e+01 
65 1 2 1.0274535287837905e+00 -4.8873565198626432e+02 1.0000000000000000e+00 3.9245766501796941e-01 9.5421396694004124e-01 1.6265005338486514e+01 
101 1 2 1.0274535287837903e+00 -3.5716516804924407e+02 1.0000000000000000e+00 3.9245766501797608e-01 9.5421396694004135e-01 1.6265005338486514e+01 
68 1 2 1.0274535287837903e+00 -4.3899656726349133e+02 1.0000000000000000e+00 3.9245766501797030e-01 9.5421396694004346e-01 1.6265005338486514e+01 
34 1 2 1.0274535287837903e+00 -4.5153139566282539e+02 1.0000000000000000e+00 3.9245766501796892e-01 9.5421396694004379e-01 1.6265005338486514e+01 
96 1 2 1.0274535287837905e+00 -3.9524612562390053e+02 1.0000000000000000e+00 3.9245766501796903e-01 9.5421396694004113e-01 1.6265005338486514e+01 
28 1 2 1.0274535287837905e+00 -4.1399085015599894e+02 1.0000000000000000e+00 3.9245766501796930e-01 9.5421396694004323e-01 1.6265005338486514e+01 
58 1 2 1.0274535287837905e+00 -3.7918200603229286e+02 1.0000000000000000e+00 3.9245766501796925e-01 9.5421396694004179e-01 1.6265005338486514e+01 
106 1 2 1.0274535287837905e+00 -3.8613495467185652e+02 1.0000000000000000e+00 3.9245766501797147e-01 9.5421396694004101e-01 1.6265005338486514e+01 
35 1 2 1.0274535287837905e+00 -5.3298166558645028e+02 1.0000000000000000e+00 3.9245766501796664e-01 9.5421396694004357e-01 1.6265005338486514e+01 
97 1 2 1.0274535287837907e+00 -4.4730626736885137e+02 1.0000000000000000e+00 3.9245766501797036e-01 9.5421396694003879e-01 1.6265005338486510e+01 
94 1 2 1.0274535287837905e+00 -3.1284294315065523e+02 1.0000000000000000e+00 3.9245766501796786e-01 9.5421396694004113e-01 1.6265005338486517e+01 
100 1 2 1.0274535287837905e+00 -3.8833885852018858e+02 1.0000000000000000e+00 3.9245766501796997e-01 9.5421396694003824e-01 1.6265005338486514e+01 
59 1 2 1.0274535287837905e+00 -4.4438861977557042e+02 1.0000000000000000e+00 3.9245766501797019e-01 9.5421396694004035e-01 1.6265005338486514e+01 
66 1 2 1.0274535287837905e+00 -4.5053459736685886e+02 1.0000000000000000e+00 3.9245766501796836e-01 9.5421396694004212e-01 1.6265005338486514e+01 
70 1 2 1.0274535287837903e+00 -3.5371853087433078e+02 1.0000000000000000e+00 3.9245766501797269e-01 9.5421396694004290e-01 1.6265005338486514e+01 
23 1 2 1.0274535287837903e+00 -4.9992446357669371e+02 1.0000000000000000e+00 3.9245766501796658e-01 9.5421396694004668e-01 1.6265005338486514e+01 
85 1 2 1.0274535287837905e+00 -3.6980228703724657e+02 1.0000000000000000e+00 3.9245766501797025e-01 9.5421396694004323e-01 1.6265005338486510e+01 
64 1 2 1.0274535287837905e+00 -3.8879067766608392e+02 1.0000000000000000e+00 3.9245766501796664e-01 9.5421396694004357e-01 1.6265005338486514e+01 
148 1 2 1.0274535287837905e+00 -4.9619533190087998e+02 1.0000000000000000e+00 3.9245766501797152e-01 9.5421396694004113e-01 1.6265005338486510e+01 
26 1 2 1.0274535287837905e+00 -5.5293304011511509e+02 1.0000000000000000e+00 3.9245766501797230e-01 9.5421396694004101e-01 1.6265005338486510e+01 
121 1 2 1.0274535287837905e+00 -4.2806931649416947e+02 1.0000000000000000e+00 3.9245766501797091e-01 9.5421396694004001e-01 1.6265005338486514e+01 
124 1 2 1.0274535287837905e+00 -4.4181608448226461e+02 1.0000000000000000e+00 3.9245766501797230e-01 9.5421396694004101e-01 1.6265005338486510e+01 
72 1 2 1.0274535287837905e+00 -5.0823437743442435e+02 1.0000000000000000e+00 3.9245766501796708e-01 9.5421396694003924e-01 1.6265005338486517e+01 
22 1 2 1.0274535287837905e+00 -4.3324541358723263e+02 1.0000000000000000e+00 3.9245766501796941e-01 9.5421396694004312e-01 1.6265005338486510e+01 
30 1 2 1.0274535287837905e+00 -5.1982800139528092e+02 1.0000000000000000e+00 3.9245766501796997e-01 9.5421396694003824e-01 1.6265005338486514e+01 
29 1 2 1.0274535287837905e+00 -5.1699922309571366e+02 1.0000000000000000e+00 3.9245766501796925e-01 9.5421396694004179e-01 1.6265005338486514e+01 
60 1 2 1.0274535287837905e+00 -4.6413189929575935e+02 1.0000000000000000e+00 3.9245766501796964e-01 9.5421396694004501e-01 1.6265005338486510e+01 
115 1 2 1.0277902028209214e+00 -4.8517077268208931e+02 1.0000000000000000e+00 1.3796273579180346e+01 4.1107842786363538e+00 4.6845085897977734e+00 
111 1 2 1.0277902028209212e+00 -4.6876437956061187e+02 1.0000000000000000e+00 1.3796273579180349e+01 4.1107842786363546e+00 4.6845085897977672e+00 
169 1 2 1.0277902028209214e+00 -5.6195409426418109e+02 1.0000000000000000e+00 1.3796273579180349e+01 4.1107842786363564e+00 4.6845085897977681e+00 
92 1 2 1.0277902028209214e+00 -3.9184345962357582e+02 1.0000000000000000e+00 1.3796273579180353e+01 4.1107842786363591e+00 4.6845085897977778e+00 
25 1 2 1.0277902028209214e+00 -4.8627253902011330e+02 1.0000000000000000e+00 1.3796273579180351e+01 4.1107842786363520e+00 4.6845085897977787e+00 
175 1 2 1.0277902028209214e+00 -5.4185812605749106e+02 1.0000000000000000e+00 1.3796273579180351e+01 4.1107842786363564e+00 4.6845085897977716e+00 
63 1 2 1.0277902028209214e+00 -4.2353098110847668e+02 1.0000000000000000e+00 1.3796273579180353e+01 4.1107842786363546e+00 4.6845085897977699e+00 
62 1 2 1.0277902028209212e+00 -4.7748345749956650e+02 1.0000000000000000e+00 1.3796273579180347e+01 4.1107842786363484e+00 4.6845085897977681e+00 
99 1 2 1.0277902028209214e+00 -4.0646364867467878e+02 1.0000000000000000e+00 1.3796273579180351e+01 4.1107842786363573e+00 4.6845085897977725e+00 
128 1 2 1.0277902028209214e+00 -4.7612587712491700e+02 1.0000000000000000e+00 1.3796273579180353e+01 4.1107842786363546e+00 4.6845085897977743e+00 
43 1 2 1.0277902028209214e+00 -5.7009368514584787e+02 1.0000000000000000e+00 1.3796273579180353e+01 4.1107842786363564e+00 4.6845085897977734e+00 
57 1 2 1.0277902028209214e+00 -3.9333927760564956e+02 1.0000000000000000e+00 1.3796273579180356e+01 4.1107842786363538e+00 4.6845085897977699e+00 
31 1 2 1.0277902028209212e+00 -6.4013949042724823e+02 1.0000000000000000e+00 1.3796273579180346e+01 4.1107842786363555e+00 4.6845085897977690e+00 
69 1 2 1.0277902028209214e+00 -3.5983542599083808e+02 1.0000000000000000e+00 1.3796273579180353e+01 4.1107842786363520e+00 4.6845085897977761e+00 
129 1 2 1.0277902028209212e+00 -4.5181783523282240e+02 1.0000000000000000e+00 1.3796273579180342e+01 4.1107842786363520e+00 4.6845085897977707e+00 
91 1 2 1.0277902028209214e+00 -4.1467260094149430e+02 1.0000000000000000e+00 1.3796273579180355e+01 4.1107842786363546e+00 4.6845085897977707e+00 
127 1 2 1.0277902028209212e+00 -4.6732346100823293e+02 1.0000000000000000e+00 1.3796273579180342e+01 4.1107842786363520e+00 4.6845085897977672e+00 
27 1 2 1.0277902028209214e+00 -4.6251964392370263e+02 1.0000000000000000e+00 1.3796273579180353e+01 4.1107842786363555e+00 4.6845085897977725e+00 
141 1 2 1.0277902028209214e+00 -4.7806323653462715e+02 1.0000000000000000e+00 1.3796273579180358e+01 4.1107842786363538e+00 4.6845085897977654e+00 
134 1 2 1.0277902028209214e+00 -5.0230211383485471e+02 1.0000000000000000e+00 1.3796273579180351e+01 4.1107842786363573e+00 4.6845085897977672e+00 
139 1 2 1.0277902028209214e+00 -4.9270652831653456e+02 1.0000000000000000e+00 1.3796273579180360e+01 4.1107842786363529e+00 4.6845085897977725e+00 
135 1 2 1.0277902028209214e+00 -4.4183841211468865e+02 1.0000000000000000e+00 1.3796273579180353e+01 4.1107842786363546e+00 4.6845085897977690e+00 
165 1 2 1.0277902028209212e+00 -5.8133861117908646e+02 1.0000000000000000e+00 1.3796273579180346e+01 4.1107842786363546e+00 4.6845085897977690e+00 
171 1 2 1.0277902028209212e+00 -4.4011583547739826e+02 1.0000000000000000e+00 1.3796273579180349e+01 4.1107842786363538e+00 4.6845085897977699e+00 
164 1 2 1.0277902028209214e+00 -5.2246517777470058e+02 1.0000000000000000e+00 1.3796273579180355e+01 4.1107842786363538e+00 4.6845085897977725e+00 
33 1 2 1.0277902028209212e+00 -5.1853247791002809e+02 1.0000000000000000e+00 1.3796273579180351e+01 4.1107842786363555e+00 4.6845085897977654e+00 
172 1 2 1.0277902028209214e+00 -4.3309803832192870e+02 1.0000000000000000e+00 1.3796273579180358e+01 4.1107842786363564e+00 4.6845085897977627e+00 
122 1 2 1.0277902028209212e+00 -4.2719982289964400e+02 1.0000000000000000e+00 1.3796273579180346e+01 4.1107842786363520e+00 4.6845085897977699e+00 
140 1 2 1.0277902028209214e+00 -5.0634342889106017e+02 1.0000000000000000e+00 1.3796273579180355e+01 4.1107842786363546e+00 4.6845085897977743e+00 
166 1 2 1.0277902028209212e+00 -5.0366236116894163e+02 1.0000000000000000e+00 1.3796273579180347e+01 4.1107842786363520e+00 4.6845085897977734e+00 
136 1 2 1.0277902028209214e+00 -3.8176564855815082e+02 1.0000000000000000e+00 1.3796273579180356e+01 4.1107842786363564e+00 4.6845085897977707e+00 
81 1 2 1.0277902028209212e+00 -4.4719411120547181e+02 1.0000000000000000e+00 1.3796273579180349e+01 4.1107842786363458e+00 4.6845085897977654e+00 
130 1 2 1.0277902028209214e+00 -3.9444166945665563e+02 1.0000000000000000e+00 1.3796273579180355e+01 4.1107842786363573e+00 4.6845085897977770e+00 
86 1 2 1.0277902028209214e+00 -3.4844936285740448e+02 1.0000000000000000e+00 1.3796273579180358e+01 4.1107842786363564e+00 4.6845085897977681e+00 
104 1 2 1.0277902028209212e+00 -3.6377415473881399e+02 1.0000000000000000e+00 1.3796273579180346e+01 4.1107842786363546e+00 4.6845085897977681e+00 
15 1 2 1.0277902028209214e+00 -4.9041824460012640e+02 1.0000000000000000e+00 1.3796273579180356e+01 4.1107842786363529e+00 4.6845085897977734e+00 
93 1 2 1.0281702122220897e+00 -3.3856390133991391e+02 1.0000000000000000e+00 1.6824773906962626e+01 9.6746841724344002e+00 7.6438443011892367e+00 
19 1 2 1.0278614013157430e+00 -4.6535339760387177e+02 1.0000000000000000e+00 1.5392723939528921e+01 7.9697490807630045e+00 7.2427800797127722e+00 
61 1 2 1.0278614013157426e+00 -4.6276982917198308e+02 1.0000000000000000e+00 1.5392723939528921e+01 7.9697490807630063e+00 7.2427800797127642e+00 
105 1 2 1.0278614013157428e+00 -3.8724103818831298e+02 1.0000000000000000e+00 1.5392723939528926e+01 7.9697490807630045e+00 7.2427800797127651e+00 
4 1 2 1.0278614013157428e+00 -5.7568662793880401e+02 1.0000000000000000e+00 1.5392723939528922e+01 7.9697490807630054e+00 7.2427800797127651e+00 
2 1 2 1.0278614013157426e+00 -6.4700190045923875e+02 1.0000000000000000e+00 1.5392723939528922e+01 7.9697490807630036e+00 7.2427800797127713e+00 
38 1 2 1.0278614013157426e+00 -5.1430575350440677e+02 1.0000000000000000e+00 1.5392723939528921e+01 7.9697490807630027e+00 7.2427800797127722e+00 
39 1 2 1.0278614013157428e+00 -3.9774414037670289e+02 1.0000000000000000e+00 1.5392723939528919e+01 7.9697490807630000e+00 7.2427800797127757e+00 
37 1 2 1.0278614013157426e+00 -4.9675306211136837e+02 1.0000000000000000e+00 1.5392723939528924e+01 7.9697490807629991e+00 7.2427800797127704e+00 
44 1 2 1.0278614013157426e+00 -5.5617767813364731e+02 1.0000000000000000e+00 1.5392723939528924e+01 7.9697490807630027e+00 7.2427800797127659e+00 
45 1 2 1.0278614013157426e+00 -4.8864136129246492e+02 1.0000000000000000e+00 1.5392723939528926e+01 7.9697490807630027e+00 7.2427800797127651e+00 
8 1 2 1.0278614013157428e+00 -5.9064426428053753e+02 1.0000000000000000e+00 1.5392723939528926e+01 7.9697490807630054e+00 7.2427800797127633e+00 
14 1 2 1.0278614013157426e+00 -5.7809072479743588e+02 1.0000000000000000e+00 1.5392723939528924e+01 7.9697490807630009e+00 7.2427800797127722e+00 
9 1 2 1.0278614013157426e+00 -5.4842489323156371e+02 1.0000000000000000e+00 1.5392723939528922e+01 7.9697490807630036e+00 7.2427800797127668e+00 
1 1 2 1.0278614013157428e+00 -7.2269387007455634e+02 1.0000000000000000e+00 1.5392723939528924e+01 7.9697490807630063e+00 7.2427800797127624e+00 
76 1 2 1.0278614013157426e+00 -3.9746587009791494e+02 1.0000000000000000e+00 1.5392723939528921e+01 7.9697490807630009e+00 7.2427800797127757e+00 
7 1 2 1.0278614013157428e+00 -6.0993499495584012e+02 1.0000000000000000e+00 1.5392723939528924e+01 7.9697490807629974e+00 7.2427800797127668e+00 
3 1 2 1.0278614013157426e+00 -4.3126976646688655e+02 1.0000000000000000e+00 1.5392723939528922e+01 7.9697490807630009e+00 7.2427800797127713e+00 
55 1 2 1.0278614013157428e+00 -4.1038620735043372e+02 1.0000000000000000e+00 1.5392723939528922e+01 7.9697490807630018e+00 7.2427800797127730e+00 
13 1 2 1.0278614013157428e+00 -5.6917324375536896e+02 1.0000000000000000e+00 1.5392723939528924e+01 7.9697490807629983e+00 7.2427800797127748e+00 
51 1 2 1.0278614013157426e+00 -3.7892968536409836e+02 1.0000000000000000e+00 1.5392723939528922e+01 7.9697490807630027e+00 7.2427800797127668e+00 
56 1 2 1.0278614013157426e+00 -4.2366112127805536e+02 1.0000000000000000e+00 1.5392723939528922e+01 7.9697490807630063e+00 7.2427800797127651e+00 
50 1 2 1.0278614013157428e+00 -4.4507791214044477e+02 1.0000000000000000e+00 1.5392723939528921e+01 7.9697490807630045e+00 7.2427800797127677e+00 
21 1 2 1.0278614013157428e+00 -4.9280681089898638e+02 1.0000000000000000e+00 1.5392723939528919e+01 7.9697490807630054e+00 7.2427800797127677e+00 
20 1 2 1.0278614013157428e+00 -4.9047899019341975e+02 1.0000000000000000e+00 1.5392723939528921e+01 7.9697490807630018e+00 7.2427800797127757e+00 
49 1 2 1.0278614013157428e+00 -4.4815620983982456e+02 1.0000000000000000e+00 1.5392723939528922e+01 7.9697490807630018e+00 7.2427800797127704e+00 
160 1 2 1.0278614013157428e+00 -5.4190739959829671e+02 1.0000000000000000e+00 1.5392723939528921e+01 7.9697490807630036e+00 7.2427800797127695e+00 
170 1 2 1.0278614013157428e+00 -5.8711292000274716e+02 1.0000000000000000e+00 1.5392723939528921e+01 7.9697490807630018e+00 7.2427800797127739e+00 
87 1 2 1.0278614013157426e+00 -3.2560259533392400e+02 1.0000000000000000e+00 1.5392723939528919e+01 7.9697490807630018e+00 7.2427800797127766e+00 
103 1 2 1.0278614013157426e+00 -4.1925208119634050e+02 1.0000000000000000e+00 1.5392723939528922e+01 7.9697490807630027e+00 7.2427800797127722e+00 
16 1 2 1.0277561437882727e+00 -4.1818059134212859e+02 1.0000000000000000e+00 1.6668885640474201e+01 1.1099296492251712e+01 9.3407146457348187e+00 
84 1 2 1.0277561437882727e+00 -3.3852395431307190e+02 1.0000000000000000e+00 1.6668885640474201e+01 1.1099296492251712e+01 9.3407146457348187e+00 
89 1 2 1.0277561437882725e+00 -3.5995189851596012e+02 1.0000000000000000e+00 1.6668885640474201e+01 1.1099296492251710e+01 9.3407146457348240e+00 
11 1 2 1.0277561437882725e+00 -4.8750060975832599e+02 1.0000000000000000e+00 1.6668885640474194e+01 1.1099296492251703e+01 9.3407146457348222e+00 
41 1 2 1.0277561437882727e+00 -4.3746796708627033e+02 1.0000000000000000e+00 1.6668885640474198e+01 1.1099296492251710e+01 9.3407146457348187e+00 
83 1 2 1.0277561437882727e+00 -4.2025341046244057e+02 1.0000000000000000e+00 1.6668885640474191e+01 1.1099296492251703e+01 9.3407146457348169e+00 
18 1 2 1.0277561437882725e+00 -5.3082828180864806e+02 1.0000000000000000e+00 1.6668885640474201e+01 1.1099296492251698e+01 9.3407146457348151e+00 
48 1 2 1.0277561437882723e+00 -4.8550218306309233e+02 1.0000000000000000e+00 1.6668885640474198e+01 1.1099296492251703e+01 9.3407146457348187e+00 
52 1 2 1.0277561437882725e+00 -3.4200491483463321e+02 1.0000000000000000e+00 1.6668885640474201e+01 1.1099296492251696e+01 9.3407146457348151e+00 
46 1 2 1.0277561437882727e+00 -4.0568487704750964e+02 1.0000000000000000e+00 1.6668885640474191e+01 1.1099296492251703e+01 9.3407146457348169e+00 
6 1 2 1.0277561437882730e+00 -5.7663477089237347e+02 1.0000000000000000e+00 1.6668885640474194e+01 1.1099296492251696e+01 9.3407146457348151e+00 
88 1 2 1.0277561437882725e+00 -2.6646457019740461e+02 1.0000000000000000e+00 1.6668885640474205e+01 1.1099296492251712e+01 9.3407146457348205e+00 
12 1 2 1.0277561437882723e+00 -5.0878965612643003e+02 1.0000000000000000e+00 1.6668885640474201e+01 1.1099296492251701e+01 9.3407146457348169e+00 
153 1 2 1.0277561437882736e+00 -5.2641555926450235e+02 1.0000000000000000e+00 1.6668885640474198e+01 1.1099296492251687e+01 9.3407146457348169e+00 
53 1 2 1.0277561437882727e+00 -4.1170388458999764e+02 1.0000000000000000e+00 1.6668885640474198e+01 1.1099296492251710e+01 9.3407146457348240e+00 
40 1 2 1.0277561437882723e+00 -3.1119025772074480e+02 1.0000000000000000e+00 1.6668885640474194e+01 1.1099296492251701e+01 9.3407146457348205e+00 
125 1 2 1.0277561437882725e+00 -4.5788109810300648e+02 1.0000000000000000e+00 1.6668885640474201e+01 1.1099296492251707e+01 9.3407146457348205e+00 
47 1 2 1.0277561437882727e+00 -4.7445080160795396e+02 1.0000000000000000e+00 1.6668885640474208e+01 1.1099296492251707e+01 9.3407146457348222e+00 
17 1 2 1.0277561437882730e+00 -4.5328617118176021e+02 1.0000000000000000e+00 1.6668885640474187e+01 1.1099296492251698e+01 9.3407146457348151e+00 
42 1 2 1.0277561437882723e+00 -4.6840198674808141e+02 1.0000000000000000e+00 1.6668885640474198e+01 1.1099296492251707e+01 9.3407146457348205e+00 
10 1 2 1.0277561437882723e+00 -4.6756023948482670e+02 1.0000000000000000e+00 1.6668885640474205e+01 1.1099296492251710e+01 9.3407146457348258e+00 
90 1 2 1.0277561437882725e+00 -3.7696946175243033e+02 1.0000000000000000e+00 1.6668885640474198e+01 1.1099296492251700e+01 9.3407146457348134e+00 
155 1 2 1.0277561437882725e+00 -4.9864141469486412e+02 1.0000000000000000e+00 1.6668885640474198e+01 1.1099296492251694e+01 9.3407146457348187e+00 
167 1 2 1.0277561437882725e+00 -4.7017603407812487e+02 1.0000000000000000e+00 1.6668885640474198e+01 1.1099296492251698e+01 9.3407146457348151e+00 
32 1 2 1.0277561437882723e+00 -6.1980650489141772e+02 1.0000000000000000e+00 1.6668885640474198e+01 1.1099296492251701e+01 9.3407146457348187e+00 
5 1 2 1.0277561437882725e+00 -5.8982511023042923e+02 1.0000000000000000e+00 1.6668885640474205e+01 1.1099296492251703e+01 9.3407146457348187e+00 
54 1 2 1.0277561437882730e+00 -4.4278213652858659e+02 1.0000000000000000e+00 1.6668885640474194e+01 1.1099296492251694e+01 9.3407146457348169e+00 
74 1 2 1.0277561437882738e+00 -4.2530317011657792e+02 1.0000000000000000e+00 1.6668885640474201e+01 1.1099296492251687e+01 9.3407146457348134e+00 
173 1 2 1.0275865235562303e+00 -3.4225607299263055e+02 1.0000000000000000e+00 1.7904079275856514e+01 1.4472150948251670e+01 1.1746899177331311e+01 
178 1 2 1.0275865235562303e+00 -4.8915236084043397e+02 1.0000000000000000e+00 1.7904079275856517e+01 1.4472150948251670e+01 1.1746899177331311e+01 
149 1 2 1.0275865235562300e+00 -5.9133938378730261e+02 1.0000000000000000e+00 1.7904079275856525e+01 1.4472150948251665e+01 1.1746899177331311e+01 
143 1 2 1.0275865235562291e+00 -4.2550911627490024e+02 1.0000000000000000e+00 1.7904079275856525e+01 1.4472150948251659e+01 1.1746899177331310e+01 
137 1 2 1.0275865235562294e+00 -3.6236854684944535e+02 1.0000000000000000e+00 1.7904079275856525e+01 1.4472150948251665e+01 1.1746899177331304e+01 
138 1 2 1.0275865235562303e+00 -3.5805182533769971e+02 1.0000000000000000e+00 1.7904079275856525e+01 1.4472150948251667e+01 1.1746899177331310e+01 
108 1 2 1.0275865235562296e+00 -4.0051469214180025e+02 1.0000000000000000e+00 1.7904079275856521e+01 1.4472150948251670e+01 1.1746899177331304e+01 
107 1 2 1.0275865235562305e+00 -3.7582336087177902e+02 1.0000000000000000e+00 1.7904079275856521e+01 1.4472150948251670e+01 1.1746899177331317e+01 
179 1 2 1.0275865235562294e+00 -4.7226722364513796e+02 1.0000000000000000e+00 1.7904079275856539e+01 1.4472150948251659e+01 1.1746899177331303e+01 
113 1 2 1.0275865235562294e+00 -4.0977238235348511e+02 1.0000000000000000e+00 1.7904079275856532e+01 1.4472150948251651e+01 1.1746899177331303e+01 
168 1 2 1.0275865235562294e+00 -5.4433978196686905e+02 1.0000000000000000e+00 1.7904079275856532e+01 1.4472150948251656e+01 1.1746899177331304e+01 
79 1 2 1.0275865235562294e+00 -4.0926461561295361e+02 1.0000000000000000e+00 1.7904079275856528e+01 1.4472150948251663e+01 1.1746899177331304e+01 
112 1 2 1.0275865235562303e+00 -4.6376902069496396e+02 1.0000000000000000e+00 1.7904079275856514e+01 1.4472150948251672e+01 1.1746899177331317e+01 
110 1 2 1.0275865235562296e+00 -4.5493261306573879e+02 1.0000000000000000e+00 1.7904079275856525e+01 1.4472150948251668e+01 1.1746899177331301e+01 
82 1 2 1.0275865235562291e+00 -4.0797506811915554e+02 1.0000000000000000e+00 1.7904079275856535e+01 1.4472150948251651e+01 1.1746899177331308e+01 
114 1 2 1.0275865235562291e+00 -4.5007983532308737e+02 1.0000000000000000e+00 1.7904079275856525e+01 1.4472150948251663e+01 1.1746899177331303e+01 
144 1 2 1.0275865235562300e+00 -4.2656752685295322e+02 1.0000000000000000e+00 1.7904079275856514e+01 1.4472150948251672e+01 1.1746899177331313e+01 
174 1 2 1.0275865235562291e+00 -3.5821362171742555e+02 1.0000000000000000e+00 1.7904079275856532e+01 1.4472150948251661e+01 1.1746899177331301e+01 
78 1 2 1.0275865235562303e+00 -3.3195881737771560e+02 1.0000000000000000e+00 1.7904079275856528e+01 1.4472150948251668e+01 1.1746899177331308e+01 
180 1 2 1.0275865235562291e+00 -5.5252280951886667e+02 1.0000000000000000e+00 1.7904079275856528e+01 1.4472150948251661e+01 1.1746899177331301e+01 
150 1 2 1.0275865235562291e+00 -4.9552562443026136e+02 1.0000000000000000e+00 1.7904079275856517e+01 1.4472150948251668e+01 1.1746899177331301e+01 
142 1 2 1.0275865235562294e+00 -4.2042311342719762e+02 1.0000000000000000e+00 1.7904079275856525e+01 1.4472150948251658e+01 1.1746899177331313e+01 
73 1 2 1.0280145568258159e+00 -4.2279544349997616e+02 1.0000000000000000e+00 1.8840774325312395e+01 1.6839289582597463e+01 1.3367267894068110e+01 
176 1 2 1.0280145568258159e+00 -4.9341371825311268e+02 1.0000000000000000e+00 1.8840774325312402e+01 1.6839289582597459e+01 1.3367267894068110e+01 
177 1 2 1.0280145568258161e+00 -6.2263833636154720e+02 1.0000000000000000e+00 1.8840774325312410e+01 1.6839289582597459e+01 1.3367267894068103e+01 
118 1 2 1.0280145568258152e+00 -4.4717242815755901e+02 1.0000000000000000e+00 1.8840774325312413e+01 1.6839289582597463e+01 1.3367267894068107e+01 
120 1 2 1.0280145568258154e+00 -4.6393028333914822e+02 1.0000000000000000e+00 1.8840774325312395e+01 1.6839289582597459e+01 1.3367267894068119e+01 
158 1 2 1.0280145568258154e+00 -4.1349121568543808e+02 1.0000000000000000e+00 1.8840774325312420e+01 1.6839289582597459e+01 1.3367267894068105e+01 
146 1 2 1.0280145568258161e+00 -5.0215722153487906e+02 1.0000000000000000e+00 1.8840774325312406e+01 1.6839289582597456e+01 1.3367267894068110e+01 
116 1 2 1.0280145568258152e+00 -4.9245075789973873e+02 1.0000000000000000e+00 1.8840774325312402e+01 1.6839289582597470e+01 1.3367267894068101e+01 
163 1 2 1.0280145568258170e+00 -6.0327011633665518e+02 1.0000000000000000e+00 1.8840774325312420e+01 1.6839289582597463e+01 1.3367267894068080e+01 
154 1 2 1.0280145568258154e+00 -5.4736462835824557e+02 1.0000000000000000e+00 1.8840774325312402e+01 1.6839289582597466e+01 1.3367267894068105e+01 
145 1 2 1.0280145568258157e+00 -5.3704715965340597e+02 1.0000000000000000e+00 1.8840774325312420e+01 1.6839289582597459e+01 1.3367267894068103e+01 
80 1 2 1.0280145568258152e+00 -3.8846354034086494e+02 1.0000000000000000e+00 1.8840774325312395e+01 1.6839289582597466e+01 1.3367267894068112e+01 
152 1 2 1.0280145568258168e+00 -6.3557038342363126e+02 1.0000000000000000e+00 1.8840774325312385e+01 1.6839289582597470e+01 1.3367267894068094e+01 
132 1 2 1.0280145568258152e+00 -4.6697557626342609e+02 1.0000000000000000e+00 1.8840774325312413e+01 1.6839289582597466e+01 1.3367267894068100e+01 
159 1 2 1.0280145568258154e+00 -4.5683451814210122e+02 1.0000000000000000e+00 1.8840774325312392e+01 1.6839289582597463e+01 1.3367267894068116e+01 
67 1 2 1.0280145568258170e+00 -5.0958590184771549e+02 1.0000000000000000e+00 1.8840774325312402e+01 1.6839289582597473e+01 1.3367267894068075e+01 
131 1 2 1.0280145568258168e+00 -4.3738387255185978e+02 1.0000000000000000e+00 1.8840774325312413e+01 1.6839289582597463e+01 1.3367267894068089e+01 
156 1 2 1.0280145568258152e+00 -6.7567267370002639e+02 1.0000000000000000e+00 1.8840774325312410e+01 1.6839289582597466e+01 1.3367267894068103e+01 
77 1 2 1.0280145568258159e+00 -3.7973968171272588e+02 1.0000000000000000e+00 1.8840774325312410e+01 1.6839289582597456e+01 1.3367267894068112e+01 
126 1 2 1.0280145568258163e+00 -5.0451365969727806e+02 1.0000000000000000e+00 1.8840774325312402e+01 1.6839289582597466e+01 1.3367267894068096e+01 
162 1 2 1.0280145568258161e+00 -6.2477875090538407e+02 1.0000000000000000e+00 1.8840774325312388e+01 1.6839289582597463e+01 1.3367267894068112e+01 
123 1 2 1.0280145568258159e+00 -4.6533425936390341e+02 1.0000000000000000e+00 1.8840774325312413e+01 1.6839289582597463e+01 1.3367267894068098e+01 
119 1 2 1.0280145568258161e+00 -4.8243744420349276e+02 1.0000000000000000e+00 1.8840774325312406e+01 1.6839289582597459e+01 1.3367267894068105e+01 
117 1 2 1.0280145568258157e+00 -4.9166163570971094e+02 1.0000000000000000e+00 1.8840774325312399e+01 1.6839289582597456e+01 1.3367267894068119e+01 
151 1 2 1.0280145568258157e+00 -4.9916527563636657e+02 1.0000000000000000e+00 1.8840774325312399e+01 1.6839289582597459e+01 1.3367267894068116e+01 
157 1 2 1.0280145568258159e+00 -5.0516571542582381e+02 1.0000000000000000e+00 1.8840774325312402e+01 1.6839289582597459e+01 1.3367267894068110e+01 
161 1 2 1.0280145568258150e+00 -4.9576948068809349e+02 1.0000000000000000e+00 1.8840774325312406e+01 1.6839289582597466e+01 1.3367267894068107e+01 

Velocities

133 -1.3052933856707843e-01 -2.3351096123370923e-02 1.0590449034259286e-01
98 -1.3052933856707841e-01 -2.3351096123371828e-02 1.0590449034259269e-01
24 -1.3052933856707880e-01 -2.3351096123371613e-02 1.0590449034259128e-01
75 -1.3052933856707796e-01 -2.3351096123370302e-02 1.0590449034259306e-01
147 -1.3052933856707863e-01 -2.3351096123371263e-02 1.0590449034259251e-01
95 -1.3052933856707843e-01 -2.3351096123370690e-02 1.0590449034259289e-01
36 -1.3052933856707832e-01 -2.3351096123372127e-02 1.0590449034259161e-01
102 -1.3052933856707818e-01 -2.3351096123369778e-02 1.0590449034259382e-01
71 -1.3052933856707882e-01 -2.3351096123370194e-02 1.0590449034259253e-01
109 -1.3052933856707868e-01 -2.3351096123372012e-02 1.0590449034259207e-01
65 -1.3052933856707780e-01 -2.3351096123369844e-02 1.0590449034259315e-01
101 -1.3052933856707880e-01 -2.3351096123371419e-02 1.0590449034259203e-01
68 -1.3052933856707843e-01 -2.3351096123370923e-02 1.0590449034259286e-01
34 -1.3052933856707830e-01 -2.3351096123370968e-02 1.0590449034259225e-01
96 -1.3052933856707771e-01 -2.3351096123370340e-02 1.0590449034259286e-01
28 -1.3052933856707838e-01 -2.3351096123370652e-02 1.0590449034259292e-01
58 -1.3052933856707802e-01 -2.3351096123371065e-02 1.0590449034259253e-01
106 -1.3052933856707816e-01 -2.3351096123369885e-02 1.0590449034259294e-01
35 -1.3052933856707777e-01 -2.3351096123370413e-02 1.0590449034259292e-01
97 -1.3052933856707855e-01 -2.3351096123371752e-02 1.0590449034259182e-01
94 -1.3052933856707843e-01 -2.3351096123369105e-02 1.0590449034259261e-01
100 -1.3052933856707880e-01 -2.3351096123371613e-02 1.0590449034259128e-01
59 -1.3052933856707843e-01 -2.3351096123370944e-02 1.0590449034259150e-01
66 -1.3052933856707807e-01 -2.3351096123370895e-02 1.0590449034259261e-01
70 -1.3052933856707827e-01 -2.3351096123370687e-02 1.0590449034259228e-01
23 -1.3052933856707796e-01 -2.3351096123371249e-02 1.0590449034259271e-01
85 -1.3052933856707749e-01 -2.3351096123370833e-02 1.0590449034259332e-01
64 -1.3052933856707777e-01 -2.3351096123370413e-02 1.0590449034259292e-01
148 -1.3052933856707913e-01 -2.3351096123371846e-02 1.0590449034259102e-01
26 -1.3052933856707910e-01 -2.3351096123371707e-02 1.0590449034259156e-01
121 -1.3052933856707893e-01 -2.3351096123371152e-02 1.0590449034259128e-01
124 -1.3052933856707910e-01 -2.3351096123371707e-02 1.0590449034259156e-01
72 -1.3052933856707874e-01 -2.3351096123369611e-02 1.0590449034259272e-01
22 -1.3052933856707774e-01 -2.3351096123370104e-02 1.0590449034259368e-01
30 -1.3052933856707880e-01 -2.3351096123371613e-02 1.0590449034259128e-01
29 -1.3052933856707802e-01 -2.3351096123371065e-02 1.0590449034259253e-01
60 -1.3052933856707782e-01 -2.3351096123370219e-02 1.0590449034259351e-01
115 1.2805454759312612e-01 2.1160226862107837e-02 -1.0601480686232582e-01
111 1.2805454759312623e-01 2.1160226862109166e-02 -1.0601480686232533e-01
169 1.2805454759312634e-01 2.1160226862107275e-02 -1.0601480686232674e-01
92 1.2805454759312701e-01 2.1160226862108583e-02 -1.0601480686232649e-01
25 1.2805454759312701e-01 2.1160226862108420e-02 -1.0601480686232563e-01