LAMMPS data file via write_data, version 30 Jul 2016, timestep = 100400000

165 atoms
8 atom types

0.0000000000000000e+00 2.0000000000000000e+01 xlo xhi
0.0000000000000000e+00 2.0000000000000000e+01 ylo yhi
0.0000000000000000e+00 2.0000000000000000e+01 zlo zhi

Masses

1 3.896
2 5.36
3 20.064
4 1.047
5 1.047
6 1.047
7 1.047
8 1.047

Atoms # meso-molecular

1 2 4 2.8666455499559546e-01 -3.6584275305263972e+01 1.0000000000000000e+00 0.0000000000000000e+00 0.0000000000000000e+00 5.0000000000000000e-01 
2 2 4 2.9139988339419487e-01 -1.2498548968204222e+01 1.0000000000000000e+00 0.0000000000000000e+00 1.6000000000000001e+00 5.0000000000000000e-01 
3 2 4 2.9139988339419487e-01 -2.4239930509308650e+01 1.0000000000000000e+00 0.0000000000000000e+00 3.2000000000000002e+00 5.0000000000000000e-01 
14 2 4 2.8666455499559546e-01 -2.4252404619983984e+01 1.0000000000000000e+00 2.0000000000000000e+00 0.0000000000000000e+00 5.0000000000000000e-01 
15 2 4 2.9139988339419487e-01 1.1571658314439684e+01 1.0000000000000000e+00 2.0000000000000000e+00 1.6000000000000001e+00 5.0000000000000000e-01 
16 2 4 2.9146878285263300e-01 -4.4634886314356788e+00 1.0000000000000000e+00 2.0000000000000000e+00 3.2000000000000002e+00 5.0000000000000000e-01 
27 2 4 2.8666455499559546e-01 -1.4252156816117623e+01 1.0000000000000000e+00 4.0000000000000000e+00 0.0000000000000000e+00 5.0000000000000000e-01 
28 2 4 2.9139988339419487e-01 -1.2461796368559025e+01 1.0000000000000000e+00 4.0000000000000000e+00 1.6000000000000001e+00 5.0000000000000000e-01 
29 2 4 2.9139988339419487e-01 -1.1801968329218894e+01 1.0000000000000000e+00 4.0000000000000000e+00 3.2000000000000002e+00 5.0000000000000000e-01 
40 2 4 2.8666455499559546e-01 -9.9301405636659226e+00 1.0000000000000000e+00 6.0000000000000000e+00 0.0000000000000000e+00 5.0000000000000000e-01 
41 2 4 3.0657142284837169e-01 -1.8675431888412152e+01 1.0000000000000000e+00 6.0000000000000000e+00 1.6000000000000001e+00 5.0000000000000000e-01 
42 2 4 4.5794744211803035e-01 -4.1968808618219143e+01 1.0000000000000000e+00 6.0000000000000000e+00 3.2000000000000002e+00 5.0000000000000000e-01 
4 2 4 3.1617354521959901e-01 -3.4014562128338454e+01 1.0000000000000000e+00 0.0000000000000000e+00 4.7999999999999998e+00 5.0000000000000000e-01 
5 2 4 5.1946898175408018e-01 -3.8646303352523766e+01 1.0000000000000000e+00 0.0000000000000000e+00 6.4000000000000004e+00 5.0000000000000000e-01 
17 2 4 4.5213279321655186e-01 -2.7498868549657850e+01 1.0000000000000000e+00 2.0000000000000000e+00 4.7999999999999998e+00 5.0000000000000000e-01 
18 2 4 1.0564926972237478e+00 -2.8743441789715767e+01 1.0000000000000000e+00 2.0000000000000000e+00 6.4000000000000004e+00 5.0000000000000000e-01 
30 2 4 3.1611543137873910e-01 -1.7411003818314462e+01 1.0000000000000000e+00 4.0000000000000000e+00 4.7999999999999998e+00 5.0000000000000000e-01 
31 2 4 5.1926354264787455e-01 -2.1440601140117998e+01 1.0000000000000000e+00 4.0000000000000000e+00 6.4000000000000004e+00 5.0000000000000000e-01 
43 2 4 4.5785919363850913e-01 -2.8436297518708432e+01 1.0000000000000000e+00 6.0000000000000000e+00 4.7999999999999998e+00 5.0000000000000000e-01 
44 2 4 3.0652756734683373e-01 -1.5603230648405779e+01 1.0000000000000000e+00 6.0000000000000000e+00 6.4000000000000004e+00 5.0000000000000000e-01 
656 2 1 1.0008074092988599e+00 -1.0564212633212156e+02 1.0000000000000000e+00 2.0002254676186744e+00 6.9827749566412116e+00 5.0027312616427910e-01 
531 2 1 9.9110032150459637e-01 -5.2466176045249853e+01 1.0000000000000000e+00 2.0019439675160693e+00 7.5232672948431398e+00 5.0105675900494351e-01 
530 2 1 1.0003024829692357e+00 -8.4916289517731570e+01 1.0000000000000000e+00 1.9982084287410113e+00 6.9777647057538630e+00 5.0006686786628740e-01 
514 2 1 9.9103156487764010e-01 -5.5766131529206305e+01 1.0000000000000000e+00 2.0005545601784047e+00 7.5237862311406776e+00 4.9958711752057072e-01 
528 2 1 9.9125111502630081e-01 -3.0003649149734034e+01 1.0000000000000000e+00 1.9981548211040692e+00 7.5221495932164322e+00 4.9943291904082221e-01 
505 2 1 1.0006145573437908e+00 -1.0493876819481285e+02 1.0000000000000000e+00 2.0015560849280738e+00 6.9808537473079788e+00 4.9997773464845796e-01 
443 2 1 1.0003294973991033e+00 -7.0445580419334590e+01 1.0000000000000000e+00 1.9974825721410436e+00 6.9780361200144929e+00 5.0018394290993651e-01 
6 2 4 5.2223691404994654e-01 -3.7554146359822170e+01 1.0000000000000000e+00 0.0000000000000000e+00 8.0000000000000000e+00 5.0000000000000000e-01 
7 2 4 3.1791866904700589e-01 -2.2457794855036273e+01 1.0000000000000000e+00 0.0000000000000000e+00 9.5999999999999996e+00 5.0000000000000000e-01 
19 2 4 1.0637275865161089e+00 -2.4459905785251088e+01 1.0000000000000000e+00 2.0000000000000000e+00 8.0000000000000000e+00 5.0000000000000000e-01 
20 2 4 4.5909690321061447e-01 -1.9558432642921087e+01 1.0000000000000000e+00 2.0000000000000000e+00 9.5999999999999996e+00 5.0000000000000000e-01 
45 2 4 3.0350897428804047e-01 -2.9829417362362303e+01 1.0000000000000000e+00 6.0000000000000000e+00 8.0000000000000000e+00 5.0000000000000000e-01 
46 2 4 4.2458237932569826e-01 -2.6440091752677176e+01 1.0000000000000000e+00 6.0000000000000000e+00 9.5999999999999996e+00 5.0000000000000000e-01 
32 2 4 5.2209269905069600e-01 -1.3820668285722142e+01 1.0000000000000000e+00 4.0000000000000000e+00 8.0000000000000000e+00 5.0000000000000000e-01 
33 2 4 3.1791614870715723e-01 -4.9549745984599749e+00 1.0000000000000000e+00 4.0000000000000000e+00 9.5999999999999996e+00 5.0000000000000000e-01 
8 2 4 2.9139988339419481e-01 -5.2057470089640869e+00 1.0000000000000000e+00 0.0000000000000000e+00 1.1199999999999999e+01 5.0000000000000000e-01 
9 2 4 2.9139988339419481e-01 -2.7184393918281744e+00 1.0000000000000000e+00 0.0000000000000000e+00 1.2800000000000001e+01 5.0000000000000000e-01 
21 2 4 2.9162702513660527e-01 4.4776929003292665e+00 1.0000000000000000e+00 2.0000000000000000e+00 1.1199999999999999e+01 5.0000000000000000e-01 
22 2 4 2.9139988339419481e-01 4.5993162435163661e+00 1.0000000000000000e+00 2.0000000000000000e+00 1.2800000000000001e+01 5.0000000000000000e-01 
34 2 4 2.9139988339419481e-01 -1.4939864141827541e-01 1.0000000000000000e+00 4.0000000000000000e+00 1.1199999999999999e+01 5.0000000000000000e-01 
35 2 4 2.9139988339419481e-01 -2.4015838955945417e+00 1.0000000000000000e+00 4.0000000000000000e+00 1.2800000000000001e+01 5.0000000000000000e-01 
47 2 4 4.2462601173990561e-01 -2.5731732425920921e+01 1.0000000000000000e+00 6.0000000000000000e+00 1.1199999999999999e+01 5.0000000000000000e-01 
48 2 4 3.0353065299217175e-01 3.2022086335107072e-02 1.0000000000000000e+00 6.0000000000000000e+00 1.2800000000000001e+01 5.0000000000000000e-01 
10 2 4 2.9139988339419487e-01 -1.0697746988539483e+00 1.0000000000000000e+00 0.0000000000000000e+00 1.4400000000000000e+01 5.0000000000000000e-01 
11 2 4 2.9139988339419481e-01 -1.5762466400361621e+00 1.0000000000000000e+00 0.0000000000000000e+00 1.6000000000000000e+01 5.0000000000000000e-01 
23 2 4 2.9139988339419487e-01 6.4413072772634363e+00 1.0000000000000000e+00 2.0000000000000000e+00 1.4400000000000000e+01 5.0000000000000000e-01 
24 2 4 2.9139988339419481e-01 5.9462283347362579e+00 1.0000000000000000e+00 2.0000000000000000e+00 1.6000000000000000e+01 5.0000000000000000e-01 
36 2 4 3.0672189736050409e-01 -6.0855943559745862e+00 1.0000000000000000e+00 4.0000000000000000e+00 1.4400000000000000e+01 5.0000000000000000e-01 
37 2 4 4.8504234786043787e-01 -8.7573828257027699e+00 1.0000000000000000e+00 4.0000000000000000e+00 1.6000000000000000e+01 5.0000000000000000e-01 
49 2 4 4.1042413075312256e-01 -1.5064025551073049e+01 1.0000000000000000e+00 6.0000000000000000e+00 1.4400000000000000e+01 5.0000000000000000e-01 
50 2 4 9.4430080051230614e-01 -2.4090871517518117e+01 1.0000000000000000e+00 6.0000000000000000e+00 1.6000000000000000e+01 5.0000000000000000e-01 
12 2 4 2.9139988339419487e-01 2.8154721137572009e-01 1.0000000000000000e+00 0.0000000000000000e+00 1.7600000000000001e+01 5.0000000000000000e-01 
13 2 4 2.8666455499559551e-01 -2.5857281593960826e+00 1.0000000000000000e+00 0.0000000000000000e+00 1.9199999999999999e+01 5.0000000000000000e-01 
25 2 4 2.9139988339419487e-01 7.4184719115183526e+00 1.0000000000000000e+00 2.0000000000000000e+00 1.7600000000000001e+01 5.0000000000000000e-01 
26 2 4 2.8666455499559551e-01 3.4570860337922236e+00 1.0000000000000000e+00 2.0000000000000000e+00 1.9199999999999999e+01 5.0000000000000000e-01 
542 2 1 8.9758882995540601e-01 -7.5413392140965072e+01 1.0000000000000000e+00 6.0009565541811734e+00 1.6854414964260179e+01 4.9978378946451513e-01 
372 2 1 8.9758883465697381e-01 -5.1137599172447864e+01 1.0000000000000000e+00 6.0007861293152702e+00 1.6854564339227419e+01 5.0029743028108475e-01 
302 2 1 8.9758830194350325e-01 -1.6103852116014316e+01 1.0000000000000000e+00 6.0005581206331069e+00 1.6855805001712319e+01 4.9989934904598388e-01 
356 2 1 8.9758795904166966e-01 -7.2813737864794390e+01 1.0000000000000000e+00 5.9983438415847763e+00 1.6853588496767760e+01 4.9921613382248881e-01 
192 2 1 8.9758769436935948e-01 -2.8076287152703532e+01 1.0000000000000000e+00 6.0007237517325613e+00 1.6851962267133601e+01 5.0135515524024932e-01 
519 2 1 8.9758870335551344e-01 -2.6466838679487790e+01 1.0000000000000000e+00 6.0007831926509674e+00 1.6853050541598254e+01 4.9968547104540589e-01 
52 2 4 4.3236361624295350e-01 -1.8882753468433236e+01 1.0000000000000000e+00 6.0000000000000000e+00 1.9199999999999999e+01 5.0000000000000000e-01 
39 2 4 3.0802171131729644e-01 2.2800097389673097e+00 1.0000000000000000e+00 4.0000000000000000e+00 1.9199999999999999e+01 5.0000000000000000e-01 
51 2 4 9.7430025724130931e-01 -3.9115490731235987e+01 1.0000000000000000e+00 6.0000000000000000e+00 1.7600000000000001e+01 5.0000000000000000e-01 
38 2 4 4.9717159922676923e-01 -7.6666763945621685e+00 1.0000000000000000e+00 4.0000000000000000e+00 1.7600000000000001e+01 5.0000000000000000e-01 
53 2 4 2.8666455499564630e-01 -9.5312873041164714e+00 1.0000000000000000e+00 8.0000000000000000e+00 0.0000000000000000e+00 5.0000000000000000e-01 
54 2 4 4.0150183186476551e-01 2.1883539292939536e+00 1.0000000000000000e+00 8.0000000000000000e+00 1.6000000000000001e+00 5.0000000000000000e-01 
55 2 4 8.4840879932096946e-01 -3.6288064841083106e+01 1.0000000000000000e+00 8.0000000000000000e+00 3.2000000000000002e+00 5.0000000000000000e-01 
66 2 4 2.8666455499559546e-01 -2.5459236170929437e+01 1.0000000000000000e+00 1.0000000000000000e+01 0.0000000000000000e+00 5.0000000000000000e-01 
67 2 4 3.0660997058108114e-01 -1.0376725180755224e+00 1.0000000000000000e+00 1.0000000000000000e+01 1.6000000000000001e+00 5.0000000000000000e-01 
68 2 4 4.5817977471207227e-01 -1.4601648003606899e+01 1.0000000000000000e+00 1.0000000000000000e+01 3.2000000000000002e+00 5.0000000000000000e-01 
79 2 4 2.8666455499559546e-01 -6.0015593345995137e+00 1.0000000000000000e+00 1.2000000000000000e+01 0.0000000000000000e+00 5.0000000000000000e-01 
80 2 4 2.9139988339419487e-01 1.6720661939151757e+01 1.0000000000000000e+00 1.2000000000000000e+01 1.6000000000000001e+00 5.0000000000000000e-01 
81 2 4 2.9139988339419487e-01 3.4040068503331962e+00 1.0000000000000000e+00 1.2000000000000000e+01 3.2000000000000002e+00 5.0000000000000000e-01 
504 2 1 7.6645133973874036e-01 -1.0731080437552994e+02 1.0000000000000000e+00 8.0021148467024137e+00 4.0000591793760840e+00 4.9988715780054205e-01 
465 2 1 7.6645173128944055e-01 -7.2550917192463402e+01 1.0000000000000000e+00 8.0000983570290582e+00 3.9994799413802955e+00 5.0044737511341753e-01 
650 2 1 7.6645101167499563e-01 -4.1559002467551007e+00 1.0000000000000000e+00 7.9983047135698531e+00 3.9997857989441301e+00 5.0009538637057460e-01 
740 2 1 7.6645152395539817e-01 -4.4161483726232035e+01 1.0000000000000000e+00 8.0011252653049549e+00 3.9984370926958004e+00 4.9949424344437965e-01 
456 2 1 7.6645174086629786e-01 -8.0051770481106828e+01 1.0000000000000000e+00 8.0008312499325758e+00 3.9998862579719558e+00 4.9947286253529566e-01 
56 2 4 8.4819051420019065e-01 -2.0999562681867875e+01 1.0000000000000000e+00 8.0000000000000000e+00 4.7999999999999998e+00 5.0000000000000000e-01 
57 2 4 4.0130780139580752e-01 2.6877372805075792e+00 1.0000000000000000e+00 8.0000000000000000e+00 6.4000000000000004e+00 5.0000000000000000e-01 
69 2 4 4.5809141386956836e-01 -9.2905489069241209e+00 1.0000000000000000e+00 1.0000000000000000e+01 4.7999999999999998e+00 5.0000000000000000e-01 
70 2 4 3.0656601336891348e-01 4.3575262071516665e+00 1.0000000000000000e+00 1.0000000000000000e+01 6.4000000000000004e+00 5.0000000000000000e-01 
82 2 4 2.9139988339419481e-01 -1.8854436827155052e+00 1.0000000000000000e+00 1.2000000000000000e+01 4.7999999999999998e+00 5.0000000000000000e-01 
83 2 4 2.9139988339419481e-01 1.6626501792350570e+01 1.0000000000000000e+00 1.2000000000000000e+01 6.4000000000000004e+00 5.0000000000000000e-01 
58 2 4 3.7935587319149178e-01 -2.4500164368093944e+01 1.0000000000000000e+00 8.0000000000000000e+00 8.0000000000000000e+00 5.0000000000000000e-01 
59 2 4 7.3686585075158306e-01 -8.2717619678106153e+00 1.0000000000000000e+00 8.0000000000000000e+00 9.5999999999999996e+00 5.0000000000000000e-01 
71 2 4 3.0353920165243470e-01 -1.1900932793607417e+01 1.0000000000000000e+00 1.0000000000000000e+01 8.0000000000000000e+00 5.0000000000000000e-01 
72 2 4 4.2476493969016993e-01 -2.2566264182433834e+01 1.0000000000000000e+00 1.0000000000000000e+01 9.5999999999999996e+00 5.0000000000000000e-01 
84 2 4 2.9139988339419487e-01 1.1726930323956708e+01 1.0000000000000000e+00 1.2000000000000000e+01 8.0000000000000000e+00 5.0000000000000000e-01 
85 2 4 2.9139988339419487e-01 -1.1970911355176066e+01 1.0000000000000000e+00 1.2000000000000000e+01 9.5999999999999996e+00 5.0000000000000000e-01 
60 2 4 7.3697380835648263e-01 -3.6113473010561428e+01 1.0000000000000000e+00 8.0000000000000000e+00 1.1199999999999999e+01 5.0000000000000000e-01 
61 2 4 3.7945183421008527e-01 -2.3512877495872672e+01 1.0000000000000000e+00 8.0000000000000000e+00 1.2800000000000001e+01 5.0000000000000000e-01 
319 2 1 6.3531579121506776e-01 -8.7335035770622724e+01 1.0000000000000000e+00 7.9997617751149175e+00 1.0400589814666340e+01 5.0025754163069547e-01 
201 2 1 6.3531566747920887e-01 -1.5549618709257192e+02 1.0000000000000000e+00 7.9997538773296561e+00 1.0399414688393028e+01 5.0054667469774872e-01 
189 2 1 6.3531566516543747e-01 -1.7628146134644135e+02 1.0000000000000000e+00 8.0017029121027718e+00 1.0400169622676932e+01 4.9973602531031203e-01 
565 2 1 6.3531579004209371e-01 -1.7602661892779143e+01 1.0000000000000000e+00 8.0007266776728674e+00 1.0400988901036570e+01 4.9973007073614789e-01 
73 2 4 4.2480865226734932e-01 -2.9807127162373860e+01 1.0000000000000000e+00 1.0000000000000000e+01 1.1199999999999999e+01 5.0000000000000000e-01 
74 2 4 3.0356095291541213e-01 -1.9610868441946575e-01 1.0000000000000000e+00 1.0000000000000000e+01 1.2800000000000001e+01 5.0000000000000000e-01 
86 2 4 2.9139988339419481e-01 -6.9640290924533756e+00 1.0000000000000000e+00 1.2000000000000000e+01 1.1199999999999999e+01 5.0000000000000000e-01 
87 2 4 2.9139988339419481e-01 8.6006397050865591e+00 1.0000000000000000e+00 1.2000000000000000e+01 1.2800000000000001e+01 5.0000000000000000e-01 
62 2 4 3.0675131612688927e-01 -2.1299251073169656e+00 1.0000000000000000e+00 8.0000000000000000e+00 1.4400000000000000e+01 5.0000000000000000e-01 
63 2 4 4.8523957283382674e-01 -1.5459499916014588e+01 1.0000000000000000e+00 8.0000000000000000e+00 1.6000000000000000e+01 5.0000000000000000e-01 
89 2 4 2.9139988339419481e-01 8.6427628893031141e+00 1.0000000000000000e+00 1.2000000000000000e+01 1.6000000000000000e+01 5.0000000000000000e-01 
75 2 4 2.9139988339419487e-01 1.2558575491524806e+01 1.0000000000000000e+00 1.0000000000000000e+01 1.4400000000000000e+01 5.0000000000000000e-01 
76 2 4 2.9139988339419481e-01 1.2403669784436243e+01 1.0000000000000000e+00 1.0000000000000000e+01 1.6000000000000000e+01 5.0000000000000000e-01 
88 2 4 2.9139988339419487e-01 1.3957208520799540e+01 1.0000000000000000e+00 1.2000000000000000e+01 1.4400000000000000e+01 5.0000000000000000e-01 
64 2 4 4.9737806068873824e-01 -2.7439631655638269e+01 1.0000000000000000e+00 8.0000000000000000e+00 1.7600000000000001e+01 5.0000000000000000e-01 
65 2 4 3.0805949186336673e-01 -1.0217306332928928e+01 1.0000000000000000e+00 8.0000000000000000e+00 1.9199999999999999e+01 5.0000000000000000e-01 
77 2 4 2.9139988339419487e-01 2.0326270042406755e+01 1.0000000000000000e+00 1.0000000000000000e+01 1.7600000000000001e+01 5.0000000000000000e-01 
78 2 4 2.8666455499559551e-01 7.4635962503745077e+00 1.0000000000000000e+00 1.0000000000000000e+01 1.9199999999999999e+01 5.0000000000000000e-01 
91 2 4 2.8666455499559551e-01 1.0082820364561012e+01 1.0000000000000000e+00 1.2000000000000000e+01 1.9199999999999999e+01 5.0000000000000000e-01 
90 2 4 2.9139988339419487e-01 1.1882140433141828e+01 1.0000000000000000e+00 1.2000000000000000e+01 1.7600000000000001e+01 5.0000000000000000e-01 
92 2 4 2.8666455499559546e-01 1.5900511817817653e+00 1.0000000000000000e+00 1.4000000000000000e+01 0.0000000000000000e+00 5.0000000000000000e-01 
93 2 4 3.0965525364822954e-01 7.1974701108321790e+00 1.0000000000000000e+00 1.4000000000000000e+01 1.6000000000000001e+00 5.0000000000000000e-01 
94 2 4 4.9141338662202011e-01 -8.9780950856952579e-01 1.0000000000000000e+00 1.4000000000000000e+01 3.2000000000000002e+00 5.0000000000000000e-01 
105 2 4 2.8666455499600535e-01 7.9420296868811411e+00 1.0000000000000000e+00 1.6000000000000000e+01 0.0000000000000000e+00 5.0000000000000000e-01 
106 2 4 4.2367819418209518e-01 4.1335593123254597e+00 1.0000000000000000e+00 1.6000000000000000e+01 1.6000000000000001e+00 5.0000000000000000e-01 
107 2 4 9.5998546956686037e-01 -7.6030437180614348e+00 1.0000000000000000e+00 1.6000000000000000e+01 3.2000000000000002e+00 5.0000000000000000e-01 
118 2 4 2.8666455499559546e-01 2.5569992457961371e-01 1.0000000000000000e+00 1.8000000000000000e+01 0.0000000000000000e+00 5.0000000000000000e-01 
119 2 4 3.0967317324578303e-01 1.9228334409475323e-01 1.0000000000000000e+00 1.8000000000000000e+01 1.6000000000000001e+00 5.0000000000000000e-01 
120 2 4 4.9152093342379455e-01 -1.0036213994050989e+01 1.0000000000000000e+00 1.8000000000000000e+01 3.2000000000000002e+00 5.0000000000000000e-01 
228 2 1 8.9758722007280456e-01 -7.2769953549320292e+01 1.0000000000000000e+00 1.6000588436176496e+01 3.9979542524787046e+00 4.9959196326883493e-01 
227 2 1 8.9758598093962572e-01 -6.1259070988606140e+01 1.0000000000000000e+00 1.5997438539320473e+01 3.9984242728398813e+00 5.0013494437687644e-01 
144 2 1 8.9758596970840854e-01 -5.3981279043430924e+01 1.0000000000000000e+00 1.6002374345170757e+01 3.9978276180600236e+00 5.0151018003869052e-01 
221 2 1 8.9758646192411540e-01 -4.9644921466526668e+01 1.0000000000000000e+00 1.6000105358351195e+01 4.0008432227251047e+00 4.9906171169492292e-01 
137 2 1 8.9758731412582349e-01 -9.6114460192842856e+01 1.0000000000000000e+00 1.6000718794407430e+01 3.9986355476100308e+00 5.0098773750384329e-01 
151 2 1 8.9758737114479192e-01 -2.0016844548602869e+01 1.0000000000000000e+00 1.5999918652821682e+01 3.9997163304478049e+00 5.0028581062575894e-01 
95 2 4 4.9116573584920165e-01 -9.2362105984073306e-01 1.0000000000000000e+00 1.4000000000000000e+01 4.7999999999999998e+00 5.0000000000000000e-01 
96 2 4 3.0953216913857545e-01 4.6054675081605394e+00 1.0000000000000000e+00 1.4000000000000000e+01 6.4000000000000004e+00 5.0000000000000000e-01 
108 2 4 9.5937297405109001e-01 -7.4315897010235972e+00 1.0000000000000000e+00 1.6000000000000000e+01 4.7999999999999998e+00 5.0000000000000000e-01 
109 2 4 4.2318099236417994e-01 -3.7630342191493344e+00 1.0000000000000000e+00 1.6000000000000000e+01 6.4000000000000004e+00 5.0000000000000000e-01 
121 2 4 4.9127302919297233e-01 -1.2845445189623009e+01 1.0000000000000000e+00 1.8000000000000000e+01 4.7999999999999998e+00 5.0000000000000000e-01 
122 2 4 3.0954985930772833e-01 -3.4628991987088722e+00 1.0000000000000000e+00 1.8000000000000000e+01 6.4000000000000004e+00 5.0000000000000000e-01 
97 2 4 3.1484737558076187e-01 9.7012711685996189e-01 1.0000000000000000e+00 1.4000000000000000e+01 8.0000000000000000e+00 5.0000000000000000e-01 
98 2 4 5.1691448110982330e-01 -4.3269905267855622e+00 1.0000000000000000e+00 1.4000000000000000e+01 9.5999999999999996e+00 5.0000000000000000e-01 
110 2 4 4.4673766910317370e-01 -5.6489192410648128e+00 1.0000000000000000e+00 1.6000000000000000e+01 8.0000000000000000e+00 5.0000000000000000e-01 
111 2 4 1.0506120796240410e+00 -1.5175481789429163e+01 1.0000000000000000e+00 1.6000000000000000e+01 9.5999999999999996e+00 5.0000000000000000e-01 
124 2 4 5.1711999753904314e-01 -1.5109602042310696e+01 1.0000000000000000e+00 1.8000000000000000e+01 9.5999999999999996e+00 5.0000000000000000e-01 
123 2 4 3.1489286448434500e-01 -4.3472309269332214e+00 1.0000000000000000e+00 1.8000000000000000e+01 8.0000000000000000e+00 5.0000000000000000e-01 
99 2 4 5.2443883184394258e-01 -7.4183924668802694e+00 1.0000000000000000e+00 1.4000000000000000e+01 1.1199999999999999e+01 5.0000000000000000e-01 
100 2 4 3.1915473345929657e-01 9.9527036589240758e+00 1.0000000000000000e+00 1.4000000000000000e+01 1.2800000000000001e+01 5.0000000000000000e-01 
112 2 4 1.0696475158243235e+00 -7.5990449271376157e+00 1.0000000000000000e+00 1.6000000000000000e+01 1.1199999999999999e+01 5.0000000000000000e-01 
113 2 4 4.6444213939958329e-01 -3.8886459655163517e+00 1.0000000000000000e+00 1.6000000000000000e+01 1.2800000000000001e+01 5.0000000000000000e-01 
291 2 1 1.0005834888152880e+00 -9.2333701972548511e+01 1.0000000000000000e+00 1.5998959613073080e+01 1.0197502866313883e+01 5.0073929732098876e-01 
430 2 1 1.0007753939210200e+00 -4.6854631339560207e+01 1.0000000000000000e+00 1.6003092890670356e+01 1.0199414588379746e+01 4.9955394210265341e-01 
262 2 1 1.0010079668021137e+00 -7.8675806283268969e+01 1.0000000000000000e+00 1.5999486511998176e+01 1.0201721126658331e+01 4.9945514395235818e-01 
501 2 1 9.9156048188388957e-01 -2.7504431006920914e+01 1.0000000000000000e+00 1.5999329032790707e+01 1.0740235347364534e+01 4.9979207952972055e-01 
578 2 1 1.0010543239180960e+00 -4.4549305356930212e+01 1.0000000000000000e+00 1.6000349603986784e+01 1.0202184757555619e+01 5.0063709029914805e-01 
354 2 1 9.9172780502401969e-01 -4.8940377910838940e+01 1.0000000000000000e+00 1.6001289577025354e+01 1.0738982469517927e+01 5.0021181660239622e-01 
611 2 1 9.9149037744900470e-01 -3.2004046061186855e+01 1.0000000000000000e+00 1.5999569091022595e+01 1.0740759792043445e+01 5.0023426896625889e-01 
125 2 4 5.2461946747064125e-01 -1.3782991195927828e+01 1.0000000000000000e+00 1.8000000000000000e+01 1.1199999999999999e+01 5.0000000000000000e-01 
126 2 4 3.1917767348127835e-01 -5.1074453887034243e+00 1.0000000000000000e+00 1.8000000000000000e+01 1.2800000000000001e+01 5.0000000000000000e-01 
101 2 4 2.9139988339419487e-01 1.1039407444145407e+01 1.0000000000000000e+00 1.4000000000000000e+01 1.4400000000000000e+01 5.0000000000000000e-01 
102 2 4 2.9139988339419481e-01 1.0056270144040356e+01 1.0000000000000000e+00 1.4000000000000000e+01 1.6000000000000000e+01 5.0000000000000000e-01 
114 2 4 2.9167604848269785e-01 3.3238482856098637e+00 1.0000000000000000e+00 1.6000000000000000e+01 1.4400000000000000e+01 5.0000000000000000e-01 
115 2 4 2.9139988339419481e-01 3.6574117171317422e+00 1.0000000000000000e+00 1.6000000000000000e+01 1.6000000000000000e+01 5.0000000000000000e-01 
127 2 4 2.9139988339419487e-01 -4.1611218478543446e+00 1.0000000000000000e+00 1.8000000000000000e+01 1.4400000000000000e+01 5.0000000000000000e-01 
128 2 4 2.9139988339419481e-01 -6.0261695327364828e+00 1.0000000000000000e+00 1.8000000000000000e+01 1.6000000000000000e+01 5.0000000000000000e-01 
104 2 4 2.8666455499559551e-01 9.1725431983482117e+00 1.0000000000000000e+00 1.4000000000000000e+01 1.9199999999999999e+01 5.0000000000000000e-01 
116 2 4 2.9139988339419487e-01 1.3248393064451605e+01 1.0000000000000000e+00 1.6000000000000000e+01 1.7600000000000001e+01 5.0000000000000000e-01 
117 2 4 2.8666455499559551e-01 1.5323076323671381e+00 1.0000000000000000e+00 1.6000000000000000e+01 1.9199999999999999e+01 5.0000000000000000e-01 
103 2 4 2.9139988339419487e-01 1.4599239774466518e+01 1.0000000000000000e+00 1.4000000000000000e+01 1.7600000000000001e+01 5.0000000000000000e-01 
130 2 4 2.8666455499559551e-01 -7.1895418300260303e+00 1.0000000000000000e+00 1.8000000000000000e+01 1.9199999999999999e+01 5.0000000000000000e-01 
129 2 4 2.9139988339419487e-01 -1.6923663147934260e+00 1.0000000000000000e+00 1.8000000000000000e+01 1.7600000000000001e+01 5.0000000000000000e-01 

Velocities

1 0.0000000000000000e+00 0.0000000000000000e+00 0.0000000000000000e+00
2 0.0000000000000000e+00 0.0000000000000000e+00 0.0000000000000000e+00
3 0.0000000000000000e+00 0.0000000000000000e+00 0.0000000000000000e+00
14 0.0000000000000000e+00 0.0000000000000000e+00 0.0000000000000000e+00
15 0.0000000000000000e+00 0.0000000000000000e+00 0.0000000000000000e+00
16 0.0000000000000000e+00 0.0000000000000000e+00 0.0000000000000000e+00
27 0.0000000000000000e+00 0.0000000000000000e+00 0.0000000000000000e+00
28 0.0000000000000000e+00 0.0000000000000000e+00 0.0000000000000000e+00
29 0.0000000000000000e+00 0.0000000000000000e+00 0.0000000000000000e+00
40 0.0000000000000000e+00 0.0000000000000000e+00 0.0000000000000000e+00
41 0.0000000000000000e+00 0.0000000000000000e+00 0.0000000000000000e+00
42 0.0000000000000000e+00 0.0000000000000000e+00 0.0000000000000000e+00
4 0.0000000000000000e+00 0.0000000000000000e+00 0.0000000000000000e+00
5 0.0000000000000000e+00 0.0000000000000000e+00 0.0000000000000000e+00
17 0.0000000000000000e+00 0.0000000000000000e+00 0.0000000000000000e+00
18 0.0000000000000000e+00 0.0000000000000000e+00 0.0000000000000000e+00
30 0.0000000000000000e+00 0.0000000000000000e+00 0.0000000000000000e+00
31 0.0000000000000000e+00 0.0000000000000000e+00 0.0000000000000000e+00
43 0.0000000000000000e+00 0.0000000000000000e+00 0.0000000000000000e+00
44 0.0000000000000000e+00 0.0000000000000000e+00 0.0000000000000000e+00
656 2.0940642311916484e-03 -1.0984801906267839e-03 -1.2626297233641270e-04
531 1.0880377999791496e-03 1.0927836320065211e-04 -9.1087864787355532e-04
530 1.8547697538746730e-03 -2.3902660613461355e-03 1.1768192364984120e-04
514 -3.7401074425493313e-03 -3.9993150906494359e-04 1.6288973956810680e-03
528 1.0243751719431177e-04 2.1405919003062430e-04 -2.7541224411136329e-03
505 -1.5764801982449106e-03 1.6511871194444484e-03 9.3545900212337860e-05
443 -1.9495811395873978e-03 2.1241986787209144e-03 -1.2738048090390648e-03
6 0.0000000000000000e+00 0.0000000000000000e+00 0.0000000000000000e+00
7 0.0000000000000000e+00 0.0000000000000000e+00 0.0000000000000000e+00
19 0.0000000000000000e+00 0.0000000000000000e+00 0.0000000000000000e+00
20 0.0000000000000000e+00 0.0000000000000000e+00 0.0000000000000000e+00
45 0.0000000000000000e+00 0.0000000000000000e+00 0.0000000000000000e+00
46 0.0000000000000000e+00 0.0000000000000000e+00 0.0000000000000000e+00
32 0.0000000000000000e+00 0.0000000000000000e+00 0.0000000000000000e+00
33 0.0000000000000000e+00 0.0000000000000000e+00 0.0000000000000000e+00
8 0.0000000000000000e+00 0.0000000000000000e+00 0.0000000000000000e+00
9 0.0000000000000000e+00 0.0000000000000000e+00 0.0000000000000000e+00
21 0.0000000000000000e+00 0.0000000000000000e+00 0.0000000000000000e+00
22 0.0000000000000000e+00 0.0000000000000000e+00 0.0000000000000000e+00
34 0.0000000000000000e+00 0.0000000000000000e+00 0.0000000000000000e+00
35 0.0000000000000000e+00 0.0000000000000000e+00 0.0000000000000000e+00
47 0.0000000000000000e+00 0.0000000000000000e+00 0.0000000000000000e+00
48 0.0000000000000000e+00 0.0000000000000000e+00 0.0000000000000000e+00
10 0.0000000000000000e+00 0.0000000000000000e+00 0.0000000000000000e+00
11 0.0000000000000000e+00 0.0000000000000000e+00 0.0000000000000000e+00
23 0.0000000000000000e+00 0.0000000000000000e+00 0.0000000000000000e+00
24 0.0000000000000000e+00 0.0000000000000000e+00 0.0000000000000000e+00
36 0.0000000000000000e+00 0.0000000000000000e+00 0.0000000000000000e+00
37 0.0000000000000000e+00 0.0000000000000000e+00 0.0000000000000000e+00
49 0.0000000000000000e+00 0.0000000000000000e+00 0.0000000000000000e+00
50 0.0000000000000000e+00 0.0000000000000000e+00 0.0000000000000000e+00
12 0.0000000000000000e+00 0.0000000000000000e+00 0.0000000000000000e+00
13 0.0000000000000000e+00 0.0000000000000000e+00 0.0000000000000000e+00
25 0.0000000000000000e+00 0.0000000000000000e+00 0.0000000000000000e+00
26 0.0000000000000000e+00 0.0000000000000000e+00 0.0000000000000000e+00
542 5.6724999037393784e-04 5.8069948127924586e-03 2.6060068686139847e-03
372 -7.1855982874184643e-04 -3.1780709368217715e-03 -2.1679012063623129e-03
302 -3.0140177529189073e-03 -2.7390446368665260e-04 -1.7236763962345716e-04
356 5.2880329502453336e-03 -2.2623102115797338e-03 -4.6293171059669366e-03
192 1.1345914681930177e-03 3.1158850979655728e-03 1.3446664738002107e-03
519 -4.6456179146587440e-03 -5.4292825465082004e-03 -1.7206352714636663e-03
52 0.0000000000000000e+00 0.0000000000000000e+00 0.0000000000000000e+00
39 0.0000000000000000e+00 0.0000000000000000e+00 0.0000000000000000e+00
51 0.0000000000000000e+00 0.0000000000000000e+00 0.0000000000000000e+00
38 0.0000000000000000e+00 0.0000000000000000e+00 0.0000000000000000e+00
53 0.0000000000000000e+00 0.0000000000000000e+00 0.0000000000000000e+00
54 0.0000000000000000e+00 0.0000000000000000e+00 0.0000000000000000e+00
55 0.0000000000000000e+00 0.0000000000000000e+00 0.0000000000000000e+00
66 0.0000000000000000e+00 0.0000000000000000e+00 0.0000000000000000e+00
67 0.0000000000000000e+00 0.0000000000000000e+00 0.0000000000000000e+00
68 0.0000000000000000e+00 0.0000000000000000e+00 0.0000000000000000e+00
79 0.0000000000000000e+00 0.0000000000000000e+00 0.0000000000000000e+00
80 0.0000000000000000e+00 0.0000000000000000e+00 0.0000000000000000e+00
81 0.0000000000000000e+00 0.0000000000000000e+00 0.0000000000000000e+00