LAMMPS data file via write_data, version 30 Jul 2016, timestep = 100000000

165 atoms
8 atom types

0.0000000000000000e+00 2.0000000000000000e+01 xlo xhi
0.0000000000000000e+00 2.0000000000000000e+01 ylo yhi
0.0000000000000000e+00 2.0000000000000000e+01 zlo zhi

Masses

1 3.896
2 5.36
3 20.064
4 1.047
5 1.047
6 1.047
7 1.047
8 1.047

Atoms # meso-molecular

1 2 4 2.8666455499559546e-01 -3.6584275305263972e+01 1.0000000000000000e+00 0.0000000000000000e+00 0.0000000000000000e+00 5.0000000000000000e-01 
2 2 4 2.9139988339419487e-01 -1.2498548968204222e+01 1.0000000000000000e+00 0.0000000000000000e+00 1.6000000000000001e+00 5.0000000000000000e-01 
3 2 4 2.9139988339419487e-01 -2.4239930509308650e+01 1.0000000000000000e+00 0.0000000000000000e+00 3.2000000000000002e+00 5.0000000000000000e-01 
14 2 4 2.8666455499559546e-01 -2.4252404619983984e+01 1.0000000000000000e+00 2.0000000000000000e+00 0.0000000000000000e+00 5.0000000000000000e-01 
15 2 4 2.9139988339419487e-01 1.1571658314439684e+01 1.0000000000000000e+00 2.0000000000000000e+00 1.6000000000000001e+00 5.0000000000000000e-01 
16 2 4 2.9146882276419961e-01 -4.4635017190472572e+00 1.0000000000000000e+00 2.0000000000000000e+00 3.2000000000000002e+00 5.0000000000000000e-01 
27 2 4 2.8666455499559546e-01 -1.4252156816117623e+01 1.0000000000000000e+00 4.0000000000000000e+00 0.0000000000000000e+00 5.0000000000000000e-01 
28 2 4 2.9139988339419487e-01 -1.2461796368559025e+01 1.0000000000000000e+00 4.0000000000000000e+00 1.6000000000000001e+00 5.0000000000000000e-01 
29 2 4 2.9139988339419487e-01 -1.1801968329218894e+01 1.0000000000000000e+00 4.0000000000000000e+00 3.2000000000000002e+00 5.0000000000000000e-01 
40 2 4 2.8666455499559546e-01 -9.9301405636659226e+00 1.0000000000000000e+00 6.0000000000000000e+00 0.0000000000000000e+00 5.0000000000000000e-01 
41 2 4 3.0652822196337182e-01 -1.8670695664131795e+01 1.0000000000000000e+00 6.0000000000000000e+00 1.6000000000000001e+00 5.0000000000000000e-01 
42 2 4 4.5786156961220853e-01 -4.1965244671310352e+01 1.0000000000000000e+00 6.0000000000000000e+00 3.2000000000000002e+00 5.0000000000000000e-01 
4 2 4 3.1614868812206459e-01 -3.4012844318908904e+01 1.0000000000000000e+00 0.0000000000000000e+00 4.7999999999999998e+00 5.0000000000000000e-01 
5 2 4 5.1945126053683099e-01 -3.8645933790139281e+01 1.0000000000000000e+00 0.0000000000000000e+00 6.4000000000000004e+00 5.0000000000000000e-01 
17 2 4 4.5213599383339842e-01 -2.7498963321678929e+01 1.0000000000000000e+00 2.0000000000000000e+00 4.7999999999999998e+00 5.0000000000000000e-01 
18 2 4 1.0564905608974107e+00 -2.8743439157257995e+01 1.0000000000000000e+00 2.0000000000000000e+00 6.4000000000000004e+00 5.0000000000000000e-01 
30 2 4 3.1614274826252103e-01 -1.7412892932475607e+01 1.0000000000000000e+00 4.0000000000000000e+00 4.7999999999999998e+00 5.0000000000000000e-01 
31 2 4 5.1927991498391113e-01 -2.1440932570655775e+01 1.0000000000000000e+00 4.0000000000000000e+00 6.4000000000000004e+00 5.0000000000000000e-01 
43 2 4 4.5794830655001123e-01 -2.8439995786623395e+01 1.0000000000000000e+00 6.0000000000000000e+00 4.7999999999999998e+00 5.0000000000000000e-01 
44 2 4 3.0657130522006854e-01 -1.5608025643274010e+01 1.0000000000000000e+00 6.0000000000000000e+00 6.4000000000000004e+00 5.0000000000000000e-01 
656 2 1 1.0002764429917193e+00 -1.0564215313350361e+02 1.0000000000000000e+00 2.0020270904068043e+00 6.9775548336226683e+00 5.0011685301107467e-01 
531 2 1 9.9113595593519954e-01 -5.2466044215438473e+01 1.0000000000000000e+00 1.9994580828291095e+00 7.5229778082836010e+00 5.0111142301832146e-01 
530 2 1 1.0003284397343764e+00 -8.4916241011354160e+01 1.0000000000000000e+00 2.0005657495170666e+00 6.9780552964176827e+00 5.0008235757533270e-01 
514 2 1 9.9122200728290266e-01 -5.5766205595849911e+01 1.0000000000000000e+00 2.0008073727478188e+00 7.5223366103744933e+00 5.0003357629559408e-01 
528 2 1 9.9099619691793617e-01 -3.0003541747470866e+01 1.0000000000000000e+00 1.9970361490600714e+00 7.5240047614694650e+00 4.9933946141447627e-01 
505 2 1 1.0006365333295568e+00 -1.0493869145037819e+02 1.0000000000000000e+00 2.0004166478240908e+00 6.9811060166513803e+00 5.0011828014969117e-01 
443 2 1 1.0007833164767119e+00 -7.0445456162891190e+01 1.0000000000000000e+00 1.9974047176355885e+00 6.9825844810872892e+00 5.0059750493833455e-01 
6 2 4 5.2228732569427760e-01 -3.7555433243107515e+01 1.0000000000000000e+00 0.0000000000000000e+00 8.0000000000000000e+00 5.0000000000000000e-01 
7 2 4 3.1795612227871650e-01 -2.2460417053794291e+01 1.0000000000000000e+00 0.0000000000000000e+00 9.5999999999999996e+00 5.0000000000000000e-01 
19 2 4 1.0637239481542784e+00 -2.4459908972006360e+01 1.0000000000000000e+00 2.0000000000000000e+00 8.0000000000000000e+00 5.0000000000000000e-01 
20 2 4 4.5909891954257143e-01 -1.9558490036905560e+01 1.0000000000000000e+00 2.0000000000000000e+00 9.5999999999999996e+00 5.0000000000000000e-01 
45 2 4 3.0352293852247736e-01 -2.9831089881755592e+01 1.0000000000000000e+00 6.0000000000000000e+00 8.0000000000000000e+00 5.0000000000000000e-01 
46 2 4 4.2470250937733539e-01 -2.6446427904272664e+01 1.0000000000000000e+00 6.0000000000000000e+00 9.5999999999999996e+00 5.0000000000000000e-01 
32 2 4 5.2203966966520410e-01 -1.3819313961351924e+01 1.0000000000000000e+00 4.0000000000000000e+00 8.0000000000000000e+00 5.0000000000000000e-01 
33 2 4 3.1788076915441110e-01 -4.9524778692099867e+00 1.0000000000000000e+00 4.0000000000000000e+00 9.5999999999999996e+00 5.0000000000000000e-01 
8 2 4 2.9139988339419481e-01 -5.2057470089640869e+00 1.0000000000000000e+00 0.0000000000000000e+00 1.1199999999999999e+01 5.0000000000000000e-01 
9 2 4 2.9139988339419481e-01 -2.7184393918281744e+00 1.0000000000000000e+00 0.0000000000000000e+00 1.2800000000000001e+01 5.0000000000000000e-01 
21 2 4 2.9162712906551874e-01 4.4776684893148984e+00 1.0000000000000000e+00 2.0000000000000000e+00 1.1199999999999999e+01 5.0000000000000000e-01 
22 2 4 2.9139988339419481e-01 4.5993162435163661e+00 1.0000000000000000e+00 2.0000000000000000e+00 1.2800000000000001e+01 5.0000000000000000e-01 
34 2 4 2.9139988339419481e-01 -1.4939864141827541e-01 1.0000000000000000e+00 4.0000000000000000e+00 1.1199999999999999e+01 5.0000000000000000e-01 
35 2 4 2.9139988339419481e-01 -2.4015838955945417e+00 1.0000000000000000e+00 4.0000000000000000e+00 1.2800000000000001e+01 5.0000000000000000e-01 
47 2 4 4.2478197515637672e-01 -2.5739956969872139e+01 1.0000000000000000e+00 6.0000000000000000e+00 1.1199999999999999e+01 5.0000000000000000e-01 
48 2 4 3.0356245709285939e-01 2.8215361742303591e-02 1.0000000000000000e+00 6.0000000000000000e+00 1.2800000000000001e+01 5.0000000000000000e-01 
10 2 4 2.9139988339419487e-01 -1.0697746988539483e+00 1.0000000000000000e+00 0.0000000000000000e+00 1.4400000000000000e+01 5.0000000000000000e-01 
11 2 4 2.9139988339419481e-01 -1.5762466400361621e+00 1.0000000000000000e+00 0.0000000000000000e+00 1.6000000000000000e+01 5.0000000000000000e-01 
23 2 4 2.9139988339419487e-01 6.4413072772634363e+00 1.0000000000000000e+00 2.0000000000000000e+00 1.4400000000000000e+01 5.0000000000000000e-01 
24 2 4 2.9139988339419481e-01 5.9462283347362579e+00 1.0000000000000000e+00 2.0000000000000000e+00 1.6000000000000000e+01 5.0000000000000000e-01 
36 2 4 3.0674538694166359e-01 -6.0880884783385687e+00 1.0000000000000000e+00 4.0000000000000000e+00 1.4400000000000000e+01 5.0000000000000000e-01 
37 2 4 4.8518858764858003e-01 -8.7622425271936688e+00 1.0000000000000000e+00 4.0000000000000000e+00 1.6000000000000000e+01 5.0000000000000000e-01 
49 2 4 4.1043590303460475e-01 -1.5064567766555198e+01 1.0000000000000000e+00 6.0000000000000000e+00 1.4400000000000000e+01 5.0000000000000000e-01 
50 2 4 9.4431541157522736e-01 -2.4091018400423902e+01 1.0000000000000000e+00 6.0000000000000000e+00 1.6000000000000000e+01 5.0000000000000000e-01 
12 2 4 2.9139988339419487e-01 2.8154721137572009e-01 1.0000000000000000e+00 0.0000000000000000e+00 1.7600000000000001e+01 5.0000000000000000e-01 
13 2 4 2.8666455499559551e-01 -2.5857281593960826e+00 1.0000000000000000e+00 0.0000000000000000e+00 1.9199999999999999e+01 5.0000000000000000e-01 
25 2 4 2.9139988339419487e-01 7.4184719115183526e+00 1.0000000000000000e+00 2.0000000000000000e+00 1.7600000000000001e+01 5.0000000000000000e-01 
26 2 4 2.8666455499559551e-01 3.4570860337922236e+00 1.0000000000000000e+00 2.0000000000000000e+00 1.9199999999999999e+01 5.0000000000000000e-01 
542 2 1 8.9758863252762877e-01 -7.5413385096675157e+01 1.0000000000000000e+00 6.0002940914517051e+00 1.6853328411640643e+01 5.0087181944914883e-01 
372 2 1 8.9758861896782283e-01 -5.1137587314948803e+01 1.0000000000000000e+00 6.0002866668680843e+00 1.6854875120774491e+01 5.0026322130534362e-01 
302 2 1 8.9758831115235882e-01 -1.6103855430067796e+01 1.0000000000000000e+00 6.0003693073025683e+00 1.6855481858959045e+01 5.0040242200698359e-01 
356 2 1 8.9758726264338085e-01 -7.2813688671636925e+01 1.0000000000000000e+00 5.9973526146081699e+00 1.6853865623669602e+01 4.9911523814193454e-01 
192 2 1 8.9758737382211717e-01 -2.8076269499179624e+01 1.0000000000000000e+00 6.0000196345534498e+00 1.6851623241849374e+01 5.0157909975001413e-01 
519 2 1 8.9758862786157767e-01 -2.6466831797257530e+01 1.0000000000000000e+00 6.0007681910682571e+00 1.6853909002979158e+01 4.9996665467851920e-01 
52 2 4 4.3235045230209351e-01 -1.8882209848317959e+01 1.0000000000000000e+00 6.0000000000000000e+00 1.9199999999999999e+01 5.0000000000000000e-01 
39 2 4 3.0804546419244855e-01 2.2776524064324866e+00 1.0000000000000000e+00 4.0000000000000000e+00 1.9199999999999999e+01 5.0000000000000000e-01 
51 2 4 9.7428684359588447e-01 -3.9115370331511400e+01 1.0000000000000000e+00 6.0000000000000000e+00 1.7600000000000001e+01 5.0000000000000000e-01 
38 2 4 4.9731304089737394e-01 -7.6711712521822886e+00 1.0000000000000000e+00 4.0000000000000000e+00 1.7600000000000001e+01 5.0000000000000000e-01 
53 2 4 2.8666455499559684e-01 -9.5312873009278576e+00 1.0000000000000000e+00 8.0000000000000000e+00 0.0000000000000000e+00 5.0000000000000000e-01 
54 2 4 4.0130940904414658e-01 2.1984429604271369e+00 1.0000000000000000e+00 8.0000000000000000e+00 1.6000000000000001e+00 5.0000000000000000e-01 
55 2 4 8.4819232667256805e-01 -3.6283666396307368e+01 1.0000000000000000e+00 8.0000000000000000e+00 3.2000000000000002e+00 5.0000000000000000e-01 
66 2 4 2.8666455499559546e-01 -2.5459236170929437e+01 1.0000000000000000e+00 1.0000000000000000e+01 0.0000000000000000e+00 5.0000000000000000e-01 
67 2 4 3.0656608668825602e-01 -1.0328664369679827e+00 1.0000000000000000e+00 1.0000000000000000e+01 1.6000000000000001e+00 5.0000000000000000e-01 
68 2 4 4.5809050323339040e-01 -1.4597946361184048e+01 1.0000000000000000e+00 1.0000000000000000e+01 3.2000000000000002e+00 5.0000000000000000e-01 
79 2 4 2.8666455499559546e-01 -6.0015593345995137e+00 1.0000000000000000e+00 1.2000000000000000e+01 0.0000000000000000e+00 5.0000000000000000e-01 
80 2 4 2.9139988339419487e-01 1.6720661939151757e+01 1.0000000000000000e+00 1.2000000000000000e+01 1.6000000000000001e+00 5.0000000000000000e-01 
81 2 4 2.9139988339419487e-01 3.4040068503331962e+00 1.0000000000000000e+00 1.2000000000000000e+01 3.2000000000000002e+00 5.0000000000000000e-01 
504 2 1 7.6645151423061497e-01 -1.0731082378618535e+02 1.0000000000000000e+00 8.0015649715784249e+00 4.0010589487348787e+00 4.9947046591887945e-01 
465 2 1 7.6645142485607931e-01 -7.2550885167819160e+01 1.0000000000000000e+00 7.9989509659552258e+00 4.0003649080101562e+00 5.0012007254390800e-01 
650 2 1 7.6645146931725738e-01 -4.1559507409149798e+00 1.0000000000000000e+00 7.9990633097566448e+00 4.0003707423435211e+00 4.9972985613512838e-01 
740 2 1 7.6645163502575686e-01 -4.4161498655574540e+01 1.0000000000000000e+00 8.0008016790101912e+00 3.9994725548337895e+00 5.0015831649558484e-01 
456 2 1 7.6645130781715665e-01 -8.0051718384132897e+01 1.0000000000000000e+00 8.0020590609618925e+00 4.0010457287026204e+00 5.0048775791515576e-01 
56 2 4 8.4840699484502380e-01 -2.1003961302567816e+01 1.0000000000000000e+00 8.0000000000000000e+00 4.7999999999999998e+00 5.0000000000000000e-01 
57 2 4 4.0150022595241674e-01 2.6776480891514698e+00 1.0000000000000000e+00 8.0000000000000000e+00 6.4000000000000004e+00 5.0000000000000000e-01 
69 2 4 4.5817745095213452e-01 -9.2941166010634451e+00 1.0000000000000000e+00 1.0000000000000000e+01 4.7999999999999998e+00 5.0000000000000000e-01 
70 2 4 3.0660936073661271e-01 4.3527787962243316e+00 1.0000000000000000e+00 1.0000000000000000e+01 6.4000000000000004e+00 5.0000000000000000e-01 
82 2 4 2.9139988339419481e-01 -1.8854436827155052e+00 1.0000000000000000e+00 1.2000000000000000e+01 4.7999999999999998e+00 5.0000000000000000e-01 
83 2 4 2.9139988339419481e-01 1.6626501792350570e+01 1.0000000000000000e+00 1.2000000000000000e+01 6.4000000000000004e+00 5.0000000000000000e-01 
58 2 4 3.7931659160395031e-01 -2.4497660989372942e+01 1.0000000000000000e+00 8.0000000000000000e+00 8.0000000000000000e+00 5.0000000000000000e-01 
59 2 4 7.3682164000448958e-01 -8.2703116838889841e+00 1.0000000000000000e+00 8.0000000000000000e+00 9.5999999999999996e+00 5.0000000000000000e-01 
71 2 4 3.0350745553305131e-01 -1.1897130865394917e+01 1.0000000000000000e+00 1.0000000000000000e+01 8.0000000000000000e+00 5.0000000000000000e-01 
72 2 4 4.2460900181598338e-01 -2.2558040456088957e+01 1.0000000000000000e+00 1.0000000000000000e+01 9.5999999999999996e+00 5.0000000000000000e-01 
84 2 4 2.9139988339419487e-01 1.1726930323956708e+01 1.0000000000000000e+00 1.2000000000000000e+01 8.0000000000000000e+00 5.0000000000000000e-01 
85 2 4 2.9139988339419487e-01 -1.1970911355176066e+01 1.0000000000000000e+00 1.2000000000000000e+01 9.5999999999999996e+00 5.0000000000000000e-01 
60 2 4 7.3701802675649275e-01 -3.6114923565654202e+01 1.0000000000000000e+00 8.0000000000000000e+00 1.1199999999999999e+01 5.0000000000000000e-01 
61 2 4 3.7949115856714410e-01 -2.3515381958705035e+01 1.0000000000000000e+00 8.0000000000000000e+00 1.2800000000000001e+01 5.0000000000000000e-01 
319 2 1 6.3531582419855626e-01 -8.7335040816723762e+01 1.0000000000000000e+00 7.9996333770265800e+00 1.0400860576940627e+01 5.0036487928556617e-01 
201 2 1 6.3531565514321842e-01 -1.5549618065627033e+02 1.0000000000000000e+00 7.9984986030480396e+00 1.0400322588384535e+01 4.9955768089674524e-01 
189 2 1 6.3531574655654366e-01 -1.7628147916065709e+02 1.0000000000000000e+00 8.0003792892354468e+00 1.0401231773772597e+01 4.9951803518895288e-01 
565 2 1 6.3531572026449079e-01 -1.7602652701352667e+01 1.0000000000000000e+00 8.0004922841090664e+00 1.0399700991381138e+01 4.9985936585514995e-01 
73 2 4 4.2468842957475694e-01 -2.9800788579420242e+01 1.0000000000000000e+00 1.0000000000000000e+01 1.1199999999999999e+01 5.0000000000000000e-01 
74 2 4 3.0354693969169444e-01 -1.9443204101834186e-01 1.0000000000000000e+00 1.0000000000000000e+01 1.2800000000000001e+01 5.0000000000000000e-01 
86 2 4 2.9139988339419481e-01 -6.9640290924533756e+00 1.0000000000000000e+00 1.2000000000000000e+01 1.1199999999999999e+01 5.0000000000000000e-01 
87 2 4 2.9139988339419481e-01 8.6006397050865591e+00 1.0000000000000000e+00 1.2000000000000000e+01 1.2800000000000001e+01 5.0000000000000000e-01 
62 2 4 3.0673292071562419e-01 -2.1279711848980005e+00 1.0000000000000000e+00 8.0000000000000000e+00 1.4400000000000000e+01 5.0000000000000000e-01 
63 2 4 4.8510518809982067e-01 -1.5455034837146162e+01 1.0000000000000000e+00 8.0000000000000000e+00 1.6000000000000000e+01 5.0000000000000000e-01 
89 2 4 2.9139988339419481e-01 8.6427628893031141e+00 1.0000000000000000e+00 1.2000000000000000e+01 1.6000000000000000e+01 5.0000000000000000e-01 
75 2 4 2.9139988339419487e-01 1.2558575491524806e+01 1.0000000000000000e+00 1.0000000000000000e+01 1.4400000000000000e+01 5.0000000000000000e-01 
76 2 4 2.9139988339419481e-01 1.2403669784436243e+01 1.0000000000000000e+00 1.0000000000000000e+01 1.6000000000000000e+01 5.0000000000000000e-01 
88 2 4 2.9139988339419487e-01 1.3957208520799540e+01 1.0000000000000000e+00 1.2000000000000000e+01 1.4400000000000000e+01 5.0000000000000000e-01 
64 2 4 4.9722581434654933e-01 -2.7434794333162344e+01 1.0000000000000000e+00 8.0000000000000000e+00 1.7600000000000001e+01 5.0000000000000000e-01 
65 2 4 3.0802953344246520e-01 -1.0214332531761238e+01 1.0000000000000000e+00 8.0000000000000000e+00 1.9199999999999999e+01 5.0000000000000000e-01 
77 2 4 2.9139988339419487e-01 2.0326270042406755e+01 1.0000000000000000e+00 1.0000000000000000e+01 1.7600000000000001e+01 5.0000000000000000e-01 
78 2 4 2.8666455499559551e-01 7.4635962503745077e+00 1.0000000000000000e+00 1.0000000000000000e+01 1.9199999999999999e+01 5.0000000000000000e-01 
91 2 4 2.8666455499559551e-01 1.0082820364561012e+01 1.0000000000000000e+00 1.2000000000000000e+01 1.9199999999999999e+01 5.0000000000000000e-01 
90 2 4 2.9139988339419487e-01 1.1882140433141828e+01 1.0000000000000000e+00 1.2000000000000000e+01 1.7600000000000001e+01 5.0000000000000000e-01 
92 2 4 2.8666455499559546e-01 1.5900511817817653e+00 1.0000000000000000e+00 1.4000000000000000e+01 0.0000000000000000e+00 5.0000000000000000e-01 
93 2 4 3.0969248085501183e-01 7.1937097753851944e+00 1.0000000000000000e+00 1.4000000000000000e+01 1.6000000000000001e+00 5.0000000000000000e-01 
94 2 4 4.9163321414688971e-01 -9.0494170424109421e-01 1.0000000000000000e+00 1.4000000000000000e+01 3.2000000000000002e+00 5.0000000000000000e-01 
105 2 4 2.8666455499610249e-01 7.9420296846814677e+00 1.0000000000000000e+00 1.6000000000000000e+01 0.0000000000000000e+00 5.0000000000000000e-01 
106 2 4 4.2368263914753368e-01 4.1333675287328440e+00 1.0000000000000000e+00 1.6000000000000000e+01 1.6000000000000001e+00 5.0000000000000000e-01 
107 2 4 9.5999053692501091e-01 -7.6030918420629927e+00 1.0000000000000000e+00 1.6000000000000000e+01 3.2000000000000002e+00 5.0000000000000000e-01 
118 2 4 2.8666455499559546e-01 2.5569992457961371e-01 1.0000000000000000e+00 1.8000000000000000e+01 0.0000000000000000e+00 5.0000000000000000e-01 
119 2 4 3.0963793230920283e-01 1.9584255621547084e-01 1.0000000000000000e+00 1.8000000000000000e+01 1.6000000000000001e+00 5.0000000000000000e-01 
120 2 4 4.9130512512932190e-01 -1.0029209642065815e+01 1.0000000000000000e+00 1.8000000000000000e+01 3.2000000000000002e+00 5.0000000000000000e-01 
228 2 1 8.9758750571322099e-01 -7.2769971290997546e+01 1.0000000000000000e+00 1.5999614999543839e+01 3.9980729006740012e+00 4.9961948037004961e-01 
227 2 1 8.9758645465079645e-01 -6.1259084752778968e+01 1.0000000000000000e+00 1.5997041770241193e+01 3.9984212727055564e+00 5.0060986498774762e-01 
144 2 1 8.9758700314887785e-01 -5.3981351765654736e+01 1.0000000000000000e+00 1.6000457351671290e+01 3.9975220557438909e+00 5.0071786319062850e-01 
221 2 1 8.9758725738971890e-01 -4.9644967178030136e+01 1.0000000000000000e+00 1.5999735544527727e+01 4.0003010938601813e+00 5.0024308560803032e-01 
137 2 1 8.9758690120107598e-01 -9.6114444406126623e+01 1.0000000000000000e+00 1.6000882611050297e+01 4.0001840667000925e+00 5.0038110008896197e-01 
151 2 1 8.9758720604742193e-01 -2.0016829385054390e+01 1.0000000000000000e+00 1.5998775169370308e+01 3.9987927093534994e+00 4.9874018952635013e-01 
95 2 4 4.9138118225201699e-01 -9.3061776646709515e-01 1.0000000000000000e+00 1.4000000000000000e+01 4.7999999999999998e+00 5.0000000000000000e-01 
96 2 4 3.0956707192792177e-01 4.6019317218554656e+00 1.0000000000000000e+00 1.4000000000000000e+01 6.4000000000000004e+00 5.0000000000000000e-01 
108 2 4 9.5936809722869609e-01 -7.4315432312552510e+00 1.0000000000000000e+00 1.6000000000000000e+01 4.7999999999999998e+00 5.0000000000000000e-01 
109 2 4 4.2317570182316494e-01 -3.7626888650281716e+00 1.0000000000000000e+00 1.6000000000000000e+01 6.4000000000000004e+00 5.0000000000000000e-01 
121 2 4 4.9105355645240351e-01 -1.2838315088385507e+01 1.0000000000000000e+00 1.8000000000000000e+01 4.7999999999999998e+00 5.0000000000000000e-01 
122 2 4 3.0951294266993901e-01 -3.4591598397558498e+00 1.0000000000000000e+00 1.8000000000000000e+01 6.4000000000000004e+00 5.0000000000000000e-01 
97 2 4 3.1480078938103540e-01 9.7450289605001028e-01 1.0000000000000000e+00 1.4000000000000000e+01 8.0000000000000000e+00 5.0000000000000000e-01 
98 2 4 5.1684425758634578e-01 -4.3251647101683099e+00 1.0000000000000000e+00 1.4000000000000000e+01 9.5999999999999996e+00 5.0000000000000000e-01 
110 2 4 4.4646999134466653e-01 -5.6393571380230441e+00 1.0000000000000000e+00 1.6000000000000000e+01 8.0000000000000000e+00 5.0000000000000000e-01 
111 2 4 1.0503033212980171e+00 -1.5175358378068305e+01 1.0000000000000000e+00 1.6000000000000000e+01 9.5999999999999996e+00 5.0000000000000000e-01 
124 2 4 5.1694441624059217e-01 -1.5104999004206563e+01 1.0000000000000000e+00 1.8000000000000000e+01 9.5999999999999996e+00 5.0000000000000000e-01 
123 2 4 3.1481585046751315e-01 -4.3403680309865624e+00 1.0000000000000000e+00 1.8000000000000000e+01 8.0000000000000000e+00 5.0000000000000000e-01 
99 2 4 5.2459174556970167e-01 -7.4223020104046533e+00 1.0000000000000000e+00 1.4000000000000000e+01 1.1199999999999999e+01 5.0000000000000000e-01 
100 2 4 3.1922145680598923e-01 9.9467263088034663e+00 1.0000000000000000e+00 1.4000000000000000e+01 1.2800000000000001e+01 5.0000000000000000e-01 
112 2 4 1.0699410668665721e+00 -7.5988254762900302e+00 1.0000000000000000e+00 1.6000000000000000e+01 1.1199999999999999e+01 5.0000000000000000e-01 
113 2 4 4.6472311588209314e-01 -3.8979146999384331e+00 1.0000000000000000e+00 1.6000000000000000e+01 1.2800000000000001e+01 5.0000000000000000e-01 
291 2 1 1.0010412844668064e+00 -9.2332436300053487e+01 1.0000000000000000e+00 1.5999271652767320e+01 1.0203006239276151e+01 5.0094622313535797e-01 
430 2 1 1.0008259464738378e+00 -4.6853400050216571e+01 1.0000000000000000e+00 1.5999778739394559e+01 1.0200849694107843e+01 5.0038915675429274e-01 
262 2 1 1.0009854407095187e+00 -7.8674544289760306e+01 1.0000000000000000e+00 1.6002829946142604e+01 1.0202458195861190e+01 4.9998686705538453e-01 
501 2 1 9.9168974888841210e-01 -2.7506092613743750e+01 1.0000000000000000e+00 1.5999490493896280e+01 1.0740248487302042e+01 4.9995939222711328e-01 
578 2 1 1.0005797673161234e+00 -4.4548091188911208e+01 1.0000000000000000e+00 1.5998615907746267e+01 1.0198417814311815e+01 4.9938031207277322e-01 
354 2 1 9.9153993202779778e-01 -4.8942106631161934e+01 1.0000000000000000e+00 1.6001444209209950e+01 1.0741367584522248e+01 5.0004452840722824e-01 
611 2 1 9.9156151959745298e-01 -3.2005791455709158e+01 1.0000000000000000e+00 1.5999707007799413e+01 1.0741208336044021e+01 5.0041379342693715e-01 
125 2 4 5.2470169427512992e-01 -1.3785026555052633e+01 1.0000000000000000e+00 1.8000000000000000e+01 1.1199999999999999e+01 5.0000000000000000e-01 
126 2 4 3.1924545838142004e-01 -5.1131659425718574e+00 1.0000000000000000e+00 1.8000000000000000e+01 1.2800000000000001e+01 5.0000000000000000e-01 
101 2 4 2.9139988339419487e-01 1.1039407444145407e+01 1.0000000000000000e+00 1.4000000000000000e+01 1.4400000000000000e+01 5.0000000000000000e-01 
102 2 4 2.9139988339419481e-01 1.0056270144040356e+01 1.0000000000000000e+00 1.4000000000000000e+01 1.6000000000000000e+01 5.0000000000000000e-01 
114 2 4 2.9167900200019664e-01 3.3231859729890134e+00 1.0000000000000000e+00 1.6000000000000000e+01 1.4400000000000000e+01 5.0000000000000000e-01 
115 2 4 2.9139988339419481e-01 3.6574117171317422e+00 1.0000000000000000e+00 1.6000000000000000e+01 1.6000000000000000e+01 5.0000000000000000e-01 
127 2 4 2.9139988339419487e-01 -4.1611218478543446e+00 1.0000000000000000e+00 1.8000000000000000e+01 1.4400000000000000e+01 5.0000000000000000e-01 
128 2 4 2.9139988339419481e-01 -6.0261695327364828e+00 1.0000000000000000e+00 1.8000000000000000e+01 1.6000000000000000e+01 5.0000000000000000e-01 
104 2 4 2.8666455499559551e-01 9.1725431983482117e+00 1.0000000000000000e+00 1.4000000000000000e+01 1.9199999999999999e+01 5.0000000000000000e-01 
116 2 4 2.9139988339419487e-01 1.3248393064451605e+01 1.0000000000000000e+00 1.6000000000000000e+01 1.7600000000000001e+01 5.0000000000000000e-01 
117 2 4 2.8666455499559551e-01 1.5323076323671381e+00 1.0000000000000000e+00 1.6000000000000000e+01 1.9199999999999999e+01 5.0000000000000000e-01 
103 2 4 2.9139988339419487e-01 1.4599239774466518e+01 1.0000000000000000e+00 1.4000000000000000e+01 1.7600000000000001e+01 5.0000000000000000e-01 
130 2 4 2.8666455499559551e-01 -7.1895418300260303e+00 1.0000000000000000e+00 1.8000000000000000e+01 1.9199999999999999e+01 5.0000000000000000e-01 
129 2 4 2.9139988339419487e-01 -1.6923663147934260e+00 1.0000000000000000e+00 1.8000000000000000e+01 1.7600000000000001e+01 5.0000000000000000e-01 

Velocities

1 0.0000000000000000e+00 0.0000000000000000e+00 0.0000000000000000e+00
2 0.0000000000000000e+00 0.0000000000000000e+00 0.0000000000000000e+00
3 0.0000000000000000e+00 0.0000000000000000e+00 0.0000000000000000e+00
14 0.0000000000000000e+00 0.0000000000000000e+00 0.0000000000000000e+00
15 0.0000000000000000e+00 0.0000000000000000e+00 0.0000000000000000e+00
16 0.0000000000000000e+00 0.0000000000000000e+00 0.0000000000000000e+00
27 0.0000000000000000e+00 0.0000000000000000e+00 0.0000000000000000e+00
28 0.0000000000000000e+00 0.0000000000000000e+00 0.0000000000000000e+00
29 0.0000000000000000e+00 0.0000000000000000e+00 0.0000000000000000e+00
40 0.0000000000000000e+00 0.0000000000000000e+00 0.0000000000000000e+00
41 0.0000000000000000e+00 0.0000000000000000e+00 0.0000000000000000e+00
42 0.0000000000000000e+00 0.0000000000000000e+00 0.0000000000000000e+00
4 0.0000000000000000e+00 0.0000000000000000e+00 0.0000000000000000e+00
5 0.0000000000000000e+00 0.0000000000000000e+00 0.0000000000000000e+00
17 0.0000000000000000e+00 0.0000000000000000e+00 0.0000000000000000e+00
18 0.0000000000000000e+00 0.0000000000000000e+00 0.0000000000000000e+00
30 0.0000000000000000e+00 0.0000000000000000e+00 0.0000000000000000e+00
31 0.0000000000000000e+00 0.0000000000000000e+00 0.0000000000000000e+00
43 0.0000000000000000e+00 0.0000000000000000e+00 0.0000000000000000e+00
44 0.0000000000000000e+00 0.0000000000000000e+00 0.0000000000000000e+00
656 1.0124687950773773e-03 -1.9041750397958187e-03 7.9678780616153062e-04
531 2.5414158209190519e-03 -5.2299561053857440e-04 -9.6717437287128854e-04
530 2.5167418170866599e-03 2.8068302960447345e-03 2.4530916161555170e-04
514 -2.2976540891064224e-03 -4.0412063394034493e-04 2.5945395174005966e-03
528 -1.2933965587110532e-03 8.1085665698246432e-05 -1.4456550642353210e-03
505 -2.4479415457017992e-03 -1.2659139431374490e-03 4.6987208248451201e-05
443 6.8303959512007971e-04 9.1306354443444532e-04 9.2747841409469975e-04
6 0.0000000000000000e+00 0.0000000000000000e+00 0.0000000000000000e+00
7 0.0000000000000000e+00 0.0000000000000000e+00 0.0000000000000000e+00
19 0.0000000000000000e+00 0.0000000000000000e+00 0.0000000000000000e+00
20 0.0000000000000000e+00 0.0000000000000000e+00 0.0000000000000000e+00
45 0.0000000000000000e+00 0.0000000000000000e+00 0.0000000000000000e+00
46 0.0000000000000000e+00 0.0000000000000000e+00 0.0000000000000000e+00
32 0.0000000000000000e+00 0.0000000000000000e+00 0.0000000000000000e+00
33 0.0000000000000000e+00 0.0000000000000000e+00 0.0000000000000000e+00
8 0.0000000000000000e+00 0.0000000000000000e+00 0.0000000000000000e+00
9 0.0000000000000000e+00 0.0000000000000000e+00 0.0000000000000000e+00
21 0.0000000000000000e+00 0.0000000000000000e+00 0.0000000000000000e+00
22 0.0000000000000000e+00 0.0000000000000000e+00 0.0000000000000000e+00
34 0.0000000000000000e+00 0.0000000000000000e+00 0.0000000000000000e+00
35 0.0000000000000000e+00 0.0000000000000000e+00 0.0000000000000000e+00
47 0.0000000000000000e+00 0.0000000000000000e+00 0.0000000000000000e+00
48 0.0000000000000000e+00 0.0000000000000000e+00 0.0000000000000000e+00
10 0.0000000000000000e+00 0.0000000000000000e+00 0.0000000000000000e+00
11 0.0000000000000000e+00 0.0000000000000000e+00 0.0000000000000000e+00
23 0.0000000000000000e+00 0.0000000000000000e+00 0.0000000000000000e+00
24 0.0000000000000000e+00 0.0000000000000000e+00 0.0000000000000000e+00
36 0.0000000000000000e+00 0.0000000000000000e+00 0.0000000000000000e+00
37 0.0000000000000000e+00 0.0000000000000000e+00 0.0000000000000000e+00
49 0.0000000000000000e+00 0.0000000000000000e+00 0.0000000000000000e+00
50 0.0000000000000000e+00 0.0000000000000000e+00 0.0000000000000000e+00
12 0.0000000000000000e+00 0.0000000000000000e+00 0.0000000000000000e+00
13 0.0000000000000000e+00 0.0000000000000000e+00 0.0000000000000000e+00
25 0.0000000000000000e+00 0.0000000000000000e+00 0.0000000000000000e+00
26 0.0000000000000000e+00 0.0000000000000000e+00 0.0000000000000000e+00
542 1.9710199432456592e-03 5.6859739331874349e-03 3.1220798482446293e-03
372 5.8732052122157752e-04 -1.8341322776437921e-03 -1.4111424788875197e-03
302 -1.8482783005170033e-03 2.5956902032080579e-03 1.0872689658919705e-03
356 3.0640470852981412e-03 -2.6224531578774974e-03 6.5644781338235062e-04
192 2.1840251778684691e-03 -4.1346176213269696e-04 -2.7443899076791379e-03
519 -3.0385562488045542e-03 -6.2318951390834213e-03 8.3596926616585042e-04
52 0.0000000000000000e+00 0.0000000000000000e+00 0.0000000000000000e+00
39 0.0000000000000000e+00 0.0000000000000000e+00 0.0000000000000000e+00
51 0.0000000000000000e+00 0.0000000000000000e+00 0.0000000000000000e+00
38 0.0000000000000000e+00 0.0000000000000000e+00 0.0000000000000000e+00
53 0.0000000000000000e+00 0.0000000000000000e+00 0.0000000000000000e+00
54 0.0000000000000000e+00 0.0000000000000000e+00 0.0000000000000000e+00
55 0.0000000000000000e+00 0.0000000000000000e+00 0.0000000000000000e+00
66 0.0000000000000000e+00 0.0000000000000000e+00 0.0000000000000000e+00
67 0.0000000000000000e+00 0.0000000000000000e+00 0.0000000000000000e+00
68 0.0000000000000000e+00 0.0000000000000000e+00 0.0000000000000000e+00
79 0.0000000000000000e+00 0.0000000000000000e+00 0.0000000000000000e+00
80 0.0000000000000000e+00 0.0000000000000000e+00 0.0000000000000000e+00
81 0.0000000000000000e+00 0.0000000000000000e+00 0.0000000000000000e+00