LAMMPS data file via write_data, version 30 Jul 2016, timestep = 50400000

644 atoms
2 atom types

0.0000000000000000e+00 2.0000000000000000e+01 xlo xhi
0.0000000000000000e+00 2.0000000000000000e+01 ylo yhi
0.0000000000000000e+00 2.0000000000000000e+01 zlo zhi

Masses

1 5
2 3.896

Atoms # meso-molecular

644 0 1 1.0366269755999014e+00 -5.7330059149694769e+01 1.0000000000000000e+00 5.9302447902411854e+00 2.1061108737008047e+00 1.5987124283226974e+00 
243 0 1 1.0249598496029342e+00 -2.6165052273828838e+01 1.0000000000000000e+00 6.2637841418836384e+00 1.6764545041283434e+00 1.2821574871576720e+00 
563 0 1 1.0009037908206502e+00 -3.0955915989527107e+00 1.0000000000000000e+00 4.6381710400991896e+00 2.3354752753067416e+00 1.3576835079813945e+00 
311 0 1 1.0528765815259293e+00 7.0831006156740450e+00 1.0000000000000000e+00 6.2930629627676629e+00 1.9586135837494940e+00 1.9050476004616956e+00 
82 0 1 1.0295811734472613e+00 -3.5993474327375289e+01 1.0000000000000000e+00 3.9018999105224275e+00 3.0703020462658430e+00 1.2258143427151111e+00 
349 0 1 9.8685470101223893e-01 -3.0941369674002260e+01 1.0000000000000000e+00 5.8137384746638459e+00 2.9670414349209446e+00 3.2350743738954475e+00 
513 0 1 1.0241315530558315e+00 -3.1644241365993985e+01 1.0000000000000000e+00 3.7819586217102250e+00 3.4906969359170295e+00 1.5571134366088091e+00 
447 0 1 1.0394986669534392e+00 -3.6222832446493953e+01 1.0000000000000000e+00 4.8043892686794445e+00 3.8727988542944218e+00 4.6455802816859904e-01 
158 0 1 1.0290856017403907e+00 -2.5943685517851712e+01 1.0000000000000000e+00 3.7971009219525018e+00 3.6554869850908727e+00 1.5177215127589607e+00 
553 0 1 1.0239151085026896e+00 -6.2768005617192017e+01 1.0000000000000000e+00 4.3478381946403726e+00 4.3433853631234838e+00 8.1699129831302386e-01 
504 0 1 1.0407415165358229e+00 -4.0495855879707477e+01 1.0000000000000000e+00 4.8393993033567559e+00 3.8727765167108545e+00 4.7168527033839969e-01 
526 0 1 1.0169997125179977e+00 -3.8533995670141543e+01 1.0000000000000000e+00 5.5675729183098790e+00 5.9228765977649251e+00 2.4265113822836666e+00 
635 0 1 1.0433844237354013e+00 -2.6070308302309805e+01 1.0000000000000000e+00 5.3584988129226412e+00 4.6367068341429478e+00 1.0282060539258058e+00 
177 0 1 1.0415983566983686e+00 -3.8416872837021529e+01 1.0000000000000000e+00 5.8340420981973438e+00 5.2690473436788752e+00 2.8344545789941411e+00 
610 0 1 1.0346685514620868e+00 -7.9440975464477418e+01 1.0000000000000000e+00 6.1408598449760818e+00 9.3138647503956982e+00 2.7080802532436361e+00 
12 0 1 9.8870931865028622e-01 -2.6744051061440100e+01 1.0000000000000000e+00 5.6223723128186114e+00 7.5203186212791939e+00 2.7966549386484467e+00 
451 0 1 1.0029506392674976e+00 -1.3199950651357998e+01 1.0000000000000000e+00 5.6632537231671956e+00 7.7768585694440553e+00 2.9030927762999852e+00 
514 0 1 1.0764372730733147e+00 -1.1401381165705915e+01 1.0000000000000000e+00 6.5393023728892858e+00 9.5110217844883316e+00 2.7352614648706854e+00 
73 0 1 1.0317780804046841e+00 -2.2152419785295180e+01 1.0000000000000000e+00 3.5202004373511593e+00 2.8432086468781632e+00 4.7199954382980636e+00 
47 0 1 1.0179563734567298e+00 -1.9310097300148183e+01 1.0000000000000000e+00 4.1194610066607469e+00 2.4783322807907981e+00 4.1850531676156706e+00 
459 0 1 1.0433377691623149e+00 -1.5919502477494046e+01 1.0000000000000000e+00 4.4021473576457035e+00 2.2141256246200345e+00 4.4911092072790746e+00 
163 0 1 9.8794278831604865e-01 -3.1478412909144950e+01 1.0000000000000000e+00 4.9362821254531362e+00 1.4351839470008445e+00 5.2328760522548663e+00 
555 0 1 1.0654331237190062e+00 -3.2092069278410790e+01 1.0000000000000000e+00 3.9965464867729810e+00 2.7838993207868992e+00 4.3045695966876476e+00 
46 0 1 1.0249282654429324e+00 -3.2822892112817335e+01 1.0000000000000000e+00 5.5455944675040616e+00 1.9158776341922488e+00 5.9623960107844649e+00 
564 0 1 1.0007220570766637e+00 -2.8781561378346680e+01 1.0000000000000000e+00 5.3768133802606473e+00 1.5925734242370000e+00 6.2786683267520784e+00 
257 0 1 1.0341405593875936e+00 3.8403333455064774e+00 1.0000000000000000e+00 6.4220945767270727e+00 9.9836723102079628e-01 6.1470311996758733e+00 
226 0 1 1.0770335418589585e+00 -4.9271843667482651e+00 1.0000000000000000e+00 2.8258915066836066e+00 3.9673000257689628e+00 6.0916767232542490e+00 
348 0 1 1.0107871647996562e+00 -1.4220452304652442e+01 1.0000000000000000e+00 2.6445187179325793e+00 4.0363803145124688e+00 6.1055738006724152e+00 
385 0 1 9.7452637057182023e-01 -1.5634879574039912e+01 1.0000000000000000e+00 2.8907313779786175e+00 4.3543102841587586e+00 5.2474309156038981e+00 
268 0 1 1.0484019183369884e+00 -7.1692090424780028e+00 1.0000000000000000e+00 3.0369783594933981e+00 5.2012123745918881e+00 6.3923929559068631e+00 
429 0 1 9.9452632955859566e-01 -3.5065877718514308e+01 1.0000000000000000e+00 4.2669918973147682e+00 4.1528078695789441e+00 4.1004760170486856e+00 
13 0 1 1.0306024720133546e+00 -2.9303543428421527e+01 1.0000000000000000e+00 4.4267208310522888e+00 5.1403417990901668e+00 4.8410384346447719e+00 
380 0 1 1.0246237229694464e+00 -2.9373545032737994e+01 1.0000000000000000e+00 5.6081646874681681e+00 5.3405201155533124e+00 3.5857942934589930e+00 
601 0 1 1.0231857878471691e+00 -3.8635993249002105e+01 1.0000000000000000e+00 6.4952755020297612e+00 5.7467446343402377e+00 5.0236088991582957e+00 
557 0 1 1.0286986734920456e+00 -2.8871019792433572e+01 1.0000000000000000e+00 5.1583868328732621e+00 5.5950203703694115e+00 6.3015714538347378e+00 
181 0 1 9.8953394366671998e-01 -3.3304156177109661e+01 1.0000000000000000e+00 4.6700920186820980e+00 4.0225224350585824e+00 6.4302527921092514e+00 
221 0 1 1.0821175633933762e+00 -1.8926759909907975e+01 1.0000000000000000e+00 4.7172917161749037e+00 6.1091704418202282e+00 6.4144815978827614e+00 
414 0 1 1.0527747322520360e+00 -2.5094283686931856e+01 1.0000000000000000e+00 5.7626665854842756e+00 7.1290693944361418e+00 4.6696986498522897e+00 
490 0 1 1.0227997355053704e+00 -3.4428186809479165e+01 1.0000000000000000e+00 4.7702824803167543e+00 7.4214301037808950e+00 5.1123801193978933e+00 
171 0 1 1.0560627001957767e+00 -2.1150541769297050e+01 1.0000000000000000e+00 5.9799516338219521e+00 8.2904627338330616e+00 4.3215438158539925e+00 
548 0 1 1.0294312806979478e+00 -2.6790713131464827e+01 1.0000000000000000e+00 4.1244759968234108e+00 8.4057893229712750e+00 5.9974693683106226e+00 
509 0 1 9.8894901540959024e-01 -2.6810712296025361e+01 1.0000000000000000e+00 4.0796981116593356e+00 7.6298817751425148e+00 5.7016791243074616e+00 
61 0 1 1.0078978734168738e+00 -2.7331993761105728e+01 1.0000000000000000e+00 6.2652084076017678e+00 9.3381426479749798e+00 6.1339612761801625e+00 
238 0 1 1.0160245594051562e+00 -3.0769815332587978e+01 1.0000000000000000e+00 4.1203367729112852e+00 7.8441096360933269e+00 6.4269028843279807e+00 
74 0 1 1.0233333934408246e+00 -3.4452590041643759e+01 1.0000000000000000e+00 4.4094149906049322e+00 9.7217642983446009e+00 5.8320869420080115e+00 
618 0 1 1.0388224967914190e+00 -2.6054666035035090e+01 1.0000000000000000e+00 2.8518510191020128e+00 2.1200004223292610e+00 7.4404056040719411e+00 
146 0 1 1.0219635911248148e+00 -3.1591758415637678e+01 1.0000000000000000e+00 2.6199316885815738e+00 2.2922840355653924e+00 7.6113345471332980e+00 
196 0 1 1.0307369652660736e+00 -1.3724132732497997e+01 1.0000000000000000e+00 2.9973467541168306e+00 2.8515262522516740e+00 8.4419500162299119e+00 
542 0 1 1.0132907603641379e+00 -4.1564450054410621e+01 1.0000000000000000e+00 2.5749015780238631e+00 2.2109658509402199e+00 7.8091013700838197e+00 
535 0 1 1.0267625439107599e+00 -1.9103239430091428e+01 1.0000000000000000e+00 3.0291041018006348e+00 1.9588107380784565e+00 8.5345351142129093e+00 
320 0 1 1.0308709124413118e+00 -3.3085677613989034e+01 1.0000000000000000e+00 3.4113135026778467e+00 1.6174338699627104e+00 8.6371273526211816e+00 
244 0 1 1.0103684168239622e+00 -3.4964841788205611e+01 1.0000000000000000e+00 4.7425104617939793e+00 6.9224757473744314e-01 7.4448722381879557e+00 
21 0 1 1.0524720420832785e+00 -3.1801632808033599e+01 1.0000000000000000e+00 6.3010443822622522e+00 1.9239072294726935e+00 9.0361421482840001e+00 
28 0 1 1.0246381175558374e+00 -5.3344195020387140e+01 1.0000000000000000e+00 5.7939917740906992e+00 2.1312280174083593e+00 8.7574923857888223e+00 
280 0 1 1.0211009071072368e+00 -2.8889053619749603e+01 1.0000000000000000e+00 5.6175628040205154e+00 1.5371366052218045e+00 9.8443874297985214e+00 
169 0 1 1.0466060004850111e+00 -3.4506960616064681e+01 1.0000000000000000e+00 3.3240246563734694e+00 5.2126549747806052e+00 7.1103274316236886e+00 
496 0 1 9.7581148038146992e-01 -2.5927323012161477e+01 1.0000000000000000e+00 3.6620464327453255e+00 6.1532906877340654e+00 6.9000591888196636e+00 
51 0 1 1.0240834006263959e+00 -1.4943614667087179e+01 1.0000000000000000e+00 3.7596911393318666e+00 4.2117277165401914e+00 8.3455253920604910e+00 
49 0 1 1.0444801844743459e+00 -6.0154204110618529e+01 1.0000000000000000e+00 3.7568019648043549e+00 5.7074504445465557e+00 9.3975051365381415e+00 
129 0 1 1.0090791642879600e+00 -1.2736132815586116e+01 1.0000000000000000e+00 4.4210062165297321e+00 4.0160930179866892e+00 8.6645956091109380e+00 
325 0 1 1.0379933578152454e+00 -1.6460292193110071e+01 1.0000000000000000e+00 6.0537982254409739e+00 3.6758446208861240e+00 9.5822676270287399e+00 
114 0 1 1.0086380210190042e+00 -3.2687301164731480e+01 1.0000000000000000e+00 5.3220062421080359e+00 5.3131336314996904e+00 9.6076272042820641e+00 
330 0 1 1.0097974934212990e+00 -3.8122329613150065e+01 1.0000000000000000e+00 5.6389051629846794e+00 3.9337883348942753e+00 9.2216427409788189e+00 
168 0 1 1.0038862060448686e+00 -3.5801284099407710e+01 1.0000000000000000e+00 3.2283048221515589e+00 9.2468476888208819e+00 7.1360357383858686e+00 
540 0 1 1.0209888878137066e+00 -3.5928926495529304e+01 1.0000000000000000e+00 2.9293590141505095e+00 9.4891199817638263e+00 7.3935447238117060e+00 
308 0 1 1.0518899177634571e+00 -1.9986255517883663e+01 1.0000000000000000e+00 6.6054361694362393e+00 7.8834018250301456e+00 8.3738450849665362e+00 
327 0 1 9.9791144620287964e-01 6.7422694835642183e+00 1.0000000000000000e+00 6.1927790933807598e+00 7.6673756359452057e+00 8.4477016310104371e+00 
303 0 1 1.0202339892492742e+00 -9.8131657214648307e+00 1.0000000000000000e+00 5.8006641040558318e+00 7.3098502635868829e+00 9.5018065550341522e+00 
433 0 1 1.0209959819331142e+00 -1.0586786261370875e+01 1.0000000000000000e+00 5.4383098450592859e+00 7.1201638075494165e+00 9.5951171618372992e+00 
120 0 1 1.0585753596399281e+00 -3.8989374505709520e+01 1.0000000000000000e+00 5.2286644230333064e+00 9.5346474890578712e+00 7.2165973543826558e+00 
334 0 1 1.0272424453406879e+00 -9.0184262131881301e+00 1.0000000000000000e+00 6.4085811880650798e+00 5.3526388808086876e-02 1.1949297600279534e+01 
66 0 1 1.0552326104983991e+00 -1.4780095294609090e+01 1.0000000000000000e+00 6.0766849456599505e+00 1.9147189424591826e+00 1.1073015523462676e+01 
31 0 1 1.0064442276813648e+00 -3.0354420453449901e+01 1.0000000000000000e+00 5.2465564232550843e+00 6.2155891262747687e-01 1.0890784377741184e+01 
145 0 1 9.9781802437368750e-01 -3.8669560094044016e+01 1.0000000000000000e+00 5.7673506920966044e+00 1.9743836110980981e-01 1.1868170922535743e+01 
252 0 1 1.0414433114190886e+00 -3.3704816818789837e+01 1.0000000000000000e+00 6.1226655308266462e+00 3.3067466138110548e+00 1.0149719473718102e+01 
582 0 1 1.0309562467176352e+00 -5.7078290398648733e+01 1.0000000000000000e+00 6.6321595536560451e+00 2.6448255587090919e+00 1.1971364447700617e+01 
147 0 1 1.0263603378268251e+00 -4.4333529289989198e+00 1.0000000000000000e+00 3.1682155854903749e+00 6.1013483589541613e+00 1.0465239265758351e+01 
50 0 1 1.0091117638416307e+00 -3.1979670606215251e+01 1.0000000000000000e+00 3.2707582788922442e+00 6.2737694342650583e+00 1.0027432417865885e+01 
124 0 1 1.0119033890690459e+00 -1.7510029718370721e+01 1.0000000000000000e+00 6.5537358067041405e+00 4.1590722163558063e+00 1.2344991020595652e+01 
96 0 1 1.0111892412156587e+00 -1.4862851939380873e+01 1.0000000000000000e+00 6.5612778269690573e+00 3.6875069204179494e+00 1.2696566557065134e+01 
507 0 1 1.0056163017667556e+00 -2.6277625899089831e+01 1.0000000000000000e+00 3.4464258139719863e+00 5.4632245424765307e+00 1.0743736956645566e+01 
417 0 1 1.0306590738078327e+00 -2.9412747610929259e+01 1.0000000000000000e+00 4.1127488524005829e+00 5.1478147754247727e+00 1.0648741897803497e+01 
22 0 1 1.0271368262359644e+00 -4.2806854758684196e+01 1.0000000000000000e+00 4.4005371214201254e+00 6.2683178717292165e+00 1.1614254507219476e+01 
37 0 1 1.0827074189118020e+00 -3.4836508647191742e+01 1.0000000000000000e+00 6.0256436221441865e+00 9.5422669342587021e+00 1.1110709783868861e+01 
607 0 1 9.6945823486463956e-01 -3.4230185551666004e+01 1.0000000000000000e+00 5.6303198776530410e+00 8.7485123112557837e+00 1.2029185665149402e+01 
494 0 1 1.0203249332697926e+00 -2.4400506703599635e+01 1.0000000000000000e+00 6.2723115839522476e+00 8.8170671803031730e+00 1.2132084318896341e+01 
457 0 1 1.0507915499036800e+00 -2.6735828105789455e+01 1.0000000000000000e+00 4.2283964218635104e+00 7.2888178019223604e+00 1.1483415970921897e+01 
518 0 1 1.0172445178342326e+00 -5.6034745568694717e+01 1.0000000000000000e+00 6.3371614764485109e+00 7.0297349000863409e+00 1.2017508911349541e+01 
134 0 1 9.8245155666656092e-01 -5.1557310886905803e+01 1.0000000000000000e+00 5.4213758142172814e+00 9.2551826639303982e+00 1.0291273527106638e+01 
623 0 1 1.0063778342345862e+00 -5.7045320636879588e+01 1.0000000000000000e+00 3.9238814867266543e+00 7.3736103779618620e+00 1.1301694384722827e+01 
639 0 1 1.0400677577714605e+00 -2.4223782946499142e+01 1.0000000000000000e+00 6.3165614219619606e+00 9.0382585567643208e+00 1.1889363309459409e+01 
594 0 1 1.0655976864985095e+00 -4.8870695045198566e+01 1.0000000000000000e+00 4.2527019828577126e+00 7.2048217104286962e+00 1.1492622305644048e+01 
17 0 1 1.0276619819052464e+00 -2.5037533535583215e+01 1.0000000000000000e+00 3.3757519438288517e+00 1.2280768643325160e+01 5.4525226342190969e+00 
400 0 1 1.0108054117635519e+00 -3.1818508508165685e+01 1.0000000000000000e+00 5.7840738481289513e+00 1.2998677989891709e+01 3.3659903067425785e+00 
84 0 1 1.0005167205175347e+00 -7.7726308730647645e+01 1.0000000000000000e+00 3.6718714067127474e+00 1.2767219309667407e+01 4.6011668693473808e+00 
205 0 1 1.0006580848058126e+00 -3.6576607644391935e+01 1.0000000000000000e+00 3.5287490954669014e+00 1.2871612930842373e+01 4.7621601519670076e+00 
536 0 1 9.7524945329088020e-01 -2.7926667720901680e+01 1.0000000000000000e+00 5.1643754985927606e+00 1.1048711480832159e+01 4.7621748835883961e+00 
54 0 1 9.7796964456111601e-01 -4.7003013351872099e+01 1.0000000000000000e+00 4.8939826603466470e+00 1.3220716601963456e+01 3.6601966283205032e+00 
76 0 1 1.0341397466038542e+00 -1.2043031447040761e+01 1.0000000000000000e+00 5.2183405368394240e+00 1.2471115011327743e+01 3.7080533344604709e+00 
40 0 1 1.0074092029955728e+00 -4.7198832732234941e+01 1.0000000000000000e+00 3.3745136511499885e+00 1.2713741682448429e+01 6.4426859573228406e+00 
585 0 1 1.0320407698564062e+00 -1.7297714951421280e+01 1.0000000000000000e+00 5.3732906247073773e+00 1.0698908889793172e+01 5.6325886190549070e+00 
173 0 1 1.0400941945133215e+00 -2.1719175035883058e+01 1.0000000000000000e+00 6.1801043277940213e+00 1.2611543546174197e+01 3.5487211773864624e+00 
461 0 1 1.0565728125873524e+00 -2.9667867758594678e+01 1.0000000000000000e+00 5.9932625564042681e+00 1.0118428313710245e+01 3.4925345356091930e+00 
357 0 1 1.0495784990160923e+00 -3.5407237556719174e+01 1.0000000000000000e+00 3.6975370380310686e+00 1.3465763416266100e+01 6.0674300328579438e+00 
641 0 1 1.0241002172230986e+00 -4.7540614440217951e+01 1.0000000000000000e+00 3.4172238906806887e+00 1.3372666050503604e+01 5.6094367475326621e+00 
405 0 1 1.0327239230666692e+00 -1.6958483958052426e+01 1.0000000000000000e+00 6.2725461271326202e+00 1.4645077723637709e+01 4.2624735604895250e+00 
527 0 1 1.0345664719065302e+00 -3.7425817577712678e+01 1.0000000000000000e+00 4.9894150217142235e+00 1.6272059487219746e+01 4.5147827477697717e+00 
235 0 1 1.0413307827929028e+00 -2.5231822417432859e+01 1.0000000000000000e+00 5.2523375704150324e+00 1.4664557162199717e+01 6.5174861555410883e+00 
260 0 1 1.0044741857991075e+00 -4.2626414966410998e+01 1.0000000000000000e+00 4.8168408544866796e+00 1.6654576879821796e+01 5.4218765644659008e+00 
418 0 1 1.0223809388281828e+00 -1.6735074047526805e+01 1.0000000000000000e+00 5.3818495152575139e+00 1.6399948604627792e+01 3.9301371174508004e+00 
100 0 1 1.0413907736106482e+00 -3.6608701686771283e+01 1.0000000000000000e+00 5.0488118065451388e+00 1.6275617732235009e+01 4.4376217336023140e+00 
481 0 1 1.0471130733950182e+00 -1.2430484716643351e+01 1.0000000000000000e+00 6.3349565753620176e+00 1.3970286336472936e+01 3.4735633279085225e+00 
572 0 1 9.9428004687022276e-01 -4.6403366747369894e+01 1.0000000000000000e+00 6.1750406968667386e+00 1.3700844414740258e+01 6.4005970256708187e+00 
220 0 1 1.0733886463725837e+00 -2.1154447667214917e+01 1.0000000000000000e+00 4.5311827347718312e+00 1.7789950531887875e+01 4.2615937288522705e+00 
620 0 1 1.0548313343920901e+00 -4.1251002097597585e+01 1.0000000000000000e+00 4.5973706673885486e+00 1.8029329415647751e+01 4.2132794612169313e+00 
162 0 1 1.0593887679935901e+00 -4.6736512311481555e+01 1.0000000000000000e+00 4.7807229136963816e+00 1.8288517355786439e+01 4.3975005071770790e+00 
586 0 1 1.0288727013145060e+00 -4.2022468207971677e+01 1.0000000000000000e+00 5.0548704324905467e+00 1.7970077855552290e+01 3.6351051389205948e+00 
86 0 1 1.0230599680655055e+00 -2.2739663145736262e+01 1.0000000000000000e+00 6.0524357361050836e+00 1.8973950015228287e+01 4.2680139749795041e+00 
273 0 1 1.0257041397482749e+00 -3.0260284994274169e+01 1.0000000000000000e+00 6.6309088382526227e+00 1.8909217048883356e+01 5.2441055437477582e+00 
579 0 1 1.0473519547076238e+00 -5.1146131045351943e+01 1.0000000000000000e+00 2.5596882105557874e+00 1.1253722207610425e+01 7.8985416574652039e+00 
475 0 1 1.0194929012407985e+00 -4.0842120306899680e+01 1.0000000000000000e+00 2.5379866355080947e+00 1.0645991301187451e+01 8.7501996594524201e+00 
341 0 1 1.0135120401542066e+00 -1.1303488946576076e+01 1.0000000000000000e+00 3.2344244378641274e+00 1.1735243546647199e+01 6.8227523052538936e+00 
581 0 1 9.8043058256792592e-01 -6.2592967780876585e+01 1.0000000000000000e+00 3.2364574153462464e+00 1.0764535168217781e+01 9.2036609458566652e+00 
133 0 1 1.0213182953357367e+00 -2.0631672447517904e+01 1.0000000000000000e+00 2.3412513229308338e+00 1.1079920869696112e+01 8.1222598989800439e+00 
81 0 1 1.0352213852867329e+00 -4.2099945336698980e+01 1.0000000000000000e+00 2.9435343060729280e+00 1.0245094911070103e+01 8.8516267020528563e+00 
515 0 1 1.0301755081953730e+00 -1.5498346753527006e+01 1.0000000000000000e+00 2.4035898109447018e+00 1.0106561121922233e+01 7.5238960594863062e+00 
556 0 1 1.0520274378191370e+00 -1.2689132102835057e+01 1.0000000000000000e+00 5.1874050264521907e+00 1.0949533657615685e+01 9.5076350670354515e+00 
571 0 1 1.0185116336377464e+00 -5.7261379280747107e+01 1.0000000000000000e+00 5.0884683762473086e+00 1.0793980259844320e+01 9.2916181605519341e+00 
365 0 1 1.0007527456876857e+00 -4.3511578289666339e+01 1.0000000000000000e+00 5.2357999045105039e+00 1.0439135898586377e+01 7.6113264661973101e+00 
426 0 1 1.0273521734270910e+00 -1.8114965837392404e+01 1.0000000000000000e+00 5.6884965851659386e+00 1.0484127528556154e+01 6.9397034008212986e+00 
151 0 1 1.0218879912197028e+00 -2.3406641633644213e+01 1.0000000000000000e+00 6.5599378950956444e+00 1.3076355475749248e+01 7.9956048658218286e+00 
190 0 1 1.0135559567235870e+00 -2.5938418335981183e+01 1.0000000000000000e+00 4.6357255675570155e+00 1.4311464147131581e+01 7.1272294208677840e+00 
275 0 1 1.0627419667421389e+00 -2.4624750872990621e+01 1.0000000000000000e+00 4.9400664666251437e+00 1.4485159012458876e+01 7.2015609310036277e+00 
293 0 1 1.0172767579301165e+00 -1.7913793208497196e+01 1.0000000000000000e+00 5.8042341785839850e+00 1.4137429246191024e+01 8.7006496977360097e+00 
78 0 1 1.0328649916060282e+00 -2.9163270718005037e+01 1.0000000000000000e+00 4.6379871979482941e+00 1.6290159890766596e+01 7.7449491418696370e+00 
589 0 1 1.0660771418937580e+00 -3.4919470052711759e+01 1.0000000000000000e+00 4.7596267095132738e+00 1.6270110510759086e+01 8.1402303387218833e+00 
72 0 1 9.9713164670714893e-01 -3.7656464339002049e+01 1.0000000000000000e+00 6.3506888305305660e+00 1.6437688672217245e+01 8.9655116523730261e+00 
127 0 1 1.0348781811079470e+00 -4.1853176366418964e+01 1.0000000000000000e+00 4.6137064230445901e+00 1.6442806619280439e+01 7.8110395686419318e+00 
122 0 1 1.0211290495535181e+00 -1.9466162000291256e+01 1.0000000000000000e+00 6.0650197921721496e+00 1.3869731054881299e+01 8.5542299407660423e+00 
200 0 1 1.0174511200483578e+00 -2.1185840920508568e+01 1.0000000000000000e+00 3.1457711971019857e+00 1.9656744986420559e+01 8.2317130956050661e+00 
245 0 1 1.0228400037577459e+00 -5.6610534762565202e+01 1.0000000000000000e+00 3.2420124242462167e+00 1.8706461417877399e+01 8.5719535639523077e+00 
288 0 1 1.0242248169655395e+00 -5.0777367567376579e+01 1.0000000000000000e+00 6.3675690834627243e+00 1.8905156819661457e+01 9.7109639539324064e+00 
242 0 1 1.0119860237828593e+00 -2.3162787404692303e+01 1.0000000000000000e+00 3.6467120641375668e+00 1.9069983619207058e+01 7.4389361816375406e+00 
483 0 1 1.0673314781809737e+00 -1.8161552088530922e+01 1.0000000000000000e+00 6.6292030729332314e+00 1.7234632062417862e+01 7.4894398237633899e+00 
394 0 1 1.0187473780605454e+00 -1.5355352866893828e+01 1.0000000000000000e+00 6.1886082093880956e+00 1.9268955389397046e+01 8.3433435827273428e+00 
486 0 1 9.9963666427098763e-01 -1.8487773146094593e+01 1.0000000000000000e+00 4.9110312514261061e+00 1.9432289049168197e+01 7.3720215346048361e+00 
544 0 1 1.0118257533083317e+00 -2.5122585193091368e+01 1.0000000000000000e+00 3.6796833174863619e+00 1.7721360658373275e+01 7.9494419585272977e+00 
282 0 1 1.0401321033654822e+00 -2.5351299035082299e+01 1.0000000000000000e+00 3.9161790366825824e+00 1.9765086706899893e+01 9.2631123393906947e+00 
193 0 1 1.0432501179178935e+00 -2.3421193667133291e+01 1.0000000000000000e+00 3.8497148096531038e+00 1.7911098774987639e+01 8.9677941938817565e+00 
237 0 1 1.0377100280789144e+00 -2.6983173931969691e+01 1.0000000000000000e+00 3.6241293106504302e+00 1.8863062126844664e+01 7.5373697974406246e+00 
283 0 1 1.0359214255372093e+00 -2.2053486999738393e+01 1.0000000000000000e+00 5.4370995703554881e+00 1.1969565452818502e+01 1.1138283376777416e+01 
622 0 1 1.0365614732400716e+00 -4.8215099183969478e+01 1.0000000000000000e+00 5.3092650587130370e+00 1.1549786546193435e+01 1.1218751986000433e+01 
278 0 1 1.0695605855326171e+00 -3.3685233893976438e+01 1.0000000000000000e+00 6.0264959485246328e+00 1.2906275105658359e+01 1.0278605875574195e+01 
465 0 1 1.0381303659396146e+00 -1.2278242475264069e+01 1.0000000000000000e+00 4.9940357442476655e+00 1.1433192248062312e+01 1.0982033039535155e+01 
123 0 1 1.0372684207642340e+00 -3.4470746475342068e+01 1.0000000000000000e+00 4.9369856110870760e+00 1.1875080282653268e+01 1.0692665265037112e+01 
179 0 1 1.0178977197556385e+00 -2.1467604852477951e+01 1.0000000000000000e+00 5.6330667098229146e+00 1.3422543613519204e+01 1.0388257209159848e+01 
411 0 1 1.0145110286255001e+00 5.0428814555155546e+00 1.0000000000000000e+00 6.1305270349892762e+00 1.5403262854049405e+01 1.1771864785329955e+01 
643 0 1 1.0202630909968278e+00 -5.1229981878183438e+01 1.0000000000000000e+00 4.9905510073256272e+00 1.5493249665472600e+01 1.0989390172310813e+01 
306 0 1 1.0417169172880976e+00 -3.6490710953361400e+01 1.0000000000000000e+00 4.9414566285999317e+00 1.5655662494755878e+01 1.0662933081567289e+01 
370 0 1 1.0606973434393117e+00 -1.6034914868265773e+01 1.0000000000000000e+00 6.5741236503230027e+00 1.4745410158450198e+01 1.1169261694122266e+01 
347 0 1 1.0413134210843322e+00 -2.5975170716966097e+01 1.0000000000000000e+00 4.8934653387858127e+00 1.6068629090648962e+01 1.0074035708835490e+01 
231 0 1 1.0262028703585635e+00 -2.1133645374312895e+01 1.0000000000000000e+00 4.7819667592998005e+00 1.6647924233859918e+01 1.0764746892087940e+01 
599 0 1 1.0678607616488318e+00 -1.4157921118138765e+01 1.0000000000000000e+00 6.6428908705409579e+00 1.5278592909886269e+01 1.1392100349974150e+01 
590 0 1 1.0064045629940905e+00 -2.8981522841806239e+01 1.0000000000000000e+00 5.9334763161489539e+00 1.6893771799175383e+01 1.2181462325747015e+01 
178 0 1 9.8794136632319918e-01 -2.5357444888345082e+01 1.0000000000000000e+00 4.6160510324890902e+00 1.9538587320064920e+01 1.0813468706443585e+01 
241 0 1 1.0179517596762726e+00 -1.5862873538832170e+01 1.0000000000000000e+00 4.5433267322785813e+00 1.8752567208607591e+01 1.0346741412799545e+01 
152 0 1 9.8918178405447466e-01 -2.9217630186742237e+01 1.0000000000000000e+00 4.7768971385907362e+00 1.8856967232487573e+01 1.1476039838544652e+01 
188 0 1 1.0152949445562929e+00 -2.0212693095156080e+01 1.0000000000000000e+00 5.0763242978871812e+00 1.8049998517757771e+01 1.1748960053688497e+01 
444 0 1 1.0068807294489517e+00 -7.8739488744291695e+00 1.0000000000000000e+00 6.1365256266404247e+00 1.7424849097812533e+01 1.2258615445931211e+01 
333 0 1 1.0292557262873649e+00 -2.0770342019157372e+01 1.0000000000000000e+00 8.3346101898749776e+00 1.8723984706738361e+00 6.2619632353870081e-01 
103 0 1 1.0233141862351289e+00 -3.4766615596862870e+01 1.0000000000000000e+00 6.7836280402827338e+00 5.0612963770146369e-01 1.3892671314042104e+00 
612 0 1 1.0319161657369471e+00 -2.6416848479669422e+01 1.0000000000000000e+00 7.0505608409339278e+00 2.4706985326191233e-01 2.0253533909029384e+00 
62 0 1 1.0125741223320224e+00 -2.7886902218941572e+01 1.0000000000000000e+00 8.3591380741337424e+00 2.1289536598193619e+00 6.2115119064394531e-01 
598 0 1 1.0072464663131742e+00 -2.7561748829502292e+01 1.0000000000000000e+00 8.7332898114402937e+00 7.6156378017857662e-01 1.2274232918712344e+00 
420 0 1 1.0439999144688401e+00 -5.7739876715468114e+01 1.0000000000000000e+00 8.1601867859740853e+00 2.6051127150245672e+00 7.2459706597254980e-01 
609 0 1 1.0474698292449109e+00 -4.1847421927776686e+01 1.0000000000000000e+00 8.2926016920542924e+00 7.4096130969579677e-01 4.8742869258315685e-01 
10 0 1 1.0118907912440922e+00 -3.7302047615519456e+01 1.0000000000000000e+00 1.2873175410328336e+01 1.9442030092893303e-01 2.2250495442739120e+00 
326 0 1 1.0431376270495250e+00 -2.6068554730597899e+01 1.0000000000000000e+00 7.5513360303812869e+00 5.8855778631326015e+00 6.3113467033140502e-01 
454 0 1 1.0584039021215861e+00 -2.5813151742682610e+01 1.0000000000000000e+00 8.9367515464581366e+00 3.8686022351364344e+00 1.8790911344957018e+00 
478 0 1 1.0596693887334672e+00 -1.5318973276427984e+01 1.0000000000000000e+00 8.0499926991052355e+00 3.8952062225405646e+00 2.3170424952772510e+00 
613 0 1 1.0154755705764245e+00 -2.5435867472231365e+01 1.0000000000000000e+00 9.5864541897770525e+00 4.4276421169346145e+00 2.5545232141658389e+00 
510 0 1 1.0585270511604901e+00 -2.2810968545861318e+01 1.0000000000000000e+00 9.0673906878522956e+00 4.6435715875861794e+00 1.1115212423518883e+00 
194 0 1 1.0295249902746697e+00 -1.2608517467963402e+01 1.0000000000000000e+00 8.5231422114982820e+00 3.7845102910349810e+00 6.9832199266601158e-01 
395 0 1 1.0452281268894785e+00 -1.9934104096651094e+01 1.0000000000000000e+00 7.3633349238259687e+00 5.5715507830941444e+00 5.2295207993568604e-01 
577 0 1 9.8995408354867465e-01 -2.2703582097897876e+01 1.0000000000000000e+00 7.8313773985422506e+00 4.8257357142069663e+00 3.2386593961088117e-01 
449 0 1 1.0163280492929181e+00 -2.2999243624295758e+01 1.0000000000000000e+00 7.1279324905133210e+00 6.6222955354112401e+00 1.2936715598730490e+00 
167 0 1 1.0089234093993051e+00 -2.0640220088591914e+01 1.0000000000000000e+00 9.4165774208466893e+00 6.6406799711104743e+00 2.2482006020759475e+00 
65 0 1 1.0117393110944295e+00 -8.2982462666373351e+00 1.0000000000000000e+00 9.9683110995649979e+00 5.2379155931872310e+00 2.2459483585699167e+00 
619 0 1 1.0355670286222187e+00 -3.7559440945522972e+01 1.0000000000000000e+00 7.2400417627424671e+00 5.9250485389989000e+00 6.3930744643456527e-01 
410 0 1 1.0679626541123413e+00 -2.4932067046395666e+01 1.0000000000000000e+00 6.7023333474096827e+00 6.5193176259776111e+00 3.0847314035973645e+00 
407 0 1 1.0304687411124103e+00 -5.9028190446144535e+01 1.0000000000000000e+00 1.0078088792847351e+01 6.1335935429679731e+00 2.3816629396590905e+00 
57 0 1 1.0177875112388897e+00 -5.7465400030459783e+01 1.0000000000000000e+00 1.0755345516288322e+01 6.6181135881534976e+00 2.6591607544946410e+00 
281 0 1 1.0112963733461604e+00 -2.8025608510316996e+01 1.0000000000000000e+00 7.0001387322710880e+00 6.8721752032394985e+00 1.7099325276771642e+00 
625 0 1 1.0362903305504714e+00 -2.9930836191060511e+01 1.0000000000000000e+00 7.8521967829634400e+00 9.6499124388133009e+00 3.1537820627386028e+00 
137 0 1 1.0067691127969394e+00 -4.8028428534872894e+01 1.0000000000000000e+00 9.5237868282386327e+00 9.3384637305901776e+00 3.1611032601151976e+00 
570 0 1 9.8178765990645256e-01 -2.1000795741233805e+01 1.0000000000000000e+00 9.7009192523484238e+00 8.0607377661630721e+00 2.3970874457523514e+00 
97 0 1 1.0257118016960614e+00 -4.4600582225754074e+01 1.0000000000000000e+00 8.6199703228207145e+00 8.5029581939600778e+00 3.2679995522068830e+00 
508 0 1 1.0336687560224640e+00 -2.4266875664677453e+01 1.0000000000000000e+00 1.0462697633973589e+01 8.1695522701950640e+00 2.4676722468989882e+00 
53 0 1 9.8961458387948587e-01 -2.4584492515212904e+01 1.0000000000000000e+00 1.1374675018134901e+01 8.7038516800013017e+00 2.4593280449051509e+00 
627 0 1 1.0195773073164058e+00 -3.0183428466807658e+01 1.0000000000000000e+00 1.1595776857588060e+01 9.0969929493399029e+00 2.5405924633877373e+00 