LAMMPS data file via write_data, version 30 Jul 2016, timestep = 50000000

644 atoms
2 atom types

0.0000000000000000e+00 2.0000000000000000e+01 xlo xhi
0.0000000000000000e+00 2.0000000000000000e+01 ylo yhi
0.0000000000000000e+00 2.0000000000000000e+01 zlo zhi

Masses

1 5
2 3.896

Atoms # meso-molecular

524 0 1 1.0670490635486558e+00 -3.5598262419710004e+01 1.0000000000000000e+00 6.5447202192312153e+00 8.0487678067182300e-01 2.1132121386892786e+00 
489 0 1 1.0502398127799799e+00 -2.2853183860056419e+01 1.0000000000000000e+00 5.3979614225907673e+00 1.3401397886913966e+00 2.9258094507995236e+00 
72 0 1 9.9856041812628993e-01 -3.5602771611602243e+01 1.0000000000000000e+00 6.0820571075367980e+00 2.4053765407412055e+00 2.6965405073506075e+00 
528 0 1 1.0020898198732355e+00 -2.3806697287488955e+01 1.0000000000000000e+00 4.9221616144792542e+00 8.3614242576610220e-01 3.1762017904394280e+00 
441 0 1 1.0674183575053453e+00 -2.0710422207998000e+01 1.0000000000000000e+00 6.3438698873964121e+00 9.1158705883151114e+00 1.9965216088172899e+00 
395 0 1 1.0699353831214131e+00 -1.9284193109228124e+01 1.0000000000000000e+00 5.8719005636407537e+00 8.5198208831097055e+00 3.1718754656366106e+00 
341 0 1 1.0418114169280959e+00 -1.1566300364166631e+01 1.0000000000000000e+00 6.0637552670167789e+00 9.6191877138935524e+00 1.8426037417460486e+00 
3 0 1 1.0230597191874935e+00 -2.9534141908014217e+01 1.0000000000000000e+00 5.0318104828342722e+00 8.9591137315486460e+00 3.1590797561432238e+00 
281 0 1 1.0390402918704644e+00 -2.8797144164864878e+01 1.0000000000000000e+00 5.1127352838248186e+00 2.8862160948260196e+00 3.9464905809367155e+00 
129 0 1 1.0439731503744221e+00 -1.4141468057300685e+01 1.0000000000000000e+00 4.6041259503668028e+00 1.8490803678755827e+00 4.1463446009480220e+00 
158 0 1 9.9476721047503947e-01 -2.6102372387710201e+01 1.0000000000000000e+00 4.4343699244862611e+00 1.1629894282505260e+00 5.3310396216583529e+00 
213 0 1 1.0028849804411031e+00 -5.1697043897561514e+01 1.0000000000000000e+00 4.7489534982341555e+00 2.3905772028981849e+00 3.7576859017984598e+00 
163 0 1 1.0224396712848267e+00 -3.1918046706645118e+01 1.0000000000000000e+00 4.7667189149887816e+00 4.2446949321733507e-01 6.3439467331095125e+00 
343 0 1 1.0013455039222443e+00 -3.2153949167246132e+01 1.0000000000000000e+00 6.2963439772135201e+00 1.4131033689715744e+00 5.5735838713721613e+00 
243 0 1 1.0239572516954767e+00 -2.4879083737429383e+01 1.0000000000000000e+00 4.5473567929178245e+00 4.0987295505973059e-01 5.1993759372081794e+00 
510 0 1 1.0460120035491258e+00 -2.3611320824710308e+01 1.0000000000000000e+00 5.1925999352342016e+00 3.1388034691480997e+00 4.9842924852603803e+00 
308 0 1 1.0490746378269540e+00 -2.0411672730285797e+01 1.0000000000000000e+00 3.0766314643006329e+00 5.2640514343722504e+00 6.5770963451606894e+00 
557 0 1 1.0342512247903584e+00 -2.9056089070825500e+01 1.0000000000000000e+00 3.0427589403593256e+00 5.3959018791744988e+00 5.2857805632551198e+00 
526 0 1 1.0450285887445474e+00 -3.9671186086620054e+01 1.0000000000000000e+00 3.1445068624703723e+00 5.5714520332605186e+00 5.2197290961636869e+00 
609 0 1 1.0097525178997993e+00 -4.2097564173083811e+01 1.0000000000000000e+00 2.5639929884466572e+00 5.6757872272592227e+00 6.2547985292037360e+00 
384 0 1 9.9152257229841223e-01 -1.5065023984332113e+00 1.0000000000000000e+00 3.0673660556621005e+00 4.8277198482430350e+00 6.2647877147797058e+00 
305 0 1 1.0257356689303898e+00 -3.5008839619623807e+01 1.0000000000000000e+00 5.6496639511360591e+00 4.1837419580148225e+00 4.5677132699684853e+00 
348 0 1 1.0313481149978214e+00 -1.4009663048586869e+01 1.0000000000000000e+00 5.8065845182633513e+00 6.3968171959599598e+00 5.3080694268679105e+00 
327 0 1 1.0316414484769598e+00 5.1150240421763886e+00 1.0000000000000000e+00 3.4307229615799817e+00 5.8127589688101748e+00 5.0681145351102233e+00 
410 0 1 1.0532104508215943e+00 -2.3332531156997693e+01 1.0000000000000000e+00 5.8979204599237320e+00 4.8580783392770472e+00 5.2040779818815102e+00 
429 0 1 1.0173002986448376e+00 -3.4881784906096769e+01 1.0000000000000000e+00 4.9062673738219189e+00 5.0622923777045283e+00 4.9105570977754978e+00 
330 0 1 1.0402023003825644e+00 -4.0397010114738507e+01 1.0000000000000000e+00 6.2685310263164018e+00 6.7524594739300925e+00 5.7873194207850656e+00 
540 0 1 1.0207435260355260e+00 -3.6548582418185653e+01 1.0000000000000000e+00 3.4856466010883702e+00 7.8658950504260687e+00 6.3702186638741312e+00 
134 0 1 9.7372371626239174e-01 -5.0818115501357433e+01 1.0000000000000000e+00 4.3897656874277713e+00 8.1315577450850611e+00 5.4338932373296371e+00 
400 0 1 1.0049936143138127e+00 -3.1468189189966012e+01 1.0000000000000000e+00 3.8373623271013741e+00 9.7192284758775624e+00 5.2091007377716601e+00 
57 0 1 9.5902943264866158e-01 -5.8060297732601057e+01 1.0000000000000000e+00 5.3857772708643985e+00 8.2853224928891755e+00 3.9160727358159284e+00 
577 0 1 1.0032955779117714e+00 -2.2713946133951197e+01 1.0000000000000000e+00 6.0675182461028374e+00 7.1306130038267161e+00 5.0301237269739874e+00 
492 0 1 1.0499752665657975e+00 -4.7796843752642097e+01 1.0000000000000000e+00 4.2470384575732929e+00 9.5987378976648010e+00 4.0896195448943606e+00 
625 0 1 1.0530378503816229e+00 -2.8859170040704402e+01 1.0000000000000000e+00 4.3308362930239372e+00 9.9643522884306552e+00 3.6028988796376176e+00 
642 0 1 1.0347108483667864e+00 -2.9365373721329746e+01 1.0000000000000000e+00 3.3399728438727272e+00 3.2379065401519053e-01 8.5752664910190433e+00 
474 0 1 1.0050479824613114e+00 -3.1982295806923634e+01 1.0000000000000000e+00 5.1370589178674928e+00 2.3702294322237560e+00 7.2404065835599596e+00 
183 0 1 1.0474151553968649e+00 -3.1131377459635253e+01 1.0000000000000000e+00 4.0613086717219522e+00 6.3757005165972058e-01 9.3060185000299427e+00 
169 0 1 1.0499012493910544e+00 -3.5201946434928864e+01 1.0000000000000000e+00 5.9489022924889445e+00 9.4079891179083286e-01 8.6961958884781563e+00 
66 0 1 1.0487281309533005e+00 -1.5023560195379172e+01 1.0000000000000000e+00 5.0233653017864839e+00 3.2678417391572796e+00 8.5613481709148829e+00 
447 0 1 1.0428101932215910e+00 -3.6036397208946944e+01 1.0000000000000000e+00 5.0060751495874838e+00 1.6606716959257890e+00 8.3882756315181890e+00 
371 0 1 1.0151795974993096e+00 -2.0874220998436428e+01 1.0000000000000000e+00 5.0469499080361029e+00 2.7252730550096325e+00 7.4199331844518648e+00 
37 0 1 1.0300302257028084e+00 -3.3545113906262287e+01 1.0000000000000000e+00 6.1002377138115547e+00 2.4149229583222307e+00 9.8222869117838538e+00 
548 0 1 1.0267965208215404e+00 -2.7638469978171639e+01 1.0000000000000000e+00 3.9046585608917752e+00 6.5407605954870149e-02 9.9890093392045838e+00 
574 0 1 1.0469769147835684e+00 -5.0061117733360405e+01 1.0000000000000000e+00 3.0991397132461551e+00 6.0477012292701788e+00 6.8752197035274563e+00 
21 0 1 1.0253190846996969e+00 -3.2622885590060704e+01 1.0000000000000000e+00 5.3640570320378380e+00 6.3564500046266303e+00 9.6747006303990783e+00 
51 0 1 1.0038428995064788e+00 -1.5628311158491471e+01 1.0000000000000000e+00 5.0166711096943741e+00 3.7336007570633991e+00 7.2115357006188603e+00 
444 0 1 9.9303104690738864e-01 -6.7931566127540890e+00 1.0000000000000000e+00 5.1579840790947742e+00 3.8829658396408733e+00 9.0733056662236073e+00 
203 0 1 1.0297853912046981e+00 -5.4618553620600117e+01 1.0000000000000000e+00 5.9118966358849985e+00 6.1305300035761832e+00 7.9846394087342363e+00 
394 0 1 1.0156750569454012e+00 -1.5889056698290316e+01 1.0000000000000000e+00 5.0112791316935654e+00 4.6975064016259624e+00 8.4530031121230440e+00 
199 0 1 1.0666890464442984e+00 -3.0653800780509473e+00 1.0000000000000000e+00 5.5590180310210258e+00 5.3387033453232799e+00 8.2723963036685859e+00 
47 0 1 1.0578375981497712e+00 -1.7368070719108957e+01 1.0000000000000000e+00 4.6613143038783331e+00 6.6412189272752187e+00 7.4014339224802645e+00 
522 0 1 1.0514385427487800e+00 -1.5003878519027454e+01 1.0000000000000000e+00 3.5692812138534880e+00 7.8904235673669945e+00 6.8082730218034087e+00 
293 0 1 1.0087262830932546e+00 -1.7360472426741310e+01 1.0000000000000000e+00 3.6176922109366099e+00 8.7449779370942533e+00 6.7616068711860997e+00 
397 0 1 1.0378896643075286e+00 -1.9635692373636605e+01 1.0000000000000000e+00 6.3828054107724830e+00 8.6252612691982531e+00 7.3308363526623346e+00 
496 0 1 9.9180922961375773e-01 -2.5531323373416708e+01 1.0000000000000000e+00 3.8019718239752409e+00 8.3591735988631779e+00 7.7970578613716128e+00 
380 0 1 9.9792428226532370e-01 -3.0489682452584496e+01 1.0000000000000000e+00 3.8484543442177999e+00 9.1159963737934433e+00 8.1577955868422549e+00 
123 0 1 1.0321925647843031e+00 -3.3682881118848343e+01 1.0000000000000000e+00 5.3672156076660302e+00 7.6144290937288659e+00 8.0031053590760042e+00 
547 0 1 1.0119349664332884e+00 -4.1141228848041955e+01 1.0000000000000000e+00 5.4477372773839576e+00 9.9479008052220301e+00 8.5318709160422532e+00 
1 0 1 1.0062387730335667e+00 -6.0001742074252924e+01 1.0000000000000000e+00 5.5631757401089637e+00 1.7389959150428760e+00 1.1742996537741016e+01 
391 0 1 1.0180332850974927e+00 -1.6711930828361343e+01 1.0000000000000000e+00 5.8020202321490775e+00 1.8838842729552701e+00 1.2342195077477260e+01 
518 0 1 1.0027674746349320e+00 -5.5610845303502629e+01 1.0000000000000000e+00 6.4171860900680482e+00 2.5500786754883844e+00 1.3063623247228914e+01 
551 0 1 1.0105242737914362e+00 -4.0656582332421721e+01 1.0000000000000000e+00 5.6021835234349258e+00 1.9821389058290275e+00 1.1806246454924096e+01 
511 0 1 1.0643241504513863e+00 -3.9721897154110778e+01 1.0000000000000000e+00 5.2563746359135139e+00 7.9496824296446367e-01 1.0424491215839611e+01 
310 0 1 1.0339867422613314e+00 -2.7461770475000588e+01 1.0000000000000000e+00 6.0174687674695253e+00 4.0984694092613472e-01 1.0900788506058964e+01 
226 0 1 1.0066123232934769e+00 -5.7209821822346507e+00 1.0000000000000000e+00 5.6450006166879190e+00 5.2066061816716562e+00 1.0393089667735248e+01 
334 0 1 1.0485303111708459e+00 -8.7145574547587543e+00 1.0000000000000000e+00 6.1707132183533728e+00 5.8134042492325397e+00 1.1108719126266379e+01 
457 0 1 1.0296210752025632e+00 -2.5704733130455541e+01 1.0000000000000000e+00 5.1798344040145006e+00 6.5646820312365506e+00 1.1413554704229071e+01 
242 0 1 1.0490233467454233e+00 -2.1737269454748539e+01 1.0000000000000000e+00 6.6578270603521421e+00 5.0090158310651347e+00 1.0283022540401785e+01 
387 0 1 1.0339705612300563e+00 -5.6050210787775034e+00 1.0000000000000000e+00 4.4129079718046755e+00 9.3603375184395325e+00 1.1977227742470930e+01 
147 0 1 1.0658094759303076e+00 -3.9690119669043327e+00 1.0000000000000000e+00 5.2070258213712508e+00 7.0811817695417112e+00 1.1786084641218523e+01 
507 0 1 1.0083028157531915e+00 -2.6785142983530907e+01 1.0000000000000000e+00 4.4617873199756914e+00 8.9116219050973235e+00 1.2261607461713378e+01 
632 0 1 1.0180186152507642e+00 -2.3731502711554317e+01 1.0000000000000000e+00 3.8195285546914564e+00 9.4609759407921334e+00 1.1326086409666853e+01 
417 0 1 1.0552920060947235e+00 -2.8959652385296980e+01 1.0000000000000000e+00 4.7335139575118781e+00 7.4143830598262017e+00 1.1845388980296788e+01 
639 0 1 1.0075313057538242e+00 -2.4146153153134588e+01 1.0000000000000000e+00 4.4361341119346980e+00 8.2928573048180763e+00 1.2278003779644392e+01 
356 0 1 1.0269812257775619e+00 -2.6088149641648034e+01 1.0000000000000000e+00 5.6158848509872836e+00 8.3373157779092821e+00 1.0986487303750225e+01 
28 0 1 1.0359598942967325e+00 -5.2570390782485703e+01 1.0000000000000000e+00 4.7296758951057649e+00 7.9147873777650490e+00 1.0797073268861766e+01 
228 0 1 1.0659266221501214e+00 -6.6466200787440490e+00 1.0000000000000000e+00 6.5022022070817469e+00 1.1205064565884689e+01 2.3054963472086425e+00 
73 0 1 1.0229606767028376e+00 -2.2333199412464459e+01 1.0000000000000000e+00 5.2476848994266572e+00 1.0758295459465604e+01 2.4805023427757331e+00 
601 0 1 1.0080736491868614e+00 -3.9516373545569550e+01 1.0000000000000000e+00 6.3850961673627964e+00 1.1339556667023944e+01 2.2738403913886756e+00 
644 0 1 1.0011419164310611e+00 -5.6385189915683583e+01 1.0000000000000000e+00 2.3804311971430479e+00 1.8064164070610325e+01 2.2213672645089653e+00 
596 0 1 1.0444622494593496e+00 -6.0676540041787703e+01 1.0000000000000000e+00 2.0951954001364479e+00 1.8651395566300767e+01 2.0676505484554148e+00 
513 0 1 1.0137870238353408e+00 -3.0711855756059602e+01 1.0000000000000000e+00 2.0686781438379076e+00 1.8632978967787064e+01 1.9467994624549723e+00 
95 0 1 1.0170826124013010e+00 -2.4218165618510760e+01 1.0000000000000000e+00 2.1135034476170218e+00 1.9018120179397005e+01 2.7994417059685288e+00 
420 0 1 1.0535263108770485e+00 -5.6547397412358052e+01 1.0000000000000000e+00 2.4151374240771304e+00 1.9241766418672839e+01 2.4866495196880343e+00 
133 0 1 1.0382030780528755e+00 -2.2587426138063897e+01 1.0000000000000000e+00 2.6511466259922249e+00 1.8292379988128836e+01 2.9305671566059277e+00 
236 0 1 1.0208545571173324e+00 -2.4473366591643519e+01 1.0000000000000000e+00 3.1038763847503628e+00 1.9175547367393996e+01 2.1216476216154567e+00 
321 0 1 1.0032985302315329e+00 -3.1874880958135240e+01 1.0000000000000000e+00 5.6925292801220762e+00 1.9536101838687429e+01 2.6069700195782777e+00 
436 0 1 1.0482167141415017e+00 -2.3978295025277617e+01 1.0000000000000000e+00 6.5601764149254622e+00 1.7757332496901519e+01 2.0224516433898563e+00 
338 0 1 1.0293043327333473e+00 -3.6658198399862997e+01 1.0000000000000000e+00 6.1981299808288473e+00 1.7297594267012759e+01 2.2072996722809353e+00 
176 0 1 1.0407268880728326e+00 -5.9557974646455584e+01 1.0000000000000000e+00 5.3840735106345834e+00 1.8851467205156450e+01 2.8967924477474156e+00 
246 0 1 1.0148506985160846e+00 -1.5389964052230530e+01 1.0000000000000000e+00 4.1993854934751225e+00 1.8512243971394224e+01 3.2184332283098493e+00 
320 0 1 1.0247621933127975e+00 -3.1840450913161643e+01 1.0000000000000000e+00 5.2107271274382327e+00 1.6991904866316403e+01 3.2671507368651960e+00 
221 0 1 1.0301617110945624e+00 -1.9301718869152268e+01 1.0000000000000000e+00 5.4889082067442994e+00 1.1487482487542239e+01 3.5422283879195846e+00 
608 0 1 1.0612028865169292e+00 -4.3878452638785383e+01 1.0000000000000000e+00 5.2748158960317113e+00 1.2884378825406740e+01 4.4441279644063556e+00 
607 0 1 1.0254143582937782e+00 -3.5337608131022961e+01 1.0000000000000000e+00 4.7644089122054307e+00 1.0922923933487054e+01 6.1679764016137257e+00 
357 0 1 1.0372632718454120e+00 -3.5890132001495836e+01 1.0000000000000000e+00 4.0820525599433157e+00 1.1301469129958955e+01 5.2991283927988340e+00 
74 0 1 1.0319258057083689e+00 -3.4798832052123693e+01 1.0000000000000000e+00 3.9135943332511407e+00 1.0926218358308358e+01 4.6984037020336693e+00 
84 0 1 1.0092532044622624e+00 -7.7826335880826946e+01 1.0000000000000000e+00 4.0379362409880057e+00 1.1526167028754518e+01 4.7305481219611263e+00 
475 0 1 1.0599064540446430e+00 -4.1079781739327217e+01 1.0000000000000000e+00 5.1945804584642792e+00 1.3137079561573483e+01 6.0087334818366021e+00 
88 0 1 1.0163125535726629e+00 -2.9724920599859516e+01 1.0000000000000000e+00 5.6854290199597601e+00 1.3297714784949557e+01 6.4187718885336285e+00 
340 0 1 1.0514759556532245e+00 -2.7487509694677076e+01 1.0000000000000000e+00 6.6260962424784333e+00 1.0747256378418392e+01 3.6688610160716570e+00 
505 0 1 1.0207183441231402e+00 -1.8196005311668070e+01 1.0000000000000000e+00 6.6311121142097598e+00 1.2118416092462343e+01 6.4683620338121006e+00 
60 0 1 1.0050285834552011e+00 -3.6734428150331858e+01 1.0000000000000000e+00 6.6614049663105863e+00 1.4198324378372808e+01 4.6722524201748916e+00 
205 0 1 1.0350591065590486e+00 -3.6642535214993558e+01 1.0000000000000000e+00 4.6131648189666583e+00 1.4042877394300749e+01 4.0887727292006835e+00 
99 0 1 1.0204410489042759e+00 -5.5997249281003292e+01 1.0000000000000000e+00 4.3709869792986611e+00 1.4190958944916938e+01 4.4149310681201044e+00 
405 0 1 1.0131054377074340e+00 -1.6705158781654394e+01 1.0000000000000000e+00 4.3855047502003632e+00 1.4388823277605507e+01 4.9221089073091084e+00 
527 0 1 1.0056559317928291e+00 -3.7694994534734683e+01 1.0000000000000000e+00 4.5091702175573962e+00 1.5295506126298266e+01 4.1031201576159209e+00 
200 0 1 1.0882916978119972e+00 -2.2267378061098920e+01 1.0000000000000000e+00 5.4873069252260542e+00 1.6142453231718260e+01 3.6680983778426119e+00 
220 0 1 9.8220183037798980e-01 -2.0572916103576738e+01 1.0000000000000000e+00 5.5066195820531600e+00 1.4364441330429543e+01 3.6186002793424792e+00 
173 0 1 9.7507363901822974e-01 -2.1085692093106854e+01 1.0000000000000000e+00 5.2224752291840870e+00 1.5925095883534173e+01 5.7770735808388931e+00 
386 0 1 1.0316248969212554e+00 -1.4726796404757241e+01 1.0000000000000000e+00 6.4288007679444013e+00 1.5551196255896997e+01 5.7055498660576838e+00 
5 0 1 1.0324830665373295e+00 -2.7280365568178169e+01 1.0000000000000000e+00 6.5411452589515848e+00 1.5540528900521821e+01 4.0579751221979086e+00 
306 0 1 1.0586868861010172e+00 -3.7078907877501699e+01 1.0000000000000000e+00 5.2669734464312699e+00 1.7299234969160562e+01 4.0802581475789674e+00 
32 0 1 1.0696430416944880e+00 -3.0671029941971440e+01 1.0000000000000000e+00 5.7996476176363352e+00 1.8414996737125112e+01 3.9639069162106915e+00 
241 0 1 9.9150466628780332e-01 -1.6304675313809540e+01 1.0000000000000000e+00 3.9857946894405232e+00 1.8761490473806045e+01 5.9493393210702710e+00 
641 0 1 1.0010903586034119e+00 -4.8176695103974978e+01 1.0000000000000000e+00 5.4886898317980526e+00 1.7392888689874329e+01 5.7955269512675587e+00 
564 0 1 1.0521445344569025e+00 -2.9380351725879219e+01 1.0000000000000000e+00 3.5281706364131802e+00 1.9481164575229929e+01 6.5656705252127541e+00 
446 0 1 1.0413696790507665e+00 -3.8427164620447350e+01 1.0000000000000000e+00 4.5977105718160667e+00 1.9654585989252528e+01 5.7021841960589112e+00 
418 0 1 1.0530217160607405e+00 -1.7635098169707252e+01 1.0000000000000000e+00 4.4219704439859910e+00 1.8014448603820426e+01 6.4872549210883284e+00 
16 0 1 1.0568423604726662e+00 -3.5786836344842740e+01 1.0000000000000000e+00 3.3606005506563132e+00 1.0199939909270848e+01 9.3158850718714561e+00 
168 0 1 1.0387413934427632e+00 -3.6454739664921760e+01 1.0000000000000000e+00 5.6474098091824585e+00 1.2791888003471962e+01 6.7620786991364934e+00 
465 0 1 1.0232607645536984e+00 -1.1326073606749832e+01 1.0000000000000000e+00 3.7091540538559924e+00 1.1117296095067804e+01 8.9197921779671923e+00 
283 0 1 1.0479333594153293e+00 -2.1365562313676843e+01 1.0000000000000000e+00 5.9238852871029293e+00 1.1102251688490405e+01 9.5027664844854254e+00 
594 0 1 1.0556043896940097e+00 -4.9500233342391077e+01 1.0000000000000000e+00 3.7820264804467167e+00 1.1301329186075250e+01 9.7345537181964730e+00 
171 0 1 1.0034188574382752e+00 -2.1169258263079051e+01 1.0000000000000000e+00 4.6971729416361701e+00 1.1116804786389654e+01 6.7172923218465375e+00 
347 0 1 1.0139517084149934e+00 -2.5566715420662582e+01 1.0000000000000000e+00 6.4557465542694796e+00 1.1207155311823991e+01 7.6033098745943031e+00 
508 0 1 1.0257344346410679e+00 -2.4565002734172054e+01 1.0000000000000000e+00 5.5945723031745045e+00 1.1923704854198970e+01 8.3071240827702439e+00 
179 0 1 1.0313274918875579e+00 -2.2000354588749861e+01 1.0000000000000000e+00 3.6459434912589734e+00 1.0169577655260843e+01 8.4482971198497179e+00 
355 0 1 9.7938243432491523e-01 -1.3195404740233078e+01 1.0000000000000000e+00 6.1076922002229033e+00 1.2647534208636561e+01 9.9036831874292997e+00 
120 0 1 1.0210038492333866e+00 -3.9587571063508328e+01 1.0000000000000000e+00 5.8766410372603586e+00 1.6333187410085802e+01 7.3294019038363807e+00 
555 0 1 1.0111546428768858e+00 -3.3243697251541377e+01 1.0000000000000000e+00 6.1892950083586413e+00 1.5596169470194161e+01 9.7417382647519535e+00 
196 0 1 1.0337440374731859e+00 -1.4470206736232084e+01 1.0000000000000000e+00 2.6792238196092981e+00 1.9060274013442886e+01 7.8547011538839975e+00 
618 0 1 1.0147759103669201e+00 -2.6022181604779995e+01 1.0000000000000000e+00 2.7595242095972039e+00 1.8443379681430606e+01 7.7974144196079376e+00 
486 0 1 1.0446307135081734e+00 -1.9196349557091313e+01 1.0000000000000000e+00 2.9672364674157636e+00 1.9670540012806928e+01 9.3684560880348418e+00 
542 0 1 1.0173510881197116e+00 -4.2400105629188950e+01 1.0000000000000000e+00 3.0869197755540312e+00 1.9660869094561388e+01 7.2058494239131115e+00 
146 0 1 1.0334349950071642e+00 -3.2133263281846972e+01 1.0000000000000000e+00 3.2337774487455597e+00 1.8043793894288928e+01 9.0104660206955973e+00 
178 0 1 1.0159760991764641e+00 -2.7620742196423016e+01 1.0000000000000000e+00 4.6316027138353855e+00 1.6835764813292496e+01 7.6987662992431503e+00 
519 0 1 1.0258271212240475e+00 -3.1044429801478362e+01 1.0000000000000000e+00 6.0048727199149239e+00 1.7598451694976337e+01 9.9486118414189111e+00 
188 0 1 1.0270501678497754e+00 -1.9962723819644133e+01 1.0000000000000000e+00 3.4804453258552095e+00 1.8398399687330343e+01 9.5788084520226615e+00 
244 0 1 1.0718371611876030e+00 -3.6069326086278203e+01 1.0000000000000000e+00 5.0802950894334415e+00 1.8826629484076069e+01 9.2911857575597434e+00 
630 0 1 1.0227927799590177e+00 -4.8130176205588064e+01 1.0000000000000000e+00 4.4533795866868813e+00 1.6983183683983942e+01 7.9447373109305239e+00 
152 0 1 1.0012602750126254e+00 -2.9710892298620216e+01 1.0000000000000000e+00 6.5416927600586412e+00 1.8735546425691343e+01 9.4899165263899405e+00 
235 0 1 9.9019127022989151e-01 -2.6717415548300785e+01 1.0000000000000000e+00 3.9938924709406702e+00 1.7132370091006109e+01 8.0281081655007185e+00 
252 0 1 1.0514063841684795e+00 -3.4599071274426521e+01 1.0000000000000000e+00 6.1658281934548524e+00 1.7305278804491202e+01 7.6450579593212620e+00 
126 0 1 1.0107424199551656e+00 -3.4369742581711670e+01 1.0000000000000000e+00 3.3743110892991361e+00 1.0463359889530379e+01 1.0614241913592982e+01 
411 0 1 1.0055281722784022e+00 5.7256820440490586e+00 1.0000000000000000e+00 5.5162454606670703e+00 1.2535948174223625e+01 1.1968828645277407e+01 
49 0 1 9.9674831283982102e-01 -5.9878485558561060e+01 1.0000000000000000e+00 6.4933664046893282e+00 1.0520888206397657e+01 1.3287052516994596e+01 
572 0 1 1.0251377323102058e+00 -4.6026484596978527e+01 1.0000000000000000e+00 3.5645857088635435e+00 1.0658486903153197e+01 1.0710495303213627e+01 
238 0 1 1.0201198678575687e+00 -2.9172225767892424e+01 1.0000000000000000e+00 5.8549691054217670e+00 1.2636727941833630e+01 1.2220892056607948e+01 
185 0 1 1.0447252012974295e+00 -2.4278363836059899e+01 1.0000000000000000e+00 6.0002379599089002e+00 1.1825116947435053e+01 1.2409527091072370e+01 
501 0 1 1.0434178531258407e+00 -4.0574350909450317e+01 1.0000000000000000e+00 3.9959993299272729e+00 1.1347094201992689e+01 1.0235755823308695e+01 
622 0 1 1.0241368990263815e+00 -4.6811531498956448e+01 1.0000000000000000e+00 6.2929797897777950e+00 1.0401078655859960e+01 1.1056265927476845e+01 
374 0 1 1.0322286255816255e+00 -1.5036895780167667e+01 1.0000000000000000e+00 6.3327891407067494e+00 1.0293063670083667e+01 1.2569168099586665e+01 
313 0 1 1.0472638623933008e+00 -1.2451897353472750e+01 1.0000000000000000e+00 6.1530740616561124e+00 1.3254338298809568e+01 1.1975164746926321e+01 
63 0 1 1.0202266809360103e+00 -2.9619572985263595e+01 1.0000000000000000e+00 5.6827223196828909e+00 1.3557786348608017e+01 1.0867009443731369e+01 
276 0 1 9.9928206391552865e-01 -5.7075719129521163e+00 1.0000000000000000e+00 6.2574733213792886e+00 1.4640432629370684e+01 1.1663980056222259e+01 
643 0 1 1.0431829849568584e+00 -5.0916244226340652e+01 1.0000000000000000e+00 6.1441990860822768e+00 1.5700831862933834e+01 1.1284377383890792e+01 
94 0 1 1.0195157584651560e+00 -2.2770238354605791e+01 1.0000000000000000e+00 6.2991191527119703e+00 1.3651336294945530e+01 1.0475577898441284e+01 
90 0 1 1.0326590650333329e+00 -1.3745346380687625e+01 1.0000000000000000e+00 6.0110702802209799e+00 1.5951552042438950e+01 1.0081830424592562e+01 
225 0 1 1.0171743089129974e+00 -2.0687164055797187e+01 1.0000000000000000e+00 3.7631487955421687e+00 1.9138423380759154e+01 1.0037478050175427e+01 
38 0 1 9.7773153445272754e-01 -8.3368208610094161e+00 1.0000000000000000e+00 5.9047916883683138e+00 1.6738182755188319e+01 1.0845674021518617e+01 
619 0 1 1.0611381409611595e+00 -3.6595522385220391e+01 1.0000000000000000e+00 8.1688336827738208e+00 1.5768417199538598e+00 1.8359957175405777e+00 
367 0 1 1.0229984245446655e+00 -1.2557449217853321e+01 1.0000000000000000e+00 7.8935252507177731e+00 2.4076942495752713e+00 1.6732479144505692e+00 
193 0 1 1.0650904052181964e+00 -2.4966027444426683e+01 1.0000000000000000e+00 7.1278974795243286e+00 1.1158317786304472e+00 3.1332857539216166e+00 
166 0 1 9.8959721749501783e-01 -6.4546987875005835e+00 1.0000000000000000e+00 7.7993457663165762e+00 3.6610282248350939e-01 1.6009689850978410e+00 
561 0 1 1.0381387877059667e+00 -2.1701188178652416e+01 1.0000000000000000e+00 7.9885746080120814e+00 1.2177522834463299e+00 1.6794325823303644e+00 
365 0 1 1.0103294485133252e+00 -4.1966769868112557e+01 1.0000000000000000e+00 7.6676358641700864e+00 2.9806324498215018e+00 3.0930114694200670e+00 
398 0 1 1.0008113688520976e+00 -3.2391147811146617e+01 1.0000000000000000e+00 1.0206577991414594e+01 2.4244243195557580e+00 1.0474154049452673e+00 
20 0 1 1.0211650204598774e+00 -3.7425178815317174e+01 1.0000000000000000e+00 1.0771307062436751e+01 2.0737177262755342e+00 1.1971276168052807e+00 
333 0 1 1.0269533623559775e+00 -2.0490944778953782e+01 1.0000000000000000e+00 1.0637163460228193e+01 6.3571364078825709e-01 1.3405594320532130e+00 
461 0 1 1.0426039283863355e+00 -2.7569529136459007e+01 1.0000000000000000e+00 1.0441154656430847e+01 2.9499054889145917e+00 2.2401808221602111e+00 
103 0 1 1.0513343222052292e+00 -3.4162079649246685e+01 1.0000000000000000e+00 1.0752140142619806e+01 7.2225210867153333e-01 1.5137526467626630e+00 
403 0 1 1.0174413905484931e+00 -3.3781551620949835e-01 1.0000000000000000e+00 1.1390960939748210e+01 1.2640665075888389e+00 1.3728308510162055e+00 
80 0 1 1.0347400206065294e+00 -3.0679269979122768e+01 1.0000000000000000e+00 1.3270587376273406e+01 2.6008527526633047e+00 6.8243027100899870e-02 
140 0 1 1.0466001834324337e+00 -5.5359525453255102e+01 1.0000000000000000e+00 1.3221709639017629e+01 2.4745183410332028e+00 1.5326200097957585e-01 
329 0 1 1.0519010621422957e+00 -3.9834848511006548e+01 1.0000000000000000e+00 1.3046605135990378e+01 6.1842093247658425e-01 2.0595746798478456e+00 
164 0 1 1.0814831313146454e+00 -4.1800765319015136e+00 1.0000000000000000e+00 1.3287183214150790e+01 2.3338158522371679e+00 3.6991222196282814e-01 
62 0 1 1.0062638390968290e+00 -2.7448649028471721e+01 1.0000000000000000e+00 7.4754522014741784e+00 4.4460853817314527e+00 1.1703696395835805e+00 
490 0 1 1.0605420712502860e+00 -3.4388874249829179e+01 1.0000000000000000e+00 7.5272677199817046e+00 4.8134269424098948e+00 2.5283326030098383e+00 
71 0 1 1.0214262605286148e+00 -6.9409061253959038e+01 1.0000000000000000e+00 8.1392241008768522e+00 5.3818350074691628e+00 8.2790801278395576e-01 
132 0 1 9.7760703269394666e-01 -1.5141907060040618e+01 1.0000000000000000e+00 9.6271623257324830e+00 4.5636390412872920e+00 6.6533767226674778e-01 
218 0 1 1.0180195916806039e+00 -2.9819767606216363e+01 1.0000000000000000e+00 7.4310231679380285e+00 4.6074832510947141e+00 2.9828152474496115e+00 
167 0 1 1.0510751091915427e+00 -2.0771024779972919e+01 1.0000000000000000e+00 7.9497229856562805e+00 5.2126791183570527e+00 9.5297013119603824e-01 
86 0 1 1.0621333982966681e+00 -2.2475446680943538e+01 1.0000000000000000e+00 8.9299945303039294e+00 3.4295778378595179e+00 9.6277291199081272e-01 
13 0 1 1.0511654050885944e+00 -3.0316671891485804e+01 1.0000000000000000e+00 9.4210426634518338e+00 5.8173204787150556e+00 1.7883701298643586e+00 
454 0 1 1.0002315778860256e+00 -2.5605193125240820e+01 1.0000000000000000e+00 8.1995754003237131e+00 5.8515947441928100e+00 1.0856035116649652e+00 
515 0 1 9.9412561460232862e-01 -1.5644121530107231e+01 1.0000000000000000e+00 7.1716056809363522e+00 4.3463439348909718e+00 3.0605287747961927e+00 
449 0 1 1.0753789917792185e+00 -2.2551965437433857e+01 1.0000000000000000e+00 9.6019399665019840e+00 4.2944943174706633e+00 2.6446376135640457e+00 
635 0 1 1.0216229769537939e+00 -2.5958809297171740e+01 1.0000000000000000e+00 9.6272125665411963e+00 3.8432810592089179e+00 8.6863918500980386e-01 
570 0 1 1.0404817872854364e+00 -2.1834509903480232e+01 1.0000000000000000e+00 1.2672306952565586e+01 3.7441941116096102e+00 2.1286241966790085e+00 
627 0 1 1.0146227853786935e+00 -3.0615821734320157e+01 1.0000000000000000e+00 1.0259923152008307e+01 6.5805587614479437e+00 1.6767480911129919e+00 
75 0 1 1.0424933885128782e+00 -5.6224035842388354e+01 1.0000000000000000e+00 1.2140176710586019e+01 5.8267801743905334e+00 1.2270783515550976e+00 
137 0 1 1.0174362116733868e+00 -4.7042623200001444e+01 1.0000000000000000e+00 1.1808423440786807e+01 5.7220270477254074e+00 1.1647788162884247e+00 
350 0 1 1.0490308447075110e+00 -3.5962826949781970e+01 1.0000000000000000e+00 1.2064635875906642e+01 4.5411818503074723e+00 7.9081006821848543e-01 
259 0 1 1.0405643643228970e+00 -2.7254175889368010e+01 1.0000000000000000e+00 1.2080804322788877e+01 4.4074711722233495e+00 3.1871623934029287e+00 
157 0 1 1.0207257022326510e+00 -1.8270874920422273e+01 1.0000000000000000e+00 1.3073933112697791e+01 6.1973076000816780e+00 2.0080231615269981e+00 
266 0 1 1.0276509598681731e+00 -2.7896709159245837e+01 1.0000000000000000e+00 1.2793683802259890e+01 4.4128059583944843e+00 3.1463700268443140e-01 
404 0 1 1.0390246153922460e+00 -2.6983431728644359e+01 1.0000000000000000e+00 9.7291314336472539e+00 8.8275041454801020e+00 2.2046215076797688e+00 
389 0 1 1.0095054576064582e+00 -2.2922692246814311e+01 1.0000000000000000e+00 7.9595656999464577e+00 7.7312806675456986e+00 2.4305263105885522e+00 
317 0 1 9.7206010953777311e-01 -5.4317521060358182e+01 1.0000000000000000e+00 7.9527029988201852e+00 8.3709537260556353e+00 2.0125055501908018e+00 