LAMMPS data file via write_data, version 30 Jul 2016, timestep = 50000000

4620 atoms
8 atom types

0.0000000000000000e+00 1.0000000000000000e+02 xlo xhi
0.0000000000000000e+00 4.0000000000000000e+01 ylo yhi
0.0000000000000000e+00 4.0000000000000000e+01 zlo zhi

Masses

1 3.896
2 5.36
3 20.064
4 8.378
5 8.378
6 8.378
7 8.378
8 8.378

Atoms # meso-molecular

799 800 2 1.0280000000000000e+00 -7.2612784827235942e+01 1.0000000000000000e+00 3.3067610831702673e+01 6.0059917148079247e+00 6.2263588480599685e-01 
2145 2146 2 1.0280000000000000e+00 -2.4083097277745989e+02 1.0000000000000000e+00 3.3261217742719523e+01 7.5232493614780775e+00 9.5267330672922501e-01 
2767 2768 2 1.0280000000000002e+00 -6.8661151015615388e+01 1.0000000000000000e+00 3.1243360030068018e+01 1.8483429799745704e+01 2.3752082187142873e+00 
2231 2232 2 1.0280000000000005e+00 -4.5103828125462897e+01 1.0000000000000000e+00 1.7053034413264129e+01 1.1751429640270898e+01 4.3622624961531979e+00 
2232 2233 2 1.0280000000000005e+00 1.6744533151111051e+02 1.0000000000000000e+00 1.6560055445744890e+01 1.3103886875257357e+01 3.7488211645177190e+00 
1255 1256 2 1.0279999999999996e+00 -1.7053150671787262e+02 1.0000000000000000e+00 1.3303980751451842e+01 1.8088044496608195e+01 4.0271402387138968e+00 
1764 1765 2 1.0280000000000000e+00 8.4419986545681923e+01 1.0000000000000000e+00 2.2909725648680549e+01 1.8036232308608536e+01 3.0794163478927774e+00 
1254 1255 2 1.0279999999999996e+00 4.5823756631211353e+01 1.0000000000000000e+00 1.2409931219713103e+01 1.8972091669601820e+01 3.0956816336422639e+00 
2142 2143 2 1.0280000000000000e+00 -1.1865389581894975e+02 1.0000000000000000e+00 2.2673297301430736e+01 1.9282581089622553e+01 3.9954924664134293e+00 
3234 3235 2 1.0280000000000002e+00 -2.8901284598187942e+02 1.0000000000000000e+00 3.2071689307791608e+01 1.9448205600544156e+01 3.2871058906610289e+00 
1387 1388 2 1.0279999999999965e+00 -2.8892855859487292e+02 1.0000000000000000e+00 3.1764267031242905e+01 1.5678543558693903e+01 5.4850487731742259e+00 
1854 1855 2 1.0279999999999965e+00 -6.8831686480230786e+01 1.0000000000000000e+00 3.3221386517051464e+01 1.6248260901572085e+01 5.5115828181566213e+00 
1933 1934 2 1.0280000000000002e+00 9.8300271368785786e+01 1.0000000000000000e+00 3.1924934200134214e+01 1.3655226265949739e+01 8.7764705426170124e+00 
44 45 2 1.0280000000000007e+00 -4.1497186550023187e+01 1.0000000000000000e+00 3.2899789572586926e+01 1.6852585052306740e+01 1.0113391642912317e+01 
1887 1888 2 1.0280000000000000e+00 7.1353244808388652e+01 1.0000000000000000e+00 1.1491588669430902e+01 1.4387326343181069e+01 1.0982209198532161e+01 
126 127 2 1.0280000000000000e+00 6.5061239346584642e+01 1.0000000000000000e+00 1.1907090348033078e+01 1.5584770939724413e+01 1.1899795104881093e+01 
1 2 2 1.0280000000000007e+00 -7.2507038169441870e+01 1.0000000000000000e+00 3.2031095652147769e+01 1.7123488198044420e+01 1.1386365114931174e+01 
933 934 2 1.0280000000000002e+00 1.8899863384402249e+02 1.0000000000000000e+00 1.8454440486974910e+01 3.2498687982555436e+00 1.4167367783823309e+01 
934 935 2 1.0280000000000002e+00 5.3633159650334605e+01 1.0000000000000000e+00 1.9089645794156056e+01 3.2270661179522109e+00 1.5597218600426970e+01 
2434 2435 2 1.0280000000000000e+00 -4.9354108690703256e+01 1.0000000000000000e+00 2.4926074800367626e+01 8.0975510353316089e+00 1.6428257182058779e+01 
3109 3110 2 1.0280000000000000e+00 8.3794835009070738e+01 1.0000000000000000e+00 1.4905713123621283e+01 1.2111294995379811e+01 1.6156043119948354e+01 
2563 2564 2 1.0280000000000000e+00 -1.1922476049046804e+02 1.0000000000000000e+00 1.3910894189261295e+01 1.1122443446671070e+01 1.6849575386463368e+01 
2010 2011 2 1.0280000000000002e+00 1.0828751377215398e+00 1.0000000000000000e+00 5.6551568327339119e+00 1.7968987446622620e+01 1.6772510853642707e+01 
2311 2312 2 1.0279999999999994e+00 -3.2888837550386449e+02 1.0000000000000000e+00 2.0350587078221309e+01 1.7624903777323809e+01 1.5719403065416243e+01 
2472 2473 2 1.0280000000000002e+00 1.1027250279590641e+00 1.0000000000000000e+00 4.9038302581514586e+00 1.9333317376083269e+01 1.6922814959196632e+01 
4332 4333 2 1.0279999999999994e+00 1.1634008572153851e+02 1.0000000000000000e+00 1.9072711002621475e+01 1.8520073114393238e+01 1.5600307743835081e+01 
2443 2444 2 1.0280000000000011e+00 1.0772656566378991e+00 1.0000000000000000e+00 1.0333635925006067e+01 5.4458519806051287e-01 1.7109500070378580e+01 
3354 3355 2 1.0280000000000000e+00 -1.7308699150533107e+02 1.0000000000000000e+00 2.4491956716061328e+01 8.5500888599548883e+00 1.7861864558018365e+01 
2521 2522 2 1.0279999999999987e+00 2.0115983779280424e+02 1.0000000000000000e+00 1.7461699890948449e+01 8.1182773792905980e+00 1.8665896160680944e+01 
2522 2523 2 1.0279999999999987e+00 1.1698432867767484e+02 1.0000000000000000e+00 1.8973464051321418e+01 7.7454315517502117e+00 1.8510866439208520e+01 
3193 3194 2 1.0280000000000002e+00 -2.8615028443647236e+02 1.0000000000000000e+00 1.3501073653056316e+01 1.3610467220340587e+01 1.9494090752579634e+01 
2736 2737 2 1.0280000000000002e+00 -6.6412074626439789e+01 1.0000000000000000e+00 1.4372152651697029e+01 1.4755284171512946e+01 1.8878384143326667e+01 
170 171 2 1.0280000000000011e+00 2.5163952496158707e+01 1.0000000000000000e+00 3.2876085690506279e+01 1.8913892158438788e+01 1.8664913459450030e+01 
124 125 2 1.0279999999999998e+00 -1.6340949356466780e+01 1.0000000000000000e+00 1.2195081038909766e+01 3.4093549725569128e+00 2.0741811420146831e+01 
2606 2607 2 1.0280000000000002e+00 1.8621943711813058e+00 1.0000000000000000e+00 2.5047322174744995e+01 1.5036044390989204e+01 2.0684832138294677e+01 
2689 2690 2 1.0280000000000002e+00 2.5492423901451822e+01 1.0000000000000000e+00 2.6574495773498825e+01 1.5024013849463095e+01 2.1025530197552623e+01 
82 83 2 1.0279999999999998e+00 1.7787638965153491e+01 1.0000000000000000e+00 1.0900715480470616e+01 3.4429380227404214e+00 2.1620429131161782e+01 
1347 1348 2 1.0280000000000000e+00 1.0419235799447165e+02 1.0000000000000000e+00 5.6024200360971905e+00 4.4462276940372698e+00 2.4150473665682938e+01 
3952 3953 2 1.0279999999999998e+00 6.0798939049503005e+01 1.0000000000000000e+00 1.7074104024024695e+01 3.6313482724193289e+00 2.4029944065643477e+01 
1348 1349 2 1.0280000000000000e+00 -1.9884291689199571e+01 1.0000000000000000e+00 6.7957358524522675e+00 5.2734968938170876e+00 2.3567290902070411e+01 
718 719 2 1.0279999999999998e+00 6.0671192843330971e+01 1.0000000000000000e+00 1.6890741897022469e+01 5.1852239872587900e+00 2.4048046426142719e+01 
4541 4542 2 1.0279999999999994e+00 -5.7712339901108276e+00 1.0000000000000000e+00 2.7903330179881554e+01 1.7906122918614404e+01 2.4467308604205186e+01 
4460 4461 2 1.0279999999999994e+00 -7.3131784692458496e+01 1.0000000000000000e+00 2.7646715384496453e+01 1.9343558666389871e+01 2.3904808453050610e+01 
4420 4421 2 1.0280000000000000e+00 1.4908143877880005e+02 1.0000000000000000e+00 2.5870618073207222e+01 6.0241645520006770e-01 2.5748893609573798e+01 
1891 1892 2 1.0280000000000000e+00 2.5625635508751284e+01 1.0000000000000000e+00 9.3152730856316754e+00 1.2295370074105813e+01 2.5348176669619047e+01 
1976 1977 2 1.0280000000000000e+00 2.1365359261581660e+00 1.0000000000000000e+00 7.7779389572142339e+00 1.2585988744314932e+01 2.5323203316397304e+01 
3487 3488 2 1.0279999999999985e+00 -9.3921546094278867e+01 1.0000000000000000e+00 2.9470765670303201e+01 1.8881355917619935e+01 2.5875752562643861e+01 
4252 4253 2 1.0280000000000000e+00 -1.1913801346924197e+02 1.0000000000000000e+00 2.5549703197545231e+01 8.1176366979333359e-01 2.7266018023906110e+01 
1602 1603 2 1.0279999999999991e+00 2.3926665016404655e+02 1.0000000000000000e+00 3.1966234682495738e+01 1.1825316270716515e+01 2.7593795111216281e+01 
1603 1604 2 1.0279999999999991e+00 3.5802920295820265e+01 1.0000000000000000e+00 3.3269488796254763e+01 1.2689603644770367e+01 2.7538884709072835e+01 
3949 3950 2 1.0279999999999985e+00 -4.0098036029164021e+01 1.0000000000000000e+00 3.0447678068626686e+01 1.8914605573325122e+01 2.7097642790381045e+01 
943 944 2 1.0280000000000005e+00 2.3175892508525514e+01 1.0000000000000000e+00 2.3360367802129613e+01 8.9538771080067754e+00 2.9088046866895677e+01 
2264 2265 2 1.0280000000000002e+00 -4.5105119860414192e+01 1.0000000000000000e+00 1.1484026154250881e+01 1.4458347793937940e+00 3.0640359829955308e+01 
2316 2317 2 1.0280000000000000e+00 -6.8749051604623418e+01 1.0000000000000000e+00 6.1301394666717552e+00 2.7286114912199912e+00 2.9997441881884967e+01 
2263 2264 2 1.0280000000000002e+00 1.6743940478505721e+02 1.0000000000000000e+00 1.1652970450609731e+01 2.9191498859752794e+00 3.0141080826101884e+01 
2773 2774 2 1.0280000000000000e+00 -2.8905344746755316e+02 1.0000000000000000e+00 4.8478253417025323e+00 3.5539212002841989e+00 3.0348174645212030e+01 
3655 3656 2 1.0280000000000000e+00 -9.0528961377473451e+01 1.0000000000000000e+00 2.6661250528042736e+01 7.5749040351088128e+00 3.0075174468642885e+01 
1345 1346 2 1.0280000000000000e+00 -9.0638112635273728e+01 1.0000000000000000e+00 2.7313993559756248e+01 8.8515103171415532e+00 2.9448530999462630e+01 
1949 1950 2 1.0280000000000005e+00 -4.9215527176228562e+01 1.0000000000000000e+00 2.1954061573566996e+01 9.3660860487183974e+00 2.9636559111923678e+01 
3284 3285 2 1.0279999993809847e+00 -2.9297188366989843e+01 1.0000000000000000e+00 3.2840997449535735e+01 2.0959932702932380e-01 3.1097011844715933e+01 
2560 2561 2 1.0279999999999996e+00 -1.0354979520557779e+02 1.0000000000000000e+00 8.1446772799421510e+00 6.4974305916886266e+00 3.2163746457053911e+01 
1377 1378 2 1.0279999999999998e+00 5.2211538927825302e+01 1.0000000000000000e+00 3.2143907149238451e+01 2.5623165783700226e+00 3.2915906251695745e+01 
3022 3023 2 1.0279999999999996e+00 -7.2111450665468254e+01 1.0000000000000000e+00 7.1752447830182042e+00 7.6999009335284327e+00 3.2414235604814316e+01 
2219 2220 2 1.0279999999999998e+00 -1.0712174640401142e+02 1.0000000000000000e+00 3.1236362731348784e+01 3.1409483266554030e+00 3.4051700040935579e+01 
586 587 2 1.0279999970369149e+00 -1.7619111096618223e+01 1.0000000000000000e+00 3.1637181542417988e+01 1.2909318533731415e+00 3.5795619283049774e+01 
210 211 2 1.0280000015913779e+00 -8.1976264225386643e+01 1.0000000000000000e+00 3.2574550256499890e+01 3.0031053276276589e+00 3.6274767861857541e+01 
4239 4240 2 1.0280000000000029e+00 3.9560805453351207e+01 1.0000000000000000e+00 2.6538976999398063e+01 8.7247362979145109e+00 3.6498006227594487e+01 
1386 1387 2 1.0280000000000000e+00 -9.2255197481766231e+01 1.0000000000000000e+00 1.8046199068363300e+01 1.6371014360777298e+01 3.5981911796152652e+01 
168 169 2 1.0279999987380621e+00 -2.7485200965756736e+01 1.0000000000000000e+00 3.3089801641867837e+01 3.2813665748393315e+00 3.7754820751598267e+01 
3862 3863 2 1.0280000000000029e+00 -1.0863740557623322e+02 1.0000000000000000e+00 2.7854253824453252e+01 8.4165068108411667e+00 3.7287639407630309e+01 
759 760 2 1.0279999999999994e+00 -1.0899584606443788e+02 1.0000000000000000e+00 2.3867958111275973e+00 1.1523604400123340e+01 3.7748001531715701e+01 
382 383 2 1.0279999999999994e+00 3.9594138437461247e+01 1.0000000000000000e+00 3.8556695735955864e+00 1.1011266484294950e+01 3.7916521062275308e+01 
3367 3368 2 1.0279999999999998e+00 4.4511457330531364e+01 1.0000000000000000e+00 2.8711401843464490e+01 1.3437113872130499e+01 3.8274979949136302e+01 
3366 3367 2 1.0279999999999998e+00 -1.7051855891922963e+02 1.0000000000000000e+00 2.8969966100621150e+01 1.4955562517728142e+01 3.7999412647291578e+01 
966 967 2 1.0280000000000000e+00 -9.2217544175139551e+01 1.0000000000000000e+00 1.7995231037320377e+01 1.6259850532486105e+01 3.7541887425876887e+01 
2035 2036 2 1.0280000000000000e+00 2.4137486442756648e+02 1.0000000000000000e+00 2.8035271432306658e+01 3.5338981961854145e+01 1.3433899480422513e+00 
284 285 2 1.0279999999999998e+00 9.9376201535703018e+01 1.0000000000000000e+00 2.1920370491893689e+01 3.5819983854037460e+01 1.2125768036858831e+00 
2497 2498 2 1.0280000000000000e+00 2.4196922575247345e+02 1.0000000000000000e+00 2.8445430087747987e+01 3.6845344240053436e+01 1.4488492597556926e+00 
4368 4369 2 1.0279999999999998e+00 -8.1369873595702018e+01 1.0000000000000000e+00 2.6717021666273556e+01 2.9909472449492238e+01 2.4739129593487270e+00 
3194 3195 2 1.0279999999999994e+00 5.9457983089735691e+01 1.0000000000000000e+00 2.9861718736983924e+01 3.0257469866482566e+01 3.0188154294783311e+00 
374 375 2 1.0279999999999998e+00 7.0264031706329192e+01 1.0000000000000000e+00 2.2705106731210343e+01 3.6832580360287643e+01 2.1110847070875995e+00 
4326 4327 2 1.0279999999999998e+00 -2.6760077777386151e+01 1.0000000000000000e+00 2.6992099687471644e+01 2.9417825608448180e+01 3.9337398560003174e+00 
3656 3657 2 1.0279999999999994e+00 1.6861202472600031e+01 1.0000000000000000e+00 2.9466629008456358e+01 3.0163846092506411e+01 4.5299798141833012e+00 
2315 2316 2 1.0279999999999996e+00 -8.1865057543487609e+01 1.0000000000000000e+00 3.2916534148195602e+01 3.0077544501579403e+01 8.1796798309135017e+00 
2229 2230 2 1.0279999999999996e+00 3.7974732016382731e+01 1.0000000000000000e+00 2.6889658028841588e+01 3.4798941360874309e+01 8.2620780140256755e+00 
2809 2810 2 1.0280000000000000e+00 -1.0306455212966620e+02 1.0000000000000000e+00 5.5982334420911171e+00 2.9614474984935274e+01 1.0701546357195170e+01 
1767 1768 2 1.0279999999999996e+00 1.7388298912829679e+01 1.0000000000000000e+00 2.6761751255532818e+01 3.5637693676599255e+01 9.5768454886956462e+00 
2851 2852 2 1.0280000000000000e+00 9.2889290078533634e+01 1.0000000000000000e+00 5.1675960897046380e+00 2.9739774488423425e+01 1.2200656295591102e+01 
2994 2995 2 1.0280000000000000e+00 -1.6300432539054469e+02 1.0000000000000000e+00 8.6701949874872799e+00 3.1941959000474384e+01 1.2946598841101792e+01 
3457 3458 2 1.0280000000000000e+00 1.7920932557020441e+02 1.0000000000000000e+00 8.9214412514235839e+00 3.3368239155085725e+01 1.3539118324040681e+01 
1771 1772 2 1.0279999999999994e+00 1.0692237354430016e+01 1.0000000000000000e+00 3.2729678718119857e+01 2.0746264121754376e+01 1.4716322812494390e+01 
1350 1351 2 1.0279999999999994e+00 3.3273321684600006e+01 1.0000000000000000e+00 3.2231231494092434e+01 2.0074111294521678e+01 1.6038533099833256e+01 
3867 3868 2 1.0279999999999996e+00 6.7812839544314997e+01 1.0000000000000000e+00 7.3511392568665839e+00 2.7735496840001787e+01 1.6909005697927423e+01 
2729 2730 2 1.0280000000000000e+00 -1.1008941692656592e+02 1.0000000000000000e+00 1.1493892870798589e+01 3.5352671585459177e+01 1.6567978937885950e+01 
2687 2688 2 1.0280000000000000e+00 9.3414865472962845e+01 1.0000000000000000e+00 1.2155639042550090e+01 3.6389540087175355e+01 1.5600779466957977e+01 
3868 3869 2 1.0279999999999996e+00 6.1750974284903791e+01 1.0000000000000000e+00 8.5437960499716539e+00 2.8088924210029280e+01 1.7858288569477338e+01 
4120 4121 2 1.0279999999999994e+00 -6.9898025121144656e+01 1.0000000000000000e+00 2.2929990920410241e+01 3.8038355531192870e+01 1.7763404241081520e+01 
1981 1982 2 1.0280000000000022e+00 1.0605101630592249e+00 1.0000000000000000e+00 9.7779894467658348e+00 3.9131261736147898e+01 1.7486664338925888e+01 
4119 4120 2 1.0279999999999994e+00 -2.4424402186108082e+01 1.0000000000000000e+00 2.2731165891689177e+01 3.9451966235708419e+01 1.7122582513706895e+01 
917 918 2 1.0279999999999996e+00 8.3460896074864674e+00 1.0000000000000000e+00 1.3992397311085574e+00 2.4555360231845032e+01 1.8936324945936772e+01 
918 919 2 1.0279999999999996e+00 -6.2672439033672546e+01 1.0000000000000000e+00 1.9552189714701913e+00 2.3094464604135482e+01 1.8864560390142906e+01 
2343 2344 2 1.0280000000000000e+00 1.3013109258158150e+02 1.0000000000000000e+00 2.2440868649256679e+01 2.3920249621743945e+01 1.9590395264759110e+01 
4072 4073 2 1.0280000000000007e+00 -1.7345409269885245e+01 1.0000000000000000e+00 3.2623323271607781e+01 2.8645209248562296e+01 1.9742363273980995e+01 
4114 4115 2 1.0280000000000007e+00 3.2389353608544702e+01 1.0000000000000000e+00 3.3277447318475787e+01 3.0065200759298175e+01 1.9677363712526166e+01 
967 968 2 1.0280000000000005e+00 -2.4894899680257232e+01 1.0000000000000000e+00 1.2645997918324024e+01 3.1534627989851383e+01 1.9426202151229951e+01 
713 714 2 1.0280000000000007e+00 -1.4111074032025061e+02 1.0000000000000000e+00 2.0049745387252971e+00 3.2865904936095305e+01 1.9911488149921727e+01 
2983 2984 2 1.0280000000000007e+00 2.3706231707326873e+02 1.0000000000000000e+00 2.8797161577441873e+01 2.1167940319131826e+01 2.1393697946977611e+01 
1881 1882 2 1.0280000000000000e+00 1.3052300353927322e+02 1.0000000000000000e+00 2.1589792673483920e+01 2.2738992205538366e+01 2.0163788412925388e+01 
505 506 2 1.0280000000000005e+00 -6.5064178666837478e+01 1.0000000000000000e+00 1.3715897493152303e+01 3.0736270839047855e+01 2.0242547581660848e+01 
712 713 2 1.0280000000000007e+00 -1.7865342298186096e+02 1.0000000000000000e+00 3.4268320198252704e+00 3.2987638189817091e+01 2.0553345938392514e+01 
4530 4531 2 1.0279999999999996e+00 -1.0612244549619828e+02 1.0000000000000000e+00 2.5291012676881067e+01 3.3253630919733318e+01 2.0986617571444743e+01 
4529 4530 2 1.0279999999999996e+00 1.1893994147290215e+02 1.0000000000000000e+00 2.6690737176889961e+01 3.2596228216470635e+01 2.0747719869362783e+01 
3024 3025 2 1.0280000000000007e+00 2.3685425044743471e+02 1.0000000000000000e+00 2.7398193886727064e+01 2.0559995804111015e+01 2.1742656353144373e+01 
2610 2611 2 1.0280002361742067e+00 -1.3866490752568478e+02 1.0000000000000000e+00 5.2844623411927563e+00 2.6049688639238930e+01 2.2685461763212807e+01 
2148 2149 2 1.0279997630382001e+00 -1.3879081863498755e+02 1.0000000000000000e+00 6.1692016033279184e+00 2.4737908211315268e+01 2.2493205017978347e+01 
3616 3617 2 1.0280002361480667e+00 5.6520765910617442e+01 1.0000000000000000e+00 7.5460490890903777e+00 2.6040324255460241e+01 2.2611368646185753e+01 
2280 2281 2 1.0279997639541596e+00 2.6018631718397887e+02 1.0000000000000000e+00 8.9558216576818257e+00 2.5173238727803913e+01 2.2027530747334065e+01 
2185 2186 2 1.0279999999999989e+00 9.8292167387036613e+01 1.0000000000000000e+00 2.2673164372178448e+01 2.5359533333734671e+01 2.1922623713187644e+01 
1765 1766 2 1.0279999999999989e+00 3.6706242289767905e+00 1.0000000000000000e+00 2.4068328665725385e+01 2.6062886256678123e+01 2.2008007330122386e+01 
2740 2741 2 1.0280002361316605e+00 1.3283089373854912e+02 1.0000000000000000e+00 9.7060645385945143e+00 2.6652381606338409e+01 2.2086811837245666e+01 
2641 2642 2 1.0279997638442218e+00 -1.3718018378772945e+02 1.0000000000000000e+00 1.1060463131221518e+01 2.7170674597328151e+01 2.3075310952486831e+01 
93 94 2 1.0279999999999969e+00 -1.0110738083623608e+02 1.0000000000000000e+00 1.6959424206984664e+01 3.1636936561148580e+01 2.2987852138402594e+01 
7 8 2 1.0279999999999969e+00 -7.3564527249380717e+01 1.0000000000000000e+00 1.7706075965005525e+01 3.3010478413626657e+01 2.3053981057777968e+01 
547 548 2 1.0280003021533830e+00 -7.3887916896191825e+01 1.0000000000000000e+00 2.9776862742299180e+01 3.5838827016715797e+01 2.2871500326839868e+01 
1977 1978 2 1.0279996970145731e+00 -2.4217846136508160e+02 1.0000000000000000e+00 3.0776278699505266e+01 3.6823109711415654e+01 2.2124716625761330e+01 
3460 3461 2 1.0280000244506460e+00 -9.6016846713617682e+01 1.0000000000000000e+00 3.2840308601134012e+01 3.5525502375761754e+01 2.2815863425523109e+01 
2651 2652 2 1.0279997625281692e+00 2.6924367551298804e+01 1.0000000000000000e+00 6.6186707244609417e+00 2.6526940524796380e+01 2.3949621857337803e+01 
2742 2743 2 1.0280002365129748e+00 2.6129430796943126e+02 1.0000000000000000e+00 7.5936054726239970e+00 2.7978870475570019e+01 2.3802854466926359e+01 
2718 2719 2 1.0279997635255298e+00 2.6940324596265805e+02 1.0000000000000000e+00 8.8076278459532773e+00 2.8892604757438530e+01 2.4470307519438855e+01 
2685 2686 2 1.0280002361084633e+00 -8.2417026062764364e+01 1.0000000000000000e+00 1.0336162550392396e+01 2.8051182094051512e+01 2.4281272591819267e+01 
4423 4424 2 1.0279999999732288e+00 5.1603125056073985e+01 1.0000000000000000e+00 2.5086377869066659e+01 3.0502826435111878e+01 2.4252367045248509e+01 
1310 1311 2 1.0280000024785492e+00 -2.9541791151452607e+01 1.0000000000000000e+00 2.5376914440483137e+01 3.1978380614059034e+01 2.3373505143679374e+01 
583 584 2 1.0279996970369496e+00 -1.0756124802955955e+02 1.0000000000000000e+00 2.9939459579840090e+01 3.6963677634292452e+01 2.4415886722822805e+01 
541 542 2 1.0280003023151290e+00 -4.1775071170551740e+01 1.0000000000000000e+00 3.1447744749763956e+01 3.6961451692126978e+01 2.3915485180817775e+01 
3106 3107 2 1.0280000000000000e+00 -2.6973433036248616e+02 1.0000000000000000e+00 1.2193039958259565e+01 2.0217331829270712e+01 2.5897394961324348e+01 
3568 3569 2 1.0280000000000000e+00 -1.7832641165508045e+02 1.0000000000000000e+00 1.1924921940709369e+01 2.1741093564384631e+01 2.5663424865991967e+01 
1924 1925 2 1.0279999999999987e+00 2.3480766153144302e+01 1.0000000000000000e+00 2.6075208612122999e+01 2.2081747801790883e+01 2.5969611104191436e+01 
177 178 2 1.0280000009703807e+00 5.0078011799219560e+01 1.0000000000000000e+00 2.4032819967697872e+01 3.0656658249039779e+01 2.5684604841238265e+01 
2781 2782 2 1.0279999997953013e+00 6.2018959597470833e+01 1.0000000000000000e+00 2.5764854551997562e+01 3.0470288857124569e+01 2.5950268708093333e+01 
265 266 2 1.0279999980959083e+00 5.1940196504653962e+01 1.0000000000000000e+00 2.4456003328753312e+01 3.2202238386629766e+01 2.4951438090336516e+01 
1352 1353 2 1.0279999967032223e+00 1.0366262447220313e+02 1.0000000000000000e+00 2.6432267105948341e+01 3.2170426502136294e+01 2.4743449962730150e+01 
1093 1094 2 1.0279999993037139e+00 -9.3415821839347089e+01 1.0000000000000000e+00 2.8402374413164814e+01 3.1700979582659215e+01 2.5801430013303445e+01 
631 632 2 1.0280000009683716e+00 -3.9917276799450988e+01 1.0000000000000000e+00 2.9837403870564259e+01 3.1706746965318388e+01 2.5103665128849290e+01 
1420 1421 2 1.0279999999999987e+00 7.5615006456993370e+01 1.0000000000000000e+00 2.7445359292520109e+01 2.2486491723388472e+01 2.6607849753271406e+01 
3579 3580 2 1.0280000047759221e+00 -5.8429062380152949e+01 1.0000000000000000e+00 3.1046523977300012e+01 3.0349497226186671e+01 2.7558272283934681e+01 
3285 3286 2 1.0279999997781106e+00 -9.5001342606862082e+01 1.0000000000000000e+00 2.6922445060859804e+01 3.1257727848181819e+01 2.6982568491270406e+01 
3535 3536 2 1.0280000013457076e+00 4.4249939886982141e+01 1.0000000000000000e+00 2.9983176627061656e+01 3.1950299536894356e+01 2.6974781536939865e+01 
1770 1771 2 1.0280000048603448e+00 9.2062424502824157e+01 1.0000000000000000e+00 2.5670689854132398e+01 3.2486196137878650e+01 2.6215415217087486e+01 
3534 3535 2 1.0279999997265110e+00 -1.7073452994094666e+02 1.0000000000000000e+00 3.0067511649160860e+01 3.3569327047921917e+01 2.6932819019976915e+01 
4044 4045 2 1.0280000002828236e+00 -9.5657214070224994e-01 1.0000000000000000e+00 3.2751330368983190e+01 3.6550503393037843e+01 2.7416964144092869e+01 
3948 3949 2 1.0279999979536922e+00 2.6177209167708736e+02 1.0000000000000000e+00 3.0110305502424655e+01 3.8496142462254177e+01 2.7488695909948270e+01 
4242 4243 2 1.0280000015711730e+00 -1.0829925869904658e+02 1.0000000000000000e+00 3.0716572066382302e+01 3.9873301472871894e+01 2.6971876053712073e+01 
3705 3706 2 1.0279999972475775e+00 -8.8183419518136404e+01 1.0000000000000000e+00 3.0293564867836000e+01 2.9631526211079233e+01 2.8833607340975043e+01 
3117 3118 2 1.0279999987092876e+00 -6.9931608983585036e+01 1.0000000000000000e+00 3.1687640460773185e+01 3.0686969219040442e+01 2.9204168616183743e+01 
3700 3701 2 1.0280000023555340e+00 -7.0409842341275166e+01 1.0000000000000000e+00 2.6654239054839255e+01 3.2061453679697820e+01 2.8498428950786355e+01 
2823 2824 2 1.0279999993264388e+00 3.2762541360068367e+00 1.0000000000000000e+00 3.0271917811577250e+01 3.1666531247451829e+01 2.9020276810838467e+01 
471 472 2 1.0279999964719899e+00 -1.0030482530647429e+02 1.0000000000000000e+00 2.8907499384148867e+01 3.3599670801500821e+01 2.8336736505284140e+01 
975 976 2 1.0280000025287019e+00 -9.5573142937918178e+01 1.0000000000000000e+00 3.0261788692015390e+01 3.4528785525219966e+01 2.8965624666210843e+01 
4464 4465 2 1.0279999895605383e+00 -1.6306067528626429e+00 1.0000000000000000e+00 3.1700099593489288e+01 3.5423373714691344e+01 2.8387873783381870e+01 
306 307 2 1.0280000017095565e+00 -1.8624040157476875e+00 1.0000000000000000e+00 3.1429900482125863e+01 3.7235552325849291e+01 2.8370718439527899e+01 
1311 1312 2 1.0280000013648982e+00 -9.2288545850805008e+01 1.0000000000000000e+00 3.2102151046859639e+01 3.9223369659626485e+01 2.8114586405760505e+01 
3699 3700 2 1.0279999968475555e+00 -2.4545448644293629e+01 1.0000000000000000e+00 2.7894580752089880e+01 3.2699526760769182e+01 2.9422774835177403e+01 
1437 1438 2 1.0280000017917199e+00 -1.7946154887957007e+01 1.0000000000000000e+00 3.0778486212355752e+01 3.2592191478515026e+01 3.0342249206526041e+01 
1395 1396 2 1.0279999958158719e+00 8.2295748214052693e+01 1.0000000000000000e+00 3.2643837356199263e+01 3.2313386595400516e+01 3.0163069316587602e+01 
4335 4336 2 1.0280000029894205e+00 3.1752297061739007e+01 1.0000000000000000e+00 3.1863685329791270e+01 3.3897601553494340e+01 2.9336756801779377e+01 
346 347 2 1.0280000001088001e+00 -1.1739291034803342e+02 1.0000000000000000e+00 3.2848722794682274e+01 3.5946433256763001e+01 3.0426151372261103e+01 
1559 1560 2 1.0280000000000002e+00 3.1886473139652018e+00 1.0000000000000000e+00 1.4164563643062678e+01 3.7995713084448887e+01 3.0602518663491818e+01 
1055 1056 2 1.0280000000000002e+00 1.8919435268799219e+02 1.0000000000000000e+00 1.5174299215834180e+01 3.7361792888183615e+01 2.9589079785172522e+01 
1773 1774 2 1.0279999970467719e+00 -7.3260576158739106e+00 1.0000000000000000e+00 3.0127939628369667e+01 3.8156103361817628e+01 2.9401090387472951e+01 
1815 1816 2 1.0280000017072410e+00 6.7689972696269734e+01 1.0000000000000000e+00 3.1278287381390680e+01 3.7047238114355743e+01 3.0145380417961409e+01 
1269 1270 2 1.0279999990290944e+00 -5.6989082634188073e+01 1.0000000000000000e+00 3.1097298628164317e+01 3.9801907688237556e+01 2.9315943581626268e+01 
2235 2236 2 1.0279999992049125e+00 -4.1269933692174721e-01 1.0000000000000000e+00 3.2654683635921685e+01 3.8774484413523275e+01 3.0168984656570792e+01 
3244 3245 2 1.0280000022012969e+00 5.0272969649318853e+01 1.0000000000000000e+00 3.2646303191688190e+01 3.0006085223349064e+01 3.1521232042800744e+01 
4296 4297 2 1.0280000011799311e+00 -1.8075638460157231e+00 1.0000000000000000e+00 3.1605055909912430e+01 3.1656279437504242e+01 3.1683605217370605e+01 
138 139 2 1.0280000004062184e+00 -1.5398813915384018e+00 1.0000000000000000e+00 3.2129538030364309e+01 3.3225541181027182e+01 3.1616758009171928e+01 
421 422 2 1.0280000001474248e+00 -7.2148453547486582e+01 1.0000000000000000e+00 2.9577315093914155e+01 3.3931279463625820e+01 3.1826190889657106e+01 
2944 2945 2 1.0280000000403970e+00 9.3140281498711758e+01 1.0000000000000000e+00 3.0473507938680193e+01 3.5564145043432276e+01 3.1366545039762627e+01 
469 470 2 1.0279999985508288e+00 -6.7212831234213482e+01 1.0000000000000000e+00 3.2246053253590119e+01 3.5891720851017915e+01 3.2006220656891422e+01 
3364 3365 2 1.0279999992681992e+00 -1.5727218104852750e+02 1.0000000000000000e+00 3.0082766954419462e+01 3.7160526345220447e+01 3.1490062582224144e+01 
2236 2237 2 1.0280000029130432e+00 1.4144054785035235e+02 1.0000000000000000e+00 3.3085931932245735e+01 3.8182903546068935e+01 3.1934915638513697e+01 
1017 1018 2 1.0280000024157330e+00 -5.8594591371994341e+01 1.0000000000000000e+00 3.0271334668685554e+01 3.9218428383755601e+01 3.0806749922625496e+01 
1731 1732 2 1.0280000008230927e+00 -6.7259392557659169e+01 1.0000000000000000e+00 3.1401318068893360e+01 3.8549595913352086e+01 3.1953674915745943e+01 
840 841 2 1.0280000000000007e+00 -7.3244691662716690e+01 1.0000000000000000e+00 2.0244747076219337e+01 2.1217873020752190e+01 3.3030909136588726e+01 
2523 2524 2 1.0280000000000000e+00 -1.0359811797308242e+02 1.0000000000000000e+00 8.5370085624535026e+00 2.1917917734147103e+01 3.3675571844749669e+01 
2182 2183 2 1.0280000000000007e+00 -2.4141761847285579e+02 1.0000000000000000e+00 1.8823862149692161e+01 2.1871435493186702e+01 3.2981703217885659e+01 
2985 2986 2 1.0280000000000000e+00 -7.1763667433177204e+01 1.0000000000000000e+00 9.2562656811532626e+00 2.3307133687968964e+01 3.3640538530764168e+01 
802 803 2 1.0279990052112198e+00 -9.4412148318248583e+01 1.0000000000000000e+00 3.2388814230787155e+01 2.3780691883059237e+01 3.2496713101089945e+01 
755 756 2 1.0280000002588183e+00 1.1334653380362956e+00 1.0000000000000000e+00 2.4902926610242957e+01 3.1437312496176997e+01 3.2743581608315459e+01 
1555 1556 2 1.0280000021729856e+00 -1.1844981561226733e+02 1.0000000000000000e+00 2.5515521524462461e+01 3.3483228059902153e+01 3.2762795860675901e+01 
380 381 2 1.0279999996000282e+00 -4.1116641315588680e+01 1.0000000000000000e+00 3.0530403758652827e+01 3.4501128716045606e+01 3.2962616812749353e+01 
470 471 2 1.0279999988564432e+00 1.1157136675799910e+01 1.0000000000000000e+00 3.1906703818811629e+01 3.7160042709374480e+01 3.3175318849714550e+01 
3741 3742 2 1.0279999999999996e+00 3.3389933249296476e+01 1.0000000000000000e+00 1.3028961444767324e+01 3.8498665603532125e+01 3.3690711002070209e+01 
1479 1480 2 1.0279999963330053e+00 -6.8804708749077975e+01 1.0000000000000000e+00 3.2745976274007440e+01 3.9072808241481830e+01 3.3821149496096496e+01 
2415 2416 2 1.0279999999999991e+00 -4.3962385760180611e+00 1.0000000000000000e+00 1.4111586029640112e+01 2.8939692774741250e+01 3.4272057921918694e+01 
2414 2415 2 1.0279999999999991e+00 -2.5998251166779305e+01 1.0000000000000000e+00 1.4408336774842645e+01 3.0454323661595517e+01 3.4529567871340220e+01 
1217 1218 2 1.0280000000443885e+00 -1.9844334845518425e+01 1.0000000000000000e+00 2.4889720932758756e+01 3.1075992598841637e+01 3.4267008066362607e+01 