LAMMPS data file via write_data, version 30 Jul 2016, timestep = 50400000

384 atoms
2 atom types

0.0000000000000000e+00 2.0000000000000000e+01 xlo xhi
0.0000000000000000e+00 2.0000000000000000e+01 ylo yhi
0.0000000000000000e+00 2.0000000000000000e+01 zlo zhi

Masses

1 3.89
2 0.042

Atoms # meso-molecular

101 1 2 1.1309481869220473e-02 2.0162181079245831e-03 1.0000000000000000e+00 4.6888706016482216e+00 2.9106522807076435e-01 6.6425738111615673e-01 
80 1 2 1.1309481869220473e-02 -1.7191745874312690e-03 1.0000000000000000e+00 1.7291093047842754e+00 5.9364771941303953e+00 7.1670161524009579e-01 
61 1 2 1.1309481869220473e-02 7.7472321320163715e-03 1.0000000000000000e+00 4.7878008987450444e+00 8.1032477853980041e+00 1.3388580128861465e+00 
128 1 2 1.1309481869220473e-02 1.1428724892035647e-03 1.0000000000000000e+00 1.1842652796065301e+00 1.1326129544131336e+00 1.9964228598435596e+00 
306 1 2 1.1309481869220473e-02 1.5097533814546098e-03 1.0000000000000000e+00 6.0243310792687810e+00 1.8896283496741044e+00 1.7468557431308442e+00 
311 1 2 1.1309481869220473e-02 5.0723921019790660e-03 1.0000000000000000e+00 2.3113715674406761e+00 2.8764261654245402e+00 1.4352711746728326e+00 
260 1 2 1.1309481869220473e-02 2.0349437785785857e-03 1.0000000000000000e+00 5.4520512498735751e+00 4.1386232478087290e+00 1.6984411212614943e+00 
84 1 2 1.1309481869220473e-02 6.5761434650965529e-03 1.0000000000000000e+00 3.6345350115125106e+00 6.0872077581767190e+00 1.8801740209643074e+00 
75 1 2 1.1309481869220473e-02 2.4066295527198446e-02 1.0000000000000000e+00 2.0058301343616218e+00 9.4788872085003053e+00 1.5771975594040359e+00 
217 1 2 1.1309481869220473e-02 1.9383970827335169e-02 1.0000000000000000e+00 3.2137317093138114e+00 1.3425105420324053e+00 3.8311469151391306e+00 
288 1 2 1.1309481869220473e-02 7.7760433599608665e-03 1.0000000000000000e+00 9.8623976759091758e-01 5.0840822259642842e+00 2.8999346380413580e+00 
138 1 2 1.1309481869220473e-02 3.1701075691552040e-02 1.0000000000000000e+00 4.0196319077786846e-01 7.6806492983934049e+00 3.1433275291516773e+00 
21 1 2 1.1309481869220473e-02 8.6408809877387975e-04 1.0000000000000000e+00 3.7595892220169520e+00 7.3117568837007756e+00 3.4842039957000246e+00 
46 1 2 1.1309481869220473e-02 1.0324488595788886e-03 1.0000000000000000e+00 5.8742866335533801e+00 7.5275912610051172e+00 3.5623207638896845e+00 
292 1 2 1.1309481869220473e-02 -4.6111998179448957e-02 1.0000000000000000e+00 1.6749618185391348e+00 9.1092578705071166e+00 3.8543991778451443e+00 
293 1 2 1.1309481869220473e-02 6.2636214673235172e-03 1.0000000000000000e+00 6.2627826428353233e+00 2.7357386345287882e+00 5.4726949784110133e+00 
259 1 2 1.1309481869220473e-02 7.3054128706053437e-03 1.0000000000000000e+00 5.0781290359745599e+00 4.9762014983296128e+00 5.2474510751148156e+00 
158 1 2 1.1309481901936915e-02 -8.4490608715656178e-03 1.0000000000000000e+00 7.9956979946713957e-01 6.6163444960662634e+00 5.2729958060607718e+00 
375 1 2 1.1309481869220473e-02 3.1821349237466474e-03 1.0000000000000000e+00 3.0917289433304060e+00 6.1680065694590747e+00 5.1537303803514796e+00 
3 1 2 1.1309481869220473e-02 1.6444056931558312e-02 1.0000000000000000e+00 4.3765452126580522e+00 7.7193984780591371e+00 5.5555401471267363e+00 
60 1 2 1.1309481869220473e-02 -3.9231437771331881e-03 1.0000000000000000e+00 2.5212334942133938e+00 1.2105804503267431e-01 6.9387803042686782e+00 
347 1 2 1.1309481869220473e-02 1.8622464217687581e-03 1.0000000000000000e+00 8.7833538602979977e-01 1.6326928486901984e+00 5.7820252392850158e+00 
91 1 2 1.1309481869220473e-02 6.5764124568135360e-03 1.0000000000000000e+00 2.6199092115785714e+00 2.7347967722190885e+00 5.7685721200999422e+00 
305 1 2 1.1309481901936915e-02 1.5744771966371803e-02 1.0000000000000000e+00 3.7537651948139417e-01 4.7678555480612603e+00 5.8844600616128426e+00 
346 1 2 1.1309481869220473e-02 1.1082109485100449e-02 1.0000000000000000e+00 2.0285054672943019e+00 6.2295583985674856e+00 6.8948097049039196e+00 
227 1 2 1.1309481869220473e-02 1.7976437462877151e-02 1.0000000000000000e+00 6.1023747028081745e+00 6.4085574524921736e+00 6.5727119407499872e+00 
314 1 2 1.1309481869220473e-02 3.7324953461774901e-03 1.0000000000000000e+00 9.6565903044448087e-01 8.8312461663144983e+00 6.2479739419992901e+00 
301 1 2 1.1309481869220473e-02 6.7867221743209312e-03 1.0000000000000000e+00 4.7037263790711359e+00 1.2525231801313341e+00 7.5489920012333949e+00 
207 1 2 1.1309481869220473e-02 4.4518567651407777e-03 1.0000000000000000e+00 2.4578144392152144e+00 2.0167465586206252e+00 8.2482827577763960e+00 
245 1 2 1.1309481869220473e-02 -1.5671533904763557e-02 1.0000000000000000e+00 9.1305101665059962e-01 3.4757866150880976e+00 8.0369481161205218e+00 
147 1 2 1.1309481869220473e-02 -1.7054663346553420e-01 1.0000000000000000e+00 5.9058246255468507e+00 4.0154719814483659e+00 8.1395938799697163e+00 
281 1 2 1.1309481869220473e-02 4.4237881222602360e-02 1.0000000000000000e+00 4.0249029440994422e+00 9.9321945718113511e+00 7.3678364224765200e+00 
200 1 2 1.1309481869220473e-02 6.3061734788927310e-03 1.0000000000000000e+00 3.4441606754435199e+00 5.2058642169902738e+00 9.3591897089670173e+00 
25 1 2 1.1309481869220473e-02 2.8238042909665289e-04 1.0000000000000000e+00 5.9780516235671231e+00 7.0468074403582923e+00 9.6796510833665330e+00 
17 1 2 1.1309481869220473e-02 4.0450891287608665e-03 1.0000000000000000e+00 3.5132355343427357e+00 7.5258984583873287e+00 9.3353298535696894e+00 
242 1 2 1.1309481869220473e-02 1.1529678161472063e-02 1.0000000000000000e+00 1.7592019559976477e+00 1.4602889951783293e+00 1.0635451941159703e+01 
199 1 2 1.1309481869220473e-02 1.2203568494488396e-02 1.0000000000000000e+00 3.7712136070491584e+00 2.1146910774207139e+00 1.0173044871777659e+01 
356 1 2 1.1309481869220473e-02 -5.7214994235897973e-02 1.0000000000000000e+00 1.3418650010404691e+00 6.7861272168275839e+00 1.1150435709778712e+01 
210 1 2 1.1309481869220473e-02 4.5401327841781594e-02 1.0000000000000000e+00 3.0842533601168314e+00 4.0324430547046813e-01 1.2142172323493948e+01 
117 1 2 1.1309481869220473e-02 6.5259410525448248e-04 1.0000000000000000e+00 3.5801217077646341e+00 2.6985896163806169e+00 1.2423112835434480e+01 
42 1 2 1.1309481869220473e-02 4.4395053511275184e-03 1.0000000000000000e+00 1.6168681464571069e+00 3.1444142577997565e+00 1.2633598167689289e+01 
357 1 2 1.1309481869220473e-02 3.4391264912375138e-02 1.0000000000000000e+00 2.4769823597117173e+00 5.1979193997188986e+00 1.1593503531282467e+01 
206 1 2 1.1309481869220473e-02 5.5638892487935572e-04 1.0000000000000000e+00 3.9565668453702694e+00 6.8177070350220159e+00 1.2697490741657187e+01 
155 1 2 1.1309481869220473e-02 -1.8722081507822319e-01 1.0000000000000000e+00 5.5744222645537533e+00 9.8746946752933891e+00 1.2579003485622232e+01 
197 1 2 1.1309481869220473e-02 -7.6641293614107569e-05 1.0000000000000000e+00 1.0794011779736916e+00 7.7325974801211816e-01 1.3907939001667906e+01 
248 1 2 1.1309481869220473e-02 2.5769109378889407e-04 1.0000000000000000e+00 6.0964104633682199e+00 1.0888150493278330e+00 1.3328252116285682e+01 
275 1 2 1.1309481869220473e-02 3.4740033202479460e-03 1.0000000000000000e+00 5.5146881659233662e+00 3.4972876309177456e+00 1.3378135998021817e+01 
185 1 2 1.1309481869220473e-02 1.0515544263733877e-02 1.0000000000000000e+00 1.6364187027703516e+00 6.5071071981676250e+00 1.3642544111487185e+01 
339 1 2 1.1309481869220473e-02 -4.3617021430435339e-04 1.0000000000000000e+00 4.1959535370125485e+00 9.1140162113910641e+00 1.3963734762592866e+01 
111 1 2 1.1309481869220473e-02 -4.0436861616155527e-02 1.0000000000000000e+00 2.7347004469206655e+00 4.9190026081735561e-01 1.5425164005460726e+01 
122 1 2 1.1309481869220473e-02 -2.2837146028163523e-02 1.0000000000000000e+00 9.7914392721247945e-01 2.7049926960722259e+00 1.5069852120295364e+01 
316 1 2 1.1309481869220473e-02 -2.8055903294815367e-02 1.0000000000000000e+00 3.5777840567662440e+00 4.1754420552768785e+00 1.4988758801523531e+01 
82 1 2 1.1309481869220473e-02 1.3092615732925180e-03 1.0000000000000000e+00 1.1352491498040302e+00 6.2970032853589979e+00 1.5589245952760406e+01 
43 1 2 1.1309481869220473e-02 1.0581899888437547e-03 1.0000000000000000e+00 5.7964793554547489e+00 5.8454760735321267e+00 1.4533228470092237e+01 
71 1 2 1.1309481869220473e-02 -2.8881039009406211e-03 1.0000000000000000e+00 6.6647470613848609e+00 7.2209967308972711e+00 1.6197447661367981e+01 
109 1 2 1.1309481869220473e-02 -1.6770127118610215e-02 1.0000000000000000e+00 1.0192710347803067e+00 1.6091295495276696e+00 1.8465452151840839e+01 
363 1 2 1.1309481869220473e-02 1.6168878087668699e-03 1.0000000000000000e+00 3.9473370078402366e+00 1.5552336957568083e+00 1.8394244713679822e+01 
184 1 2 1.1309481869220473e-02 3.8774542513492357e-04 1.0000000000000000e+00 4.7790374072833774e+00 3.5704517205082738e+00 1.7803013893852555e+01 
257 1 2 1.1309481869220473e-02 1.1243741839435908e-02 1.0000000000000000e+00 9.4499614651439279e-01 5.5483006873279939e+00 1.7745723124259037e+01 
178 1 2 1.1309481869220473e-02 -2.7146341545258891e-02 1.0000000000000000e+00 3.0882180315493613e+00 9.2316390210347752e+00 1.7442071657438703e+01 
267 1 2 1.1309481869220473e-02 5.9850836058985835e-03 1.0000000000000000e+00 1.4525321023403484e+00 1.0354669083815503e-01 1.9786127046853963e+01 
165 1 2 1.1309481869220473e-02 -2.2918189272436891e-02 1.0000000000000000e+00 6.3638260356258440e+00 5.1749645228686703e+00 1.9934699479497809e+01 
274 1 2 1.1309481869220473e-02 -4.6880969450882051e-04 1.0000000000000000e+00 3.1320058527177963e+00 6.2038100807313237e+00 1.8755290110157230e+01 
31 1 2 1.1309481869220473e-02 -2.6613838457587607e-02 1.0000000000000000e+00 2.3903366820321672e+00 1.1426711400353968e+01 5.9478808056542498e-01 
23 1 2 1.1309481869220473e-02 -1.4464841962635793e-02 1.0000000000000000e+00 4.7766498706572040e+00 1.2883893084265020e+01 1.0539895056135355e+00 
145 1 2 1.1309481869220473e-02 1.1100454063737213e-02 1.0000000000000000e+00 6.4331187027037986e+00 1.6153699681668627e+01 3.1513811270817199e-01 
153 1 2 1.1309481869220473e-02 -7.7154977748126368e-03 1.0000000000000000e+00 5.8701314176673005e+00 1.8077849676770299e+01 7.4098489779409263e-02 
32 1 2 1.1309481869220473e-02 -1.0566196272706039e-03 1.0000000000000000e+00 4.4230881489861780e+00 1.0209875225378390e+01 2.3207247407299629e+00 
45 1 2 1.1309481869220473e-02 -5.8601277327544922e-03 1.0000000000000000e+00 1.0235972378327828e-01 1.3635429038691479e+01 2.5550827381608476e+00 
168 1 2 1.1309481869220473e-02 1.7470563504301723e-02 1.0000000000000000e+00 2.3201460359602790e+00 1.3410585427035235e+01 2.5792176229513797e+00 
205 1 2 1.1309481869220473e-02 2.2671457498320592e-02 1.0000000000000000e+00 3.8260195919089479e-01 1.8349259183725348e+01 2.3546667518583955e+00 
90 1 2 1.1309481869220473e-02 3.0399459438231499e-03 1.0000000000000000e+00 9.6764304857875150e-01 1.1615718978845054e+01 2.8809843520235985e+00 
229 1 2 1.1309481869220473e-02 -2.1680214382923425e-02 1.0000000000000000e+00 6.5677286010574862e+00 1.3593742452075494e+01 4.2736297378432626e+00 
179 1 2 1.1309481869220473e-02 1.3506273478842118e-02 1.0000000000000000e+00 5.4096223941232768e+00 1.6716462277715760e+01 4.2685545726106433e+00 
255 1 2 1.1309481869220473e-02 1.7326067356171832e-02 1.0000000000000000e+00 2.6138348227197419e+00 1.7318263633111929e+01 3.2838343511798795e+00 
183 1 2 1.1309481869220473e-02 -2.0861619524442853e-03 1.0000000000000000e+00 4.4752722637023261e+00 1.9120220380198084e+01 3.5046680281234246e+00 
187 1 2 1.1309481869220473e-02 2.8269225625280076e-02 1.0000000000000000e+00 6.5093961801902323e+00 1.9818572870532119e+01 3.7664157635036584e+00 
198 1 2 1.1309481869220473e-02 6.7422562444188761e-03 1.0000000000000000e+00 2.0105340088955765e+00 1.1022759524291537e+01 4.7901686453164967e+00 
370 1 2 1.1309481869220473e-02 3.6933387469422446e-03 1.0000000000000000e+00 4.9127871285310922e+00 1.1735084312240811e+01 5.2437830238884242e+00 
345 1 2 1.1309481869220473e-02 4.8761612150379939e-03 1.0000000000000000e+00 1.4561175709213425e+00 1.9949757403956951e+01 4.4171865548552436e+00 
173 1 2 1.1309481869220473e-02 2.4880243220663780e-03 1.0000000000000000e+00 2.3457858223053392e+00 1.2910924677247774e+01 6.9787891228218495e+00 
149 1 2 1.1309481869220473e-02 -4.1209531595415910e-03 1.0000000000000000e+00 4.7256728024827197e+00 1.2890972923207981e+01 7.0855040587354292e+00 
379 1 2 1.1309481869220473e-02 1.0763774957347916e-02 1.0000000000000000e+00 3.6939478659333451e+00 1.5681770441492704e+01 5.8962466902206279e+00 
129 1 2 1.1309481869220473e-02 8.1730594381960921e-03 1.0000000000000000e+00 6.1625272483497273e+00 1.5006766391552702e+01 5.9795543933049080e+00 
154 1 2 1.1309481913545725e-02 7.2264727057706228e-03 1.0000000000000000e+00 4.5935398032946049e+00 1.8185056503856497e+01 6.3286927768184373e+00 
211 1 2 1.1309481913545725e-02 4.0724852240151101e-03 1.0000000000000000e+00 5.8319225882811541e+00 1.9733768752799630e+01 6.5195424029761195e+00 
124 1 2 1.1309481869220473e-02 2.2887840567190003e-02 1.0000000000000000e+00 7.5643723347180031e-02 1.4553783821587913e+01 7.4660690877259093e+00 
8 1 2 1.1309481869220473e-02 1.1730658365990678e-03 1.0000000000000000e+00 2.4879785161346319e+00 1.5644462130805275e+01 7.6226162937508262e+00 
262 1 2 1.1309481869220473e-02 3.8250168338398224e-03 1.0000000000000000e+00 6.5783981038182331e+00 1.2864099621310716e+01 9.6987944200182170e+00 
26 1 2 1.1309481869220473e-02 9.4617476791904499e-03 1.0000000000000000e+00 5.2421048516205229e+00 1.5137821149125420e+01 8.5757005725989544e+00 
324 1 2 1.1309481869220473e-02 3.3781200527117691e-03 1.0000000000000000e+00 1.6934708827206262e+00 1.8533465946118934e+01 8.6703491309267182e+00 
194 1 2 1.1309481869220473e-02 3.6448201860352220e-02 1.0000000000000000e+00 4.8831454205549463e+00 1.9190285442607038e+01 8.8779997678225353e+00 
136 1 2 1.1309481869220473e-02 5.2294055972991220e-03 1.0000000000000000e+00 4.0094913899673177e+00 1.0983688281711418e+01 1.0375819114918983e+01 
354 1 2 1.1309481869220473e-02 4.8100015684147835e-03 1.0000000000000000e+00 1.3254561752164615e+00 1.3041149765558053e+01 1.1185070195898271e+01 
269 1 2 1.1309481869220473e-02 8.8985221801561216e-03 1.0000000000000000e+00 3.0079966531542208e+00 1.4933738551255173e+01 1.0679401666550378e+01 
381 1 2 1.1309481869220473e-02 3.7078224432652877e-03 1.0000000000000000e+00 5.3587410501428518e+00 1.6277186531345667e+01 1.1076283576117270e+01 
378 1 2 1.1309481869220473e-02 -2.3709044360619479e-03 1.0000000000000000e+00 4.9005680626538572e-01 1.7694219413309092e+01 1.0541344801547559e+01 
106 1 2 1.1309481869220473e-02 1.0020838040495660e-02 1.0000000000000000e+00 1.4480009319999052e+00 1.0778310401792407e+01 1.2051514401014540e+01 
250 1 2 1.1309481869220473e-02 -7.5349433002899147e-02 1.0000000000000000e+00 1.8759376244127843e+00 1.6799178678277979e+01 1.2096524682620153e+01 
48 1 2 1.1309481869220473e-02 7.4589970278284793e-03 1.0000000000000000e+00 6.5377813189837752e+00 1.8201612760569144e+01 1.2568535316010125e+01 
341 1 2 1.1309481869266714e-02 -4.4903510408716485e-02 1.0000000000000000e+00 7.1946732116152201e-01 1.1925448424757890e+01 1.4142110529554444e+01 
212 1 2 1.1309481869512071e-02 1.4204087704439618e-02 1.0000000000000000e+00 6.3154090033843033e+00 1.2215209636606057e+01 1.3004611574534723e+01 
38 1 2 1.1309481869220473e-02 1.3322378682476474e-03 1.0000000000000000e+00 3.2817286219781963e+00 1.4252270135021936e+01 1.3102640319010293e+01 
383 1 2 1.1309481869220473e-02 1.2844726674849736e-03 1.0000000000000000e+00 3.8413292399490868e+00 1.7120643606914204e+01 1.4098275486772948e+01 
243 1 2 1.1309481869220473e-02 6.6378731594859779e-04 1.0000000000000000e+00 2.1746065293159966e+00 1.8789523976903489e+01 1.3299762384065920e+01 
14 1 2 1.1309481869220473e-02 1.4949917297441044e-02 1.0000000000000000e+00 4.2736395319494624e+00 1.9170813987912553e+01 1.3323043972385749e+01 
123 1 2 1.1309481869220473e-02 -2.3843908723575627e-02 1.0000000000000000e+00 1.5682077536569128e+00 1.0061932302585888e+01 1.4496307222446031e+01 
114 1 2 1.1309481869220473e-02 6.8797489340674013e-03 1.0000000000000000e+00 5.0733010898215145e+00 1.0516114628542500e+01 1.5429905884659931e+01 
70 1 2 1.1309481869512071e-02 4.0322628680879097e-03 1.0000000000000000e+00 5.7859408410919926e+00 1.2510438992414935e+01 1.4908115743696236e+01 
367 1 2 1.1309481869266714e-02 3.6225690462121829e-03 1.0000000000000000e+00 6.5596397528607431e-01 1.3915842222030026e+01 1.4311797658959396e+01 
266 1 2 1.1309481869220473e-02 -1.4482898544171375e-03 1.0000000000000000e+00 3.5038037070968615e+00 1.5150004436119396e+01 1.5005607498062952e+01 
271 1 2 1.1309481869220473e-02 8.5723517164932265e-03 1.0000000000000000e+00 5.9871349429729248e+00 1.6097786289583411e+01 1.5041226634549224e+01 
209 1 2 1.1309481869220473e-02 -7.3629188230456361e-02 1.0000000000000000e+00 1.2711409977933761e+00 1.7618316642290694e+01 1.5261240102642443e+01 
202 1 2 1.1309481869220473e-02 -4.0944506458660368e-04 1.0000000000000000e+00 3.6512018105009347e-01 1.1993728598391163e+01 1.7111225148405584e+01 
230 1 2 1.1309481869220473e-02 2.1267286966846811e-02 1.0000000000000000e+00 3.0851759519061797e+00 1.2258640383294125e+01 1.6607631295249128e+01 
362 1 2 1.1309481869220473e-02 8.0966422767072264e-04 1.0000000000000000e+00 1.9743820341123199e+00 1.5160965675542801e+01 1.6512633689168489e+01 
54 1 2 1.1309481869220473e-02 1.7257019727646605e-03 1.0000000000000000e+00 4.1421499469153078e+00 1.5053622153168286e+01 1.6991993034251013e+01 
27 1 2 1.1309481869220473e-02 1.8026911286180719e-03 1.0000000000000000e+00 5.8863757691848839e-01 1.9858690383859226e+01 1.6268301647720424e+01 
157 1 2 1.1309481869220473e-02 -4.6521230015281485e-03 1.0000000000000000e+00 5.0743044784349909e+00 1.2137334672968025e+01 1.7332305760686566e+01 
214 1 2 1.1309481869220473e-02 -2.6277476828651591e-03 1.0000000000000000e+00 2.6643195240120470e+00 1.6585118491411201e+01 1.8231486981214804e+01 
235 1 2 1.1309481869220473e-02 3.6547139393609753e-03 1.0000000000000000e+00 5.7159590511556164e+00 1.7461863346714395e+01 1.7609379794828246e+01 
261 1 2 1.1309481869220473e-02 1.3860726010044096e-03 1.0000000000000000e+00 5.3087858078858332e+00 1.9646031567382131e+01 1.7347654496851764e+01 
36 1 2 1.1309481869220473e-02 8.5259420115723905e-03 1.0000000000000000e+00 5.5522766265152717e+00 1.1239472552246143e+01 1.9614984985971486e+01 
291 1 2 1.1309481869220473e-02 -1.3381632460787714e-02 1.0000000000000000e+00 2.9979244697702323e+00 1.3522351496103267e+01 1.9705664413511819e+01 
40 1 2 1.1309481869220473e-02 -1.0395748599784536e-03 1.0000000000000000e+00 7.0006357499095095e-01 1.4627296661530949e+01 1.8739236668854932e+01 
4 1 2 1.1309481869220473e-02 8.3123357136321036e-03 1.0000000000000000e+00 4.8183357842743701e+00 1.4485091822262147e+01 1.8920440514440958e+01 
74 1 2 1.1309481869220473e-02 1.9092144349919602e-02 1.0000000000000000e+00 1.0513227497934978e+00 1.7718029089280712e+01 1.9181688843550742e+01 
304 1 2 1.1309481869220473e-02 6.9513596807884281e-03 1.0000000000000000e+00 9.9565968614678066e+00 3.8267724805833270e+00 1.2126107756763844e+00 
34 1 2 1.1309481869220473e-02 1.4614936386953220e-02 1.0000000000000000e+00 6.7027536905914715e+00 7.6532636503662399e+00 6.3905348971427212e-01 
186 1 2 1.1309481869220473e-02 -3.3113686293271216e-02 1.0000000000000000e+00 8.7978249157855153e+00 8.1118020936431936e+00 7.9699407502476616e-01 
11 1 2 1.1309481869220473e-02 7.6943541028854645e-03 1.0000000000000000e+00 1.2582176387316075e+01 3.6683089318194582e+00 2.4972923575941262e+00 
181 1 2 1.1309481869220473e-02 3.1960529974925165e-03 1.0000000000000000e+00 1.2647882122349476e+01 7.7651479075957788e+00 2.7104475390834843e+00 
112 1 2 1.1309481869220473e-02 6.3567891987250380e-03 1.0000000000000000e+00 6.7199030231967516e+00 9.3761784885122097e+00 2.3275275435027467e+00 
277 1 2 1.1309481869220473e-02 1.3472037508424413e-02 1.0000000000000000e+00 1.1233293218248082e+01 9.5732348061824588e+00 1.7059173148758255e+00 
382 1 2 1.1309481869220473e-02 2.7477580349958251e-03 1.0000000000000000e+00 1.2807881358363879e+01 6.0952323657474461e-01 3.9040082897381314e+00 
177 1 2 1.1309481869220473e-02 -1.7777765514910820e-02 1.0000000000000000e+00 1.0907617209959568e+01 2.5934920198781226e+00 3.9525984045463742e+00 
171 1 2 1.1309481869220473e-02 2.9608849892362775e-03 1.0000000000000000e+00 7.8603037379761638e+00 5.3255838720945965e+00 3.9902733850832890e+00 
234 1 2 1.1309481869220473e-02 9.5973500068701582e-03 1.0000000000000000e+00 1.0178421156545296e+01 6.1904072721875929e+00 3.0272171205961387e+00 
263 1 2 1.1309481869220473e-02 -5.0521215184991834e-03 1.0000000000000000e+00 8.4967358300986238e+00 9.3379526478373904e+00 3.4863660638549230e+00 
79 1 2 1.1309481869220473e-02 -1.4833968778577192e-02 1.0000000000000000e+00 1.0856897213457879e+01 8.5946536320948130e+00 3.6632064430292588e+00 
249 1 2 1.1309481869220473e-02 6.2809638688737009e-04 1.0000000000000000e+00 8.7956305915893171e+00 2.1205893408248011e+00 4.6208014760296070e+00 
144 1 2 1.1309481869220473e-02 1.4201997015593607e-02 1.0000000000000000e+00 1.1496120802787033e+01 5.4995297228560371e+00 5.0918060523881206e+00 
76 1 2 1.1309481869220473e-02 -4.1917608711147230e-03 1.0000000000000000e+00 1.0188913487248838e+01 7.6320443128329769e+00 5.5300524651468814e+00 
320 1 2 1.1309481869220473e-02 8.8181637196652410e-04 1.0000000000000000e+00 1.3150292749158076e+01 9.2246917789402811e+00 4.3015130606099206e+00 
268 1 2 1.1309481869220473e-02 -3.2171252340526646e-02 1.0000000000000000e+00 9.1096855019473235e+00 1.1755233772275173e+00 6.8029500557558888e+00 
193 1 2 1.1309481869220473e-02 -1.3947280859047749e-02 1.0000000000000000e+00 1.3105942069310547e+01 1.7002449062915665e+00 6.5974368404780437e+00 
282 1 2 1.1309481869220473e-02 1.1637050193253614e-02 1.0000000000000000e+00 9.1510857054935943e+00 4.1027620257227611e+00 6.6014138679231333e+00 
192 1 2 1.1309481869220473e-02 9.8754180315722175e-03 1.0000000000000000e+00 1.2913713987819031e+01 6.0806936286806206e+00 6.8922198971862612e+00 
166 1 2 1.1309481869220473e-02 1.2245384629055635e-02 1.0000000000000000e+00 7.3995744050827721e+00 9.7870304856796437e+00 6.8873413391177811e+00 
350 1 2 1.1309481869220473e-02 9.9208850802712800e-03 1.0000000000000000e+00 6.9015197627408407e+00 2.1210406285406349e+00 8.1546130974437716e+00 
273 1 2 1.1309481869220473e-02 -7.6994944860202086e-02 1.0000000000000000e+00 1.1236963654115280e+01 2.8101422324477836e+00 7.6905174636317417e+00 
216 1 2 1.1309481869220473e-02 5.4025475985766793e-03 1.0000000000000000e+00 8.6697185487347870e+00 7.5628530550766566e+00 7.4988139734692227e+00 
7 1 2 1.1309481869220473e-02 3.6610217179792472e-03 1.0000000000000000e+00 9.9715835382082840e+00 9.2249811276163758e+00 7.5481224190954253e+00 
172 1 2 1.1309481869220473e-02 -6.3857829701203211e-02 1.0000000000000000e+00 7.1717423966344986e+00 1.7381847188301813e-01 9.9311562709114991e+00 
369 1 2 1.1309481869220473e-02 3.3804278944885822e-03 1.0000000000000000e+00 1.0755112527818330e+01 7.9974551872168109e-01 9.3395223541586194e+00 
332 1 2 1.1309481869220473e-02 2.0873375715487027e-02 1.0000000000000000e+00 9.9083362479267763e+00 4.0693269427672671e+00 9.9742491966742435e+00 
327 1 2 1.1309481869220473e-02 3.0502841996291582e-03 1.0000000000000000e+00 1.1976563700107466e+01 3.6923393617395623e+00 9.9911373252122679e+00 
233 1 2 1.1309481869220473e-02 5.4150374608286644e-03 1.0000000000000000e+00 1.1029308955577099e+01 6.1724115859378870e+00 9.1904644138298650e+00 
125 1 2 1.1309481869220473e-02 2.9448791050993737e-03 1.0000000000000000e+00 1.0530507434511739e+01 8.2874248580733436e+00 9.2385818625968881e+00 
50 1 2 1.1309481869220473e-02 5.9328169928586248e-03 1.0000000000000000e+00 6.9925118297764399e+00 8.6519115217225373e+00 8.6621070545615595e+00 
203 1 2 1.1309481869220473e-02 -3.6173431347005847e-02 1.0000000000000000e+00 1.3004503517982707e+01 1.6051717874625999e+00 1.1109679349124956e+01 
5 1 2 1.1309481869220473e-02 8.8916553835238794e-03 1.0000000000000000e+00 6.7838580448162880e+00 3.7580302200644793e+00 1.0922656860866061e+01 
222 1 2 1.1309481869220473e-02 -1.1046160621304835e-02 1.0000000000000000e+00 7.5219125328318883e+00 8.3286225134365122e+00 1.1086426956216634e+01 
190 1 2 1.1309481869220473e-02 1.1049122048495353e-03 1.0000000000000000e+00 9.6350592959459593e+00 8.0844385521413891e+00 1.1399860808541177e+01 
380 1 2 1.1309481869220473e-02 1.0537107542174271e-02 1.0000000000000000e+00 1.1110509663783644e+01 2.9664941573327877e+00 1.2122319154319170e+01 
83 1 2 1.1309481869220473e-02 2.7998415120912348e-02 1.0000000000000000e+00 1.2257862666545391e+01 5.4126481725392361e+00 1.1624255056085907e+01 
58 1 2 1.1309481869220473e-02 -1.0781165575137631e-03 1.0000000000000000e+00 7.7375722131495213e+00 6.7598535369216455e+00 1.2713748788879347e+01 
41 1 2 1.1309481869220473e-02 1.2254893339699081e-02 1.0000000000000000e+00 1.2930635985098354e+01 7.4389678561825052e+00 1.2492176624573935e+01 
35 1 2 1.1309481869220473e-02 3.8763910149441916e-03 1.0000000000000000e+00 9.1647472002882324e+00 1.5708248999547831e+00 1.3022456938304940e+01 
323 1 2 1.1309481869220473e-02 -8.7477532999098045e-04 1.0000000000000000e+00 7.6181873731138454e+00 3.3732262729292963e+00 1.3143122921394911e+01 
98 1 2 1.1309481869220473e-02 -3.2834269036619975e-03 1.0000000000000000e+00 9.0475104549357575e+00 8.1789684463953360e+00 1.3746413922684196e+01 
280 1 2 1.1309481869220473e-02 5.3222066114116577e-03 1.0000000000000000e+00 1.1194235913311886e+01 8.2592981801712266e+00 1.3067459251664966e+01 
52 1 2 1.1309481869220473e-02 1.9527003146119816e-03 1.0000000000000000e+00 8.8985220972680388e+00 1.8763884095845689e+00 1.5199348992513324e+01 
13 1 2 1.1309481869220473e-02 1.4641564637173254e-02 1.0000000000000000e+00 1.2880533216823107e+01 1.5093043953559120e+00 1.5087250528156346e+01 
39 1 2 1.1309481869220473e-02 -4.5987453431284797e-02 1.0000000000000000e+00 1.0299863763184442e+01 3.4710438453668777e+00 1.5552313601376845e+01 
364 1 2 1.1309481869220473e-02 2.3451233940459592e-03 1.0000000000000000e+00 1.2831967843304239e+01 3.6006577936235740e+00 1.4634868199283721e+01 
175 1 2 1.1309481869220473e-02 3.4810729270521859e-03 1.0000000000000000e+00 9.0328396070374080e+00 5.5116335447264060e+00 1.4661120714338947e+01 
64 1 2 1.1309481869220473e-02 4.0387110121589418e-03 1.0000000000000000e+00 1.0752206609818582e+01 7.1123202150615663e+00 1.4827424548143453e+01 
93 1 2 1.1309481869220473e-02 1.7192956567084030e-03 1.0000000000000000e+00 6.8582856106574308e+00 9.6860564999316061e+00 1.4716674453714228e+01 
335 1 2 1.1309481869220473e-02 6.1434582695890465e-03 1.0000000000000000e+00 1.0888306878710827e+01 3.4581583708811919e-01 1.6756668599564755e+01 
349 1 2 1.1309481869220473e-02 7.0849651035202292e-03 1.0000000000000000e+00 6.7795628216603605e+00 2.7570569869296544e+00 1.6911575568853287e+01 
169 1 2 1.1309481869220473e-02 -1.0868914636483727e-03 1.0000000000000000e+00 7.1551028285674141e+00 5.2448839614376670e+00 1.7049655018899085e+01 
264 1 2 1.1309481869220473e-02 3.8472505464138699e-03 1.0000000000000000e+00 1.2561690178846508e+01 5.5018614630118821e+00 1.5973004601241938e+01 
24 1 2 1.1309481869220473e-02 -5.6051130920986271e-02 1.0000000000000000e+00 8.4024765492808857e+00 8.5003008412842913e+00 1.5747207796512317e+01 
308 1 2 1.1309481869220473e-02 -1.4646043155144912e-02 1.0000000000000000e+00 1.0344501420806115e+01 7.1780808045808477e+00 1.6835939284277543e+01 
6 1 2 1.1309481869220473e-02 2.6440078852422274e-02 1.0000000000000000e+00 1.1845705180914040e+01 9.2841169105799164e+00 1.5716939972090781e+01 
196 1 2 1.1309481869220473e-02 2.7940302023042214e-03 1.0000000000000000e+00 1.2648557597856760e+01 1.3674819235104290e+00 1.8287874806656067e+01 
283 1 2 1.1309481869220473e-02 -1.7796547062237933e-03 1.0000000000000000e+00 9.6713065351523682e+00 1.9616619048205308e+00 1.8045739495829480e+01 
22 1 2 1.1309481869220473e-02 2.0110125552431457e-03 1.0000000000000000e+00 9.8248653984215721e+00 4.2707467091701723e+00 1.8561097872567913e+01 
191 1 2 1.1309481871391166e-02 6.4278210471662330e-03 1.0000000000000000e+00 8.3894537701408485e+00 9.4537530066955728e+00 1.7508057362898867e+01 
15 1 2 1.1309481869220473e-02 2.0847730498974919e-02 1.0000000000000000e+00 8.1793602615546188e+00 3.6574848416380729e-01 1.9559412131286031e+01 
232 1 2 1.1309481869220473e-02 8.8562821991608129e-03 1.0000000000000000e+00 8.8375511902065362e+00 2.4712369823552138e+00 1.9861946056354981e+01 
94 1 2 1.1309481869220473e-02 7.0340135072241589e-03 1.0000000000000000e+00 1.1536655908218631e+01 5.3476195331857106e+00 1.9458884703734714e+01 
49 1 2 1.1309481869220473e-02 4.5710268141207593e-03 1.0000000000000000e+00 8.5675708778314270e+00 7.3821449370977419e+00 1.8681033062629389e+01 
331 1 2 1.1309481869220473e-02 6.6780507738875197e-03 1.0000000000000000e+00 1.1121892336144905e+01 7.4842610263230673e+00 1.9889520304530457e+01 
218 1 2 1.1309481871391166e-02 6.7568262133898244e-02 1.0000000000000000e+00 6.7214290906505365e+00 9.2188643530270902e+00 1.8579474075600785e+01 
167 1 2 1.1309481869220473e-02 -3.5931017474495680e-03 1.0000000000000000e+00 8.1904376292844283e+00 1.1205445775521916e+01 1.8949058441646370e-02 
59 1 2 1.1309481869220473e-02 3.7269938156650299e-04 1.0000000000000000e+00 7.9644018617439336e+00 1.3362036352092051e+01 8.4330550694761852e-01 
338 1 2 1.1309481869220473e-02 1.6330904725672954e-03 1.0000000000000000e+00 1.2906603872160318e+01 1.6068912127146572e+01 1.0509829444679575e+00 
247 1 2 1.1309481869220473e-02 4.2310869776209549e-03 1.0000000000000000e+00 1.2174556547382828e+01 1.2863153967907998e+01 2.7343204003298749e+00 
284 1 2 1.1309481869220473e-02 3.0033840771770581e-02 1.0000000000000000e+00 1.0601501387507774e+01 1.5041699876543047e+01 1.7175604735286536e+00 
276 1 2 1.1309481869220473e-02 1.3053483343252004e-02 1.0000000000000000e+00 8.0448760477842054e+00 1.5886318138471108e+01 2.2166008739110010e+00 