LAMMPS data file via write_data, version 30 Jul 2016, timestep = 1000000

2080 atoms
8 atom types

0.0000000000000000e+00 4.0000000000000000e+01 xlo xhi
0.0000000000000000e+00 4.0000000000000000e+01 ylo yhi
0.0000000000000000e+00 1.0000000000000000e+02 zlo zhi

Masses

1 3.896
2 4.306
3 20.064
4 8.378
5 8.378
6 8.378
7 8.378
8 8.378

Atoms # meso-molecular

1 2 4 2.2559723595316457e+00 0.0000000000000000e+00 1.0000000000000000e+00 0.0000000000000000e+00 0.0000000000000000e+00 2.5000000000000000e+00 
2 2 4 2.2559723595316457e+00 0.0000000000000000e+00 1.0000000000000000e+00 0.0000000000000000e+00 2.0000000000000000e+00 2.5000000000000000e+00 
3 2 4 2.2559723595316457e+00 0.0000000000000000e+00 1.0000000000000000e+00 0.0000000000000000e+00 4.0000000000000000e+00 2.5000000000000000e+00 
4 2 4 2.2559723595316457e+00 0.0000000000000000e+00 1.0000000000000000e+00 0.0000000000000000e+00 6.0000000000000000e+00 2.5000000000000000e+00 
5 2 4 2.2559723595316457e+00 1.7538517643518494e-07 1.0000000000000000e+00 0.0000000000000000e+00 8.0000000000000000e+00 2.5000000000000000e+00 
6 2 4 2.2559723595316457e+00 -4.6366179215604292e-02 1.0000000000000000e+00 0.0000000000000000e+00 1.0000000000000000e+01 2.5000000000000000e+00 
7 2 4 2.2559723595316457e+00 -3.6444580360294226e-01 1.0000000000000000e+00 0.0000000000000000e+00 1.2000000000000000e+01 2.5000000000000000e+00 
8 2 4 2.2559723595316457e+00 -9.7032998169490126e-01 1.0000000000000000e+00 0.0000000000000000e+00 1.4000000000000000e+01 2.5000000000000000e+00 
9 2 4 2.2559723595316457e+00 -1.6578623811273892e+00 1.0000000000000000e+00 0.0000000000000000e+00 1.6000000000000000e+01 2.5000000000000000e+00 
10 2 4 2.2559723595316457e+00 -2.2241035678507957e+00 1.0000000000000000e+00 0.0000000000000000e+00 1.8000000000000000e+01 2.5000000000000000e+00 
21 2 4 2.2559723595316457e+00 0.0000000000000000e+00 1.0000000000000000e+00 2.0000000000000000e+00 0.0000000000000000e+00 2.5000000000000000e+00 
22 2 4 2.2559723595316457e+00 0.0000000000000000e+00 1.0000000000000000e+00 2.0000000000000000e+00 2.0000000000000000e+00 2.5000000000000000e+00 
23 2 4 2.2559723595316457e+00 -5.5460124604563834e-04 1.0000000000000000e+00 2.0000000000000000e+00 4.0000000000000000e+00 2.5000000000000000e+00 
24 2 4 2.2559723595316457e+00 -1.4347985621056894e-01 1.0000000000000000e+00 2.0000000000000000e+00 6.0000000000000000e+00 2.5000000000000000e+00 
25 2 4 2.2559723595316457e+00 -7.0070207419516484e-01 1.0000000000000000e+00 2.0000000000000000e+00 8.0000000000000000e+00 2.5000000000000000e+00 
26 2 4 2.2559723595316457e+00 -1.9727006609496327e+00 1.0000000000000000e+00 2.0000000000000000e+00 1.0000000000000000e+01 2.5000000000000000e+00 
27 2 4 2.2559723595316457e+00 -4.0396775381008210e+00 1.0000000000000000e+00 2.0000000000000000e+00 1.2000000000000000e+01 2.5000000000000000e+00 
28 2 4 2.2559723595316457e+00 -6.9707999052198568e+00 1.0000000000000000e+00 2.0000000000000000e+00 1.4000000000000000e+01 2.5000000000000000e+00 
29 2 4 2.2559723595316457e+00 -1.0759209450223537e+01 1.0000000000000000e+00 2.0000000000000000e+00 1.6000000000000000e+01 2.5000000000000000e+00 
30 2 4 2.2559723595316457e+00 -1.3553678977971762e+01 1.0000000000000000e+00 2.0000000000000000e+00 1.8000000000000000e+01 2.5000000000000000e+00 
41 2 4 2.2559723595316457e+00 0.0000000000000000e+00 1.0000000000000000e+00 4.0000000000000000e+00 0.0000000000000000e+00 2.5000000000000000e+00 
42 2 4 2.2559723595316457e+00 -2.3121727007002790e-01 1.0000000000000000e+00 4.0000000000000000e+00 2.0000000000000000e+00 2.5000000000000000e+00 
43 2 4 2.2559723595316457e+00 -2.5464126421836442e+00 1.0000000000000000e+00 4.0000000000000000e+00 4.0000000000000000e+00 2.5000000000000000e+00 
44 2 4 2.2559723595316457e+00 -9.6333699378826640e+00 1.0000000000000000e+00 4.0000000000000000e+00 6.0000000000000000e+00 2.5000000000000000e+00 
45 2 4 2.2559723595316457e+00 -2.2939715479435286e+01 1.0000000000000000e+00 4.0000000000000000e+00 8.0000000000000000e+00 2.5000000000000000e+00 
46 2 4 2.2559723595316457e+00 -4.1917201924104972e+01 1.0000000000000000e+00 4.0000000000000000e+00 1.0000000000000000e+01 2.5000000000000000e+00 
47 2 4 2.2559723595316457e+00 -6.3268095304021088e+01 1.0000000000000000e+00 4.0000000000000000e+00 1.2000000000000000e+01 2.5000000000000000e+00 
48 2 4 2.2559723595316457e+00 -8.3553122559168216e+01 1.0000000000000000e+00 4.0000000000000000e+00 1.4000000000000000e+01 2.5000000000000000e+00 
49 2 4 2.2559723595316457e+00 -9.9040325724080930e+01 1.0000000000000000e+00 4.0000000000000000e+00 1.6000000000000000e+01 2.5000000000000000e+00 
50 2 4 2.2559723595316457e+00 -1.0712446478044133e+02 1.0000000000000000e+00 4.0000000000000000e+00 1.8000000000000000e+01 2.5000000000000000e+00 
61 2 4 2.2559723595316457e+00 -5.1789747767648464e-01 1.0000000000000000e+00 6.0000000000000000e+00 0.0000000000000000e+00 2.5000000000000000e+00 
62 2 4 2.2559723595316457e+00 -6.2839790441164158e+00 1.0000000000000000e+00 6.0000000000000000e+00 2.0000000000000000e+00 2.5000000000000000e+00 
63 2 4 2.2559723595316457e+00 -2.7652874371101952e+01 1.0000000000000000e+00 6.0000000000000000e+00 4.0000000000000000e+00 2.5000000000000000e+00 
64 2 4 2.2559723595316457e+00 -7.4989911922065289e+01 1.0000000000000000e+00 6.0000000000000000e+00 6.0000000000000000e+00 2.5000000000000000e+00 
65 2 4 2.2559723595316457e+00 -1.5220802069484915e+02 1.0000000000000000e+00 6.0000000000000000e+00 8.0000000000000000e+00 2.5000000000000000e+00 
66 2 4 2.2559723595316457e+00 -2.5213318621902795e+02 1.0000000000000000e+00 6.0000000000000000e+00 1.0000000000000000e+01 2.5000000000000000e+00 
67 2 4 2.2559723595316457e+00 -3.5822652746805318e+02 1.0000000000000000e+00 6.0000000000000000e+00 1.2000000000000000e+01 2.5000000000000000e+00 
68 2 4 2.2559723595316457e+00 -4.5199436386919018e+02 1.0000000000000000e+00 6.0000000000000000e+00 1.4000000000000000e+01 2.5000000000000000e+00 
69 2 4 2.2559723595316457e+00 -5.1789926972663523e+02 1.0000000000000000e+00 6.0000000000000000e+00 1.6000000000000000e+01 2.5000000000000000e+00 
70 2 4 2.2559723595316457e+00 -5.5044670220896955e+02 1.0000000000000000e+00 6.0000000000000000e+00 1.8000000000000000e+01 2.5000000000000000e+00 
81 2 4 2.2559723595316457e+00 -6.4901407873011543e+00 1.0000000000000000e+00 8.0000000000000000e+00 0.0000000000000000e+00 2.5000000000000000e+00 
82 2 4 2.2559723595316457e+00 -3.7210657495290882e+01 1.0000000000000000e+00 8.0000000000000000e+00 2.0000000000000000e+00 2.5000000000000000e+00 
83 2 4 2.2559723595316457e+00 -1.2333430750727442e+02 1.0000000000000000e+00 8.0000000000000000e+00 4.0000000000000000e+00 2.5000000000000000e+00 
84 2 4 2.2559723595316457e+00 -2.8953726991621988e+02 1.0000000000000000e+00 8.0000000000000000e+00 6.0000000000000000e+00 2.5000000000000000e+00 
85 2 4 2.2559723595316457e+00 -5.4133126203703068e+02 1.0000000000000000e+00 8.0000000000000000e+00 8.0000000000000000e+00 2.5000000000000000e+00 
86 2 4 2.2559723595316457e+00 -8.5939056807823340e+02 1.0000000000000000e+00 8.0000000000000000e+00 1.0000000000000000e+01 2.5000000000000000e+00 
87 2 4 2.2559723595316457e+00 -1.2005137673751276e+03 1.0000000000000000e+00 8.0000000000000000e+00 1.2000000000000000e+01 2.5000000000000000e+00 
88 2 4 2.2559723595316457e+00 -1.5073306975378869e+03 1.0000000000000000e+00 8.0000000000000000e+00 1.4000000000000000e+01 2.5000000000000000e+00 
89 2 4 2.2559723595316457e+00 -1.7296506186553947e+03 1.0000000000000000e+00 8.0000000000000000e+00 1.6000000000000000e+01 2.5000000000000000e+00 
90 2 4 2.2559723595316457e+00 -1.8421751708952197e+03 1.0000000000000000e+00 8.0000000000000000e+00 1.8000000000000000e+01 2.5000000000000000e+00 
101 2 4 2.2559723595316457e+00 -2.9745555147105982e+01 1.0000000000000000e+00 1.0000000000000000e+01 0.0000000000000000e+00 2.5000000000000000e+00 
102 2 4 2.2559723595316457e+00 -1.2165863215626831e+02 1.0000000000000000e+00 1.0000000000000000e+01 2.0000000000000000e+00 2.5000000000000000e+00 
103 2 4 2.2559723595316457e+00 -3.4915719441194165e+02 1.0000000000000000e+00 1.0000000000000000e+01 4.0000000000000000e+00 2.5000000000000000e+00 
104 2 4 2.2559723595316457e+00 -7.5793681152206591e+02 1.0000000000000000e+00 1.0000000000000000e+01 6.0000000000000000e+00 2.5000000000000000e+00 
105 2 4 2.2559723595316457e+00 -1.3638686968010804e+03 1.0000000000000000e+00 1.0000000000000000e+01 8.0000000000000000e+00 2.5000000000000000e+00 
106 2 4 2.2559723595316457e+00 -2.1260289670529332e+03 1.0000000000000000e+00 1.0000000000000000e+01 1.0000000000000000e+01 2.5000000000000000e+00 
107 2 4 2.2559723595316457e+00 -2.9483887725683612e+03 1.0000000000000000e+00 1.0000000000000000e+01 1.2000000000000000e+01 2.5000000000000000e+00 
108 2 4 2.2559723595316457e+00 -3.7001345002384151e+03 1.0000000000000000e+00 1.0000000000000000e+01 1.4000000000000000e+01 2.5000000000000000e+00 
109 2 4 2.2559723595316457e+00 -4.2588185733498804e+03 1.0000000000000000e+00 1.0000000000000000e+01 1.6000000000000000e+01 2.5000000000000000e+00 
110 2 4 2.2559723595316457e+00 -4.5526284550230757e+03 1.0000000000000000e+00 1.0000000000000000e+01 1.8000000000000000e+01 2.5000000000000000e+00 
121 2 4 2.2559723595316457e+00 -8.1934469191489569e+01 1.0000000000000000e+00 1.2000000000000000e+01 0.0000000000000000e+00 2.5000000000000000e+00 
122 2 4 2.2559723595316457e+00 -2.7892010148667106e+02 1.0000000000000000e+00 1.2000000000000000e+01 2.0000000000000000e+00 2.5000000000000000e+00 
123 2 4 2.2559723595316457e+00 -7.3805621659553549e+02 1.0000000000000000e+00 1.2000000000000000e+01 4.0000000000000000e+00 2.5000000000000000e+00 
124 2 4 2.2559723595316457e+00 -1.5388117462700852e+03 1.0000000000000000e+00 1.2000000000000000e+01 6.0000000000000000e+00 2.5000000000000000e+00 
125 2 4 2.2559723595316457e+00 -2.7060881505147358e+03 1.0000000000000000e+00 1.2000000000000000e+01 8.0000000000000000e+00 2.5000000000000000e+00 
126 2 4 2.2559723595316457e+00 -4.1681120299607182e+03 1.0000000000000000e+00 1.2000000000000000e+01 1.0000000000000000e+01 2.5000000000000000e+00 
127 2 4 2.2559723595316457e+00 -5.7515081964789761e+03 1.0000000000000000e+00 1.2000000000000000e+01 1.2000000000000000e+01 2.5000000000000000e+00 
128 2 4 2.2559723595316457e+00 -7.2088872259346135e+03 1.0000000000000000e+00 1.2000000000000000e+01 1.4000000000000000e+01 2.5000000000000000e+00 
129 2 4 2.2559723595316457e+00 -8.3091814755229425e+03 1.0000000000000000e+00 1.2000000000000000e+01 1.6000000000000000e+01 2.5000000000000000e+00 
130 2 4 2.2559723595316457e+00 -8.8982829137225217e+03 1.0000000000000000e+00 1.2000000000000000e+01 1.8000000000000000e+01 2.5000000000000000e+00 
141 2 4 2.2559723595316457e+00 -1.6243707258129112e+02 1.0000000000000000e+00 1.4000000000000000e+01 0.0000000000000000e+00 2.5000000000000000e+00 
142 2 4 2.2559723595316457e+00 -4.9599953806504777e+02 1.0000000000000000e+00 1.4000000000000000e+01 2.0000000000000000e+00 2.5000000000000000e+00 
143 2 4 2.2559723595316457e+00 -1.2530458882712876e+03 1.0000000000000000e+00 1.4000000000000000e+01 4.0000000000000000e+00 2.5000000000000000e+00 
144 2 4 2.2559723595316457e+00 -2.5457065052833777e+03 1.0000000000000000e+00 1.4000000000000000e+01 6.0000000000000000e+00 2.5000000000000000e+00 
145 2 4 2.2559723595316457e+00 -4.4087621308317403e+03 1.0000000000000000e+00 1.4000000000000000e+01 8.0000000000000000e+00 2.5000000000000000e+00 
146 2 4 2.2559723595316457e+00 -6.7431692169869339e+03 1.0000000000000000e+00 1.4000000000000000e+01 1.0000000000000000e+01 2.5000000000000000e+00 
147 2 4 2.2559723595316457e+00 -9.2758181476627578e+03 1.0000000000000000e+00 1.4000000000000000e+01 1.2000000000000000e+01 2.5000000000000000e+00 
148 2 4 2.2559723595316457e+00 -1.1616985521852073e+04 1.0000000000000000e+00 1.4000000000000000e+01 1.4000000000000000e+01 2.5000000000000000e+00 
149 2 4 2.2559723595316457e+00 -1.3401617811361943e+04 1.0000000000000000e+00 1.4000000000000000e+01 1.6000000000000000e+01 2.5000000000000000e+00 
150 2 4 2.2559723595316457e+00 -1.4367586238035723e+04 1.0000000000000000e+00 1.4000000000000000e+01 1.8000000000000000e+01 2.5000000000000000e+00 
161 2 4 2.2559723595316457e+00 -2.4974710487143722e+02 1.0000000000000000e+00 1.6000000000000000e+01 0.0000000000000000e+00 2.5000000000000000e+00 
162 2 4 2.2559723595316457e+00 -7.1602610636952909e+02 1.0000000000000000e+00 1.6000000000000000e+01 2.0000000000000000e+00 2.5000000000000000e+00 
163 2 4 2.2559723595316457e+00 -1.7605886168446623e+03 1.0000000000000000e+00 1.6000000000000000e+01 4.0000000000000000e+00 2.5000000000000000e+00 
164 2 4 2.2559723595316457e+00 -3.5184200200397481e+03 1.0000000000000000e+00 1.6000000000000000e+01 6.0000000000000000e+00 2.5000000000000000e+00 
165 2 4 2.2559723595316457e+00 -6.0415669296438118e+03 1.0000000000000000e+00 1.6000000000000000e+01 8.0000000000000000e+00 2.5000000000000000e+00 
166 2 4 2.2559723595316457e+00 -9.2069850890024118e+03 1.0000000000000000e+00 1.6000000000000000e+01 1.0000000000000000e+01 2.5000000000000000e+00 
167 2 4 2.2559723595316457e+00 -1.2645764792153101e+04 1.0000000000000000e+00 1.6000000000000000e+01 1.2000000000000000e+01 2.5000000000000000e+00 
168 2 4 2.2559723595316457e+00 -1.5834320251372570e+04 1.0000000000000000e+00 1.6000000000000000e+01 1.4000000000000000e+01 2.5000000000000000e+00 
169 2 4 2.2559723595316457e+00 -1.8275872525399325e+04 1.0000000000000000e+00 1.6000000000000000e+01 1.6000000000000000e+01 2.5000000000000000e+00 
170 2 4 2.2559723595316457e+00 -1.9603763149205864e+04 1.0000000000000000e+00 1.6000000000000000e+01 1.8000000000000000e+01 2.5000000000000000e+00 
181 2 4 2.2559723595316457e+00 -3.0750576093592133e+02 1.0000000000000000e+00 1.8000000000000000e+01 0.0000000000000000e+00 2.5000000000000000e+00 
182 2 4 2.2559723595316457e+00 -8.5670261898499587e+02 1.0000000000000000e+00 1.8000000000000000e+01 2.0000000000000000e+00 2.5000000000000000e+00 
183 2 4 2.2559723595316457e+00 -2.0792852330538562e+03 1.0000000000000000e+00 1.8000000000000000e+01 4.0000000000000000e+00 2.5000000000000000e+00 
184 2 4 2.2559723595316457e+00 -4.1219862850646514e+03 1.0000000000000000e+00 1.8000000000000000e+01 6.0000000000000000e+00 2.5000000000000000e+00 
185 2 4 2.2559723595316457e+00 -7.0534001985975610e+03 1.0000000000000000e+00 1.8000000000000000e+01 8.0000000000000000e+00 2.5000000000000000e+00 
186 2 4 2.2559723595316457e+00 -1.0731288913266850e+04 1.0000000000000000e+00 1.8000000000000000e+01 1.0000000000000000e+01 2.5000000000000000e+00 
187 2 4 2.2559723595316457e+00 -1.4732909271903369e+04 1.0000000000000000e+00 1.8000000000000000e+01 1.2000000000000000e+01 2.5000000000000000e+00 
188 2 4 2.2559723595316457e+00 -1.8448172959106170e+04 1.0000000000000000e+00 1.8000000000000000e+01 1.4000000000000000e+01 2.5000000000000000e+00 
189 2 4 2.2559723595316457e+00 -2.1296630112792685e+04 1.0000000000000000e+00 1.8000000000000000e+01 1.6000000000000000e+01 2.5000000000000000e+00 
190 2 4 2.2559723595316457e+00 -2.2847735766232781e+04 1.0000000000000000e+00 1.8000000000000000e+01 1.8000000000000000e+01 2.5000000000000000e+00 
1803 1405 2 1.0285411419923880e+00 8.0327505468985892e+03 1.0000000000000000e+00 1.6622333524364802e+01 7.5790166789053881e+00 2.1325060704100299e+01 
954 556 2 1.0272629472534642e+00 1.3904698017337161e+04 1.0000000000000000e+00 1.7636057363469487e+01 7.2419046451991722e+00 2.1921868540153550e+01 
570 172 2 1.0275889729791217e+00 8.7106563672161828e+03 1.0000000000000000e+00 1.5276439047597762e+01 9.8662731022064367e+00 2.0242101596676150e+01 
1274 876 2 1.0280251534075633e+00 1.1647663124353339e+04 1.0000000000000000e+00 1.6794071667299374e+01 7.4937115675825758e+00 2.1401675571861187e+01 
608 210 2 1.0279744696723943e+00 4.3092319281058608e+03 1.0000000000000000e+00 1.6616254593530495e+01 7.6021007636136080e+00 2.1271468109636185e+01 
1784 1386 2 1.0275638111340146e+00 4.3056411310611074e+03 1.0000000000000000e+00 1.6617821732637459e+01 1.3074956850283794e+01 1.9714192370345820e+01 
577 179 2 1.0287053612018773e+00 -1.2249633239210450e+04 1.0000000000000000e+00 1.6663658805339065e+01 7.4834974785357469e+00 2.1508303166946778e+01 
1368 970 2 1.0290651520916474e+00 5.2305166210131883e+03 1.0000000000000000e+00 1.5330747893126139e+01 1.0739246884190305e+01 2.0038695909353809e+01 
1620 1222 2 1.0278998779063793e+00 5.7315303678992186e+03 1.0000000000000000e+00 1.5886490764723181e+01 8.4969140994099668e+00 2.0566905070420646e+01 
817 419 2 1.0289444990817489e+00 3.0522897632036602e+03 1.0000000000000000e+00 1.6302573665145825e+01 8.3646057545383279e+00 2.0439395696219464e+01 
1106 708 2 1.0283339997588619e+00 1.1613798382575937e+04 1.0000000000000000e+00 1.6986185569742080e+01 7.6486927245050440e+00 2.1049513831400422e+01 
1547 1149 2 1.0280557616409252e+00 1.7403313110349736e+04 1.0000000000000000e+00 1.6344937508730712e+01 8.4917723911018381e+00 2.0290944924917376e+01 
731 333 2 1.0288105182985849e+00 -1.0512498841119652e+04 1.0000000000000000e+00 1.6823750075505739e+01 8.0531755300983434e+00 2.0546333003430039e+01 
1060 662 2 1.0273844226467779e+00 6.7520422530948927e+03 1.0000000000000000e+00 1.6055542497132457e+01 1.3399033357882930e+01 2.0121908838055500e+01 
999 601 2 1.0296171008955006e+00 1.0678169851906903e+04 1.0000000000000000e+00 1.6438164285232052e+01 7.6016808985327557e+00 2.1421967894242076e+01 
1143 745 2 1.0286268662857891e+00 -3.0002545689997169e+03 1.0000000000000000e+00 1.5128143549641528e+01 9.0351313551888435e+00 2.0866655537128718e+01 
1567 1169 2 1.0273657697436522e+00 4.9795204953277089e+03 1.0000000000000000e+00 1.6473629105593048e+01 7.6042498222123713e+00 2.1341170526397779e+01 
1704 1306 2 1.0296819284263488e+00 1.7061367947856139e+04 1.0000000000000000e+00 1.6106204783607016e+01 7.7358268310698897e+00 2.1437603961541658e+01 
590 192 2 1.0284705935815532e+00 -5.6244075401301761e+03 1.0000000000000000e+00 1.6581869268725100e+01 7.7283656876067761e+00 2.1077121575328128e+01 
1657 1259 2 1.0273123781686286e+00 3.0550421374679772e+03 1.0000000000000000e+00 1.6587178260590935e+01 8.1948495300394075e+00 2.0452605916255617e+01 
1306 908 2 1.0280941222856588e+00 9.6131554582124281e+03 1.0000000000000000e+00 1.5792061158472565e+01 7.7486900653382769e+00 2.1755205490146594e+01 
595 197 2 1.0279357897428458e+00 1.1027592804651392e+03 1.0000000000000000e+00 1.5950150778191656e+01 9.4062666333822573e+00 1.9921427503102617e+01 
706 308 2 1.0273265445628883e+00 3.5507563583391079e+03 1.0000000000000000e+00 1.7769489013506139e+01 7.5836689721515320e+00 2.1131628061419104e+01 
1374 976 2 1.0288310546223569e+00 9.7564566556442387e+03 1.0000000000000000e+00 1.7804175566794445e+01 1.6926353938885487e+01 2.1849460537627820e+01 
868 470 2 1.0271033373174767e+00 1.0590164162011173e+04 1.0000000000000000e+00 1.6745173549444178e+01 1.3380765627111025e+01 1.9790307421552768e+01 
947 549 2 1.0270091513993569e+00 1.9190493794575163e+04 1.0000000000000000e+00 1.8731987012787510e+01 1.4372750290045595e+01 2.0149588944945659e+01 
446 48 2 1.0273536295377619e+00 -9.3489189298262045e+03 1.0000000000000000e+00 1.9430732825016342e+01 1.6586875455697498e+01 2.1727116515936491e+01 
1173 775 2 1.0267904833672630e+00 -6.6025940101766982e+03 1.0000000000000000e+00 1.4827457501041430e+01 1.0392142842709481e+01 2.0572097582452283e+01 
1902 1504 2 1.0253910399251818e+00 -8.8453430592543282e+03 1.0000000000000000e+00 1.6590555865777677e+01 8.6675185723486443e+00 2.0018192421454579e+01 
946 548 2 1.0281475642691926e+00 1.9190752775343964e+04 1.0000000000000000e+00 1.7722225599897115e+01 1.3866410284985017e+01 1.9826912681961570e+01 
841 443 2 1.0284777585535405e+00 -8.6068554303556391e+02 1.0000000000000000e+00 1.5831830604206020e+01 8.0168620063388776e+00 2.1200429454138384e+01 
896 498 2 1.0296755166372835e+00 -8.5480649684302728e+02 1.0000000000000000e+00 1.7443943612521419e+01 7.5042053112611642e+00 2.1285038509698801e+01 
1041 643 2 1.0285064776360966e+00 1.6324570747835463e+04 1.0000000000000000e+00 1.7980440555480296e+01 1.4378703543366676e+01 2.0077836465156285e+01 
1497 1099 2 1.0248440091758335e+00 9.0057245660192984e+02 1.0000000000000000e+00 1.6650478868485258e+01 1.3922681937320085e+01 2.0064792544870308e+01 
476 78 2 1.0291135172561712e+00 -5.7786032134616471e+03 1.0000000000000000e+00 1.6821796578673492e+01 1.2350056457698205e+01 1.9431668817918304e+01 
1250 852 2 1.0282279807330612e+00 -6.7046145848441020e+03 1.0000000000000000e+00 1.8167343387544118e+01 1.4973796794335383e+01 2.0413766621296322e+01 
1571 1173 2 1.0285265951905458e+00 3.1236107147054770e+02 1.0000000000000000e+00 1.6220523116819553e+01 1.2180937229246187e+01 1.9607311129739017e+01 
1984 1586 2 1.0282853988156184e+00 3.1041378730919610e+03 1.0000000000000000e+00 1.5938303427278015e+01 1.2210592985102924e+01 1.9760834327412063e+01 
1046 648 2 1.0290115645797111e+00 1.3186807240332593e+04 1.0000000000000000e+00 1.6540758362501990e+01 7.5844066754625397e+00 2.1373487345888652e+01 
1281 883 2 1.0274472679167332e+00 5.1605977248683666e+03 1.0000000000000000e+00 1.6180559256673753e+01 1.2747685195941660e+01 1.9784011710093893e+01 
1701 1303 2 1.0268136811839523e+00 1.7065336619363614e+04 1.0000000000000000e+00 1.6924592418220321e+01 7.3833212682100253e+00 2.1570957124084213e+01 
1734 1336 2 1.0276217518230890e+00 -2.1955181391184533e+03 1.0000000000000000e+00 1.7655732046463807e+01 1.4379550460673551e+01 2.0085943045892687e+01 
541 143 2 1.0273692579933367e+00 2.6994766240272958e+02 1.0000000000000000e+00 1.5436514952093550e+01 1.0399055477809110e+01 1.9971326906170166e+01 
1464 1066 2 1.0267785432673362e+00 1.5525023702988688e+04 1.0000000000000000e+00 1.7299102467416073e+01 7.6062163670654783e+00 2.1041514361893512e+01 
733 335 2 1.0285362522044170e+00 -2.2642063913463335e+04 1.0000000000000000e+00 1.6493358587498275e+01 7.3115796523555368e+00 2.2158588456796945e+01 
1992 1594 2 1.0267931771349412e+00 -5.4527853086367031e+03 1.0000000000000000e+00 1.7015421517027473e+01 1.3012706105348338e+01 1.9564475849761653e+01 
1089 691 2 1.0301662612943261e+00 5.9475159455192033e+03 1.0000000000000000e+00 1.6809787569687469e+01 7.3005312354614738e+00 2.1969296580676261e+01 
1810 1412 2 1.0299556813561559e+00 6.7643968371580937e+04 1.0000000000000000e+00 1.8768303058473826e+01 1.2871280813857496e+01 1.9594863589097368e+01 
893 495 2 1.0280630798287751e+00 -8.5807539715196890e+02 1.0000000000000000e+00 1.4554033661580048e+01 1.1609315387725823e+01 2.0943437131669405e+01 
778 380 2 1.0270750645958118e+00 7.5897232774382428e+03 1.0000000000000000e+00 1.8871898002299769e+01 1.3840381954868867e+01 1.9941705147601247e+01 
1713 1315 2 1.0279951201530702e+00 7.4927083190855765e+03 1.0000000000000000e+00 1.9034447200366060e+01 1.3647927511042756e+01 1.9924374048485991e+01 
1782 1384 2 1.0287874284640184e+00 1.2203255678866744e+04 1.0000000000000000e+00 1.7813526214940758e+01 7.5354389041231995e+00 2.1264118535500824e+01 
1347 949 2 1.0288777709996970e+00 -1.1854471987145884e+04 1.0000000000000000e+00 1.6617792930535646e+01 7.3091233093286494e+00 2.2046372574895987e+01 
666 268 2 1.0293383740464308e+00 -9.7720131400690207e+03 1.0000000000000000e+00 1.5788427471162256e+01 1.2737461640230341e+01 2.0030251276071422e+01 
939 541 2 1.0290687316069120e+00 1.1798531499723224e+04 1.0000000000000000e+00 1.8080300356143098e+01 8.8313902668953634e+00 1.9874488912965070e+01 
1291 893 2 1.0275536638216560e+00 1.2304331012957144e+04 1.0000000000000000e+00 1.6929056787720970e+01 7.2625804893278261e+00 2.1940878433958876e+01 
448 50 2 1.0274884805430111e+00 -9.4354355161816529e+03 1.0000000000000000e+00 1.5580316017725115e+01 1.1848053544460337e+01 1.9904249850475928e+01 
480 82 2 1.0287221363549457e+00 -5.4544587279303969e+03 1.0000000000000000e+00 1.7434579222179348e+01 7.2102029863768156e+00 2.2054284055221313e+01 
1287 889 2 1.0282867525917647e+00 9.8478316426306774e+03 1.0000000000000000e+00 1.8787298742487760e+01 7.9614151483055435e+00 2.1071452056801810e+01 
602 204 2 1.0269366086137950e+00 6.2276049747157267e+03 1.0000000000000000e+00 1.5656726703977878e+01 1.2107701805930587e+01 1.9901794130204330e+01 
1271 873 2 1.0283432202024407e+00 -7.1791060258258415e+02 1.0000000000000000e+00 1.6338200594796010e+01 7.3650972829336485e+00 2.2138357244019403e+01 
1762 1364 2 1.0275118211650114e+00 -7.9315862733129925e+03 1.0000000000000000e+00 1.6601747694134239e+01 7.3836025675174337e+00 2.1773050999211083e+01 
1035 637 2 1.0278892950321432e+00 1.0546992625724990e+04 1.0000000000000000e+00 1.6568884279572320e+01 7.6299168088907212e+00 2.1244010312086282e+01 
1785 1387 2 1.0282680433310394e+00 3.0662248955696705e+03 1.0000000000000000e+00 1.4742338368682015e+01 1.0403380013774681e+01 2.0699465899259781e+01 
1845 1447 2 1.0280958463334808e+00 -3.9728469179761319e+03 1.0000000000000000e+00 1.9138546784405023e+01 1.6536295691258236e+01 2.1598736617542279e+01 
1651 1253 2 1.0279121437724863e+00 9.4460401795892994e+02 1.0000000000000000e+00 1.4944493528943445e+01 1.2406327317679473e+01 2.0648047339074580e+01 
1142 744 2 1.0275289129222673e+00 -3.0059223851318925e+03 1.0000000000000000e+00 1.5476937164193222e+01 1.1689531971174487e+01 1.9953674023829816e+01 
440 42 2 1.0289775897101374e+00 -3.3800579880066261e+03 1.0000000000000000e+00 1.7166418020653865e+01 7.3134934989538438e+00 2.1741935804537523e+01 
727 329 2 1.0270561172799690e+00 -8.8638258292304927e+03 1.0000000000000000e+00 1.7330325137736217e+01 7.4282012485675972e+00 2.1387158296200230e+01 
1842 1444 2 1.0289491571009022e+00 -9.7465050581934047e+03 1.0000000000000000e+00 1.7271955066275126e+01 7.2729554117452340e+00 2.1846397517478437e+01 
1879 1481 2 1.0279894136299905e+00 -2.7997951785792079e+03 1.0000000000000000e+00 1.5985563293913453e+01 1.2516944995157305e+01 1.9818309210137215e+01 
1703 1305 2 1.0283215637450025e+00 5.1942581360506563e+04 1.0000000000000000e+00 1.7931711150456646e+01 7.4706166052048610e+00 2.1431281312005325e+01 
1693 1295 2 1.0301232365506541e+00 -3.1869919247748089e+03 1.0000000000000000e+00 1.6881883148268727e+01 7.6799063620621801e+00 2.1061777626453484e+01 
1443 1045 2 1.0282527385358187e+00 1.1811231840369597e+04 1.0000000000000000e+00 1.7030309969607263e+01 7.3136527150451425e+00 2.1758259208753088e+01 
434 36 2 1.0288193145089759e+00 3.6146892658736360e+03 1.0000000000000000e+00 1.5905360310667238e+01 7.7465998474341644e+00 2.1621325270246807e+01 
1417 1019 2 1.0260171213989979e+00 -7.0995345357589631e+03 1.0000000000000000e+00 1.6965295495551569e+01 7.6273274301823815e+00 2.1047172784135480e+01 
1331 933 2 1.0274777251990990e+00 -1.3648630008857028e+03 1.0000000000000000e+00 1.9337729677286440e+01 8.2973554326087715e+00 2.1104422542951447e+01 
1333 935 2 1.0266641950318520e+00 -3.5143417919772915e+03 1.0000000000000000e+00 1.5872622274107272e+01 1.1731753176279721e+01 1.9683357301316992e+01 
978 580 2 1.0278456766816872e+00 7.9061050363551303e+03 1.0000000000000000e+00 1.5065662635591366e+01 1.1090345673395403e+01 2.0262583242751571e+01 
1109 711 2 1.0278128868365048e+00 1.0791289566236910e+04 1.0000000000000000e+00 1.5504880381936058e+01 1.1695288937036574e+01 1.9936151172386353e+01 
617 219 2 1.0291773720364070e+00 -7.0542741909598146e+02 1.0000000000000000e+00 1.4909055351136089e+01 1.1786793492786297e+01 2.0527184075488751e+01 
1724 1326 2 1.0287334996108455e+00 1.6729949723316240e+03 1.0000000000000000e+00 1.6439566648374889e+01 1.3103955771092270e+01 1.9807667262282024e+01 
933 535 2 1.0290424178343502e+00 1.0992134151666316e+04 1.0000000000000000e+00 1.6523191522249935e+01 7.5234262182226512e+00 2.1516774435680194e+01 
875 477 2 1.0295188052604261e+00 1.1540230327763240e+04 1.0000000000000000e+00 1.7188155419337463e+01 7.5426614996425521e+00 2.1220794541519851e+01 
537 139 2 1.0288891483945544e+00 3.0307130049017101e+03 1.0000000000000000e+00 1.7583484268551157e+01 7.3644113289774227e+00 2.1596020805768521e+01 
626 228 2 1.0285910579919140e+00 8.0477897008420296e+03 1.0000000000000000e+00 1.6744883043671944e+01 7.4616255390934976e+00 2.1510559597782844e+01 
1848 1450 2 1.0277674479178880e+00 -3.9730474247148954e+03 1.0000000000000000e+00 1.5420374398325380e+01 7.9609215383034515e+00 2.1881128339011156e+01 
1793 1395 2 1.0273070309979460e+00 -7.2267637915726880e+02 1.0000000000000000e+00 1.6928696011593832e+01 7.4183275095054411e+00 2.1497361352905102e+01 
584 186 2 1.0299274190969332e+00 -2.6452490613138848e+03 1.0000000000000000e+00 1.7769233066176643e+01 7.6611676256448566e+00 2.1046150288475744e+01 
897 499 2 1.0289720207347997e+00 -3.9104930981313569e+03 1.0000000000000000e+00 1.9026852111092072e+01 7.6862055078354903e+00 2.1952528104392965e+01 
1444 1046 2 1.0276449994659496e+00 8.0266842720196664e+03 1.0000000000000000e+00 1.6270594514182843e+01 7.6621227083890231e+00 2.1386674735275786e+01 
1986 1588 2 1.0278283686135536e+00 -1.4667409784136564e+03 1.0000000000000000e+00 1.5568046343844149e+01 8.1964522345674631e+00 2.1219055741357700e+01 
624 226 2 1.0291122439925457e+00 8.0463206454179090e+02 1.0000000000000000e+00 1.6425199609691052e+01 7.6209632496621094e+00 2.1380560854062896e+01 
1277 879 2 1.0302154519973876e+00 1.0784026152226237e+04 1.0000000000000000e+00 1.8323319846367749e+01 7.9112990251455777e+00 2.0870543422208268e+01 
457 59 2 1.0280072575326240e+00 -3.4480279060184439e+03 1.0000000000000000e+00 1.5744691663747782e+01 7.9933346393753464e+00 2.1325678373778228e+01 
1215 817 2 1.0279837820395714e+00 4.2166388094786071e+03 1.0000000000000000e+00 1.5379934469542041e+01 1.0620216523070161e+01 1.9995503570571437e+01 
985 587 2 1.0290540164922026e+00 6.4851465712559511e+03 1.0000000000000000e+00 1.6308691650341945e+01 7.6971981327337993e+00 2.1319022548259863e+01 
1977 1579 2 1.0291151973510848e+00 -5.7299137243016939e+03 1.0000000000000000e+00 1.8772898588103484e+01 7.8319108757881475e+00 2.1295557455807199e+01 
1855 1457 2 1.0283382421836735e+00 -8.5372385349170618e+03 1.0000000000000000e+00 1.9069335419207320e+01 1.5290734386382070e+01 2.0758683425626462e+01 