LAMMPS data file via write_data, version 30 Jul 2016, timestep = 50000000

100 atoms
2 atom types

0.0000000000000000e+00 2.0000000000000000e+01 xlo xhi
0.0000000000000000e+00 2.0000000000000000e+01 ylo yhi
0.0000000000000000e+00 2.0000000000000000e+01 zlo zhi

Masses

1 3.896
2 4.31

Atoms # meso-molecular

1 1 2 1.1605682584842913e+00 0.0000000000000000e+00 1.0000000000000000e+00 5.0899999999999999e+00 9.5999999999999996e-01 8.0000000000000004e-01 
6 1 2 1.1605682584842913e+00 0.0000000000000000e+00 1.0000000000000000e+00 5.4199999999999999e+00 4.1799999999999997e+00 8.0000000000000002e-02 
11 1 2 1.1605682584842913e+00 0.0000000000000000e+00 1.0000000000000000e+00 4.0899999999999999e+00 8.2500000000000000e+00 8.4999999999999998e-01 
2 1 2 1.1605682584842913e+00 0.0000000000000000e+00 1.0000000000000000e+00 4.0199999999999996e+00 9.1000000000000003e-01 4.9000000000000004e+00 
7 1 2 1.1605682584842913e+00 0.0000000000000000e+00 1.0000000000000000e+00 5.4800000000000004e+00 4.7199999999999998e+00 5.4800000000000004e+00 
12 1 2 1.1605682584842913e+00 0.0000000000000000e+00 1.0000000000000000e+00 4.5999999999999996e+00 9.2500000000000000e+00 5.2000000000000002e+00 
8 1 2 1.1605682584842913e+00 0.0000000000000000e+00 1.0000000000000000e+00 4.1100000000000003e+00 4.2100000000000000e+00 8.1500000000000004e+00 
13 1 2 1.1605682584842913e+00 0.0000000000000000e+00 1.0000000000000000e+00 5.5499999999999998e+00 9.0800000000000001e+00 8.0099999999999998e+00 
3 1 2 1.1605682584842913e+00 0.0000000000000000e+00 1.0000000000000000e+00 5.4100000000000001e+00 1.6000000000000001e+00 9.6799999999999997e+00 
9 1 2 1.1605682584842913e+00 0.0000000000000000e+00 1.0000000000000000e+00 4.1799999999999997e+00 5.0700000000000003e+00 1.2740000000000000e+01 
4 1 2 1.1605682584842913e+00 0.0000000000000000e+00 1.0000000000000000e+00 5.7100000000000000e+00 5.5000000000000004e-01 1.3990000000000000e+01 
14 1 2 1.1605682584842913e+00 0.0000000000000000e+00 1.0000000000000000e+00 4.9500000000000002e+00 9.7200000000000006e+00 1.3470000000000001e+01 
10 1 2 1.1605682584842913e+00 0.0000000000000000e+00 1.0000000000000000e+00 5.9800000000000004e+00 5.0899999999999999e+00 1.6550000000000001e+01 
5 1 2 1.1605682584842913e+00 0.0000000000000000e+00 1.0000000000000000e+00 4.4800000000000004e+00 1.2200000000000000e+00 1.7739999999999998e+01 
15 1 2 1.1605682584842913e+00 0.0000000000000000e+00 1.0000000000000000e+00 5.0000000000000000e+00 8.1500000000000004e+00 1.7350000000000001e+01 
16 1 2 1.1605682584842913e+00 0.0000000000000000e+00 1.0000000000000000e+00 5.2999999999999998e+00 1.2609999999999999e+01 6.8999999999999995e-01 
21 1 2 1.1605682584842913e+00 0.0000000000000000e+00 1.0000000000000000e+00 5.3300000000000001e+00 1.7609999999999999e+01 6.2000000000000000e-01 
17 1 2 1.1605682584842913e+00 0.0000000000000000e+00 1.0000000000000000e+00 5.2599999999999998e+00 1.3270000000000000e+01 5.5099999999999998e+00 
22 1 2 1.1605682584842913e+00 0.0000000000000000e+00 1.0000000000000000e+00 5.6600000000000001e+00 1.7730000000000000e+01 5.2699999999999996e+00 
18 1 2 1.1605682584842913e+00 0.0000000000000000e+00 1.0000000000000000e+00 4.5999999999999996e+00 1.3230000000000000e+01 9.1999999999999993e+00 
23 1 2 1.1605682584842913e+00 0.0000000000000000e+00 1.0000000000000000e+00 5.5999999999999996e+00 1.7090000000000000e+01 9.4000000000000004e+00 
19 1 2 1.1605682584842913e+00 0.0000000000000000e+00 1.0000000000000000e+00 4.7300000000000004e+00 1.2140000000000001e+01 1.2779999999999999e+01 
24 1 2 1.1605682584842913e+00 0.0000000000000000e+00 1.0000000000000000e+00 4.9100000000000001e+00 1.7219999999999999e+01 1.3650000000000000e+01 
25 1 2 1.1605682584842913e+00 0.0000000000000000e+00 1.0000000000000000e+00 5.3099999999999996e+00 1.7160000000000000e+01 1.6120000000000001e+01 
20 1 2 1.1605682584842913e+00 0.0000000000000000e+00 1.0000000000000000e+00 4.8799999999999999e+00 1.2480000000000000e+01 1.7760000000000002e+01 
51 1 2 1.1605682584842913e+00 0.0000000000000000e+00 1.0000000000000000e+00 1.3190000000000000e+01 8.9000000000000001e-01 6.2000000000000000e-01 
26 1 2 1.1605682584842913e+00 0.0000000000000000e+00 1.0000000000000000e+00 8.8599999999999994e+00 1.6399999999999999e+00 5.8999999999999997e-01 
56 1 2 1.1605682584842913e+00 0.0000000000000000e+00 1.0000000000000000e+00 1.2240000000000000e+01 5.1500000000000004e+00 4.1999999999999998e-01 
36 1 2 1.1605682584842913e+00 0.0000000000000000e+00 1.0000000000000000e+00 8.2100000000000009e+00 8.8300000000000001e+00 1.0800000000000001e+00 
31 1 2 1.1605682584842913e+00 0.0000000000000000e+00 1.0000000000000000e+00 9.1699999999999999e+00 5.7900000000000000e+00 1.5300000000000000e+00 
61 1 2 1.1605682584842913e+00 0.0000000000000000e+00 1.0000000000000000e+00 1.2420000000000000e+01 8.3900000000000006e+00 1.8500000000000001e+00 
27 1 2 1.1605682584842913e+00 0.0000000000000000e+00 1.0000000000000000e+00 8.8399999999999999e+00 1.6499999999999999e+00 4.2100000000000000e+00 
32 1 2 1.1605682584842913e+00 0.0000000000000000e+00 1.0000000000000000e+00 9.6500000000000004e+00 4.7100000000000000e+00 4.0000000000000000e+00 
52 1 2 1.1605682584842913e+00 0.0000000000000000e+00 1.0000000000000000e+00 1.2420000000000000e+01 1.3899999999999999e+00 5.0499999999999998e+00 
57 1 2 1.1605682584842913e+00 0.0000000000000000e+00 1.0000000000000000e+00 1.2260000000000000e+01 4.6900000000000004e+00 4.8099999999999996e+00 
37 1 2 1.1605682584842913e+00 0.0000000000000000e+00 1.0000000000000000e+00 9.2300000000000004e+00 8.8499999999999996e+00 5.9299999999999997e+00 
62 1 2 1.1605682584842913e+00 0.0000000000000000e+00 1.0000000000000000e+00 1.2039999999999999e+01 9.8499999999999996e+00 5.9699999999999998e+00 
53 1 2 1.1605682584842913e+00 0.0000000000000000e+00 1.0000000000000000e+00 1.2980000000000000e+01 1.3000000000000000e-01 9.4900000000000002e+00 
28 1 2 1.1605682584842913e+00 0.0000000000000000e+00 1.0000000000000000e+00 8.5500000000000007e+00 1.5100000000000000e+00 8.6600000000000001e+00 
33 1 2 1.1605682584842913e+00 0.0000000000000000e+00 1.0000000000000000e+00 9.2699999999999996e+00 5.4600000000000000e+00 8.9600000000000009e+00 
58 1 2 1.1605682584842913e+00 0.0000000000000000e+00 1.0000000000000000e+00 1.3020000000000000e+01 5.5199999999999996e+00 9.2599999999999998e+00 
38 1 2 1.1605682584842913e+00 0.0000000000000000e+00 1.0000000000000000e+00 9.6300000000000008e+00 8.1899999999999995e+00 9.5800000000000001e+00 
63 1 2 1.1605682584842913e+00 0.0000000000000000e+00 1.0000000000000000e+00 1.2850000000000000e+01 9.6400000000000006e+00 8.6400000000000006e+00 
64 1 2 1.1605682584842913e+00 0.0000000000000000e+00 1.0000000000000000e+00 1.3320000000000000e+01 9.4600000000000009e+00 1.2119999999999999e+01 
29 1 2 1.1605682584842913e+00 0.0000000000000000e+00 1.0000000000000000e+00 9.5299999999999994e+00 1.0200000000000000e+00 1.3180000000000000e+01 
34 1 2 1.1605682584842913e+00 0.0000000000000000e+00 1.0000000000000000e+00 9.7400000000000002e+00 5.8799999999999999e+00 1.3080000000000000e+01 
59 1 2 1.1605682584842913e+00 0.0000000000000000e+00 1.0000000000000000e+00 1.2920000000000000e+01 5.9699999999999998e+00 1.3190000000000000e+01 
39 1 2 1.1605682584842913e+00 0.0000000000000000e+00 1.0000000000000000e+00 9.1199999999999992e+00 8.8699999999999992e+00 1.3310000000000000e+01 
55 1 2 1.1605682584842913e+00 0.0000000000000000e+00 1.0000000000000000e+00 1.2050000000000001e+01 3.7000000000000000e-01 1.6539999999999999e+01 
65 1 2 1.1605682584842913e+00 0.0000000000000000e+00 1.0000000000000000e+00 1.2470000000000001e+01 8.1799999999999997e+00 1.6230000000000000e+01 
30 1 2 1.1605682584842913e+00 0.0000000000000000e+00 1.0000000000000000e+00 8.9199999999999999e+00 1.4700000000000000e+00 1.7460000000000001e+01 
35 1 2 1.1605682584842913e+00 0.0000000000000000e+00 1.0000000000000000e+00 9.0700000000000003e+00 5.2000000000000002e+00 1.7949999999999999e+01 
40 1 2 1.1605682584842913e+00 0.0000000000000000e+00 1.0000000000000000e+00 8.0299999999999994e+00 9.1300000000000008e+00 1.7719999999999999e+01 
66 1 2 1.1605682584842913e+00 0.0000000000000000e+00 1.0000000000000000e+00 1.2050000000000001e+01 1.3000000000000000e+01 6.0999999999999999e-01 
46 1 2 1.1605682584842913e+00 0.0000000000000000e+00 1.0000000000000000e+00 8.1999999999999993e+00 1.7370000000000001e+01 2.5000000000000000e-01 
71 1 2 1.1605682584842913e+00 0.0000000000000000e+00 1.0000000000000000e+00 1.2830000000000000e+01 1.7809999999999999e+01 1.1200000000000001e+00 
41 1 2 1.1605682584842913e+00 0.0000000000000000e+00 1.0000000000000000e+00 8.8900000000000006e+00 1.2039999999999999e+01 1.6000000000000001e+00 
72 1 2 1.1605682584842913e+00 0.0000000000000000e+00 1.0000000000000000e+00 1.2199999999999999e+01 1.6140000000000001e+01 5.1299999999999999e+00 
42 1 2 1.1605682584842913e+00 0.0000000000000000e+00 1.0000000000000000e+00 9.1300000000000008e+00 1.3480000000000000e+01 5.9000000000000004e+00 
47 1 2 1.1605682584842913e+00 0.0000000000000000e+00 1.0000000000000000e+00 9.0999999999999996e+00 1.6070000000000000e+01 5.8600000000000003e+00 
68 1 2 1.1605682584842913e+00 0.0000000000000000e+00 1.0000000000000000e+00 1.2039999999999999e+01 1.2130000000000001e+01 8.0600000000000005e+00 
48 1 2 1.1605682584842913e+00 0.0000000000000000e+00 1.0000000000000000e+00 9.2599999999999998e+00 1.7329999999999998e+01 8.3200000000000003e+00 
43 1 2 1.1605682584842913e+00 0.0000000000000000e+00 1.0000000000000000e+00 9.3100000000000005e+00 1.2529999999999999e+01 8.7100000000000009e+00 
44 1 2 1.1605682584842913e+00 0.0000000000000000e+00 1.0000000000000000e+00 8.7100000000000009e+00 1.3500000000000000e+01 1.3550000000000001e+01 
74 1 2 1.1605682584842913e+00 0.0000000000000000e+00 1.0000000000000000e+00 1.2180000000000000e+01 1.6579999999999998e+01 1.3020000000000000e+01 
49 1 2 1.1605682584842913e+00 0.0000000000000000e+00 1.0000000000000000e+00 8.7100000000000009e+00 1.7890000000000001e+01 1.2890000000000001e+01 
45 1 2 1.1605682584842913e+00 0.0000000000000000e+00 1.0000000000000000e+00 9.1099999999999994e+00 1.3400000000000000e+01 1.7350000000000001e+01 
70 1 2 1.1605682584842913e+00 0.0000000000000000e+00 1.0000000000000000e+00 1.3270000000000000e+01 1.2869999999999999e+01 1.7820000000000000e+01 
50 1 2 1.1605682584842913e+00 0.0000000000000000e+00 1.0000000000000000e+00 8.1999999999999993e+00 1.6800000000000001e+01 1.7710000000000001e+01 
81 1 2 1.1605682584842913e+00 0.0000000000000000e+00 1.0000000000000000e+00 1.7309999999999999e+01 4.2999999999999998e+00 3.4000000000000002e-01 
86 1 2 1.1605682584842913e+00 0.0000000000000000e+00 1.0000000000000000e+00 1.6230000000000000e+01 9.6500000000000004e+00 6.6000000000000003e-01 
76 1 2 1.1605682584842913e+00 0.0000000000000000e+00 1.0000000000000000e+00 1.6379999999999999e+01 5.5000000000000004e-01 1.9800000000000000e+00 
77 1 2 1.1605682584842913e+00 0.0000000000000000e+00 1.0000000000000000e+00 1.6739999999999998e+01 1.7100000000000000e+00 4.4900000000000002e+00 
87 1 2 1.1605682584842913e+00 0.0000000000000000e+00 1.0000000000000000e+00 1.7870000000000001e+01 9.7899999999999991e+00 5.4500000000000002e+00 
82 1 2 1.1605682584842913e+00 0.0000000000000000e+00 1.0000000000000000e+00 1.7859999999999999e+01 5.1200000000000001e+00 5.7800000000000002e+00 
83 1 2 1.1605682584842913e+00 0.0000000000000000e+00 1.0000000000000000e+00 1.6190000000000001e+01 4.2400000000000002e+00 8.1999999999999993e+00 
78 1 2 1.1605682584842913e+00 0.0000000000000000e+00 1.0000000000000000e+00 1.7280000000000001e+01 1.1899999999999999e+00 9.8499999999999996e+00 
88 1 2 1.1605682584842913e+00 0.0000000000000000e+00 1.0000000000000000e+00 1.6430000000000000e+01 8.2500000000000000e+00 9.5899999999999999e+00 
54 1 2 1.1605682584842913e+00 0.0000000000000000e+00 1.0000000000000000e+00 1.3730000000000000e+01 1.4500000000000000e+00 1.2840000000000000e+01 
79 1 2 1.1605682584842913e+00 0.0000000000000000e+00 1.0000000000000000e+00 1.6510000000000002e+01 1.4299999999999999e+00 1.2820000000000000e+01 
89 1 2 1.1605682584842913e+00 0.0000000000000000e+00 1.0000000000000000e+00 1.6329999999999998e+01 9.3800000000000008e+00 1.2050000000000001e+01 
84 1 2 1.1605682584842913e+00 0.0000000000000000e+00 1.0000000000000000e+00 1.6960000000000001e+01 4.0700000000000003e+00 1.3430000000000000e+01 
90 1 2 1.1605682584842913e+00 0.0000000000000000e+00 1.0000000000000000e+00 1.6129999999999999e+01 8.7599999999999998e+00 1.6449999999999999e+01 
80 1 2 1.1605682584842913e+00 0.0000000000000000e+00 1.0000000000000000e+00 1.7590000000000000e+01 6.4000000000000001e-01 1.7480000000000000e+01 
85 1 2 1.1605682584842913e+00 0.0000000000000000e+00 1.0000000000000000e+00 1.6140000000000001e+01 4.9000000000000004e+00 1.7260000000000002e+01 
60 1 2 1.1605682584842913e+00 0.0000000000000000e+00 1.0000000000000000e+00 1.3770000000000000e+01 5.9299999999999997e+00 1.7239999999999998e+01 
91 1 2 1.1605682584842913e+00 0.0000000000000000e+00 1.0000000000000000e+00 1.6059999999999999e+01 1.3300000000000001e+01 1.2100000000000000e+00 
96 1 2 1.1605682584842913e+00 0.0000000000000000e+00 1.0000000000000000e+00 1.6190000000000001e+01 1.6170000000000002e+01 1.7800000000000000e+00 
67 1 2 1.1605682584842913e+00 0.0000000000000000e+00 1.0000000000000000e+00 1.3990000000000000e+01 1.2590000000000000e+01 5.5000000000000000e+00 
97 1 2 1.1605682584842913e+00 0.0000000000000000e+00 1.0000000000000000e+00 1.7510000000000002e+01 1.6930000000000000e+01 4.4699999999999998e+00 
92 1 2 1.1605682584842913e+00 0.0000000000000000e+00 1.0000000000000000e+00 1.7550000000000001e+01 1.3570000000000000e+01 5.9699999999999998e+00 
98 1 2 1.1605682584842913e+00 0.0000000000000000e+00 1.0000000000000000e+00 1.6649999999999999e+01 1.6600000000000001e+01 8.5000000000000000e+00 
93 1 2 1.1605682584842913e+00 0.0000000000000000e+00 1.0000000000000000e+00 1.7680000000000000e+01 1.3600000000000000e+01 8.6300000000000008e+00 
73 1 2 1.1605682584842913e+00 0.0000000000000000e+00 1.0000000000000000e+00 1.3560000000000000e+01 1.6090000000000000e+01 8.6500000000000004e+00 
69 1 2 1.1605682584842913e+00 0.0000000000000000e+00 1.0000000000000000e+00 1.3820000000000000e+01 1.2660000000000000e+01 1.2080000000000000e+01 
94 1 2 1.1605682584842913e+00 0.0000000000000000e+00 1.0000000000000000e+00 1.6980000000000000e+01 1.2760000000000000e+01 1.3039999999999999e+01 
99 1 2 1.1605682584842913e+00 0.0000000000000000e+00 1.0000000000000000e+00 1.6430000000000000e+01 1.7590000000000000e+01 1.3100000000000000e+01 
75 1 2 1.1605682584842913e+00 0.0000000000000000e+00 1.0000000000000000e+00 1.3359999999999999e+01 1.7699999999999999e+01 1.7050000000000001e+01 
95 1 2 1.1605682584842913e+00 0.0000000000000000e+00 1.0000000000000000e+00 1.6780000000000001e+01 1.2590000000000000e+01 1.7670000000000002e+01 
100 1 2 1.1605682584842913e+00 0.0000000000000000e+00 1.0000000000000000e+00 1.7379999999999999e+01 1.6629999999999999e+01 1.7370000000000001e+01 

Velocities

1 0.0000000000000000e+00 0.0000000000000000e+00 0.0000000000000000e+00
6 0.0000000000000000e+00 0.0000000000000000e+00 0.0000000000000000e+00
11 0.0000000000000000e+00 0.0000000000000000e+00 0.0000000000000000e+00
2 0.0000000000000000e+00 0.0000000000000000e+00 0.0000000000000000e+00
7 0.0000000000000000e+00 0.0000000000000000e+00 0.0000000000000000e+00
12 0.0000000000000000e+00 0.0000000000000000e+00 0.0000000000000000e+00
8 0.0000000000000000e+00 0.0000000000000000e+00 0.0000000000000000e+00
13 0.0000000000000000e+00 0.0000000000000000e+00 0.0000000000000000e+00
3 0.0000000000000000e+00 0.0000000000000000e+00 0.0000000000000000e+00
9 0.0000000000000000e+00 0.0000000000000000e+00 0.0000000000000000e+00
4 0.0000000000000000e+00 0.0000000000000000e+00 0.0000000000000000e+00
14 0.0000000000000000e+00 0.0000000000000000e+00 0.0000000000000000e+00
10 0.0000000000000000e+00 0.0000000000000000e+00 0.0000000000000000e+00
5 0.0000000000000000e+00 0.0000000000000000e+00 0.0000000000000000e+00
15 0.0000000000000000e+00 0.0000000000000000e+00 0.0000000000000000e+00
16 0.0000000000000000e+00 0.0000000000000000e+00 0.0000000000000000e+00
21 0.0000000000000000e+00 0.0000000000000000e+00 0.0000000000000000e+00
17 0.0000000000000000e+00 0.0000000000000000e+00 0.0000000000000000e+00
22 0.0000000000000000e+00 0.0000000000000000e+00 0.0000000000000000e+00
18 0.0000000000000000e+00 0.0000000000000000e+00 0.0000000000000000e+00
23 0.0000000000000000e+00 0.0000000000000000e+00 0.0000000000000000e+00
19 0.0000000000000000e+00 0.0000000000000000e+00 0.0000000000000000e+00
24 0.0000000000000000e+00 0.0000000000000000e+00 0.0000000000000000e+00
25 0.0000000000000000e+00 0.0000000000000000e+00 0.0000000000000000e+00
20 0.0000000000000000e+00 0.0000000000000000e+00 0.0000000000000000e+00
51 0.0000000000000000e+00 0.0000000000000000e+00 0.0000000000000000e+00
26 0.0000000000000000e+00 0.0000000000000000e+00 0.0000000000000000e+00
56 0.0000000000000000e+00 0.0000000000000000e+00 0.0000000000000000e+00
36 0.0000000000000000e+00 0.0000000000000000e+00 0.0000000000000000e+00
31 0.0000000000000000e+00 0.0000000000000000e+00 0.0000000000000000e+00
61 0.0000000000000000e+00 0.0000000000000000e+00 0.0000000000000000e+00
27 0.0000000000000000e+00 0.0000000000000000e+00 0.0000000000000000e+00
32 0.0000000000000000e+00 0.0000000000000000e+00 0.0000000000000000e+00
52 0.0000000000000000e+00 0.0000000000000000e+00 0.0000000000000000e+00
57 0.0000000000000000e+00 0.0000000000000000e+00 0.0000000000000000e+00
37 0.0000000000000000e+00 0.0000000000000000e+00 0.0000000000000000e+00
62 0.0000000000000000e+00 0.0000000000000000e+00 0.0000000000000000e+00
53 0.0000000000000000e+00 0.0000000000000000e+00 0.0000000000000000e+00
28 0.0000000000000000e+00 0.0000000000000000e+00 0.0000000000000000e+00
33 0.0000000000000000e+00 0.0000000000000000e+00 0.0000000000000000e+00
58 0.0000000000000000e+00 0.0000000000000000e+00 0.0000000000000000e+00
38 0.0000000000000000e+00 0.0000000000000000e+00 0.0000000000000000e+00
63 0.0000000000000000e+00 0.0000000000000000e+00 0.0000000000000000e+00
64 0.0000000000000000e+00 0.0000000000000000e+00 0.0000000000000000e+00
29 0.0000000000000000e+00 0.0000000000000000e+00 0.0000000000000000e+00
34 0.0000000000000000e+00 0.0000000000000000e+00 0.0000000000000000e+00
59 0.0000000000000000e+00 0.0000000000000000e+00 0.0000000000000000e+00
39 0.0000000000000000e+00 0.0000000000000000e+00 0.0000000000000000e+00
55 0.0000000000000000e+00 0.0000000000000000e+00 0.0000000000000000e+00
65 0.0000000000000000e+00 0.0000000000000000e+00 0.0000000000000000e+00
30 0.0000000000000000e+00 0.0000000000000000e+00 0.0000000000000000e+00
35 0.0000000000000000e+00 0.0000000000000000e+00 0.0000000000000000e+00
40 0.0000000000000000e+00 0.0000000000000000e+00 0.0000000000000000e+00
66 0.0000000000000000e+00 0.0000000000000000e+00 0.0000000000000000e+00
46 0.0000000000000000e+00 0.0000000000000000e+00 0.0000000000000000e+00
71 0.0000000000000000e+00 0.0000000000000000e+00 0.0000000000000000e+00
41 0.0000000000000000e+00 0.0000000000000000e+00 0.0000000000000000e+00
72 0.0000000000000000e+00 0.0000000000000000e+00 0.0000000000000000e+00
42 0.0000000000000000e+00 0.0000000000000000e+00 0.0000000000000000e+00
47 0.0000000000000000e+00 0.0000000000000000e+00 0.0000000000000000e+00
68 0.0000000000000000e+00 0.0000000000000000e+00 0.0000000000000000e+00
48 0.0000000000000000e+00 0.0000000000000000e+00 0.0000000000000000e+00
43 0.0000000000000000e+00 0.0000000000000000e+00 0.0000000000000000e+00
44 0.0000000000000000e+00 0.0000000000000000e+00 0.0000000000000000e+00
74 0.0000000000000000e+00 0.0000000000000000e+00 0.0000000000000000e+00
49 0.0000000000000000e+00 0.0000000000000000e+00 0.0000000000000000e+00
45 0.0000000000000000e+00 0.0000000000000000e+00 0.0000000000000000e+00
70 0.0000000000000000e+00 0.0000000000000000e+00 0.0000000000000000e+00
50 0.0000000000000000e+00 0.0000000000000000e+00 0.0000000000000000e+00
81 0.0000000000000000e+00 0.0000000000000000e+00 0.0000000000000000e+00
86 0.0000000000000000e+00 0.0000000000000000e+00 0.0000000000000000e+00
76 0.0000000000000000e+00 0.0000000000000000e+00 0.0000000000000000e+00
77 0.0000000000000000e+00 0.0000000000000000e+00 0.0000000000000000e+00
87 0.0000000000000000e+00 0.0000000000000000e+00 0.0000000000000000e+00
82 0.0000000000000000e+00 0.0000000000000000e+00 0.0000000000000000e+00
83 0.0000000000000000e+00 0.0000000000000000e+00 0.0000000000000000e+00
78 0.0000000000000000e+00 0.0000000000000000e+00 0.0000000000000000e+00
88 0.0000000000000000e+00 0.0000000000000000e+00 0.0000000000000000e+00
54 0.0000000000000000e+00 0.0000000000000000e+00 0.0000000000000000e+00
79 0.0000000000000000e+00 0.0000000000000000e+00 0.0000000000000000e+00
89 0.0000000000000000e+00 0.0000000000000000e+00 0.0000000000000000e+00
84 0.0000000000000000e+00 0.0000000000000000e+00 0.0000000000000000e+00
90 0.0000000000000000e+00 0.0000000000000000e+00 0.0000000000000000e+00
80 0.0000000000000000e+00 0.0000000000000000e+00 0.0000000000000000e+00
85 0.0000000000000000e+00 0.0000000000000000e+00 0.0000000000000000e+00
60 0.0000000000000000e+00 0.0000000000000000e+00 0.0000000000000000e+00
91 0.0000000000000000e+00 0.0000000000000000e+00 0.0000000000000000e+00
96 0.0000000000000000e+00 0.0000000000000000e+00 0.0000000000000000e+00
67 0.0000000000000000e+00 0.0000000000000000e+00 0.0000000000000000e+00
97 0.0000000000000000e+00 0.0000000000000000e+00 0.0000000000000000e+00
92 0.0000000000000000e+00 0.0000000000000000e+00 0.0000000000000000e+00
98 0.0000000000000000e+00 0.0000000000000000e+00 0.0000000000000000e+00
93 0.0000000000000000e+00 0.0000000000000000e+00 0.0000000000000000e+00
73 0.0000000000000000e+00 0.0000000000000000e+00 0.0000000000000000e+00
69 0.0000000000000000e+00 0.0000000000000000e+00 0.0000000000000000e+00
94 0.0000000000000000e+00 0.0000000000000000e+00 0.0000000000000000e+00
99 0.0000000000000000e+00 0.0000000000000000e+00 0.0000000000000000e+00
75 0.0000000000000000e+00 0.0000000000000000e+00 0.0000000000000000e+00
95 0.0000000000000000e+00 0.0000000000000000e+00 0.0000000000000000e+00
100 0.0000000000000000e+00 0.0000000000000000e+00 0.0000000000000000e+00
