LAMMPS data file via write_data, version 30 Jul 2016, timestep = 50000000

384 atoms
2 atom types

0.0000000000000000e+00 2.0000000000000000e+01 xlo xhi
0.0000000000000000e+00 2.0000000000000000e+01 ylo yhi
0.0000000000000000e+00 2.0000000000000000e+01 zlo zhi

Masses

1 3.89
2 2.094

Atoms # meso-molecular

253 1 2 5.0000000000000333e-01 -1.4872583368538001e+01 1.0000000000000000e+00 3.7066713062350698e+00 3.3263695272415235e+00 2.9611201300267076e-01 
216 1 2 5.0000000000000333e-01 1.7064722871143566e+01 1.0000000000000000e+00 3.6847154081600944e+00 3.1666451346235802e+00 2.4652261799555653e-01 
304 1 2 5.0000000000000655e-01 -1.7022775240361817e+01 1.0000000000000000e+00 3.6344571028891446e+00 2.5129711277360061e+00 6.0974157493538933e-02 
139 1 2 4.9999999999998485e-01 4.0379842300695368e-01 1.0000000000000000e+00 4.3316979176454220e+00 2.3011631825052987e+00 2.8943943221491932e+00 
187 1 2 4.9999999999998240e-01 -4.1585512980987431e+00 1.0000000000000000e+00 4.3164088008764612e+00 2.2395557546478453e+00 2.8914822158764655e+00 
256 1 2 5.0000000000000766e-01 -8.7498688277269903e+00 1.0000000000000000e+00 4.4610644844230549e+00 2.6594484561171559e+00 2.9176977669055715e+00 
37 1 2 5.0000000000000755e-01 1.3236663027370737e+01 1.0000000000000000e+00 4.4560796221683168e+00 2.6699300622645032e+00 2.9187346590863932e+00 
125 1 2 5.0000000000003175e-01 -2.7584779731799905e+01 1.0000000000000000e+00 4.7401889197397757e+00 3.3073344760199879e+00 2.9876649514026021e+00 
53 1 2 4.9999999999996542e-01 -1.2148162073702766e+01 1.0000000000000000e+00 4.0497046854049037e+00 1.1411738716212732e+00 2.9344537292635775e+00 
376 1 2 4.9999999999998274e-01 -1.8936369535284427e+01 1.0000000000000000e+00 4.0107470533344705e+00 6.7941462605128078e-01 3.0716994674599216e+00 
183 1 2 4.9999999999999672e-01 3.6341977451835724e+01 1.0000000000000000e+00 4.0306411651200547e+00 4.3881158087902272e-01 3.1730708166787558e+00 
181 1 2 5.0000000000002554e-01 -1.4047482437051503e+01 1.0000000000000000e+00 4.0634688885249064e+00 7.7784796720927446e-02 3.3308234924351163e+00 
295 1 2 5.0000000000003253e-01 -7.8461421106838780e-01 1.0000000000000000e+00 4.9299478368920431e+00 3.6239470507186549e+00 3.0375474959515705e+00 
189 1 2 5.0000000000000488e-01 2.2667991257689362e+01 1.0000000000000000e+00 3.8041575002062400e+00 3.8134703878027154e+00 4.7273862357068902e-01 
46 1 2 5.0000000000001388e-01 1.6222189066518368e+01 1.0000000000000000e+00 5.3714568663324842e+00 3.8402545237806112e+00 1.9988095721333545e+00 
272 1 2 4.9999999999999811e-01 1.8508098124889862e+01 1.0000000000000000e+00 3.8654590625816851e+00 4.0541725118189618e+00 5.8182699844482322e-01 
288 1 2 5.0000000000000000e-01 -2.0520037538149225e+01 1.0000000000000000e+00 3.9616087119736498e+00 4.3474350672801734e+00 7.3444758746701988e-01 
296 1 2 4.9999999999998895e-01 -1.2510305990206414e+01 1.0000000000000000e+00 4.0188966599525004e+00 4.4776280776932076e+00 8.0707760343554424e-01 
239 1 2 4.9999999999998762e-01 2.6212321932659684e+01 1.0000000000000000e+00 4.0771001154080109e+00 4.6127545280479127e+00 8.9161902621604172e-01 
93 1 2 4.9999999999997508e-01 4.1697533353502486e+01 1.0000000000000000e+00 4.4499058425988700e+00 5.2619249788549336e+00 1.4013502248008132e+00 
135 1 2 4.9999999999999573e-01 -8.0849334041514425e+00 1.0000000000000000e+00 4.5952018494848197e+00 5.6362024728247757e+00 1.7801574052892783e+00 
29 1 2 4.9999999999997347e-01 1.7850080848103577e+01 1.0000000000000000e+00 5.5274675399552997e+00 4.5527094074522454e+00 3.2204364614771319e+00 
351 1 2 4.9999999999996619e-01 -3.4642194164582783e+01 1.0000000000000000e+00 5.5706875501136555e+00 4.6392812572460516e+00 3.2544405348551200e+00 
149 1 2 5.0000000000003419e-01 -4.7279096223323878e+00 1.0000000000000000e+00 4.6962674787113476e+00 6.7672140200258095e+00 2.2114978901135989e+00 
328 1 2 5.0000000000003109e-01 1.6168906924221218e+00 1.0000000000000000e+00 4.6205780189895753e+00 6.8537090330395758e+00 2.1828179671592780e+00 
264 1 2 5.0000000000002975e-01 4.4629864396961196e+01 1.0000000000000000e+00 4.5619883577204243e+00 6.9460976879705782e+00 2.1379857088174443e+00 
54 1 2 5.0000000000000810e-01 2.3560469342501637e+01 1.0000000000000000e+00 4.3531272762759823e+00 7.5366112150887075e+00 1.7876234738876993e+00 
383 1 2 4.9999999999999650e-01 -1.7237037226539684e+01 1.0000000000000000e+00 3.6140215926035588e+00 8.2170242531599094e+00 2.2226677389514973e+00 
320 1 2 5.0000000000000189e-01 6.6618018750714434e+00 1.0000000000000000e+00 4.0353489742653803e+00 8.4008082888768438e+00 1.6023918621879543e+00 
252 1 2 5.0000000000000122e-01 -8.8557475955820841e+00 1.0000000000000000e+00 3.9413963201701869e+00 9.0871285652216329e+00 1.8174208723067775e+00 
359 1 2 5.0000000000000133e-01 -1.2472913531459632e+01 1.0000000000000000e+00 3.9401716107858942e+00 9.0922454609629391e+00 1.8207846259499196e+00 
341 1 2 5.0000000000000111e-01 1.0020119069188892e+01 1.0000000000000000e+00 3.9293784768232074e+00 9.1651867442419306e+00 1.8696718518540076e+00 
381 1 2 5.0000000000000200e-01 -1.0982224293373818e+01 1.0000000000000000e+00 3.9157200674059442e+00 9.3271664095266633e+00 1.9966579581243420e+00 
367 1 2 4.9999999999999700e-01 -7.9947288389728710e+00 1.0000000000000000e+00 3.9112201740724530e+00 9.3606502027434892e+00 2.0276684408501890e+00 
224 1 2 4.9999999999998179e-01 7.2940905965750868e+00 1.0000000000000000e+00 3.9204428318206235e+00 9.4384326881372544e+00 2.0981803210766170e+00 
191 1 2 5.0000000000003586e-01 -5.2820398187502828e+00 1.0000000000000000e+00 4.0691959287333930e+00 9.9808887113873607e-03 3.3623807553544012e+00 
126 1 2 4.9999999999998845e-01 1.8111294030772029e+01 1.0000000000000000e+00 6.0978178442764293e+00 5.3066042526356956e+00 3.7279104414627433e+00 
84 1 2 4.9999999999999711e-01 1.1254440174506291e+01 1.0000000000000000e+00 6.5396247347381546e+00 5.8359995665455502e+00 3.7626762370965761e+00 
368 1 2 5.0000000000004696e-01 -1.7819654356949723e+01 1.0000000000000000e+00 6.5830861969098384e+00 5.5452905948963673e+00 4.3137532929963243e+00 
71 1 2 4.9999999999998257e-01 -7.3722068369737466e+00 1.0000000000000000e+00 6.5942398426143445e+00 5.5980744934191486e+00 4.1109902712049688e+00 
136 1 2 4.9999999999998496e-01 -7.3666191513173391e+00 1.0000000000000000e+00 6.3076444573071315e+00 6.7204529806699584e+00 3.6745968249378822e+00 
360 1 2 5.0000000000001488e-01 1.8903216272760339e+01 1.0000000000000000e+00 6.5074986330331335e+00 7.0804224805364671e+00 5.3344196385048503e+00 
292 1 2 4.9999999999983330e-01 1.4714081199021193e+01 1.0000000000000000e+00 5.6171854146187217e+00 7.6501039074048105e+00 3.9181000275374682e+00 
91 1 2 5.0000000000011058e-01 -1.1632452440916602e+01 1.0000000000000000e+00 5.4033561507341599e+00 8.3827096161841368e+00 4.0114179074892622e+00 
101 1 2 5.0000000000000544e-01 -4.7588435601372421e+00 1.0000000000000000e+00 5.1503751393246961e+00 8.8655857561829308e+00 4.4866881494290807e+00 
8 1 2 5.0000000000000355e-01 -1.1375423118790767e+01 1.0000000000000000e+00 5.1546719740583944e+00 8.8869598987075982e+00 4.5176955306933024e+00 
257 1 2 4.9999999999998890e-01 -1.4506757891321957e+01 1.0000000000000000e+00 6.0074331898344342e+00 8.9800062124649251e+00 5.1080787599834583e+00 
202 1 2 4.9999999999997907e-01 -3.4650402760035206e+01 1.0000000000000000e+00 4.7299704833900513e+00 9.5352527511482936e+00 4.7334415069761961e+00 
225 1 2 5.0000000000001532e-01 -1.2946813930701198e+01 1.0000000000000000e+00 5.9003719871686116e+00 9.8616474590826932e+00 6.1478823146222288e+00 
197 1 2 5.0000000000002598e-01 -2.5084605330349461e+01 1.0000000000000000e+00 6.3426186069239048e+00 9.5745055210550127e+00 6.3592523330615647e+00 
240 1 2 5.0000000000000744e-01 2.2091013329284969e+01 1.0000000000000000e+00 6.0773459940945065e+00 7.3669006985586920e+00 9.7557604866166958e+00 
248 1 2 4.9999999999996780e-01 -1.3597090610373137e+01 1.0000000000000000e+00 6.2318646922555248e+00 9.0928671890316188e+00 8.3644298393725816e+00 
268 1 2 4.9999999999997374e-01 -2.2439903529427010e+01 1.0000000000000000e+00 6.3520392285938989e+00 8.6315373328462908e+00 8.3828029554532275e+00 
133 1 2 5.0000000000006373e-01 -1.4075731151382046e+01 1.0000000000000000e+00 6.6167349442926193e+00 9.5340431006663113e+00 8.3026767943939372e+00 
163 1 2 5.0000000000000855e-01 -3.8128908557301280e+01 1.0000000000000000e+00 2.6324714374588387e+00 6.4056242181593328e+00 1.2854548904496813e+01 
43 1 2 5.0000000000000089e-01 1.3931884628605729e+00 1.0000000000000000e+00 3.2257356191877675e+00 6.7904186534262152e+00 1.2725610158958263e+01 
51 1 2 5.0000000000000067e-01 -1.9149207992289860e+01 1.0000000000000000e+00 3.2207111908583537e+00 6.7941918296703818e+00 1.2728157116434891e+01 
75 1 2 5.0000000000000067e-01 -4.2759595348854358e+00 1.0000000000000000e+00 3.2211294598194029e+00 6.7942944373795369e+00 1.2728420793743659e+01 
66 1 2 5.0000000000000067e-01 1.8501854672514384e+01 1.0000000000000000e+00 3.2394196040370780e+00 6.7999442842353366e+00 1.2742929256177982e+01 
74 1 2 5.0000000000000067e-01 -1.3846800314557902e+01 1.0000000000000000e+00 3.2398768915868312e+00 6.8001368921227998e+00 1.2743404123881195e+01 
67 1 2 5.0000000000000056e-01 9.1034114796249526e+00 1.0000000000000000e+00 3.2375915739722605e+00 6.7993753795490655e+00 1.2741318336307689e+01 
81 1 2 5.0000000000000044e-01 5.1326636695000598e+00 1.0000000000000000e+00 3.2514088123091640e+00 6.8046004295385485e+00 1.2755839397861344e+01 
194 1 2 5.0000000000000011e-01 -2.7438446073487309e+01 1.0000000000000000e+00 3.2869146515576126e+00 6.8178480555967838e+00 1.2810997927839837e+01 
141 1 2 5.0000000000002920e-01 5.0860742401142145e-01 1.0000000000000000e+00 6.1360945429281761e+00 7.3064651624957424e+00 1.0168728154787477e+01 
184 1 2 5.0000000000000588e-01 -6.3747985650521075e+00 1.0000000000000000e+00 5.7010166926343624e+00 7.5510255778416449e+00 1.0144719647040041e+01 
83 1 2 4.9999999999997641e-01 6.3021431566871392e+01 1.0000000000000000e+00 5.5181224225498449e+00 7.7759279840368363e+00 1.0112934772804284e+01 
234 1 2 4.9999999999997985e-01 -1.4692598304361836e+01 1.0000000000000000e+00 5.4683342797472214e+00 7.8696114281191223e+00 1.0108319455654225e+01 
378 1 2 4.9999999999999861e-01 1.5263915923860701e+01 1.0000000000000000e+00 5.4951209143405189e+00 8.0390647169814429e+00 1.0497413639061406e+01 
171 1 2 4.9999999999999423e-01 -3.6699242242740580e+00 1.0000000000000000e+00 5.5847585571236573e+00 7.7833552761424647e+00 1.0451245939846197e+01 
370 1 2 5.0000000000002576e-01 -4.4701732725109139e+01 1.0000000000000000e+00 6.2668856241674256e+00 7.2621716405687486e+00 1.0071890517532292e+01 
114 1 2 4.9999999999999556e-01 -9.8902106468321733e+00 1.0000000000000000e+00 2.1590346264248521e+00 1.2270144429037286e+00 1.6141906459111016e+01 
266 1 2 5.0000000000000255e-01 -3.8461567294547933e+01 1.0000000000000000e+00 1.4680247659529255e+00 1.3933756370872015e+00 1.5262695862804108e+01 
294 1 2 4.9999999999998396e-01 -1.5311160339102958e+01 1.0000000000000000e+00 2.1630438313563833e+00 1.8041234335831280e+00 1.5623949143934393e+01 
142 1 2 5.0000000000000966e-01 -2.8659040877767588e+00 1.0000000000000000e+00 2.6607475834196972e+00 2.7884874834741287e+00 1.6320605705183013e+01 
108 1 2 5.0000000000000933e-01 1.5959657474300762e+01 1.0000000000000000e+00 2.6618191428799571e+00 2.9521876022550102e+00 1.6368587498728889e+01 
293 1 2 5.0000000000000944e-01 -4.7573303918904459e+00 1.0000000000000000e+00 2.6463482702374890e+00 3.0033987567472074e+00 1.6413832020795439e+01 
267 1 2 4.9999999999996098e-01 -2.0023904123582161e+00 1.0000000000000000e+00 1.3165280166507753e+00 3.8660262189906520e+00 1.3902458396797073e+01 
36 1 2 4.9999999999996469e-01 -5.9749816549473103e+00 1.0000000000000000e+00 3.1778896018681707e-01 3.4965671872452928e+00 1.3988391021613671e+01 
44 1 2 5.0000000000001699e-01 -7.3582336227050038e-01 1.0000000000000000e+00 8.0636603334497514e-01 3.8424520410013785e+00 1.3974890344047108e+01 
155 1 2 5.0000000000001343e-01 -2.8185432451620414e+01 1.0000000000000000e+00 7.8876051262950386e-01 3.8814385613065916e+00 1.3990728936152649e+01 
82 1 2 5.0000000000001521e-01 6.7776135340618211e+00 1.0000000000000000e+00 6.3114842548988526e-01 3.7774693772150778e+00 1.4005064055052269e+01 
100 1 2 4.9999999999998923e-01 2.9126960925580767e+00 1.0000000000000000e+00 1.7225799361630068e+00 3.8126823057899539e+00 1.3962688544310680e+01 
4 1 2 5.0000000000001354e-01 -1.0364153361339490e+01 1.0000000000000000e+00 2.5854844612767485e+00 4.1693530378024395e+00 1.5883399897188381e+01 
298 1 2 5.0000000000002076e-01 2.7908976277800499e+00 1.0000000000000000e+00 2.4276937408858261e+00 4.7209885431909404e+00 1.5262050495335485e+01 
3 1 2 5.0000000000002254e-01 6.1937138801149150e+00 1.0000000000000000e+00 2.4771763876096675e+00 4.7750915841454136e+00 1.5098704448045574e+01 
195 1 2 5.0000000000002065e-01 9.2210320934380068e+00 1.0000000000000000e+00 2.4413872594593480e+00 4.7724220596073774e+00 1.5154948706319121e+01 
340 1 2 5.0000000000001088e-01 1.9810885408709790e+01 1.0000000000000000e+00 2.2872619198682638e+00 5.3690784071621112e+00 1.4370093994252217e+01 
69 1 2 4.9999999999996497e-01 -4.5702311036210475e+00 1.0000000000000000e+00 1.9392158955168953e-01 3.4523695005524080e+00 1.3983188601661693e+01 
11 1 2 4.9999999999998851e-01 -2.4900519583181406e+00 1.0000000000000000e+00 2.9748383911372005e+00 5.8695165230161876e+00 1.3866268026849108e+01 
33 1 2 5.0000000000000488e-01 -1.5187899879749066e+01 1.0000000000000000e+00 1.9061443541234151e+00 3.7735753440733948e+00 1.6664189748121277e+01 
113 1 2 5.0000000000001632e-01 2.5608445418843875e+01 1.0000000000000000e+00 1.4666554775286555e+00 1.5625630313880873e-01 1.6755574848324017e+01 
70 1 2 4.9999999999999445e-01 7.5219639195889698e+00 1.0000000000000000e+00 1.2129376905395848e+00 6.2479157693259624e-01 1.7302439990401954e+01 
118 1 2 4.9999999999998973e-01 6.4525890048198971e+00 1.0000000000000000e+00 5.2029884576734475e-01 1.0786599952673852e+00 1.7524546782775577e+01 
148 1 2 4.9999999999999234e-01 1.3552195094252754e+01 1.0000000000000000e+00 1.8688480459187156e+00 1.4285244860881263e+00 1.7432981835962195e+01 
229 1 2 5.0000000000001643e-01 -2.2950717369195196e+01 1.0000000000000000e+00 1.6661606584973003e+00 3.2205866770879457e+00 1.7094613653202796e+01 
124 1 2 4.9999999999987166e-01 1.7406376989523501e+01 1.0000000000000000e+00 3.6143441638080001e+00 1.0716666929144261e+00 1.9733805043041603e+01 
154 1 2 5.0000000000001943e-01 -8.0799253861701423e+00 1.0000000000000000e+00 3.6087203568717370e+00 1.0757170136497400e+00 1.9734954312862232e+01 
56 1 2 5.0000000000001010e-01 -1.5866182792488850e+01 1.0000000000000000e+00 3.6070274776307700e+00 1.2250038921004140e+00 1.9746945297764331e+01 
192 1 2 5.0000000000001721e-01 3.3180228864196026e+00 1.0000000000000000e+00 3.6048155077644193e+00 1.3695849659495536e+00 1.9767171876306818e+01 
61 1 2 5.0000000000001932e-01 -1.4186199247991134e+01 1.0000000000000000e+00 3.6016887996537243e+00 1.4121822993037731e+00 1.9775144212183591e+01 
215 1 2 4.9999999999997086e-01 1.0570779837878973e+01 1.0000000000000000e+00 3.7083490660285978e+00 5.7994589413570490e-02 1.9894610737683898e+01 
306 1 2 5.0000000000000577e-01 -4.1634064345340661e+01 1.0000000000000000e+00 1.8516277398565730e+00 3.7058763106776214e+00 1.6726398834581310e+01 
12 1 2 5.0000000000000144e-01 1.0315903076155958e+01 1.0000000000000000e+00 2.4672154947186598e+00 1.2063646272812377e+01 2.8888554990422959e+00 
342 1 2 4.9999999999999978e-01 -1.0363654685271261e+01 1.0000000000000000e+00 1.6503106333457216e+00 1.2378238797490303e+01 2.9363971317337962e+00 
220 1 2 5.0000000000000222e-01 8.2975541768175844e+00 1.0000000000000000e+00 2.6154826764379746e+00 1.1991261228583561e+01 2.9374935036307219e+00 
276 1 2 5.0000000000000211e-01 3.0012006432057390e+01 1.0000000000000000e+00 2.5945184458650927e+00 1.1977558747513067e+01 2.9484245175694790e+00 
188 1 2 5.0000000000000233e-01 -1.4797956151733075e+01 1.0000000000000000e+00 2.6206716948183382e+00 1.1964538357397585e+01 2.9580544316605617e+00 
375 1 2 5.0000000000000433e-01 -1.9661410696531831e+01 1.0000000000000000e+00 2.8382999682956327e+00 1.1843181495077030e+01 3.0609251559225963e+00 
245 1 2 4.9999999999999728e-01 -1.9429929408628634e+00 1.0000000000000000e+00 1.2602380769019577e+00 1.4001757200248791e+01 3.0930448867999534e+00 
326 1 2 5.0000000000000400e-01 -6.6845695680548252e+00 1.0000000000000000e+00 2.1133897516774298e+00 1.4002472095967029e+01 2.9085982502226733e+00 
380 1 2 5.0000000000000278e-01 -1.7964864113285245e+01 1.0000000000000000e+00 9.3887999503566710e-01 1.3744404351162384e+01 3.2956741549444306e+00 
285 1 2 5.0000000000005163e-01 2.1608261797951238e+00 1.0000000000000000e+00 4.7352523292734841e+00 1.6597702303480826e+01 3.2010834119553109e+00 
281 1 2 5.0000000000001288e-01 -5.6520838582632464e+00 1.0000000000000000e+00 4.6265052786954799e+00 1.6839617510854520e+01 2.8828306369616028e+00 
127 1 2 4.9999999999993550e-01 8.4944535480422090e+00 1.0000000000000000e+00 4.4084778790948427e+00 1.7350930170781346e+01 2.0314699623817054e+00 
316 1 2 4.9999999999995931e-01 -3.3430349939343573e-01 1.0000000000000000e+00 4.3493503781205138e+00 1.7565390512846403e+01 1.6661747011664514e+00 
110 1 2 4.9999999999996053e-01 -3.3088795049369173e+00 1.0000000000000000e+00 4.3337278971143069e+00 1.7576120599888711e+01 1.6483778411176593e+00 
25 1 2 4.9999999999996925e-01 4.6731663296162900e+00 1.0000000000000000e+00 4.3147611607920515e+00 1.7662870791838326e+01 1.5218552751704832e+00 
345 1 2 5.0000000000001676e-01 7.3741172715595988e+00 1.0000000000000000e+00 4.2551909738653322e+00 1.7872861031289702e+01 1.2588826111904201e+00 
279 1 2 5.0000000000001732e-01 -4.1637889577508531e+00 1.0000000000000000e+00 4.2541670051098475e+00 1.7878876724572098e+01 1.2522191895112778e+00 
249 1 2 5.0000000000001543e-01 -1.7767703894300720e+01 1.0000000000000000e+00 4.1635756924459537e+00 1.8232928282019284e+01 9.1454190623103238e-01 
190 1 2 5.0000000000001454e-01 1.0157904722097591e+01 1.0000000000000000e+00 3.9269849872332192e+00 1.9168065206612347e+01 2.8371456421406382e-01 
223 1 2 5.0000000000001033e-01 1.0275006300547854e+01 1.0000000000000000e+00 3.8518884060130429e+00 1.9425255667185134e+01 1.5220998291687371e-01 
287 1 2 5.0000000000000799e-01 -9.5391441287858836e-01 1.0000000000000000e+00 3.8317091059764659e+00 1.9557287818113199e+01 8.9276112010467298e-02 
39 1 2 5.0000000000003386e-01 1.9460577236644905e+01 1.0000000000000000e+00 2.2275453791367492e+00 1.2472022179196719e+01 6.0126243561212993e+00 
217 1 2 5.0000000000003597e-01 3.7378868191839771e+01 1.0000000000000000e+00 3.0703186240533653e+00 1.1686596652393286e+01 5.5566527581483429e+00 
330 1 2 5.0000000000002298e-01 -2.8959447862708533e+01 1.0000000000000000e+00 2.2856237744950865e+00 1.2444278383026445e+01 6.2614459542628937e+00 
339 1 2 5.0000000000002143e-01 -1.0160746164250451e+01 1.0000000000000000e+00 2.2856120688477009e+00 1.2442679485891338e+01 6.2657917252320185e+00 
289 1 2 4.9999999999987099e-01 -1.7430838440343894e+01 1.0000000000000000e+00 3.3133447771227242e+00 1.2546206006943216e+01 6.5242835117244766e+00 
260 1 2 4.9999999999999623e-01 -4.1233372389457983e+01 1.0000000000000000e+00 3.9744391425432841e+00 1.2958396989366172e+01 4.0091758756857621e+00 
362 1 2 5.0000000000000888e-01 -3.3654223781242635e+01 1.0000000000000000e+00 3.8232388462216660e+00 1.3117252998810901e+01 5.7334671932884431e+00 
150 1 2 5.0000000000000711e-01 -4.5068128482080982e-01 1.0000000000000000e+00 4.4660504848037537e+00 1.2065480127759852e+01 4.3391696860260618e+00 
361 1 2 4.9999999999999789e-01 1.5805122822239191e+01 1.0000000000000000e+00 5.0886568806441668e+00 1.1536392934970019e+01 4.9982647363808628e+00 
106 1 2 5.0000000000000011e-01 -1.7334347970630506e-02 1.0000000000000000e+00 5.1660143030442551e+00 1.1378052336760744e+01 5.3900139613894691e+00 
250 1 2 5.0000000000000144e-01 2.0161881245373493e+01 1.0000000000000000e+00 4.8777078613062850e+00 1.1306769202226743e+01 5.6697995667271082e+00 
140 1 2 5.0000000000002487e-01 -1.0618092411747300e+01 1.0000000000000000e+00 5.5488676415301308e+00 1.0879435770343356e+01 5.0041674656935786e+00 
145 1 2 5.0000000000001754e-01 6.9892576600959337e+00 1.0000000000000000e+00 5.7070485695895190e+00 1.0696859776036726e+01 5.1329063918585565e+00 
2 1 2 4.9999999999999367e-01 -1.1273416082690868e+01 1.0000000000000000e+00 3.9547228757567581e+00 1.0535050284515535e+01 3.6483462858444571e+00 
329 1 2 4.9999999999996897e-01 -2.6879722488103948e+01 1.0000000000000000e+00 5.9315692037554699e+00 1.0402919768843011e+01 5.3455859979322815e+00 
382 1 2 5.0000000000000111e-01 -1.2135890071904161e+01 1.0000000000000000e+00 8.1545321358794820e-01 1.3354465780482808e+01 3.8290131251691850e+00 
270 1 2 5.0000000000000133e-01 -1.7127541695927664e+00 1.0000000000000000e+00 1.4648767339769355e+00 1.3858317258082057e+01 4.7728551605791179e+00 
325 1 2 5.0000000000000266e-01 -2.9550496376054763e+01 1.0000000000000000e+00 9.2358935521824148e-01 1.3914461171688711e+01 3.6250160542225163e+00 
303 1 2 5.0000000000000278e-01 -7.1229581107561177e+00 1.0000000000000000e+00 9.4532979800396399e-01 1.3946731759249367e+01 3.8431385825373492e+00 
269 1 2 4.9999999999999795e-01 6.6543642189193744e+00 1.0000000000000000e+00 1.1969204474707242e+00 1.4135461195943670e+01 4.1424478903259638e+00 
254 1 2 4.9999999999999728e-01 1.9847585180752567e+01 1.0000000000000000e+00 1.5356799474076863e+00 1.4386821518759064e+01 3.8151932086822251e+00 
323 1 2 5.0000000000000144e-01 1.6156963126207657e+01 1.0000000000000000e+00 3.3317214207408719e+00 1.4020482833026628e+01 4.2175267704620536e+00 
233 1 2 4.9999999999998734e-01 1.3744810632210742e+01 1.0000000000000000e+00 3.3613258627607578e+00 1.3971977724721755e+01 4.0705392569273844e+00 
64 1 2 4.9999999999999795e-01 -1.1745061859060751e+01 1.0000000000000000e+00 5.4490741841219332e+00 1.5119844114852294e+01 5.2395926595962372e+00 
120 1 2 4.9999999999999734e-01 -1.6426169644597266e+01 1.0000000000000000e+00 5.4502181949499562e+00 1.5126793521291171e+01 5.2294182483622249e+00 
62 1 2 4.9999999999999234e-01 4.5718848941171224e+00 1.0000000000000000e+00 5.2735723744017475e+00 1.5404143975167853e+01 4.6278561046199691e+00 
5 1 2 4.9999999999999850e-01 -4.0974217512068360e+00 1.0000000000000000e+00 5.2164479652712137e+00 1.5510932596590189e+01 4.4660010890489774e+00 
174 1 2 5.0000000000006639e-01 -2.1458218492348052e-01 1.0000000000000000e+00 4.8104438037995525e+00 1.6404034750343715e+01 3.4304656480575542e+00 
60 1 2 4.9999999999997430e-01 1.2101446689665192e+01 1.0000000000000000e+00 5.5319619991185611e+00 1.5533399831499446e+01 5.8867548601581250e+00 
315 1 2 4.9999999999999584e-01 6.4715953030209228e+00 1.0000000000000000e+00 5.5595945268769960e+00 1.4209773112144644e+01 6.2830907851748670e+00 
241 1 2 4.9999999999999417e-01 -1.1026091390178484e+01 1.0000000000000000e+00 5.5674781312279320e+00 1.4163789907998153e+01 6.3090251626389593e+00 
104 1 2 4.9999999999999595e-01 -2.5937553905747265e+01 1.0000000000000000e+00 5.2395541294023067e+00 1.7030439648505567e+01 5.3081627861626979e+00 
305 1 2 4.9999999999996442e-01 -6.4563478851046865e+00 1.0000000000000000e+00 5.1706880354806648e+00 1.7198742304762611e+01 5.2164112500966908e+00 
231 1 2 4.9999999999996420e-01 1.3490174351672037e+01 1.0000000000000000e+00 5.1656901703059850e+00 1.7213143269027352e+01 5.2077607894554987e+00 
90 1 2 4.9999999999996370e-01 2.3841712276990574e+01 1.0000000000000000e+00 5.1617141383202290e+00 1.7219921740725340e+01 5.2041340386376582e+00 
153 1 2 4.9999999999996392e-01 6.3556050188516835e+01 1.0000000000000000e+00 5.1577219063169224e+00 1.7232918466242278e+01 5.1960781337648028e+00 
221 1 2 5.0000000000002098e-01 -2.8630904316681747e+00 1.0000000000000000e+00 4.6226805392540227e+00 1.8269819012478614e+01 4.4780953595178348e+00 
255 1 2 5.0000000000003153e-01 -2.0487977329987628e-01 1.0000000000000000e+00 4.3859090959270590e+00 1.8508128216204135e+01 4.2714742230794069e+00 
384 1 2 4.9999999999998851e-01 -2.3668475149093585e+01 1.0000000000000000e+00 4.0689114740739942e+00 1.9992479486189985e+01 3.3698519954333994e+00 
222 1 2 5.0000000000000977e-01 -7.2799976098964407e+00 1.0000000000000000e+00 4.0798794994493139e+00 1.9831969288974467e+01 3.4473368353200025e+00 
314 1 2 5.0000000000003930e-01 -1.4507380495789981e+01 1.0000000000000000e+00 4.4100382014065538e+00 1.8730398688479411e+01 4.1486894957756943e+00 
157 1 2 5.0000000000002676e-01 -8.5917972342746332e+00 1.0000000000000000e+00 2.2700320710001982e+00 1.1351654598202646e+01 8.7371325847544234e+00 
209 1 2 5.0000000000002665e-01 2.3255771192261776e+01 1.0000000000000000e+00 2.2729605894356952e+00 1.1347583840483708e+01 8.7360837563067335e+00 
278 1 2 5.0000000000002687e-01 1.1167778830141543e+01 1.0000000000000000e+00 2.2718414160023044e+00 1.1347229814455067e+01 8.7349668616640805e+00 
131 1 2 5.0000000000002709e-01 -4.5715180621838964e+00 1.0000000000000000e+00 2.2302749375757145e+00 1.1384580556913845e+01 8.7313037750106410e+00 
322 1 2 5.0000000000002687e-01 4.0893139049270815e+01 1.0000000000000000e+00 2.2534500640425903e+00 1.1364065759878491e+01 8.7342230643546088e+00 
332 1 2 5.0000000000002665e-01 -2.4654962324091665e+00 1.0000000000000000e+00 2.2575547501495028e+00 1.1361744058883078e+01 8.7355718996324825e+00 
92 1 2 4.9999999999999112e-01 4.9235566605585284e+00 1.0000000000000000e+00 1.8264867248809677e+00 1.2316830933677794e+01 7.6560806221454234e+00 
162 1 2 5.0000000000002898e-01 -2.6803492721063552e+01 1.0000000000000000e+00 2.1492360876419800e+00 1.1389635778603330e+01 8.6672264691886838e+00 
262 1 2 4.9999999999999789e-01 -4.6881233233836372e+00 1.0000000000000000e+00 1.7894137999900663e+00 1.2244050399091488e+01 7.4647299545809656e+00 
65 1 2 4.9999999999999434e-01 -2.5324239794936204e+01 1.0000000000000000e+00 1.8156221645431341e+00 1.2189937078825494e+01 7.2615926112404452e+00 
213 1 2 5.0000000000003375e-01 8.1568628334225188e+00 1.0000000000000000e+00 5.7788639454622164e+00 1.1093953643733672e+01 8.7947205445117849e+00 
310 1 2 5.0000000000002154e-01 1.0520694811359665e+01 1.0000000000000000e+00 4.9067956926337635e+00 1.2204222883929225e+01 9.1822973160202395e+00 
377 1 2 4.9999999999999944e-01 -2.7299335934368678e+01 1.0000000000000000e+00 4.9646404557875581e+00 1.1833284306737923e+01 9.5577360198871109e+00 
20 1 2 4.9999999999999950e-01 2.7537891363297703e+01 1.0000000000000000e+00 4.9494384463132297e+00 1.1799426749137616e+01 9.5729591798867553e+00 
121 1 2 4.9999999999999639e-01 1.5625808919101107e+01 1.0000000000000000e+00 4.9947989028274460e+00 1.1699175811406505e+01 9.6395798716905041e+00 
355 1 2 4.9999999999997352e-01 -2.1759419122542738e+01 1.0000000000000000e+00 5.1037342000853956e+00 1.0865390730715234e+01 9.8356780514657185e+00 
228 1 2 4.9999999999997918e-01 1.9025998869346633e+01 1.0000000000000000e+00 5.4717189603328169e+00 1.1094613292085908e+01 9.9237229048851106e+00 
115 1 2 4.9999999999997879e-01 3.5937261527882036e+01 1.0000000000000000e+00 5.3315280511266963e+00 1.0953160243010357e+01 9.9355476298972683e+00 
137 1 2 4.9999999999997663e-01 -1.0338545221296631e+01 1.0000000000000000e+00 5.3117983176432535e+00 1.0902238998080048e+01 9.9390772797096680e+00 
251 1 2 5.0000000000000056e-01 7.7883310091732874e+00 1.0000000000000000e+00 6.5893387313491614e+00 1.4731455509022126e+01 7.7216694722712900e+00 
379 1 2 5.0000000000000933e-01 2.2275821306294404e+01 1.0000000000000000e+00 5.7686450117706105e+00 1.4689633892778165e+01 7.5924168796795346e+00 
356 1 2 4.9999999999999456e-01 -2.0424429416168472e+01 1.0000000000000000e+00 5.3030702141279553e+00 1.3446345202196321e+01 7.6499336941063021e+00 
282 1 2 5.0000000000001799e-01 2.1784668200365847e+01 1.0000000000000000e+00 6.2060611459477624e+00 1.3793514650622345e+01 8.9137040022388003e+00 
232 1 2 5.0000000000000944e-01 9.2221316777035014e+00 1.0000000000000000e+00 6.6600965366550060e+00 1.4406212652537722e+01 8.4001995255929973e+00 
372 1 2 5.0000000000000466e-01 -4.5566361881862942e+00 1.0000000000000000e+00 3.2304236803086517e+00 1.5474294462860325e+01 1.4255909759562165e+01 
312 1 2 5.0000000000000411e-01 -2.3271636206210708e+01 1.0000000000000000e+00 3.1784361325704324e+00 1.5459501097458018e+01 1.4284084443162872e+01 
15 1 2 5.0000000000000311e-01 -3.1674642853797565e+01 1.0000000000000000e+00 2.2903536169444640e+00 1.6549591107720882e+01 1.5149344326242142e+01 
23 1 2 4.9999999999999917e-01 -2.2748901671134568e+01 1.0000000000000000e+00 3.8352561441019581e+00 1.4712370113018961e+01 1.4354968061578969e+01 
309 1 2 5.0000000000000033e-01 -2.3059881223123737e+00 1.0000000000000000e+00 4.3234736545012646e+00 1.4488649143068361e+01 1.4788394316014555e+01 
94 1 2 5.0000000000000033e-01 -3.4721050807358544e+00 1.0000000000000000e+00 4.4687621171020728e+00 1.4582082045169402e+01 1.4813859437976722e+01 
165 1 2 5.0000000000000022e-01 1.6024886511193779e+00 1.0000000000000000e+00 4.3814507773288600e+00 1.4488866435438243e+01 1.4917668710133396e+01 
161 1 2 5.0000000000000022e-01 1.0146452941854188e+01 1.0000000000000000e+00 4.3921017532485758e+00 1.4487426383716640e+01 1.5011531988292585e+01 
176 1 2 5.0000000000000033e-01 7.6037473552617394e+00 1.0000000000000000e+00 4.1990687349267333e+00 1.4401773515011271e+01 1.5030127753085413e+01 
7 1 2 5.0000000000000033e-01 -1.1078860038908896e+01 1.0000000000000000e+00 4.3898961388140032e+00 1.4492885910000059e+01 1.5116535104520919e+01 
31 1 2 5.0000000000000211e-01 -2.1399391734595653e+01 1.0000000000000000e+00 4.0846947324015366e+00 1.5853822952114747e+01 1.5967849430503106e+01 
76 1 2 5.0000000000000633e-01 1.1669355545455112e+01 1.0000000000000000e+00 4.0257562061636190e+00 1.5945955345342837e+01 1.5965734436932978e+01 
167 1 2 4.9999999999997907e-01 -1.7253348366848478e+01 1.0000000000000000e+00 4.0940735288287309e+00 1.6223113444615631e+01 1.5761014196035042e+01 