LAMMPS data file via write_data, version 30 Jul 2016, timestep = 50400000

4620 atoms
8 atom types

0.0000000000000000e+00 1.0000000000000000e+02 xlo xhi
0.0000000000000000e+00 4.0000000000000000e+01 ylo yhi
0.0000000000000000e+00 4.0000000000000000e+01 zlo zhi

Masses

1 3.896
2 5.36
3 20.064
4 8.378
5 8.378
6 8.378
7 8.378
8 8.378

Atoms # meso-molecular

84 85 2 1.4218704307376302e+00 -6.5787738922003805e-02 1.0000000000000000e+00 4.9578791404549403e+00 1.0000000000000000e+01 2.1682782569662895e+00 
325 326 2 1.4218704307376302e+00 -8.8932912573906217e-02 1.0000000000000000e+00 8.7375882877074353e+00 1.0000000000000000e+01 2.0303843355923528e+00 
420 421 2 1.4218704307376302e+00 -6.6121277551964702e-02 1.0000000000000000e+00 1.1748951130738394e+01 1.0000000000000000e+01 1.9270776032530024e+00 
81 82 2 1.4218704307376302e+00 -8.8953687366066292e-02 1.0000000000000000e+00 1.7623830498856485e+01 1.0000000000000000e+01 1.3157266090998836e+00 
42 43 2 1.4218704307376302e+00 -4.3206677702681121e-02 1.0000000000000000e+00 2.8126619721710600e+01 1.0000000000000000e+01 1.1993805030283582e+00 
546 547 2 1.4218704307376302e+00 -6.5787738922003805e-02 1.0000000000000000e+00 4.9578791404549403e+00 1.2199999999999999e+01 2.1682782569662895e+00 
787 788 2 1.4218704307376302e+00 -8.8932912573906217e-02 1.0000000000000000e+00 8.7375882877074353e+00 1.2199999999999999e+01 2.0303843355923528e+00 
882 883 2 1.4218704307376302e+00 -6.6121277551964702e-02 1.0000000000000000e+00 1.1748951130738394e+01 1.2199999999999999e+01 1.9270776032530024e+00 
543 544 2 1.4218704307376302e+00 -8.8953687366066292e-02 1.0000000000000000e+00 1.7623830498856485e+01 1.2199999999999999e+01 1.3157266090998836e+00 
504 505 2 1.4218704307376302e+00 -4.3206677702681121e-02 1.0000000000000000e+00 2.8126619721710600e+01 1.2199999999999999e+01 1.1993805030283582e+00 
1008 1009 2 1.4218704307376302e+00 -6.5787738922003805e-02 1.0000000000000000e+00 4.9578791404549403e+00 1.4400000000000000e+01 2.1682782569662895e+00 
1249 1250 2 1.4218704307376302e+00 -8.8932912573906217e-02 1.0000000000000000e+00 8.7375882877074353e+00 1.4400000000000000e+01 2.0303843355923528e+00 
1344 1345 2 1.4218704307376302e+00 -6.6121277551964702e-02 1.0000000000000000e+00 1.1748951130738394e+01 1.4400000000000000e+01 1.9270776032530024e+00 
1005 1006 2 1.4218704307376302e+00 -8.8953687366066292e-02 1.0000000000000000e+00 1.7623830498856485e+01 1.4400000000000000e+01 1.3157266090998836e+00 
966 967 2 1.4218704307376302e+00 -4.3206677702681121e-02 1.0000000000000000e+00 2.8126619721710600e+01 1.4400000000000000e+01 1.1993805030283582e+00 
1470 1471 2 1.4218704307376302e+00 -6.5787738922003805e-02 1.0000000000000000e+00 4.9578791404549403e+00 1.6600000000000001e+01 2.1682782569662895e+00 
1711 1712 2 1.4218704307376302e+00 -8.8932912573906217e-02 1.0000000000000000e+00 8.7375882877074353e+00 1.6600000000000001e+01 2.0303843355923528e+00 
1806 1807 2 1.4218704307376302e+00 -6.6121277551964702e-02 1.0000000000000000e+00 1.1748951130738394e+01 1.6600000000000001e+01 1.9270776032530024e+00 
1467 1468 2 1.4218704307376302e+00 -8.8953687366066292e-02 1.0000000000000000e+00 1.7623830498856485e+01 1.6600000000000001e+01 1.3157266090998836e+00 
1428 1429 2 1.4218704307376302e+00 -4.3206677702681121e-02 1.0000000000000000e+00 2.8126619721710600e+01 1.6600000000000001e+01 1.1993805030283582e+00 
1932 1933 2 1.4218704307376302e+00 -6.5787738922003805e-02 1.0000000000000000e+00 4.9578791404549403e+00 1.8800000000000001e+01 2.1682782569662895e+00 
2173 2174 2 1.4218704307376302e+00 -8.8932912573906217e-02 1.0000000000000000e+00 8.7375882877074353e+00 1.8800000000000001e+01 2.0303843355923528e+00 
2268 2269 2 1.4218704307376302e+00 -6.6121277551964702e-02 1.0000000000000000e+00 1.1748951130738394e+01 1.8800000000000001e+01 1.9270776032530024e+00 
1929 1930 2 1.4218704307376302e+00 -8.8953687366066292e-02 1.0000000000000000e+00 1.7623830498856485e+01 1.8800000000000001e+01 1.3157266090998836e+00 
1890 1891 2 1.4218704307376302e+00 -4.3206677702681121e-02 1.0000000000000000e+00 2.8126619721710600e+01 1.8800000000000001e+01 1.1993805030283582e+00 
384 385 2 1.4218704307376302e+00 -8.8756444266234941e-02 1.0000000000000000e+00 2.6252307199407023e+00 1.0000000000000000e+01 3.5625400054556131e+00 
251 252 2 1.4218704307376302e+00 -8.9020469028843960e-02 1.0000000000000000e+00 1.5550565345519825e+01 1.0000000000000000e+01 2.5280806053554135e+00 
55 56 2 1.4218704307376302e+00 -8.8634451280290003e-02 1.0000000000000000e+00 1.9477438546885942e+01 1.0000000000000000e+01 2.3016445520592277e+00 
376 377 2 1.4218704307376302e+00 -8.8634322376065805e-02 1.0000000000000000e+00 2.2040780942299044e+01 1.0000000000000000e+01 4.2694570296539798e+00 
422 423 2 1.4218704307376302e+00 -6.6025355107615702e-02 1.0000000000000000e+00 2.4450232251608465e+01 1.0000000000000000e+01 2.4730702680602494e+00 
23 24 2 1.4218704307376302e+00 -6.5831863575725680e-02 1.0000000000000000e+00 2.6904391161229071e+01 1.0000000000000000e+01 3.2950689817730852e+00 
193 194 2 1.4218704307376302e+00 -8.8723287799980233e-02 1.0000000000000000e+00 3.1354552196433950e+01 1.0000000000000000e+01 2.9129285000056115e+00 
846 847 2 1.4218704307376302e+00 -8.8756444266234941e-02 1.0000000000000000e+00 2.6252307199407023e+00 1.2199999999999999e+01 3.5625400054556131e+00 
713 714 2 1.4218704307376302e+00 -8.9020469028843960e-02 1.0000000000000000e+00 1.5550565345519825e+01 1.2199999999999999e+01 2.5280806053554135e+00 
517 518 2 1.4218704307376302e+00 -8.8634451280290003e-02 1.0000000000000000e+00 1.9477438546885942e+01 1.2199999999999999e+01 2.3016445520592277e+00 
838 839 2 1.4218704307376302e+00 -8.8634322376065805e-02 1.0000000000000000e+00 2.2040780942299044e+01 1.2199999999999999e+01 4.2694570296539798e+00 
884 885 2 1.4218704307376302e+00 -6.6025355107615702e-02 1.0000000000000000e+00 2.4450232251608465e+01 1.2199999999999999e+01 2.4730702680602494e+00 
485 486 2 1.4218704307376302e+00 -6.5831863575725680e-02 1.0000000000000000e+00 2.6904391161229071e+01 1.2199999999999999e+01 3.2950689817730852e+00 
655 656 2 1.4218704307376302e+00 -8.8723287799980233e-02 1.0000000000000000e+00 3.1354552196433950e+01 1.2199999999999999e+01 2.9129285000056115e+00 
1308 1309 2 1.4218704307376302e+00 -8.8756444266234941e-02 1.0000000000000000e+00 2.6252307199407023e+00 1.4400000000000000e+01 3.5625400054556131e+00 
1175 1176 2 1.4218704307376302e+00 -8.9020469028843960e-02 1.0000000000000000e+00 1.5550565345519825e+01 1.4400000000000000e+01 2.5280806053554135e+00 
979 980 2 1.4218704307376302e+00 -8.8634451280290003e-02 1.0000000000000000e+00 1.9477438546885942e+01 1.4400000000000000e+01 2.3016445520592277e+00 
1300 1301 2 1.4218704307376302e+00 -8.8634322376065805e-02 1.0000000000000000e+00 2.2040780942299044e+01 1.4400000000000000e+01 4.2694570296539798e+00 
1346 1347 2 1.4218704307376302e+00 -6.6025355107615702e-02 1.0000000000000000e+00 2.4450232251608465e+01 1.4400000000000000e+01 2.4730702680602494e+00 
947 948 2 1.4218704307376302e+00 -6.5831863575725680e-02 1.0000000000000000e+00 2.6904391161229071e+01 1.4400000000000000e+01 3.2950689817730852e+00 
1117 1118 2 1.4218704307376302e+00 -8.8723287799980233e-02 1.0000000000000000e+00 3.1354552196433950e+01 1.4400000000000000e+01 2.9129285000056115e+00 
1770 1771 2 1.4218704307376302e+00 -8.8756444266234941e-02 1.0000000000000000e+00 2.6252307199407023e+00 1.6600000000000001e+01 3.5625400054556131e+00 
1637 1638 2 1.4218704307376302e+00 -8.9020469028843960e-02 1.0000000000000000e+00 1.5550565345519825e+01 1.6600000000000001e+01 2.5280806053554135e+00 
1441 1442 2 1.4218704307376302e+00 -8.8634451280290003e-02 1.0000000000000000e+00 1.9477438546885942e+01 1.6600000000000001e+01 2.3016445520592277e+00 
1762 1763 2 1.4218704307376302e+00 -8.8634322376065805e-02 1.0000000000000000e+00 2.2040780942299044e+01 1.6600000000000001e+01 4.2694570296539798e+00 
1808 1809 2 1.4218704307376302e+00 -6.6025355107615702e-02 1.0000000000000000e+00 2.4450232251608465e+01 1.6600000000000001e+01 2.4730702680602494e+00 
1409 1410 2 1.4218704307376302e+00 -6.5831863575725680e-02 1.0000000000000000e+00 2.6904391161229071e+01 1.6600000000000001e+01 3.2950689817730852e+00 
1579 1580 2 1.4218704307376302e+00 -8.8723287799980233e-02 1.0000000000000000e+00 3.1354552196433950e+01 1.6600000000000001e+01 2.9129285000056115e+00 
2232 2233 2 1.4218704307376302e+00 -8.8756444266234941e-02 1.0000000000000000e+00 2.6252307199407023e+00 1.8800000000000001e+01 3.5625400054556131e+00 
2099 2100 2 1.4218704307376302e+00 -8.9020469028843960e-02 1.0000000000000000e+00 1.5550565345519825e+01 1.8800000000000001e+01 2.5280806053554135e+00 
1903 1904 2 1.4218704307376302e+00 -8.8634451280290003e-02 1.0000000000000000e+00 1.9477438546885942e+01 1.8800000000000001e+01 2.3016445520592277e+00 
2224 2225 2 1.4218704307376302e+00 -8.8634322376065805e-02 1.0000000000000000e+00 2.2040780942299044e+01 1.8800000000000001e+01 4.2694570296539798e+00 
2270 2271 2 1.4218704307376302e+00 -6.6025355107615702e-02 1.0000000000000000e+00 2.4450232251608465e+01 1.8800000000000001e+01 2.4730702680602494e+00 
1871 1872 2 1.4218704307376302e+00 -6.5831863575725680e-02 1.0000000000000000e+00 2.6904391161229071e+01 1.8800000000000001e+01 3.2950689817730852e+00 
2041 2042 2 1.4218704307376302e+00 -8.8723287799980233e-02 1.0000000000000000e+00 3.1354552196433950e+01 1.8800000000000001e+01 2.9129285000056115e+00 
197 198 2 1.4218704307376302e+00 -8.8979156233103457e-02 1.0000000000000000e+00 2.2714249405442937e+00 1.0000000000000000e+01 6.4905165548296679e+00 
382 383 2 1.4218704307376302e+00 -8.8492910622206100e-02 1.0000000000000000e+00 5.5395840465585167e+00 1.0000000000000000e+01 5.0536031652327500e+00 
390 391 2 1.4218704307376302e+00 -8.8955396757328373e-02 1.0000000000000000e+00 8.0760060208658668e+00 1.0000000000000000e+01 4.6075284705401209e+00 
151 152 2 1.4218704307376302e+00 -8.8946190321945451e-02 1.0000000000000000e+00 1.0745490062798467e+01 1.0000000000000000e+01 5.0507977580525072e+00 
25 26 2 1.4218704307376302e+00 -6.6022281617853742e-02 1.0000000000000000e+00 1.3149048742814070e+01 1.0000000000000000e+01 4.6514668190207340e+00 
352 353 2 1.4218704307376302e+00 -8.8830871981209009e-02 1.0000000000000000e+00 1.4939069125077502e+01 1.0000000000000000e+01 6.3438006145871935e+00 
294 295 2 1.4218704307376302e+00 -6.5956251353186321e-02 1.0000000000000000e+00 1.6625857204560450e+01 1.0000000000000000e+01 4.7337106802858422e+00 
48 49 2 1.4218704307376302e+00 -8.8950808497632178e-02 1.0000000000000000e+00 2.0131185864458480e+01 1.0000000000000000e+01 5.0049204430251502e+00 
62 63 2 1.4218704307376302e+00 -8.9189945164338383e-02 1.0000000000000000e+00 2.4832302568178903e+01 1.0000000000000000e+01 4.7939688743598188e+00 
191 192 2 1.4218704307376302e+00 -8.8741052850094287e-02 1.0000000000000000e+00 3.0190835699378546e+01 1.0000000000000000e+01 6.4566379966380687e+00 
659 660 2 1.4218704307376302e+00 -8.8979156233103457e-02 1.0000000000000000e+00 2.2714249405442937e+00 1.2199999999999999e+01 6.4905165548296679e+00 
844 845 2 1.4218704307376302e+00 -8.8492910622206100e-02 1.0000000000000000e+00 5.5395840465585167e+00 1.2199999999999999e+01 5.0536031652327500e+00 
852 853 2 1.4218704307376302e+00 -8.8955396757328373e-02 1.0000000000000000e+00 8.0760060208658668e+00 1.2199999999999999e+01 4.6075284705401209e+00 
613 614 2 1.4218704307376302e+00 -8.8946190321945451e-02 1.0000000000000000e+00 1.0745490062798467e+01 1.2199999999999999e+01 5.0507977580525072e+00 
487 488 2 1.4218704307376302e+00 -6.6022281617853742e-02 1.0000000000000000e+00 1.3149048742814070e+01 1.2199999999999999e+01 4.6514668190207340e+00 
814 815 2 1.4218704307376302e+00 -8.8830871981209009e-02 1.0000000000000000e+00 1.4939069125077502e+01 1.2199999999999999e+01 6.3438006145871935e+00 
756 757 2 1.4218704307376302e+00 -6.5956251353186321e-02 1.0000000000000000e+00 1.6625857204560450e+01 1.2199999999999999e+01 4.7337106802858422e+00 
510 511 2 1.4218704307376302e+00 -8.8950808497632178e-02 1.0000000000000000e+00 2.0131185864458480e+01 1.2199999999999999e+01 5.0049204430251502e+00 
524 525 2 1.4218704307376302e+00 -8.9189945164338383e-02 1.0000000000000000e+00 2.4832302568178903e+01 1.2199999999999999e+01 4.7939688743598188e+00 
653 654 2 1.4218704307376302e+00 -8.8741052850094287e-02 1.0000000000000000e+00 3.0190835699378546e+01 1.2199999999999999e+01 6.4566379966380687e+00 
1121 1122 2 1.4218704307376302e+00 -8.8979156233103457e-02 1.0000000000000000e+00 2.2714249405442937e+00 1.4400000000000000e+01 6.4905165548296679e+00 
1306 1307 2 1.4218704307376302e+00 -8.8492910622206100e-02 1.0000000000000000e+00 5.5395840465585167e+00 1.4400000000000000e+01 5.0536031652327500e+00 
1314 1315 2 1.4218704307376302e+00 -8.8955396757328373e-02 1.0000000000000000e+00 8.0760060208658668e+00 1.4400000000000000e+01 4.6075284705401209e+00 
1075 1076 2 1.4218704307376302e+00 -8.8946190321945451e-02 1.0000000000000000e+00 1.0745490062798467e+01 1.4400000000000000e+01 5.0507977580525072e+00 
949 950 2 1.4218704307376302e+00 -6.6022281617853742e-02 1.0000000000000000e+00 1.3149048742814070e+01 1.4400000000000000e+01 4.6514668190207340e+00 
1276 1277 2 1.4218704307376302e+00 -8.8830871981209009e-02 1.0000000000000000e+00 1.4939069125077502e+01 1.4400000000000000e+01 6.3438006145871935e+00 
1218 1219 2 1.4218704307376302e+00 -6.5956251353186321e-02 1.0000000000000000e+00 1.6625857204560450e+01 1.4400000000000000e+01 4.7337106802858422e+00 
972 973 2 1.4218704307376302e+00 -8.8950808497632178e-02 1.0000000000000000e+00 2.0131185864458480e+01 1.4400000000000000e+01 5.0049204430251502e+00 
986 987 2 1.4218704307376302e+00 -8.9189945164338383e-02 1.0000000000000000e+00 2.4832302568178903e+01 1.4400000000000000e+01 4.7939688743598188e+00 
1115 1116 2 1.4218704307376302e+00 -8.8741052850094287e-02 1.0000000000000000e+00 3.0190835699378546e+01 1.4400000000000000e+01 6.4566379966380687e+00 
1583 1584 2 1.4218704307376302e+00 -8.8979156233103457e-02 1.0000000000000000e+00 2.2714249405442937e+00 1.6600000000000001e+01 6.4905165548296679e+00 
1768 1769 2 1.4218704307376302e+00 -8.8492910622206100e-02 1.0000000000000000e+00 5.5395840465585167e+00 1.6600000000000001e+01 5.0536031652327500e+00 
1776 1777 2 1.4218704307376302e+00 -8.8955396757328373e-02 1.0000000000000000e+00 8.0760060208658668e+00 1.6600000000000001e+01 4.6075284705401209e+00 
1537 1538 2 1.4218704307376302e+00 -8.8946190321945451e-02 1.0000000000000000e+00 1.0745490062798467e+01 1.6600000000000001e+01 5.0507977580525072e+00 
1411 1412 2 1.4218704307376302e+00 -6.6022281617853742e-02 1.0000000000000000e+00 1.3149048742814070e+01 1.6600000000000001e+01 4.6514668190207340e+00 
1738 1739 2 1.4218704307376302e+00 -8.8830871981209009e-02 1.0000000000000000e+00 1.4939069125077502e+01 1.6600000000000001e+01 6.3438006145871935e+00 
1680 1681 2 1.4218704307376302e+00 -6.5956251353186321e-02 1.0000000000000000e+00 1.6625857204560450e+01 1.6600000000000001e+01 4.7337106802858422e+00 
1434 1435 2 1.4218704307376302e+00 -8.8950808497632178e-02 1.0000000000000000e+00 2.0131185864458480e+01 1.6600000000000001e+01 5.0049204430251502e+00 
1448 1449 2 1.4218704307376302e+00 -8.9189945164338383e-02 1.0000000000000000e+00 2.4832302568178903e+01 1.6600000000000001e+01 4.7939688743598188e+00 
1577 1578 2 1.4218704307376302e+00 -8.8741052850094287e-02 1.0000000000000000e+00 3.0190835699378546e+01 1.6600000000000001e+01 6.4566379966380687e+00 
2045 2046 2 1.4218704307376302e+00 -8.8979156233103457e-02 1.0000000000000000e+00 2.2714249405442937e+00 1.8800000000000001e+01 6.4905165548296679e+00 
2230 2231 2 1.4218704307376302e+00 -8.8492910622206100e-02 1.0000000000000000e+00 5.5395840465585167e+00 1.8800000000000001e+01 5.0536031652327500e+00 
2238 2239 2 1.4218704307376302e+00 -8.8955396757328373e-02 1.0000000000000000e+00 8.0760060208658668e+00 1.8800000000000001e+01 4.6075284705401209e+00 
1999 2000 2 1.4218704307376302e+00 -8.8946190321945451e-02 1.0000000000000000e+00 1.0745490062798467e+01 1.8800000000000001e+01 5.0507977580525072e+00 
1873 1874 2 1.4218704307376302e+00 -6.6022281617853742e-02 1.0000000000000000e+00 1.3149048742814070e+01 1.8800000000000001e+01 4.6514668190207340e+00 
2200 2201 2 1.4218704307376302e+00 -8.8830871981209009e-02 1.0000000000000000e+00 1.4939069125077502e+01 1.8800000000000001e+01 6.3438006145871935e+00 
2142 2143 2 1.4218704307376302e+00 -6.5956251353186321e-02 1.0000000000000000e+00 1.6625857204560450e+01 1.8800000000000001e+01 4.7337106802858422e+00 
1896 1897 2 1.4218704307376302e+00 -8.8950808497632178e-02 1.0000000000000000e+00 2.0131185864458480e+01 1.8800000000000001e+01 5.0049204430251502e+00 
1910 1911 2 1.4218704307376302e+00 -8.9189945164338383e-02 1.0000000000000000e+00 2.4832302568178903e+01 1.8800000000000001e+01 4.7939688743598188e+00 
2039 2040 2 1.4218704307376302e+00 -8.8741052850094287e-02 1.0000000000000000e+00 3.0190835699378546e+01 1.8800000000000001e+01 6.4566379966380687e+00 
102 103 2 1.4218704307376302e+00 -8.8861063377668914e-02 1.0000000000000000e+00 4.6516047306060315e+00 1.0000000000000000e+01 7.2640146109285801e+00 
322 323 2 1.4218704307376302e+00 -8.9171038352299711e-02 1.0000000000000000e+00 8.7986128501668013e+00 1.0000000000000000e+01 7.5833352607534588e+00 
418 419 2 1.4218704307376302e+00 -8.9082579677710563e-02 1.0000000000000000e+00 2.1346135633878585e+01 1.0000000000000000e+01 7.0956830784045506e+00 
188 189 2 1.4218704307376302e+00 -8.8983848464150611e-02 1.0000000000000000e+00 2.3806932233534262e+01 1.0000000000000000e+01 6.9902581449886316e+00 
221 222 2 1.4218704307376302e+00 -8.8985685305194157e-02 1.0000000000000000e+00 2.8200857663012716e+01 1.0000000000000000e+01 8.2105495991128397e+00 
564 565 2 1.4218704307376302e+00 -8.8861063377668914e-02 1.0000000000000000e+00 4.6516047306060315e+00 1.2199999999999999e+01 7.2640146109285801e+00 
784 785 2 1.4218704307376302e+00 -8.9171038352299711e-02 1.0000000000000000e+00 8.7986128501668013e+00 1.2199999999999999e+01 7.5833352607534588e+00 
880 881 2 1.4218704307376302e+00 -8.9082579677710563e-02 1.0000000000000000e+00 2.1346135633878585e+01 1.2199999999999999e+01 7.0956830784045506e+00 
650 651 2 1.4218704307376302e+00 -8.8983848464150611e-02 1.0000000000000000e+00 2.3806932233534262e+01 1.2199999999999999e+01 6.9902581449886316e+00 
683 684 2 1.4218704307376302e+00 -8.8985685305194157e-02 1.0000000000000000e+00 2.8200857663012716e+01 1.2199999999999999e+01 8.2105495991128397e+00 
1026 1027 2 1.4218704307376302e+00 -8.8861063377668914e-02 1.0000000000000000e+00 4.6516047306060315e+00 1.4400000000000000e+01 7.2640146109285801e+00 
1246 1247 2 1.4218704307376302e+00 -8.9171038352299711e-02 1.0000000000000000e+00 8.7986128501668013e+00 1.4400000000000000e+01 7.5833352607534588e+00 
1342 1343 2 1.4218704307376302e+00 -8.9082579677710563e-02 1.0000000000000000e+00 2.1346135633878585e+01 1.4400000000000000e+01 7.0956830784045506e+00 
1112 1113 2 1.4218704307376302e+00 -8.8983848464150611e-02 1.0000000000000000e+00 2.3806932233534262e+01 1.4400000000000000e+01 6.9902581449886316e+00 
1145 1146 2 1.4218704307376302e+00 -8.8985685305194157e-02 1.0000000000000000e+00 2.8200857663012716e+01 1.4400000000000000e+01 8.2105495991128397e+00 
1488 1489 2 1.4218704307376302e+00 -8.8861063377668914e-02 1.0000000000000000e+00 4.6516047306060315e+00 1.6600000000000001e+01 7.2640146109285801e+00 
1708 1709 2 1.4218704307376302e+00 -8.9171038352299711e-02 1.0000000000000000e+00 8.7986128501668013e+00 1.6600000000000001e+01 7.5833352607534588e+00 
1804 1805 2 1.4218704307376302e+00 -8.9082579677710563e-02 1.0000000000000000e+00 2.1346135633878585e+01 1.6600000000000001e+01 7.0956830784045506e+00 
1574 1575 2 1.4218704307376302e+00 -8.8983848464150611e-02 1.0000000000000000e+00 2.3806932233534262e+01 1.6600000000000001e+01 6.9902581449886316e+00 
1607 1608 2 1.4218704307376302e+00 -8.8985685305194157e-02 1.0000000000000000e+00 2.8200857663012716e+01 1.6600000000000001e+01 8.2105495991128397e+00 
1950 1951 2 1.4218704307376302e+00 -8.8861063377668914e-02 1.0000000000000000e+00 4.6516047306060315e+00 1.8800000000000001e+01 7.2640146109285801e+00 
2170 2171 2 1.4218704307376302e+00 -8.9171038352299711e-02 1.0000000000000000e+00 8.7986128501668013e+00 1.8800000000000001e+01 7.5833352607534588e+00 
2266 2267 2 1.4218704307376302e+00 -8.9082579677710563e-02 1.0000000000000000e+00 2.1346135633878585e+01 1.8800000000000001e+01 7.0956830784045506e+00 
2036 2037 2 1.4218704307376302e+00 -8.8983848464150611e-02 1.0000000000000000e+00 2.3806932233534262e+01 1.8800000000000001e+01 6.9902581449886316e+00 
2069 2070 2 1.4218704307376302e+00 -8.8985685305194157e-02 1.0000000000000000e+00 2.8200857663012716e+01 1.8800000000000001e+01 8.2105495991128397e+00 
234 235 2 1.4218704307376302e+00 -8.8952815682147329e-02 1.0000000000000000e+00 2.4365737683308963e+00 1.0000000000000000e+01 9.8852504241520638e+00 
195 196 2 1.4218704307376302e+00 -8.8781127625578438e-02 1.0000000000000000e+00 6.8375224648902249e+00 1.0000000000000000e+01 8.9803119395623323e+00 
141 142 2 1.4218704307376302e+00 -8.8691558105524121e-02 1.0000000000000000e+00 9.2529362796571117e+00 1.0000000000000000e+01 1.0668388534930514e+01 
91 92 2 1.4218704307376302e+00 -8.8927672985097489e-02 1.0000000000000000e+00 1.1347023464373185e+01 1.0000000000000000e+01 9.4676659611403391e+00 
143 144 2 1.4218704307376302e+00 -8.8916637160226908e-02 1.0000000000000000e+00 1.3301737007253397e+01 1.0000000000000000e+01 1.0796746024019177e+01 
275 276 2 1.4218704307376302e+00 -8.9071720338413041e-02 1.0000000000000000e+00 1.6563179764792153e+01 1.0000000000000000e+01 8.9616255468044361e+00 
383 384 2 1.4218704307376302e+00 -8.8815815003806711e-02 1.0000000000000000e+00 1.6151239630891521e+01 1.0000000000000000e+01 1.0935194279130879e+01 
116 117 2 1.4218704307376302e+00 -8.8607820693285252e-02 1.0000000000000000e+00 1.8535644959631224e+01 1.0000000000000000e+01 1.0052354737898682e+01 
439 440 2 1.4218704307376302e+00 -6.5883079725460661e-02 1.0000000000000000e+00 2.5392189111119979e+01 1.0000000000000000e+01 9.4253993044400612e+00 
109 110 2 1.4218704307376302e+00 -8.9098084665039490e-02 1.0000000000000000e+00 2.9901989858492815e+01 1.0000000000000000e+01 9.8089049231654162e+00 
696 697 2 1.4218704307376302e+00 -8.8952815682147329e-02 1.0000000000000000e+00 2.4365737683308963e+00 1.2199999999999999e+01 9.8852504241520638e+00 
657 658 2 1.4218704307376302e+00 -8.8781127625578438e-02 1.0000000000000000e+00 6.8375224648902249e+00 1.2199999999999999e+01 8.9803119395623323e+00 
603 604 2 1.4218704307376302e+00 -8.8691558105524121e-02 1.0000000000000000e+00 9.2529362796571117e+00 1.2199999999999999e+01 1.0668388534930514e+01 
553 554 2 1.4218704307376302e+00 -8.8927672985097489e-02 1.0000000000000000e+00 1.1347023464373185e+01 1.2199999999999999e+01 9.4676659611403391e+00 
605 606 2 1.4218704307376302e+00 -8.8916637160226908e-02 1.0000000000000000e+00 1.3301737007253397e+01 1.2199999999999999e+01 1.0796746024019177e+01 
737 738 2 1.4218704307376302e+00 -8.9071720338413041e-02 1.0000000000000000e+00 1.6563179764792153e+01 1.2199999999999999e+01 8.9616255468044361e+00 
845 846 2 1.4218704307376302e+00 -8.8815815003806711e-02 1.0000000000000000e+00 1.6151239630891521e+01 1.2199999999999999e+01 1.0935194279130879e+01 
578 579 2 1.4218704307376302e+00 -8.8607820693285252e-02 1.0000000000000000e+00 1.8535644959631224e+01 1.2199999999999999e+01 1.0052354737898682e+01 
901 902 2 1.4218704307376302e+00 -6.5883079725460661e-02 1.0000000000000000e+00 2.5392189111119979e+01 1.2199999999999999e+01 9.4253993044400612e+00 
571 572 2 1.4218704307376302e+00 -8.9098084665039490e-02 1.0000000000000000e+00 2.9901989858492815e+01 1.2199999999999999e+01 9.8089049231654162e+00 
1158 1159 2 1.4218704307376302e+00 -8.8952815682147329e-02 1.0000000000000000e+00 2.4365737683308963e+00 1.4400000000000000e+01 9.8852504241520638e+00 
1119 1120 2 1.4218704307376302e+00 -8.8781127625578438e-02 1.0000000000000000e+00 6.8375224648902249e+00 1.4400000000000000e+01 8.9803119395623323e+00 
1065 1066 2 1.4218704307376302e+00 -8.8691558105524121e-02 1.0000000000000000e+00 9.2529362796571117e+00 1.4400000000000000e+01 1.0668388534930514e+01 
1015 1016 2 1.4218704307376302e+00 -8.8927672985097489e-02 1.0000000000000000e+00 1.1347023464373185e+01 1.4400000000000000e+01 9.4676659611403391e+00 
1067 1068 2 1.4218704307376302e+00 -8.8916637160226908e-02 1.0000000000000000e+00 1.3301737007253397e+01 1.4400000000000000e+01 1.0796746024019177e+01 
1199 1200 2 1.4218704307376302e+00 -8.9071720338413041e-02 1.0000000000000000e+00 1.6563179764792153e+01 1.4400000000000000e+01 8.9616255468044361e+00 
1307 1308 2 1.4218704307376302e+00 -8.8815815003806711e-02 1.0000000000000000e+00 1.6151239630891521e+01 1.4400000000000000e+01 1.0935194279130879e+01 
1040 1041 2 1.4218704307376302e+00 -8.8607820693285252e-02 1.0000000000000000e+00 1.8535644959631224e+01 1.4400000000000000e+01 1.0052354737898682e+01 
1363 1364 2 1.4218704307376302e+00 -6.5883079725460661e-02 1.0000000000000000e+00 2.5392189111119979e+01 1.4400000000000000e+01 9.4253993044400612e+00 
1033 1034 2 1.4218704307376302e+00 -8.9098084665039490e-02 1.0000000000000000e+00 2.9901989858492815e+01 1.4400000000000000e+01 9.8089049231654162e+00 
1620 1621 2 1.4218704307376302e+00 -8.8952815682147329e-02 1.0000000000000000e+00 2.4365737683308963e+00 1.6600000000000001e+01 9.8852504241520638e+00 
1581 1582 2 1.4218704307376302e+00 -8.8781127625578438e-02 1.0000000000000000e+00 6.8375224648902249e+00 1.6600000000000001e+01 8.9803119395623323e+00 
1527 1528 2 1.4218704307376302e+00 -8.8691558105524121e-02 1.0000000000000000e+00 9.2529362796571117e+00 1.6600000000000001e+01 1.0668388534930514e+01 
1477 1478 2 1.4218704307376302e+00 -8.8927672985097489e-02 1.0000000000000000e+00 1.1347023464373185e+01 1.6600000000000001e+01 9.4676659611403391e+00 
1529 1530 2 1.4218704307376302e+00 -8.8916637160226908e-02 1.0000000000000000e+00 1.3301737007253397e+01 1.6600000000000001e+01 1.0796746024019177e+01 
1661 1662 2 1.4218704307376302e+00 -8.9071720338413041e-02 1.0000000000000000e+00 1.6563179764792153e+01 1.6600000000000001e+01 8.9616255468044361e+00 
1769 1770 2 1.4218704307376302e+00 -8.8815815003806711e-02 1.0000000000000000e+00 1.6151239630891521e+01 1.6600000000000001e+01 1.0935194279130879e+01 
1502 1503 2 1.4218704307376302e+00 -8.8607820693285252e-02 1.0000000000000000e+00 1.8535644959631224e+01 1.6600000000000001e+01 1.0052354737898682e+01 
1825 1826 2 1.4218704307376302e+00 -6.5883079725460661e-02 1.0000000000000000e+00 2.5392189111119979e+01 1.6600000000000001e+01 9.4253993044400612e+00 
1495 1496 2 1.4218704307376302e+00 -8.9098084665039490e-02 1.0000000000000000e+00 2.9901989858492815e+01 1.6600000000000001e+01 9.8089049231654162e+00 
2082 2083 2 1.4218704307376302e+00 -8.8952815682147329e-02 1.0000000000000000e+00 2.4365737683308963e+00 1.8800000000000001e+01 9.8852504241520638e+00 
2043 2044 2 1.4218704307376302e+00 -8.8781127625578438e-02 1.0000000000000000e+00 6.8375224648902249e+00 1.8800000000000001e+01 8.9803119395623323e+00 
1989 1990 2 1.4218704307376302e+00 -8.8691558105524121e-02 1.0000000000000000e+00 9.2529362796571117e+00 1.8800000000000001e+01 1.0668388534930514e+01 
1939 1940 2 1.4218704307376302e+00 -8.8927672985097489e-02 1.0000000000000000e+00 1.1347023464373185e+01 1.8800000000000001e+01 9.4676659611403391e+00 
1991 1992 2 1.4218704307376302e+00 -8.8916637160226908e-02 1.0000000000000000e+00 1.3301737007253397e+01 1.8800000000000001e+01 1.0796746024019177e+01 
2123 2124 2 1.4218704307376302e+00 -8.9071720338413041e-02 1.0000000000000000e+00 1.6563179764792153e+01 1.8800000000000001e+01 8.9616255468044361e+00 
2231 2232 2 1.4218704307376302e+00 -8.8815815003806711e-02 1.0000000000000000e+00 1.6151239630891521e+01 1.8800000000000001e+01 1.0935194279130879e+01 
1964 1965 2 1.4218704307376302e+00 -8.8607820693285252e-02 1.0000000000000000e+00 1.8535644959631224e+01 1.8800000000000001e+01 1.0052354737898682e+01 
2287 2288 2 1.4218704307376302e+00 -6.5883079725460661e-02 1.0000000000000000e+00 2.5392189111119979e+01 1.8800000000000001e+01 9.4253993044400612e+00 
1957 1958 2 1.4218704307376302e+00 -8.9098084665039490e-02 1.0000000000000000e+00 2.9901989858492815e+01 1.8800000000000001e+01 9.8089049231654162e+00 
43 44 2 1.4218704307376302e+00 -6.5929644699122242e-02 1.0000000000000000e+00 5.2832369555706915e+00 1.0000000000000000e+01 1.2673534931638999e+01 
306 307 2 1.4218704307376302e+00 -8.9026504024696460e-02 1.0000000000000000e+00 6.8841570759791662e+00 1.0000000000000000e+01 1.1332482084945855e+01 
1 2 2 1.4218704307376302e+00 -4.3030846658932975e-02 1.0000000000000000e+00 1.2059823239289177e+01 1.0000000000000000e+01 1.3218352936717269e+01 
357 358 2 1.4218704307376302e+00 -8.8806296767350759e-02 1.0000000000000000e+00 1.8610508791763959e+01 1.0000000000000000e+01 1.2563719032632372e+01 
19 20 2 1.4218704307376302e+00 -6.6162025737277544e-02 1.0000000000000000e+00 2.1447998564637626e+01 1.0000000000000000e+01 1.1429696091670468e+01 
328 329 2 1.4218704307376302e+00 -8.8786205566788706e-02 1.0000000000000000e+00 2.3400208033334607e+01 1.0000000000000000e+01 1.2207595281581789e+01 
35 36 2 1.4218704307376302e+00 -6.5855901769661510e-02 1.0000000000000000e+00 2.6785911723741428e+01 1.0000000000000000e+01 1.1458560333253542e+01 
126 127 2 1.4218704307376302e+00 -6.6095198237767230e-02 1.0000000000000000e+00 2.5395115245688082e+01 1.0000000000000000e+01 1.3247413041302517e+01 
183 184 2 1.4218704307376302e+00 -8.8951792511784727e-02 1.0000000000000000e+00 2.8781671325275990e+01 1.0000000000000000e+01 1.2835403301103876e+01 
412 413 2 1.4218704307376302e+00 -8.9056118828160433e-02 1.0000000000000000e+00 3.2876217466200089e+01 1.0000000000000000e+01 1.1433430410811278e+01 
505 506 2 1.4218704307376302e+00 -6.5929644699122242e-02 1.0000000000000000e+00 5.2832369555706915e+00 1.2199999999999999e+01 1.2673534931638999e+01 