LAMMPS data file via write_data, version 30 Jul 2016, timestep = 50000000

4620 atoms
8 atom types

0.0000000000000000e+00 1.0000000000000000e+02 xlo xhi
0.0000000000000000e+00 4.0000000000000000e+01 ylo yhi
0.0000000000000000e+00 4.0000000000000000e+01 zlo zhi

Masses

1 3.896
2 5.36
3 20.064
4 8.378
5 8.378
6 8.378
7 8.378
8 8.378

Atoms # meso-molecular

84 85 2 1.4218704307376302e+00 -6.5794383601211495e-02 1.0000000000000000e+00 3.9494088339796227e+00 1.0000000000000000e+01 5.2103387377372312e-01 
325 326 2 1.4218704307376302e+00 -8.8950346229630606e-02 1.0000000000000000e+00 6.0102862057580975e+00 1.0000000000000000e+01 2.3518312794613896e-01 
276 277 2 1.4218704307376302e+00 -8.8728011212495447e-02 1.0000000000000000e+00 9.2755158724698088e+00 1.0000000000000000e+01 1.4747051244149771e+00 
251 252 2 1.4218704307376302e+00 -8.9033713989590410e-02 1.0000000000000000e+00 1.5843042302414490e+01 1.0000000000000000e+01 8.6683889697852268e-01 
121 122 2 1.4218704307376302e+00 -8.8992290846149333e-02 1.0000000000000000e+00 1.7951774315349969e+01 1.0000000000000000e+01 4.4173529907809816e-01 
169 170 2 1.4218704307376302e+00 -6.6061004390519124e-02 1.0000000000000000e+00 2.0260901771038789e+01 1.0000000000000000e+01 2.1555261244246662e+00 
350 351 2 1.4218704307376302e+00 -8.8856284774722544e-02 1.0000000000000000e+00 2.3676487057782133e+01 1.0000000000000000e+01 1.3113343997046147e+00 
259 260 2 1.4218704307376302e+00 -8.9117247837603025e-02 1.0000000000000000e+00 2.6880944968990100e+01 1.0000000000000000e+01 2.3594343727125289e-01 
329 330 2 1.4218704307376302e+00 -8.9060805539882673e-02 1.0000000000000000e+00 2.9721045820919958e+01 1.0000000000000000e+01 9.3957690071436240e-01 
120 121 2 1.4218704307376302e+00 -8.8903536532788208e-02 1.0000000000000000e+00 3.3118229383095844e+01 1.0000000000000000e+01 5.2793937349782349e-01 
546 547 2 1.4218704307376302e+00 -6.5794383601211495e-02 1.0000000000000000e+00 3.9494088339796227e+00 1.2199999999999999e+01 5.2103387377372312e-01 
787 788 2 1.4218704307376302e+00 -8.8950346229630606e-02 1.0000000000000000e+00 6.0102862057580975e+00 1.2199999999999999e+01 2.3518312794613896e-01 
738 739 2 1.4218704307376302e+00 -8.8728011212495447e-02 1.0000000000000000e+00 9.2755158724698088e+00 1.2199999999999999e+01 1.4747051244149771e+00 
713 714 2 1.4218704307376302e+00 -8.9033713989590410e-02 1.0000000000000000e+00 1.5843042302414490e+01 1.2199999999999999e+01 8.6683889697852268e-01 
583 584 2 1.4218704307376302e+00 -8.8992290846149333e-02 1.0000000000000000e+00 1.7951774315349969e+01 1.2199999999999999e+01 4.4173529907809816e-01 
631 632 2 1.4218704307376302e+00 -6.6061004390519124e-02 1.0000000000000000e+00 2.0260901771038789e+01 1.2199999999999999e+01 2.1555261244246662e+00 
812 813 2 1.4218704307376302e+00 -8.8856284774722544e-02 1.0000000000000000e+00 2.3676487057782133e+01 1.2199999999999999e+01 1.3113343997046147e+00 
721 722 2 1.4218704307376302e+00 -8.9117247837603025e-02 1.0000000000000000e+00 2.6880944968990100e+01 1.2199999999999999e+01 2.3594343727125289e-01 
791 792 2 1.4218704307376302e+00 -8.9060805539882673e-02 1.0000000000000000e+00 2.9721045820919958e+01 1.2199999999999999e+01 9.3957690071436240e-01 
582 583 2 1.4218704307376302e+00 -8.8903536532788208e-02 1.0000000000000000e+00 3.3118229383095844e+01 1.2199999999999999e+01 5.2793937349782349e-01 
1008 1009 2 1.4218704307376302e+00 -6.5794383601211495e-02 1.0000000000000000e+00 3.9494088339796227e+00 1.4400000000000000e+01 5.2103387377372312e-01 
1249 1250 2 1.4218704307376302e+00 -8.8950346229630606e-02 1.0000000000000000e+00 6.0102862057580975e+00 1.4400000000000000e+01 2.3518312794613896e-01 
1200 1201 2 1.4218704307376302e+00 -8.8728011212495447e-02 1.0000000000000000e+00 9.2755158724698088e+00 1.4400000000000000e+01 1.4747051244149771e+00 
1175 1176 2 1.4218704307376302e+00 -8.9033713989590410e-02 1.0000000000000000e+00 1.5843042302414490e+01 1.4400000000000000e+01 8.6683889697852268e-01 
1045 1046 2 1.4218704307376302e+00 -8.8992290846149333e-02 1.0000000000000000e+00 1.7951774315349969e+01 1.4400000000000000e+01 4.4173529907809816e-01 
1093 1094 2 1.4218704307376302e+00 -6.6061004390519124e-02 1.0000000000000000e+00 2.0260901771038789e+01 1.4400000000000000e+01 2.1555261244246662e+00 
1274 1275 2 1.4218704307376302e+00 -8.8856284774722544e-02 1.0000000000000000e+00 2.3676487057782133e+01 1.4400000000000000e+01 1.3113343997046147e+00 
1183 1184 2 1.4218704307376302e+00 -8.9117247837603025e-02 1.0000000000000000e+00 2.6880944968990100e+01 1.4400000000000000e+01 2.3594343727125289e-01 
1253 1254 2 1.4218704307376302e+00 -8.9060805539882673e-02 1.0000000000000000e+00 2.9721045820919958e+01 1.4400000000000000e+01 9.3957690071436240e-01 
1044 1045 2 1.4218704307376302e+00 -8.8903536532788208e-02 1.0000000000000000e+00 3.3118229383095844e+01 1.4400000000000000e+01 5.2793937349782349e-01 
1470 1471 2 1.4218704307376302e+00 -6.5794383601211495e-02 1.0000000000000000e+00 3.9494088339796227e+00 1.6600000000000001e+01 5.2103387377372312e-01 
1711 1712 2 1.4218704307376302e+00 -8.8950346229630606e-02 1.0000000000000000e+00 6.0102862057580975e+00 1.6600000000000001e+01 2.3518312794613896e-01 
1662 1663 2 1.4218704307376302e+00 -8.8728011212495447e-02 1.0000000000000000e+00 9.2755158724698088e+00 1.6600000000000001e+01 1.4747051244149771e+00 
1637 1638 2 1.4218704307376302e+00 -8.9033713989590410e-02 1.0000000000000000e+00 1.5843042302414490e+01 1.6600000000000001e+01 8.6683889697852268e-01 
1507 1508 2 1.4218704307376302e+00 -8.8992290846149333e-02 1.0000000000000000e+00 1.7951774315349969e+01 1.6600000000000001e+01 4.4173529907809816e-01 
1555 1556 2 1.4218704307376302e+00 -6.6061004390519124e-02 1.0000000000000000e+00 2.0260901771038789e+01 1.6600000000000001e+01 2.1555261244246662e+00 
1736 1737 2 1.4218704307376302e+00 -8.8856284774722544e-02 1.0000000000000000e+00 2.3676487057782133e+01 1.6600000000000001e+01 1.3113343997046147e+00 
1645 1646 2 1.4218704307376302e+00 -8.9117247837603025e-02 1.0000000000000000e+00 2.6880944968990100e+01 1.6600000000000001e+01 2.3594343727125289e-01 
1715 1716 2 1.4218704307376302e+00 -8.9060805539882673e-02 1.0000000000000000e+00 2.9721045820919958e+01 1.6600000000000001e+01 9.3957690071436240e-01 
1506 1507 2 1.4218704307376302e+00 -8.8903536532788208e-02 1.0000000000000000e+00 3.3118229383095844e+01 1.6600000000000001e+01 5.2793937349782349e-01 
1932 1933 2 1.4218704307376302e+00 -6.5794383601211495e-02 1.0000000000000000e+00 3.9494088339796227e+00 1.8800000000000001e+01 5.2103387377372312e-01 
2173 2174 2 1.4218704307376302e+00 -8.8950346229630606e-02 1.0000000000000000e+00 6.0102862057580975e+00 1.8800000000000001e+01 2.3518312794613896e-01 
2124 2125 2 1.4218704307376302e+00 -8.8728011212495447e-02 1.0000000000000000e+00 9.2755158724698088e+00 1.8800000000000001e+01 1.4747051244149771e+00 
2099 2100 2 1.4218704307376302e+00 -8.9033713989590410e-02 1.0000000000000000e+00 1.5843042302414490e+01 1.8800000000000001e+01 8.6683889697852268e-01 
1969 1970 2 1.4218704307376302e+00 -8.8992290846149333e-02 1.0000000000000000e+00 1.7951774315349969e+01 1.8800000000000001e+01 4.4173529907809816e-01 
2017 2018 2 1.4218704307376302e+00 -6.6061004390519124e-02 1.0000000000000000e+00 2.0260901771038789e+01 1.8800000000000001e+01 2.1555261244246662e+00 
2198 2199 2 1.4218704307376302e+00 -8.8856284774722544e-02 1.0000000000000000e+00 2.3676487057782133e+01 1.8800000000000001e+01 1.3113343997046147e+00 
2107 2108 2 1.4218704307376302e+00 -8.9117247837603025e-02 1.0000000000000000e+00 2.6880944968990100e+01 1.8800000000000001e+01 2.3594343727125289e-01 
2177 2178 2 1.4218704307376302e+00 -8.9060805539882673e-02 1.0000000000000000e+00 2.9721045820919958e+01 1.8800000000000001e+01 9.3957690071436240e-01 
1968 1969 2 1.4218704307376302e+00 -8.8903536532788208e-02 1.0000000000000000e+00 3.3118229383095844e+01 1.8800000000000001e+01 5.2793937349782349e-01 
146 147 2 1.4218704307376302e+00 -8.9014560482172642e-02 1.0000000000000000e+00 2.9048716204380554e-01 1.0000000000000000e+01 2.3142368266515683e+00 
384 385 2 1.4218704307376302e+00 -8.8765337828082616e-02 1.0000000000000000e+00 2.6967525409026800e+00 1.0000000000000000e+01 2.5133005466686247e+00 
382 383 2 1.4218704307376302e+00 -8.8496807714226716e-02 1.0000000000000000e+00 4.0150274508676738e+00 1.0000000000000000e+01 4.3710999967651532e+00 
390 391 2 1.4218704307376302e+00 -8.8987151119459817e-02 1.0000000000000000e+00 5.6932557498827157e+00 1.0000000000000000e+01 2.4193369676010668e+00 
420 421 2 1.4218704307376302e+00 -6.6141655790174669e-02 1.0000000000000000e+00 9.1854532228364061e+00 1.0000000000000000e+01 4.2454131263033439e+00 
151 152 2 1.4218704307376302e+00 -8.8988878189946136e-02 1.0000000000000000e+00 1.1977528100406300e+01 1.0000000000000000e+01 4.1064266016777742e+00 
25 26 2 1.4218704307376302e+00 -6.6038975360540084e-02 1.0000000000000000e+00 1.3847137757339357e+01 1.0000000000000000e+01 2.8790086246537938e+00 
81 82 2 1.4218704307376302e+00 -8.8980738498522310e-02 1.0000000000000000e+00 1.8136413717741831e+01 1.0000000000000000e+01 2.8020532930219040e+00 
55 56 2 1.4218704307376302e+00 -8.8658272010680966e-02 1.0000000000000000e+00 2.2823285634768972e+01 1.0000000000000000e+01 3.9265933375186037e+00 
83 84 2 1.4218704309608257e+00 -8.8577670471887221e-02 1.0000000000000000e+00 2.9718221679534022e+01 1.0000000000000000e+01 4.3124560742345563e+00 
608 609 2 1.4218704307376302e+00 -8.9014560482172642e-02 1.0000000000000000e+00 2.9048716204380554e-01 1.2199999999999999e+01 2.3142368266515683e+00 
846 847 2 1.4218704307376302e+00 -8.8765337828082616e-02 1.0000000000000000e+00 2.6967525409026800e+00 1.2199999999999999e+01 2.5133005466686247e+00 
844 845 2 1.4218704307376302e+00 -8.8496807714226716e-02 1.0000000000000000e+00 4.0150274508676738e+00 1.2199999999999999e+01 4.3710999967651532e+00 
852 853 2 1.4218704307376302e+00 -8.8987151119459817e-02 1.0000000000000000e+00 5.6932557498827157e+00 1.2199999999999999e+01 2.4193369676010668e+00 
882 883 2 1.4218704307376302e+00 -6.6141655790174669e-02 1.0000000000000000e+00 9.1854532228364061e+00 1.2199999999999999e+01 4.2454131263033439e+00 
613 614 2 1.4218704307376302e+00 -8.8988878189946136e-02 1.0000000000000000e+00 1.1977528100406300e+01 1.2199999999999999e+01 4.1064266016777742e+00 
487 488 2 1.4218704307376302e+00 -6.6038975360540084e-02 1.0000000000000000e+00 1.3847137757339357e+01 1.2199999999999999e+01 2.8790086246537938e+00 
543 544 2 1.4218704307376302e+00 -8.8980738498522310e-02 1.0000000000000000e+00 1.8136413717741831e+01 1.2199999999999999e+01 2.8020532930219040e+00 
517 518 2 1.4218704307376302e+00 -8.8658272010680966e-02 1.0000000000000000e+00 2.2823285634768972e+01 1.2199999999999999e+01 3.9265933375186037e+00 
545 546 2 1.4218704309608257e+00 -8.8577670471887221e-02 1.0000000000000000e+00 2.9718221679534022e+01 1.2199999999999999e+01 4.3124560742345563e+00 
1070 1071 2 1.4218704307376302e+00 -8.9014560482172642e-02 1.0000000000000000e+00 2.9048716204380554e-01 1.4400000000000000e+01 2.3142368266515683e+00 
1308 1309 2 1.4218704307376302e+00 -8.8765337828082616e-02 1.0000000000000000e+00 2.6967525409026800e+00 1.4400000000000000e+01 2.5133005466686247e+00 
1306 1307 2 1.4218704307376302e+00 -8.8496807714226716e-02 1.0000000000000000e+00 4.0150274508676738e+00 1.4400000000000000e+01 4.3710999967651532e+00 
1314 1315 2 1.4218704307376302e+00 -8.8987151119459817e-02 1.0000000000000000e+00 5.6932557498827157e+00 1.4400000000000000e+01 2.4193369676010668e+00 
1344 1345 2 1.4218704307376302e+00 -6.6141655790174669e-02 1.0000000000000000e+00 9.1854532228364061e+00 1.4400000000000000e+01 4.2454131263033439e+00 
1075 1076 2 1.4218704307376302e+00 -8.8988878189946136e-02 1.0000000000000000e+00 1.1977528100406300e+01 1.4400000000000000e+01 4.1064266016777742e+00 
949 950 2 1.4218704307376302e+00 -6.6038975360540084e-02 1.0000000000000000e+00 1.3847137757339357e+01 1.4400000000000000e+01 2.8790086246537938e+00 
1005 1006 2 1.4218704307376302e+00 -8.8980738498522310e-02 1.0000000000000000e+00 1.8136413717741831e+01 1.4400000000000000e+01 2.8020532930219040e+00 
979 980 2 1.4218704307376302e+00 -8.8658272010680966e-02 1.0000000000000000e+00 2.2823285634768972e+01 1.4400000000000000e+01 3.9265933375186037e+00 
1007 1008 2 1.4218704309608257e+00 -8.8577670471887221e-02 1.0000000000000000e+00 2.9718221679534022e+01 1.4400000000000000e+01 4.3124560742345563e+00 
1532 1533 2 1.4218704307376302e+00 -8.9014560482172642e-02 1.0000000000000000e+00 2.9048716204380554e-01 1.6600000000000001e+01 2.3142368266515683e+00 
1770 1771 2 1.4218704307376302e+00 -8.8765337828082616e-02 1.0000000000000000e+00 2.6967525409026800e+00 1.6600000000000001e+01 2.5133005466686247e+00 
1768 1769 2 1.4218704307376302e+00 -8.8496807714226716e-02 1.0000000000000000e+00 4.0150274508676738e+00 1.6600000000000001e+01 4.3710999967651532e+00 
1776 1777 2 1.4218704307376302e+00 -8.8987151119459817e-02 1.0000000000000000e+00 5.6932557498827157e+00 1.6600000000000001e+01 2.4193369676010668e+00 
1806 1807 2 1.4218704307376302e+00 -6.6141655790174669e-02 1.0000000000000000e+00 9.1854532228364061e+00 1.6600000000000001e+01 4.2454131263033439e+00 
1537 1538 2 1.4218704307376302e+00 -8.8988878189946136e-02 1.0000000000000000e+00 1.1977528100406300e+01 1.6600000000000001e+01 4.1064266016777742e+00 
1411 1412 2 1.4218704307376302e+00 -6.6038975360540084e-02 1.0000000000000000e+00 1.3847137757339357e+01 1.6600000000000001e+01 2.8790086246537938e+00 
1467 1468 2 1.4218704307376302e+00 -8.8980738498522310e-02 1.0000000000000000e+00 1.8136413717741831e+01 1.6600000000000001e+01 2.8020532930219040e+00 
1441 1442 2 1.4218704307376302e+00 -8.8658272010680966e-02 1.0000000000000000e+00 2.2823285634768972e+01 1.6600000000000001e+01 3.9265933375186037e+00 
1469 1470 2 1.4218704309608257e+00 -8.8577670471887221e-02 1.0000000000000000e+00 2.9718221679534022e+01 1.6600000000000001e+01 4.3124560742345563e+00 
1994 1995 2 1.4218704307376302e+00 -8.9014560482172642e-02 1.0000000000000000e+00 2.9048716204380554e-01 1.8800000000000001e+01 2.3142368266515683e+00 
2232 2233 2 1.4218704307376302e+00 -8.8765337828082616e-02 1.0000000000000000e+00 2.6967525409026800e+00 1.8800000000000001e+01 2.5133005466686247e+00 
2230 2231 2 1.4218704307376302e+00 -8.8496807714226716e-02 1.0000000000000000e+00 4.0150274508676738e+00 1.8800000000000001e+01 4.3710999967651532e+00 
2238 2239 2 1.4218704307376302e+00 -8.8987151119459817e-02 1.0000000000000000e+00 5.6932557498827157e+00 1.8800000000000001e+01 2.4193369676010668e+00 
2268 2269 2 1.4218704307376302e+00 -6.6141655790174669e-02 1.0000000000000000e+00 9.1854532228364061e+00 1.8800000000000001e+01 4.2454131263033439e+00 
1999 2000 2 1.4218704307376302e+00 -8.8988878189946136e-02 1.0000000000000000e+00 1.1977528100406300e+01 1.8800000000000001e+01 4.1064266016777742e+00 
1873 1874 2 1.4218704307376302e+00 -6.6038975360540084e-02 1.0000000000000000e+00 1.3847137757339357e+01 1.8800000000000001e+01 2.8790086246537938e+00 
1929 1930 2 1.4218704307376302e+00 -8.8980738498522310e-02 1.0000000000000000e+00 1.8136413717741831e+01 1.8800000000000001e+01 2.8020532930219040e+00 
1903 1904 2 1.4218704307376302e+00 -8.8658272010680966e-02 1.0000000000000000e+00 2.2823285634768972e+01 1.8800000000000001e+01 3.9265933375186037e+00 
1931 1932 2 1.4218704309608257e+00 -8.8577670471887221e-02 1.0000000000000000e+00 2.9718221679534022e+01 1.8800000000000001e+01 4.3124560742345563e+00 
197 198 2 1.4218704307376302e+00 -8.9018305010241799e-02 1.0000000000000000e+00 9.3552843734270763e-01 1.0000000000000000e+01 4.5031539519928190e+00 
234 235 2 1.4218704307376302e+00 -8.8990244215746486e-02 1.0000000000000000e+00 1.8848320030131740e+00 1.0000000000000000e+01 6.4053761060473828e+00 
322 323 2 1.4218704307376302e+00 -8.9188668973215410e-02 1.0000000000000000e+00 6.1405056844412300e+00 1.0000000000000000e+01 6.3548040914047883e+00 
352 353 2 1.4218704307376302e+00 -8.8855823867947992e-02 1.0000000000000000e+00 1.4325652100447565e+01 1.0000000000000000e+01 6.2639638297095575e+00 
294 295 2 1.4218704307376302e+00 -6.5980036254233043e-02 1.0000000000000000e+00 1.8159710261093636e+01 1.0000000000000000e+01 4.8221537484686934e+00 
48 49 2 1.4218704307376302e+00 -8.8960494668079870e-02 1.0000000000000000e+00 2.0155123984407979e+01 1.0000000000000000e+01 5.6555652671954180e+00 
179 180 2 1.4218704307376302e+00 -8.8900436087012702e-02 1.0000000000000000e+00 2.4740445877147412e+01 1.0000000000000000e+01 4.6499981091273277e+00 
23 24 2 1.4218704307376302e+00 -6.5839178989840624e-02 1.0000000000000000e+00 2.6978843561426416e+01 1.0000000000000000e+01 5.0628549723392657e+00 
42 43 2 1.4218704309608257e+00 -4.2834955810778771e-02 1.0000000000000000e+00 3.0195677752997799e+01 1.0000000000000000e+01 6.2622888063910613e+00 
659 660 2 1.4218704307376302e+00 -8.9018305010241799e-02 1.0000000000000000e+00 9.3552843734270763e-01 1.2199999999999999e+01 4.5031539519928190e+00 
696 697 2 1.4218704307376302e+00 -8.8990244215746486e-02 1.0000000000000000e+00 1.8848320030131740e+00 1.2199999999999999e+01 6.4053761060473828e+00 
784 785 2 1.4218704307376302e+00 -8.9188668973215410e-02 1.0000000000000000e+00 6.1405056844412300e+00 1.2199999999999999e+01 6.3548040914047883e+00 
814 815 2 1.4218704307376302e+00 -8.8855823867947992e-02 1.0000000000000000e+00 1.4325652100447565e+01 1.2199999999999999e+01 6.2639638297095575e+00 
756 757 2 1.4218704307376302e+00 -6.5980036254233043e-02 1.0000000000000000e+00 1.8159710261093636e+01 1.2199999999999999e+01 4.8221537484686934e+00 
510 511 2 1.4218704307376302e+00 -8.8960494668079870e-02 1.0000000000000000e+00 2.0155123984407979e+01 1.2199999999999999e+01 5.6555652671954180e+00 
641 642 2 1.4218704307376302e+00 -8.8900436087012702e-02 1.0000000000000000e+00 2.4740445877147412e+01 1.2199999999999999e+01 4.6499981091273277e+00 
485 486 2 1.4218704307376302e+00 -6.5839178989840624e-02 1.0000000000000000e+00 2.6978843561426416e+01 1.2199999999999999e+01 5.0628549723392657e+00 
504 505 2 1.4218704309608257e+00 -4.2834955810778771e-02 1.0000000000000000e+00 3.0195677752997799e+01 1.2199999999999999e+01 6.2622888063910613e+00 
1121 1122 2 1.4218704307376302e+00 -8.9018305010241799e-02 1.0000000000000000e+00 9.3552843734270763e-01 1.4400000000000000e+01 4.5031539519928190e+00 
1158 1159 2 1.4218704307376302e+00 -8.8990244215746486e-02 1.0000000000000000e+00 1.8848320030131740e+00 1.4400000000000000e+01 6.4053761060473828e+00 
1246 1247 2 1.4218704307376302e+00 -8.9188668973215410e-02 1.0000000000000000e+00 6.1405056844412300e+00 1.4400000000000000e+01 6.3548040914047883e+00 
1276 1277 2 1.4218704307376302e+00 -8.8855823867947992e-02 1.0000000000000000e+00 1.4325652100447565e+01 1.4400000000000000e+01 6.2639638297095575e+00 
1218 1219 2 1.4218704307376302e+00 -6.5980036254233043e-02 1.0000000000000000e+00 1.8159710261093636e+01 1.4400000000000000e+01 4.8221537484686934e+00 
972 973 2 1.4218704307376302e+00 -8.8960494668079870e-02 1.0000000000000000e+00 2.0155123984407979e+01 1.4400000000000000e+01 5.6555652671954180e+00 
1103 1104 2 1.4218704307376302e+00 -8.8900436087012702e-02 1.0000000000000000e+00 2.4740445877147412e+01 1.4400000000000000e+01 4.6499981091273277e+00 
947 948 2 1.4218704307376302e+00 -6.5839178989840624e-02 1.0000000000000000e+00 2.6978843561426416e+01 1.4400000000000000e+01 5.0628549723392657e+00 
966 967 2 1.4218704309608257e+00 -4.2834955810778771e-02 1.0000000000000000e+00 3.0195677752997799e+01 1.4400000000000000e+01 6.2622888063910613e+00 
1583 1584 2 1.4218704307376302e+00 -8.9018305010241799e-02 1.0000000000000000e+00 9.3552843734270763e-01 1.6600000000000001e+01 4.5031539519928190e+00 
1620 1621 2 1.4218704307376302e+00 -8.8990244215746486e-02 1.0000000000000000e+00 1.8848320030131740e+00 1.6600000000000001e+01 6.4053761060473828e+00 
1708 1709 2 1.4218704307376302e+00 -8.9188668973215410e-02 1.0000000000000000e+00 6.1405056844412300e+00 1.6600000000000001e+01 6.3548040914047883e+00 
1738 1739 2 1.4218704307376302e+00 -8.8855823867947992e-02 1.0000000000000000e+00 1.4325652100447565e+01 1.6600000000000001e+01 6.2639638297095575e+00 
1680 1681 2 1.4218704307376302e+00 -6.5980036254233043e-02 1.0000000000000000e+00 1.8159710261093636e+01 1.6600000000000001e+01 4.8221537484686934e+00 
1434 1435 2 1.4218704307376302e+00 -8.8960494668079870e-02 1.0000000000000000e+00 2.0155123984407979e+01 1.6600000000000001e+01 5.6555652671954180e+00 
1565 1566 2 1.4218704307376302e+00 -8.8900436087012702e-02 1.0000000000000000e+00 2.4740445877147412e+01 1.6600000000000001e+01 4.6499981091273277e+00 
1409 1410 2 1.4218704307376302e+00 -6.5839178989840624e-02 1.0000000000000000e+00 2.6978843561426416e+01 1.6600000000000001e+01 5.0628549723392657e+00 
1428 1429 2 1.4218704309608257e+00 -4.2834955810778771e-02 1.0000000000000000e+00 3.0195677752997799e+01 1.6600000000000001e+01 6.2622888063910613e+00 
2045 2046 2 1.4218704307376302e+00 -8.9018305010241799e-02 1.0000000000000000e+00 9.3552843734270763e-01 1.8800000000000001e+01 4.5031539519928190e+00 
2082 2083 2 1.4218704307376302e+00 -8.8990244215746486e-02 1.0000000000000000e+00 1.8848320030131740e+00 1.8800000000000001e+01 6.4053761060473828e+00 
2170 2171 2 1.4218704307376302e+00 -8.9188668973215410e-02 1.0000000000000000e+00 6.1405056844412300e+00 1.8800000000000001e+01 6.3548040914047883e+00 
2200 2201 2 1.4218704307376302e+00 -8.8855823867947992e-02 1.0000000000000000e+00 1.4325652100447565e+01 1.8800000000000001e+01 6.2639638297095575e+00 
2142 2143 2 1.4218704307376302e+00 -6.5980036254233043e-02 1.0000000000000000e+00 1.8159710261093636e+01 1.8800000000000001e+01 4.8221537484686934e+00 
1896 1897 2 1.4218704307376302e+00 -8.8960494668079870e-02 1.0000000000000000e+00 2.0155123984407979e+01 1.8800000000000001e+01 5.6555652671954180e+00 
2027 2028 2 1.4218704307376302e+00 -8.8900436087012702e-02 1.0000000000000000e+00 2.4740445877147412e+01 1.8800000000000001e+01 4.6499981091273277e+00 
1871 1872 2 1.4218704307376302e+00 -6.5839178989840624e-02 1.0000000000000000e+00 2.6978843561426416e+01 1.8800000000000001e+01 5.0628549723392657e+00 
1890 1891 2 1.4218704309608257e+00 -4.2834955810778771e-02 1.0000000000000000e+00 3.0195677752997799e+01 1.8800000000000001e+01 6.2622888063910613e+00 
427 428 2 1.4218704307376302e+00 -6.6397554309564219e-02 1.0000000000000000e+00 2.5995379805976349e+00 1.0000000000000000e+01 8.3610402773606616e+00 
102 103 2 1.4218704307376302e+00 -8.8872362029196156e-02 1.0000000000000000e+00 7.1306574642716445e+00 1.0000000000000000e+01 8.2828676466429290e+00 
141 142 2 1.4218704307376302e+00 -8.8726091501953264e-02 1.0000000000000000e+00 1.0023262814953680e+01 1.0000000000000000e+01 6.8168707735092431e+00 
116 117 2 1.4218704307376302e+00 -8.8619365103741091e-02 1.0000000000000000e+00 1.5517570519214571e+01 1.0000000000000000e+01 8.6193555506586286e+00 
418 419 2 1.4218704307376302e+00 -8.9084503959739630e-02 1.0000000000000000e+00 1.8910081611865571e+01 1.0000000000000000e+01 7.4504782685439288e+00 
188 189 2 1.4218704307376302e+00 -8.8988006516892634e-02 1.0000000000000000e+00 2.0954633425085067e+01 1.0000000000000000e+01 7.7820226566110389e+00 
376 377 2 1.4218704307376302e+00 -8.8651407592974255e-02 1.0000000000000000e+00 2.4447018278411576e+01 1.0000000000000000e+01 7.3929533045214040e+00 
422 423 2 1.4218704307376302e+00 -6.6042585150561522e-02 1.0000000000000000e+00 2.7720686435406950e+01 1.0000000000000000e+01 7.3010372109161565e+00 
191 192 2 1.4218704307376302e+00 -8.8742195599972234e-02 1.0000000000000000e+00 3.1983652058480679e+01 1.0000000000000000e+01 7.7991902124311725e+00 
889 890 2 1.4218704307376302e+00 -6.6397554309564219e-02 1.0000000000000000e+00 2.5995379805976349e+00 1.2199999999999999e+01 8.3610402773606616e+00 
564 565 2 1.4218704307376302e+00 -8.8872362029196156e-02 1.0000000000000000e+00 7.1306574642716445e+00 1.2199999999999999e+01 8.2828676466429290e+00 
603 604 2 1.4218704307376302e+00 -8.8726091501953264e-02 1.0000000000000000e+00 1.0023262814953680e+01 1.2199999999999999e+01 6.8168707735092431e+00 
578 579 2 1.4218704307376302e+00 -8.8619365103741091e-02 1.0000000000000000e+00 1.5517570519214571e+01 1.2199999999999999e+01 8.6193555506586286e+00 
880 881 2 1.4218704307376302e+00 -8.9084503959739630e-02 1.0000000000000000e+00 1.8910081611865571e+01 1.2199999999999999e+01 7.4504782685439288e+00 
650 651 2 1.4218704307376302e+00 -8.8988006516892634e-02 1.0000000000000000e+00 2.0954633425085067e+01 1.2199999999999999e+01 7.7820226566110389e+00 
838 839 2 1.4218704307376302e+00 -8.8651407592974255e-02 1.0000000000000000e+00 2.4447018278411576e+01 1.2199999999999999e+01 7.3929533045214040e+00 
884 885 2 1.4218704307376302e+00 -6.6042585150561522e-02 1.0000000000000000e+00 2.7720686435406950e+01 1.2199999999999999e+01 7.3010372109161565e+00 
653 654 2 1.4218704307376302e+00 -8.8742195599972234e-02 1.0000000000000000e+00 3.1983652058480679e+01 1.2199999999999999e+01 7.7991902124311725e+00 
1351 1352 2 1.4218704307376302e+00 -6.6397554309564219e-02 1.0000000000000000e+00 2.5995379805976349e+00 1.4400000000000000e+01 8.3610402773606616e+00 
1026 1027 2 1.4218704307376302e+00 -8.8872362029196156e-02 1.0000000000000000e+00 7.1306574642716445e+00 1.4400000000000000e+01 8.2828676466429290e+00 
1065 1066 2 1.4218704307376302e+00 -8.8726091501953264e-02 1.0000000000000000e+00 1.0023262814953680e+01 1.4400000000000000e+01 6.8168707735092431e+00 
1040 1041 2 1.4218704307376302e+00 -8.8619365103741091e-02 1.0000000000000000e+00 1.5517570519214571e+01 1.4400000000000000e+01 8.6193555506586286e+00 
1342 1343 2 1.4218704307376302e+00 -8.9084503959739630e-02 1.0000000000000000e+00 1.8910081611865571e+01 1.4400000000000000e+01 7.4504782685439288e+00 
1112 1113 2 1.4218704307376302e+00 -8.8988006516892634e-02 1.0000000000000000e+00 2.0954633425085067e+01 1.4400000000000000e+01 7.7820226566110389e+00 
1300 1301 2 1.4218704307376302e+00 -8.8651407592974255e-02 1.0000000000000000e+00 2.4447018278411576e+01 1.4400000000000000e+01 7.3929533045214040e+00 
1346 1347 2 1.4218704307376302e+00 -6.6042585150561522e-02 1.0000000000000000e+00 2.7720686435406950e+01 1.4400000000000000e+01 7.3010372109161565e+00 
1115 1116 2 1.4218704307376302e+00 -8.8742195599972234e-02 1.0000000000000000e+00 3.1983652058480679e+01 1.4400000000000000e+01 7.7991902124311725e+00 
1813 1814 2 1.4218704307376302e+00 -6.6397554309564219e-02 1.0000000000000000e+00 2.5995379805976349e+00 1.6600000000000001e+01 8.3610402773606616e+00 
1488 1489 2 1.4218704307376302e+00 -8.8872362029196156e-02 1.0000000000000000e+00 7.1306574642716445e+00 1.6600000000000001e+01 8.2828676466429290e+00 
1527 1528 2 1.4218704307376302e+00 -8.8726091501953264e-02 1.0000000000000000e+00 1.0023262814953680e+01 1.6600000000000001e+01 6.8168707735092431e+00 
1502 1503 2 1.4218704307376302e+00 -8.8619365103741091e-02 1.0000000000000000e+00 1.5517570519214571e+01 1.6600000000000001e+01 8.6193555506586286e+00 
1804 1805 2 1.4218704307376302e+00 -8.9084503959739630e-02 1.0000000000000000e+00 1.8910081611865571e+01 1.6600000000000001e+01 7.4504782685439288e+00 
1574 1575 2 1.4218704307376302e+00 -8.8988006516892634e-02 1.0000000000000000e+00 2.0954633425085067e+01 1.6600000000000001e+01 7.7820226566110389e+00 
1762 1763 2 1.4218704307376302e+00 -8.8651407592974255e-02 1.0000000000000000e+00 2.4447018278411576e+01 1.6600000000000001e+01 7.3929533045214040e+00 
1808 1809 2 1.4218704307376302e+00 -6.6042585150561522e-02 1.0000000000000000e+00 2.7720686435406950e+01 1.6600000000000001e+01 7.3010372109161565e+00 
1577 1578 2 1.4218704307376302e+00 -8.8742195599972234e-02 1.0000000000000000e+00 3.1983652058480679e+01 1.6600000000000001e+01 7.7991902124311725e+00 
2275 2276 2 1.4218704307376302e+00 -6.6397554309564219e-02 1.0000000000000000e+00 2.5995379805976349e+00 1.8800000000000001e+01 8.3610402773606616e+00 
1950 1951 2 1.4218704307376302e+00 -8.8872362029196156e-02 1.0000000000000000e+00 7.1306574642716445e+00 1.8800000000000001e+01 8.2828676466429290e+00 
1989 1990 2 1.4218704307376302e+00 -8.8726091501953264e-02 1.0000000000000000e+00 1.0023262814953680e+01 1.8800000000000001e+01 6.8168707735092431e+00 
1964 1965 2 1.4218704307376302e+00 -8.8619365103741091e-02 1.0000000000000000e+00 1.5517570519214571e+01 1.8800000000000001e+01 8.6193555506586286e+00 
2266 2267 2 1.4218704307376302e+00 -8.9084503959739630e-02 1.0000000000000000e+00 1.8910081611865571e+01 1.8800000000000001e+01 7.4504782685439288e+00 
2036 2037 2 1.4218704307376302e+00 -8.8988006516892634e-02 1.0000000000000000e+00 2.0954633425085067e+01 1.8800000000000001e+01 7.7820226566110389e+00 
2224 2225 2 1.4218704307376302e+00 -8.8651407592974255e-02 1.0000000000000000e+00 2.4447018278411576e+01 1.8800000000000001e+01 7.3929533045214040e+00 
2270 2271 2 1.4218704307376302e+00 -6.6042585150561522e-02 1.0000000000000000e+00 2.7720686435406950e+01 1.8800000000000001e+01 7.3010372109161565e+00 
2039 2040 2 1.4218704307376302e+00 -8.8742195599972234e-02 1.0000000000000000e+00 3.1983652058480679e+01 1.8800000000000001e+01 7.7991902124311725e+00 
195 196 2 1.4218704307376302e+00 -8.8802929288459370e-02 1.0000000000000000e+00 4.8538857194492708e+00 1.0000000000000000e+01 1.0826609362997983e+01 
91 92 2 1.4218704307376302e+00 -8.8951078490350888e-02 1.0000000000000000e+00 1.1778334153175058e+01 1.0000000000000000e+01 1.0667480564606070e+01 
275 276 2 1.4218704307376302e+00 -8.9103921758443352e-02 1.0000000000000000e+00 1.7191569442968721e+01 1.0000000000000000e+01 9.9636159355860379e+00 
439 440 2 1.4218704307376302e+00 -6.5888125663492295e-02 1.0000000000000000e+00 2.3421192685116079e+01 1.0000000000000000e+01 9.1648271775702739e+00 
62 63 2 1.4218704307376302e+00 -8.9199164300344400e-02 1.0000000000000000e+00 2.5823056461833346e+01 1.0000000000000000e+01 9.2843069426052711e+00 
221 222 2 1.4218704307376302e+00 -8.8986386222609321e-02 1.0000000000000000e+00 2.8324381800736191e+01 1.0000000000000000e+01 9.5648500188475225e+00 