LAMMPS data file via write_data, version 30 Jul 2016, timestep = 50000000

384 atoms
2 atom types

0.0000000000000000e+00 2.0000000000000000e+01 xlo xhi
0.0000000000000000e+00 2.0000000000000000e+01 ylo yhi
0.0000000000000000e+00 2.0000000000000000e+01 zlo zhi

Masses

1 3.896
2 4.31

Atoms # meso-molecular

139 1 2 1.1605682584842913e+00 -1.3758221633723533e+03 1.0000000000000000e+00 1.5276640581879357e+00 1.0268246701025225e+00 1.3849792881190666e+00 
106 1 2 1.1605682584842913e+00 -5.8281508753588264e+02 1.0000000000000000e+00 3.2075228658292008e+00 2.1060205965156737e+00 1.2648392873924499e+00 
154 1 2 1.1605682584842913e+00 1.0973220976694361e+02 1.0000000000000000e+00 5.0472888091736889e+00 1.7280423500488240e+00 3.8790221795516105e-01 
325 1 2 1.1605682584842913e+00 2.1248555656653730e+02 1.0000000000000000e+00 2.2553329645497402e+00 4.1099443845993102e+00 7.3901326526065736e-01 
63 1 2 1.1605682584842913e+00 1.8331735238707057e+02 1.0000000000000000e+00 4.1042506337431552e+00 5.2029154455759530e+00 1.1295207850182554e+00 
177 1 2 1.1605682584842913e+00 -2.2407212069606276e+03 1.0000000000000000e+00 6.3841420864126042e-01 6.8378658217659751e+00 8.3786179553544737e-01 
293 1 2 1.1605682584842913e+00 8.0210542878389276e+02 1.0000000000000000e+00 1.7718639220095955e+00 9.0870520640061425e+00 6.1520003653509647e-01 
329 1 2 1.1605682584842913e+00 2.7412692037045196e+02 1.0000000000000000e+00 4.9144792643446857e+00 3.5592439805146339e+00 2.4250114905884521e+00 
319 1 2 1.1605682584842913e+00 2.0087684297911164e+02 1.0000000000000000e+00 4.5278500221443657e-01 4.6282906486865585e+00 1.7353265523537538e+00 
204 1 2 1.1605682584842913e+00 -1.5575236908014563e+02 1.0000000000000000e+00 2.8925310891045855e+00 7.1657695748687900e+00 1.8964909733134734e+00 
244 1 2 1.1605682584842913e+00 8.1826060574102428e+01 1.0000000000000000e+00 4.9494107388115012e+00 7.5604267543755403e+00 1.6144574372231943e+00 
307 1 2 1.1605682584842913e+00 4.3229886444948647e+01 1.0000000000000000e+00 4.1502244953897449e+00 9.9080048886821022e+00 2.1289088533472489e+00 
50 1 2 1.1605682584842913e+00 -5.2057458529513974e+02 1.0000000000000000e+00 5.5711165423240810e-02 1.0214340393921948e+00 2.9697228483300049e+00 
338 1 2 1.1605682584842913e+00 9.1572966126091899e+01 1.0000000000000000e+00 1.8826082991192310e+00 2.3950449602842512e+00 4.2335662766676476e+00 
371 1 2 1.1605682584842913e+00 -1.6262287534842858e+02 1.0000000000000000e+00 1.4725173796997948e+00 7.3235817377539334e+00 3.4526450318416817e+00 
227 1 2 1.1605682584842913e+00 -4.7211721006756250e+02 1.0000000000000000e+00 1.0665295151547716e+00 9.6479172678943090e+00 4.1205616307406610e+00 
323 1 2 1.1605682584842913e+00 1.4357423830706318e+02 1.0000000000000000e+00 5.9502896259247082e+00 7.3261970527566111e-01 5.4260116975907637e+00 
302 1 2 1.1605682584842913e+00 6.3632674091689552e+01 1.0000000000000000e+00 4.7922942704434943e+00 5.5706502166352134e+00 4.6098023620882271e+00 
376 1 2 1.1605682584842913e+00 5.1127680637901918e+01 1.0000000000000000e+00 5.8339489198565309e+00 8.5553312414674227e+00 4.5339317615168078e+00 
189 1 2 1.1605682584842913e+00 2.0084635104877384e+02 1.0000000000000000e+00 3.5577467778313876e+00 9.4267821542578769e+00 4.7438277165637173e+00 
324 1 2 1.1605682584842913e+00 4.8262482325987385e+01 1.0000000000000000e+00 1.3606360748102730e+00 4.2615809282304928e-01 6.1319721882461877e+00 
378 1 2 1.1605682584842913e+00 2.2000639984746834e+02 1.0000000000000000e+00 4.5480017068592211e+00 2.2618809934429440e+00 5.8786209798030082e+00 
27 1 2 1.1605682584842913e+00 1.0358346015794487e+02 1.0000000000000000e+00 9.4375378977390256e-01 5.7291984658634307e+00 5.7516439965511630e+00 
140 1 2 1.1605682584842913e+00 -2.7367288362176519e+03 1.0000000000000000e+00 2.2731680205792957e+00 7.0909866338619842e+00 6.7653306488648672e+00 
337 1 2 1.1605682584842913e+00 3.6171230731183789e+02 1.0000000000000000e+00 2.5371369609693240e-01 9.2059257634823997e+00 6.9725495610951302e+00 
297 1 2 1.1605682584842913e+00 -4.7328634669310495e+03 1.0000000000000000e+00 6.4763515008568131e+00 9.7320417440210747e+00 6.6623659459395368e+00 
146 1 2 1.1605682584842913e+00 -5.8053870539623767e+02 1.0000000000000000e+00 1.2811605705864024e+00 2.2110413231400234e+00 7.5509255700323834e+00 
68 1 2 1.1605682584842913e+00 1.2229689889673655e+03 1.0000000000000000e+00 6.2984489862734208e+00 3.6563726904783547e+00 7.7637060791204435e+00 
361 1 2 1.1605682584842913e+00 4.7127285208292119e+02 1.0000000000000000e+00 4.9599348745837961e+00 8.1631574346413593e+00 8.1970179565683008e+00 
287 1 2 1.1605682584842913e+00 -4.5961381762305939e+02 1.0000000000000000e+00 2.9623024818213972e+00 8.1853031359084494e-01 9.6026634299867517e+00 
365 1 2 1.1605682584842913e+00 -1.2845410806622776e+03 1.0000000000000000e+00 3.4876796895249229e+00 3.5780953504418620e+00 9.6471304240297417e+00 
223 1 2 1.1605682584842913e+00 -1.0594841515162142e+02 1.0000000000000000e+00 1.8701039812743907e+00 5.9071946058563718e+00 8.8940809156743228e+00 
188 1 2 1.1605682584842913e+00 1.0255631175816620e+02 1.0000000000000000e+00 1.4804763289300558e+00 7.9023047007202614e+00 8.6558155568433008e+00 
185 1 2 1.1605682584842913e+00 3.6759202297714282e+01 1.0000000000000000e+00 1.0335747324217159e+00 3.9990153152276159e-01 1.0409573006278892e+01 
234 1 2 1.1605682584842913e+00 5.6884708985413999e+02 1.0000000000000000e+00 6.6168127385696014e+00 4.8923699303796656e-02 1.0241566956706855e+01 
317 1 2 1.1605682584842913e+00 -7.1680310286636512e+01 1.0000000000000000e+00 5.0826362284680773e+00 1.8004453809039858e+00 1.0842100660399490e+01 
10 1 2 1.1605682584842913e+00 -6.1249715890102891e+01 1.0000000000000000e+00 4.3165144982843158e+00 6.9970665814511630e+00 1.0864184085825444e+01 
253 1 2 1.1605682584842913e+00 1.1707636375481786e+02 1.0000000000000000e+00 1.0904357102037692e+00 8.3174803252191083e+00 1.0835912041129641e+01 
141 1 2 1.1605682584842913e+00 -6.1942149587415417e+02 1.0000000000000000e+00 5.8144765413954671e+00 9.7470880165854119e+00 1.0275790673302286e+01 
286 1 2 1.1605682584842913e+00 3.1765910967201461e+02 1.0000000000000000e+00 3.0473352535921441e+00 9.2209254210661973e-01 1.2044748020864217e+01 
132 1 2 1.1605682584842913e+00 4.1559804837241848e+02 1.0000000000000000e+00 5.8941106524732874e+00 4.9089988327537970e+00 1.2013850756956769e+01 
149 1 2 1.1605682584842913e+00 8.9322617983699729e+02 1.0000000000000000e+00 5.0098217912490020e+00 5.7005451474844870e-01 1.3902093595363283e+01 
178 1 2 1.1605682584842913e+00 9.3400954152916427e+00 1.0000000000000000e+00 9.9215008446037012e-01 2.9303073350882602e+00 1.3356782913057462e+01 
375 1 2 1.1605682584842913e+00 -7.0009285499162246e+01 1.0000000000000000e+00 4.1397821707739721e+00 3.0904383550492538e+00 1.3453862986800116e+01 
336 1 2 1.1605682584842913e+00 1.2989333942179094e+03 1.0000000000000000e+00 2.3069936623056955e+00 7.6258656949894394e+00 1.4142767520503231e+01 
25 1 2 1.1605682584842913e+00 1.2145274163488702e+02 1.0000000000000000e+00 4.4790113749714422e-01 9.2412142254322838e+00 1.3630658840061253e+01 
31 1 2 1.1605682584842913e+00 1.3944068954742093e+03 1.0000000000000000e+00 1.5960731341424104e+00 9.0736728645034936e-01 1.4443403834025270e+01 
15 1 2 1.1605682584842913e+00 -1.2860146052489285e+03 1.0000000000000000e+00 4.6371030157575071e+00 1.9281988935340642e+00 1.5478025835213726e+01 
121 1 2 1.1605682584842913e+00 1.8400784128283186e+02 1.0000000000000000e+00 1.3775412967872078e+00 5.2962512033331715e+00 1.4862910818994068e+01 
55 1 2 1.1605682584842913e+00 8.3977540010777102e+02 1.0000000000000000e+00 3.9840852997571683e+00 5.4879985572392433e+00 1.5668927432161162e+01 
296 1 2 1.1605682584842913e+00 1.8395177244950833e+02 1.0000000000000000e+00 4.5123406755876294e+00 6.9435101320770682e+00 1.4351905606281631e+01 
81 1 2 1.1605682584842913e+00 7.2089840586353176e+01 1.0000000000000000e+00 5.4549830107734429e+00 8.6099424224845365e+00 1.5225932523943658e+01 
133 1 2 1.1605682584842913e+00 2.1009167018134539e+02 1.0000000000000000e+00 2.6042112436100517e-01 1.3212231319629173e+00 1.6985542979513735e+01 
279 1 2 1.1605682584842913e+00 -5.4744986277087401e+02 1.0000000000000000e+00 2.5670662662583741e+00 9.5101766830406032e-01 1.6761779470626344e+01 
166 1 2 1.1605682589410933e+00 -1.1957736610775244e+01 1.0000000000000000e+00 1.7385655944469876e+00 3.4221153768031312e+00 1.5743439524993390e+01 
176 1 2 1.1605682584842913e+00 2.6989338971598997e+01 1.0000000000000000e+00 1.5394190025457497e+00 9.1615546117914270e+00 1.5822637532720783e+01 
134 1 2 1.1605682584842913e+00 -1.5710581900601306e+02 1.0000000000000000e+00 1.1743377137301649e+00 4.0934115388130943e+00 1.8169045957721220e+01 
326 1 2 1.1605682589410933e+00 -7.1414441766799030e+01 1.0000000000000000e+00 3.1008253833379960e+00 3.1903479914190918e+00 1.7182923501554765e+01 
42 1 2 1.1605682584842913e+00 1.2586847288995202e+02 1.0000000000000000e+00 3.6997048114298972e+00 5.4659378204171984e+00 1.7782568507510877e+01 
184 1 2 1.1605682584842913e+00 -6.0802645440914625e+02 1.0000000000000000e+00 6.6388722837205778e+00 5.2263820468316959e+00 1.7429635339497921e+01 
320 1 2 1.1605682584842913e+00 1.0048358223130899e+03 1.0000000000000000e+00 3.4543229344846327e-01 7.7186401743657092e+00 1.7699119773430201e+01 
252 1 2 1.1605682584842913e+00 1.0283701564144974e+02 1.0000000000000000e+00 2.5413533622996960e+00 7.2636665559564957e+00 1.7506107674141095e+01 
312 1 2 1.1605682584842913e+00 2.2664564611740839e+03 1.0000000000000000e+00 5.5359171320113640e+00 7.6127535169382119e+00 1.8041358960353957e+01 
232 1 2 1.1605682584842913e+00 2.0374189106675152e+02 1.0000000000000000e+00 9.3399539466236647e-01 2.3668611107680460e-01 1.8633340851396529e+01 
59 1 2 1.1605682584842913e+00 1.1733427566980191e+02 1.0000000000000000e+00 5.9409400089731124e+00 3.3812559048873281e+00 1.8911863213523240e+01 
91 1 2 1.1605682584842913e+00 1.4727731348035218e+02 1.0000000000000000e+00 3.3978342887668722e+00 7.2983055990181551e+00 1.9902352151272421e+01 
173 1 2 1.1605682584842913e+00 2.5586502303541403e+02 1.0000000000000000e+00 4.7936341219688563e+00 1.0701596163664323e+01 1.5100692215374467e-01 
51 1 2 1.1605682584842913e+00 8.5213200740561277e+01 1.0000000000000000e+00 4.3973955578477373e+00 1.3039774562903302e+01 1.1648888172878824e-01 
187 1 2 1.1605682584842913e+00 9.9883435077640392e+00 1.0000000000000000e+00 2.5757833368148381e-01 1.5981866828102548e+01 4.5500439241873109e-01 
340 1 2 1.1605682584842913e+00 8.5236771907840944e+02 1.0000000000000000e+00 8.8934087329286071e-01 1.7978320079294548e+01 4.3753372370179755e-01 
268 1 2 1.1605682584842913e+00 -8.6371755982740240e+01 1.0000000000000000e+00 3.1364796490200906e+00 1.9903655770147097e+01 3.3941428664224060e-01 
248 1 2 1.1605682584842913e+00 -1.6388196281635996e+02 1.0000000000000000e+00 5.9834680564005929e+00 1.9248380500476401e+01 1.4767518429018045e-01 
180 1 2 1.1605682584842913e+00 -8.1257511831622219e+02 1.0000000000000000e+00 2.3807255385229849e+00 1.1343262674813868e+01 2.7099166130752490e+00 
64 1 2 1.1605682584842913e+00 5.7400024490243186e+02 1.0000000000000000e+00 4.6470731325448362e+00 1.2004943955228637e+01 2.5503338728675060e+00 
124 1 2 1.1605682584842913e+00 2.9974851555827007e+02 1.0000000000000000e+00 1.3724034326615735e+00 1.4835536618836569e+01 2.5124315353061770e+00 
321 1 2 1.1605682584842913e+00 2.1314361783347607e+02 1.0000000000000000e+00 4.2610683031991377e+00 1.6795957409370821e+01 2.7437629406206057e+00 
11 1 2 1.1605682624499880e+00 5.1339250224938633e+02 1.0000000000000000e+00 6.2761185399851698e+00 1.6910207544058231e+01 2.4701091541889877e+00 
382 1 2 1.1605682584842913e+00 -2.0428779293155435e+02 1.0000000000000000e+00 1.7067050336371589e-01 1.7929657169000635e+01 2.6339440908061174e+00 
194 1 2 1.1605682584842913e+00 3.1505027907539329e+02 1.0000000000000000e+00 2.3620466834220637e+00 1.8299429802032876e+01 2.7582914500045925e+00 
357 1 2 1.1605682584842913e+00 -3.6824501827927355e+02 1.0000000000000000e+00 3.6308305684478050e-02 1.1381136240981414e+01 3.7073164158554301e+00 
263 1 2 1.1605682584842913e+00 3.9223841543633785e+02 1.0000000000000000e+00 5.4325927277168375e+00 1.4616127143962219e+01 3.2181746543122451e+00 
339 1 2 1.1605682584842913e+00 6.6059785479856225e+02 1.0000000000000000e+00 5.0776583453771780e+00 1.9771652048753520e+01 3.6273402756665347e+00 
264 1 2 1.1605682584842913e+00 3.5243497755304759e+01 1.0000000000000000e+00 1.6781498866115345e+00 1.1344300968646781e+01 5.2994452985151872e+00 
148 1 2 1.1605682584842913e+00 3.2478123379697684e+02 1.0000000000000000e+00 4.1408942163377480e+00 1.1738844606804049e+01 5.1783307166058581e+00 
171 1 2 1.1605682584842913e+00 2.2726649473984929e+02 1.0000000000000000e+00 4.5004149551059097e-01 1.4167416799571788e+01 5.2084740488492045e+00 
364 1 2 1.1605682584842913e+00 1.4707868930495675e+02 1.0000000000000000e+00 5.8223292907788951e+00 1.3081351672961663e+01 4.4977924753523082e+00 
110 1 2 1.1605682584842913e+00 1.8635769517757158e+03 1.0000000000000000e+00 2.1675252163212511e+00 1.5305330268939116e+01 4.9489754716981276e+00 
219 1 2 1.1605682584842913e+00 5.6510721993344339e+02 1.0000000000000000e+00 6.3934165425179623e+00 1.6557621871440968e+01 5.0640576324569846e+00 
76 1 2 1.1605682584842913e+00 -2.0204447255069385e+03 1.0000000000000000e+00 2.9426697769236754e-01 1.2493294906248849e+01 7.0378667393299086e+00 
245 1 2 1.1605682584842913e+00 1.0725169185559969e+02 1.0000000000000000e+00 2.8670080623134329e+00 1.3461040278413451e+01 6.6527008248665718e+00 
221 1 2 1.1605682584842913e+00 -1.8993288944623089e+02 1.0000000000000000e+00 5.0158304340849265e+00 1.3596826500895368e+01 6.3346709692718415e+00 
309 1 2 1.1605682584842913e+00 -1.4250683049429864e+02 1.0000000000000000e+00 5.7419868323495293e-01 1.4963833549077263e+01 7.0420108593189541e+00 
100 1 2 1.1605682584842913e+00 3.9184291798075185e+02 1.0000000000000000e+00 2.0687411291842475e+00 1.6764243404345095e+01 6.3590064225093021e+00 
209 1 2 1.1605682584842913e+00 2.3852580743815741e+02 1.0000000000000000e+00 2.9592233852038130e+00 1.8649418318829028e+01 6.8777826931801913e+00 
334 1 2 1.1605682584842913e+00 6.5604828440886436e+01 1.0000000000000000e+00 3.6798958782091873e+00 1.1982713779292189e+01 7.8923586294518611e+00 
45 1 2 1.1605682584842913e+00 4.9907750850762667e+01 1.0000000000000000e+00 6.5245458341681450e+00 1.8384158706472775e+01 8.2133362384821478e+00 
270 1 2 1.1605682584842913e+00 1.0276915474574861e+02 1.0000000000000000e+00 4.6696488297186214e+00 1.9759944004845618e+01 7.2936477754012605e+00 
274 1 2 1.1605682584842913e+00 8.4398574170968544e+01 1.0000000000000000e+00 7.8743871651721686e-01 1.0614616810770606e+01 8.5756400151374663e+00 
62 1 2 1.1605682586467456e+00 4.1289993953776894e+02 1.0000000000000000e+00 1.5766361459284037e+00 1.3491213081740090e+01 9.9261407495971721e+00 
217 1 2 1.1605682584842913e+00 1.1950862774039226e+02 1.0000000000000000e+00 3.8425139949383236e+00 1.4103281655855604e+01 8.8076873203569814e+00 
332 1 2 1.1605682584842913e+00 1.3569188109716436e+02 1.0000000000000000e+00 5.6832222039137843e+00 1.4450667413891216e+01 9.5125243534605630e+00 
207 1 2 1.1605682584842913e+00 9.8442613874614352e+01 1.0000000000000000e+00 4.3209930619529935e+00 1.8126416003964334e+01 9.1925343589033801e+00 
18 1 2 1.1605682584842913e+00 2.5221882316192065e+01 1.0000000000000000e+00 1.6493388115209950e+00 1.8827382186544050e+01 9.1576043433035146e+00 
299 1 2 1.1605682584842913e+00 9.7457074942348243e+01 1.0000000000000000e+00 1.4446074779269680e+00 1.0515381242529228e+01 1.1033752061769079e+01 
172 1 2 1.1605682584842913e+00 1.7779958631107280e+02 1.0000000000000000e+00 3.5108507784271965e+00 1.0759520218089232e+01 1.0743183875211153e+01 
316 1 2 1.1605682584842913e+00 -2.2377207216711973e+01 1.0000000000000000e+00 3.9294786440044809e+00 1.5680824695202945e+01 1.0423192235471681e+01 
109 1 2 1.1605682592327180e+00 1.9005017558052334e+03 1.0000000000000000e+00 2.0510485966676830e+00 1.6819423081674270e+01 1.0299495505936095e+01 
108 1 2 1.1605682592327180e+00 3.3079119759744606e+02 1.0000000000000000e+00 2.4126889399246795e-01 1.7547307931112861e+01 1.0717730995606132e+01 
69 1 2 1.1605682586467456e+00 9.4217088882245810e+02 1.0000000000000000e+00 2.5908691213866581e+00 1.3048855568668095e+01 1.1588189257854133e+01 
84 1 2 1.1605682584842913e+00 5.6217046131493601e+02 1.0000000000000000e+00 2.3381107564091432e+00 1.5324879140031248e+01 1.2354883898781894e+01 
228 1 2 1.1605682584842913e+00 4.8684153964179450e+02 1.0000000000000000e+00 5.3486839173615728e+00 1.4661492647094660e+01 1.2512106691767665e+01 
5 1 2 1.1605682584842913e+00 5.4338818539871284e+02 1.0000000000000000e+00 4.2316488385698978e+00 1.8324544447023538e+01 1.1492388342651974e+01 
67 1 2 1.1605682584842913e+00 2.1970504424191961e+02 1.0000000000000000e+00 1.3288564422582874e+00 1.8694304254892227e+01 1.2443732796126925e+01 
162 1 2 1.1605682584842913e+00 2.5789906722519004e+02 1.0000000000000000e+00 4.4147520926157560e+00 1.0702295237933342e+01 1.3130125685885984e+01 
174 1 2 1.1605682584842913e+00 1.2418692996762601e+02 1.0000000000000000e+00 2.7392476136085171e+00 1.2570674426968262e+01 1.3529731119902374e+01 
142 1 2 1.1605682584842913e+00 5.2207655339763176e+02 1.0000000000000000e+00 3.1066721118160351e-01 1.4592332180150963e+01 1.3191287766783752e+01 
261 1 2 1.1605682584842913e+00 4.8222651536625847e+02 1.0000000000000000e+00 3.4074365659784069e+00 1.0774457655344634e+01 1.5148477308114566e+01 
3 1 2 1.1605682584842913e+00 5.2383744459544221e+02 1.0000000000000000e+00 5.3426379479055406e+00 1.1955091607197801e+01 1.5361438924741265e+01 
351 1 2 1.1605682584842913e+00 1.7073873288729791e+02 1.0000000000000000e+00 2.3576738879635906e-01 1.2897371121902522e+01 1.4979873586490944e+01 
215 1 2 1.1605682584842913e+00 -8.6569778021179479e+02 1.0000000000000000e+00 2.1678445116449138e-01 1.9369570421957775e+01 1.4806439528820718e+01 
159 1 2 1.1605682584842913e+00 1.7900437571374019e+02 1.0000000000000000e+00 3.2751458271119875e+00 1.9700777140031612e+01 1.4786039993069362e+01 
216 1 2 1.1605682584842913e+00 7.0999911422391801e+02 1.0000000000000000e+00 5.6815346842854524e+00 1.8649271488831886e+01 1.4847266840578270e+01 
266 1 2 1.1605682584842913e+00 2.1669239625248446e+02 1.0000000000000000e+00 6.2173506199684478e+00 1.0050978226110939e+01 1.6710291808670583e+01 
119 1 2 1.1605682584842913e+00 -7.8090595801513541e+02 1.0000000000000000e+00 5.4545139862999337e-01 1.1901292774398986e+01 1.7049664827249881e+01 
314 1 2 1.1605682584842913e+00 1.1579272888853021e+02 1.0000000000000000e+00 2.4182257588408840e+00 1.3408325492820172e+01 1.6420590145939009e+01 
373 1 2 1.1605682584842913e+00 3.7791992427651417e+02 1.0000000000000000e+00 2.2166847632958941e-01 1.4733733159494227e+01 1.6938837762730735e+01 
193 1 2 1.1605682584842913e+00 2.2534824794384474e+02 1.0000000000000000e+00 2.5916663348076505e+00 1.5528711574105635e+01 1.7109895147601563e+01 
256 1 2 1.1605682584842913e+00 1.2351587524504586e+02 1.0000000000000000e+00 6.1989936860751582e+00 1.6342421432190925e+01 1.5820274148791315e+01 
226 1 2 1.1605682584842913e+00 5.7645029821066646e+02 1.0000000000000000e+00 2.4484827129405389e+00 1.0587891142851559e+01 1.8216569513374946e+01 
272 1 2 1.1605682584842913e+00 3.9674655629421079e+02 1.0000000000000000e+00 4.5180263625149690e+00 1.1657789976955026e+01 1.7930248881231972e+01 
94 1 2 1.1605682584842913e+00 -4.4626747496591533e+03 1.0000000000000000e+00 2.6023717830007005e+00 1.8141827656319023e+01 1.7417153287410564e+01 
239 1 2 1.1605682584842913e+00 6.7963175882603977e+01 1.0000000000000000e+00 5.2518263923365094e+00 1.9404676815167065e+01 1.7605672317350194e+01 
113 1 2 1.1605682584842913e+00 -2.6816848734477608e+03 1.0000000000000000e+00 8.2875028030958406e-02 1.0800229975550860e+01 1.9934767273474581e+01 
70 1 2 1.1605682584842913e+00 9.2877717848082864e+02 1.0000000000000000e+00 1.2115956989785992e+00 1.2508233941207452e+01 1.9014809418742200e+01 
208 1 2 1.1605682584842913e+00 7.0365258865228611e+02 1.0000000000000000e+00 6.3412602644149816e+00 1.2377585563204558e+01 1.9933083371332902e+01 
267 1 2 1.1605682584842913e+00 1.4556855287529879e+02 1.0000000000000000e+00 5.8596508944097757e-02 1.7252535809036711e+01 1.8671955028966789e+01 
303 1 2 1.1605682584842913e+00 2.7546182547747328e+01 1.0000000000000000e+00 7.1066957239422432e+00 1.3719427587439157e+00 1.3797850822862321e+00 
82 1 2 1.1605682584842913e+00 -3.2131027197746405e+01 1.0000000000000000e+00 9.4821367166648489e+00 2.3646209260028122e+00 5.7672907675401963e-01 
195 1 2 1.1605682584842913e+00 -2.5945557826309850e+03 1.0000000000000000e+00 1.3075753631770912e+01 2.7920003164010585e+00 3.7739056003092891e-01 
342 1 2 1.1605682584842913e+00 -3.8897384464724507e+02 1.0000000000000000e+00 1.0455240823854087e+01 4.6649516998515805e+00 1.1394113521520086e+00 
46 1 2 1.1605682584842913e+00 9.2324669018498412e+01 1.0000000000000000e+00 7.6942149927124746e+00 8.8000356425208448e+00 6.1183542470069407e-01 
128 1 2 1.1605682584842913e+00 1.2713232310007885e+02 1.0000000000000000e+00 9.3749535480259922e+00 6.3969638434837126e+00 2.1300371560896827e+00 
93 1 2 1.1605682584842913e+00 2.4523309165297647e+02 1.0000000000000000e+00 1.0215911679604057e+01 1.0092014521764825e+00 4.1434974974237040e+00 
114 1 2 1.1605682584842913e+00 -6.1325402206955471e+02 1.0000000000000000e+00 8.8718403521752602e+00 3.0796308683461322e+00 3.1566261158739390e+00 
366 1 2 1.1605682584842913e+00 -6.2562070224588547e+02 1.0000000000000000e+00 7.4447085167297091e+00 6.7438345502061985e+00 3.3443443025834934e+00 
250 1 2 1.1605682584842913e+00 -5.0849315778318783e+01 1.0000000000000000e+00 1.0038820184851211e+01 9.5424516302299640e+00 4.0289948298100118e+00 
66 1 2 1.1605682584842913e+00 4.0489038709893293e+02 1.0000000000000000e+00 1.2458447361641642e+01 3.8265116829519998e+00 5.1530465231143525e+00 
355 1 2 1.1605682584842913e+00 1.7581885131400466e+02 1.0000000000000000e+00 7.7001523295170236e+00 7.8140415396029255e+00 5.0465084800423030e+00 
201 1 2 1.1605682584842913e+00 2.6233037863572235e+02 1.0000000000000000e+00 1.0192540668913189e+01 7.7712975413225083e+00 5.2842096315909393e+00 
352 1 2 1.1605682584842913e+00 6.1906593372788379e+01 1.0000000000000000e+00 1.1879158269124655e+01 8.8139928437013584e+00 4.6058241802830251e+00 
12 1 2 1.1605682584842913e+00 -2.0578193137040597e+02 1.0000000000000000e+00 1.0209223628938368e+01 2.1022606414785034e+00 6.6216797231477029e+00 
96 1 2 1.1605682584842913e+00 1.5454814308118134e+02 1.0000000000000000e+00 6.9845248800512536e+00 4.9120839588519765e+00 5.7965886095045676e+00 
117 1 2 1.1605682584842913e+00 -8.3359749673069946e+03 1.0000000000000000e+00 9.3354590024606736e+00 4.9600849899939975e-01 8.4894987994495335e+00 
363 1 2 1.1605682584842913e+00 1.3169991880897430e+02 1.0000000000000000e+00 7.8113607903020057e+00 1.9694602668952397e+00 7.3439220763969963e+00 
58 1 2 1.1605682584842913e+00 2.2384314183522918e+02 1.0000000000000000e+00 1.2618163522516967e+01 5.3863440244123506e+00 8.4808679945568830e+00 
271 1 2 1.1605682584842913e+00 7.0272570283510873e+01 1.0000000000000000e+00 8.1059592138214374e+00 5.9452374091666886e+00 7.2521559587759929e+00 
179 1 2 1.1605682584842913e+00 2.4436329649845663e+02 1.0000000000000000e+00 1.2109940888928584e+01 7.4412921731935739e+00 7.2979348867976288e+00 
52 1 2 1.1605682584842913e+00 -3.4404277839172300e+02 1.0000000000000000e+00 1.3256784870960230e+01 9.3640124466547121e+00 7.7522555332972845e+00 
98 1 2 1.1605682584842913e+00 1.3654081125270139e+02 1.0000000000000000e+00 1.1841570233307657e+01 4.3907815628522173e-01 9.2202271585654856e+00 
306 1 2 1.1605682584842913e+00 1.7068742336341307e+02 1.0000000000000000e+00 7.7226258609033662e+00 2.9710472887299213e+00 9.2040064362078713e+00 
60 1 2 1.1605682584842913e+00 -1.0268498838027542e+03 1.0000000000000000e+00 1.0354183224140197e+01 2.8957329279248207e+00 9.0831716817052754e+00 
212 1 2 1.1605682584842913e+00 1.8153454425796195e+02 1.0000000000000000e+00 7.1147626782072777e+00 6.1482586830064800e+00 9.0240947209654259e+00 
165 1 2 1.1605682584842913e+00 2.0766376362169791e+02 1.0000000000000000e+00 7.4563370276410117e+00 8.4484596150638769e+00 9.0579595038613210e+00 
277 1 2 1.1605682584842913e+00 -3.0601535154439767e+02 1.0000000000000000e+00 1.0420719919818030e+01 8.1353239517147635e+00 9.0011567365387304e+00 
183 1 2 1.1605682584842913e+00 -4.0730452729229717e+02 1.0000000000000000e+00 1.2197020228419314e+01 9.4907966438554485e+00 9.5250711826888992e+00 
285 1 2 1.1605682584842913e+00 5.3584957230897862e+02 1.0000000000000000e+00 8.2225610576121309e+00 4.0616155886483121e+00 1.1079948117750835e+01 
104 1 2 1.1605682584842913e+00 8.3700245633393934e+01 1.0000000000000000e+00 8.5441224133224587e+00 7.5989077324664027e+00 1.0766667624009663e+01 
129 1 2 1.1605682584842913e+00 1.0497151191468166e+02 1.0000000000000000e+00 8.4239436750663153e+00 2.0012922452371527e+00 1.2367644155869208e+01 
163 1 2 1.1605682584842913e+00 6.6765460826336766e+02 1.0000000000000000e+00 1.1047981966918620e+01 1.8747811776967880e+00 1.1976766673664423e+01 
53 1 2 1.1605682584842913e+00 -5.9331704572177568e+02 1.0000000000000000e+00 9.7934729375666194e+00 8.7092849193629824e+00 1.2070600454092958e+01 
222 1 2 1.1605682584842913e+00 -1.7578999331611135e+02 1.0000000000000000e+00 1.2094124326959324e+01 9.9350614540109028e+00 1.2596308007124952e+01 
9 1 2 1.1605682584842913e+00 -1.3317194682356481e+02 1.0000000000000000e+00 1.0523616736569455e+01 1.9371131917185256e+00 1.4071006846189086e+01 
34 1 2 1.1605682584842913e+00 4.2905223649820414e+02 1.0000000000000000e+00 6.7345380156196244e+00 3.6044639143202466e+00 1.3460106799661272e+01 
29 1 2 1.1605682584842913e+00 5.1646927462923230e+01 1.0000000000000000e+00 1.2544745568369089e+01 3.2781630533280519e+00 1.3004682368182195e+01 
360 1 2 1.1605682584839077e+00 3.8933227706857252e+02 1.0000000000000000e+00 1.0867470564249347e+01 4.8075841624695421e+00 1.3199213452583031e+01 
130 1 2 1.1605682584842913e+00 6.6041558439578466e+01 1.0000000000000000e+00 1.2577506298387792e+01 7.7515458356017772e+00 1.3514178681019263e+01 
40 1 2 1.1605682584842913e+00 1.0834099619089997e+02 1.0000000000000000e+00 7.3819950090975528e+00 8.7527578282958700e+00 1.4245080133550603e+01 
186 1 2 1.1605682584842913e+00 7.6075102470256991e+02 1.0000000000000000e+00 7.7910240872594061e+00 1.3116689527255980e+00 1.4504947764401818e+01 
2 1 2 1.1605682584839077e+00 2.1001095179851131e+02 1.0000000000000000e+00 9.7733625731592220e+00 4.8180633574908480e+00 1.4873023294933530e+01 
369 1 2 1.1605682584842913e+00 6.4615789441937704e+02 1.0000000000000000e+00 1.1752249100262762e+01 4.5786758514809147e+00 1.5504968951499395e+01 
254 1 2 1.1605682584842913e+00 4.3684279077239360e+01 1.0000000000000000e+00 1.1471440626927150e+01 8.9301614184701688e+00 1.5157228805287549e+01 
278 1 2 1.1605682584842913e+00 7.2302411608254852e+02 1.0000000000000000e+00 7.2399932432516207e+00 6.8115851649066537e+00 1.6025562115404405e+01 
35 1 2 1.1605682584842913e+00 1.1830699819407666e+02 1.0000000000000000e+00 9.2277186960129338e+00 7.1214793041562388e+00 1.6778408910732981e+01 
120 1 2 1.1605682584842913e+00 2.0177499224332860e+02 1.0000000000000000e+00 9.2818983650755822e+00 9.9434685712131614e+00 1.5957249031235948e+01 
152 1 2 1.1605682584842913e+00 9.1790436890476798e+01 1.0000000000000000e+00 9.6865782691802309e+00 4.1485815818191157e-01 1.7361418177664373e+01 
167 1 2 1.1605682584842913e+00 1.2557496402563575e+02 1.0000000000000000e+00 6.8665866177586619e+00 1.4618323814534318e+00 1.8459576732390669e+01 
214 1 2 1.1605682584842913e+00 3.1397995014192497e+02 1.0000000000000000e+00 1.0859807818822370e+01 2.8938310119091328e+00 1.7180375286040427e+01 
75 1 2 1.1605682584842913e+00 -2.5773947173118395e+03 1.0000000000000000e+00 9.6164469377610118e+00 5.0116349157508973e+00 1.8330167083322880e+01 
157 1 2 1.1605682584842913e+00 8.4738376636866667e+02 1.0000000000000000e+00 1.2552422430583082e+01 7.5427968534826864e+00 1.7353736189492388e+01 
300 1 2 1.1605682584842913e+00 1.9943512376449016e+03 1.0000000000000000e+00 1.0867499772102253e+01 9.0384649144930673e+00 1.7600967379963411e+01 
111 1 2 1.1605682584842913e+00 2.5156460371483183e+02 1.0000000000000000e+00 1.2789747337669429e+01 9.7986823716270699e+00 1.8242241300411191e+01 
61 1 2 1.1605682584842913e+00 1.5190627811100961e+02 1.0000000000000000e+00 8.1013624614043902e+00 6.7163741456419022e+00 1.8884748764104469e+01 
170 1 2 1.1605682584842913e+00 1.6320695205870436e+02 1.0000000000000000e+00 1.0662356802339760e+01 7.2003882593246740e+00 1.9368874219106949e+01 
377 1 2 1.1605682584842913e+00 9.9061706139062466e+01 1.0000000000000000e+00 1.0503941526083711e+01 1.0392912641062935e+01 1.2677130418912133e+00 
99 1 2 1.1605682584842913e+00 1.3308976495499726e+02 1.0000000000000000e+00 9.6855719575957302e+00 1.9766853171279863e+01 6.3719076893067905e-01 
41 1 2 1.1605682584842913e+00 7.4548809132629131e+01 1.0000000000000000e+00 1.2056002246962727e+01 1.0016256841076844e+01 2.7550888731868937e+00 
235 1 2 1.1605682584842913e+00 -3.2912265052223574e+03 1.0000000000000000e+00 8.3615926467725536e+00 1.1843287682467182e+01 2.0762230132290700e+00 
144 1 2 1.1605682584842913e+00 8.7354556287601599e+02 1.0000000000000000e+00 1.1108767006678669e+01 1.3219284646684770e+01 1.4437672662939818e+00 
126 1 2 1.1605682584842913e+00 2.5069800237368884e+02 1.0000000000000000e+00 9.2978975243902369e+00 1.4391518938442074e+01 1.5880157292920387e+00 
260 1 2 1.1605682584842913e+00 9.7134701202503379e+01 1.0000000000000000e+00 1.2288685472105390e+01 1.7106858593370806e+01 2.4630103640370362e+00 
26 1 2 1.1605682624499880e+00 5.4931962108211383e+02 1.0000000000000000e+00 7.1729267782867803e+00 1.8564955588469999e+01 1.8166848450481781e+00 