LAMMPS data file via write_data, version 30 Jul 2016, timestep = 50400000

384 atoms
2 atom types

0.0000000000000000e+00 2.0000000000000000e+01 xlo xhi
0.0000000000000000e+00 2.0000000000000000e+01 ylo yhi
0.0000000000000000e+00 2.0000000000000000e+01 zlo zhi

Masses

1 3.896
2 4.31

Atoms # meso-molecular

325 1 2 1.1605682584846055e+00 2.1248560044863609e+02 1.0000000000000000e+00 1.2781801006058586e+00 3.1870384071454261e+00 2.3324545322556894e-01 
177 1 2 1.1605682584842913e+00 -2.2407210989504174e+03 1.0000000000000000e+00 4.4580800083043332e-01 5.9846150862454479e+00 1.7216199394193049e-01 
63 1 2 1.1605682584842913e+00 1.8331735849491417e+02 1.0000000000000000e+00 3.2450303710640984e+00 6.0552223808638796e+00 9.2824946582980283e-01 
293 1 2 1.1605682584842913e+00 8.0210549357411412e+02 1.0000000000000000e+00 1.6617513755804743e+00 8.1843047430812010e+00 3.0305599051288257e-01 
139 1 2 1.1605682584842913e+00 -1.3758221358062096e+03 1.0000000000000000e+00 8.7538597787178785e-01 2.5998574079202791e-01 1.6811240999780035e+00 
106 1 2 1.1605682584842913e+00 -5.8281505823141083e+02 1.0000000000000000e+00 2.4910895491627407e+00 2.1582320073751990e+00 2.7796678084787825e+00 
338 1 2 1.1605682584842913e+00 9.1573073605308224e+01 1.0000000000000000e+00 4.6854917637265031e-01 4.4752967249595219e+00 1.9333367626499141e+00 
371 1 2 1.1605682584842913e+00 -1.6262286962519477e+02 1.0000000000000000e+00 1.1374339941120541e+00 6.9600961886491515e+00 1.9752097638319004e+00 
204 1 2 1.1605682584842913e+00 -1.5575233684975109e+02 1.0000000000000000e+00 3.7892776196352878e+00 7.7115555862740530e+00 2.1781234592883805e+00 
307 1 2 1.1605682584842913e+00 4.3229902858659074e+01 1.0000000000000000e+00 4.7614808906778778e+00 9.4811507315935959e+00 2.3003445754399241e+00 
329 1 2 1.1605682584842913e+00 2.7412692037045196e+02 1.0000000000000000e+00 4.5519012789314042e+00 3.4233558170374292e+00 3.0723558376040847e+00 
189 1 2 1.1605682584842913e+00 2.0084635104877384e+02 1.0000000000000000e+00 3.1273939098230885e+00 9.4483121896124214e+00 3.8696180725373850e+00 
302 1 2 1.1605682584842913e+00 6.3632705367022893e+01 1.0000000000000000e+00 2.5318197919210736e+00 6.6982162006038468e+00 5.0375831672748257e+00 
227 1 2 1.1605682584842913e+00 -4.7211718631828273e+02 1.0000000000000000e+00 1.0849681972754297e+00 8.2685812832536616e+00 4.4647180879627291e+00 
324 1 2 1.1605682584842913e+00 4.8262590811564657e+01 1.0000000000000000e+00 1.5102031413678809e+00 8.1419589046835683e-01 5.7807347712622343e+00 
27 1 2 1.1605682584842913e+00 1.0358359417794529e+02 1.0000000000000000e+00 8.9378287285894298e-01 3.0624523872175189e+00 5.7831397320622555e+00 
140 1 2 1.1605682584842913e+00 -2.7367288215726708e+03 1.0000000000000000e+00 2.7109416804492041e+00 5.6304205751754148e+00 6.8919562200878142e+00 
96 1 2 1.1605682584842913e+00 1.5454820234485308e+02 1.0000000000000000e+00 5.6395522362250956e+00 4.5999046355266389e+00 6.7755372355193293e+00 
345 1 2 1.1605682584842913e+00 1.6562702511885644e+02 1.0000000000000000e+00 6.3892614580072271e+00 1.0102644952140538e+00 7.3786764127181304e+00 
378 1 2 1.1605682584842913e+00 2.2000656444926244e+02 1.0000000000000000e+00 3.0517380830127685e+00 1.6976425119760341e+00 7.1621996391393763e+00 
249 1 2 1.1605682584842913e+00 9.8762695175256084e+01 1.0000000000000000e+00 1.9128379747686827e-01 3.9288799242802677e+00 7.6532069165103556e+00 
146 1 2 1.1605682584842913e+00 -5.8053866737485623e+02 1.0000000000000000e+00 2.1129545001488363e+00 3.2566721073113873e+00 8.2241315484777733e+00 
361 1 2 1.1605682584842913e+00 4.7127297194451864e+02 1.0000000000000000e+00 5.2660585448361719e+00 8.3296605217697106e+00 8.1918874021289074e+00 
188 1 2 1.1605682584842913e+00 1.0255632640315912e+02 1.0000000000000000e+00 3.5219028727800490e+00 9.7245351584592363e+00 8.2821131125280907e+00 
287 1 2 1.1605682584842913e+00 -4.5961381452356807e+02 1.0000000000000000e+00 6.7559701584613840e-01 7.9027997565366292e-01 9.8562773515751516e+00 
234 1 2 1.1605682584842913e+00 5.6884708985413999e+02 1.0000000000000000e+00 5.6437963702920886e+00 9.3852754127549687e-01 9.7941370932363938e+00 
68 1 2 1.1605682584842913e+00 1.2229690721205720e+03 1.0000000000000000e+00 6.6341285133536170e+00 4.2438686466374520e+00 8.7252574439063419e+00 
223 1 2 1.1605682584842913e+00 -1.0594837998088499e+02 1.0000000000000000e+00 2.7256903158486816e+00 5.0702120820951615e+00 8.9235135024184551e+00 
292 1 2 1.1605682584842913e+00 -6.0598270357441720e+02 1.0000000000000000e+00 1.1515151072807350e+00 6.5089057115132789e+00 9.2348621427637259e+00 
253 1 2 1.1605682584842913e+00 1.1707646371142519e+02 1.0000000000000000e+00 2.0833886192262558e+00 9.3260635211756036e+00 9.6341352488111553e+00 
141 1 2 1.1605682584842913e+00 -6.1942149048893350e+02 1.0000000000000000e+00 6.0742943302320409e+00 9.3511476744711572e+00 9.8479707542391157e+00 
365 1 2 1.1605682584842913e+00 -1.2845410108119163e+03 1.0000000000000000e+00 4.5967706215309736e+00 3.6770127414916165e+00 1.0152689866862540e+01 
10 1 2 1.1605682584842913e+00 -6.1249585913964992e+01 1.0000000000000000e+00 4.3931390454873567e+00 6.4083819352212350e+00 1.0165624326656189e+01 
296 1 2 1.1605682584842913e+00 1.8395191692555460e+02 1.0000000000000000e+00 3.4657945383036277e+00 7.7722257881019363e+00 1.1408366441347930e+01 
286 1 2 1.1605682584842913e+00 3.1765910967201461e+02 1.0000000000000000e+00 3.8576209051456436e+00 1.7177662500050785e+00 1.2103126006687416e+01 
317 1 2 1.1605682584842913e+00 -7.1680277806463238e+01 1.0000000000000000e+00 5.9482806696747286e+00 2.9964939235504904e+00 1.1701207157266508e+01 
178 1 2 1.1605682584842913e+00 9.3401573274579199e+00 1.0000000000000000e+00 3.1720518776859339e+00 4.3165873924893852e+00 1.1827612017478266e+01 
375 1 2 1.1605682584842913e+00 -7.0009261430385749e+01 1.0000000000000000e+00 4.7925689545509345e+00 4.0349032619140077e+00 1.3379783847201635e+01 
336 1 2 1.1605682584842913e+00 1.2989336212406240e+03 1.0000000000000000e+00 3.5546612038603151e+00 7.6439667516256442e+00 1.4266771032787556e+01 
81 1 2 1.1605682584842913e+00 7.2089905234136040e+01 1.0000000000000000e+00 5.2391560845225555e+00 8.2041108049695666e+00 1.2972263678106383e+01 
25 1 2 1.1605682584842913e+00 1.2145277619135541e+02 1.0000000000000000e+00 1.6557406533222849e+00 8.8310093596090553e+00 1.4004058048597573e+01 
15 1 2 1.1605682584842913e+00 -1.2860145956363526e+03 1.0000000000000000e+00 4.1684553658372465e+00 3.5742900381987491e-01 1.5709959089936161e+01 
166 1 2 1.1605682584842913e+00 -1.1957985243519724e+01 1.0000000000000000e+00 2.2193862425699580e+00 3.1099027559852539e+00 1.4726887137395645e+01 
34 1 2 1.1605682584842913e+00 4.2905225006238322e+02 1.0000000000000000e+00 5.7121086103099596e+00 3.1577117340163250e+00 1.5089839546943089e+01 
121 1 2 1.1605682584842913e+00 1.8400815441375892e+02 1.0000000000000000e+00 6.4196884823336176e-01 4.5363920721014992e+00 1.4680975136428371e+01 
55 1 2 1.1605682584842913e+00 8.3977546687007634e+02 1.0000000000000000e+00 5.6320042972602744e+00 6.4324423176803931e+00 1.5372581779161646e+01 
320 1 2 1.1605682584842913e+00 1.0048358423225764e+03 1.0000000000000000e+00 7.0608698230849720e-01 6.0581911559277319e+00 1.6216291157629993e+01 
176 1 2 1.1605682584842913e+00 2.6989386593178224e+01 1.0000000000000000e+00 1.2313777131586696e+00 8.9240026053898323e+00 1.6159980552495952e+01 
252 1 2 1.1605682584842913e+00 1.0283701564144974e+02 1.0000000000000000e+00 4.0987534422984728e+00 9.1774255105056195e+00 1.7043303810286762e+01 
266 1 2 1.1605682584842913e+00 2.1669242563129586e+02 1.0000000000000000e+00 6.2022252228803580e+00 9.3319191149683665e+00 1.6918212393321681e+01 
326 1 2 1.1605682584842913e+00 -7.1414733674125401e+01 1.0000000000000000e+00 3.3706647841304371e+00 3.2533763815936747e+00 1.7805063317838655e+01 
134 1 2 1.1605682584842913e+00 -1.5710580955362730e+02 1.0000000000000000e+00 8.6207553288496608e-01 4.3297187534548289e+00 1.7551355948396036e+01 
91 1 2 1.1605682584842913e+00 1.4727733883776250e+02 1.0000000000000000e+00 3.5009360650338071e+00 6.6344022631522490e+00 1.8367655129638813e+01 
232 1 2 1.1605682584842913e+00 2.0374194538986529e+02 1.0000000000000000e+00 5.1603678883085069e-01 1.1031365519508947e+00 1.9722559458195217e+01 
154 1 2 1.1605682584842913e+00 1.0973226352555920e+02 1.0000000000000000e+00 5.0500174060725431e+00 9.5997920004896808e-01 1.9514556315938897e+01 
279 1 2 1.1605682584842913e+00 -5.4744985824002879e+02 1.0000000000000000e+00 2.5236682812619855e+00 1.5815054025225574e+00 1.9312718469993630e+01 
59 1 2 1.1605682584842913e+00 1.1733427970428659e+02 1.0000000000000000e+00 5.8214492700816924e+00 2.9237601865555622e+00 1.9818059551714668e+01 
42 1 2 1.1605682584842913e+00 1.2586852739225580e+02 1.0000000000000000e+00 4.4398815160190459e+00 4.4330997877914378e+00 1.9437944501506376e+01 
244 1 2 1.1605682584842913e+00 8.1826141160663809e+01 1.0000000000000000e+00 5.0755576040335582e+00 7.1205434494875579e+00 1.9996367180829829e+01 
173 1 2 1.1605682584842913e+00 2.5586517311146872e+02 1.0000000000000000e+00 3.3884672823095516e+00 1.2411008028336452e+01 1.9257200436169380e-01 
208 1 2 1.1605682584842913e+00 7.0365267488051859e+02 1.0000000000000000e+00 6.3340264807423479e+00 1.1701349108529600e+01 2.3234905782571691e-01 
187 1 2 1.1605682584842913e+00 9.9883947836891558e+00 1.0000000000000000e+00 3.3980441738545386e-01 1.6338132960412807e+01 2.1781551333425608e-01 
11 1 2 1.1605682584842913e+00 5.1339093559937464e+02 1.0000000000000000e+00 6.6021553036979697e+00 1.6359523343473739e+01 1.3012157136328870e+00 
248 1 2 1.1605682584842913e+00 -1.6388191790320084e+02 1.0000000000000000e+00 6.0876232968559458e+00 1.8157178544741953e+01 3.2160271198594903e-01 
268 1 2 1.1605682584842913e+00 -8.6371752005641810e+01 1.0000000000000000e+00 3.2721891446746727e+00 1.9871844760793049e+01 9.9821287835801784e-02 
180 1 2 1.1605682584842913e+00 -8.1257506357240595e+02 1.0000000000000000e+00 9.8028848767667653e-01 1.2488368555295287e+01 2.7538188256705909e+00 
64 1 2 1.1605682584842913e+00 5.7400037788447298e+02 1.0000000000000000e+00 4.6658639503721933e+00 1.1470808626461549e+01 1.5304714837295921e+00 
263 1 2 1.1605682584842913e+00 3.9223844103580382e+02 1.0000000000000000e+00 4.4992874892777159e+00 1.3286939024766363e+01 2.8383535149509407e+00 
339 1 2 1.1605682584842913e+00 6.6059787670904882e+02 1.0000000000000000e+00 5.7871507055477709e+00 1.7879818642756714e+01 2.6342756526652984e+00 
124 1 2 1.1605682584842913e+00 2.9974853344429260e+02 1.0000000000000000e+00 1.0061390763597531e+00 1.4621751742485511e+01 3.4620059616365224e+00 
110 1 2 1.1605682584842913e+00 1.8635769873106242e+03 1.0000000000000000e+00 3.6647438557238199e+00 1.4535783611414345e+01 4.1736539123774641e+00 
321 1 2 1.1605682584842913e+00 2.1314370212189641e+02 1.0000000000000000e+00 5.2690735154273955e+00 1.5983265496225174e+01 3.8677672219129464e+00 
194 1 2 1.1605682584842913e+00 3.1505034148636628e+02 1.0000000000000000e+00 2.7847361420711141e+00 1.7247078975272050e+01 3.4032048974439379e+00 
264 1 2 1.1605682584842913e+00 3.5243502049722537e+01 1.0000000000000000e+00 2.2157574401353326e+00 1.0623547773581810e+01 5.6273605279355801e+00 
148 1 2 1.1605682605415439e+00 3.2478223225755596e+02 1.0000000000000000e+00 3.9953149096488554e+00 1.1419461558087606e+01 4.2960157629738713e+00 
364 1 2 1.1605682605415439e+00 1.4707969956849794e+02 1.0000000000000000e+00 5.9348582662841833e+00 1.1878581769107049e+01 4.3329829913390236e+00 
245 1 2 1.1605682584842913e+00 1.0725170203974579e+02 1.0000000000000000e+00 2.4021725398821911e+00 1.2997332175931968e+01 5.4119679480804637e+00 
171 1 2 1.1605682584842913e+00 2.2726660244613515e+02 1.0000000000000000e+00 1.0990125555636099e+00 1.4555657242280784e+01 5.6344127384065832e+00 
221 1 2 1.1605682584842913e+00 -1.8993288944623089e+02 1.0000000000000000e+00 4.4946084323479392e+00 1.3458184794069275e+01 6.3155352959592657e+00 
100 1 2 1.1605682584842913e+00 3.9184300699297205e+02 1.0000000000000000e+00 2.0704723724209582e+00 1.7486146471885096e+01 6.5987753154274289e+00 
270 1 2 1.1605682584842913e+00 1.0276919339370133e+02 1.0000000000000000e+00 5.3953529757248573e+00 1.8832329046086578e+01 5.8507809695870066e+00 
209 1 2 1.1605682584842913e+00 2.3852599861170228e+02 1.0000000000000000e+00 3.6667627555032354e+00 1.9689952444067618e+01 7.3045281974073193e+00 
334 1 2 1.1605682584842913e+00 6.5604865161648760e+01 1.0000000000000000e+00 4.9405817794850782e+00 1.1243976738509062e+01 8.8434863894448537e+00 
274 1 2 1.1605682584842913e+00 8.4398583159985037e+01 1.0000000000000000e+00 2.4125638523805151e+00 1.2326249379180449e+01 9.1224296045445730e+00 
217 1 2 1.1605682590036919e+00 1.1950897347430202e+02 1.0000000000000000e+00 3.7344606688168240e+00 1.3848342742665926e+01 8.7583810110067084e+00 
332 1 2 1.1605682590133735e+00 1.3569225414580853e+02 1.0000000000000000e+00 5.6175078641482612e+00 1.4060111681601802e+01 9.3837283905201030e+00 
62 1 2 1.1605682584842913e+00 4.1289986648877959e+02 1.0000000000000000e+00 2.8020574013945323e+00 1.5851547797876199e+01 9.8527206036562305e+00 
207 1 2 1.1605682584842913e+00 9.8442613913649268e+01 1.0000000000000000e+00 5.0408776763194822e+00 1.7694952532373751e+01 9.8942390190242264e+00 
18 1 2 1.1605682584842913e+00 2.5221895966568319e+01 1.0000000000000000e+00 4.8884857276832788e-01 1.9137501876272665e+01 8.7151049960536540e+00 
45 1 2 1.1605682584842913e+00 4.9907773879029605e+01 1.0000000000000000e+00 6.4477297007888827e+00 1.9069719862371638e+01 9.3568921784333661e+00 
197 1 2 1.1605682584842913e+00 -5.6647358781413186e+02 1.0000000000000000e+00 5.0491475175125644e-01 1.0632692546300039e+01 1.0229229613988052e+01 
172 1 2 1.1605682584842913e+00 1.7779959448760417e+02 1.0000000000000000e+00 3.6626524935494813e+00 1.0986765759323642e+01 1.0603303078638824e+01 
299 1 2 1.1605682584842913e+00 9.7457160525334956e+01 1.0000000000000000e+00 1.3089674099250364e+00 1.2802871004504764e+01 1.1259833574880957e+01 
316 1 2 1.1605682584939727e+00 -2.2377127632512867e+01 1.0000000000000000e+00 4.4212006578946541e+00 1.4976242576397771e+01 1.0695618582853735e+01 
109 1 2 1.1605682584842913e+00 1.9005013235221645e+03 1.0000000000000000e+00 7.8638404162914799e-01 1.7060998843375256e+01 1.0309236827907521e+01 
162 1 2 1.1605682584842913e+00 2.5789911078780619e+02 1.0000000000000000e+00 5.8985796622839279e+00 1.0276640779260447e+01 1.2034883057700338e+01 
69 1 2 1.1605682584842913e+00 9.4217077534404734e+02 1.0000000000000000e+00 4.0395772728860768e+00 1.3094506962054279e+01 1.1570231467808533e+01 
84 1 2 1.1605682584842913e+00 5.6217055467112925e+02 1.0000000000000000e+00 2.4686625550079961e+00 1.4747353033125076e+01 1.2363649668443543e+01 
5 1 2 1.1605682584842913e+00 5.4338818543774630e+02 1.0000000000000000e+00 5.2545446788862629e+00 1.7796826049039606e+01 1.1895240653970530e+01 
67 1 2 1.1605682584842913e+00 2.1970506318108312e+02 1.0000000000000000e+00 1.6279512818504116e+00 1.8592365982635407e+01 1.2847276613921046e+01 
174 1 2 1.1605682584842913e+00 1.2418698407798411e+02 1.0000000000000000e+00 2.6302989731747268e+00 1.1326477789311843e+01 1.3947949178357392e+01 
228 1 2 1.1605682584842913e+00 4.8684153964179450e+02 1.0000000000000000e+00 5.9399533664077673e+00 1.2504871947472024e+01 1.3394237051992329e+01 
142 1 2 1.1605682584842913e+00 5.2207682325331541e+02 1.0000000000000000e+00 1.6288706963825841e+00 1.6218572619838341e+01 1.3546611166363325e+01 
149 1 2 1.1605682584842913e+00 8.9322620209213596e+02 1.0000000000000000e+00 6.0638038367560911e+00 1.9974886597590572e+01 1.4192620164064767e+01 
261 1 2 1.1605682584842913e+00 4.8222658233253844e+02 1.0000000000000000e+00 4.3274958585786951e+00 1.0666273089367628e+01 1.5248606830981867e+01 
314 1 2 1.1605682584842913e+00 1.1579277933760048e+02 1.0000000000000000e+00 2.1865599147801555e+00 1.4029168524695571e+01 1.4808014145249688e+01 
31 1 2 1.1605682584842913e+00 1.3944070150775597e+03 1.0000000000000000e+00 1.6669485274940123e+00 1.9917493515111047e+01 1.4606250236067728e+01 
373 1 2 1.1605682584842913e+00 3.7792005747348242e+02 1.0000000000000000e+00 1.7248464826920933e+00 1.3873101039172674e+01 1.6969281461696635e+01 
3 1 2 1.1605682584842913e+00 5.2383745087723116e+02 1.0000000000000000e+00 5.8994520905153012e+00 1.4205730562832377e+01 1.6249486808645617e+01 
193 1 2 1.1605682584842913e+00 2.2534832201839134e+02 1.0000000000000000e+00 3.0472514788333571e+00 1.5797772882141780e+01 1.6548739626690843e+01 
216 1 2 1.1605682584842913e+00 7.0999916368479103e+02 1.0000000000000000e+00 5.8192889386931261e+00 1.7925271296558435e+01 1.6126759989245087e+01 
159 1 2 1.1605682584842913e+00 1.7900438871435844e+02 1.0000000000000000e+00 2.8036366305730360e+00 1.8933039256162523e+01 1.6128502380779167e+01 
119 1 2 1.1605682584842913e+00 -7.8090573395116303e+02 1.0000000000000000e+00 5.2906017728838073e-01 1.1308141085404145e+01 1.7795319230265548e+01 
226 1 2 1.1605682584842913e+00 5.7645037013961041e+02 1.0000000000000000e+00 2.6435945556850879e+00 1.0450860763369066e+01 1.8329841990304743e+01 
272 1 2 1.1605682584842913e+00 3.9674657649149185e+02 1.0000000000000000e+00 5.0149451122478483e+00 1.2313269950848506e+01 1.8144320756153416e+01 
51 1 2 1.1605682584842913e+00 8.5213200740561277e+01 1.0000000000000000e+00 4.7911335739056469e+00 1.4912678314279800e+01 1.7810203680893054e+01 
267 1 2 1.1605682584842913e+00 1.4556862794060049e+02 1.0000000000000000e+00 6.2415307425426714e-01 1.6131859328963763e+01 1.8112401365167830e+01 
239 1 2 1.1605682584842913e+00 6.7963274249819179e+01 1.0000000000000000e+00 5.2805704015162132e+00 1.9168922089558148e+01 1.7927654631514031e+01 
113 1 2 1.1605682584842913e+00 -2.6816848545427574e+03 1.0000000000000000e+00 7.6730452961508744e-01 1.0719272928802736e+01 1.9919071779545213e+01 
70 1 2 1.1605682584842913e+00 9.2877734030009503e+02 1.0000000000000000e+00 1.8966423174800533e+00 1.4417765843761492e+01 1.9382723279679805e+01 
94 1 2 1.1605682584842913e+00 -4.4626747166989981e+03 1.0000000000000000e+00 2.8767028647183119e+00 1.7668926908102449e+01 1.9127257954758090e+01 
340 1 2 1.1605682584842913e+00 8.5236772245714201e+02 1.0000000000000000e+00 1.1837931596422151e+00 1.8752360056483955e+01 1.9886675345547605e+01 
303 1 2 1.1605682584842913e+00 2.7546230517498842e+01 1.0000000000000000e+00 8.1983441901203733e+00 7.6113786571325293e-01 1.2707119998461629e+00 
99 1 2 1.1605682584842913e+00 1.3308985279057995e+02 1.0000000000000000e+00 1.1134736167343744e+01 2.8301352186115944e-02 1.2041134323936811e+00 
372 1 2 1.1605682584842913e+00 5.9891195553317829e+01 1.0000000000000000e+00 1.2549124749006127e+01 1.1929692292627656e+00 1.5963222036799049e-01 
82 1 2 1.1605682584842913e+00 -3.2130997431463754e+01 1.0000000000000000e+00 9.7098284430464226e+00 3.8451554122618381e+00 2.6010236975245481e-02 
342 1 2 1.1605682584842913e+00 -3.8897383936722906e+02 1.0000000000000000e+00 1.0894223445630246e+01 5.4415407120052048e+00 4.1341948799696238e-01 
61 1 2 1.1605682584842913e+00 1.5190634276360743e+02 1.0000000000000000e+00 8.9492653891073211e+00 7.3754669571758349e+00 2.8007028618097406e-02 
46 1 2 1.1605682584842913e+00 9.2324772802026217e+01 1.0000000000000000e+00 7.6626972543837146e+00 9.0037612475120010e+00 1.9125708277284242e-01 
195 1 2 1.1605682584842913e+00 -2.5945557239343580e+03 1.0000000000000000e+00 1.1931119810885336e+01 3.5463452532412991e+00 2.1301036860822165e+00 
170 1 2 1.1605682584842913e+00 1.6320701705901763e+02 1.0000000000000000e+00 1.1845922213296303e+01 6.9870754739898260e+00 1.5738808561842688e+00 
128 1 2 1.1605682584842913e+00 1.2713239993909994e+02 1.0000000000000000e+00 7.9373905820571684e+00 7.9107267854554832e+00 2.1063403610697882e+00 
377 1 2 1.1605682584842913e+00 9.9061754795866648e+01 1.0000000000000000e+00 1.0247671083851317e+01 8.7468156991462660e+00 2.2846037277020717e+00 
93 1 2 1.1605682584842913e+00 2.4523317054023389e+02 1.0000000000000000e+00 1.0907151432339749e+01 1.6700789416251520e+00 3.9582733177622988e+00 
114 1 2 1.1605682584842913e+00 -6.1325397668745302e+02 1.0000000000000000e+00 8.9293646730139091e+00 2.9159503613349176e+00 3.7539339166368979e+00 
366 1 2 1.1605682584842913e+00 -6.2562064346301167e+02 1.0000000000000000e+00 7.4921978596374084e+00 4.8652833012608081e+00 3.8265597374247440e+00 
376 1 2 1.1605682584842913e+00 5.1127783765946191e+01 1.0000000000000000e+00 6.9064533238558452e+00 7.0788617287779338e+00 3.8863410630216619e+00 
327 1 2 1.1605682584842913e+00 3.4587273509290998e+02 1.0000000000000000e+00 1.0856444852002371e+01 5.8929765208063447e+00 3.1289073714427511e+00 
250 1 2 1.1605682584842913e+00 -5.0849315406471376e+01 1.0000000000000000e+00 1.0243494237652621e+01 9.6604699317184064e+00 4.1249482870387606e+00 
229 1 2 1.1605682584842913e+00 3.5370753098810997e+02 1.0000000000000000e+00 9.9295634398299537e+00 1.5902889161802214e-01 5.1215329473913584e+00 
323 1 2 1.1605682584842913e+00 1.4357428404429606e+02 1.0000000000000000e+00 6.9028918542138236e+00 1.8788679438646736e+00 5.2382724214757612e+00 
66 1 2 1.1605682584842913e+00 4.0489045795931122e+02 1.0000000000000000e+00 1.2254526719945035e+01 3.8940224712348548e+00 5.3347757182524242e+00 
201 1 2 1.1605682584842913e+00 2.6233040018215218e+02 1.0000000000000000e+00 1.0369204284404471e+01 6.5494245259377983e+00 5.2725902068955337e+00 
77 1 2 1.1605682584842913e+00 2.8682747979649440e+02 1.0000000000000000e+00 8.3328258361663199e+00 9.6584631849664611e+00 5.2340503393188582e+00 
352 1 2 1.1605682584842913e+00 6.1906608297970365e+01 1.0000000000000000e+00 1.2900865951011271e+01 8.8088911289060032e+00 4.9692004323509726e+00 
12 1 2 1.1605682584842913e+00 -2.0578181465451070e+02 1.0000000000000000e+00 9.6979866318844419e+00 2.3232131587092049e+00 6.2347987416404749e+00 
271 1 2 1.1605682584842913e+00 7.0272666420950259e+01 1.0000000000000000e+00 1.0078176819832018e+01 4.3941062853639741e+00 5.8033572087193113e+00 
355 1 2 1.1605682584842913e+00 1.7581889878178404e+02 1.0000000000000000e+00 7.9631918325336635e+00 7.3699185220799048e+00 6.8934343184061131e+00 
179 1 2 1.1605682584842913e+00 2.4436332770837299e+02 1.0000000000000000e+00 1.2102207674566605e+01 7.6703396361821747e+00 6.7008251128531668e+00 
98 1 2 1.1605682584842913e+00 1.3654082982438300e+02 1.0000000000000000e+00 1.2870735158622532e+01 1.1077013566444511e+00 7.8095536043629599e+00 
363 1 2 1.1605682584842913e+00 1.3170002603003735e+02 1.0000000000000000e+00 9.5771083645069073e+00 1.7953769276526361e+00 8.2600800866284381e+00 
277 1 2 1.1605682584842913e+00 -3.0601533045950572e+02 1.0000000000000000e+00 9.1601709961873592e+00 7.5988823476693224e+00 8.5575605574218443e+00 
60 1 2 1.1605682584842913e+00 -1.0268498634020523e+03 1.0000000000000000e+00 1.1622127357996551e+01 2.3907573984783923e+00 9.2688022277243487e+00 
165 1 2 1.1605682584842913e+00 2.0766379213548771e+02 1.0000000000000000e+00 7.1029782589742085e+00 7.2788373659883439e+00 9.0572670502278196e+00 
117 1 2 1.1605682584842913e+00 -8.3359749363799729e+03 1.0000000000000000e+00 1.0198904697039049e+01 8.8096826499514436e-01 1.0007144640249535e+01 
129 1 2 1.1605682584842913e+00 1.0497154902197983e+02 1.0000000000000000e+00 8.5546898562712936e+00 1.4992171308956965e+00 1.1242122789484711e+01 
212 1 2 1.1605682584842913e+00 1.8153457945947287e+02 1.0000000000000000e+00 6.7589032799901272e+00 5.6909938085364926e+00 1.0530367240131474e+01 
306 1 2 1.1605682584842913e+00 1.7068745350029081e+02 1.0000000000000000e+00 8.6485172780351736e+00 4.5539567303677337e+00 1.0302755496491098e+01 
163 1 2 1.1605682584842913e+00 6.6765461960827838e+02 1.0000000000000000e+00 1.0258462141558070e+01 1.3212575710726564e+00 1.2783645975496249e+01 
132 1 2 1.1605682584842913e+00 4.1559806187992331e+02 1.0000000000000000e+00 7.2528447503020086e+00 4.8722058783770112e+00 1.2658638219626376e+01 
285 1 2 1.1605682584842913e+00 5.3584962739520734e+02 1.0000000000000000e+00 9.7179063912491213e+00 4.8529979853850049e+00 1.2017951476185349e+01 
360 1 2 1.1605682584842913e+00 3.8933230849282495e+02 1.0000000000000000e+00 1.1333154209734079e+01 6.2814024321660291e+00 1.2157974408572661e+01 
104 1 2 1.1605682584842913e+00 8.3700306062188304e+01 1.0000000000000000e+00 8.7912639645062356e+00 7.6505714556038376e+00 1.2309308103831231e+01 
222 1 2 1.1605682584842913e+00 -1.7578990093325513e+02 1.0000000000000000e+00 1.2004316067769011e+01 9.2412349610306244e+00 1.1479821952953106e+01 
127 1 2 1.1605682584842913e+00 2.7833408552118676e+01 1.0000000000000000e+00 1.2508414101786807e+01 5.3255535073709026e-01 1.2922538342728965e+01 
29 1 2 1.1605682584842913e+00 5.1646960062030487e+01 1.0000000000000000e+00 1.3037864462576566e+01 4.4336016381473708e+00 1.3271297704484537e+01 
53 1 2 1.1605682584842913e+00 -5.9331691739148391e+02 1.0000000000000000e+00 1.0163114133222376e+01 7.0563403806947420e+00 1.4045862216207967e+01 
278 1 2 1.1605682584842913e+00 7.2302419047558351e+02 1.0000000000000000e+00 7.2257966509148339e+00 7.5349551682579916e+00 1.3841444259134741e+01 
130 1 2 1.1605682584842913e+00 6.6041628457167690e+01 1.0000000000000000e+00 1.2580521298168010e+01 7.2686509826582490e+00 1.3504143921563086e+01 
40 1 2 1.1605682584842913e+00 1.0834104645183885e+02 1.0000000000000000e+00 7.5493672127554952e+00 9.6080125422393046e+00 1.3706574279606015e+01 
136 1 2 1.1605682584842913e+00 3.2199113333792286e+02 1.0000000000000000e+00 1.3190679688864753e+01 2.2338540121309847e+00 1.5272026714637484e+01 
9 1 2 1.1605682584842913e+00 -1.3317188817722243e+02 1.0000000000000000e+00 1.0932019503643922e+01 2.8889991311973233e+00 1.4342382898506660e+01 
369 1 2 1.1605682584842913e+00 6.4615789829183655e+02 1.0000000000000000e+00 1.1291959987083066e+01 5.1902522898268639e+00 1.4293772737245037e+01 
2 1 2 1.1605682584842913e+00 2.1001100571400730e+02 1.0000000000000000e+00 9.5395570074618199e+00 5.7747958525121383e+00 1.5474957596325716e+01 
186 1 2 1.1605682584842913e+00 7.6075106559457674e+02 1.0000000000000000e+00 8.4598632618333198e+00 1.6432717592740838e+00 1.5756006421902248e+01 
281 1 2 1.1605682584842913e+00 2.0645191399441323e+03 1.0000000000000000e+00 1.3228991850041552e+01 3.9376190691636737e+00 1.6328342754925742e+01 
75 1 2 1.1605682584842913e+00 -2.5773946665017738e+03 1.0000000000000000e+00 8.0058761686382223e+00 4.8914272769698792e+00 1.6806318497058982e+01 
254 1 2 1.1605682585111696e+00 4.3684372378849964e+01 1.0000000000000000e+00 1.1666992536337974e+01 8.3565899344054948e+00 1.5852839945780849e+01 
35 1 2 1.1605682584842913e+00 1.1830699985994467e+02 1.0000000000000000e+00 8.3055139489669774e+00 8.9835651047830947e+00 1.6825684714090549e+01 
214 1 2 1.1605682584842913e+00 3.1397995014192497e+02 1.0000000000000000e+00 1.1785171163173041e+01 1.4791666724921322e+00 1.8082550698460974e+01 
368 1 2 1.1605682584842913e+00 3.4060195152430060e+02 1.0000000000000000e+00 1.2488291970120303e+01 5.1758862230056808e+00 1.8339205151195880e+01 
157 1 2 1.1605682585111696e+00 8.4738385476158226e+02 1.0000000000000000e+00 1.2142862672949052e+01 7.1965788930006473e+00 1.7407931467759770e+01 
300 1 2 1.1605682584842913e+00 1.9943513129300322e+03 1.0000000000000000e+00 1.0525700708901587e+01 8.7384714493001496e+00 1.8051337250629089e+01 
184 1 2 1.1605682584842913e+00 -6.0802638948845629e+02 1.0000000000000000e+00 6.9233598789759911e+00 5.3064154733721747e+00 1.8764526384231587e+01 
312 1 2 1.1605682584842913e+00 2.2664564658657268e+03 1.0000000000000000e+00 6.6704624244314443e+00 7.6701984452341678e+00 1.8812895505900158e+01 
235 1 2 1.1605682584842913e+00 -3.2912264377082192e+03 1.0000000000000000e+00 9.5854526103450794e+00 1.2107038905754059e+01 1.1680409001710255e+00 
315 1 2 1.1605682584842913e+00 -7.3511667487038210e+01 1.0000000000000000e+00 7.6772667493138185e+00 1.3867393190182977e+01 1.6567116227781029e-01 
240 1 2 1.1605682584842913e+00 3.4769975996889222e+01 1.0000000000000000e+00 1.0818028118798990e+01 1.6770746136416033e+01 5.7235955217630419e-01 
144 1 2 1.1605682584842913e+00 8.7354563753136608e+02 1.0000000000000000e+00 1.2143813091484114e+01 1.2027962735950574e+01 1.5427965741738385e+00 
126 1 2 1.1605682584842913e+00 2.5069803739446883e+02 1.0000000000000000e+00 9.4557390614224079e+00 1.4048546028170131e+01 1.7348629699599734e+00 
260 1 2 1.1605682613496655e+00 9.7135996482179223e+01 1.0000000000000000e+00 1.1952507983646056e+01 1.8120324188071471e+01 2.4528741045308875e+00 
26 1 2 1.1605682584842913e+00 5.4931806053752712e+02 1.0000000000000000e+00 7.5168590752506086e+00 1.8989737942436612e+01 2.0665915805692565e+00 
41 1 2 1.1605682584842913e+00 7.4548858316012129e+01 1.0000000000000000e+00 1.2503621422176664e+01 1.0759048774621800e+01 3.3964444394075763e+00 
384 1 2 1.1605682584842913e+00 4.7113349201851736e+02 1.0000000000000000e+00 7.8517595911889462e+00 1.1573491686142980e+01 3.4193442797438243e+00 
105 1 2 1.1605682584842913e+00 1.9209830161314503e+02 1.0000000000000000e+00 9.8747839190398388e+00 1.2288021368178962e+01 3.3551639318077315e+00 
311 1 2 1.1605682584842913e+00 5.7703899398944395e+02 1.0000000000000000e+00 9.3083892952426677e+00 1.6402270287021963e+01 3.3638848611339913e+00 
89 1 2 1.1605682613496655e+00 1.0878548730505743e+02 1.0000000000000000e+00 1.2197829974746185e+01 1.9806345916138739e+01 3.4866351381231162e+00 
243 1 2 1.1605682584842913e+00 -9.8177443425885713e+01 1.0000000000000000e+00 8.6209219117271569e+00 1.2516854902951566e+01 5.6190563200850221e+00 
284 1 2 1.1605682584842913e+00 -4.7070672049209525e+03 1.0000000000000000e+00 1.3153628502951706e+01 1.2057499049859652e+01 5.6674822641372451e+00 
1 1 2 1.1605682584842913e+00 -1.0296351714203857e+02 1.0000000000000000e+00 7.4950866042141584e+00 1.4616710020091823e+01 5.3854534481856140e+00 
7 1 2 1.1605682584842913e+00 -5.3049678690115411e+02 1.0000000000000000e+00 1.0087664610471178e+01 1.4287170546373753e+01 5.6245565513695084e+00 
219 1 2 1.1605682584842913e+00 5.6510724641779655e+02 1.0000000000000000e+00 7.4738612108312292e+00 1.6467274167620342e+01 4.6120375619631657e+00 