LAMMPS data file via write_data, version 30 Jul 2016, timestep = 50000000

644 atoms
2 atom types

0.0000000000000000e+00 2.0000000000000000e+01 xlo xhi
0.0000000000000000e+00 2.0000000000000000e+01 ylo yhi
0.0000000000000000e+00 2.0000000000000000e+01 zlo zhi

Masses

1 4.31
2 3.896

Atoms # meso-molecular

188 0 1 1.0280000000002905e+00 -2.1348138504489453e+00 1.0000000000000000e+00 2.3546420809198638e+00 3.2040901614424668e+00 2.6062052727231666e-01 
239 0 1 1.0280000000002407e+00 1.6652527593607211e+00 1.0000000000000000e+00 2.2204125597582816e+00 2.9392818451799618e+00 7.6423084695573773e-01 
320 0 1 1.0279999999996061e+00 2.1291421358899527e+01 1.0000000000000000e+00 2.0759778022278432e+00 5.7926968737919460e-01 9.6332815670310268e-02 
309 0 1 1.0280000000002745e+00 3.9268736708350067e+00 1.0000000000000000e+00 1.9575298863696058e+00 1.3289269722828567e+00 1.3313719219284059e+00 
396 0 1 1.0280000000004028e+00 2.2593993157621611e+01 1.0000000000000000e+00 1.7616422266222489e+00 8.9434555520567249e-01 2.0946587889622341e+00 
441 0 1 1.0279999999995626e+00 1.0414642443895794e+01 1.0000000000000000e+00 3.2540689975681865e+00 2.0818448957860576e+00 2.7323607674250430e+00 
255 0 1 1.0279999999998242e+00 2.1110941229026995e+01 1.0000000000000000e+00 1.5991201330095777e+00 2.7653700077524990e+00 2.7576506339470082e+00 
466 0 1 1.0280000000000025e+00 1.7497534280990905e+01 1.0000000000000000e+00 2.6730101507990232e+00 2.0983786193491943e-01 2.8683759421214012e+00 
342 0 1 1.0279999999995093e+00 5.2851972096106294e+00 1.0000000000000000e+00 4.7272809833946718e+00 1.8158979228004919e+00 4.7512112472358536e-01 
265 0 1 1.0280000000001581e+00 4.3322298730355691e+00 1.0000000000000000e+00 5.1149343076544902e+00 1.8062132569353051e+00 8.4726490771014573e-01 
257 0 1 1.0279999999998444e+00 6.8629176834094778e+00 1.0000000000000000e+00 6.2819778754310285e+00 2.1949907912969744e+00 2.2785625297059126e-01 
334 0 1 1.0279999999996032e+00 7.0643845021261633e+00 1.0000000000000000e+00 6.4995393356266415e+00 1.9893323497208093e+00 2.5762278351610940e-01 
332 0 1 1.0280000000007401e+00 2.2051506331985774e+01 1.0000000000000000e+00 6.6574778641516890e+00 1.9290270531475520e+00 1.5759493899606165e+00 
331 0 1 1.0280000000002223e+00 1.9172433223454270e+01 1.0000000000000000e+00 5.4493061857595118e+00 1.7916490088136052e+00 2.9829207103997448e+00 
101 0 1 1.0280000000000857e+00 -7.9826384186142940e-01 1.0000000000000000e+00 3.0606294863743297e+00 5.9031251051354054e+00 1.8118387672663616e-01 
240 0 1 1.0280000000003910e+00 9.8619971707823932e+00 1.0000000000000000e+00 3.1190369794034551e+00 3.3338780010061693e+00 6.1000546009784407e-01 
279 0 1 1.0279999999998657e+00 1.4812598798117776e+01 1.0000000000000000e+00 2.0647752588378525e+00 4.8896495190304838e+00 1.5638976769194384e+00 
15 0 1 1.0279999999999025e+00 -2.6248624337139638e+01 1.0000000000000000e+00 2.5767108432524335e+00 5.0765656885869666e+00 1.7012979075433492e+00 
355 0 1 1.0279999999995386e+00 2.2551558250176942e+01 1.0000000000000000e+00 1.3014176959027173e+00 3.8942204394298177e+00 1.7852297967582524e+00 
2 0 1 1.0280000000002221e+00 -8.6990771730877583e+00 1.0000000000000000e+00 7.8693088623742735e-01 4.9340915675691068e+00 1.1712960481487877e-01 
439 0 1 1.0280000000002647e+00 2.8674507396330579e+01 1.0000000000000000e+00 2.7860877317190864e+00 4.6552398561709616e+00 2.7103972674754306e+00 
93 0 1 1.0280000000004677e+00 -1.6392429393586534e+00 1.0000000000000000e+00 4.2353092761720385e-01 4.7539520670583313e+00 3.1891484865292347e-01 
178 0 1 1.0280000000000202e+00 9.2839448423503494e+00 1.0000000000000000e+00 3.5220606752424275e+00 6.1664448518387092e+00 4.5775583896492922e-01 
126 0 1 1.0280000000001404e+00 -1.2269451842713952e+01 1.0000000000000000e+00 4.0398655509211752e+00 5.1177318823933406e+00 2.0209092143558096e+00 
363 0 1 1.0279999999995899e+00 9.4539194888452265e+00 1.0000000000000000e+00 4.2549163799827250e+00 4.4651175059531880e+00 1.3840416052812063e+00 
164 0 1 1.0279999999998162e+00 1.2242128322985820e+01 1.0000000000000000e+00 5.5113709676066538e+00 5.3461861326258573e+00 4.3392525593404030e-01 
40 0 1 1.0279999999999607e+00 -1.6901090858297263e+00 1.0000000000000000e+00 6.5131944760795157e+00 6.1576193645746073e+00 2.0094056552165309e+00 
362 0 1 1.0280000000001233e+00 1.5898348368102909e+01 1.0000000000000000e+00 5.1880842918600001e+00 5.5586413130458414e+00 2.1660946391119169e+00 
278 0 1 1.0280000000000278e+00 2.2102632440210240e+01 1.0000000000000000e+00 5.8803994794343843e+00 5.8536996867368973e+00 2.2613965981434050e+00 
345 0 1 1.0280000000002107e+00 1.7446905715534257e+01 1.0000000000000000e+00 5.6135027673488889e+00 4.1835199578528783e+00 3.0017663468664448e+00 
23 0 1 1.0279999999999854e+00 -6.4152436519531397e+00 1.0000000000000000e+00 6.4046195845149398e+00 6.6557710347996784e+00 7.3543047524865290e-01 
194 0 1 1.0279999999998204e+00 1.3171682883305008e+01 1.0000000000000000e+00 5.0095266905148446e+00 6.7035074675210682e+00 5.5640024235510976e-01 
192 0 1 1.0280000000000316e+00 9.6789165821972283e+00 1.0000000000000000e+00 6.4113991999130944e+00 6.6717867583211365e+00 1.0085637935079237e+00 
350 0 1 1.0280000000003247e+00 -2.8558213308134599e+00 1.0000000000000000e+00 1.8226253049301262e+00 9.5068772417553682e-01 4.0148141019019121e+00 
260 0 1 1.0279999999999678e+00 3.8381450587676963e-03 1.0000000000000000e+00 1.6616964561184995e+00 2.7919507078955026e+00 3.7117893290211312e+00 
479 0 1 1.0280000000001042e+00 1.8814573896868971e+01 1.0000000000000000e+00 1.2619511185366072e+00 1.0363769149603148e-01 5.4640053838692904e+00 
401 0 1 1.0280000000000333e+00 2.0663795430396046e+01 1.0000000000000000e+00 7.4179578145533731e-01 1.6685934343964408e+00 5.1127915843290799e+00 
352 0 1 1.0279999999999097e+00 1.5716084418489270e+01 1.0000000000000000e+00 2.9414545293013856e+00 1.6974668982916965e+00 6.0737416331430030e+00 
29 0 1 1.0280000000000424e+00 -1.1161145686535844e+01 1.0000000000000000e+00 4.7501534826209812e-01 1.6351507724859551e+00 5.2556585829466798e+00 
430 0 1 1.0279999999999383e+00 3.5093901746873726e+01 1.0000000000000000e+00 9.4549317168598623e-01 1.8211755695955321e+00 6.1321978841908837e+00 
200 0 1 1.0279999999998812e+00 1.4794662043580130e+01 1.0000000000000000e+00 2.5835494768282858e+00 1.8797983454843707e+00 6.3703564595190585e+00 
505 0 1 1.0280000000002993e+00 1.6092375240124539e+01 1.0000000000000000e+00 1.6960024908021729e-01 4.4816878249234682e-01 6.3226151367258971e+00 
415 0 1 1.0280000000003717e+00 2.0424284360336465e+01 1.0000000000000000e+00 3.1516812397599741e+00 1.8444967141203902e-01 6.5312264362243688e+00 
584 0 1 1.0280000000003540e+00 1.1139497365622356e+01 1.0000000000000000e+00 3.0621373955614035e+00 1.2291945345269835e-01 6.5900313911084663e+00 
351 0 1 1.0280000000006959e+00 3.3024193733250216e+00 1.0000000000000000e+00 3.6856624932498110e+00 1.1948152292755387e+00 5.8103917573972410e+00 
517 0 1 1.0279999999999632e+00 8.4929971764990242e+00 1.0000000000000000e+00 4.1490441782217449e+00 1.9293598331998096e+00 3.4275944640316562e+00 
317 0 1 1.0279999999995026e+00 1.1264430772448312e+01 1.0000000000000000e+00 4.4070048351904410e+00 1.7075951280935133e+00 3.9600626912988517e+00 
316 0 1 1.0280000000000324e+00 -1.0723941274385118e+00 1.0000000000000000e+00 4.7776938248301173e+00 1.7181596583480476e+00 3.7933590999861782e+00 
524 0 1 1.0279999999998271e+00 1.3917045932787472e+01 1.0000000000000000e+00 5.9993281300890624e+00 3.1911735792413252e+00 4.0613348305345038e+00 
416 0 1 1.0279999999999145e+00 2.3958212743656361e+01 1.0000000000000000e+00 6.0738118610781395e+00 9.7420178791931977e-01 4.6109593276504865e+00 
592 0 1 1.0280000000003351e+00 4.8512388416790717e+00 1.0000000000000000e+00 5.6368428813027407e+00 7.7578556320668723e-01 4.7635639238112066e+00 
423 0 1 1.0279999999999723e+00 2.6171088484853364e+01 1.0000000000000000e+00 6.2541555264915214e+00 3.7715907841189039e-01 6.1388542193616473e+00 
522 0 1 1.0280000000005725e+00 1.1272600956437266e+01 1.0000000000000000e+00 5.2003638758579216e+00 1.0098287881519650e+00 6.3000918053682380e+00 
269 0 1 1.0280000000003509e+00 3.4050585810131146e+01 1.0000000000000000e+00 2.9617832703922029e+00 4.1127087855534752e+00 3.7177808571559998e+00 
354 0 1 1.0279999999998632e+00 3.6689875891352031e+01 1.0000000000000000e+00 2.5187792286397044e+00 3.9455663516411090e+00 3.8606960314546428e+00 
353 0 1 1.0279999999999063e+00 2.5046088221712488e+01 1.0000000000000000e+00 1.9810422477320537e+00 3.4433652328432736e+00 3.9346427178563976e+00 
262 0 1 1.0280000000002765e+00 2.5771417798690358e+01 1.0000000000000000e+00 2.4900907462692694e+00 3.3348974190262308e+00 4.3205779967911209e+00 
346 0 1 1.0280000000002882e+00 3.1077743667670081e+01 1.0000000000000000e+00 3.5097418319935896e+00 3.5971978846294346e+00 3.9789963957685592e+00 
339 0 1 1.0279999999992435e+00 1.9811962311420302e+01 1.0000000000000000e+00 5.5250827884677944e+00 3.6258585357350501e+00 3.4791580592363669e+00 
254 0 1 1.0280000000004355e+00 1.3357051552469517e+01 1.0000000000000000e+00 6.2052131818589524e+00 4.3931424851617402e+00 3.7269416557572295e+00 
199 0 1 1.0279999999998057e+00 1.4339521732178534e+01 1.0000000000000000e+00 2.6874643546491201e+00 5.3939166896154322e-01 8.5702558144875987e+00 
120 0 1 1.0279999999999325e+00 -2.9929835764601453e-01 1.0000000000000000e+00 1.9543789857527685e+00 1.8837697503737916e+00 7.2154537963650327e+00 
609 0 1 1.0280000000001510e+00 -1.8089900956113489e+01 1.0000000000000000e+00 1.7131231434636693e+00 4.4286644000261832e-01 7.6366455847169821e+00 
370 0 1 1.0279999999993721e+00 1.2324900634859294e+01 1.0000000000000000e+00 3.0335803724224206e+00 2.8615275062730836e+00 8.0727852739737624e+00 
197 0 1 1.0279999999999856e+00 8.3352420047006799e+00 1.0000000000000000e+00 1.1882074827956490e+00 1.0688566064431055e+00 7.2148385888989903e+00 
132 0 1 1.0280000000000453e+00 6.0179010127018442e+00 1.0000000000000000e+00 2.4819224810238660e+00 3.0884892420407888e+00 9.0324848279602197e+00 
54 0 1 1.0280000000000771e+00 5.5623954872006454e-01 1.0000000000000000e+00 2.3987531874558097e+00 2.9928853131300821e+00 9.1689272569689972e+00 
124 0 1 1.0280000000004073e+00 2.7386112010038515e+00 1.0000000000000000e+00 1.3999116995750980e+00 1.0818688404990104e+00 9.5718336062370568e+00 
291 0 1 1.0280000000001259e+00 1.5962880463273553e+01 1.0000000000000000e+00 2.5558992269103382e+00 2.8415053760494122e+00 9.7097035928169131e+00 
37 0 1 1.0279999999997667e+00 1.1798595606921360e+00 1.0000000000000000e+00 5.4800692729780360e+00 1.4915834776630461e+00 6.8864866176021060e+00 
36 0 1 1.0279999999996667e+00 -6.5914370681945957e+00 1.0000000000000000e+00 5.5218171384654777e+00 1.3201507259352483e+00 6.8078114533076093e+00 
77 0 1 1.0280000000002465e+00 6.3483307786349776e+00 1.0000000000000000e+00 6.6291474670425057e+00 3.2008875976192308e+00 6.8155304096667688e+00 
531 0 1 1.0279999999993021e+00 5.0664435517349036e+00 1.0000000000000000e+00 5.9728172248092593e+00 1.2149211940348517e+00 8.7903048241746724e+00 
57 0 1 1.0280000000002032e+00 -2.4289113587486504e+01 1.0000000000000000e+00 6.5452546952483122e+00 2.2028630703175311e+00 9.1838653238714389e+00 
134 0 1 1.0280000000001983e+00 2.7914859380023493e+00 1.0000000000000000e+00 6.2865109714773739e+00 2.3232286725470321e+00 9.2144010942011718e+00 
526 0 1 1.0279999999994607e+00 -1.7532722656340788e+01 1.0000000000000000e+00 5.1286508088295468e+00 3.2846103837929812e+00 9.3998332811624206e+00 
214 0 1 1.0279999999998062e+00 2.0825355133307902e+01 1.0000000000000000e+00 6.0595238612534645e+00 3.3105058069630826e+00 6.7999901089817349e+00 
603 0 1 1.0280000000001797e+00 -1.3361387924552819e+01 1.0000000000000000e+00 3.5689085961046696e+00 2.7522174431341617e+00 9.8738635200340319e+00 
604 0 1 1.0280000000007969e+00 -5.8944633896414178e+00 1.0000000000000000e+00 3.8025558813374927e+00 2.3101234414305774e+00 9.8811679708121360e+00 
605 0 1 1.0279999999999501e+00 1.5486553744817710e+00 1.0000000000000000e+00 5.9229999044362263e+00 4.1110477794429112e+00 8.1489679765525729e+00 
137 0 1 1.0280000000000538e+00 7.9352440051803521e+00 1.0000000000000000e+00 4.5947615774778470e+00 4.1434251326021752e+00 7.8853042810165839e+00 
154 0 1 1.0279999999998335e+00 -1.4212163828692049e+01 1.0000000000000000e+00 3.9228087100860929e+00 3.9223628327694140e+00 9.1226066945999840e+00 
65 0 1 1.0280000000003020e+00 7.1086753012727257e+00 1.0000000000000000e+00 5.0385161127274403e+00 4.2560307653727474e+00 7.8266698288589129e+00 
60 0 1 1.0280000000001046e+00 2.6974454289548118e+00 1.0000000000000000e+00 5.2757685279086015e+00 4.3142522166925659e+00 7.9448716752541575e+00 
153 0 1 1.0279999999998364e+00 7.0194698912289129e+00 1.0000000000000000e+00 3.6353066295033147e+00 3.8085603083696626e+00 8.2953266933090681e+00 
606 0 1 1.0279999999999949e+00 -1.0124371899091373e+00 1.0000000000000000e+00 5.9693450224492652e+00 4.0955613908305146e+00 8.0305261088942714e+00 
598 0 1 1.0279999999990950e+00 -6.0458335228212423e+00 1.0000000000000000e+00 2.9343905910434587e+00 5.2694749231818175e-02 1.0079949506755117e+01 
521 0 1 1.0279999999990930e+00 -2.0116876854973365e+00 1.0000000000000000e+00 2.9097336039315462e+00 6.1079730659801407e-02 1.0110884840649080e+01 
372 0 1 1.0280000000003691e+00 1.0977342144851477e+01 1.0000000000000000e+00 2.0356250595156689e+00 1.9110899733613951e+00 1.0037325218342920e+01 
445 0 1 1.0280000000002867e+00 8.0904623543686593e+00 1.0000000000000000e+00 1.1603804440746761e+00 7.9798736935974979e-01 1.0594021765230714e+01 
209 0 1 1.0280000000002940e+00 4.1333512678655051e+00 1.0000000000000000e+00 1.1494328440388493e+00 8.7937723358326514e-01 1.0119139913651084e+01 
369 0 1 1.0280000000000420e+00 1.3721213815273501e+01 1.0000000000000000e+00 3.2925430217565615e-01 6.8792900247054423e-01 1.0890350020745597e+01 
520 0 1 1.0279999999986855e+00 -5.5832451982780551e+00 1.0000000000000000e+00 7.2821269593665028e-02 3.7295018970307819e-02 1.1883355913639578e+01 
211 0 1 1.0279999999994334e+00 -1.2310136905581741e+00 1.0000000000000000e+00 4.4041067904145841e+00 3.2738747797977535e-01 1.0232329978706041e+01 
141 0 1 1.0280000000000542e+00 -1.5256003335941793e+01 1.0000000000000000e+00 4.8396706167962016e+00 7.7245813868100754e-01 1.0728643307372595e+01 
135 0 1 1.0280000000002196e+00 -4.1107077186387979e+00 1.0000000000000000e+00 6.0754486692340386e+00 1.1429900680483172e+00 1.0896098894182613e+01 
142 0 1 1.0280000000000546e+00 -2.5217441615898366e+00 1.0000000000000000e+00 5.2694492275021254e+00 8.0217181554660000e-01 1.1119077700368441e+01 
64 0 1 1.0279999999998197e+00 -9.9585411671932853e+00 1.0000000000000000e+00 6.6331782684199059e+00 2.8364098529690374e-01 1.1539417170278616e+01 
216 0 1 1.0280000000002834e+00 -6.3471554355810889e-01 1.0000000000000000e+00 3.5802776201577802e-01 2.1406505706933004e-01 1.4358561546804804e+01 
140 0 1 1.0279999999995524e+00 -1.8918390864177162e+01 1.0000000000000000e+00 2.0902950859471461e+00 1.7082665953181762e+00 1.5273013370197162e+01 
145 0 1 1.0280000000001528e+00 -4.6479450150246399e-01 1.0000000000000000e+00 1.1014384858784874e+00 3.0779216671474634e+00 1.4762756137501599e+01 
67 0 1 1.0280000000000489e+00 -9.7790309630437875e+00 1.0000000000000000e+00 1.0219980677908118e+00 3.2239263592026273e+00 1.4788581337794847e+01 
139 0 1 1.0279999999999612e+00 3.7244332493162924e+00 1.0000000000000000e+00 9.4552024721142436e-01 1.1391192144496818e+00 1.4251187201736739e+01 
454 0 1 1.0280000000000327e+00 -1.1166976505315045e+00 1.0000000000000000e+00 2.1836076683936558e+00 3.7520246827426668e-01 1.5719852672827040e+01 
222 0 1 1.0280000000003642e+00 8.0715117479699305e+00 1.0000000000000000e+00 5.4286378984359085e-01 2.7298146992344807e+00 1.4758326376447227e+01 
223 0 1 1.0279999999999097e+00 -9.5055489269627180e-01 1.0000000000000000e+00 2.8445441630541168e+00 2.5819455712244985e+00 1.6102061037987564e+01 
294 0 1 1.0280000000002802e+00 -7.5015282506444980e-01 1.0000000000000000e+00 3.3481137139714040e-01 3.9587211162109351e-02 1.4525635087989288e+01 
217 0 1 1.0280000000000877e+00 -1.4564451777844294e+01 1.0000000000000000e+00 2.2497999517754647e-01 2.8656034016291632e-01 1.4372588865334130e+01 
377 0 1 1.0279999999998635e+00 -4.6937318497199705e+00 1.0000000000000000e+00 2.6999052542331552e+00 6.9538652615294494e-01 1.6573510673232505e+01 
62 0 1 1.0279999999996206e+00 3.6404896115874390e+00 1.0000000000000000e+00 7.0200551484376678e-02 1.1697651723857472e+00 1.4407584120257500e+01 
63 0 1 1.0279999999998963e+00 -1.5401844976017948e+01 1.0000000000000000e+00 3.8568574401860354e+00 2.7210842526801935e+00 1.6019043895472073e+01 
146 0 1 1.0279999999998344e+00 -2.4168763416838908e+00 1.0000000000000000e+00 4.7260682935955609e+00 2.8337107411620703e+00 1.5704835833909138e+01 
152 0 1 1.0279999999998481e+00 -7.4857655024021119e-01 1.0000000000000000e+00 6.0240360292426018e+00 2.5089687559901725e+00 1.5769020766416467e+01 
68 0 1 1.0279999999999117e+00 -6.8211822859960796e+00 1.0000000000000000e+00 4.4541579017434749e+00 3.0956864043984100e+00 1.5858526601831960e+01 
151 0 1 1.0279999999994724e+00 -5.0480313324319779e+00 1.0000000000000000e+00 1.4786309118809096e+00 3.9645076371697408e+00 1.5149811485878535e+01 
74 0 1 1.0279999999999834e+00 -1.2103814144905613e+01 1.0000000000000000e+00 5.7814873640083420e-01 4.2979607257208547e+00 1.5625616796295590e+01 
150 0 1 1.0279999999998199e+00 -4.1092270731917884e+00 1.0000000000000000e+00 4.8586749237062460e-01 3.6733828523215575e+00 1.5128597998868566e+01 
158 0 1 1.0280000000001059e+00 -9.0861930890679012e+00 1.0000000000000000e+00 4.0816052889419940e-01 4.5773306174060062e+00 1.6325916331032790e+01 
4 0 1 1.0280000000000897e+00 -1.4606310955258465e+01 1.0000000000000000e+00 1.5484228601421104e+00 4.8083297328094670e+00 1.6374861713783645e+01 
88 0 1 1.0280000000000276e+00 -1.1043458059308140e+01 1.0000000000000000e+00 2.2871946812985207e+00 4.4635859701527139e+00 1.6535682422093544e+01 
75 0 1 1.0280000000000840e+00 -6.8046014255066414e+00 1.0000000000000000e+00 5.4413801566488571e+00 3.3722546365218524e+00 1.5687613896729760e+01 
81 0 1 1.0280000000000598e+00 -1.0766704328882017e+01 1.0000000000000000e+00 6.1083133585563454e+00 3.6503183972160218e+00 1.5859428622541856e+01 
455 0 1 1.0280000000002270e+00 -2.6381132171641202e+00 1.0000000000000000e+00 1.4242338340386445e+00 1.3533755961654813e-02 1.7271263217066718e+01 
378 0 1 1.0279999999996625e+00 -1.8953244194493934e+01 1.0000000000000000e+00 2.7372753338219149e+00 5.9563843269273176e-01 1.6819432343524191e+01 
299 0 1 1.0280000000002774e+00 3.9017105674597765e+00 1.0000000000000000e+00 1.0574183034428595e+00 1.5271645697567398e+00 1.7063310129199014e+01 
298 0 1 1.0280000000002871e+00 8.4258246780605237e+00 1.0000000000000000e+00 5.8022944425946732e-01 1.4637813680677441e+00 1.7136314882666916e+01 
384 0 1 1.0279999999995308e+00 4.2243254840713318e+00 1.0000000000000000e+00 4.2704930469580832e-01 7.9258636044708908e-01 1.8717205406055804e+01 
307 0 1 1.0280000000001328e+00 9.0644770684484008e+00 1.0000000000000000e+00 2.2599825542555148e+00 5.7879887254131357e-01 1.9679125796854347e+01 
333 0 1 1.0279999999997098e+00 1.8180048795623645e+01 1.0000000000000000e+00 2.6691450672691341e+00 1.5047970832516231e+00 1.9813406464725084e+01 
256 0 1 1.0280000000001808e+00 2.0262461793454847e+01 1.0000000000000000e+00 2.2821923089562222e+00 9.7429163225389903e-01 1.9945508679287009e+01 
301 0 1 1.0279999999999001e+00 -1.6534065246356445e+01 1.0000000000000000e+00 3.6089150606271625e+00 9.5277818516918755e-01 1.7843462525049134e+01 
300 0 1 1.0279999999999980e+00 -1.7874661807018488e+00 1.0000000000000000e+00 3.6513466399902543e+00 9.4284083118051498e-01 1.7834438403782222e+01 
242 0 1 1.0280000000002081e+00 1.6703564903743249e+01 1.0000000000000000e+00 4.3895613599787966e+00 3.2569753466308002e+00 1.7216393657671052e+01 
236 0 1 1.0279999999996565e+00 1.4636948442702629e+01 1.0000000000000000e+00 4.7233315643983875e+00 1.6339521502759917e+00 1.8247596137308875e+01 
224 0 1 1.0279999999999976e+00 -1.6115802745766925e+00 1.0000000000000000e+00 5.3068764537242199e+00 1.6401217261499459e+00 1.6714698100830766e+01 
229 0 1 1.0280000000004188e+00 6.5908264323506520e+00 1.0000000000000000e+00 5.4212669088716332e+00 1.5260767287936863e+00 1.7163656080790659e+01 
327 0 1 1.0280000000001124e+00 1.7792216159873725e+01 1.0000000000000000e+00 4.3446213510100939e+00 2.2272859712109199e+00 1.9460337157239305e+01 
341 0 1 1.0280000000004716e+00 9.9452616715511404e+00 1.0000000000000000e+00 5.0461860658800539e+00 2.2814370450387238e+00 1.9750563076668080e+01 
250 0 1 1.0280000000001255e+00 1.5343245394674712e+01 1.0000000000000000e+00 5.7961003001653904e+00 1.8195007875320985e+00 1.9756993400496118e+01 
179 0 1 1.0280000000002325e+00 9.0714778790937025e+00 1.0000000000000000e+00 2.3527425261210659e+00 4.4851992539415395e+00 1.6892485130695690e+01 
186 0 1 1.0280000000000247e+00 8.3550152609736337e+00 1.0000000000000000e+00 2.3058077261546406e+00 4.0945894817014263e+00 1.7854571203808568e+01 
195 0 1 1.0280000000000209e+00 2.9562633698841911e+00 1.0000000000000000e+00 2.3440702253506496e+00 4.1591703878548936e+00 1.7861273607619914e+01 
196 0 1 1.0279999999998946e+00 2.0122648895561027e-01 1.0000000000000000e+00 2.4600803349664000e+00 4.7905973494863590e+00 1.8536205937758531e+01 
34 0 1 1.0279999999991156e+00 -8.1297583338146211e+00 1.0000000000000000e+00 9.4810352252197683e-01 5.0660665142554633e+00 1.8480669986327307e+01 
1 0 1 1.0280000000000562e+00 -2.7303979566941383e+01 1.0000000000000000e+00 3.0113035877489134e+00 4.1858925575506767e+00 1.9279242555352152e+01 
189 0 1 1.0279999999998406e+00 -1.3872750807005350e+01 1.0000000000000000e+00 1.3659209267258743e+00 5.1717755084676451e+00 1.9679293374985292e+01 
24 0 1 1.0280000000003042e+00 -7.7262497478583656e+00 1.0000000000000000e+00 4.6419374468932002e+00 5.7886358502369939e+00 1.9822479606566162e+01 
17 0 1 1.0280000000002893e+00 -7.9547991624223116e+00 1.0000000000000000e+00 3.9598110690259656e+00 5.9727586774589945e+00 1.9811328320772397e+01 
26 0 1 1.0280000000000324e+00 -9.7444470869157236e+00 1.0000000000000000e+00 6.4450204734277543e+00 4.0001793552163027e+00 1.7308892253545544e+01 
103 0 1 1.0280000000000595e+00 -6.7483476417234591e+00 1.0000000000000000e+00 6.0052711009054951e+00 3.8089393580203330e+00 1.7307742341440857e+01 
185 0 1 1.0279999999999847e+00 1.2620569341382822e+01 1.0000000000000000e+00 4.2282253771792178e+00 6.1621909220646982e+00 1.9907921355026996e+01 
69 0 1 1.0279999999995513e+00 -3.8197777013145302e+00 1.0000000000000000e+00 2.8588465474883551e-01 1.5785763001476273e+01 3.1975500490094549e-01 
636 0 1 1.0279999999997409e+00 -1.4245148249559190e+01 1.0000000000000000e+00 5.9000934847511100e-01 1.7526562269580587e+01 2.0447458916197663e+00 
313 0 1 1.0279999999987635e+00 1.4034797526462395e+01 1.0000000000000000e+00 1.1291324659232549e+00 1.9491273185830210e+01 1.2266638531885521e-01 
398 0 1 1.0279999999994747e+00 5.7707419709356405e+00 1.0000000000000000e+00 8.7710116551096529e-01 1.7802704222888995e+01 1.5720569494398500e+00 
329 0 1 1.0280000000000962e+00 -1.2388926291799720e+00 1.0000000000000000e+00 8.2169016392419270e-01 1.8284916599030197e+01 2.3083229577330524e+00 
386 0 1 1.0280000000000866e+00 2.4131523825457282e+00 1.0000000000000000e+00 2.5458564996877819e+00 1.9674166312965333e+01 2.4063465968467703e+00 
462 0 1 1.0280000000016845e+00 -9.6967165786480685e+00 1.0000000000000000e+00 7.5201111435543389e-01 1.8565939570446321e+01 1.7822655417507130e-01 
387 0 1 1.0279999999990639e+00 1.0483276504266016e+01 1.0000000000000000e+00 1.2147610528630624e+00 1.9694714481982835e+01 2.5424764439614886e+00 
464 0 1 1.0279999999988561e+00 3.2680735886649779e+00 1.0000000000000000e+00 2.5059428062879729e+00 1.8636887548119404e+01 2.8170975109181096e+00 
392 0 1 1.0279999999997145e+00 -1.3783971163838805e+01 1.0000000000000000e+00 3.7776287584825519e+00 1.7547401131100710e+01 1.0527758657360278e+00 
391 0 1 1.0280000000008560e+00 1.3068856656104666e+00 1.0000000000000000e+00 3.9657887913227317e+00 1.7485607544367696e+01 7.8573788137029199e-01 
314 0 1 1.0279999999996039e+00 -2.2592255205273979e+00 1.0000000000000000e+00 4.4172890607634203e+00 1.7393141257350280e+01 1.0580263450181950e+00 
315 0 1 1.0279999999994496e+00 -1.7220791061626109e+01 1.0000000000000000e+00 4.4279392830243518e+00 1.7384403708715428e+01 1.1050994685401174e+00 
238 0 1 1.0280000000007783e+00 5.5044065279047183e-01 1.0000000000000000e+00 5.4260119285424819e+00 1.9070282221918841e+01 2.1800602038628891e-01 
630 0 1 1.0279999999999072e+00 -1.4056080772357280e+01 1.0000000000000000e+00 6.1816664650763320e+00 1.8651354793335216e+01 9.2262462647452437e-01 
405 0 1 1.0279999999979286e+00 1.0327106975158415e-01 1.0000000000000000e+00 5.1695729557196115e+00 1.9483319282871289e+01 1.7974244504329331e+00 
552 0 1 1.0280000000001637e+00 -6.1803177939704383e+00 1.0000000000000000e+00 4.8673617042224677e+00 1.7495943653021158e+01 2.1441963874311671e+00 
620 0 1 1.0280000000002723e+00 -5.0583121833195070e+00 1.0000000000000000e+00 6.6294762786906025e+00 1.9323188559877632e+01 2.3852512222765951e+00 
619 0 1 1.0279999999987337e+00 -3.0731423910686262e+00 1.0000000000000000e+00 5.3624387387932622e+00 1.9461044878616612e+01 2.4563421331011046e+00 
459 0 1 1.0280000000003777e+00 1.2834510811187531e+01 1.0000000000000000e+00 6.5991321501906830e+00 1.8880267372942122e+01 2.4363017468585424e+00 
553 0 1 1.0280000000009464e+00 -2.1088161263564956e+01 1.0000000000000000e+00 4.1989130399167545e+00 1.7622981606600838e+01 2.5458922042986707e+00 
476 0 1 1.0280000000003711e+00 -1.5579576128775491e+01 1.0000000000000000e+00 3.9782051223719224e+00 1.7760267622193858e+01 2.7439315113921401e+00 
543 0 1 1.0280000000008549e+00 7.1401553325945988e-01 1.0000000000000000e+00 5.3962201656568221e+00 1.9311651026304943e+01 2.7764736106724115e+00 
425 0 1 1.0280000000001295e+00 1.6067583274043329e+01 1.0000000000000000e+00 3.0693185233091178e+00 1.9448564261175353e+01 4.3492736278898150e+00 
542 0 1 1.0280000000002238e+00 2.5227662893016189e+00 1.0000000000000000e+00 1.8388796943461867e+00 1.9261755196893393e+01 3.4034999424364387e+00 
473 0 1 1.0280000000002656e+00 1.5542332893241669e+01 1.0000000000000000e+00 2.2696987255299077e+00 1.7518327660672856e+01 4.6756703572636198e+00 
550 0 1 1.0280000000004827e+00 1.7139136437607101e+00 1.0000000000000000e+00 2.6069419806290099e+00 1.7487980514997975e+01 4.7115153142214101e+00 
343 0 1 1.0279999999982385e+00 4.6396329923134614e+00 1.0000000000000000e+00 3.0193824740730233e+00 1.9506447059242809e+01 4.9776644240266084e+00 
495 0 1 1.0280000000001812e+00 -9.9432595637852184e-01 1.0000000000000000e+00 1.6072636466710792e+00 1.7135839042265697e+01 5.3462646259532987e+00 
572 0 1 1.0280000000001221e+00 -1.4862552254140056e+01 1.0000000000000000e+00 9.6752496206947258e-01 1.6966267117666071e+01 5.4277740377544523e+00 
494 0 1 1.0280000000004590e+00 -5.0271789608378885e+00 1.0000000000000000e+00 5.1897049247474369e-01 1.6886296118246381e+01 5.4908632241380335e+00 
579 0 1 1.0280000000002225e+00 -7.4413731340562297e+00 1.0000000000000000e+00 4.9385570501790693e-01 1.6896236348045466e+01 5.6304952910621822e+00 
486 0 1 1.0279999999981235e+00 1.3930808921709243e+01 1.0000000000000000e+00 1.1436823094802251e+00 1.8231703826070380e+01 6.2168870319821909e+00 
632 0 1 1.0280000000007776e+00 -4.6451105938274146e+00 1.0000000000000000e+00 1.9702338599993789e+00 1.8013248064956038e+01 6.4300929758942544e+00 
573 0 1 1.0280000000001708e+00 -1.4369475176477120e+01 1.0000000000000000e+00 3.7929351655243049e+00 1.7596068425234726e+01 5.3940436747401144e+00 
412 0 1 1.0279999999997658e+00 2.6916995449478720e+00 1.0000000000000000e+00 4.0567159608671730e+00 1.7531972554642515e+01 5.2276112074087120e+00 
628 0 1 1.0280000000002325e+00 -2.5326059350845913e+00 1.0000000000000000e+00 5.7575918175944629e+00 1.8040393607815773e+01 4.2125243262651075e+00 
413 0 1 1.0279999999999350e+00 -2.1998971233498827e+00 1.0000000000000000e+00 6.4370212460626943e+00 1.6890761324648928e+01 4.7660638768201355e+00 
490 0 1 1.0279999999999510e+00 -2.9540760515644533e+00 1.0000000000000000e+00 4.6394359533501435e+00 1.7433728946341983e+01 5.1957640044915347e+00 
470 0 1 1.0280000000005169e+00 2.4268697670187120e+00 1.0000000000000000e+00 4.6838447300054638e+00 1.7414421477191585e+01 5.3156724904721466e+00 
640 0 1 1.0279999999986109e+00 -3.8281677415621767e+00 1.0000000000000000e+00 5.1533398678825701e+00 1.8940851768696511e+01 5.4700666267529368e+00 
577 0 1 1.0279999999988652e+00 -7.5428603163881580e-01 1.0000000000000000e+00 5.9728397218148848e+00 1.9043635596347780e+01 5.8026610733015591e+00 
548 0 1 1.0280000000002971e+00 -1.7972711172156763e+00 1.0000000000000000e+00 6.2320883130877620e+00 1.6754992365857937e+01 6.1470503547900925e+00 
504 0 1 1.0279999999998395e+00 -1.1556750422517524e+01 1.0000000000000000e+00 1.8528844689553299e+00 1.6980973487200618e+01 9.4653025783846267e+00 
588 0 1 1.0279999999998806e+00 -1.6102496918607066e+01 1.0000000000000000e+00 2.4310673865959753e+00 1.7014106137178469e+01 8.8610010548331140e+00 
492 0 1 1.0279999999989782e+00 8.5973087015290091e+00 1.0000000000000000e+00 2.1472668026470747e+00 1.9227609316261230e+01 8.2434293218576755e+00 
400 0 1 1.0280000000003386e+00 1.1128078488669740e+01 1.0000000000000000e+00 1.2124203690251065e+00 1.8383210819190310e+01 8.2318748341880017e+00 
510 0 1 1.0280000000001379e+00 -2.7517508375247024e+00 1.0000000000000000e+00 2.7558922300478605e+00 1.7149798484961053e+01 8.6028554106332571e+00 
434 0 1 1.0280000000002878e+00 -4.8495247390257799e+00 1.0000000000000000e+00 1.1130782829740613e+00 1.7513767911890149e+01 8.1785549729661806e+00 
595 0 1 1.0280000000001415e+00 -2.6182763345722840e+01 1.0000000000000000e+00 9.4485026612892498e-01 1.7367422289045003e+01 8.6561456172399289e+00 