LAMMPS data file via write_data, version 30 Jul 2016, timestep = 50400000

644 atoms
2 atom types

0.0000000000000000e+00 2.0000000000000000e+01 xlo xhi
0.0000000000000000e+00 2.0000000000000000e+01 ylo yhi
0.0000000000000000e+00 2.0000000000000000e+01 zlo zhi

Masses

1 4.31
2 3.896

Atoms # meso-molecular

104 0 1 1.0280000000001164e+00 -8.4810423475063352e+00 1.0000000000000000e+00 4.6980210902798958e-01 2.7970167863991100e+00 5.1854521875430954e+00 
90 0 1 1.0279999999998071e+00 -9.0327405321346124e+00 1.0000000000000000e+00 2.1483275706481932e+00 6.9564335816398215e-01 4.9930260180568702e+00 
20 0 1 1.0280000000000380e+00 -1.4469535114971663e+01 1.0000000000000000e+00 1.7373978579335261e+00 2.4195614882314671e+00 5.0835319601697027e+00 
173 0 1 1.0280000000003322e+00 7.2067569275423242e+00 1.0000000000000000e+00 2.0203729542715614e+00 1.8487107845950816e+00 5.0616087502487801e+00 
105 0 1 1.0280000000001512e+00 -1.2412960738359541e+01 1.0000000000000000e+00 1.3366075885034034e+00 2.7720841430415186e+00 5.1517213419301680e+00 
12 0 1 1.0279999999998992e+00 -1.0148275612296874e+01 1.0000000000000000e+00 1.0106616616270905e+00 4.4954718364641399e-01 4.9596508388507461e+00 
28 0 1 1.0280000000000704e+00 -3.8766135821096753e+01 1.0000000000000000e+00 8.2562698271478707e-01 2.9023551782423551e+00 5.1829579761079572e+00 
27 0 1 1.0280000000000997e+00 -1.9750823656472818e+01 1.0000000000000000e+00 7.2415264849694894e-01 2.8703859578717679e+00 5.1719738158801700e+00 
167 0 1 1.0279999999995373e+00 5.8972384265908033e+00 1.0000000000000000e+00 3.5713975960235187e+00 1.2118224791645311e+00 5.2889019995332340e+00 
13 0 1 1.0280000000001590e+00 -1.9957983300197821e+01 1.0000000000000000e+00 4.1468343621782431e+00 2.2915852035836646e+00 4.9111438574998516e+00 
98 0 1 1.0279999999999636e+00 -2.5960749917245550e+01 1.0000000000000000e+00 4.5000768844444430e+00 3.0877162129804550e+00 5.0653648769851340e+00 
21 0 1 1.0280000000000993e+00 -2.2259172020833912e+01 1.0000000000000000e+00 4.5425040965950956e+00 2.9918828249875253e+00 4.7434217642457401e+00 
97 0 1 1.0279999999999809e+00 -1.2906190665727248e+01 1.0000000000000000e+00 4.9086349999612038e+00 3.1417588890571992e+00 4.4551017119021399e+00 
14 0 1 1.0280000000000422e+00 -3.9863034492389581e+01 1.0000000000000000e+00 5.3461477616001174e+00 2.7551992031780506e+00 4.0055158390240813e+00 
91 0 1 1.0280000000002325e+00 -1.6788696014894931e+01 1.0000000000000000e+00 5.4761722441438980e+00 2.3949713945194349e+00 3.8455304179697611e+00 
71 0 1 1.0280000000000449e+00 -2.9858154732405900e+01 1.0000000000000000e+00 6.0140324390245725e+00 1.5480851212738522e+00 3.6139052017403239e+00 
61 0 1 1.0280000000002796e+00 -1.2210541522178453e+01 1.0000000000000000e+00 6.4666422029823920e+00 1.6155030335104295e-01 3.9030595262115244e+00 
168 0 1 1.0279999999999938e+00 -3.8559803961633934e+00 1.0000000000000000e+00 3.8781279833603421e+00 8.2710266744792083e-01 6.2712731881174815e+00 
182 0 1 1.0279999999999261e+00 -4.1460730968051713e+00 1.0000000000000000e+00 6.7002926319144729e-01 3.9135667434318560e+00 6.4928004994984345e+00 
155 0 1 1.0279999999997709e+00 -2.1457482983419442e+01 1.0000000000000000e+00 5.0333047078122846e+00 3.9788771962564846e+00 5.4652912869604311e+00 
80 0 1 1.0280000000001528e+00 -1.2397375199336469e+01 1.0000000000000000e+00 6.4452173420386414e+00 4.9057922672481737e+00 6.0120431074810545e+00 
157 0 1 1.0280000000001777e+00 -7.4820404241899165e+00 1.0000000000000000e+00 3.8653205177083931e+00 4.4463243759867925e+00 6.4797916386875691e+00 
232 0 1 1.0280000000004421e+00 -1.2323371329853000e+01 1.0000000000000000e+00 1.9553533953200568e+00 2.9577568905413463e+00 7.6357763591892631e+00 
233 0 1 1.0280000000004865e+00 4.6703432356629199e-01 1.0000000000000000e+00 1.8703524068026436e+00 2.4472065185973122e+00 7.6456949706209940e+00 
304 0 1 1.0280000000009102e+00 8.3071342012901521e+00 1.0000000000000000e+00 3.2050368221796806e+00 2.2019024346513585e+00 8.1129384976569039e+00 
328 0 1 1.0279999999996996e+00 4.8047483104258015e+00 1.0000000000000000e+00 1.2521495320251601e+00 7.7461055653305910e-01 7.6373276743100895e+00 
249 0 1 1.0280000000003187e+00 2.3409061424984870e+01 1.0000000000000000e+00 2.8200382981286585e+00 1.3159631525855005e+00 9.2231658776340488e+00 
340 0 1 1.0280000000002678e+00 2.0687909967648384e+01 1.0000000000000000e+00 2.3059405708990197e+00 1.2643499701608181e+00 9.2375508633641950e+00 
389 0 1 1.0279999999999665e+00 1.8972438439956562e+01 1.0000000000000000e+00 9.2584400152313795e-01 1.3875205999016209e+00 9.2808876097184729e+00 
312 0 1 1.0279999999999134e+00 2.0110258195206764e+01 1.0000000000000000e+00 5.1617959638978117e-01 1.4394680856051851e+00 9.2340233201883173e+00 
306 0 1 1.0279999999991667e+00 1.5107933793203312e+01 1.0000000000000000e+00 2.1983247428714665e+00 2.2332937689850509e+00 9.4305303923871620e+00 
175 0 1 1.0279999999992480e+00 -1.5885633255851307e+01 1.0000000000000000e+00 9.4708747723647430e-02 3.2722048340595360e+00 7.6134249068641466e+00 
326 0 1 1.0280000000002834e+00 2.0316075156401645e+01 1.0000000000000000e+00 4.2010510233966105e+00 6.0754646651601374e-01 8.6924441877342957e+00 
303 0 1 1.0279999999999938e+00 -3.2152690030903073e+00 1.0000000000000000e+00 4.5136076840478641e+00 6.9833929836996456e-01 7.1895816883677490e+00 
302 0 1 1.0279999999998506e+00 -1.8053253734784889e+01 1.0000000000000000e+00 4.6713209255456682e+00 6.0167241034486674e-01 7.0591248884651030e+00 
383 0 1 1.0279999999994593e+00 1.3129984307205206e+01 1.0000000000000000e+00 5.2067398520118031e+00 4.3439732456574065e-01 7.8426130654729249e+00 
347 0 1 1.0280000000001426e+00 1.8370712356340501e+01 1.0000000000000000e+00 5.1210479040913981e+00 3.0000074922622568e+00 8.5666201712964138e+00 
356 0 1 1.0279999999999627e+00 8.9600230021537577e+00 1.0000000000000000e+00 5.2513228438874116e+00 3.1335932308832755e+00 8.5971305412576413e+00 
348 0 1 1.0280000000000091e+00 1.1274546372306185e+01 1.0000000000000000e+00 4.5424400944577892e+00 1.4342353930960192e+00 9.5398474387478505e+00 
273 0 1 1.0280000000002805e+00 -1.1807006756874470e+01 1.0000000000000000e+00 6.4067419214801538e+00 1.7557596712207690e+00 9.5852521042403200e+00 
272 0 1 1.0279999999995175e+00 4.5440023939021410e+00 1.0000000000000000e+00 4.0538226755411486e+00 2.1589922556780103e+00 9.9875713264520307e+00 
234 0 1 1.0280000000000182e+00 7.8198490097004374e+00 1.0000000000000000e+00 2.4505611521661175e+00 4.3203059416736833e+00 7.1361104892109593e+00 
203 0 1 1.0279999999999536e+00 -1.2343260381055650e+01 1.0000000000000000e+00 3.2438018890068703e+00 5.7815784142658764e+00 7.3689537657804394e+00 
184 0 1 1.0279999999999947e+00 8.4330108737796081e+00 1.0000000000000000e+00 3.2969648912034772e+00 5.7212551705017969e+00 8.4228226933566681e+00 
171 0 1 1.0280000000000329e+00 1.3377441070069640e+01 1.0000000000000000e+00 1.2996222864491718e+00 4.7566295361251658e+00 8.0252458464619210e+00 
241 0 1 1.0280000000006200e+00 1.2525508967958089e+01 1.0000000000000000e+00 1.0920845473223784e+00 4.2441027003550076e+00 7.6268711664481224e+00 
32 0 1 1.0279999999999556e+00 -4.8703221320552128e+00 1.0000000000000000e+00 2.5438066635625352e+00 5.6482475617431156e+00 9.0122225459620076e+00 
108 0 1 1.0279999999999549e+00 1.9342655386143093e+00 1.0000000000000000e+00 2.4537225151252460e+00 5.6626271841712317e+00 9.0164056360169180e+00 
201 0 1 1.0279999999999498e+00 9.2445930946526094e+00 1.0000000000000000e+00 8.1056748224058583e-01 5.3202652615883324e+00 9.4236604266881994e+00 
117 0 1 1.0280000000000102e+00 2.6215868363575643e+00 1.0000000000000000e+00 2.4990193373864877e-01 4.9670283069742407e+00 9.4414023307851167e+00 
202 0 1 1.0280000000000071e+00 3.2005410223681299e+00 1.0000000000000000e+00 3.8242740451693158e+00 5.8392484902083401e+00 7.5085559406802496e+00 
109 0 1 1.0280000000001397e+00 -5.8176791818462092e+00 1.0000000000000000e+00 4.6759657634696445e+00 5.3306974319385594e+00 6.9046198778024159e+00 
94 0 1 1.0280000000001619e+00 -6.0986839993175028e+00 1.0000000000000000e+00 4.6788607699430287e+00 5.2515614099105070e+00 6.7614363778371960e+00 
85 0 1 1.0280000000001577e+00 -1.3666215257965213e+01 1.0000000000000000e+00 3.6367935564750411e+00 4.5579558150831794e+00 8.9317382249856667e+00 
33 0 1 1.0279999999999931e+00 -9.5950135321891352e+00 1.0000000000000000e+00 3.6709291541699005e+00 5.6490446394264806e+00 7.0242065780594984e+00 
270 0 1 1.0279999999992315e+00 2.0906322740115176e+01 1.0000000000000000e+00 4.2964605710064587e+00 3.5382524167863521e+00 8.6452968278253923e+00 
280 0 1 1.0279999999994949e+00 4.8140537640007208e+00 1.0000000000000000e+00 6.2565639710708814e+00 4.3490821062046825e+00 7.3552453307792174e+00 
235 0 1 1.0280000000004570e+00 1.2289493848841900e+01 1.0000000000000000e+00 5.2658058239609122e+00 3.6957772880383235e+00 7.5053573227738912e+00 
361 0 1 1.0279999999999825e+00 2.5943533195415501e+01 1.0000000000000000e+00 2.5469580360413366e+00 2.9943472294582310e+00 1.3206429946152843e+01 
253 0 1 1.0280000000001110e+00 1.9415548641346458e+01 1.0000000000000000e+00 7.4619764188826584e-02 1.9136879287148496e+00 1.2915778260788072e+01 
438 0 1 1.0280000000005773e+00 2.8533131313023823e+01 1.0000000000000000e+00 3.8830814255411250e-01 4.5025777320156818e-01 1.3262401774898533e+01 
447 0 1 1.0279999999999592e+00 1.4852644853365872e+01 1.0000000000000000e+00 1.2384779048912611e+00 2.3603360105883113e+00 1.3307527401637341e+01 
357 0 1 1.0279999999997989e+00 5.8331444120027349e+00 1.0000000000000000e+00 4.6801640855791842e+00 1.8244398817555216e+00 1.0402594817377624e+01 
325 0 1 1.0280000000000487e+00 1.5759325973470055e+01 1.0000000000000000e+00 5.3732494713411656e+00 1.1891660757878835e+00 1.1055573851286372e+01 
318 0 1 1.0279999999997260e+00 1.5563607478846356e+01 1.0000000000000000e+00 6.4189756262210462e+00 6.2789479596974718e-01 1.1287490433665496e+01 
261 0 1 1.0280000000007143e+00 1.9574753728134365e+01 1.0000000000000000e+00 6.1601913219740885e+00 2.3645348032877194e+00 1.1682977265651814e+01 
49 0 1 1.0280000000002811e+00 5.0160849030934929e-01 1.0000000000000000e+00 4.6748154277753473e+00 3.0105411662004866e+00 1.2358198062202636e+01 
602 0 1 1.0279999999992369e+00 6.5992835913076515e+00 1.0000000000000000e+00 4.4832529972473756e+00 1.9335379169324796e+00 1.2390285740609251e+01 
22 0 1 1.0280000000004219e+00 8.5043654610106578e-01 1.0000000000000000e+00 4.6975524436646303e+00 2.8869284201208112e+00 1.2443459520833873e+01 
424 0 1 1.0279999999995915e+00 2.4394919801778641e+01 1.0000000000000000e+00 6.4222155493345507e+00 3.4844035492654057e-01 1.2520520435913625e+01 
267 0 1 1.0280000000000138e+00 2.0235515666326233e+01 1.0000000000000000e+00 4.2140145362976975e+00 3.2600734456988505e+00 1.2595197498454144e+01 
593 0 1 1.0279999999995337e+00 1.0473741029675180e+01 1.0000000000000000e+00 6.5398098297624756e+00 3.9720120042164930e-01 1.2596715659124509e+01 
248 0 1 1.0280000000002723e+00 1.7329648933278342e+01 1.0000000000000000e+00 2.8286428417062210e+00 4.3145357491258256e+00 1.0582192371048295e+01 
100 0 1 1.0279999999999379e+00 -5.4048646465137651e-01 1.0000000000000000e+00 1.7894722641653287e+00 5.7071483775062193e+00 1.0880478774071275e+01 
169 0 1 1.0280000000000999e+00 1.2115220099895193e+01 1.0000000000000000e+00 1.7792786188326819e+00 3.6014297428694992e+00 1.0143723690757303e+01 
107 0 1 1.0279999999999376e+00 5.8995103308758701e-01 1.0000000000000000e+00 1.7346798032767146e+00 5.6991829337893662e+00 1.0973225765061075e+01 
286 0 1 1.0280000000005278e+00 8.0372593797682992e+00 1.0000000000000000e+00 3.2774621949094769e+00 4.0449463816169189e+00 1.1664616560178885e+01 
170 0 1 1.0280000000001182e+00 1.6629635549114571e+01 1.0000000000000000e+00 1.3321361380116856e+00 3.6437738011275895e+00 1.0358424316892339e+01 
31 0 1 1.0279999999999327e+00 -3.4662700158160682e+00 1.0000000000000000e+00 1.3043517779985465e+00 5.7026743430245999e+00 1.1208324590504624e+01 
183 0 1 1.0279999999999219e+00 6.7232291767323158e+00 1.0000000000000000e+00 9.1802954083627208e-01 5.6992398592277294e+00 1.1170419132625378e+01 
191 0 1 1.0279999999999085e+00 1.6669683145824795e+01 1.0000000000000000e+00 3.0862513016203637e+00 3.9504525666659016e+00 1.2503951326901438e+01 
344 0 1 1.0279999999997307e+00 1.6097269435671365e+01 1.0000000000000000e+00 1.7159882442278680e+00 3.9031270907047451e+00 1.2602893559131333e+01 
106 0 1 1.0279999999999154e+00 6.4459193090780751e+00 1.0000000000000000e+00 1.4928572810117671e+00 3.6218316845327339e+00 1.2582720186848517e+01 
589 0 1 1.0280000000008236e+00 6.2830048530331313e+00 1.0000000000000000e+00 4.6274277980929007e-01 4.3768066704697146e+00 1.2175389441907024e+01 
190 0 1 1.0279999999999652e+00 -3.0080130807500194e-01 1.0000000000000000e+00 3.6662874748665120e+00 3.7976314443578181e+00 1.2201181160282847e+01 
287 0 1 1.0280000000001270e+00 -5.6664063667308575e+00 1.0000000000000000e+00 6.2380238335501215e+00 3.4263759587043299e+00 1.0605516523104866e+01 
115 0 1 1.0280000000001701e+00 1.3937488199353284e+01 1.0000000000000000e+00 2.3968539828092252e+00 1.3637555714672080e+00 1.4312648043798786e+01 
523 0 1 1.0279999999997327e+00 2.3184508896847831e+01 1.0000000000000000e+00 1.8836459647965662e+00 9.3193274424625938e-01 1.4397143734742860e+01 
422 0 1 1.0279999999997205e+00 2.1643559407663258e+01 1.0000000000000000e+00 1.9142309088286058e+00 9.4406234177082704e-01 1.4427289167522423e+01 
48 0 1 1.0280000000001090e+00 5.9182029539600167e+00 1.0000000000000000e+00 2.9677629768086016e+00 1.9959449199805364e+00 1.4463246484812414e+01 
113 0 1 1.0280000000001208e+00 -7.2895571457453681e+00 1.0000000000000000e+00 8.4277052475719716e-01 2.3044963027086371e+00 1.3530073930156194e+01 
437 0 1 1.0280000000002050e+00 1.1875444410643556e+01 1.0000000000000000e+00 5.7266159508638392e-01 7.3938025639477156e-02 1.6083512784218350e+01 
446 0 1 1.0280000000004521e+00 1.5404286573989168e+01 1.0000000000000000e+00 3.5739427398106305e-01 6.6551853178857789e-01 1.5107976234272192e+01 
50 0 1 1.0280000000001328e+00 -1.2900134224984622e+01 1.0000000000000000e+00 3.6344955496112750e+00 1.9322704362359953e+00 1.5915858518446363e+01 
127 0 1 1.0280000000001011e+00 -1.7790243471202569e+01 1.0000000000000000e+00 3.7452555988500813e+00 1.9325385585942947e+00 1.5830356709360236e+01 
276 0 1 1.0279999999990401e+00 2.4583927978050784e+01 1.0000000000000000e+00 4.4674786916227918e+00 2.0047402312906826e-01 1.4682987583222202e+01 
599 0 1 1.0280000000010019e+00 1.8726994502587448e+01 1.0000000000000000e+00 4.7235922505987107e+00 1.4101752872048479e+00 1.3352164657607274e+01 
360 0 1 1.0280000000001785e+00 2.9272673092901915e+01 1.0000000000000000e+00 5.7703143662543956e+00 7.5218485128984347e-01 1.3888435309946336e+01 
428 0 1 1.0280000000000986e+00 1.1929247749102856e+01 1.0000000000000000e+00 6.5188801956692020e+00 1.0744180656339410e+00 1.4850512916257559e+01 
128 0 1 1.0280000000004132e+00 -2.7008521270575789e+00 1.0000000000000000e+00 4.3766898772693255e+00 1.7333094168453507e+00 1.5484346016011987e+01 
51 0 1 1.0280000000002492e+00 -7.6980003777459114e+00 1.0000000000000000e+00 4.1211607845086613e+00 1.8222045284484096e+00 1.5833725017480479e+01 
532 0 1 1.0280000000001019e+00 -5.3425181101210739e-01 1.0000000000000000e+00 6.6304743707444667e+00 1.4099970497720724e+00 1.6193899449302030e+01 
53 0 1 1.0279999999998264e+00 -1.0696158293545258e+01 1.0000000000000000e+00 3.3742136631635616e-01 1.3611590777583149e+00 1.8155044702395504e+01 
443 0 1 1.0279999999999625e+00 4.7590233199766185e+00 1.0000000000000000e+00 6.7635054340647061e-01 4.7774527608413153e-01 1.9578038311531593e+01 
59 0 1 1.0280000000001104e+00 -5.1887741643310470e+00 1.0000000000000000e+00 1.9091844928668347e+00 1.5360487764416675e+00 1.8689823183818771e+01 
136 0 1 1.0280000000002054e+00 -1.7547868523355878e+00 1.0000000000000000e+00 1.9369408272241426e+00 1.5429911401644734e+00 1.8585001084803956e+01 
45 0 1 1.0280000000005316e+00 -3.7289331476719836e+00 1.0000000000000000e+00 2.7339314382269020e+00 1.2654332516307349e+00 1.6885899689960496e+01 
129 0 1 1.0279999999991731e+00 -1.4227452410315772e-01 1.0000000000000000e+00 2.4942166746408065e+00 1.0006333753612855e+00 1.6791243110587747e+01 
131 0 1 1.0279999999999403e+00 -1.0484124181091456e+00 1.0000000000000000e+00 8.5052600226147412e-01 1.4135471815546985e+00 1.7828874123223976e+01 
213 0 1 1.0280000000000080e+00 6.8139064414573562e+00 1.0000000000000000e+00 8.4872410031477319e-01 1.4695930733427229e+00 1.8835349106816444e+01 
442 0 1 1.0279999999999658e+00 1.2732474973506440e+00 1.0000000000000000e+00 1.0672874080874892e+00 5.8953051644436427e-01 1.9738816757045392e+01 
46 0 1 1.0280000000008476e+00 -1.7362202051964932e+00 1.0000000000000000e+00 4.8150769483215452e+00 4.8182804937719398e-01 1.7286759322051275e+01 
121 0 1 1.0280000000000837e+00 1.7389519377423512e-01 1.0000000000000000e+00 3.3502046370644440e+00 1.2102131615990961e+00 1.7255257797357459e+01 
444 0 1 1.0280000000000422e+00 9.3901155642552396e+00 1.0000000000000000e+00 3.5288120164887609e+00 1.5484011515673983e-02 1.9809775326750749e+01 
290 0 1 1.0279999999999125e+00 1.0726376681713134e+01 1.0000000000000000e+00 4.0612721636325144e+00 2.0724329572558042e-01 1.9360128988479751e+01 
219 0 1 1.0279999999999292e+00 6.6893809932352575e+00 1.0000000000000000e+00 3.6129358781483063e+00 4.4137815569846695e-01 1.9537302116605311e+01 
368 0 1 1.0279999999999592e+00 1.4302453277919872e+01 1.0000000000000000e+00 4.0906497087304619e+00 3.2939861153636459e-02 1.9433765587497732e+01 
208 0 1 1.0279999999998319e+00 8.3163191127696727e+00 1.0000000000000000e+00 6.0684031303955743e+00 2.1442069635724106e-01 1.8469002639552055e+01 
207 0 1 1.0279999999998377e+00 1.1507703825558924e+01 1.0000000000000000e+00 5.4932237949187579e+00 5.5905288511677742e-01 1.7426874027135415e+01 
7 0 1 1.0280000000000067e+00 -1.8249278773186838e+01 1.0000000000000000e+00 2.1093802448151435e+00 1.9732377484097558e+01 4.9757530612114245e+00 
374 0 1 1.0280000000001139e+00 9.6678938328923785e+00 1.0000000000000000e+00 3.2754882050909582e+00 1.9459873520960102e+01 5.3349114652094842e+00 
215 0 1 1.0279999999996667e+00 6.6469822403184979e+00 1.0000000000000000e+00 1.4612859149499089e+00 1.8693749394607835e+01 5.6316824217041077e+00 
292 0 1 1.0279999999996601e+00 1.3289885803767913e+01 1.0000000000000000e+00 1.6017370966753561e+00 1.8663110173542499e+01 5.6590029198264187e+00 
148 0 1 1.0279999999995371e+00 -4.7806546101164447e+00 1.0000000000000000e+00 6.7608963374801789e-01 1.9051245805229222e+01 5.6473232463483107e+00 
220 0 1 1.0279999999992393e+00 5.9693465061078221e+00 1.0000000000000000e+00 5.0473074893914083e-01 1.9091291521705152e+01 5.8757725763989850e+00 
225 0 1 1.0280000000009215e+00 -1.3860309838957092e+00 1.0000000000000000e+00 1.8992790181310544e+00 1.8648388211169223e+01 6.6470947885474745e+00 
133 0 1 1.0279999999998257e+00 -7.7777503009826034e+00 1.0000000000000000e+00 4.8623135902327874e+00 1.9859621115503515e+01 4.4154485879313796e+00 
55 0 1 1.0279999999997915e+00 -1.5733398929616362e+01 1.0000000000000000e+00 4.9484463005821357e+00 1.9845465961875814e+01 4.3577720736693504e+00 
56 0 1 1.0279999999997527e+00 -3.6087063113780268e+01 1.0000000000000000e+00 5.9095955209928572e+00 1.9716078331513962e+01 4.0953936460689579e+00 
138 0 1 1.0279999999998253e+00 -5.6204827598280112e+00 1.0000000000000000e+00 5.2070614843213585e+00 1.9909323703912882e+01 4.1185728986953620e+00 
296 0 1 1.0280000000007556e+00 7.5224870708680169e-01 1.0000000000000000e+00 5.0198090927132251e+00 1.9282077607263108e+01 5.2124935832916304e+00 
610 0 1 1.0280000000001372e+00 -3.4718357428440797e+01 1.0000000000000000e+00 6.4035765319127824e+00 1.7862248785414025e+01 5.8351940950409791e+00 
611 0 1 1.0280000000007108e+00 -1.4248104325980208e+01 1.0000000000000000e+00 6.2734588185986482e+00 1.7632875062764587e+01 6.0991767362577001e+00 
533 0 1 1.0280000000005727e+00 -7.3802132268496266e+00 1.0000000000000000e+00 5.9096699022522001e+00 1.7513962233398829e+01 6.5900783432494503e+00 
244 0 1 1.0280000000013778e+00 -1.0553470911385809e+00 1.0000000000000000e+00 2.9858316425406102e+00 1.8887092447219441e+01 7.0829726227792413e+00 
245 0 1 1.0279999999974168e+00 -2.0919869985648631e+01 1.0000000000000000e+00 3.2755759447391486e+00 1.8842118828795932e+01 6.8155098940260608e+00 
322 0 1 1.0280000000003018e+00 -3.2905411891846246e+00 1.0000000000000000e+00 1.9186752519623667e+00 1.9485167152451798e+01 7.4765483776477728e+00 
456 0 1 1.0279999999997123e+00 1.6283651768388612e+00 1.0000000000000000e+00 1.3168764445724970e+00 1.9775226663566457e+01 9.0369066853411386e+00 
321 0 1 1.0280000000005565e+00 8.5537732528644330e+00 1.0000000000000000e+00 4.5825059764853426e-01 1.9746770036140447e+01 7.1305894751606784e+00 
621 0 1 1.0280000000002385e+00 -9.7179691714288030e-01 1.0000000000000000e+00 5.8624460521669819e-01 1.8938914328860665e+01 9.6268107265383840e+00 
390 0 1 1.0279999999972911e+00 1.4840672485310240e+01 1.0000000000000000e+00 2.9102843183453544e+00 1.8644003296941868e+01 9.9611686689027934e+00 
546 0 1 1.0279999999999756e+00 3.8742209044119869e-01 1.0000000000000000e+00 6.4516014797584900e+00 1.7327854239457874e+01 9.7797373982919140e+00 
612 0 1 1.0280000000003373e+00 -1.7622956196643191e+00 1.0000000000000000e+00 6.3394327779714574e+00 1.7229450412570674e+01 6.9485377582107777e+00 
382 0 1 1.0279999999991365e+00 1.5300394983660551e+01 1.0000000000000000e+00 5.8899194271960518e+00 1.9891974872883772e+01 7.3178643078637311e+00 
460 0 1 1.0279999999993545e+00 6.9077642998096564e+00 1.0000000000000000e+00 6.2287004890699222e+00 1.9588708367859581e+01 7.9719178048853934e+00 
536 0 1 1.0280000000005187e+00 -9.7650677031431259e-03 1.0000000000000000e+00 3.9958759659324574e+00 1.8521156315087637e+01 8.6789707973068477e+00 
468 0 1 1.0280000000000695e+00 9.3552293044021670e+00 1.0000000000000000e+00 5.2398254906271182e+00 1.7117001759412986e+01 9.7009000635006544e+00 
535 0 1 1.0279999999998881e+00 8.9290463883110571e-01 1.0000000000000000e+00 5.3526455266920259e+00 1.7714368373824335e+01 8.3873810278595169e+00 
379 0 1 1.0279999999997027e+00 -1.4135003609731310e+01 1.0000000000000000e+00 4.4395985708859200e+00 1.8233942993720124e+01 7.8188196325911186e+00 
380 0 1 1.0280000000001814e+00 1.2689260488474166e+00 1.0000000000000000e+00 4.7088365525276998e+00 1.8062208550332439e+01 7.6425981647558103e+00 
623 0 1 1.0280000000007377e+00 -2.7965307140568818e+01 1.0000000000000000e+00 3.5684221983041637e+00 1.8115607836106758e+01 9.9629761770428154e+00 
642 0 1 1.0279999999990470e+00 -9.3460366817412108e+00 1.0000000000000000e+00 5.2368503453450677e+00 1.6516574518399114e+01 1.0381809688855110e+01 
643 0 1 1.0280000000001759e+00 -1.2144012297246514e+01 1.0000000000000000e+00 4.9557819051284451e+00 1.6219322309520450e+01 1.1648336539527017e+01 
637 0 1 1.0280000000002767e+00 -3.4917670859635052e+01 1.0000000000000000e+00 5.0637875282466416e+00 1.6187338454401523e+01 1.1682400841378664e+01 
617 0 1 1.0279999999998897e+00 -1.5220146805356904e+01 1.0000000000000000e+00 5.5536934176399457e+00 1.6335620739655887e+01 1.2272586978918966e+01 
483 0 1 1.0280000000005496e+00 -4.5299361425011657e+00 1.0000000000000000e+00 4.3734347277139882e+00 1.6624413562624561e+01 1.2272719959385416e+01 
336 0 1 1.0280000000003064e+00 -1.1585846945327223e+01 1.0000000000000000e+00 2.5702219493159344e+00 1.8556304539650814e+01 1.0422602423425495e+01 
335 0 1 1.0280000000002922e+00 3.8187539300512041e+00 1.0000000000000000e+00 2.4807707906953236e+00 1.8523919486580873e+01 1.0517174737662843e+01 
622 0 1 1.0280000000002594e+00 -7.5603564379946322e+00 1.0000000000000000e+00 2.2580828837844851e+00 1.8296180479683688e+01 1.0035553314559792e+01 
551 0 1 1.0280000000000868e+00 2.5040175825552731e+00 1.0000000000000000e+00 1.0080976894769804e+00 1.7599932514649261e+01 1.1044993848344518e+01 
426 0 1 1.0279999999994163e+00 1.2589892300110444e+01 1.0000000000000000e+00 9.8254536622325306e-01 1.9292460875844796e+01 1.0566142119872273e+01 
626 0 1 1.0280000000000007e+00 -4.3169786725188750e+00 1.0000000000000000e+00 1.5649474839806237e+00 1.7076194464077368e+01 1.2660094947024922e+01 
541 0 1 1.0279999999998517e+00 -4.8212334166741222e+00 1.0000000000000000e+00 1.8110893627120153e+00 1.7103158491269625e+01 1.2806741694131224e+01 
545 0 1 1.0280000000000455e+00 1.0333097192037861e+00 1.0000000000000000e+00 4.4646286431986437e-01 1.7977172071830186e+01 1.0544836853393321e+01 
560 0 1 1.0279999999998255e+00 -7.3285911310894285e+00 1.0000000000000000e+00 3.5485956022328657e-01 1.6726515718010486e+01 1.2134434529077021e+01 
549 0 1 1.0280000000001235e+00 1.3365754708407769e+00 1.0000000000000000e+00 1.6390633075974472e+00 1.6932028039911323e+01 1.3044308500810914e+01 
540 0 1 1.0279999999996010e+00 -2.1577510467754912e+01 1.0000000000000000e+00 3.3201963279279201e+00 1.6990945366443789e+01 1.3073033569145844e+01 
633 0 1 1.0280000000007707e+00 -4.9551021329710867e+00 1.0000000000000000e+00 1.2428538020004940e+00 1.6912886009099950e+01 1.3262347242775038e+01 
558 0 1 1.0280000000001936e+00 3.8234291900475897e-01 1.0000000000000000e+00 4.5153348510726383e+00 1.6696526894136898e+01 1.0659932851698727e+01 
411 0 1 1.0279999999992382e+00 1.3862183553471667e+01 1.0000000000000000e+00 4.9058660728191770e+00 1.8166668424377974e+01 1.0577279404705239e+01 
465 0 1 1.0279999999995877e+00 1.4566637199390559e+01 1.0000000000000000e+00 4.6360279404634790e+00 1.8600855231807238e+01 1.2078679456671255e+01 
627 0 1 1.0279999999996936e+00 -6.7912185270284287e+00 1.0000000000000000e+00 6.3240826836049768e+00 1.6888894703939744e+01 1.2626481417007740e+01 
585 0 1 1.0279999999996849e+00 -3.8267884031517241e-01 1.0000000000000000e+00 4.4227109161764204e+00 1.9054977601583285e+01 1.2802075140442438e+01 
501 0 1 1.0279999999995653e+00 4.4567162456613616e+00 1.0000000000000000e+00 4.5976634182018268e+00 1.9257898601080573e+01 1.2799723427084764e+01 
508 0 1 1.0279999999997893e+00 7.0776523808717924e+00 1.0000000000000000e+00 4.2493184566381075e+00 1.8951206579040669e+01 1.2888900556127618e+01 
496 0 1 1.0280000000005034e+00 -2.2605213060633060e+00 1.0000000000000000e+00 2.6788382848445327e+00 1.7346700636196367e+01 1.4933266258427759e+01 
574 0 1 1.0280000000001748e+00 -1.9535102714624720e+01 1.0000000000000000e+00 2.4278614330780171e+00 1.7381586117116395e+01 1.5006355407150030e+01 
503 0 1 1.0279999999999803e+00 2.1083287002683333e+00 1.0000000000000000e+00 2.2613519437080294e+00 1.7397752899577114e+01 1.5019746876432480e+01 
507 0 1 1.0279999999994665e+00 1.6450568219222163e+01 1.0000000000000000e+00 9.8503753972188435e-01 1.9194871386401299e+01 1.4251163446824606e+01 
515 0 1 1.0279999999995304e+00 2.0549490736018736e+01 1.0000000000000000e+00 1.8097767318314504e+00 1.8418774445753872e+01 1.5598432935404235e+01 
562 0 1 1.0279999999996621e+00 6.9100196909181477e+00 1.0000000000000000e+00 5.2280255471011627e-01 1.8011789923801299e+01 1.5462982544090860e+01 
500 0 1 1.0279999999999501e+00 1.0247008774204671e+01 1.0000000000000000e+00 4.2142165828906936e-01 1.9236160462542639e+01 1.4068927841705348e+01 
631 0 1 1.0279999999998108e+00 -1.3366907681136855e+01 1.0000000000000000e+00 3.2157350730694251e-01 1.8049199154718988e+01 1.5513231945081809e+01 
571 0 1 1.0280000000006448e+00 -1.1492190292987818e+01 1.0000000000000000e+00 3.6625523746101663e+00 1.7328854441612744e+01 1.4243396512218045e+01 
570 0 1 1.0280000000006742e+00 2.5420652452242065e-01 1.0000000000000000e+00 4.0663208296015307e+00 1.8164497958010454e+01 1.4622392134625999e+01 
502 0 1 1.0280000000007399e+00 3.5359165480874091e+00 1.0000000000000000e+00 4.3734527374936274e+00 1.7662170821677353e+01 1.3937191668527923e+01 
590 0 1 1.0279999999995511e+00 1.2220205610009296e+01 1.0000000000000000e+00 4.9849665771993603e+00 1.9529968808473985e+01 1.3993867288914256e+01 
324 0 1 1.0279999999996094e+00 1.7655285010767656e+01 1.0000000000000000e+00 4.2382307981527561e+00 1.8737956634174967e+01 1.6063339174756798e+01 
323 0 1 1.0279999999992666e+00 4.3644426213929028e+00 1.0000000000000000e+00 4.2601238340567242e+00 1.9240777891992487e+01 1.6278945792324063e+01 
512 0 1 1.0280000000010476e+00 -1.2232613267681060e+01 1.0000000000000000e+00 3.2908825531072448e+00 1.7962025873370994e+01 1.7439757421103245e+01 
206 0 1 1.0279999999996619e+00 9.1859286832181315e+00 1.0000000000000000e+00 2.3792229669521885e+00 1.9073012826663238e+01 1.7580878528368657e+01 
282 0 1 1.0280000000000475e+00 8.2005411705610154e+00 1.0000000000000000e+00 3.0895186708627271e+00 1.8136714610471326e+01 1.7809715627528433e+01 
358 0 1 1.0279999999998977e+00 6.0829041180421637e+00 1.0000000000000000e+00 9.0982236433930452e-01 1.9552267622466978e+01 1.9126409704327173e+01 
436 0 1 1.0280000000000122e+00 5.4037925512157985e+00 1.0000000000000000e+00 1.3280442140091013e+00 1.9519224915766117e+01 1.9510402775305710e+01 
359 0 1 1.0279999999999321e+00 1.0383066221674362e+01 1.0000000000000000e+00 1.7362524019072882e+00 1.9312301843317247e+01 1.9548182351302358e+01 
435 0 1 1.0279999999998581e+00 -8.2595535199978514e+00 1.0000000000000000e+00 2.8004405281054718e+00 1.9220207502551027e+01 1.9794952367111954e+01 
561 0 1 1.0280000000001142e+00 -3.3107997612449211e+00 1.0000000000000000e+00 6.2028810165631469e+00 1.7952487418524864e+01 1.7094019448817551e+01 
420 0 1 1.0280000000005645e+00 -9.8399323158425496e+00 1.0000000000000000e+00 5.8960486474625373e+00 1.7936683830111395e+01 1.7068131771721763e+01 
485 0 1 1.0280000000001441e+00 1.5488754179464128e+00 1.0000000000000000e+00 6.2334996986789779e+00 1.7953346806047293e+01 1.7080181549031934e+01 
519 0 1 1.0279999999998986e+00 -3.5128610747701012e+00 1.0000000000000000e+00 3.7013500256342269e+00 1.9647271741895928e+01 1.9722767116101974e+01 
569 0 1 1.0279999999998883e+00 -1.4719309242961934e+01 1.0000000000000000e+00 3.5710690489072223e+00 1.7969326009464574e+01 1.7811631898059176e+01 