LAMMPS data file via write_data, version 30 Jul 2016, timestep = 50400000

4620 atoms
8 atom types

0.0000000000000000e+00 1.0000000000000000e+02 xlo xhi
0.0000000000000000e+00 4.0000000000000000e+01 ylo yhi
0.0000000000000000e+00 4.0000000000000000e+01 zlo zhi

Masses

1 3.896
2 5.36
3 20.064
4 8.378
5 8.378
6 8.378
7 8.378
8 8.378

Atoms # meso-molecular

4343 4344 2 1.4218704307376302e+00 -1.1202862439415304e-01 1.0000000000000000e+00 2.8660685691374042e+01 1.0622907348775170e+00 6.5872223306610900e-01 
235 236 2 1.4218704307376302e+00 -1.1185195079823815e-01 1.0000000000000000e+00 1.2740167795803432e+01 2.3931555102260367e+00 1.1868499125032113e+00 
2518 2519 2 1.4218704307376302e+00 -1.3472818259421357e-01 1.0000000000000000e+00 2.2787145730036904e+01 1.6191342230789540e+00 9.2288263087996514e-01 
3474 3475 2 1.4218704307376302e+00 -1.3469764396890843e-01 1.0000000000000000e+00 3.2409517074243929e+01 2.3503267026874815e+00 9.9424973956984886e-01 
1579 1580 2 1.4218704307376302e+00 -1.3482962198700144e-01 1.0000000000000000e+00 1.0125332749567148e+01 3.2590656967932818e+00 7.8406760670884823e-01 
1450 1451 2 1.4218704307376302e+00 -1.3480293975916069e-01 1.0000000000000000e+00 5.2708697258698995e+00 4.2060070369875904e+00 9.5617485169565664e-01 
4515 4516 2 1.4218704307376302e+00 -1.1166388076310979e-01 1.0000000000000000e+00 3.1163975747667227e+01 4.1263326510003768e+00 7.6336613615725890e-01 
4015 4016 2 1.4218704307376302e+00 -1.3440274908201277e-01 1.0000000000000000e+00 2.6546587989474208e+01 5.5717362735768976e+00 1.1987481643855922e+00 
1887 1888 2 1.4218704307376302e+00 -1.1185849262046654e-01 1.0000000000000000e+00 4.9591740589687849e-01 6.8174028088814387e+00 1.0327291566939052e+00 
534 535 2 1.4218704307376302e+00 -1.3491210163341777e-01 1.0000000000000000e+00 2.1333397366593889e+01 6.7389894827622578e+00 4.0787668379869751e-01 
2561 2562 2 1.4218704307376302e+00 -1.3475608131786379e-01 1.0000000000000000e+00 3.0731162721147122e+01 6.8652271897144166e+00 4.6574472096876252e-01 
4413 4414 2 1.4218704307376302e+00 -1.1146007952077649e-01 1.0000000000000000e+00 2.8331992809776015e+01 8.5537794090318631e+00 7.7295903322265325e-01 
887 888 2 1.4218704307376302e+00 -1.1156837700918870e-01 1.0000000000000000e+00 3.8929993393941781e-01 9.6480912231856308e+00 1.1635821839463498e+00 
664 665 2 1.4218704307376302e+00 -1.3446328877908933e-01 1.0000000000000000e+00 8.1431566594932452e+00 9.7468267860601454e+00 1.0091459913595793e+00 
2033 2034 2 1.4218704307376302e+00 -1.3452194567579218e-01 1.0000000000000000e+00 1.9100903847672559e+01 1.0283942033363305e+01 1.2767378802582141e+00 
1217 1218 2 1.4218704307376302e+00 -1.3484325076234596e-01 1.0000000000000000e+00 1.5460743611653900e+01 1.1609957924692685e+01 7.1534837543848040e-01 
4532 4533 2 1.4218704307376302e+00 -1.1212263025356195e-01 1.0000000000000000e+00 2.1883294023912708e+01 1.0716725811396628e+01 6.3708133263328914e-01 
1378 1379 2 1.4218704307376302e+00 -1.1202821616676951e-01 1.0000000000000000e+00 1.9429400875323150e+01 1.3098497912845366e+01 5.8760155907969602e-01 
1468 1469 2 1.4218704307376302e+00 -1.3459441590895860e-01 1.0000000000000000e+00 2.7819414501263154e+01 1.3787732324569680e+01 1.1174959637008943e+00 
2301 2302 2 1.4218704307376302e+00 -1.1204743454257657e-01 1.0000000000000000e+00 3.1795007308102960e+01 1.5364043326525973e+01 1.2459819599748299e+00 
1368 1369 2 1.4218704307376302e+00 -1.1215558399932841e-01 1.0000000000000000e+00 5.4178428985970681e+00 1.6430456861905501e+01 1.0243247298023421e+00 
1618 1619 2 1.4218704307376302e+00 -1.3449636723602040e-01 1.0000000000000000e+00 7.7643363616306535e+00 1.6788901549702455e+01 9.6406888730235973e-01 
1715 1716 2 1.4218704307376302e+00 -1.3454703731795295e-01 1.0000000000000000e+00 1.1531767764875186e+01 1.7132503919372702e+01 9.1774577525560164e-01 
52 53 2 1.4218704307376302e+00 -1.1193175058707312e-01 1.0000000000000000e+00 2.1427640394897345e+01 1.6211957138795000e+01 2.9629397121010470e-01 
706 707 2 1.4218704307376302e+00 -1.3474984255503775e-01 1.0000000000000000e+00 1.9522280196142830e+01 1.8496946250878505e+01 5.5622878846516532e-01 
1660 1661 2 1.4218704307376302e+00 -1.3475889507364316e-01 1.0000000000000000e+00 2.5332059593542681e+01 1.8610301408479575e+01 7.2535383260035802e-01 
1466 1467 2 1.4218704307376302e+00 -1.3468230969537986e-01 1.0000000000000000e+00 2.7927434891149584e+01 1.7778470148850097e+01 1.0110884606689831e-01 
944 945 2 1.4218704307376302e+00 -1.1182582920375167e-01 1.0000000000000000e+00 3.2221748121588917e+01 2.5900456894621021e-01 1.3898517156631101e+00 
2756 2757 2 1.4218704307376302e+00 -1.1218344061464468e-01 1.0000000000000000e+00 1.4149556149699494e+01 2.0351808191115546e+00 2.6306674649877366e+00 
1768 1769 2 1.4218704307376302e+00 -1.3473841523715183e-01 1.0000000000000000e+00 9.1925789529455049e+00 5.0675949362113366e+00 2.3293704137593134e+00 
3464 3465 2 1.4218704307376302e+00 -1.3505891404942724e-01 1.0000000000000000e+00 1.2433946968810686e+01 4.7043539573863091e+00 1.7670349481732319e+00 
4471 4472 2 1.4218704307376302e+00 -1.1187205857200394e-01 1.0000000000000000e+00 2.1298639395147063e+00 6.3328551483328033e+00 2.1039825628481159e+00 
3485 3486 2 1.4218704307376302e+00 -1.3470155017242455e-01 1.0000000000000000e+00 2.8523000247650799e+01 6.6297782849435878e+00 2.5438425855636084e+00 
4273 4274 2 1.4218704307376302e+00 -1.1183963592281121e-01 1.0000000000000000e+00 4.2286504978559689e+00 8.6508828767727799e+00 1.3733533265905062e+00 
3654 3655 2 1.4218704307376302e+00 -1.1124854476599030e-01 1.0000000000000000e+00 1.2285774998210561e+01 8.6328498266650886e+00 1.6069578572067011e+00 
182 183 2 1.4218704307376302e+00 -1.1207841264647386e-01 1.0000000000000000e+00 1.4932639345333135e+01 8.2255594850716278e+00 2.5173349772617004e+00 
2835 2836 2 1.4218704307376302e+00 -1.3452098166573848e-01 1.0000000000000000e+00 2.4709614496667282e+01 8.1846958795425078e+00 1.9848988506926060e+00 
208 209 2 1.4218704307376302e+00 -1.1184989401861159e-01 1.0000000000000000e+00 3.2970277881535772e+01 8.7135017786221969e+00 2.0667077728361662e+00 
248 249 2 1.4218704307376302e+00 -1.1173783961787195e-01 1.0000000000000000e+00 2.7064062694999869e+01 1.0197267267447726e+01 2.3064678813073143e+00 
3348 3349 2 1.4218704335231824e+00 -1.3012020230291613e-01 1.0000000000000000e+00 8.6383851765410196e+00 1.1703026400529797e+01 1.5328446959083299e+00 
4428 4429 2 1.4218704307376302e+00 -1.1177536404883801e-01 1.0000000000000000e+00 6.1232204390525728e+00 1.2123714878965961e+01 2.1555007948780371e+00 
3092 3093 2 1.4218704307376302e+00 -1.3474312283907078e-01 1.0000000000000000e+00 1.2212002430221549e+01 1.2280242552645035e+01 1.9357839682180142e+00 
3597 3598 2 1.4218704307376302e+00 -1.3436594520387424e-01 1.0000000000000000e+00 3.1854807667232961e+01 1.2247203615001528e+01 2.3669554897839395e+00 
913 914 2 1.4218704307376302e+00 -1.1179319381772178e-01 1.0000000000000000e+00 9.5469924377210291e-01 1.4551717070777956e+01 2.0911215689267890e+00 
619 620 2 1.4218704307376302e+00 -1.3436834416197210e-01 1.0000000000000000e+00 3.5546921424026969e+00 1.4367770198171701e+01 1.8771500281573776e+00 
3441 3442 2 1.4218704307376302e+00 -1.3401086104417517e-01 1.0000000000000000e+00 1.2051865825114259e+01 1.4582914166799004e+01 2.4868128048717675e+00 
1173 1174 2 1.4218704307376302e+00 -1.3480462640204416e-01 1.0000000000000000e+00 1.4054468353913814e+01 1.4814892887441566e+01 2.5382046775854343e+00 
4373 4374 2 1.4218704395238395e+00 -9.3515156773852484e-02 1.0000000000000000e+00 1.7283441131342265e+01 1.7043244994062189e+01 1.9873506522010180e+00 
1152 1153 2 1.4218704307376302e+00 -1.3474386975230412e-01 1.0000000000000000e+00 2.6864238344418638e+01 1.6294141104223080e+01 2.3376121868536122e+00 
1268 1269 2 1.4218704307376302e+00 -1.3475492622748755e-01 1.0000000000000000e+00 2.0702856965267959e+01 1.7347877226735317e+01 1.8637710779546435e+00 
2692 2693 2 1.4218704307376302e+00 -1.3476218199969445e-01 1.0000000000000000e+00 1.1282135090438937e+01 1.9028539181361385e+01 2.4509795451915481e+00 
4007 4008 2 1.4218704307376302e+00 -1.3427094842138707e-01 1.0000000000000000e+00 5.7563094395274081e+00 9.9150384435216687e-01 3.0049122358656892e+00 
1430 1431 2 1.4218704307376302e+00 -1.3435104750239266e-01 1.0000000000000000e+00 1.7475759252246403e+00 2.3866081565907593e+00 3.0991079558196941e+00 
1755 1756 2 1.4218704307376302e+00 -1.3470765917159244e-01 1.0000000000000000e+00 2.0148168057414860e+01 2.6462068175655635e+00 3.6378704079024331e+00 
3952 3953 2 1.4218704307376302e+00 -1.3487373619642612e-01 1.0000000000000000e+00 2.7210516044246162e+01 1.6669699659506694e+00 3.0394168936034296e+00 
2744 2745 2 1.4218704307376302e+00 -1.1194093068864255e-01 1.0000000000000000e+00 7.4572187135272019e+00 5.2372292165138070e+00 3.7389757645847590e+00 
143 144 2 1.4218704307376302e+00 -1.1190665571171134e-01 1.0000000000000000e+00 1.7319540478592046e+01 5.0841472054542098e+00 3.7285631934453289e+00 
1749 1750 2 1.4218704307376302e+00 -1.3475692263581671e-01 1.0000000000000000e+00 1.9328943939148466e+01 4.7883829341797233e+00 2.7562638614420893e+00 
321 322 2 1.4218704307376302e+00 -1.1160321395562607e-01 1.0000000000000000e+00 4.2666402723063896e+00 6.2414244974793975e+00 3.1130275145735995e+00 
4280 4281 2 1.4218704307376302e+00 -1.1189484029599683e-01 1.0000000000000000e+00 3.2878535390533699e+01 5.9630433690934330e+00 3.9903660184190008e+00 
805 806 2 1.4218704307376302e+00 -1.3489673348164694e-01 1.0000000000000000e+00 6.1857362477284497e+00 7.3258296168453425e+00 2.9160393412053804e+00 
1361 1362 2 1.4218704307376302e+00 -1.1168493592708972e-01 1.0000000000000000e+00 2.1239032311948829e+01 7.9429557380385845e+00 3.1240883803171058e+00 
573 574 2 1.4218704307376302e+00 -1.3477887036677932e-01 1.0000000000000000e+00 3.0568091057030024e+01 7.0532297303298250e+00 3.9762097308389794e+00 
1718 1719 2 1.4218704307376302e+00 -1.3465499180194160e-01 1.0000000000000000e+00 7.6195012395757633e+00 1.0555177604459548e+01 2.8906427106620916e+00 
1187 1188 2 1.4218704307376302e+00 -1.3469226710128809e-01 1.0000000000000000e+00 1.0286024192388860e+01 1.0453284284566864e+01 3.6554286510620182e+00 
872 873 2 1.4218704307376302e+00 -1.3445822050314851e-01 1.0000000000000000e+00 2.3048985666860641e+01 9.5527601181955504e+00 2.7229354071812857e+00 
3991 3992 2 1.4218704307376302e+00 -1.1168612714183379e-01 1.0000000000000000e+00 4.8619931966518477e+00 1.1074145193844698e+01 3.7225656165185712e+00 
2817 2818 2 1.4218704307376302e+00 -1.3471453310243503e-01 1.0000000000000000e+00 2.0740580964367471e+01 1.1189760077850943e+01 2.8952730041464605e+00 
859 860 2 1.4218704307376302e+00 -1.3492152889665032e-01 1.0000000000000000e+00 2.4118957484940168e+01 1.1088624257314130e+01 3.4817752532673061e+00 
1484 1485 2 1.4218704307376302e+00 -1.3469159732773503e-01 1.0000000000000000e+00 2.8896746612398978e+01 1.1133656850892605e+01 3.3280233293950099e+00 
1053 1054 2 1.4218704335231824e+00 -1.2989365908349096e-01 1.0000000000000000e+00 7.9061205316372574e+00 1.3108919431045331e+01 2.7592076389492455e+00 
4608 4609 2 1.4218704307376302e+00 -8.9063447963883657e-02 1.0000000000000000e+00 2.8671817548615799e+01 1.4436559372783261e+01 3.8547102616160149e+00 
3828 3829 2 1.4218704307376302e+00 -1.3431558873224100e-01 1.0000000000000000e+00 3.2484899863529442e+01 1.4558246402532356e+01 3.3123433972397054e+00 
1917 1918 2 1.4218704307376302e+00 -1.3459545959885169e-01 1.0000000000000000e+00 4.0591509000864647e+00 1.5795121346829866e+01 3.9048154588573443e+00 
1533 1534 2 1.4218704307376302e+00 -1.3476695851944467e-01 1.0000000000000000e+00 1.5829807943783363e+01 1.5740395768286495e+01 2.9161043751408529e+00 
1273 1274 2 1.4218704307376302e+00 -1.3468233194062351e-01 1.0000000000000000e+00 2.1287495480032785e+01 1.4808049650270807e+01 3.6133730354238685e+00 
2827 2828 2 1.4218704307376302e+00 -1.3480908919678827e-01 1.0000000000000000e+00 2.3832734858328759e+01 1.6498063824181763e+01 2.9567396388329041e+00 
4346 4347 2 1.4218704309061168e+00 -1.1144522292427014e-01 1.0000000000000000e+00 3.0278561812850199e+01 1.6463466244338864e+01 3.8858963591419342e+00 
2119 2120 2 1.4218704395238395e+00 -1.1671071694276282e-01 1.0000000000000000e+00 1.7021839697048087e+01 1.8575982686176449e+01 3.2463959041625947e+00 
2380 2381 2 1.4218704307376302e+00 -1.3445393091347735e-01 1.0000000000000000e+00 2.4646869536906820e+01 1.8949328005047231e+01 3.4941694041015094e+00 
2811 2812 2 1.4218704307376302e+00 -1.1157835765826891e-01 1.0000000000000000e+00 1.3198590835016693e+01 4.4227890744213416e-01 4.1887906037831577e+00 
2465 2466 2 1.4218704307376302e+00 -1.3450108117433723e-01 1.0000000000000000e+00 2.9299861503979766e+01 8.5918414031303192e-01 4.5214462939874114e+00 
3295 3296 2 1.4218704307376302e+00 -1.3487187930355365e-01 1.0000000000000000e+00 1.5378037468086529e+00 3.9264255129766665e+00 4.4501093744730191e+00 
1058 1059 2 1.4218704307376302e+00 -1.3452460118448006e-01 1.0000000000000000e+00 4.0625795501147826e+00 3.4597874866781848e+00 4.0945518711256588e+00 
651 652 2 1.4218704307376302e+00 -1.3482941815410207e-01 1.0000000000000000e+00 1.3942480737364303e+01 4.4778539939767796e+00 5.0790259518923868e+00 
3248 3249 2 1.4218704307376302e+00 -1.1199723211957302e-01 1.0000000000000000e+00 3.1421503325495557e+01 4.3832600118500809e+00 4.2157445012935728e+00 
89 90 2 1.4218704307376302e+00 -1.1204228903646726e-01 1.0000000000000000e+00 7.8218645032010219e+00 7.3800983619756790e+00 4.5726533468144996e+00 
3066 3067 2 1.4218704307376302e+00 -1.1162217400138438e-01 1.0000000000000000e+00 1.7250190210939902e+01 7.6673293516758942e+00 5.2727941753991301e+00 
1381 1382 2 1.4218704307376302e+00 -1.1188524636319847e-01 1.0000000000000000e+00 2.0539934367142017e+01 6.8886817139029182e+00 5.2829407499758325e+00 
2485 2486 2 1.4218704307376302e+00 -1.3498295082532330e-01 1.0000000000000000e+00 2.3953885937947302e+01 7.0498822691029535e+00 4.8680891475390675e+00 
2510 2511 2 1.4218704307376302e+00 -1.3475392922604135e-01 1.0000000000000000e+00 2.2514287010210752e+00 9.0336799847316733e+00 4.8537878130401610e+00 
1908 1909 2 1.4218704307376302e+00 -1.3455936503514374e-01 1.0000000000000000e+00 1.4399427630497346e+01 9.6610585432737857e+00 5.3170115844641614e+00 
2588 2589 2 1.4218704307376302e+00 -1.3480128130780916e-01 1.0000000000000000e+00 1.8106858341231796e+01 1.0033187191018060e+01 4.8909913079845149e+00 
2753 2754 2 1.4218704307376302e+00 -1.1175500302945414e-01 1.0000000000000000e+00 2.5044668217103574e+01 1.0106134242615527e+01 5.0886942020530501e+00 
2672 2673 2 1.4218704307376302e+00 -1.3463012154028905e-01 1.0000000000000000e+00 3.1230995745067982e+01 1.0761633387083640e+01 4.5038201970465623e+00 
1947 1948 2 1.4218704307376302e+00 -1.3451028823816466e-01 1.0000000000000000e+00 1.3498542791277025e+01 1.2383818424712228e+01 5.2475212658907751e+00 
2032 2033 2 1.4218704307376302e+00 -1.3491246257605632e-01 1.0000000000000000e+00 2.2476767421609900e+01 1.2023052919104090e+01 4.1696008633564388e+00 
3783 3784 2 1.4218704307376302e+00 -1.3453607339835322e-01 1.0000000000000000e+00 2.6926375356405284e+01 1.2598250759335640e+01 4.0321510262213982e+00 
1047 1048 2 1.4218704307376302e+00 -1.3467880883128391e-01 1.0000000000000000e+00 1.6232471652718599e+00 1.3380147678862562e+01 5.2295144061839567e+00 
1532 1533 2 1.4218704307376302e+00 -1.3472533149419633e-01 1.0000000000000000e+00 1.6705895996077516e+01 1.3353636273569808e+01 4.6734007352158322e+00 
965 966 2 1.4218704307376302e+00 -1.1160278591061762e-01 1.0000000000000000e+00 2.5478202655980837e+01 1.4111020103452372e+01 5.2896318809736291e+00 
2030 2031 2 1.4218704307376302e+00 -1.3472291444036036e-01 1.0000000000000000e+00 3.0747451181114286e+01 1.4012662832193849e+01 4.3476095926120797e+00 
3803 3804 2 1.4218704307376302e+00 -1.3471582674080457e-01 1.0000000000000000e+00 1.0445657432975587e+01 1.6115366863405828e+01 4.2895294172901819e+00 
4354 4355 2 1.4218704307376302e+00 -1.1185566883318201e-01 1.0000000000000000e+00 3.2282187597194714e+01 1.6727549896026780e+01 4.1407175420347322e+00 
793 794 2 1.4218704307376302e+00 -1.3433828549685559e-01 1.0000000000000000e+00 3.2944614175130891e+00 1.8748176650949834e+01 5.0559838388934804e+00 
1869 1870 2 1.4218704307376302e+00 -1.1173756408443630e-01 1.0000000000000000e+00 2.0873884218487461e+01 1.9214898625519794e+01 4.3468836344123796e+00 
1751 1752 2 1.4218704307376302e+00 -1.3489463319063472e-01 1.0000000000000000e+00 5.8312626417720326e+00 9.4120243335647302e-01 5.4921039427169926e+00 
1407 1408 2 1.4218704307376302e+00 -1.1168044136678829e-01 1.0000000000000000e+00 2.7365491630099068e+01 1.1559354937897076e-01 6.2385647252450838e+00 
3313 3314 2 1.4218704307376302e+00 -1.3451291708243340e-01 1.0000000000000000e+00 1.0841575936808535e+01 1.4744574410779259e+00 6.3909443626417062e+00 
2738 2739 2 1.4218704307376302e+00 -1.1155929979512047e-01 1.0000000000000000e+00 2.8213608544347803e+01 2.0755992702567285e+00 6.5354726682849851e+00 
955 956 2 1.4218704307376302e+00 -1.1182189048117838e-01 1.0000000000000000e+00 2.4329755424128628e+01 2.7922670400299556e+00 6.3575454740788055e+00 
776 777 2 1.4218704307376302e+00 -1.3467759980688573e-01 1.0000000000000000e+00 1.1970140095321190e+01 5.2497848928027961e+00 6.6516130255176087e+00 
242 243 2 1.4218704307376302e+00 -1.1191702562715602e-01 1.0000000000000000e+00 9.4546518093163190e+00 7.4203591285397232e+00 6.0002280108506891e+00 
2740 2741 2 1.4218704307376302e+00 -1.1177076395525004e-01 1.0000000000000000e+00 2.8673552560054141e+01 6.7425892304396555e+00 5.3505657233196642e+00 
2145 2146 2 1.4218704307376302e+00 -1.3466355964649179e-01 1.0000000000000000e+00 2.9437471737238209e+01 9.0976571877233798e+00 6.1768244617779828e+00 
2314 2315 2 1.4218704307376302e+00 -1.1180015823552961e-01 1.0000000000000000e+00 5.9795749211481350e+00 1.0421820203534288e+01 6.4492450651656146e+00 
2530 2531 2 1.4218704307376302e+00 -1.3455599227464779e-01 1.0000000000000000e+00 8.2341188375535310e+00 9.8255257504675662e+00 5.5139532485160530e+00 
3255 3256 2 1.4218704307376302e+00 -1.1169005354699614e-01 1.0000000000000000e+00 4.5274423291325903e+00 1.3303559212552820e+01 5.6872745660155077e+00 
371 372 2 1.4218704307376302e+00 -1.1199539520571379e-01 1.0000000000000000e+00 1.5134185682278423e+01 1.3115073078556378e+01 6.5965848257471018e+00 
2417 2418 2 1.4218704307376302e+00 -1.3487723820810840e-01 1.0000000000000000e+00 9.0157685702497741e+00 1.3347607405009727e+01 5.5144664668104388e+00 
3138 3139 2 1.4218704307376302e+00 -1.3478881709594570e-01 1.0000000000000000e+00 5.4773584746812096e+00 1.5782917983456748e+01 6.6090775923813450e+00 
3124 3125 2 1.4218704307376302e+00 -1.3498774728074633e-01 1.0000000000000000e+00 2.3459584293748854e+00 1.6579530379438246e+01 6.1267584080982074e+00 
3679 3680 2 1.4218704307376302e+00 -1.1170407299375260e-01 1.0000000000000000e+00 8.3996551112246802e+00 1.7245298810388899e+01 5.5890569592887482e+00 
4023 4024 2 1.4218704307376302e+00 -1.3444996698263190e-01 1.0000000000000000e+00 1.2898159884980382e+01 1.6584945679981473e+01 5.5732976358759929e+00 
4330 4331 2 1.4218704309061168e+00 -1.1111711202731003e-01 1.0000000000000000e+00 2.8933642005107682e+01 1.6727174387966247e+01 5.3523188453787638e+00 
563 564 2 1.4218704307376302e+00 -1.3453379002290500e-01 1.0000000000000000e+00 2.2120249852254350e+01 1.7612883732291436e+01 5.4803232034040823e+00 
3091 3092 2 1.4218704307376302e+00 -1.3451079645989081e-01 1.0000000000000000e+00 1.5898011532091688e+01 1.8682443010471303e+01 6.4145245248830323e+00 
2035 2036 2 1.4218704307376302e+00 -1.3464284756703718e-01 1.0000000000000000e+00 3.0324779993822119e+01 1.9957140409080555e+01 6.5563444546177578e+00 
4470 4471 2 1.4218704307376302e+00 -1.1158505136557292e-01 1.0000000000000000e+00 2.0197028960857562e+01 1.2786049181411174e+00 7.5734000242558261e+00 
4304 4305 2 1.4218704307376302e+00 -1.1218069389104331e-01 1.0000000000000000e+00 2.4567197055471137e+01 8.8146281103918023e-01 7.8112287879094158e+00 
1475 1476 2 1.4218704307376302e+00 -1.3458484855313391e-01 1.0000000000000000e+00 6.7874274084880259e-01 1.9978209792628925e+00 7.7263385713463224e+00 
1981 1982 2 1.4218704307376302e+00 -1.3459226912684322e-01 1.0000000000000000e+00 7.2733012595236950e+00 1.6498717951595796e+00 6.9901855770013128e+00 
445 446 2 1.4218704307376302e+00 -8.8753629107987550e-02 1.0000000000000000e+00 8.5340067532796020e+00 4.1193766903280418e+00 7.0083348567076049e+00 
3575 3576 2 1.4218704307376302e+00 -1.3491137404220263e-01 1.0000000000000000e+00 1.3438551018241006e+01 4.2533521598314303e+00 7.9298614764163693e+00 
1801 1802 2 1.4218704307376302e+00 -1.3481363864771828e-01 1.0000000000000000e+00 3.1977676203645750e+01 4.5590227660431832e+00 7.9521201033332733e+00 
3065 3066 2 1.4218704307376302e+00 -1.3480437551980279e-01 1.0000000000000000e+00 8.6369994551720719e-01 6.6637877373690682e+00 7.3477124022750928e+00 
682 683 2 1.4218704307376302e+00 -1.3484729808929713e-01 1.0000000000000000e+00 2.0719604367202141e+01 5.9499637219310664e+00 7.2401112790035924e+00 
1585 1586 2 1.4218704307376302e+00 -1.3485424198017038e-01 1.0000000000000000e+00 6.4175740506368868e+00 7.2029622974731824e+00 7.2644395448343140e+00 
2372 2373 2 1.4218704307376302e+00 -1.3486079031517764e-01 1.0000000000000000e+00 2.4437508659348371e+01 7.8856762436456318e+00 7.4449379053997848e+00 
824 825 2 1.4218704307376302e+00 -1.3469779287397440e-01 1.0000000000000000e+00 1.1946990722706158e+01 8.7399829281318819e+00 7.1892759930551087e+00 
3242 3243 2 1.4218704307376302e+00 -1.1201244926982781e-01 1.0000000000000000e+00 1.9961664951736765e+01 9.3214931684056204e+00 7.1714830891005059e+00 
729 730 2 1.4218704307376302e+00 -1.3474730835099463e-01 1.0000000000000000e+00 2.8668008669227703e+01 1.0616737008868629e+01 7.6784673732152164e+00 
948 949 2 1.4218704307376302e+00 -1.1154615310750776e-01 1.0000000000000000e+00 1.7961124833359421e+00 1.1756043377606376e+01 7.1439698801474236e+00 
2283 2284 2 1.4218704307376302e+00 -1.1157463575339441e-01 1.0000000000000000e+00 1.8270026622911654e+01 1.1080146894237393e+01 6.9400422742416215e+00 
3690 3691 2 1.4218704307376302e+00 -1.1193981978771597e-01 1.0000000000000000e+00 2.2767955360062324e+01 1.0996715070062548e+01 7.5066828048112484e+00 
1767 1768 2 1.4218704307376302e+00 -1.3465844325771173e-01 1.0000000000000000e+00 1.9947703161275122e+01 1.3142817858705225e+01 6.8095374859160431e+00 
1434 1435 2 1.4218704307376302e+00 -1.3479542883859660e-01 1.0000000000000000e+00 1.3093446801782915e-01 1.4024861230269652e+01 7.3186540253840873e+00 
1334 1335 2 1.4218704307376302e+00 -1.3463265368629690e-01 1.0000000000000000e+00 2.1598754838224870e+00 1.4313438047465525e+01 7.0930936003065899e+00 
3968 3969 2 1.4218704307376302e+00 -1.3481999278920601e-01 1.0000000000000000e+00 8.0330178258958398e+00 1.4542300354412047e+01 7.6796402653751734e+00 
1263 1264 2 1.4218704307376302e+00 -1.3482494382010166e-01 1.0000000000000000e+00 3.0272175285511633e+01 1.3964693050783993e+01 7.7413328074819434e+00 
2924 2925 2 1.4218704307376302e+00 -1.3445557934954877e-01 1.0000000000000000e+00 2.7386154517134759e+01 1.4727069992185484e+01 7.1431833262498587e+00 
1419 1420 2 1.4218704307376302e+00 -1.1205316443886268e-01 1.0000000000000000e+00 2.2005711565752904e+01 1.6551512946850277e+01 7.8063841655121600e+00 
2641 2642 2 1.4218704307376302e+00 -1.3466557177151059e-01 1.0000000000000000e+00 5.8086861609822069e+00 1.8449376028810246e+01 6.7304631752081416e+00 
621 622 2 1.4218704307376302e+00 -1.3476876620664358e-01 1.0000000000000000e+00 3.4288191396887169e+00 1.9515370756420349e+01 7.9944529658144035e+00 
2949 2950 2 1.4218704307376302e+00 -1.3476229257228617e-01 1.0000000000000000e+00 1.4217646080578826e+01 1.9793064934943043e+01 7.1173378652761130e+00 
2318 2319 2 1.4218704307376302e+00 -1.1120858652945187e-01 1.0000000000000000e+00 2.4997420963055507e+01 1.9430292588011422e+01 7.3368279578411650e+00 
2557 2558 2 1.4218704307376302e+00 -1.3460295679843520e-01 1.0000000000000000e+00 3.2848278121416854e+01 1.9294769686384338e+01 6.9132052781384088e+00 
393 394 2 1.4218704307376302e+00 -1.1188124095425156e-01 1.0000000000000000e+00 3.1619023107806243e+00 8.9376824409475608e-01 8.4863661794969918e+00 
2211 2212 2 1.4218704307376302e+00 -1.3456980070178079e-01 1.0000000000000000e+00 2.9060385643421057e+01 8.5763426653227315e-01 8.6057786585865301e+00 
994 995 2 1.4218704307376302e+00 -1.3485997002301414e-01 1.0000000000000000e+00 2.0007160228936165e+00 4.0339707515169856e+00 8.5950804826915483e+00 
3568 3569 2 1.4218704307376302e+00 -1.3467370663557524e-01 1.0000000000000000e+00 1.9323234006754237e+01 4.5963263190793686e+00 8.2877970317398351e+00 
3808 3809 2 1.4218704307376302e+00 -1.3468590103854708e-01 1.0000000000000000e+00 2.5238383307167602e+01 4.2080770891616259e+00 8.0786134461884700e+00 
738 739 2 1.4218704307376302e+00 -1.3461942608141575e-01 1.0000000000000000e+00 1.2228718755740157e+01 6.6125891573292694e+00 8.3671597459611355e+00 
4137 4138 2 1.4218704307376302e+00 -1.1163098690189045e-01 1.0000000000000000e+00 2.2230550838405016e+01 7.3548628622950973e+00 8.1221888064237362e+00 
4226 4227 2 1.4218704307376302e+00 -1.1199317469119024e-01 1.0000000000000000e+00 2.5576660393493418e+00 8.1491021820047624e+00 8.3820425793530084e+00 
3768 3769 2 1.4218704307376302e+00 -1.3445623561147604e-01 1.0000000000000000e+00 9.8283153155406886e+00 1.1050085377040801e+01 8.9345284199136774e+00 
1437 1438 2 1.4218704307376302e+00 -1.3456852246354120e-01 1.0000000000000000e+00 1.2269373046456160e+01 1.1411720827496197e+01 8.5861985088888080e+00 
1191 1192 2 1.4218704307376302e+00 -1.3476765401424595e-01 1.0000000000000000e+00 6.0494110126502398e-01 1.2079756633057713e+01 8.7493786544756844e+00 
464 465 2 1.4218704307376302e+00 -1.1162700199898398e-01 1.0000000000000000e+00 1.0539461345161691e+01 1.3124884341187055e+01 8.7782216145135674e+00 
483 484 2 1.4218704307376302e+00 -1.1165985409071090e-01 1.0000000000000000e+00 1.3510436719424126e+01 1.4505276559714849e+01 8.7540827123197946e+00 
3586 3587 2 1.4218704307376302e+00 -1.3478454005577464e-01 1.0000000000000000e+00 1.5888812645216010e+01 1.5355180320270243e+01 8.9618668348141082e+00 
1606 1607 2 1.4218704307376302e+00 -1.3504217237278893e-01 1.0000000000000000e+00 2.0388531061351870e+01 1.5092184260468443e+01 9.2429574174914269e+00 
4258 4259 2 1.4218704307376302e+00 -1.1179421837666040e-01 1.0000000000000000e+00 4.5148918084918757e+00 1.6238524685423489e+01 8.5741354213543808e+00 
2701 2702 2 1.4218704307376302e+00 -1.3473148324764295e-01 1.0000000000000000e+00 6.5312533423673509e+00 1.7014055280912210e+01 9.2095860827672400e+00 
382 383 2 1.4218704307376302e+00 -1.1161248177472580e-01 1.0000000000000000e+00 8.6511844827857391e+00 1.7367617295807960e+01 8.5718744022130586e+00 
3217 3218 2 1.4218704307376302e+00 -1.1187290668260981e-01 1.0000000000000000e+00 1.1377281784843889e+01 1.8226129210867111e+01 8.7877162003642262e+00 
3453 3454 2 1.4218704307376302e+00 -1.3446150462608417e-01 1.0000000000000000e+00 2.0038067090276034e+01 1.9465275245074672e+01 8.4203933353208082e+00 
2474 2475 2 1.4218704307376302e+00 -1.3465771960661499e-01 1.0000000000000000e+00 4.2485511155258813e+00 1.5973701714951016e-01 1.0538607379639524e+01 
680 681 2 1.4218704307376302e+00 -1.3474217736835212e-01 1.0000000000000000e+00 1.5561887376400954e+01 1.4041334570868141e-01 1.0064490488012996e+01 
3642 3643 2 1.4218704307376302e+00 -1.3448850017831956e-01 1.0000000000000000e+00 2.5989188917835246e+01 8.8829953569318354e-01 1.0124211276120208e+01 
490 491 2 1.4218704307376302e+00 -1.1185049060279534e-01 1.0000000000000000e+00 5.0024564315615399e+00 1.9373967538206109e+00 9.8994787278137757e+00 
869 870 2 1.4218704307376302e+00 -1.3463184873196277e-01 1.0000000000000000e+00 9.5430042559267836e+00 1.6778580579180633e+00 9.8146905814637702e+00 
3494 3495 2 1.4218704307376302e+00 -1.3492037671379722e-01 1.0000000000000000e+00 3.1117599623129745e+01 2.4356916636153647e+00 1.0579636775133951e+01 
3665 3666 2 1.4218704307376302e+00 -1.1201106458820667e-01 1.0000000000000000e+00 2.3861198517178539e-01 3.6592746906461437e+00 1.0261066285216520e+01 
3402 3403 2 1.4218704307376302e+00 -1.1201689971724862e-01 1.0000000000000000e+00 4.5237859854031157e+00 4.5783415502611566e+00 1.0566640699673938e+01 
218 219 2 1.4218704307376302e+00 -1.1181820075264386e-01 1.0000000000000000e+00 2.8247836096948138e+01 4.0351993287147705e+00 1.0046701924998022e+01 
3591 3592 2 1.4218704307376302e+00 -1.3473712934155527e-01 1.0000000000000000e+00 1.9918749805176265e+01 6.4819894040887345e+00 9.4110016773471958e+00 
3633 3634 2 1.4218704307376302e+00 -1.3452594196140791e-01 1.0000000000000000e+00 1.4087967590988086e+00 7.3388896786838433e+00 9.9177184602041830e+00 
189 190 2 1.4218704307376302e+00 -1.1170788751501098e-01 1.0000000000000000e+00 1.5617539817980768e+01 7.3722279838611788e+00 1.0291790838957361e+01 
2076 2077 2 1.4218704307376302e+00 -1.3461843321396832e-01 1.0000000000000000e+00 3.1553547179815997e+01 7.2997241400909729e+00 1.0573102405906049e+01 
4403 4404 2 1.4218704307376302e+00 -1.1162995997864250e-01 1.0000000000000000e+00 1.9890878762068741e+01 8.4207649513098755e+00 1.0042705580516664e+01 
1116 1117 2 1.4218704307376302e+00 -1.3471744035721461e-01 1.0000000000000000e+00 1.7988920554266368e+01 9.6592846733454962e+00 1.0135943884628405e+01 
3753 3754 2 1.4218704307376302e+00 -1.3478636085864129e-01 1.0000000000000000e+00 2.5413476191311318e+01 9.3345302273949500e+00 1.0179391892523592e+01 
861 862 2 1.4218704307376302e+00 -1.3473935757895536e-01 1.0000000000000000e+00 6.0215245334580754e+00 1.1399128789979800e+01 9.9383416489296454e+00 
3562 3563 2 1.4218704307376302e+00 -1.3451131689042420e-01 1.0000000000000000e+00 4.6852819220100077e+00 1.4150349034755742e+01 9.6691297528085194e+00 