LAMMPS data file via write_data, version 30 Jul 2016, timestep = 50000000

180 atoms
2 atom types

0.0000000000000000e+00 2.0000000000000000e+01 xlo xhi
0.0000000000000000e+00 2.0000000000000000e+01 ylo yhi
0.0000000000000000e+00 2.0000000000000000e+01 zlo zhi

Masses

1 3.896
2 4.31

Atoms # meso-molecular

6 1 2 6.0177613402889163e-01 -5.9071631747369838e+02 1.0000000000000000e+00 6.6233466218360952e+00 1.6512744381289750e+01 1.2830544714168139e+01 
34 1 2 6.0177613402889163e-01 -5.9779574419880532e+02 1.0000000000000000e+00 6.6233466218361077e+00 1.6512744381289799e+01 1.2830544714168139e+01 
35 1 2 6.0177613402889163e-01 -4.5911700995484927e+02 1.0000000000000000e+00 6.6233466218360952e+00 1.6512744381289853e+01 1.2830544714168139e+01 
5 1 2 6.0177613402889163e-01 -4.5348194604941858e+02 1.0000000000000000e+00 6.6233466218360952e+00 1.6512744381289750e+01 1.2830544714168139e+01 
71 1 2 6.0177613402889163e-01 -4.8700352752434191e+02 1.0000000000000000e+00 6.6233466218360952e+00 1.6512744381289750e+01 1.2830544714168139e+01 
42 1 2 6.0177613402889163e-01 -5.9287819520025346e+02 1.0000000000000000e+00 6.6233466218360952e+00 1.6512744381289750e+01 1.2830544714168139e+01 
72 1 2 6.0177613402889163e-01 -5.5399261041439047e+02 1.0000000000000000e+00 6.6233466218360952e+00 1.6512744381289750e+01 1.2830544714168139e+01 
36 1 2 6.0177613402889163e-01 -5.8645184851866588e+02 1.0000000000000000e+00 6.6233466218360952e+00 1.6512744381289750e+01 1.2830544714168139e+01 
29 1 2 6.0177613402889163e-01 -5.3805974667453665e+02 1.0000000000000000e+00 6.6233466218360988e+00 1.6512744381289789e+01 1.2830544714168116e+01 
65 1 2 6.0177613402889163e-01 -5.4905090663141129e+02 1.0000000000000000e+00 6.6233466218361077e+00 1.6512744381289789e+01 1.2830544714168116e+01 
70 1 2 6.0177613402889163e-01 -5.0372634241002243e+02 1.0000000000000000e+00 6.6233466218360988e+00 1.6512744381289789e+01 1.2830544714168116e+01 
28 1 2 6.0177613402889163e-01 -4.7340934375530276e+02 1.0000000000000000e+00 6.6233466218360988e+00 1.6512744381289789e+01 1.2830544714168116e+01 
64 1 2 6.0177613402889163e-01 -4.1213999779089465e+02 1.0000000000000000e+00 6.6233466218360988e+00 1.6512744381289799e+01 1.2830544714168139e+01 
33 1 2 6.0177613402889163e-01 -5.9259550538531153e+02 1.0000000000000000e+00 6.6233466218360988e+00 1.6512744381289799e+01 1.2830544714168116e+01 
44 1 2 5.5879212445539939e-01 -5.4772273970583171e+02 1.0000000000000000e+00 6.9345166691065598e+00 4.5145167892256701e+00 4.2761153550930153e+00 
2 1 2 5.5879212445539939e-01 -4.2777959451967206e+02 1.0000000000000000e+00 6.9345166691065767e+00 4.5145167892256639e+00 4.2761153550930153e+00 
43 1 2 5.5879212445539939e-01 -6.5970439060308286e+02 1.0000000000000000e+00 6.9345166691065492e+00 4.5145167892256763e+00 4.2761153550930029e+00 
8 1 2 5.5879212445539939e-01 -5.2768794213457625e+02 1.0000000000000000e+00 6.9345166691065616e+00 4.5145167892256657e+00 4.2761153550930073e+00 
1 1 2 5.5879212445539939e-01 -6.1844857358459126e+02 1.0000000000000000e+00 6.9345166691065518e+00 4.5145167892256755e+00 4.2761153550930153e+00 
3 1 2 5.5879212445539939e-01 -5.4506874815963454e+02 1.0000000000000000e+00 6.9345166691065527e+00 4.5145167892256755e+00 4.2761153550930251e+00 
9 1 2 5.5879212445539939e-01 -5.8142854042676447e+02 1.0000000000000000e+00 6.9345166691065456e+00 4.5145167892256755e+00 4.2761153550930153e+00 
7 1 2 5.5879212445539939e-01 -8.0331025281089239e+02 1.0000000000000000e+00 6.9345166691065465e+00 4.5145167892256675e+00 4.2761153550930153e+00 
14 1 2 5.5879212445539939e-01 -5.4195850429443135e+02 1.0000000000000000e+00 6.9345166691065492e+00 4.5145167892256772e+00 4.2761153550930162e+00 
45 1 2 5.5879212445539939e-01 -4.0444703886470165e+02 1.0000000000000000e+00 6.9345166691065598e+00 4.5145167892256648e+00 4.2761153550930011e+00 
15 1 2 5.5879212445539939e-01 -4.1925683448987269e+02 1.0000000000000000e+00 6.9345166691065590e+00 4.5145167892256639e+00 4.2761153550930242e+00 
51 1 2 5.5879212445539939e-01 -3.5896290932994469e+02 1.0000000000000000e+00 6.9345166691065492e+00 4.5145167892256675e+00 4.2761153550930073e+00 
50 1 2 5.5879212445539939e-01 -3.7935918149552236e+02 1.0000000000000000e+00 6.9345166691065492e+00 4.5145167892256781e+00 4.2761153550930153e+00 
17 1 2 3.0088806701444587e-01 -5.0920879684878366e+02 1.0000000000000000e+00 6.7042479271963646e+00 9.3904188254794096e+00 9.5155507693263477e+00 
57 1 2 3.0088806701444587e-01 -3.9970453896681539e+02 1.0000000000000000e+00 6.7042479271963691e+00 9.3904188254794096e+00 9.5155507693263708e+00 
58 1 2 3.0088806701444587e-01 -3.9949196374590838e+02 1.0000000000000000e+00 6.7042479271963638e+00 9.3904188254794096e+00 9.5155507693263637e+00 
16 1 2 3.0088806701444587e-01 -4.1407863978909489e+02 1.0000000000000000e+00 6.7042479271963646e+00 9.3904188254794096e+00 9.5155507693263637e+00 
52 1 2 3.0088806701444587e-01 -3.5446885331340468e+02 1.0000000000000000e+00 6.7042479271963691e+00 9.3904188254794096e+00 9.5155507693263583e+00 
21 1 2 3.0088806701444587e-01 -5.0999929485989423e+02 1.0000000000000000e+00 6.7042479271963646e+00 9.3904188254794096e+00 9.5155507693263406e+00 
22 1 2 3.0088806701444587e-01 -6.0515397815704296e+02 1.0000000000000000e+00 6.7042479271963646e+00 9.3904188254794096e+00 9.5155507693263477e+00 
40 1 2 3.8685608616143036e-01 -3.9288642497172566e+02 1.0000000000000000e+00 7.8587949384379820e+00 2.9524891004518121e+00 1.1321390482782123e+01 
41 1 2 3.8685608616143036e-01 -3.8561377018817410e+02 1.0000000000000000e+00 7.8587949384379820e+00 2.9524891004518183e+00 1.1321390482782123e+01 
47 1 2 3.8685608616143036e-01 -3.6896456309849623e+02 1.0000000000000000e+00 7.8587949384379820e+00 2.9524891004518126e+00 1.1321390482782123e+01 
82 1 2 3.8685608616143036e-01 -4.6731092052308810e+02 1.0000000000000000e+00 7.8587949384379820e+00 2.9524891004518126e+00 1.1321390482782133e+01 
46 1 2 3.8685608616143036e-01 -3.5120041581334323e+02 1.0000000000000000e+00 7.8587949384379820e+00 2.9524891004518188e+00 1.1321390482782125e+01 
11 1 2 3.8685608616143036e-01 -3.5678087749762972e+02 1.0000000000000000e+00 7.8587949384379820e+00 2.9524891004518241e+00 1.1321390482782141e+01 
4 1 2 3.8685608616143036e-01 -4.0088868278826317e+02 1.0000000000000000e+00 7.8587949384379820e+00 2.9524891004518121e+00 1.1321390482782123e+01 
10 1 2 3.8685608616143036e-01 -4.0965577152030517e+02 1.0000000000000000e+00 7.8587949384379820e+00 2.9524891004518188e+00 1.1321390482782133e+01 
39 1 2 3.8685608616143036e-01 -3.4911442095744428e+02 1.0000000000000000e+00 7.8587949384379820e+00 2.9524891004518188e+00 1.1321390482782125e+01 
23 1 2 9.0266420104333733e-01 -4.0569455458833755e+02 1.0000000000000000e+00 9.0938252304106104e+00 9.3219069287006189e+00 1.7409155644358282e+01 
24 1 2 9.0266420104333733e-01 -4.7369829059585197e+02 1.0000000000000000e+00 9.0938252304105340e+00 9.3219069287006349e+00 1.7409155644358378e+01 
59 1 2 9.0266420104333733e-01 -5.4674139151383349e+02 1.0000000000000000e+00 9.0938252304105163e+00 9.3219069287006207e+00 1.7409155644358400e+01 
96 1 2 9.0266420104333733e-01 -5.1908760088100985e+02 1.0000000000000000e+00 9.0938252304105287e+00 9.3219069287006029e+00 1.7409155644358318e+01 
18 1 2 9.0266420104333733e-01 -7.8216768351709652e+02 1.0000000000000000e+00 9.0938252304105980e+00 9.3219069287005958e+00 1.7409155644358215e+01 
91 1 2 9.0266420104333733e-01 -6.1900739399770168e+02 1.0000000000000000e+00 9.0938252304104594e+00 9.3219069287006349e+00 1.7409155644358364e+01 
60 1 2 9.0266420104333733e-01 -6.4199059578797130e+02 1.0000000000000000e+00 9.0938252304105696e+00 9.3219069287006118e+00 1.7409155644358542e+01 
54 1 2 9.0266420104333733e-01 -6.0647792657823243e+02 1.0000000000000000e+00 9.0938252304105838e+00 9.3219069287006295e+00 1.7409155644358357e+01 
90 1 2 9.0266420104333733e-01 -4.7563912161552389e+02 1.0000000000000000e+00 9.0938252304105287e+00 9.3219069287006420e+00 1.7409155644358364e+01 
95 1 2 9.0266420104333733e-01 -4.7892719666168654e+02 1.0000000000000000e+00 9.0938252304104470e+00 9.3219069287006242e+00 1.7409155644358343e+01 
53 1 2 9.0266420104333733e-01 -4.8962596318595757e+02 1.0000000000000000e+00 9.0938252304104648e+00 9.3219069287006313e+00 1.7409155644358510e+01 
89 1 2 9.0266420104333733e-01 -4.4405442520647841e+02 1.0000000000000000e+00 9.0938252304105287e+00 9.3219069287006100e+00 1.7409155644358442e+01 
85 1 2 9.0266420104333733e-01 -3.6632960470458875e+02 1.0000000000000000e+00 9.0938252304105163e+00 9.3219069287006171e+00 1.7409155644358474e+01 
102 1 2 9.0266420104333733e-01 -6.1591049367249002e+02 1.0000000000000000e+00 9.0938252304105749e+00 9.3219069287006455e+00 1.7409155644358268e+01 
97 1 2 9.0266420104333733e-01 -6.1990358608475015e+02 1.0000000000000000e+00 9.0938252304105589e+00 9.3219069287006135e+00 1.7409155644358538e+01 
66 1 2 9.0266420104333733e-01 -7.8736962234446025e+02 1.0000000000000000e+00 9.0938252304105394e+00 9.3219069287006278e+00 1.7409155644358378e+01 
12 1 2 9.0266420104333733e-01 -8.1920647170124789e+02 1.0000000000000000e+00 9.0938252304104648e+00 9.3219069287006047e+00 1.7409155644358364e+01 
13 1 2 9.0266420104333733e-01 -6.3896934281523215e+02 1.0000000000000000e+00 9.0938252304104434e+00 9.3219069287006278e+00 1.7409155644358311e+01 
55 1 2 9.0266420104333733e-01 -4.5763800955844982e+02 1.0000000000000000e+00 9.0938252304104985e+00 9.3219069287006580e+00 1.7409155644358371e+01 
49 1 2 9.0266420104333733e-01 -5.2235530840173533e+02 1.0000000000000000e+00 9.0938252304105696e+00 9.3219069287006295e+00 1.7409155644358290e+01 
30 1 2 9.0266420104333733e-01 -4.7562861021100622e+02 1.0000000000000000e+00 9.0938252304105589e+00 9.3219069287005993e+00 1.7409155644358346e+01 
19 1 2 8.5968019146984509e-01 -3.9769788681385603e+02 1.0000000000000000e+00 7.6787232763633462e+00 1.5541993153463682e+01 4.2357640630412243e+00 
20 1 2 8.5968019146984509e-01 -4.7194952686552870e+02 1.0000000000000000e+00 7.6787232763633408e+00 1.5541993153463716e+01 4.2357640630412154e+00 
56 1 2 8.5968019146984509e-01 -4.8908250193211165e+02 1.0000000000000000e+00 7.6787232763633861e+00 1.5541993153463658e+01 4.2357640630412430e+00 
61 1 2 8.5968019146984509e-01 -4.8891197423091484e+02 1.0000000000000000e+00 7.6787232763633426e+00 1.5541993153463643e+01 4.2357640630412128e+00 
25 1 2 8.5968019146984509e-01 -5.8308516479425111e+02 1.0000000000000000e+00 7.6787232763633826e+00 1.5541993153463640e+01 4.2357640630411986e+00 
26 1 2 8.5968019146984509e-01 -5.1045012209401364e+02 1.0000000000000000e+00 7.6787232763633595e+00 1.5541993153463656e+01 4.2357640630412199e+00 
62 1 2 8.5968019146984509e-01 -5.3232949364058675e+02 1.0000000000000000e+00 7.6787232763633302e+00 1.5541993153463645e+01 4.2357640630412163e+00 
27 1 2 8.5968019146984509e-01 -5.8377256578363347e+02 1.0000000000000000e+00 7.6787232763633595e+00 1.5541993153463597e+01 4.2357640630412092e+00 
67 1 2 8.5968019146984509e-01 -5.9807503295273852e+02 1.0000000000000000e+00 7.6787232763633986e+00 1.5541993153463636e+01 4.2357640630412048e+00 
68 1 2 8.5968019146984509e-01 -5.6997849937855005e+02 1.0000000000000000e+00 7.6787232763633533e+00 1.5541993153463702e+01 4.2357640630411817e+00 
103 1 2 8.5968019146984509e-01 -4.9728689525882839e+02 1.0000000000000000e+00 7.6787232763633817e+00 1.5541993153463649e+01 4.2357640630412163e+00 
104 1 2 8.5968019146984509e-01 -5.1458363052860443e+02 1.0000000000000000e+00 7.6787232763633329e+00 1.5541993153463663e+01 4.2357640630411888e+00 
37 1 2 8.5968019146984509e-01 -5.9742951514976767e+02 1.0000000000000000e+00 7.6787232763633657e+00 1.5541993153463663e+01 4.2357640630412234e+00 
74 1 2 8.5968019146984509e-01 -5.4312802064191817e+02 1.0000000000000000e+00 7.6787232763633604e+00 1.5541993153463665e+01 4.2357640630412181e+00 
38 1 2 8.5968019146984509e-01 -5.0146329942855630e+02 1.0000000000000000e+00 7.6787232763633453e+00 1.5541993153463643e+01 4.2357640630412163e+00 
32 1 2 8.5968019146984509e-01 -7.1140164710254510e+02 1.0000000000000000e+00 7.6787232763633799e+00 1.5541993153463597e+01 4.2357640630412181e+00 
31 1 2 8.5968019146984509e-01 -7.4783978859638307e+02 1.0000000000000000e+00 7.6787232763633986e+00 1.5541993153463643e+01 4.2357640630412234e+00 
69 1 2 8.5968019146984509e-01 -5.7582650806005677e+02 1.0000000000000000e+00 7.6787232763633826e+00 1.5541993153463658e+01 4.2357640630411808e+00 
105 1 2 8.5968019146984509e-01 -4.2815876920701635e+02 1.0000000000000000e+00 7.6787232763633630e+00 1.5541993153463601e+01 4.2357640630412270e+00 
63 1 2 8.5968019146984509e-01 -4.1889058935708266e+02 1.0000000000000000e+00 7.6787232763633737e+00 1.5541993153463654e+01 4.2357640630412217e+00 
161 1 2 1.0279990760736570e+00 -7.2016751990800037e+02 1.0000000000000000e+00 1.3122572526263813e+01 1.9407272302956397e+01 1.5004087639881169e+01 
160 1 2 1.0279990760736570e+00 -5.7182296401802409e+02 1.0000000000000000e+00 1.3122572526263813e+01 1.9407272302956397e+01 1.5004087639881169e+01 
131 1 2 1.0279990760736570e+00 -4.7783109091811178e+02 1.0000000000000000e+00 1.3122572526263813e+01 1.9407272302956397e+01 1.5004087639881169e+01 
125 1 2 1.0279990760736570e+00 -6.0096569943090935e+02 1.0000000000000000e+00 1.3122572526263813e+01 1.9407272302956397e+01 1.5004087639881169e+01 
124 1 2 1.0279990760736570e+00 -3.2925615632220922e+02 1.0000000000000000e+00 1.3122572526263813e+01 1.9407272302956397e+01 1.5004087639881169e+01 
155 1 2 1.0279990760736570e+00 -7.0954969305476175e+02 1.0000000000000000e+00 1.3122572526263813e+01 1.9407272302956397e+01 1.5004087639881169e+01 
119 1 2 1.0279990760736570e+00 -7.1556598383519508e+02 1.0000000000000000e+00 1.3122572526263813e+01 1.9407272302956397e+01 1.5004087639881169e+01 
120 1 2 1.0279990760736570e+00 -6.6814767486398182e+02 1.0000000000000000e+00 1.3122572526263813e+01 1.9407272302956397e+01 1.5004087639881169e+01 
149 1 2 1.0279990760736570e+00 -6.0263460183278801e+02 1.0000000000000000e+00 1.3122572526263813e+01 1.9407272302956397e+01 1.5004087639881169e+01 
113 1 2 1.0279990760736570e+00 -5.7433692073222107e+02 1.0000000000000000e+00 1.3122572526263813e+01 1.9407272302956397e+01 1.5004087639881169e+01 
78 1 2 1.0279990760736570e+00 -5.6355706999386155e+02 1.0000000000000000e+00 1.3122572526263813e+01 1.9407272302956397e+01 1.5004087639881169e+01 
83 1 2 1.0279990760736570e+00 -5.2007715956614641e+02 1.0000000000000000e+00 1.3122572526263813e+01 1.9407272302956397e+01 1.5004087639881169e+01 
76 1 2 1.0279990760736570e+00 -4.8498995212488342e+02 1.0000000000000000e+00 1.3122572526263813e+01 1.9407272302956397e+01 1.5004087639881169e+01 
77 1 2 1.0279990760736570e+00 -4.7178988898267562e+02 1.0000000000000000e+00 1.3122572526263813e+01 1.9407272302956397e+01 1.5004087639881169e+01 
88 1 2 1.0279990760736570e+00 -4.2820348647292337e+02 1.0000000000000000e+00 1.3122572526263813e+01 1.9407272302956397e+01 1.5004087639881169e+01 
48 1 2 1.0279990760736570e+00 -5.2010918068457659e+02 1.0000000000000000e+00 1.3122572526263813e+01 1.9407272302956397e+01 1.5004087639881169e+01 
84 1 2 1.0279990760736570e+00 -4.2093003585833952e+02 1.0000000000000000e+00 1.3122572526263813e+01 1.9407272302956397e+01 1.5004087639881169e+01 
132 1 2 1.0279990760736570e+00 -4.0611657700338179e+02 1.0000000000000000e+00 1.3122572526263813e+01 1.9407272302956397e+01 1.5004087639881169e+01 
156 1 2 1.0279990760736570e+00 -6.1732339136941016e+02 1.0000000000000000e+00 1.3122572526263813e+01 1.9407272302956397e+01 1.5004087639881169e+01 
162 1 2 1.0279990760736570e+00 -7.0467508792301714e+02 1.0000000000000000e+00 1.3122572526263813e+01 1.9407272302956397e+01 1.5004087639881169e+01 
126 1 2 1.0279990760736570e+00 -6.1198113553636733e+02 1.0000000000000000e+00 1.3122572526263813e+01 1.9407272302956397e+01 1.5004087639881169e+01 
167 1 2 1.0279990760736570e+00 -5.0890711725683872e+02 1.0000000000000000e+00 1.3122572526263813e+01 1.9407272302956397e+01 1.5004087639881169e+01 
169 1 2 1.0280015132458782e+00 -5.1459448003105479e+02 1.0000000000000000e+00 1.3626720589515122e+01 1.4890287405863565e+00 1.3713780005216908e+01 
79 1 2 1.0279992458539844e+00 -3.6678609845588005e+02 1.0000000000000000e+00 1.4809701076091264e+01 2.6194345417602509e+00 1.2520754385355582e+01 
115 1 2 1.0280012725323768e+00 -5.8405212259521079e+02 1.0000000000000000e+00 1.4121667253527315e+01 1.8509053959482531e+00 1.3373559725787668e+01 
151 1 2 1.0280011058090017e+00 -7.0830117548448970e+02 1.0000000000000000e+00 1.4269861697975559e+01 1.9407752742608155e+00 1.3252149288482597e+01 
145 1 2 1.0280008540781933e+00 -6.9855862673696345e+02 1.0000000000000000e+00 1.4404575996567399e+01 2.0418767264249085e+00 1.3082095511911980e+01 
133 1 2 1.0279994665049688e+00 -4.2090609137619668e+02 1.0000000000000000e+00 1.5063150639651507e+01 2.2711557112845182e+00 1.2093186621627932e+01 
175 1 2 1.0279995086598586e+00 -6.4717287906475906e+02 1.0000000000000000e+00 1.5059966451775031e+01 2.2643729355204898e+00 1.2104237572017604e+01 
138 1 2 1.0279997448980112e+00 -5.2093383372927269e+02 1.0000000000000000e+00 1.5045747553760357e+01 2.2324858288112952e+00 1.2156154816974144e+01 
172 1 2 1.0279997448980065e+00 -5.8417461740020167e+02 1.0000000000000000e+00 1.5045747553856536e+01 2.2324858290037510e+00 1.2156154816679141e+01 
174 1 2 1.0279997448980076e+00 -4.7160223022469967e+02 1.0000000000000000e+00 1.5045747553802940e+01 2.2324858288962512e+00 1.2156154816844028e+01 
168 1 2 1.0279997448980072e+00 -4.9177938596598165e+02 1.0000000000000000e+00 1.5045747553840664e+01 2.2324858289731457e+00 1.2156154816725296e+01 
173 1 2 1.0279997448980083e+00 -5.5449524574899590e+02 1.0000000000000000e+00 1.5045747553846127e+01 2.2324858289832550e+00 1.2156154816710373e+01 
137 1 2 1.0279997448980078e+00 -5.0898865617760123e+02 1.0000000000000000e+00 1.5045747553847585e+01 2.2324858289883145e+00 1.2156154816701230e+01 
179 1 2 1.0279997448980080e+00 -7.4244898188624472e+02 1.0000000000000000e+00 1.5045747553851257e+01 2.2324858289929637e+00 1.2156154816695866e+01 
101 1 2 1.0279997448980076e+00 -5.3999855567582028e+02 1.0000000000000000e+00 1.5045747553849848e+01 2.2324858289938305e+00 1.2156154816692137e+01 
178 1 2 1.0279997448980069e+00 -5.5217059595523426e+02 1.0000000000000000e+00 1.5045747553855056e+01 2.2324858290011687e+00 1.2156154816682857e+01 
136 1 2 1.0279997448980065e+00 -5.5888552515683978e+02 1.0000000000000000e+00 1.5045747553854742e+01 2.2324858290015119e+00 1.2156154816681706e+01 
106 1 2 1.0279997448980067e+00 -5.2810672252981351e+02 1.0000000000000000e+00 1.5045747553853472e+01 2.2324858290002210e+00 1.2156154816682873e+01 
143 1 2 1.0279997448980065e+00 -6.0394582262572510e+02 1.0000000000000000e+00 1.5045747553852424e+01 2.2324858289976963e+00 1.2156154816687017e+01 
107 1 2 1.0279997448980065e+00 -5.6998486646070921e+02 1.0000000000000000e+00 1.5045747553851587e+01 2.2324858289970693e+00 1.2156154816687309e+01 
142 1 2 1.0279997448980067e+00 -4.8911174512475418e+02 1.0000000000000000e+00 1.5045747553856055e+01 2.2324858290032656e+00 1.2156154816679575e+01 
180 1 2 1.0279997443861904e+00 -6.7384819349432792e+02 1.0000000000000000e+00 1.5045776431780455e+01 2.2325469860904352e+00 1.2156058929450307e+01 
139 1 2 1.0280014056798514e+00 -5.5092058919220233e+02 1.0000000000000000e+00 1.5897025709006481e+01 4.4485236625461217e+00 1.0108671073344844e+01 
109 1 2 1.0279982923495070e+00 -7.1957553351563979e+02 1.0000000000000000e+00 1.5640067263199413e+01 5.6652271731200461e+00 1.1106061419896202e+01 
114 1 2 1.0279980969405527e+00 -6.4791957037019790e+02 1.0000000000000000e+00 1.5751993868297305e+01 5.8238856931015590e+00 1.0864740804119711e+01 
73 1 2 1.0279980468459806e+00 -7.0660400645602567e+02 1.0000000000000000e+00 1.5801744923281438e+01 5.8659743273767377e+00 1.0761909707272292e+01 
150 1 2 1.0279980422035395e+00 -8.2952611126409033e+02 1.0000000000000000e+00 1.5851323569501245e+01 5.8907884287034706e+00 1.0663305831452316e+01 
108 1 2 1.0279980566399600e+00 -7.1007722141682621e+02 1.0000000000000000e+00 1.5870143937376664e+01 5.8957807769479809e+00 1.0627049124445355e+01 
144 1 2 1.0279990084252819e+00 -6.8873689918357570e+02 1.0000000000000000e+00 1.6039893152261364e+01 5.8119512821725001e+00 1.0292643911495304e+01 
159 1 2 1.0279996913144165e+00 -6.1210999998340662e+02 1.0000000000000000e+00 1.5954703404362665e+01 5.7647330042231504e+00 1.0166207025081283e+01 
80 1 2 1.0279996913144165e+00 -2.5575703194819707e+02 1.0000000000000000e+00 1.5954703404362665e+01 5.7647330042231504e+00 1.0166207025081283e+01 
118 1 2 1.0279996913144165e+00 -6.1615103381914582e+02 1.0000000000000000e+00 1.5954703404362665e+01 5.7647330042231504e+00 1.0166207025081283e+01 
148 1 2 1.0279996913144165e+00 -5.7036246494928514e+02 1.0000000000000000e+00 1.5954703404362665e+01 5.7647330042231504e+00 1.0166207025081283e+01 
153 1 2 1.0279996913144165e+00 -5.4808144612461444e+02 1.0000000000000000e+00 1.5954703404362665e+01 5.7647330042231504e+00 1.0166207025081283e+01 
154 1 2 1.0279996913144165e+00 -5.6875723741315755e+02 1.0000000000000000e+00 1.5954703404362665e+01 5.7647330042231504e+00 1.0166207025081283e+01 
147 1 2 1.0279996913144165e+00 -6.8550619630401241e+02 1.0000000000000000e+00 1.5954703404362665e+01 5.7647330042231504e+00 1.0166207025081283e+01 
117 1 2 1.0279996913144165e+00 -6.0995861590494349e+02 1.0000000000000000e+00 1.5954703404362665e+01 5.7647330042231504e+00 1.0166207025081283e+01 
112 1 2 1.0279996913144165e+00 -4.7426544361819572e+02 1.0000000000000000e+00 1.5954703404362665e+01 5.7647330042231504e+00 1.0166207025081283e+01 
111 1 2 1.0279996913144165e+00 -5.1981453510001143e+02 1.0000000000000000e+00 1.5954703404362665e+01 5.7647330042231504e+00 1.0166207025081283e+01 
110 1 2 1.0279996913144165e+00 -5.3064880471546837e+02 1.0000000000000000e+00 1.5954703404362665e+01 5.7647330042231504e+00 1.0166207025081283e+01 
152 1 2 1.0279996913144165e+00 -6.6486461342935741e+02 1.0000000000000000e+00 1.5954703404362665e+01 5.7647330042231504e+00 1.0166207025081283e+01 
146 1 2 1.0279996913144165e+00 -6.7024037117717046e+02 1.0000000000000000e+00 1.5954703404362665e+01 5.7647330042231504e+00 1.0166207025081283e+01 
116 1 2 1.0279996913144165e+00 -4.7047900215344555e+02 1.0000000000000000e+00 1.5954703404362665e+01 5.7647330042231504e+00 1.0166207025081283e+01 
75 1 2 1.0279996913144165e+00 -4.2124109238125368e+02 1.0000000000000000e+00 1.5954703404362665e+01 5.7647330042231504e+00 1.0166207025081283e+01 
81 1 2 1.0279996913144165e+00 -3.8707368932441955e+02 1.0000000000000000e+00 1.5954703404362665e+01 5.7647330042231504e+00 1.0166207025081283e+01 
127 1 2 1.0279999999999931e+00 -5.0162355045064817e+02 1.0000000000000000e+00 1.4752647344142433e+01 1.0866892969378616e+01 4.8442869493880938e+00 
134 1 2 1.0279999999999956e+00 -4.6001844467805404e+02 1.0000000000000000e+00 1.4803672629446243e+01 1.1143196345485929e+01 4.7637484694628220e+00 
163 1 2 1.0279999999999931e+00 -5.1878138434437017e+02 1.0000000000000000e+00 1.4758818651404845e+01 1.0872595035122158e+01 4.8429506990510482e+00 
164 1 2 1.0279999999999945e+00 -7.3843769035906894e+02 1.0000000000000000e+00 1.4758513217813404e+01 1.0861929493626011e+01 4.8486850168689504e+00 
121 1 2 1.0279999999999960e+00 -5.5116515482751686e+02 1.0000000000000000e+00 1.4747898472853517e+01 1.0840729925274058e+01 4.8578103117513951e+00 
158 1 2 1.0279999999999903e+00 -6.3810411104374271e+02 1.0000000000000000e+00 1.4752564679676748e+01 1.0838678978637953e+01 4.8603428244607443e+00 
157 1 2 1.0280000000000098e+00 -5.3724073081974245e+02 1.0000000000000000e+00 1.4752326549703854e+01 1.0841170523442155e+01 4.8587975903039045e+00 
170 1 2 1.0279999999999965e+00 -5.7251890056728007e+02 1.0000000000000000e+00 1.4703447801086371e+01 1.2242021583668148e+01 5.6702159044840306e+00 
128 1 2 1.0279999999999794e+00 -5.2294789510962300e+02 1.0000000000000000e+00 1.4258306190446643e+01 1.0477013657139516e+01 5.3546539249921681e+00 
129 1 2 1.0279999999999947e+00 -5.4470058256101527e+02 1.0000000000000000e+00 1.4230086845361466e+01 1.1288134052525479e+01 6.5291791487696660e+00 
135 1 2 1.0280000000000238e+00 -5.9879078187746279e+02 1.0000000000000000e+00 1.4645863508907579e+01 1.2229265226940528e+01 5.8820716587402382e+00 
165 1 2 1.0280000000000125e+00 -5.0191858382258732e+02 1.0000000000000000e+00 1.4477469791654418e+01 1.1491714884620599e+01 6.5736156169411997e+00 
171 1 2 1.0280000000000133e+00 -6.0314561567972021e+02 1.0000000000000000e+00 1.4675485218805660e+01 1.2239034369834632e+01 5.8029071326009545e+00 
130 1 2 1.0280000000000113e+00 -3.3090860199532858e+02 1.0000000000000000e+00 1.4512785104505451e+01 1.1240655518590737e+01 6.5768306249050728e+00 
94 1 2 1.0280000000000125e+00 -4.3447834238980130e+02 1.0000000000000000e+00 1.4388103884331141e+01 1.1368632666566613e+01 6.5732338842793308e+00 
98 1 2 1.0280000000000140e+00 -5.6243159958971000e+02 1.0000000000000000e+00 1.4206493341394518e+01 1.1817452960408739e+01 6.3857452977292057e+00 
99 1 2 1.0279999999999985e+00 -4.8237955334387834e+02 1.0000000000000000e+00 1.4333364977422733e+01 1.1785711359627859e+01 6.4527258143904938e+00 
166 1 2 1.0279999999999951e+00 -3.1145370920403263e+02 1.0000000000000000e+00 1.4531659840692587e+01 1.1186394153483363e+01 6.5683496692024264e+00 
93 1 2 1.0279999999999963e+00 -4.8008675170261137e+02 1.0000000000000000e+00 1.4223209209318648e+01 1.1404701068205007e+01 6.5279570210122300e+00 
100 1 2 1.0279999999999940e+00 -4.1892742287971174e+02 1.0000000000000000e+00 1.4303613755577109e+01 1.1792004548484146e+01 6.4403987430050034e+00 
92 1 2 1.0279999999999780e+00 -4.8430499779724812e+02 1.0000000000000000e+00 1.4338703591935676e+01 1.0521462689067222e+01 5.1900623634901457e+00 
140 1 2 1.0279999999999985e+00 -5.0351796167922362e+02 1.0000000000000000e+00 1.4704449294872296e+01 1.2241687729813426e+01 5.6620670782447640e+00 
176 1 2 1.0280000000000156e+00 -6.2283233491159046e+02 1.0000000000000000e+00 1.4704385480229645e+01 1.2241793374258117e+01 5.6667834568276065e+00 
177 1 2 1.0279999999999923e+00 -4.9107601580022032e+02 1.0000000000000000e+00 1.4704262358544607e+01 1.2241822194875137e+01 5.6671198939668308e+00 
141 1 2 1.0280000000000107e+00 -4.7623891711794624e+02 1.0000000000000000e+00 1.4704155766344678e+01 1.2241843455110965e+01 5.6671973996921778e+00 
87 1 2 1.0279999999999940e+00 -4.7397250587595113e+02 1.0000000000000000e+00 1.4312135648226816e+01 1.0458741361778944e+01 5.3573485455565129e+00 
123 1 2 1.0279999999999978e+00 -4.4461969477537684e+02 1.0000000000000000e+00 1.4440732779492768e+01 1.0503905589851254e+01 5.1834934842497011e+00 
122 1 2 1.0279999999999929e+00 -4.2998736795457773e+02 1.0000000000000000e+00 1.4496631340159364e+01 1.0563635609159540e+01 5.0794594677114953e+00 
86 1 2 1.0279999999999951e+00 -3.4117587382984709e+02 1.0000000000000000e+00 1.4443612932358715e+01 1.0534010000132406e+01 5.1313043067567685e+00 

Velocities

6 4.5860962363446162e-13 4.3950088928071484e-12 -1.2420677313043099e-12
34 -1.4140463397731219e-12 -3.0956149608232924e-12 -1.2420677313043093e-12
35 4.5860962363446172e-13 -1.1121283375427064e-11 -1.2420677313043101e-12
5 4.5860962363446162e-13 4.3950088928071484e-12 -1.2420677313043099e-12
71 4.5860962363446162e-13 4.3950088928071484e-12 -1.2420677313043099e-12
42 4.5860962363446162e-13 4.3950088928071484e-12 -1.2420677313043099e-12
72 4.5860962363446162e-13 4.3950088928071484e-12 -1.2420677313043099e-12
36 4.5860962363446162e-13 4.3950088928071484e-12 -1.2420677313043099e-12
29 -7.6434937339134241e-14 -1.4904812779024056e-12 2.2357219150241473e-12
65 -1.4140463397731219e-12 -1.4904812779024056e-12 2.2357219150241473e-12
70 -7.6434937339134241e-14 -1.4904812779024056e-12 2.2357219150241473e-12
28 -7.6434937339134241e-14 -1.4904812779024056e-12 2.2357219150241473e-12
64 -7.6434937339134254e-14 -3.0956149608232920e-12 -1.2420677313043095e-12
33 -7.6434937339134228e-14 -3.0956149608232912e-12 2.2357219150241473e-12
44 -7.8679730478114725e-13 1.1387855728696512e-13 -2.6916749874337394e-13
2 -3.3438885448700514e-12 1.0559648036355341e-12 -2.6916749874337394e-13
43 8.2820768895923701e-13 -8.2820768906158062e-13 1.6150049939537784e-12
8 -1.0559648037378753e-12 7.8679730467880637e-13 9.4208624656195640e-13
1 4.2445644052414794e-13 -6.9362393958323143e-13 -2.6916749874337399e-13
3 2.8987269104578567e-13 -6.9362393958323133e-13 -1.7495887430053863e-12
9 1.3665426868726854e-12 -6.9362393958323143e-13 -2.6916749874337399e-13
7 1.2319589373943561e-12 5.1762980572207457e-13 -2.6916749874337388e-13
14 8.2820768895923701e-13 -9.6279143853995506e-13 -4.0375124822173686e-13
45 -7.8679730478114736e-13 9.2138105415716748e-13 1.8841724929105434e-12
15 -6.5221355530277231e-13 1.0559648036355339e-12 -1.6150049935270465e-12
51 8.2820768895923701e-13 5.1762980572207477e-13 9.4208624656195599e-13
50 8.2820768895923701e-13 -1.0973751880183092e-12 -2.6916749874337394e-13
17 1.7177744478639454e-13 7.4109846876186982e-323 1.2597012607176605e-12
57 -4.9624595109434957e-13 7.4109846876186982e-323 -2.2140203978621797e-12
58 3.0538212396253595e-13 7.4109846876186982e-323 -1.1451829644529929e-12
16 1.7177744478639452e-13 7.4109846876186982e-323 -1.1451829644529929e-12
52 -4.9624595109434946e-13 7.4109846876186982e-323 -3.4355488939612660e-13
21 1.7177744478639454e-13 7.4109846876186982e-323 2.3285386941268356e-12
22 1.7177744478639454e-13 7.4109846876186982e-323 1.2597012607176605e-12
40 7.4109846876186982e-323 6.5720289712218778e-13 7.1694861552896960e-13
41 7.4109846876186982e-323 -2.8379215985361893e-13 7.1694861552896960e-13
47 7.4109846876186982e-323 5.8998896448107293e-13 7.1694861552896960e-13
82 7.4109846876186982e-323 5.8998896448107283e-13 -8.9618576785813766e-13
46 7.4109846876186982e-323 -3.5100609249475211e-13 4.4809288496445359e-13
11 7.4109846876186982e-323 -1.1575732841883026e-12 -1.9716086901162466e-12
4 7.4109846876186982e-323 6.5720289712218778e-13 7.1694861552896960e-13
10 7.4109846876186982e-323 -3.5100609249475206e-13 -8.9618576785813776e-13