LAMMPS data file via write_data, version 30 Jul 2016, timestep = 50400000

180 atoms
2 atom types

0.0000000000000000e+00 2.0000000000000000e+01 xlo xhi
0.0000000000000000e+00 2.0000000000000000e+01 ylo yhi
0.0000000000000000e+00 2.0000000000000000e+01 zlo zhi

Masses

1 3.896
2 4.31

Atoms # meso-molecular

6 1 2 6.0177613402889163e-01 -5.9071631747369838e+02 1.0000000000000000e+00 6.6233466218360952e+00 1.6512744381289750e+01 1.2830544714168139e+01 
34 1 2 6.0177613402889163e-01 -5.9779574419880532e+02 1.0000000000000000e+00 6.6233466218361077e+00 1.6512744381289799e+01 1.2830544714168139e+01 
35 1 2 6.0177613402889163e-01 -4.5911700995484927e+02 1.0000000000000000e+00 6.6233466218360952e+00 1.6512744381289853e+01 1.2830544714168139e+01 
5 1 2 6.0177613402889163e-01 -4.5348194604941858e+02 1.0000000000000000e+00 6.6233466218360952e+00 1.6512744381289750e+01 1.2830544714168139e+01 
71 1 2 6.0177613402889163e-01 -4.8700352752434191e+02 1.0000000000000000e+00 6.6233466218360952e+00 1.6512744381289750e+01 1.2830544714168139e+01 
42 1 2 6.0177613402889163e-01 -5.9287819520025346e+02 1.0000000000000000e+00 6.6233466218360952e+00 1.6512744381289750e+01 1.2830544714168139e+01 
72 1 2 6.0177613402889163e-01 -5.5399261041439047e+02 1.0000000000000000e+00 6.6233466218360952e+00 1.6512744381289750e+01 1.2830544714168139e+01 
36 1 2 6.0177613402889163e-01 -5.8645184851866588e+02 1.0000000000000000e+00 6.6233466218360952e+00 1.6512744381289750e+01 1.2830544714168139e+01 
29 1 2 6.0177613402889163e-01 -5.3805974667453665e+02 1.0000000000000000e+00 6.6233466218360988e+00 1.6512744381289789e+01 1.2830544714168116e+01 
65 1 2 6.0177613402889163e-01 -5.4905090663141129e+02 1.0000000000000000e+00 6.6233466218361077e+00 1.6512744381289789e+01 1.2830544714168116e+01 
70 1 2 6.0177613402889163e-01 -5.0372634241002243e+02 1.0000000000000000e+00 6.6233466218360988e+00 1.6512744381289789e+01 1.2830544714168116e+01 
28 1 2 6.0177613402889163e-01 -4.7340934375530276e+02 1.0000000000000000e+00 6.6233466218360988e+00 1.6512744381289789e+01 1.2830544714168116e+01 
64 1 2 6.0177613402889163e-01 -4.1213999779089465e+02 1.0000000000000000e+00 6.6233466218360988e+00 1.6512744381289799e+01 1.2830544714168139e+01 
33 1 2 6.0177613402889163e-01 -5.9259550538531153e+02 1.0000000000000000e+00 6.6233466218360988e+00 1.6512744381289799e+01 1.2830544714168116e+01 
44 1 2 5.5879212445539939e-01 -5.4772273970583171e+02 1.0000000000000000e+00 6.9345166691065598e+00 4.5145167892256701e+00 4.2761153550930153e+00 
2 1 2 5.5879212445539939e-01 -4.2777959451967206e+02 1.0000000000000000e+00 6.9345166691065767e+00 4.5145167892256639e+00 4.2761153550930153e+00 
43 1 2 5.5879212445539939e-01 -6.5970439060308286e+02 1.0000000000000000e+00 6.9345166691065492e+00 4.5145167892256763e+00 4.2761153550930029e+00 
8 1 2 5.5879212445539939e-01 -5.2768794213457625e+02 1.0000000000000000e+00 6.9345166691065616e+00 4.5145167892256657e+00 4.2761153550930073e+00 
1 1 2 5.5879212445539939e-01 -6.1844857358459126e+02 1.0000000000000000e+00 6.9345166691065518e+00 4.5145167892256755e+00 4.2761153550930153e+00 
3 1 2 5.5879212445539939e-01 -5.4506874815963454e+02 1.0000000000000000e+00 6.9345166691065527e+00 4.5145167892256755e+00 4.2761153550930251e+00 
9 1 2 5.5879212445539939e-01 -5.8142854042676447e+02 1.0000000000000000e+00 6.9345166691065456e+00 4.5145167892256755e+00 4.2761153550930153e+00 
7 1 2 5.5879212445539939e-01 -8.0331025281089239e+02 1.0000000000000000e+00 6.9345166691065465e+00 4.5145167892256675e+00 4.2761153550930153e+00 
14 1 2 5.5879212445539939e-01 -5.4195850429443135e+02 1.0000000000000000e+00 6.9345166691065492e+00 4.5145167892256772e+00 4.2761153550930162e+00 
45 1 2 5.5879212445539939e-01 -4.0444703886470165e+02 1.0000000000000000e+00 6.9345166691065598e+00 4.5145167892256648e+00 4.2761153550930011e+00 
15 1 2 5.5879212445539939e-01 -4.1925683448987269e+02 1.0000000000000000e+00 6.9345166691065590e+00 4.5145167892256639e+00 4.2761153550930242e+00 
51 1 2 5.5879212445539939e-01 -3.5896290932994469e+02 1.0000000000000000e+00 6.9345166691065492e+00 4.5145167892256675e+00 4.2761153550930073e+00 
50 1 2 5.5879212445539939e-01 -3.7935918149552236e+02 1.0000000000000000e+00 6.9345166691065492e+00 4.5145167892256781e+00 4.2761153550930153e+00 
17 1 2 3.0088806701444587e-01 -5.0920879684878366e+02 1.0000000000000000e+00 6.7042479271963646e+00 9.3904188254794096e+00 9.5155507693263477e+00 
57 1 2 3.0088806701444587e-01 -3.9970453896681539e+02 1.0000000000000000e+00 6.7042479271963691e+00 9.3904188254794096e+00 9.5155507693263708e+00 
58 1 2 3.0088806701444587e-01 -3.9949196374590838e+02 1.0000000000000000e+00 6.7042479271963638e+00 9.3904188254794096e+00 9.5155507693263637e+00 
16 1 2 3.0088806701444587e-01 -4.1407863978909489e+02 1.0000000000000000e+00 6.7042479271963646e+00 9.3904188254794096e+00 9.5155507693263637e+00 
52 1 2 3.0088806701444587e-01 -3.5446885331340468e+02 1.0000000000000000e+00 6.7042479271963691e+00 9.3904188254794096e+00 9.5155507693263583e+00 
21 1 2 3.0088806701444587e-01 -5.0999929485989423e+02 1.0000000000000000e+00 6.7042479271963646e+00 9.3904188254794096e+00 9.5155507693263406e+00 
22 1 2 3.0088806701444587e-01 -6.0515397815704296e+02 1.0000000000000000e+00 6.7042479271963646e+00 9.3904188254794096e+00 9.5155507693263477e+00 
40 1 2 3.8685608616143036e-01 -3.9288642497172566e+02 1.0000000000000000e+00 7.8587949384379820e+00 2.9524891004518121e+00 1.1321390482782123e+01 
41 1 2 3.8685608616143036e-01 -3.8561377018817410e+02 1.0000000000000000e+00 7.8587949384379820e+00 2.9524891004518183e+00 1.1321390482782123e+01 
47 1 2 3.8685608616143036e-01 -3.6896456309849623e+02 1.0000000000000000e+00 7.8587949384379820e+00 2.9524891004518126e+00 1.1321390482782123e+01 
82 1 2 3.8685608616143036e-01 -4.6731092052308810e+02 1.0000000000000000e+00 7.8587949384379820e+00 2.9524891004518126e+00 1.1321390482782133e+01 
46 1 2 3.8685608616143036e-01 -3.5120041581334323e+02 1.0000000000000000e+00 7.8587949384379820e+00 2.9524891004518188e+00 1.1321390482782125e+01 
11 1 2 3.8685608616143036e-01 -3.5678087749762972e+02 1.0000000000000000e+00 7.8587949384379820e+00 2.9524891004518241e+00 1.1321390482782141e+01 
4 1 2 3.8685608616143036e-01 -4.0088868278826317e+02 1.0000000000000000e+00 7.8587949384379820e+00 2.9524891004518121e+00 1.1321390482782123e+01 
10 1 2 3.8685608616143036e-01 -4.0965577152030517e+02 1.0000000000000000e+00 7.8587949384379820e+00 2.9524891004518188e+00 1.1321390482782133e+01 
39 1 2 3.8685608616143036e-01 -3.4911442095744428e+02 1.0000000000000000e+00 7.8587949384379820e+00 2.9524891004518188e+00 1.1321390482782125e+01 
23 1 2 9.0266420104333733e-01 -4.0569455458833755e+02 1.0000000000000000e+00 9.0938252304106104e+00 9.3219069287006189e+00 1.7409155644358282e+01 
24 1 2 9.0266420104333733e-01 -4.7369829059585197e+02 1.0000000000000000e+00 9.0938252304105340e+00 9.3219069287006349e+00 1.7409155644358378e+01 
59 1 2 9.0266420104333733e-01 -5.4674139151383349e+02 1.0000000000000000e+00 9.0938252304105163e+00 9.3219069287006207e+00 1.7409155644358400e+01 
96 1 2 9.0266420104333733e-01 -5.1908760088100985e+02 1.0000000000000000e+00 9.0938252304105287e+00 9.3219069287006029e+00 1.7409155644358318e+01 
18 1 2 9.0266420104333733e-01 -7.8216768351709652e+02 1.0000000000000000e+00 9.0938252304105980e+00 9.3219069287005958e+00 1.7409155644358215e+01 
91 1 2 9.0266420104333733e-01 -6.1900739399770168e+02 1.0000000000000000e+00 9.0938252304104594e+00 9.3219069287006349e+00 1.7409155644358364e+01 
60 1 2 9.0266420104333733e-01 -6.4199059578797130e+02 1.0000000000000000e+00 9.0938252304105696e+00 9.3219069287006118e+00 1.7409155644358542e+01 
54 1 2 9.0266420104333733e-01 -6.0647792657823243e+02 1.0000000000000000e+00 9.0938252304105838e+00 9.3219069287006295e+00 1.7409155644358357e+01 
90 1 2 9.0266420104333733e-01 -4.7563912161552389e+02 1.0000000000000000e+00 9.0938252304105287e+00 9.3219069287006420e+00 1.7409155644358364e+01 
95 1 2 9.0266420104333733e-01 -4.7892719666168654e+02 1.0000000000000000e+00 9.0938252304104470e+00 9.3219069287006242e+00 1.7409155644358343e+01 
53 1 2 9.0266420104333733e-01 -4.8962596318595757e+02 1.0000000000000000e+00 9.0938252304104648e+00 9.3219069287006313e+00 1.7409155644358510e+01 
89 1 2 9.0266420104333733e-01 -4.4405442520647841e+02 1.0000000000000000e+00 9.0938252304105287e+00 9.3219069287006100e+00 1.7409155644358442e+01 
85 1 2 9.0266420104333733e-01 -3.6632960470458875e+02 1.0000000000000000e+00 9.0938252304105163e+00 9.3219069287006171e+00 1.7409155644358474e+01 
102 1 2 9.0266420104333733e-01 -6.1591049367249002e+02 1.0000000000000000e+00 9.0938252304105749e+00 9.3219069287006455e+00 1.7409155644358268e+01 
97 1 2 9.0266420104333733e-01 -6.1990358608475015e+02 1.0000000000000000e+00 9.0938252304105589e+00 9.3219069287006135e+00 1.7409155644358538e+01 
66 1 2 9.0266420104333733e-01 -7.8736962234446025e+02 1.0000000000000000e+00 9.0938252304105394e+00 9.3219069287006278e+00 1.7409155644358378e+01 
12 1 2 9.0266420104333733e-01 -8.1920647170124789e+02 1.0000000000000000e+00 9.0938252304104648e+00 9.3219069287006047e+00 1.7409155644358364e+01 
13 1 2 9.0266420104333733e-01 -6.3896934281523215e+02 1.0000000000000000e+00 9.0938252304104434e+00 9.3219069287006278e+00 1.7409155644358311e+01 
55 1 2 9.0266420104333733e-01 -4.5763800955844982e+02 1.0000000000000000e+00 9.0938252304104985e+00 9.3219069287006580e+00 1.7409155644358371e+01 
49 1 2 9.0266420104333733e-01 -5.2235530840173533e+02 1.0000000000000000e+00 9.0938252304105696e+00 9.3219069287006295e+00 1.7409155644358290e+01 
30 1 2 9.0266420104333733e-01 -4.7562861021100622e+02 1.0000000000000000e+00 9.0938252304105589e+00 9.3219069287005993e+00 1.7409155644358346e+01 
19 1 2 8.5968019146984509e-01 -3.9769788681385603e+02 1.0000000000000000e+00 7.6787232763633462e+00 1.5541993153463682e+01 4.2357640630412243e+00 
20 1 2 8.5968019146984509e-01 -4.7194952686552870e+02 1.0000000000000000e+00 7.6787232763633408e+00 1.5541993153463716e+01 4.2357640630412154e+00 
56 1 2 8.5968019146984509e-01 -4.8908250193211165e+02 1.0000000000000000e+00 7.6787232763633861e+00 1.5541993153463658e+01 4.2357640630412430e+00 
61 1 2 8.5968019146984509e-01 -4.8891197423091484e+02 1.0000000000000000e+00 7.6787232763633426e+00 1.5541993153463643e+01 4.2357640630412128e+00 
25 1 2 8.5968019146984509e-01 -5.8308516479425111e+02 1.0000000000000000e+00 7.6787232763633826e+00 1.5541993153463640e+01 4.2357640630411986e+00 
26 1 2 8.5968019146984509e-01 -5.1045012209401364e+02 1.0000000000000000e+00 7.6787232763633595e+00 1.5541993153463656e+01 4.2357640630412199e+00 
62 1 2 8.5968019146984509e-01 -5.3232949364058675e+02 1.0000000000000000e+00 7.6787232763633302e+00 1.5541993153463645e+01 4.2357640630412163e+00 
27 1 2 8.5968019146984509e-01 -5.8377256578363347e+02 1.0000000000000000e+00 7.6787232763633595e+00 1.5541993153463597e+01 4.2357640630412092e+00 
67 1 2 8.5968019146984509e-01 -5.9807503295273852e+02 1.0000000000000000e+00 7.6787232763633986e+00 1.5541993153463636e+01 4.2357640630412048e+00 
68 1 2 8.5968019146984509e-01 -5.6997849937855005e+02 1.0000000000000000e+00 7.6787232763633533e+00 1.5541993153463702e+01 4.2357640630411817e+00 
103 1 2 8.5968019146984509e-01 -4.9728689525882839e+02 1.0000000000000000e+00 7.6787232763633817e+00 1.5541993153463649e+01 4.2357640630412163e+00 
104 1 2 8.5968019146984509e-01 -5.1458363052860443e+02 1.0000000000000000e+00 7.6787232763633329e+00 1.5541993153463663e+01 4.2357640630411888e+00 
37 1 2 8.5968019146984509e-01 -5.9742951514976767e+02 1.0000000000000000e+00 7.6787232763633657e+00 1.5541993153463663e+01 4.2357640630412234e+00 
74 1 2 8.5968019146984509e-01 -5.4312802064191817e+02 1.0000000000000000e+00 7.6787232763633604e+00 1.5541993153463665e+01 4.2357640630412181e+00 
38 1 2 8.5968019146984509e-01 -5.0146329942855630e+02 1.0000000000000000e+00 7.6787232763633453e+00 1.5541993153463643e+01 4.2357640630412163e+00 
32 1 2 8.5968019146984509e-01 -7.1140164710254510e+02 1.0000000000000000e+00 7.6787232763633799e+00 1.5541993153463597e+01 4.2357640630412181e+00 
31 1 2 8.5968019146984509e-01 -7.4783978859638307e+02 1.0000000000000000e+00 7.6787232763633986e+00 1.5541993153463643e+01 4.2357640630412234e+00 
69 1 2 8.5968019146984509e-01 -5.7582650806005677e+02 1.0000000000000000e+00 7.6787232763633826e+00 1.5541993153463658e+01 4.2357640630411808e+00 
105 1 2 8.5968019146984509e-01 -4.2815876920701635e+02 1.0000000000000000e+00 7.6787232763633630e+00 1.5541993153463601e+01 4.2357640630412270e+00 
63 1 2 8.5968019146984509e-01 -4.1889058935708266e+02 1.0000000000000000e+00 7.6787232763633737e+00 1.5541993153463654e+01 4.2357640630412217e+00 
161 1 2 1.0279990979830853e+00 -7.2016750482699547e+02 1.0000000000000000e+00 1.3117479162777078e+01 1.9267079798224952e+01 1.4822052630128915e+01 
160 1 2 1.0279990979830853e+00 -5.7182294893701919e+02 1.0000000000000000e+00 1.3117479162777078e+01 1.9267079798224952e+01 1.4822052630128915e+01 
131 1 2 1.0279990979830853e+00 -4.7783107583525884e+02 1.0000000000000000e+00 1.3117479162777078e+01 1.9267079798224952e+01 1.4822052630128915e+01 
125 1 2 1.0279990979830853e+00 -6.0096568434990445e+02 1.0000000000000000e+00 1.3117479162777078e+01 1.9267079798224952e+01 1.4822052630128915e+01 
124 1 2 1.0279990979830853e+00 -3.2925614123935628e+02 1.0000000000000000e+00 1.3117479162777078e+01 1.9267079798224952e+01 1.4822052630128915e+01 
155 1 2 1.0279990979830853e+00 -7.0954967797375684e+02 1.0000000000000000e+00 1.3117479162777078e+01 1.9267079798224952e+01 1.4822052630128915e+01 
119 1 2 1.0279990979830853e+00 -7.1556596875419018e+02 1.0000000000000000e+00 1.3117479162777078e+01 1.9267079798224952e+01 1.4822052630128915e+01 
120 1 2 1.0279990979830853e+00 -6.6814765978297692e+02 1.0000000000000000e+00 1.3117479162777078e+01 1.9267079798224952e+01 1.4822052630128915e+01 
149 1 2 1.0279990979830853e+00 -6.0263458675178310e+02 1.0000000000000000e+00 1.3117479162777078e+01 1.9267079798224952e+01 1.4822052630128915e+01 
113 1 2 1.0279990979830853e+00 -5.7433690565121617e+02 1.0000000000000000e+00 1.3117479162777078e+01 1.9267079798224952e+01 1.4822052630128915e+01 
78 1 2 1.0279990979830853e+00 -5.6355705491285664e+02 1.0000000000000000e+00 1.3117479162777078e+01 1.9267079798224952e+01 1.4822052630128915e+01 
83 1 2 1.0279990979830853e+00 -5.2007714448514150e+02 1.0000000000000000e+00 1.3117479162777078e+01 1.9267079798224952e+01 1.4822052630128915e+01 
76 1 2 1.0279990979830853e+00 -4.8498993704203048e+02 1.0000000000000000e+00 1.3117479162777078e+01 1.9267079798224952e+01 1.4822052630128915e+01 
77 1 2 1.0279990979830853e+00 -4.7178987389982268e+02 1.0000000000000000e+00 1.3117479162777078e+01 1.9267079798224952e+01 1.4822052630128915e+01 
88 1 2 1.0279990979830853e+00 -4.2820347139007043e+02 1.0000000000000000e+00 1.3117479162777078e+01 1.9267079798224952e+01 1.4822052630128915e+01 
48 1 2 1.0279990979830853e+00 -5.2010916560357168e+02 1.0000000000000000e+00 1.3117479162777078e+01 1.9267079798224952e+01 1.4822052630128915e+01 
84 1 2 1.0279990979830853e+00 -4.2093002077548658e+02 1.0000000000000000e+00 1.3117479162777078e+01 1.9267079798224952e+01 1.4822052630128915e+01 
132 1 2 1.0279990979830853e+00 -4.0611656192052885e+02 1.0000000000000000e+00 1.3117479162777078e+01 1.9267079798224952e+01 1.4822052630128915e+01 
156 1 2 1.0279990979830853e+00 -6.1732337628840526e+02 1.0000000000000000e+00 1.3117479162777078e+01 1.9267079798224952e+01 1.4822052630128915e+01 
162 1 2 1.0279990979830853e+00 -7.0467507284201224e+02 1.0000000000000000e+00 1.3117479162777078e+01 1.9267079798224952e+01 1.4822052630128915e+01 
126 1 2 1.0279990979830853e+00 -6.1198112045536243e+02 1.0000000000000000e+00 1.3117479162777078e+01 1.9267079798224952e+01 1.4822052630128915e+01 
167 1 2 1.0279990979830853e+00 -5.0890710217398578e+02 1.0000000000000000e+00 1.3117479162777078e+01 1.9267079798224952e+01 1.4822052630128915e+01 
169 1 2 1.0280014302214588e+00 -5.1459444285762163e+02 1.0000000000000000e+00 1.3602359497789129e+01 1.4261952659580206e+00 1.3640154185963343e+01 
79 1 2 1.0279993146557105e+00 -3.6678606917519897e+02 1.0000000000000000e+00 1.4811230759402275e+01 2.6405644648716278e+00 1.2526455789459090e+01 
115 1 2 1.0280011879415820e+00 -5.8405208622865393e+02 1.0000000000000000e+00 1.4107310675117965e+01 1.8195687185902689e+00 1.3333254582819629e+01 
151 1 2 1.0280010184517387e+00 -7.0830113974514848e+02 1.0000000000000000e+00 1.4258894297346387e+01 1.9180163658058424e+00 1.3220466385307200e+01 
145 1 2 1.0280007694652309e+00 -6.9855859201459543e+02 1.0000000000000000e+00 1.4396671409066375e+01 2.0288738546347753e+00 1.3059189537750663e+01 
133 1 2 1.0279994834212145e+00 -4.2090606417386897e+02 1.0000000000000000e+00 1.5060610442280421e+01 2.3020722768791586e+00 1.2109354550462561e+01 
175 1 2 1.0279995282677701e+00 -6.4717285179917189e+02 1.0000000000000000e+00 1.5057482289229451e+01 2.2947036183225946e+00 1.2119778283789140e+01 
138 1 2 1.0279997771879885e+00 -5.2093380617158323e+02 1.0000000000000000e+00 1.5043620516656754e+01 2.2599926650829354e+00 1.2168833858571110e+01 
172 1 2 1.0279997771879870e+00 -5.8417458984251220e+02 1.0000000000000000e+00 1.5043620516750103e+01 2.2599926652924736e+00 1.2168833858292667e+01 
174 1 2 1.0279997771879874e+00 -4.7160220265736348e+02 1.0000000000000000e+00 1.5043620516698088e+01 2.2599926651754267e+00 1.2168833858448338e+01 
168 1 2 1.0279997771879872e+00 -4.9177935839864546e+02 1.0000000000000000e+00 1.5043620516734681e+01 2.2599926652591691e+00 1.2168833858336182e+01 
173 1 2 1.0279997771879870e+00 -5.5449521819130644e+02 1.0000000000000000e+00 1.5043620516740001e+01 2.2599926652701532e+00 1.2168833858322117e+01 
137 1 2 1.0279997771879883e+00 -5.0898862861026504e+02 1.0000000000000000e+00 1.5043620516741385e+01 2.2599926652757034e+00 1.2168833858313429e+01 
179 1 2 1.0279997771879874e+00 -7.4244895432855526e+02 1.0000000000000000e+00 1.5043620516744982e+01 2.2599926652807274e+00 1.2168833858308419e+01 
101 1 2 1.0279997771879879e+00 -5.3999852811813082e+02 1.0000000000000000e+00 1.5043620516743593e+01 2.2599926652817155e+00 1.2168833858304836e+01 
178 1 2 1.0279997771879879e+00 -5.5217056839754480e+02 1.0000000000000000e+00 1.5043620516748659e+01 2.2599926652896669e+00 1.2168833858296168e+01 
136 1 2 1.0279997771879879e+00 -5.5888549759915031e+02 1.0000000000000000e+00 1.5043620516748351e+01 2.2599926652900475e+00 1.2168833858295065e+01 
106 1 2 1.0279997771879872e+00 -5.2810669497212405e+02 1.0000000000000000e+00 1.5043620516747104e+01 2.2599926652886495e+00 1.2168833858296130e+01 
143 1 2 1.0279997771879867e+00 -6.0394579506803564e+02 1.0000000000000000e+00 1.5043620516746108e+01 2.2599926652859073e+00 1.2168833858300038e+01 
107 1 2 1.0279997771879872e+00 -5.6998483890301975e+02 1.0000000000000000e+00 1.5043620516745275e+01 2.2599926652852331e+00 1.2168833858300278e+01 
142 1 2 1.0279997771879872e+00 -4.8911171755741799e+02 1.0000000000000000e+00 1.5043620516749641e+01 2.2599926652919429e+00 1.2168833858293084e+01 
180 1 2 1.0279997766523057e+00 -6.7384816593663845e+02 1.0000000000000000e+00 1.5043648521884224e+01 2.2600593008979359e+00 1.2168743205251566e+01 
139 1 2 1.0280014415527756e+00 -5.5092057109641144e+02 1.0000000000000000e+00 1.5910756183470092e+01 4.5589897375337882e+00 1.0240240306695224e+01 
109 1 2 1.0279982475526661e+00 -7.1957552035555443e+02 1.0000000000000000e+00 1.5657103414260314e+01 5.7667307067129361e+00 1.1240760257435291e+01 
114 1 2 1.0279980523107779e+00 -6.4791955943068024e+02 1.0000000000000000e+00 1.5765388552576585e+01 5.9241974812850344e+00 1.1013664249332081e+01 
73 1 2 1.0279980063708438e+00 -7.0660399619465761e+02 1.0000000000000000e+00 1.5813012831009438e+01 5.9663955373148223e+00 1.0917122806525567e+01 
150 1 2 1.0279980075181165e+00 -8.2952610146219308e+02 1.0000000000000000e+00 1.5860289715057288e+01 5.9921551390982373e+00 1.0824656843772511e+01 
108 1 2 1.0279980241700712e+00 -7.1007721174420078e+02 1.0000000000000000e+00 1.5878222506315220e+01 5.9977834931716680e+00 1.0790655127960481e+01 
144 1 2 1.0279989742223594e+00 -6.8873688936524400e+02 1.0000000000000000e+00 1.6043468862615711e+01 5.9298230297196435e+00 1.0471919962292866e+01 
159 1 2 1.0279996603614499e+00 -6.1210998987559526e+02 1.0000000000000000e+00 1.5962765599260239e+01 5.8888103830314176e+00 1.0345647741894842e+01 
80 1 2 1.0279996603614499e+00 -2.5575702184221285e+02 1.0000000000000000e+00 1.5962765599260239e+01 5.8888103830314176e+00 1.0345647741894842e+01 
118 1 2 1.0279996603614499e+00 -6.1615102371133446e+02 1.0000000000000000e+00 1.5962765599260239e+01 5.8888103830314176e+00 1.0345647741894842e+01 
148 1 2 1.0279996603614499e+00 -5.7036245484147378e+02 1.0000000000000000e+00 1.5962765599260239e+01 5.8888103830314176e+00 1.0345647741894842e+01 
153 1 2 1.0279996603614499e+00 -5.4808143601680308e+02 1.0000000000000000e+00 1.5962765599260239e+01 5.8888103830314176e+00 1.0345647741894842e+01 
154 1 2 1.0279996603614499e+00 -5.6875722730534619e+02 1.0000000000000000e+00 1.5962765599260239e+01 5.8888103830314176e+00 1.0345647741894842e+01 
147 1 2 1.0279996603614499e+00 -6.8550618619620104e+02 1.0000000000000000e+00 1.5962765599260239e+01 5.8888103830314176e+00 1.0345647741894842e+01 
117 1 2 1.0279996603614499e+00 -6.0995860579713212e+02 1.0000000000000000e+00 1.5962765599260239e+01 5.8888103830314176e+00 1.0345647741894842e+01 
112 1 2 1.0279996603614499e+00 -4.7426543351260364e+02 1.0000000000000000e+00 1.5962765599260239e+01 5.8888103830314176e+00 1.0345647741894842e+01 
111 1 2 1.0279996603614499e+00 -5.1981452499220006e+02 1.0000000000000000e+00 1.5962765599260239e+01 5.8888103830314176e+00 1.0345647741894842e+01 
110 1 2 1.0279996603614499e+00 -5.3064879460765701e+02 1.0000000000000000e+00 1.5962765599260239e+01 5.8888103830314176e+00 1.0345647741894842e+01 
152 1 2 1.0279996603614499e+00 -6.6486460332154604e+02 1.0000000000000000e+00 1.5962765599260239e+01 5.8888103830314176e+00 1.0345647741894842e+01 
146 1 2 1.0279996603614499e+00 -6.7024036106935910e+02 1.0000000000000000e+00 1.5962765599260239e+01 5.8888103830314176e+00 1.0345647741894842e+01 
116 1 2 1.0279996603614499e+00 -4.7047899204785347e+02 1.0000000000000000e+00 1.5962765599260239e+01 5.8888103830314176e+00 1.0345647741894842e+01 
75 1 2 1.0279996603614499e+00 -4.2124108227566160e+02 1.0000000000000000e+00 1.5962765599260239e+01 5.8888103830314176e+00 1.0345647741894842e+01 
81 1 2 1.0279996603614499e+00 -3.8707367921882746e+02 1.0000000000000000e+00 1.5962765599260239e+01 5.8888103830314176e+00 1.0345647741894842e+01 
127 1 2 1.0279999999999931e+00 -5.0162355045064817e+02 1.0000000000000000e+00 1.4752647344142433e+01 1.0866892969378616e+01 4.8442869493880938e+00 
134 1 2 1.0279999999999956e+00 -4.6001844467805404e+02 1.0000000000000000e+00 1.4803672629446243e+01 1.1143196345485929e+01 4.7637484694628220e+00 
163 1 2 1.0279999999999931e+00 -5.1878138434437017e+02 1.0000000000000000e+00 1.4758818651404845e+01 1.0872595035122158e+01 4.8429506990510482e+00 
164 1 2 1.0279999999999945e+00 -7.3843769035906894e+02 1.0000000000000000e+00 1.4758513217813404e+01 1.0861929493626011e+01 4.8486850168689504e+00 
121 1 2 1.0279999999999960e+00 -5.5116515482751686e+02 1.0000000000000000e+00 1.4747898472853517e+01 1.0840729925274058e+01 4.8578103117513951e+00 
158 1 2 1.0279999999999903e+00 -6.3810411104374271e+02 1.0000000000000000e+00 1.4752564679676748e+01 1.0838678978637953e+01 4.8603428244607443e+00 
157 1 2 1.0280000000000098e+00 -5.3724073081974245e+02 1.0000000000000000e+00 1.4752326549703854e+01 1.0841170523442155e+01 4.8587975903039045e+00 
170 1 2 1.0279999999999965e+00 -5.7251890056728007e+02 1.0000000000000000e+00 1.4703447801086371e+01 1.2242021583668148e+01 5.6702159044840306e+00 
128 1 2 1.0279999999999794e+00 -5.2294789510962300e+02 1.0000000000000000e+00 1.4258306190446643e+01 1.0477013657139516e+01 5.3546539249921681e+00 
129 1 2 1.0279999999999947e+00 -5.4470058256101527e+02 1.0000000000000000e+00 1.4230086845361466e+01 1.1288134052525479e+01 6.5291791487696660e+00 
135 1 2 1.0280000000000238e+00 -5.9879078187746279e+02 1.0000000000000000e+00 1.4645863508907579e+01 1.2229265226940528e+01 5.8820716587402382e+00 
165 1 2 1.0280000000000125e+00 -5.0191858382258732e+02 1.0000000000000000e+00 1.4477469791654418e+01 1.1491714884620599e+01 6.5736156169411997e+00 
171 1 2 1.0280000000000133e+00 -6.0314561567972021e+02 1.0000000000000000e+00 1.4675485218805660e+01 1.2239034369834632e+01 5.8029071326009545e+00 
130 1 2 1.0280000000000113e+00 -3.3090860199532858e+02 1.0000000000000000e+00 1.4512785104505451e+01 1.1240655518590737e+01 6.5768306249050728e+00 
94 1 2 1.0280000000000125e+00 -4.3447834238980130e+02 1.0000000000000000e+00 1.4388103884331141e+01 1.1368632666566613e+01 6.5732338842793308e+00 
98 1 2 1.0280000000000140e+00 -5.6243159958971000e+02 1.0000000000000000e+00 1.4206493341394518e+01 1.1817452960408739e+01 6.3857452977292057e+00 
99 1 2 1.0279999999999985e+00 -4.8237955334387834e+02 1.0000000000000000e+00 1.4333364977422733e+01 1.1785711359627859e+01 6.4527258143904938e+00 
166 1 2 1.0279999999999951e+00 -3.1145370920403263e+02 1.0000000000000000e+00 1.4531659840692587e+01 1.1186394153483363e+01 6.5683496692024264e+00 
93 1 2 1.0279999999999963e+00 -4.8008675170261137e+02 1.0000000000000000e+00 1.4223209209318648e+01 1.1404701068205007e+01 6.5279570210122300e+00 
100 1 2 1.0279999999999940e+00 -4.1892742287971174e+02 1.0000000000000000e+00 1.4303613755577109e+01 1.1792004548484146e+01 6.4403987430050034e+00 
92 1 2 1.0279999999999780e+00 -4.8430499779724812e+02 1.0000000000000000e+00 1.4338703591935676e+01 1.0521462689067222e+01 5.1900623634901457e+00 
140 1 2 1.0279999999999985e+00 -5.0351796167922362e+02 1.0000000000000000e+00 1.4704449294872296e+01 1.2241687729813426e+01 5.6620670782447640e+00 
176 1 2 1.0280000000000156e+00 -6.2283233491159046e+02 1.0000000000000000e+00 1.4704385480229645e+01 1.2241793374258117e+01 5.6667834568276065e+00 
177 1 2 1.0279999999999923e+00 -4.9107601580022032e+02 1.0000000000000000e+00 1.4704262358544607e+01 1.2241822194875137e+01 5.6671198939668308e+00 
141 1 2 1.0280000000000107e+00 -4.7623891711794624e+02 1.0000000000000000e+00 1.4704155766344678e+01 1.2241843455110965e+01 5.6671973996921778e+00 
87 1 2 1.0279999999999940e+00 -4.7397250587595113e+02 1.0000000000000000e+00 1.4312135648226816e+01 1.0458741361778944e+01 5.3573485455565129e+00 
123 1 2 1.0279999999999978e+00 -4.4461969477537684e+02 1.0000000000000000e+00 1.4440732779492768e+01 1.0503905589851254e+01 5.1834934842497011e+00 
122 1 2 1.0279999999999929e+00 -4.2998736795457773e+02 1.0000000000000000e+00 1.4496631340159364e+01 1.0563635609159540e+01 5.0794594677114953e+00 
86 1 2 1.0279999999999951e+00 -3.4117587382984709e+02 1.0000000000000000e+00 1.4443612932358715e+01 1.0534010000132406e+01 5.1313043067567685e+00 

Velocities

6 4.5853779947727307e-13 4.3943205778863831e-12 -1.2418732076881410e-12
34 -1.4138248820083204e-12 -3.0951301480559136e-12 -1.2418732076881408e-12
35 4.5853779947727317e-13 -1.1119541640136963e-11 -1.2418732076881412e-12
5 4.5853779947727307e-13 4.3943205778863831e-12 -1.2418732076881410e-12
71 4.5853779947727307e-13 4.3943205778863831e-12 -1.2418732076881410e-12
42 4.5853779947727307e-13 4.3943205778863831e-12 -1.2418732076881410e-12
72 4.5853779947727307e-13 4.3943205778863831e-12 -1.2418732076881410e-12
36 4.5853779947727307e-13 4.3943205778863831e-12 -1.2418732076881410e-12
29 -7.6422966661452157e-14 -1.4902478496396794e-12 2.2353717722136847e-12
65 -1.4138248820083204e-12 -1.4902478496396794e-12 2.2353717722136847e-12
70 -7.6422966661452157e-14 -1.4902478496396794e-12 2.2353717722136847e-12
28 -7.6422966661452157e-14 -1.4902478496396794e-12 2.2353717722136847e-12
64 -7.6422966661452170e-14 -3.0951301480559132e-12 -1.2418732076881408e-12
33 -7.6422966661452107e-14 -3.0951301480559132e-12 2.2353717722136851e-12
44 -7.8668333516734264e-13 1.1386206168863701e-13 -2.6912850907927908e-13
2 -3.3434041739089650e-12 1.0558118443829458e-12 -2.6912850907927918e-13
43 8.2808772088003840e-13 -8.2808772100566120e-13 1.6147710563092949e-12
8 -1.0558118445085706e-12 7.8668333504171923e-13 9.4194978295624855e-13
1 4.2439495686819246e-13 -6.9352346633505079e-13 -2.6912850907927918e-13
3 2.8983070219759017e-13 -6.9352346633505069e-13 -1.7493353104560181e-12
9 1.3663447395625392e-12 -6.9352346633505079e-13 -2.6912850907927918e-13
7 1.2317804848918825e-12 5.1755482570049153e-13 -2.6912850907927908e-13
14 8.2808772088003860e-13 -9.6265197567628242e-13 -4.0369276374989071e-13
45 -7.8668333516734254e-13 9.2124758971236559e-13 1.8838995656505470e-12
15 -6.5211908049671718e-13 1.0558118443829458e-12 -1.6147710557853985e-12
51 8.2808772088003850e-13 5.1755482570049183e-13 9.4194978295624855e-13
50 8.2808772088003840e-13 -1.0972162303468976e-12 -2.6912850907927918e-13
17 1.7176434819928976e-13 7.4109846876186982e-323 1.2596052188399910e-12
57 -4.9620811639304940e-13 7.4109846876186982e-323 -2.2138515970401802e-12
58 3.0535884111776166e-13 7.4109846876186982e-323 -1.1450956536924399e-12
16 1.7176434819928973e-13 7.4109846876186982e-323 -1.1450956536924399e-12
52 -4.9620811639304930e-13 7.4109846876186982e-323 -3.4352869618162898e-13
21 1.7176434819928981e-13 7.4109846876186982e-323 2.3283611621877642e-12
22 1.7176434819928976e-13 7.4109846876186982e-323 1.2596052188399910e-12
40 7.4109846876186982e-323 6.5713799899123085e-13 7.1687781767870157e-13
41 7.4109846876186982e-323 -2.8376413559983392e-13 7.1687781767870157e-13
47 7.4109846876186982e-323 5.8993070366326546e-13 7.1687781767870157e-13
82 7.4109846876186982e-323 5.8993070366326556e-13 -8.9609727019164699e-13
46 7.4109846876186982e-323 -3.5097143092776982e-13 4.4804863636695503e-13
11 7.4109846876186982e-323 -1.1574589748629568e-12 -1.9714139954385338e-12
4 7.4109846876186982e-323 6.5713799899123085e-13 7.1687781767870157e-13
10 7.4109846876186982e-323 -3.5097143092776977e-13 -8.9609727019164689e-13