LAMMPS data file via write_data, version 30 Jul 2016, timestep = 50000000

4620 atoms
8 atom types

0.0000000000000000e+00 1.0000000000000000e+02 xlo xhi
0.0000000000000000e+00 4.0000000000000000e+01 ylo yhi
0.0000000000000000e+00 4.0000000000000000e+01 zlo zhi

Masses

1 3.896
2 5.36
3 20.064
4 8.378
5 8.378
6 8.378
7 8.378
8 8.378

Atoms # meso-molecular

4415 4416 2 1.0280000000000000e+00 2.4012895824592280e+02 1.0000000000000000e+00 3.0174685339684935e+01 1.1421596862244561e+01 8.7768044318738558e-01 
4414 4415 2 1.0280000000000000e+00 -6.6294433366330918e+02 1.0000000000000000e+00 3.1172764491799711e+01 1.1646861809149925e+01 3.6732103329244475e-01 
332 333 2 1.0280000000000000e+00 7.7131199682909624e+01 1.0000000000000000e+00 3.2420384068494698e+01 3.2146612530831007e+00 2.2705753135810580e+00 
4490 4491 2 1.0280000000000000e+00 6.7878890628872838e+01 1.0000000000000000e+00 3.2975820623631300e+01 2.9509123680837797e+00 3.2345772722607800e+00 
4027 4028 2 1.0279999999999974e+00 -5.4787564251718959e+02 1.0000000000000000e+00 1.6021269895847098e+01 1.7016158282001090e+01 2.2864358038371111e+00 
799 800 2 1.0279999999999994e+00 -2.6021202480470538e+02 1.0000000000000000e+00 2.5720632433077455e+01 1.2708356124229073e+01 4.7527470712946549e+00 
1919 1920 2 1.0280000000000007e+00 8.5502551258789936e+02 1.0000000000000000e+00 3.2976266125929037e+01 1.4541072943396232e+01 4.6754615965827062e+00 
4616 4617 2 1.0279999999999974e+00 7.0239154471129154e+02 1.0000000000000000e+00 1.5641319597576965e+01 1.6761554229446421e+01 3.3343802511843590e+00 
1554 1555 2 1.0280000000000005e+00 -4.9588359548423057e+02 1.0000000000000000e+00 2.0179565086236224e+01 1.8635447599476965e+01 4.8190352497681781e+00 
3277 3278 2 1.0280000000000005e+00 -2.9785890993600844e+02 1.0000000000000000e+00 2.9924738942004257e+01 3.8140069522266620e+00 6.3780681850875887e+00 
2857 2858 2 1.0280000000000005e+00 -5.6486681309632058e+02 1.0000000000000000e+00 3.0127924837705422e+01 3.5436416752145958e+00 5.2858268535893513e+00 
3150 3151 2 1.0280000000000000e+00 -5.4175205929621643e+02 1.0000000000000000e+00 1.9102468140177759e+01 7.7548545995777101e+00 5.5931460595447025e+00 
1764 1765 2 1.0280000000000000e+00 -5.4785638281771958e+02 1.0000000000000000e+00 2.0236921693395459e+01 7.8146744824989618e+00 5.7227984203321727e+00 
841 842 2 1.0279999999999994e+00 -3.8274456190262561e+02 1.0000000000000000e+00 2.6525746989768731e+01 1.3374185429596915e+01 5.2173274240603877e+00 
2057 2058 2 1.0280000000000005e+00 -2.7934228447582257e+02 1.0000000000000000e+00 2.0054476152706162e+01 1.9291154239707954e+01 5.7473533946538842e+00 
4161 4162 2 1.0280000000000074e+00 -1.7304858824949806e+03 1.0000000000000000e+00 9.5637158053515958e-01 2.0788401512246768e+00 7.8104067341666141e+00 
1722 1723 2 1.0279999997782450e+00 -4.9794157281887721e+02 1.0000000000000000e+00 3.2524059208194132e+01 1.5986969585586976e+01 7.5495255754326740e+00 
2141 2142 2 1.0280000002218868e+00 -2.8068347990961479e+02 1.0000000000000000e+00 3.2974446080334737e+01 1.6906295592244636e+01 7.0318117671090494e+00 
44 45 2 1.0279999999522507e+00 -4.3418609339614011e+02 1.0000000000000000e+00 3.0094975468293253e+01 1.4713670069609583e+01 9.2624424209008716e+00 
1860 1861 2 1.0280000000942398e+00 -3.4674170361062284e+02 1.0000000000000000e+00 3.1347984307590863e+01 1.5124121382339471e+01 9.1997875346416560e+00 
4075 4076 2 1.0279999999452480e+00 -3.8165924072012820e+02 1.0000000000000000e+00 3.2878325895886853e+01 1.6211955858368995e+01 9.8824412879012709e+00 
1173 1174 2 1.0280000000439315e+00 -5.4027829317557894e+02 1.0000000000000000e+00 2.8480593031577353e+01 1.8265442113603285e+01 9.2882176443218452e+00 
251 252 2 1.0279999999775038e+00 8.7484069472901433e+02 1.0000000000000000e+00 2.9416032239055994e+01 1.7478812695346026e+01 8.9703586753768114e+00 
3275 3276 2 1.0279999999999996e+00 -3.5871062157072151e+02 1.0000000000000000e+00 2.3124760842223441e+01 4.3571942031372446e+00 1.0118104144891912e+01 
3316 3317 2 1.0279999999999996e+00 6.3718849236149151e+02 1.0000000000000000e+00 2.3200240609562528e+01 3.6864131435581777e+00 1.1040995575284006e+01 
4329 4330 2 1.0279999999999996e+00 -1.0171713419613736e+03 1.0000000000000000e+00 6.1454124168784166e+00 6.6433381208583757e+00 1.0445655763689205e+01 
4286 4287 2 1.0279999999999996e+00 -2.6102084815735009e+02 1.0000000000000000e+00 7.2646058002903153e+00 6.4137864018583279e+00 1.0491319713254395e+01 
1344 1345 2 1.0280000000000000e+00 -3.1610620344751169e+02 1.0000000000000000e+00 1.0534743865708270e+01 9.6488293640736540e+00 1.1156809651250180e+01 
1008 1009 2 1.0280000000000000e+00 -3.0277968423977723e+02 1.0000000000000000e+00 1.1148654228968889e+01 1.0519104706552685e+01 1.1572872040337394e+01 
826 827 2 1.0279999998788436e+00 6.5271727283493260e+02 1.0000000000000000e+00 3.2012887842251246e+01 1.3128454244854160e+01 1.1491934981367779e+01 
3785 3786 2 1.0279999999951808e+00 1.0872785575371881e+03 1.0000000000000000e+00 2.8515845507573072e+01 1.4357135756591788e+01 1.0588344466360425e+01 
4207 4208 2 1.0280000000201208e+00 -7.7951392654589336e+02 1.0000000000000000e+00 2.9878831498264976e+01 1.3858919832366151e+01 1.0739195267428448e+01 
3739 3740 2 1.0280000000948422e+00 -3.8248084216096959e+02 1.0000000000000000e+00 3.2681151762721939e+01 1.4958649979398960e+01 1.0644364108721225e+01 
2859 2860 2 1.0280000001080636e+00 -5.3962656044267669e+02 1.0000000000000000e+00 2.9112549505818912e+01 1.6067698538060817e+01 1.0973114930011196e+01 
45 46 2 1.0279999999593405e+00 -2.9062129037035515e+02 1.0000000000000000e+00 3.0901560978120198e+01 1.5366029441738180e+01 1.0831020920050138e+01 
1598 1599 2 1.0279999999754261e+00 4.2200352633721491e+02 1.0000000000000000e+00 2.9665726566706308e+01 1.8162965204412632e+01 1.0508237781147900e+01 
2062 2063 2 1.0280000000193841e+00 3.0202676480567579e+03 1.0000000000000000e+00 3.0792938710679913e+01 1.6899910566864463e+01 1.0744415178428881e+01 
2059 2060 2 1.0279999999782581e+00 -5.0865503369970213e+01 1.0000000000000000e+00 3.2425230947977369e+01 1.6702636660361648e+01 1.1453873698688824e+01 
2060 2061 2 1.0279999999597580e+00 9.0248023994218715e+02 1.0000000000000000e+00 2.9021702919817852e+01 1.9419270124082775e+01 1.1151106720657751e+01 
3030 3031 2 1.0280000000000000e+00 1.4179473735845590e+03 1.0000000000000000e+00 6.2334228336206206e+00 2.4720532879094548e+00 1.2471234436330978e+01 
3031 3032 2 1.0280000000000000e+00 4.8390812654356660e+02 1.0000000000000000e+00 7.3703251828619845e+00 2.5201640367513232e+00 1.2359379970197153e+01 
380 381 2 1.0280000000463196e+00 -4.3382014019908036e+02 1.0000000000000000e+00 2.7701684773726996e+01 1.2646615948605790e+01 1.2465193090577070e+01 
830 831 2 1.0280000001116800e+00 -7.7575590606913806e+01 1.0000000000000000e+00 3.2410301883518187e+01 1.2392558663449977e+01 1.2297074280239196e+01 
381 382 2 1.0279999999858802e+00 -2.8827970973420213e+02 1.0000000000000000e+00 2.8904520876392901e+01 1.3564789640294540e+01 1.2125869878661176e+01 
3274 3275 2 1.0280000000238445e+00 -9.7870759915794019e+02 1.0000000000000000e+00 3.1204242120703135e+01 1.4131988391669545e+01 1.3320624459745119e+01 
2649 2650 2 1.0279999999995175e+00 6.1038420353054198e+02 1.0000000000000000e+00 3.3076830288255849e+01 1.4804481525569585e+01 1.2305085434562892e+01 
2774 2775 2 1.0279999999250200e+00 -2.5174036339064094e+02 1.0000000000000000e+00 2.8317942260532082e+01 1.5484734372078998e+01 1.1813874030308336e+01 
1219 1220 2 1.0279999999428151e+00 -1.0211358114043296e+03 1.0000000000000000e+00 3.1703996767623018e+01 1.6314127675339293e+01 1.2959903090840136e+01 
673 674 2 1.0279999999903358e+00 1.0133278502307244e+03 1.0000000000000000e+00 3.1540533102138248e+01 1.7997464334308763e+01 1.1862731160689810e+01 
3907 3908 2 1.0279999999736102e+00 1.0168692597905924e+03 1.0000000000000000e+00 3.0912850017204367e+01 1.9374714844731383e+01 1.2267418250943207e+01 
4369 4370 2 1.0280000000681804e+00 -9.9363158838299478e+02 1.0000000000000000e+00 3.2175103196141073e+01 1.9833792163167882e+01 1.2553369814437788e+01 
2942 2943 2 1.0280000000338749e+00 -4.1810853600913262e+01 1.0000000000000000e+00 3.3298998299526431e+01 1.8394374079164809e+01 1.2695650972729869e+01 
2280 2281 2 1.0279999999563607e+00 -3.4641477081223229e+02 1.0000000000000000e+00 2.8387130099132978e+01 1.2969965445822714e+01 1.3590177271148983e+01 
3732 3733 2 1.0279999999701266e+00 -1.2267209472090685e+03 1.0000000000000000e+00 3.1018044094710209e+01 1.4502935450709996e+01 1.4397454706462643e+01 
757 758 2 1.0280000000660268e+00 -1.1605199819774828e+02 1.0000000000000000e+00 3.2472356135881036e+01 1.5974214509001198e+01 1.4049383264268521e+01 
2985 2986 2 1.0280000000164962e+00 -1.0261735439180004e+03 1.0000000000000000e+00 3.2224104961888379e+01 1.7878527593198410e+01 1.3668297751245211e+01 
3026 3027 2 1.0279999999260294e+00 -4.1667845543177037e+01 1.0000000000000000e+00 3.3059579819149391e+01 1.8194409315032456e+01 1.4984814423345755e+01 
4372 4373 2 1.0280000000467837e+00 1.3628193111885512e+03 1.0000000000000000e+00 3.2541727901174227e+01 1.9985918840713083e+01 1.4443190562786819e+01 
4459 4460 2 1.0280000000001395e+00 -3.7994450016283577e+02 1.0000000000000000e+00 2.8231649081749879e+01 1.2041097307112157e+01 1.5299135353844392e+01 
4079 4080 2 1.0280000000063227e+00 8.0882986434080101e+02 1.0000000000000000e+00 2.8493242310412981e+01 1.3164291528700470e+01 1.5528858695777501e+01 
2895 2896 2 1.0279999999999994e+00 -1.5595901605181598e+03 1.0000000000000000e+00 5.5667168410769268e+00 1.5456647118802291e+01 1.5016439907658773e+01 
3314 3315 2 1.0279999999999994e+00 9.1784871289608463e+02 1.0000000000000000e+00 6.1014257804761636e+00 1.5957818796525864e+01 1.5894099475505570e+01 
3535 3536 2 1.0280000000872154e+00 -1.2439431770870721e+02 1.0000000000000000e+00 3.3132300586558365e+01 1.9584858526264568e+01 1.6106807016387602e+01 
4285 4286 2 1.0280000000000000e+00 -1.1026817905007519e+02 1.0000000000000000e+00 1.4490538979567098e+01 2.1106583720893535e+00 1.7723755679266969e+01 
3405 3406 2 1.0280000000000000e+00 2.4894037217990029e+02 1.0000000000000000e+00 1.5489683063292196e+01 1.7268372617957053e+00 1.7321554892707784e+01 
3525 3526 2 1.0279999998760880e+00 -5.5807547807898140e+02 1.0000000000000000e+00 3.2766971227379969e+01 1.8116776392746868e+01 1.7034291880771654e+01 
3105 3106 2 1.0280000001156877e+00 -8.8088562494287135e+02 1.0000000000000000e+00 3.2511753363058865e+01 1.8899880719626744e+01 1.7965750774153186e+01 
4340 4341 2 1.0280000000000000e+00 1.9067600666959481e+02 1.0000000000000000e+00 1.9608839209597747e+01 3.7909662425437068e-01 1.9053157343600894e+01 
3372 3373 2 1.0280000000000000e+00 -4.3571696885606025e+02 1.0000000000000000e+00 2.0707362031033316e+01 1.3113068583696186e-01 1.8855335399346092e+01 
554 555 2 1.0279999999637739e+00 6.4366013096754318e+02 1.0000000000000000e+00 3.3166483786189261e+01 1.8008110723333061e+01 1.9768306943468815e+01 
3323 3324 2 1.0280000000000007e+00 9.6226190211703533e+02 1.0000000000000000e+00 2.5730360376947736e+01 8.5771259717365194e+00 2.1185539376085924e+01 
3575 3576 2 1.0280000000000007e+00 9.6011672897232143e+02 1.0000000000000000e+00 2.5403666384137985e+01 8.7927517225167353e+00 2.0111225833342825e+01 
4040 4041 2 1.0280000000712173e+00 6.6267818786801035e+02 1.0000000000000000e+00 2.7735611139485243e+01 1.6818540334934774e+01 2.1376300126132421e+01 
4586 4587 2 1.0279999999324156e+00 3.1371897760899714e+01 1.0000000000000000e+00 2.8868782494761618e+01 1.6862526243467755e+01 2.1152394631507946e+01 
3863 3864 2 1.0279999999999982e+00 -7.4712385026367838e+02 1.0000000000000000e+00 9.7900012735278068e+00 1.6128330196677652e+01 2.2279460408409818e+01 
3778 3779 2 1.0279999999999982e+00 -2.4101383933194620e+02 1.0000000000000000e+00 1.0510050415805317e+01 1.5989254983437178e+01 2.3156706289121882e+01 
2655 2656 2 1.0280000000449308e+00 -4.1118994341383427e+02 1.0000000000000000e+00 2.9549149348491117e+01 1.7797330834706685e+01 2.3130103427721284e+01 
2613 2614 2 1.0280000000152758e+00 2.8260478087011352e+03 1.0000000000000000e+00 2.8517462360967965e+01 1.8214194590983620e+01 2.2704572890858891e+01 
2143 2144 2 1.0279999998898421e+00 -7.8223395346253619e+02 1.0000000000000000e+00 3.1352741381262426e+01 1.7086353608240103e+01 2.2210556152381717e+01 
2605 2606 2 1.0280000000921921e+00 -7.8071563868293254e+02 1.0000000000000000e+00 3.1358847167673929e+01 1.8317813376839322e+01 2.2224108096934597e+01 
855 856 2 1.0280000001113991e+00 -3.1769512926737434e+02 1.0000000000000000e+00 3.3001169854676512e+01 1.7678844214904892e+01 2.1859880076266492e+01 
4543 4544 2 1.0279999999999925e+00 -7.8201091344045813e+02 1.0000000000000000e+00 1.2924711935458152e+01 1.5822646738562883e+01 2.4536544277435564e+01 
4416 4417 2 1.0279999999999925e+00 1.5371037073685824e+02 1.0000000000000000e+00 1.3617866960862180e+01 1.6360258626723017e+01 2.3803139487483378e+01 
4539 4540 2 1.0280000000779317e+00 -2.4782778574778104e+02 1.0000000000000000e+00 2.7733072350454840e+01 1.7384323113372282e+01 2.4346629716870748e+01 
3158 3159 2 1.0279999998941698e+00 9.5277049675254162e+01 1.0000000000000000e+00 2.8725351444504447e+01 1.6858940373271405e+01 2.4673412421517501e+01 
927 928 2 1.0280000000000000e+00 -9.5974385366464048e+02 1.0000000000000000e+00 3.0229635273966933e+00 2.8189123712370456e+00 2.5650658010681830e+01 
931 932 2 1.0280000000000000e+00 -1.3556489077499043e+02 1.0000000000000000e+00 2.9712231053675096e+00 3.9556519992611161e+00 2.5762546188192594e+01 
1683 1684 2 1.0280000000000000e+00 -1.0217255130077565e+03 1.0000000000000000e+00 1.2462877419878986e+01 4.5589542041470761e+00 2.7684033301135074e+01 
2228 2229 2 1.0280000000000000e+00 -5.4369860527219339e+02 1.0000000000000000e+00 2.9396167715558772e+01 1.6657441129069039e+01 2.7288336555582113e+01 
2229 2230 2 1.0280000000000000e+00 1.0013429031203955e+03 1.0000000000000000e+00 2.9466507270876150e+01 1.5529677593567950e+01 2.7113480121869827e+01 
1436 1437 2 1.0280000000000000e+00 6.4411075074248359e+01 1.0000000000000000e+00 2.2424651673242245e+01 1.3471209334297207e+00 2.9310622115715645e+01 
8 9 2 1.0280000000000000e+00 2.7600917972702256e+01 1.0000000000000000e+00 2.3347998102600641e+01 1.1663121812700221e+00 2.9960324035054271e+01 
1641 1642 2 1.0280000000000000e+00 -3.9689853863468318e+02 1.0000000000000000e+00 1.2015159387162951e+01 4.7407034622535154e+00 2.8720319356149510e+01 
4582 4583 2 1.0280000000000000e+00 -2.9339177146424181e+01 1.0000000000000000e+00 1.5803444188327767e+01 1.1436385943124010e+00 3.0785544598740174e+01 
4579 4580 2 1.0280000000000000e+00 1.1365375154415799e+03 1.0000000000000000e+00 1.6601534253553851e+01 1.4608981817404660e+00 3.0030712419092843e+01 
206 207 2 1.0279999999999994e+00 2.2475342669648802e+02 1.0000000000000000e+00 2.8590666543479124e+01 1.9584415360810254e+01 3.1220841303264450e+01 
207 208 2 1.0279999999999994e+00 -6.6506542323140377e+02 1.0000000000000000e+00 2.7644939604119052e+01 1.9320365610330935e+01 3.1806717828565802e+01 
1255 1256 2 1.0280000000000016e+00 4.7634172655139135e+00 1.0000000000000000e+00 1.9759493013077677e+01 1.3608170433917316e+01 3.3783746394124464e+01 
834 835 2 1.0280000000000016e+00 5.0191212237114325e+02 1.0000000000000000e+00 1.9519726122075195e+01 1.3946878661891185e+01 3.4849186017820024e+01 
3362 3363 2 1.0280000000000005e+00 6.0407697646807105e+02 1.0000000000000000e+00 3.0318879530744514e+01 1.6211955775176623e+01 3.4991395696508505e+01 
847 848 2 1.0280000000000000e+00 6.8716795132311472e+02 1.0000000000000000e+00 2.9044533848101661e+00 8.8300827241853579e+00 3.6133414763643174e+01 
883 884 2 1.0280000000000000e+00 -2.2604244232806786e+02 1.0000000000000000e+00 2.5981543522143475e+00 9.9292562885822804e+00 3.6206704567985732e+01 
1975 1976 2 1.0279999999999996e+00 -7.8241603058789258e+02 1.0000000000000000e+00 1.5135779403755715e+01 9.9409957012873527e+00 3.5961904741252965e+01 
2437 2438 2 1.0279999999999996e+00 -7.8134955500150227e+02 1.0000000000000000e+00 1.4613737455916143e+01 1.0917175836738684e+01 3.6248117189103908e+01 
3825 3826 2 1.0280000000000005e+00 1.0674850646300337e+02 1.0000000000000000e+00 2.9807749119395940e+01 1.5224286261109427e+01 3.5257154329549174e+01 
125 126 2 1.0279999999999994e+00 -5.4753575093849736e+02 1.0000000000000000e+00 1.5434111663616919e+01 1.2666897663647232e+01 3.9399142475249413e+01 
166 167 2 1.0279999999999994e+00 -6.1481758732091680e+02 1.0000000000000000e+00 1.5481357040343596e+01 1.3771001957179516e+01 3.9105723660514784e+01 
167 168 2 1.0280000000000007e+00 -2.5883209611734492e+02 1.0000000000000000e+00 1.9497558124103254e+01 1.5452942466696236e+01 3.9650203116481343e+01 
208 209 2 1.0280000000000007e+00 -1.0119251713579665e+03 1.0000000000000000e+00 2.0584543692217533e+01 1.5807630389734697e+01 3.9644557815720887e+01 
1 2 2 1.0280000000000000e+00 1.1391058127178762e+03 1.0000000000000000e+00 4.0400160084459351e+00 2.9788236210736915e+01 1.4792021219534557e-01 
4 5 2 1.0280000000000000e+00 -2.5845094710886137e+01 1.0000000000000000e+00 2.9671174602218757e+00 3.0047006439678448e+01 4.4675075161692779e-01 
127 128 2 1.0280000000000000e+00 -1.0919479411755918e+02 1.0000000000000000e+00 2.7015673893299709e+01 3.5280061062477863e+01 1.3539661133748131e+00 
1095 1096 2 1.0280000000000000e+00 2.4913692154559971e+02 1.0000000000000000e+00 2.8057063383604095e+01 3.5727728328495147e+01 1.5038826430802519e+00 
2240 2241 2 1.0280000000000009e+00 8.5394743141032495e+02 1.0000000000000000e+00 2.7040913514606264e+00 2.1481035995554759e+01 2.4177194410356284e+00 
2702 2703 2 1.0280000000000009e+00 8.4981552070418707e+02 1.0000000000000000e+00 1.9392334403700449e+00 2.0944113839499831e+01 3.0765669132461673e+00 
3993 3994 2 1.0280000000000002e+00 1.0405590249577682e+02 1.0000000000000000e+00 2.4698626645437230e+01 2.4583804973927634e+01 2.9404201576379969e+00 
2231 2232 2 1.0279999999999996e+00 -2.8530429097734429e+02 1.0000000000000000e+00 2.5074580173594555e+01 2.9057692638196517e+01 2.1825640566659277e+00 
2854 2855 2 1.0280000000000002e+00 1.7101776966562028e+02 1.0000000000000000e+00 3.2193890804549824e+01 2.9214584742887311e+01 3.2964435016645695e+00 
2148 2149 2 1.0279999999999996e+00 8.3895975436208960e+02 1.0000000000000000e+00 2.4604100170861461e+01 3.0070198486744722e+01 1.9358790527790097e+00 
3530 3531 2 1.0280000000000002e+00 6.0354273972739759e+02 1.0000000000000000e+00 2.4960332203207798e+01 2.5537240454421084e+01 3.5147406283048181e+00 
2475 2476 2 1.0280000000000002e+00 6.1649691484205584e+02 1.0000000000000000e+00 3.2743339047455081e+01 2.9990139466151227e+01 3.9320491317923212e+00 
3609 3610 2 1.0280000000000000e+00 6.3974438363848606e+01 1.0000000000000000e+00 2.6037219033235861e+01 3.9523049722423231e+01 6.2106218120951571e+00 
3104 3105 2 1.0280000000000000e+00 -3.8744232518513888e+02 1.0000000000000000e+00 2.6758213875940527e+01 3.9836644653510348e+01 7.0408011140826741e+00 
2897 2898 2 1.0280000000000005e+00 3.4657478358855508e+02 1.0000000000000000e+00 1.3886952239621369e+01 3.8400599412508043e+01 9.4473887713950440e+00 
2814 2815 2 1.0280000000000005e+00 6.8980460983366743e+02 1.0000000000000000e+00 1.4965081671830839e+01 3.8369969226726248e+01 9.0678209426985177e+00 
2522 2523 2 1.0279999999841662e+00 9.0390990512148801e+02 1.0000000000000000e+00 2.8601033027167983e+01 2.0794270954732568e+01 1.0946997445701610e+01 
2984 2985 2 1.0280000000861302e+00 4.2200095814964629e+02 1.0000000000000000e+00 2.9941483221551561e+01 2.0946832317322905e+01 1.1455295281114980e+01 
3529 3530 2 1.0279999999999994e+00 -1.0312359875640468e+03 1.0000000000000000e+00 2.3161519626608014e+00 3.2936039514141264e+01 1.1477003009734304e+01 
511 512 2 1.0280000000000002e+00 6.8608200316979708e+02 1.0000000000000000e+00 3.0603149475823685e+01 3.7195759743416552e+01 1.0753421152157616e+01 
463 464 2 1.0280000000000002e+00 -2.2500605377406595e+02 1.0000000000000000e+00 3.0355456380822734e+01 3.7952234673610874e+01 1.1574254160835437e+01 
2524 2525 2 1.0279999998069174e+00 3.0219521037516988e+03 1.0000000000000000e+00 2.9876344817284295e+01 2.2170567463394100e+01 1.2547155312331212e+01 
2521 2522 2 1.0280000002466525e+00 -4.7701160762476107e+01 1.0000000000000000e+00 3.1076402345257378e+01 2.1771685608977979e+01 1.2828034244833932e+01 
3991 3992 2 1.0279999999999994e+00 -1.2700384954556381e+02 1.0000000000000000e+00 3.2184835908313629e+00 3.2714756003611420e+01 1.2143489512395382e+01 
3524 3525 2 1.0280000000000007e+00 3.2570222547109836e+02 1.0000000000000000e+00 2.4655835384903668e+01 3.4409581667151251e+01 1.2820958194533398e+01 
3367 3368 2 1.0279999999796516e+00 -1.2565897022855927e+02 1.0000000000000000e+00 3.3158476862543608e+01 2.0954430481493940e+01 1.3546226323383154e+01 
3911 3912 2 1.0279999998749427e+00 -1.2837228506331309e+02 1.0000000000000000e+00 3.1925763248219241e+01 2.2597116868111097e+01 1.4055734363663552e+01 
2987 2988 2 1.0280000002121688e+00 2.5585728454924720e+03 1.0000000000000000e+00 3.2732080370808220e+01 2.3032588616730408e+01 1.4934831960442882e+01 
3522 3523 2 1.0280000000000007e+00 2.2228156411094363e+02 1.0000000000000000e+00 2.4312946576403977e+01 3.4327008451587453e+01 1.3908607929758785e+01 
1555 1556 2 1.0280000000000002e+00 5.2365905161237765e+02 1.0000000000000000e+00 2.9952286603881863e+01 2.6046053939539952e+01 1.5924802361390014e+01 
87 88 2 1.0280000000000002e+00 -1.0185657905686620e+03 1.0000000000000000e+00 2.9617446625745920e+01 2.7126935578898671e+01 1.6088967181610030e+01 
295 296 2 1.0280000000000005e+00 -1.0776449393072630e+02 1.0000000000000000e+00 1.4282296740325215e+01 3.2748803015804704e+01 1.6506502812200207e+01 
2397 2398 2 1.0279999999999976e+00 6.1360213937955075e+02 1.0000000000000000e+00 2.7121200320386539e+01 3.2469860295817945e+01 1.6238070070419568e+01 
2440 2441 2 1.0279999999999976e+00 6.3044636758821832e+02 1.0000000000000000e+00 2.8258024474393217e+01 3.2415545168752146e+01 1.6347859538482670e+01 
2151 2152 2 1.0279999999999994e+00 2.8192685015559896e+03 1.0000000000000000e+00 3.1989127569251430e+01 3.1965609086120814e+01 1.6157796518396434e+01 
3588 3589 2 1.0279999998702303e+00 2.1016080880529833e+02 1.0000000000000000e+00 3.2882385706685064e+01 2.1553195093378402e+01 1.7541350321600010e+01 
4048 4049 2 1.0280000001052505e+00 3.9134529362331207e+01 1.0000000000000000e+00 3.2891527202504470e+01 2.2779063681159617e+01 1.7748507866088609e+01 
1179 1180 2 1.0280000000000005e+00 2.4992534632775715e+02 1.0000000000000000e+00 1.5193895131900600e+01 3.3318911930447861e+01 1.6895523654033020e+01 
2193 2194 2 1.0279999999999994e+00 -4.1662337266298698e+02 1.0000000000000000e+00 3.2587364046820831e+01 3.2123785442672663e+01 1.7119288262818653e+01 
3821 3822 2 1.0280000000000000e+00 -8.1205553312181763e+01 1.0000000000000000e+00 2.4439757127731319e+01 3.6475330025580753e+01 1.7166741941026533e+01 
2979 2980 2 1.0280000000000000e+00 -1.9668215884648072e+02 1.0000000000000000e+00 2.3525250665329679e+01 3.7148193433773507e+01 1.7031443080722354e+01 
3776 3777 2 1.0279999999999996e+00 7.9887435953626607e+02 1.0000000000000000e+00 2.0197411500454951e+01 3.0834129415675534e+01 1.8485378183259254e+01 
4320 4321 2 1.0279999999999996e+00 -3.8100311579172785e+02 1.0000000000000000e+00 2.0413726040619242e+01 3.1597836599425158e+01 1.9308380233476306e+01 
3108 3109 2 1.0279999999999994e+00 -4.9597425505892829e+02 1.0000000000000000e+00 2.8687658027094095e+01 3.5910666294621883e+01 1.9097728001825782e+01 
2603 2604 2 1.0279999999999994e+00 -2.7846875357066125e+02 1.0000000000000000e+00 2.9716186960411207e+01 3.5619463621549372e+01 1.8691892747093359e+01 
3114 3115 2 1.0280000000000034e+00 -3.5261777740515129e+01 1.0000000000000000e+00 2.8268550322654058e+01 3.8135073909329762e+01 2.1002058597376713e+01 
3086 3087 2 1.0280000000000007e+00 9.6686837431579931e+01 1.0000000000000000e+00 4.7917124050846283e-01 3.8993520232870665e+01 2.0561559263390496e+01 
2862 2863 2 1.0280000000000034e+00 -5.6043070021498096e+01 1.0000000000000000e+00 2.8026855480540107e+01 3.7502332110897562e+01 2.1923250454305020e+01 
3910 3911 2 1.0279999999999994e+00 -3.7931229297252298e+02 1.0000000000000000e+00 1.5229234774576561e+01 3.6491073180619921e+01 2.4228452192748957e+01 
4371 4372 2 1.0279999999999994e+00 -1.3375407044173739e+03 1.0000000000000000e+00 1.4483855084195049e+01 3.7325826368060532e+01 2.4462907413810985e+01 
967 968 2 1.0279999999999994e+00 -3.0516818644678119e+02 1.0000000000000000e+00 1.1601097700061773e+01 3.3062637836161962e+01 2.5176133364903375e+01 
1471 1472 2 1.0279999999999994e+00 -5.6341296056414171e+02 1.0000000000000000e+00 1.0888945920621723e+01 3.3504428973232216e+01 2.5953972327481932e+01 
1726 1727 2 1.0280000000000002e+00 -1.5621448257277880e+03 1.0000000000000000e+00 2.8966680733031058e+01 3.1924381598384258e+01 2.8192159159629767e+01 
1937 1938 2 1.0280000000000000e+00 -5.0035457908050995e+02 1.0000000000000000e+00 2.9198715869168790e+01 2.9515125295468014e+01 2.8844322803162537e+01 
1307 1308 2 1.0279999999999998e+00 9.1587374877754564e+02 1.0000000000000000e+00 2.7982463119840745e+01 3.1401898429895596e+01 2.8453496148603993e+01 
1979 1980 2 1.0280000000000005e+00 6.3576991964024796e+02 1.0000000000000000e+00 3.0179015339372182e+01 3.0029177104839956e+01 2.8553232303017847e+01 
3861 3862 2 1.0280000000000011e+00 -4.2645068183008834e+02 1.0000000000000000e+00 8.5275538036946799e+00 2.6799706087793847e+01 3.0671814525858068e+01 
3903 3904 2 1.0280000000000011e+00 -5.1084020385712631e+02 1.0000000000000000e+00 9.5494057354468360e+00 2.6728833622574491e+01 3.1179917606646654e+01 
2559 2560 2 1.0280000000000007e+00 3.0377204637857621e+03 1.0000000000000000e+00 2.5575013174303958e+01 2.8308842189148226e+01 3.0711720060053565e+01 
3023 3024 2 1.0280000000000007e+00 4.0260913217647510e+02 1.0000000000000000e+00 2.6292747206200321e+01 2.8512480057100763e+01 3.1578185579074532e+01 
4537 4538 2 1.0279999999999996e+00 2.9962668155004371e+02 1.0000000000000000e+00 3.2548559513024955e+01 3.3888360716946920e+01 3.4819387566870446e+01 
345 346 2 1.0279999999999994e+00 -1.2074673130566474e+02 1.0000000000000000e+00 1.2594463810487831e+01 2.2826951900382788e+01 3.5816912748689752e+01 
387 388 2 1.0279999999999994e+00 -1.1645973161134461e+02 1.0000000000000000e+00 1.3674693313427960e+01 2.2463257318337149e+01 3.5726339632219620e+01 
2184 2185 2 1.0279999999999982e+00 -7.8837291762902805e+02 1.0000000000000000e+00 1.5826819012867468e+01 3.6946784900049302e+01 3.6707967818132353e+01 
2646 2647 2 1.0279999999999982e+00 -7.8325776603153190e+02 1.0000000000000000e+00 1.5027191010255923e+01 3.7741521274877506e+01 3.6898656489592263e+01 
814 815 2 1.0280000000000005e+00 3.7864867652080946e+01 1.0000000000000000e+00 1.4379631650673554e+01 2.1940802472482623e+01 3.8997282578398938e+01 
1278 1279 2 1.0280000000000005e+00 2.0177652886810955e+02 1.0000000000000000e+00 1.4747518580442314e+01 2.2998561408347992e+01 3.9227886693628946e+01 
2648 2649 2 1.0279999999830869e+00 9.6842714736021912e+02 1.0000000000000000e+00 4.3975074066984945e+01 1.4237510862600569e+00 1.0068474946626021e-01 
510 511 2 1.0279999998030269e+00 -6.6189665294226143e+02 1.0000000000000000e+00 4.5951484781334095e+01 2.0046426571117908e-03 3.8424267790292815e-01 
31 32 2 1.0280000005244989e+00 -3.6137087072327245e+02 1.0000000000000000e+00 4.8987340436759958e+01 8.3260979657319067e-01 1.0461347929310734e+00 
621 622 2 1.0279999995233151e+00 -8.0315785786108762e+01 1.0000000000000000e+00 5.0070900936406659e+01 1.3490892910342709e+00 9.7937890319596621e-01 
4236 4237 2 1.0280000000435277e+00 -8.0522173058945737e+02 1.0000000000000000e+00 5.3892888122262654e+01 1.8616346513750268e-01 5.2226760159783914e-01 
1079 1080 2 1.0279999994685511e+00 -6.8684337935959047e+02 1.0000000000000000e+00 4.8965505300053174e+01 2.9601177153130216e+00 1.6655738542440659e+00 
3611 3612 2 1.0280000000236609e+00 9.7019771267268152e+02 1.0000000000000000e+00 5.3563276579728488e+01 2.4097316578597305e+00 1.6726530557217006e-01 
1934 1935 2 1.0280000000000000e+00 9.6133435022289177e+02 1.0000000000000000e+00 6.4543440084093262e+01 2.9264839952547828e+00 1.6291834712431963e+00 
1684 1685 2 1.0280000000000000e+00 -8.8276904570552222e+02 1.0000000000000000e+00 3.6774041355146856e+01 4.5679884857558184e+00 7.0509231886532320e-01 
1180 1181 2 1.0280000000000000e+00 -5.6126719512831573e+02 1.0000000000000000e+00 3.7514742584646719e+01 4.5312589346292800e+00 1.5753713810920180e+00 
179 180 2 1.0280000000454026e+00 1.5897697338489183e+02 1.0000000000000000e+00 4.4711462094000730e+01 4.1621001293960944e+00 1.5875525179948984e+00 
1502 1503 2 1.0279999990674824e+00 8.2843972175842418e+02 1.0000000000000000e+00 4.7540313966507036e+01 3.5114821662607891e+00 9.6141619380578236e-01 
943 944 2 1.0279999994806299e+00 -6.7347253864154504e+02 1.0000000000000000e+00 4.7377354349604026e+01 4.9726344051300897e+00 2.1237772776525049e-01 
1712 1713 2 1.0280000001024432e+00 1.6581687432735782e+02 1.0000000000000000e+00 5.2111008705243293e+01 3.4257672246606696e+00 8.4943378795356739e-01 
456 457 2 1.0279999999665264e+00 1.0486532797522518e+02 1.0000000000000000e+00 5.4352355606082156e+01 3.4187952549208771e+00 7.4165666103884853e-01 
1891 1892 2 1.0280000000000000e+00 -6.0281595142854280e+02 1.0000000000000000e+00 6.5540774680477270e+01 3.4848094784292099e+00 1.6603182613072420e+00 
98 99 2 1.0279999987458306e+00 -3.7735271939302680e+02 1.0000000000000000e+00 4.6271389427787007e+01 6.0345059057102084e+00 6.3842143401107623e-02 
1878 1879 2 1.0280000004708725e+00 -3.2788274232898618e+02 1.0000000000000000e+00 4.8110136262016525e+01 6.1197702755835710e+00 9.8888883793519544e-01 
1084 1085 2 1.0279999996673055e+00 -1.3001697139663548e+02 1.0000000000000000e+00 5.1800462922871446e+01 5.8200644912891777e+00 1.0009651952574856e+00 
1338 1339 2 1.0279999998837501e+00 3.1860657305289692e+02 1.0000000000000000e+00 5.3599905494247992e+01 5.2687725859330339e+00 6.2010761359627209e-01 