LAMMPS data file via write_data, version 30 Jul 2016, timestep = 600000

2080 atoms
8 atom types

0.0000000000000000e+00 4.0000000000000000e+01 xlo xhi
0.0000000000000000e+00 4.0000000000000000e+01 ylo yhi
0.0000000000000000e+00 1.0000000000000000e+02 zlo zhi

Masses

1 3.896
2 21.44
3 1058.08
4 8.378
5 8.378
6 8.378
7 8.378
8 8.378

Atoms # meso-molecular

1 2 4 2.2559723595316457e+00 2.7351616431413299e+03 4.2000000000000000e+03 0.0000000000000000e+00 0.0000000000000000e+00 2.5000000000000000e+00 
2 2 4 2.2559723595316457e+00 -5.3810423546382619e+04 4.2000000000000000e+03 0.0000000000000000e+00 2.0000000000000000e+00 2.5000000000000000e+00 
21 2 4 2.2559723595316457e+00 -1.8504529295744738e+04 4.2000000000000000e+03 2.0000000000000000e+00 0.0000000000000000e+00 2.5000000000000000e+00 
22 2 4 2.2559723595316457e+00 -2.9368844290955551e+00 4.2000000000000000e+03 2.0000000000000000e+00 2.0000000000000000e+00 2.5000000000000000e+00 
41 2 4 2.2559723595316457e+00 -1.1949257960576372e+03 4.2000000000000000e+03 4.0000000000000000e+00 0.0000000000000000e+00 2.5000000000000000e+00 
42 2 4 2.2559723595316457e+00 -3.3021847167633546e+03 4.2000000000000000e+03 4.0000000000000000e+00 2.0000000000000000e+00 2.5000000000000000e+00 
61 2 4 2.2559723595316457e+00 2.1352365558789999e+04 4.2000000000000000e+03 6.0000000000000000e+00 0.0000000000000000e+00 2.5000000000000000e+00 
62 2 4 2.2559723595316457e+00 9.5706653866148990e+03 4.2000000000000000e+03 6.0000000000000000e+00 2.0000000000000000e+00 2.5000000000000000e+00 
81 2 4 2.2559723595316457e+00 2.5860048334405499e+04 4.2000000000000000e+03 8.0000000000000000e+00 0.0000000000000000e+00 2.5000000000000000e+00 
82 2 4 2.2559723595316457e+00 1.3930931106374253e+04 4.2000000000000000e+03 8.0000000000000000e+00 2.0000000000000000e+00 2.5000000000000000e+00 
101 2 4 2.2559723595316457e+00 1.5993339009948719e+04 4.2000000000000000e+03 1.0000000000000000e+01 0.0000000000000000e+00 2.5000000000000000e+00 
102 2 4 2.2559723595316457e+00 8.5705953747055246e+03 4.2000000000000000e+03 1.0000000000000000e+01 2.0000000000000000e+00 2.5000000000000000e+00 
121 2 4 2.2559723595316457e+00 -4.8321186048421614e+03 4.2000000000000000e+03 1.2000000000000000e+01 0.0000000000000000e+00 2.5000000000000000e+00 
122 2 4 2.2559723595316457e+00 -8.3690748843478068e+03 4.2000000000000000e+03 1.2000000000000000e+01 2.0000000000000000e+00 2.5000000000000000e+00 
141 2 4 2.2559723595316457e+00 1.1921476492132653e+04 4.2000000000000000e+03 1.4000000000000000e+01 0.0000000000000000e+00 2.5000000000000000e+00 
142 2 4 2.2559723595316457e+00 1.2407623875130753e+03 4.2000000000000000e+03 1.4000000000000000e+01 2.0000000000000000e+00 2.5000000000000000e+00 
161 2 4 2.2559723595316457e+00 2.8150821719700529e+04 4.2000000000000000e+03 1.6000000000000000e+01 0.0000000000000000e+00 2.5000000000000000e+00 
162 2 4 2.2559723595316457e+00 6.6034889826450017e+03 4.2000000000000000e+03 1.6000000000000000e+01 2.0000000000000000e+00 2.5000000000000000e+00 
181 2 4 2.2559723595316457e+00 2.3948210464868924e+04 4.2000000000000000e+03 1.8000000000000000e+01 0.0000000000000000e+00 2.5000000000000000e+00 
182 2 4 2.2559723595316457e+00 1.7811052045525692e+04 4.2000000000000000e+03 1.8000000000000000e+01 2.0000000000000000e+00 2.5000000000000000e+00 
3 2 4 2.2559723595316457e+00 6.6723159460627039e+03 4.2000000000000000e+03 0.0000000000000000e+00 4.0000000000000000e+00 2.5000000000000000e+00 
23 2 4 2.2559723595316457e+00 1.7684887947484611e+04 4.2000000000000000e+03 2.0000000000000000e+00 4.0000000000000000e+00 2.5000000000000000e+00 
43 2 4 2.2559723595316457e+00 1.7199986799214166e+04 4.2000000000000000e+03 4.0000000000000000e+00 4.0000000000000000e+00 2.5000000000000000e+00 
63 2 4 2.2559723595316457e+00 4.9761736248169582e+03 4.2000000000000000e+03 6.0000000000000000e+00 4.0000000000000000e+00 2.5000000000000000e+00 
83 2 4 2.2559723595316457e+00 -3.0338113114898515e+03 4.2000000000000000e+03 8.0000000000000000e+00 4.0000000000000000e+00 2.5000000000000000e+00 
103 2 4 2.2559723595316457e+00 7.8097613773586472e+03 4.2000000000000000e+03 1.0000000000000000e+01 4.0000000000000000e+00 2.5000000000000000e+00 
123 2 4 2.2559723595316457e+00 1.0519998900381408e+04 4.2000000000000000e+03 1.2000000000000000e+01 4.0000000000000000e+00 2.5000000000000000e+00 
143 2 4 2.2559723595316457e+00 5.3607814053864277e+03 4.2000000000000000e+03 1.4000000000000000e+01 4.0000000000000000e+00 2.5000000000000000e+00 
163 2 4 2.2559723595316457e+00 2.2320591124826369e+03 4.2000000000000000e+03 1.6000000000000000e+01 4.0000000000000000e+00 2.5000000000000000e+00 
183 2 4 2.2559723595316457e+00 2.4273101947504892e+03 4.2000000000000000e+03 1.8000000000000000e+01 4.0000000000000000e+00 2.5000000000000000e+00 
4 2 4 2.2559723595316457e+00 7.9600238761070923e+03 4.2000000000000000e+03 0.0000000000000000e+00 6.0000000000000000e+00 2.5000000000000000e+00 
5 2 4 2.2559723595316457e+00 1.8081233070841736e+04 4.2000000000000000e+03 0.0000000000000000e+00 8.0000000000000000e+00 2.5000000000000000e+00 
24 2 4 2.2559723595316457e+00 6.2608632878210847e+03 4.2000000000000000e+03 2.0000000000000000e+00 6.0000000000000000e+00 2.5000000000000000e+00 
25 2 4 2.2559723595316457e+00 7.5031318804093844e+03 4.2000000000000000e+03 2.0000000000000000e+00 8.0000000000000000e+00 2.5000000000000000e+00 
44 2 4 2.2559723595316457e+00 2.1369127120072000e+04 4.2000000000000000e+03 4.0000000000000000e+00 6.0000000000000000e+00 2.5000000000000000e+00 
45 2 4 2.2559723595316457e+00 7.1996584404718433e+03 4.2000000000000000e+03 4.0000000000000000e+00 8.0000000000000000e+00 2.5000000000000000e+00 
64 2 4 2.2559723595316457e+00 4.4985171303133930e+03 4.2000000000000000e+03 6.0000000000000000e+00 6.0000000000000000e+00 2.5000000000000000e+00 
65 2 4 2.2559723595316457e+00 -3.9035505857398908e+02 4.2000000000000000e+03 6.0000000000000000e+00 8.0000000000000000e+00 2.5000000000000000e+00 
84 2 4 2.2559723595316457e+00 8.9917991142007111e+02 4.2000000000000000e+03 8.0000000000000000e+00 6.0000000000000000e+00 2.5000000000000000e+00 
85 2 4 2.2559723595316457e+00 2.9030676814135386e+03 4.2000000000000000e+03 8.0000000000000000e+00 8.0000000000000000e+00 2.5000000000000000e+00 
104 2 4 2.2559723595316457e+00 5.6354305626827654e+03 4.2000000000000000e+03 1.0000000000000000e+01 6.0000000000000000e+00 2.5000000000000000e+00 
105 2 4 2.2559723595316457e+00 2.4929757382879843e+03 4.2000000000000000e+03 1.0000000000000000e+01 8.0000000000000000e+00 2.5000000000000000e+00 
124 2 4 2.2559723595316457e+00 8.9332863013865449e+01 4.2000000000000000e+03 1.2000000000000000e+01 6.0000000000000000e+00 2.5000000000000000e+00 
125 2 4 2.2559723595316457e+00 3.8460528801557248e+03 4.2000000000000000e+03 1.2000000000000000e+01 8.0000000000000000e+00 2.5000000000000000e+00 
144 2 4 2.2559723595316457e+00 3.9660082154900474e+03 4.2000000000000000e+03 1.4000000000000000e+01 6.0000000000000000e+00 2.5000000000000000e+00 
145 2 4 2.2559723595316457e+00 1.1734395764129044e+04 4.2000000000000000e+03 1.4000000000000000e+01 8.0000000000000000e+00 2.5000000000000000e+00 
164 2 4 2.2559723595316457e+00 9.7196997371051766e+03 4.2000000000000000e+03 1.6000000000000000e+01 6.0000000000000000e+00 2.5000000000000000e+00 
165 2 4 2.2559723595316457e+00 2.0611186200945391e+04 4.2000000000000000e+03 1.6000000000000000e+01 8.0000000000000000e+00 2.5000000000000000e+00 
184 2 4 2.2559723595316457e+00 -2.2830714001757427e+04 4.2000000000000000e+03 1.8000000000000000e+01 6.0000000000000000e+00 2.5000000000000000e+00 
185 2 4 2.2559723595316457e+00 1.1227259090411162e+03 4.2000000000000000e+03 1.8000000000000000e+01 8.0000000000000000e+00 2.5000000000000000e+00 
6 2 4 2.2559723595316457e+00 1.7683796610874124e+04 4.2000000000000000e+03 0.0000000000000000e+00 1.0000000000000000e+01 2.5000000000000000e+00 
26 2 4 2.2559723595316457e+00 7.5517564707794709e+03 4.2000000000000000e+03 2.0000000000000000e+00 1.0000000000000000e+01 2.5000000000000000e+00 
46 2 4 2.2559723595316457e+00 6.3723427039344297e+03 4.2000000000000000e+03 4.0000000000000000e+00 1.0000000000000000e+01 2.5000000000000000e+00 
66 2 4 2.2559723595316457e+00 3.3879507529135844e+03 4.2000000000000000e+03 6.0000000000000000e+00 1.0000000000000000e+01 2.5000000000000000e+00 
86 2 4 2.2559723595316457e+00 1.7040175488776782e+04 4.2000000000000000e+03 8.0000000000000000e+00 1.0000000000000000e+01 2.5000000000000000e+00 
106 2 4 2.2559723595316457e+00 2.4776894227683100e+04 4.2000000000000000e+03 1.0000000000000000e+01 1.0000000000000000e+01 2.5000000000000000e+00 
126 2 4 2.2559723595316457e+00 8.9770940749325855e+03 4.2000000000000000e+03 1.2000000000000000e+01 1.0000000000000000e+01 2.5000000000000000e+00 
146 2 4 2.2559723595316457e+00 1.1907411019413717e+04 4.2000000000000000e+03 1.4000000000000000e+01 1.0000000000000000e+01 2.5000000000000000e+00 
166 2 4 2.2559723595316457e+00 4.8474213683499365e+03 4.2000000000000000e+03 1.6000000000000000e+01 1.0000000000000000e+01 2.5000000000000000e+00 
186 2 4 2.2559723595316457e+00 -6.2438877313337262e+03 4.2000000000000000e+03 1.8000000000000000e+01 1.0000000000000000e+01 2.5000000000000000e+00 
7 2 4 2.2559723595316457e+00 1.7718204598107493e+03 4.2000000000000000e+03 0.0000000000000000e+00 1.2000000000000000e+01 2.5000000000000000e+00 
8 2 4 2.2559723595316457e+00 -2.8478155801565201e+04 4.2000000000000000e+03 0.0000000000000000e+00 1.4000000000000000e+01 2.5000000000000000e+00 
27 2 4 2.2559723595316457e+00 9.6584933532840259e+03 4.2000000000000000e+03 2.0000000000000000e+00 1.2000000000000000e+01 2.5000000000000000e+00 
28 2 4 2.2559723595316457e+00 -8.9002292745633326e+02 4.2000000000000000e+03 2.0000000000000000e+00 1.4000000000000000e+01 2.5000000000000000e+00 
47 2 4 2.2559723595316457e+00 6.9184290948710841e+03 4.2000000000000000e+03 4.0000000000000000e+00 1.2000000000000000e+01 2.5000000000000000e+00 
48 2 4 2.2559723595316457e+00 1.1812899363650329e+04 4.2000000000000000e+03 4.0000000000000000e+00 1.4000000000000000e+01 2.5000000000000000e+00 
67 2 4 2.2559723595316457e+00 -3.5717881834450009e+02 4.2000000000000000e+03 6.0000000000000000e+00 1.2000000000000000e+01 2.5000000000000000e+00 
68 2 4 2.2559723595316457e+00 1.0562198792862389e+04 4.2000000000000000e+03 6.0000000000000000e+00 1.4000000000000000e+01 2.5000000000000000e+00 
87 2 4 2.2559723595316457e+00 1.1654449553811464e+04 4.2000000000000000e+03 8.0000000000000000e+00 1.2000000000000000e+01 2.5000000000000000e+00 
88 2 4 2.2559723661195479e+00 1.3171702240464598e+04 4.2000000000000000e+03 8.0000000000000000e+00 1.4000000000000000e+01 2.5000000000000000e+00 
107 2 4 2.2559723595316457e+00 1.7005019533464241e+04 4.2000000000000000e+03 1.0000000000000000e+01 1.2000000000000000e+01 2.5000000000000000e+00 
108 2 4 2.2559723595316457e+00 1.1980284815153118e+04 4.2000000000000000e+03 1.0000000000000000e+01 1.4000000000000000e+01 2.5000000000000000e+00 
127 2 4 2.2559723595316457e+00 2.6729493335820516e+04 4.2000000000000000e+03 1.2000000000000000e+01 1.2000000000000000e+01 2.5000000000000000e+00 
128 2 4 2.2559723595316457e+00 5.9557053280539491e+04 4.2000000000000000e+03 1.2000000000000000e+01 1.4000000000000000e+01 2.5000000000000000e+00 
147 2 4 2.2559723595316457e+00 1.6524414767016417e+04 4.2000000000000000e+03 1.4000000000000000e+01 1.2000000000000000e+01 2.5000000000000000e+00 
148 2 4 2.2559723595316457e+00 4.2804599209805980e+04 4.2000000000000000e+03 1.4000000000000000e+01 1.4000000000000000e+01 2.5000000000000000e+00 
167 2 4 2.2559723595316457e+00 -2.2704469498612311e+03 4.2000000000000000e+03 1.6000000000000000e+01 1.2000000000000000e+01 2.5000000000000000e+00 
168 2 4 2.2559723595316457e+00 -2.8842482893790420e+03 4.2000000000000000e+03 1.6000000000000000e+01 1.4000000000000000e+01 2.5000000000000000e+00 
187 2 4 2.2559723595316457e+00 -1.2993916308684245e+04 4.2000000000000000e+03 1.8000000000000000e+01 1.2000000000000000e+01 2.5000000000000000e+00 
188 2 4 2.2559723595316457e+00 -1.2128357579631713e+04 4.2000000000000000e+03 1.8000000000000000e+01 1.4000000000000000e+01 2.5000000000000000e+00 
9 2 4 2.2559723595316457e+00 9.5810557743505233e+03 4.2000000000000000e+03 0.0000000000000000e+00 1.6000000000000000e+01 2.5000000000000000e+00 
29 2 4 2.2559723595316457e+00 6.7596642770378389e+02 4.2000000000000000e+03 2.0000000000000000e+00 1.6000000000000000e+01 2.5000000000000000e+00 
49 2 4 2.2559723595316457e+00 1.0509130651596329e+03 4.2000000000000000e+03 4.0000000000000000e+00 1.6000000000000000e+01 2.5000000000000000e+00 
69 2 4 2.2559723595316457e+00 1.3695418070465614e+04 4.2000000000000000e+03 6.0000000000000000e+00 1.6000000000000000e+01 2.5000000000000000e+00 
89 2 4 2.2559723595316457e+00 1.1372920251651722e+04 4.2000000000000000e+03 8.0000000000000000e+00 1.6000000000000000e+01 2.5000000000000000e+00 
109 2 4 2.2559723595316457e+00 6.8902637259711428e+03 4.2000000000000000e+03 1.0000000000000000e+01 1.6000000000000000e+01 2.5000000000000000e+00 
129 2 4 2.2559723595316457e+00 1.9485955528454593e+04 4.2000000000000000e+03 1.2000000000000000e+01 1.6000000000000000e+01 2.5000000000000000e+00 
149 2 4 2.2559723595316457e+00 2.0778193138590104e+04 4.2000000000000000e+03 1.4000000000000000e+01 1.6000000000000000e+01 2.5000000000000000e+00 
169 2 4 2.2559723595316457e+00 9.1617940714551623e+03 4.2000000000000000e+03 1.6000000000000000e+01 1.6000000000000000e+01 2.5000000000000000e+00 
189 2 4 2.2559723595316457e+00 -5.6758540858642073e+03 4.2000000000000000e+03 1.8000000000000000e+01 1.6000000000000000e+01 2.5000000000000000e+00 
10 2 4 2.2559723595316679e+00 5.2901332738294122e+03 4.2000000000000000e+03 0.0000000000000000e+00 1.8000000000000000e+01 2.5000000000000000e+00 
30 2 4 2.2559723595316457e+00 9.8365145222387866e+02 4.2000000000000000e+03 2.0000000000000000e+00 1.8000000000000000e+01 2.5000000000000000e+00 
50 2 4 2.2559723595316457e+00 6.9924346431132972e+03 4.2000000000000000e+03 4.0000000000000000e+00 1.8000000000000000e+01 2.5000000000000000e+00 
70 2 4 2.2559723595316457e+00 1.5883918438085329e+04 4.2000000000000000e+03 6.0000000000000000e+00 1.8000000000000000e+01 2.5000000000000000e+00 
90 2 4 2.2559723595316457e+00 5.2258717139161872e+03 4.2000000000000000e+03 8.0000000000000000e+00 1.8000000000000000e+01 2.5000000000000000e+00 
110 2 4 2.2559723595316457e+00 8.4465061772950685e+03 4.2000000000000000e+03 1.0000000000000000e+01 1.8000000000000000e+01 2.5000000000000000e+00 
130 2 4 2.2559723595316457e+00 1.7984165016546853e+04 4.2000000000000000e+03 1.2000000000000000e+01 1.8000000000000000e+01 2.5000000000000000e+00 
150 2 4 2.2559723595316457e+00 1.0961422770996756e+04 4.2000000000000000e+03 1.4000000000000000e+01 1.8000000000000000e+01 2.5000000000000000e+00 
170 2 4 2.2559723595316457e+00 6.0194299091748162e+03 4.2000000000000000e+03 1.6000000000000000e+01 1.8000000000000000e+01 2.5000000000000000e+00 
190 2 4 2.2559723595316457e+00 -9.6005417674373693e+03 4.2000000000000000e+03 1.8000000000000000e+01 1.8000000000000000e+01 2.5000000000000000e+00 
850 452 2 1.0280056872015972e+00 -6.6278545134836901e+05 4.2000000000000000e+03 2.3085585349955502e+00 8.7106462830283848e-01 7.2475325998957878e+00 
1903 1505 2 1.0280015965760936e+00 -4.0581228237048403e+05 4.2000000000000000e+03 3.9981493472944889e+00 2.3339630535841596e+00 6.6538111040505257e+00 
1329 931 2 1.0280027598967305e+00 6.6751078083506622e+05 4.2000000000000000e+03 5.0511218128621049e+00 1.0169339117950557e-01 7.3672986859351965e+00 
1460 1062 2 1.0281486236319295e+00 6.5564666839299502e+05 4.2000000000000000e+03 4.3800052763270719e-01 4.2210055565613747e+00 7.0228009349650682e+00 
1630 1232 2 1.0280570623079328e+00 -3.2232786148849834e+05 4.2000000000000000e+03 2.8781029259876720e+00 5.6960034487039515e+00 6.4570393013353433e+00 
1055 657 2 1.0279678043023071e+00 -7.3217061699043028e+05 4.2000000000000000e+03 7.0969820280892550e+00 3.0416235915963026e+00 6.7630749032188824e+00 
1336 938 2 1.0280463133533579e+00 7.0352303297286993e+05 4.2000000000000000e+03 7.3556298586227422e+00 5.3255607785830463e+00 7.5299803681350559e+00 
748 350 2 1.0279982955414726e+00 5.7338136101356556e+05 4.2000000000000000e+03 9.6546328549961480e+00 3.1087260882656129e+00 7.4166177557920712e+00 
1936 1538 2 1.0280028839212392e+00 6.5901087166841410e+05 4.2000000000000000e+03 1.0036627576717391e+01 5.6929641447434118e+00 7.0583118668762550e+00 
1424 1026 2 1.0279995684752743e+00 4.7238525023407966e+05 4.2000000000000000e+03 1.1682907623481203e+01 4.2615295176944059e+00 7.0666725126321568e+00 
1160 762 2 1.0280057815917076e+00 -3.2363008014287552e+04 4.2000000000000000e+03 4.8671746328847769e+00 5.8842206436478142e+00 6.4186059132324171e+00 
482 84 2 1.0280991797856995e+00 -1.2687516285633580e+05 4.2000000000000000e+03 6.0109029609570488e+00 8.5417989445433502e+00 7.5017746212564145e+00 
1256 858 2 1.0280551410496126e+00 6.5091770750789309e+05 4.2000000000000000e+03 1.6728585544634321e+01 7.4151936191681598e+00 6.8610267634988844e+00 
1304 906 2 1.0279162217767788e+00 -3.8279785373382649e+05 4.2000000000000000e+03 1.7822828927014235e+01 5.9728829902091123e+00 7.1742785153074333e+00 
777 379 2 1.0280729819818410e+00 5.2207088774925523e+05 4.2000000000000000e+03 1.5325994087628796e+00 1.0568234635043311e+01 6.7805037707725742e+00 
1652 1254 2 1.0279637808579398e+00 5.4875099839458498e+05 4.2000000000000000e+03 3.0935843221049968e+00 9.1044592787318379e+00 6.4954345198601793e+00 
1752 1354 2 1.0279215390237819e+00 4.9922701930279238e+05 4.2000000000000000e+03 4.6192633061742638e+00 1.1268096109557550e+01 7.7434067324527849e+00 
413 15 2 1.0281458231653211e+00 8.3407925624670018e+05 4.2000000000000000e+03 7.2062177834601870e+00 1.1227090906197851e+01 8.2966002017256582e+00 
574 176 2 1.0280344171835334e+00 -4.6520553091320535e+05 4.2000000000000000e+03 1.0038051789953972e+01 9.3208014381327189e+00 7.9500992318255506e+00 
1497 1099 2 1.0279544793423427e+00 -2.1343318090007672e+05 4.2000000000000000e+03 8.9633346849656892e+00 1.0261010668543955e+01 6.5183159209155592e+00 
1462 1064 2 1.0266026357094205e+00 1.2201707807355476e+05 4.2000000000000000e+03 1.3738917554848129e+01 9.4650489376753733e+00 7.6824116000577067e+00 
433 35 2 1.0280372442953614e+00 4.7022527230873692e+05 4.2000000000000000e+03 1.8458498045017133e+00 1.3646438253247917e+01 6.4847701806839684e+00 
442 44 2 1.0280801811698885e+00 1.0156488848938624e+06 4.2000000000000000e+03 7.6763525299834781e+00 1.3140542235945437e+01 6.3733019441116960e+00 
1113 715 2 1.0279405958952987e+00 7.1122735700699606e+05 4.2000000000000000e+03 1.0927297346999026e+01 1.3300989854287165e+01 6.7324391536081221e+00 
1503 1105 2 1.0281361947025884e+00 -6.9106172765064938e+05 4.2000000000000000e+03 9.4527923085708885e+00 1.4250041609827033e+01 8.2511882252438067e+00 
948 550 2 1.0280022187836908e+00 2.8340343095290428e+05 4.2000000000000000e+03 1.9256952846543367e+01 1.3701916165599011e+01 7.7818924490473957e+00 
1257 859 2 1.0279942228053183e+00 9.4251575789689645e+05 4.2000000000000000e+03 3.5837950591424370e+00 1.4993693814249077e+01 6.4585262922656685e+00 
485 87 2 1.0279814972155721e+00 7.8495590060027910e+05 4.2000000000000000e+03 6.5288176946381462e+00 1.4975917221624094e+01 6.4165397903324166e+00 
1640 1242 2 1.0279781520397910e+00 -4.8206106473487880e+03 4.2000000000000000e+03 1.1229524882319341e+01 1.5517508867978560e+01 6.4678539164187141e+00 
1104 706 2 1.0280116243200030e+00 8.2899602213369362e+04 4.2000000000000000e+03 1.4329033616170031e+01 1.6008689972645811e+01 6.9551495646118493e+00 
855 457 2 1.0279900696516020e+00 -6.8703671128031786e+05 4.2000000000000000e+03 1.8401624814599987e+01 1.5476801560315121e+01 6.4650800501273116e+00 
565 167 2 1.0279041794846631e+00 6.8730750552450796e+05 4.2000000000000000e+03 1.9321374938593354e+00 1.7816539404524011e+01 7.0131242353371990e+00 
570 172 2 1.0280600042530679e+00 2.6917958036336733e+05 4.2000000000000000e+03 4.2727354845935794e+00 1.7554295926262377e+01 6.6018443427518836e+00 
847 449 2 1.0279459283201400e+00 -8.9976778125453647e+05 4.2000000000000000e+03 7.0109731775072781e+00 1.7802618059257011e+01 7.2644882408328435e+00 
1659 1261 2 1.0279558713589312e+00 -7.0165997540135204e+05 4.2000000000000000e+03 1.0668676893333517e+01 1.8037792860813386e+01 6.6824336928332757e+00 
1213 815 2 1.0280524165334941e+00 3.3434406405267247e+04 4.2000000000000000e+03 1.2097367025815872e+01 1.9868084576886599e+01 8.0026754519433236e+00 
869 471 2 1.0279888618537172e+00 1.5382577404052383e+05 4.2000000000000000e+03 1.6473410396999515e+01 1.7553003179770325e+01 6.4903798394610535e+00 
1539 1141 2 1.0279956662369358e+00 -8.1834324918664980e+05 4.2000000000000000e+03 3.7290682592478777e+00 1.5123160186051927e+00 9.2112707002191563e+00 
1797 1399 2 1.0279856275014061e+00 9.4576114653350972e+05 4.2000000000000000e+03 7.1729116831636466e+00 2.4939296942113360e+00 1.0972498581325084e+01 
725 327 2 1.0280282973311228e+00 8.0946466641187159e+04 4.2000000000000000e+03 7.2617195765846532e+00 1.6008882887805918e+00 8.7803452926696242e+00 
1727 1329 2 1.0279776444137589e+00 -2.3034774412129700e+05 4.2000000000000000e+03 9.9936368847370076e+00 1.7221180548060375e+00 1.0726950593716470e+01 
2014 1616 2 1.0280150934064141e+00 4.6902359048963920e+05 4.2000000000000000e+03 1.1046182785919445e+01 8.6070193176663701e-02 1.0957687594033706e+01 
1961 1563 2 1.0280967132615126e+00 2.5884544481211857e+05 4.2000000000000000e+03 1.9242539279065284e+01 1.6654478937895423e+00 9.1830417013114154e+00 
1359 961 2 1.0280016634735070e+00 -8.2223617197953304e+05 4.2000000000000000e+03 3.1649839906665855e+00 4.5488280473722389e+00 9.8573912128244512e+00 
1313 915 2 1.0279965521339927e+00 1.7879520650481299e+05 4.2000000000000000e+03 4.9785734372639716e+00 4.8672037790652833e+00 9.6163951838218260e+00 
1901 1503 2 1.0279365254735833e+00 1.6597415845932520e+05 4.2000000000000000e+03 1.3229610968374985e+00 7.0209568139832506e+00 8.5333285991676036e+00 
1749 1351 2 1.0280581210532742e+00 4.9378843063802039e+05 4.2000000000000000e+03 2.7177600888008335e+00 8.3349520277145306e+00 9.0356651482387100e+00 
1647 1249 2 1.0279122069410562e+00 -8.9266874360060063e+05 4.2000000000000000e+03 7.4782166386887807e+00 7.8206464414089405e+00 8.6789444725185731e+00 
553 155 2 1.0280993930514501e+00 5.9659186776664597e+05 4.2000000000000000e+03 1.1995717307927988e+01 6.9518909068609576e+00 1.0538362863846388e+01 
1163 765 2 1.0280613736147444e+00 -7.5101456444599829e+05 4.2000000000000000e+03 1.5951371754101405e+01 6.1145957313589596e+00 9.5166164217329818e+00 
1429 1031 2 1.0279364898174592e+00 8.5668213173117954e+05 4.2000000000000000e+03 1.6590145773835822e+01 7.7750693555469610e+00 1.0216295550869189e+01 
2040 1642 2 1.0280214498743221e+00 7.9422182664924150e+05 4.2000000000000000e+03 1.9212903855987289e+01 5.9740380034394089e+00 1.0682361477191206e+01 
2007 1609 2 1.0279266395382682e+00 2.0794687846013706e+05 4.2000000000000000e+03 9.8517455305122859e+00 1.1095073062762358e+01 1.0014411315798148e+01 
762 364 2 1.0294891332885567e+00 -8.2645876507857174e+05 4.2000000000000000e+03 1.3460828855787135e+01 1.0867160660053388e+01 8.7129610647649578e+00 
1457 1059 2 1.0279475961112514e+00 5.0860496471322066e+05 4.2000000000000000e+03 1.6685227423689382e+00 1.2454122727228881e+01 8.8755512121755267e+00 
745 347 2 1.0280392588080882e+00 5.5070915088767977e+05 4.2000000000000000e+03 1.9790980899010517e+00 1.3257938993466691e+01 1.1026688642686359e+01 
894 496 2 1.0280243386114030e+00 -5.8324312905634008e+05 4.2000000000000000e+03 5.0999805347215963e+00 1.3050628988975781e+01 8.9627186996619201e+00 
1413 1015 2 1.0279820222781639e+00 9.2981271736050956e+05 4.2000000000000000e+03 7.5967155151477854e+00 1.3964013312019988e+01 1.0543883422811575e+01 
1486 1088 2 1.0280859474376185e+00 -8.2769060671369836e+05 4.2000000000000000e+03 1.1366054665421666e+01 1.2997195262189399e+01 1.0461372965045472e+01 
1302 904 2 1.0280123525463907e+00 -7.8443506331848109e+05 4.2000000000000000e+03 1.6266723565737461e+01 1.2972773160030899e+01 1.0733595638991492e+01 
880 482 2 1.0280152992197420e+00 6.7974200383351941e+05 4.2000000000000000e+03 1.5215376118340982e+01 1.4102563945369079e+01 8.8193434846570504e+00 
1330 932 2 1.0280187572348072e+00 -6.0112563743011421e+05 4.2000000000000000e+03 4.7281444986060545e-01 1.5031312494211241e+01 8.5693908765111182e+00 
1233 835 2 1.0279660323329267e+00 3.9484137038746063e+05 4.2000000000000000e+03 5.3857534542242336e+00 1.5910980649379974e+01 8.7113158199869432e+00 
1732 1334 2 1.0279768643473917e+00 6.7677813941319892e+05 4.2000000000000000e+03 4.2946603833191732e+00 1.6645917649578482e+01 1.0944418325001884e+01 
1035 637 2 1.0280892440439089e+00 -7.0182111358243308e+05 4.2000000000000000e+03 8.2818049591693264e+00 1.7021277276905153e+01 8.8907152825677915e+00 
1133 735 2 1.0279931006962340e+00 -2.3009572435163506e+05 4.2000000000000000e+03 1.3293817285793757e+01 1.5702469351096411e+01 9.0320958678205745e+00 
1224 826 2 1.0280282894848998e+00 6.0471214433547598e+05 4.2000000000000000e+03 1.6839275590222520e+01 1.6380236408818806e+01 8.5975213610306565e+00 
405 7 2 1.0280713463484301e+00 8.7339703179970407e+05 4.2000000000000000e+03 2.7403022195421531e+00 1.8005427484315344e+01 9.1890009494426597e+00 
840 442 2 1.0279356853484436e+00 6.2634324222447723e+05 4.2000000000000000e+03 6.9566944865152562e+00 1.9583995188518379e+01 1.0649918021852450e+01 
755 357 2 1.0280115635836677e+00 -3.4427994040508335e+05 4.2000000000000000e+03 9.0187779321371888e+00 1.9985692771319222e+01 8.8942295622091638e+00 
962 564 2 1.0280107618018119e+00 -4.8130958378116274e+05 4.2000000000000000e+03 1.6268740527331421e+01 1.8085384989222181e+01 1.0783948792352636e+01 
1764 1366 2 1.0279694652891598e+00 -5.0580542009156168e+04 4.2000000000000000e+03 1.4808218365820059e+01 1.8592700432926804e+01 8.5581332979477978e+00 
1407 1009 2 1.0279916513235667e+00 6.3006878661735216e+05 4.2000000000000000e+03 5.0805259810871373e-01 1.9068470839867400e+00 1.1677056993514201e+01 
1981 1583 2 1.0280069769844034e+00 9.7712325514996622e+05 4.2000000000000000e+03 4.0281015262664072e-01 2.3732537957412711e-01 1.2991077163753239e+01 
768 370 2 1.0279763361489063e+00 -4.1664126426937779e+04 4.2000000000000000e+03 5.1294351738757644e+00 2.3894740840576061e+00 1.2946278969025778e+01 
592 194 2 1.0280120152489949e+00 6.3004856535647158e+05 4.2000000000000000e+03 3.2406955077885260e+00 3.9707398473121502e-01 1.1645923474820469e+01 
528 130 2 1.0280248849468852e+00 1.4397960343251246e+05 4.2000000000000000e+03 6.6621787711037799e+00 9.0546405316670042e-01 1.2845965664999181e+01 
640 242 2 1.0279822525791551e+00 -3.7728066161754206e+04 4.2000000000000000e+03 1.7827365122120213e+01 2.3166335786845229e+00 1.2532137599441768e+01 
1571 1173 2 1.0279500277182703e+00 -4.8340165103662235e+05 4.2000000000000000e+03 1.2550984255021795e+00 4.7423105484832400e+00 1.2431113562448060e+01 
1977 1579 2 1.0280496159980803e+00 5.8680795778546564e+05 4.2000000000000000e+03 3.1288456239108875e+00 4.7207489812021981e+00 1.3564389610461314e+01 
671 273 2 1.0279011006190779e+00 -7.2287003144221019e+05 4.2000000000000000e+03 1.1301863452755656e+01 5.4618311601785363e+00 1.1158378193719622e+01 
1601 1203 2 1.0280082343272603e+00 8.7768157122975157e+04 4.2000000000000000e+03 1.1191919942347710e+00 7.3421202543219479e+00 1.2547740590489374e+01 
1121 723 2 1.0280326269856501e+00 2.9145708494023285e+04 4.2000000000000000e+03 5.1937461267027665e+00 7.0299327467478756e+00 1.1963272664624832e+01 
926 528 2 1.0279699563313907e+00 -8.3537369636041683e+05 4.2000000000000000e+03 5.3151011304835487e+00 6.9906895427693856e+00 1.3759204175206561e+01 
912 514 2 1.0279838168007369e+00 6.9958777720529598e+05 4.2000000000000000e+03 1.4807233100160740e+01 8.5527961063807716e+00 1.2401817751821900e+01 
1894 1496 2 1.0280120629791032e+00 -9.5289516034188820e+05 4.2000000000000000e+03 1.6223643747335792e+01 6.6576019259473922e+00 1.3828667539116866e+01 
852 454 2 1.0279789470362481e+00 2.2718666445601170e+05 4.2000000000000000e+03 1.9990609272068639e+01 7.3211670672419578e+00 1.1586465890128409e+01 
834 436 2 1.0280337753156314e+00 -3.5107452722029272e+05 4.2000000000000000e+03 7.5130366707231859e+00 1.1224634404656765e+01 1.1282575892786568e+01 
1530 1132 2 1.0280407054555190e+00 -4.8780116015116370e+05 4.2000000000000000e+03 9.5605210327387358e+00 1.0779303778775985e+01 1.2927668894621107e+01 
823 425 2 1.0280180614447367e+00 -5.2158678365015512e+05 4.2000000000000000e+03 1.3366122246508835e+01 9.3532161734808543e+00 1.3657427216444811e+01 
1310 912 2 1.0279919687164942e+00 -1.1560062024106111e+06 4.2000000000000000e+03 1.1947265659454011e+01 1.1021850811070287e+01 1.2182481631266816e+01 
970 572 2 1.0280351826624368e+00 -6.5083117024741229e+05 4.2000000000000000e+03 5.3276747809149887e+00 1.4147707728516123e+01 1.1664214229978777e+01 
512 114 2 1.0280046871623656e+00 6.4370828887975542e+05 4.2000000000000000e+03 4.7211927460083656e+00 1.2745026922487215e+01 1.3595185223164437e+01 
2048 1650 2 1.0279888732558802e+00 1.0033149302870225e+06 4.2000000000000000e+03 6.4072785530467655e+00 1.1486502005857657e+01 1.3521567186419183e+01 
1909 1511 2 1.0279770306842624e+00 9.2849417142241180e+05 4.2000000000000000e+03 1.0102704183246303e+01 1.3150310557867767e+01 1.3490995090319606e+01 
1890 1492 2 1.0280099641125049e+00 -9.2102162245979626e+05 4.2000000000000000e+03 1.2181787993850145e+01 1.3794602043088839e+01 1.3469703359422416e+01 
610 212 2 1.0280120648061162e+00 -5.2249936173163616e+05 4.2000000000000000e+03 1.6234720410626679e+01 1.1440967509075618e+01 1.3602311757386632e+01 
1373 975 2 1.0279771519259899e+00 1.0463138074000244e+06 4.2000000000000000e+03 1.4540418646348314e+01 1.3112797730722569e+01 1.1983494659601746e+01 
1120 722 2 1.0279956445308354e+00 -1.2176871767316932e+05 4.2000000000000000e+03 1.9826879251654947e+01 1.1721732400997690e+01 1.1645617097296000e+01 