LAMMPS data file via write_data, version 30 Jul 2016, timestep = 1000000

2080 atoms
8 atom types

0.0000000000000000e+00 4.0000000000000000e+01 xlo xhi
0.0000000000000000e+00 4.0000000000000000e+01 ylo yhi
0.0000000000000000e+00 1.0000000000000000e+02 zlo zhi

Masses

1 3.896
2 21.44
3 1058.08
4 8.378
5 8.378
6 8.378
7 8.378
8 8.378

Atoms # meso-molecular

1 2 4 2.2559723595316457e+00 2.7351616445042769e+03 4.2000000000000000e+03 0.0000000000000000e+00 0.0000000000000000e+00 2.5000000000000000e+00 
2 2 4 2.2559723595316457e+00 -5.3810423500649005e+04 4.2000000000000000e+03 0.0000000000000000e+00 2.0000000000000000e+00 2.5000000000000000e+00 
21 2 4 2.2559723595316457e+00 -1.8504529293098545e+04 4.2000000000000000e+03 2.0000000000000000e+00 0.0000000000000000e+00 2.5000000000000000e+00 
22 2 4 2.2559723595316457e+00 -2.9368844290955551e+00 4.2000000000000000e+03 2.0000000000000000e+00 2.0000000000000000e+00 2.5000000000000000e+00 
41 2 4 2.2559723595316457e+00 -1.1949257940831442e+03 4.2000000000000000e+03 4.0000000000000000e+00 0.0000000000000000e+00 2.5000000000000000e+00 
42 2 4 2.2559723595316457e+00 -3.3021847167633546e+03 4.2000000000000000e+03 4.0000000000000000e+00 2.0000000000000000e+00 2.5000000000000000e+00 
61 2 4 2.2559723595316457e+00 2.1352365558789999e+04 4.2000000000000000e+03 6.0000000000000000e+00 0.0000000000000000e+00 2.5000000000000000e+00 
62 2 4 2.2559723595316457e+00 9.5706653873399046e+03 4.2000000000000000e+03 6.0000000000000000e+00 2.0000000000000000e+00 2.5000000000000000e+00 
81 2 4 2.2559723595316457e+00 2.5860048336662712e+04 4.2000000000000000e+03 8.0000000000000000e+00 0.0000000000000000e+00 2.5000000000000000e+00 
82 2 4 2.2559723595316457e+00 1.3930931108762110e+04 4.2000000000000000e+03 8.0000000000000000e+00 2.0000000000000000e+00 2.5000000000000000e+00 
101 2 4 2.2559723595316457e+00 1.5993339012322002e+04 4.2000000000000000e+03 1.0000000000000000e+01 0.0000000000000000e+00 2.5000000000000000e+00 
102 2 4 2.2559723595316457e+00 8.5705953747055246e+03 4.2000000000000000e+03 1.0000000000000000e+01 2.0000000000000000e+00 2.5000000000000000e+00 
121 2 4 2.2559723595316457e+00 -4.8321186026121204e+03 4.2000000000000000e+03 1.2000000000000000e+01 0.0000000000000000e+00 2.5000000000000000e+00 
122 2 4 2.2559723595316457e+00 -8.3690748827611824e+03 4.2000000000000000e+03 1.2000000000000000e+01 2.0000000000000000e+00 2.5000000000000000e+00 
141 2 4 2.2559723595316457e+00 1.1921476492132653e+04 4.2000000000000000e+03 1.4000000000000000e+01 0.0000000000000000e+00 2.5000000000000000e+00 
142 2 4 2.2559723595316457e+00 1.2407623875130753e+03 4.2000000000000000e+03 1.4000000000000000e+01 2.0000000000000000e+00 2.5000000000000000e+00 
161 2 4 2.2559723595316457e+00 2.8150821719700529e+04 4.2000000000000000e+03 1.6000000000000000e+01 0.0000000000000000e+00 2.5000000000000000e+00 
162 2 4 2.2559723595316457e+00 6.6034889826450017e+03 4.2000000000000000e+03 1.6000000000000000e+01 2.0000000000000000e+00 2.5000000000000000e+00 
181 2 4 2.2559723595316457e+00 2.3948210467820001e+04 4.2000000000000000e+03 1.8000000000000000e+01 0.0000000000000000e+00 2.5000000000000000e+00 
182 2 4 2.2559723595316457e+00 1.7811052049356542e+04 4.2000000000000000e+03 1.8000000000000000e+01 2.0000000000000000e+00 2.5000000000000000e+00 
3 2 4 2.2559723595316457e+00 6.6723159484601720e+03 4.2000000000000000e+03 0.0000000000000000e+00 4.0000000000000000e+00 2.5000000000000000e+00 
23 2 4 2.2559723595316457e+00 1.7684887947484611e+04 4.2000000000000000e+03 2.0000000000000000e+00 4.0000000000000000e+00 2.5000000000000000e+00 
43 2 4 2.2559723595316457e+00 1.7199986801583502e+04 4.2000000000000000e+03 4.0000000000000000e+00 4.0000000000000000e+00 2.5000000000000000e+00 
63 2 4 2.2559723595316457e+00 4.9761736262273007e+03 4.2000000000000000e+03 6.0000000000000000e+00 4.0000000000000000e+00 2.5000000000000000e+00 
83 2 4 2.2559723595316457e+00 -3.0338113114716834e+03 4.2000000000000000e+03 8.0000000000000000e+00 4.0000000000000000e+00 2.5000000000000000e+00 
103 2 4 2.2559723595316457e+00 7.8097613809508621e+03 4.2000000000000000e+03 1.0000000000000000e+01 4.0000000000000000e+00 2.5000000000000000e+00 
123 2 4 2.2559723595316457e+00 1.0519998901820938e+04 4.2000000000000000e+03 1.2000000000000000e+01 4.0000000000000000e+00 2.5000000000000000e+00 
143 2 4 2.2559723595316457e+00 5.3607814053864277e+03 4.2000000000000000e+03 1.4000000000000000e+01 4.0000000000000000e+00 2.5000000000000000e+00 
163 2 4 2.2559723595316457e+00 2.2320591124826369e+03 4.2000000000000000e+03 1.6000000000000000e+01 4.0000000000000000e+00 2.5000000000000000e+00 
183 2 4 2.2559723595316457e+00 2.4273102119621062e+03 4.2000000000000000e+03 1.8000000000000000e+01 4.0000000000000000e+00 2.5000000000000000e+00 
4 2 4 2.2559723595316457e+00 7.9600238790460098e+03 4.2000000000000000e+03 0.0000000000000000e+00 6.0000000000000000e+00 2.5000000000000000e+00 
5 2 4 2.2559723595316457e+00 1.8081233072960276e+04 4.2000000000000000e+03 0.0000000000000000e+00 8.0000000000000000e+00 2.5000000000000000e+00 
24 2 4 2.2559723595316457e+00 6.2608632926395185e+03 4.2000000000000000e+03 2.0000000000000000e+00 6.0000000000000000e+00 2.5000000000000000e+00 
25 2 4 2.2559723595316457e+00 7.5031318812441368e+03 4.2000000000000000e+03 2.0000000000000000e+00 8.0000000000000000e+00 2.5000000000000000e+00 
44 2 4 2.2559723595316457e+00 2.1369127121376143e+04 4.2000000000000000e+03 4.0000000000000000e+00 6.0000000000000000e+00 2.5000000000000000e+00 
45 2 4 2.2559723595316457e+00 7.1996584460532576e+03 4.2000000000000000e+03 4.0000000000000000e+00 8.0000000000000000e+00 2.5000000000000000e+00 
64 2 4 2.2559723595316457e+00 4.4985171303133930e+03 4.2000000000000000e+03 6.0000000000000000e+00 6.0000000000000000e+00 2.5000000000000000e+00 
65 2 4 2.2559723595316457e+00 -3.9035505857398908e+02 4.2000000000000000e+03 6.0000000000000000e+00 8.0000000000000000e+00 2.5000000000000000e+00 
84 2 4 2.2559723595316457e+00 8.9918003690003582e+02 4.2000000000000000e+03 8.0000000000000000e+00 6.0000000000000000e+00 2.5000000000000000e+00 
85 2 4 2.2559723595316457e+00 2.9030676842053326e+03 4.2000000000000000e+03 8.0000000000000000e+00 8.0000000000000000e+00 2.5000000000000000e+00 
104 2 4 2.2559723595316457e+00 5.6354305993175540e+03 4.2000000000000000e+03 1.0000000000000000e+01 6.0000000000000000e+00 2.5000000000000000e+00 
105 2 4 2.2559723595316457e+00 2.4929757400156941e+03 4.2000000000000000e+03 1.0000000000000000e+01 8.0000000000000000e+00 2.5000000000000000e+00 
124 2 4 2.2559723595316457e+00 8.9332863013865449e+01 4.2000000000000000e+03 1.2000000000000000e+01 6.0000000000000000e+00 2.5000000000000000e+00 
125 2 4 2.2559723595316457e+00 3.8460528801557248e+03 4.2000000000000000e+03 1.2000000000000000e+01 8.0000000000000000e+00 2.5000000000000000e+00 
144 2 4 2.2559723595316457e+00 3.9660082154900474e+03 4.2000000000000000e+03 1.4000000000000000e+01 6.0000000000000000e+00 2.5000000000000000e+00 
145 2 4 2.2559723595316457e+00 1.1734395765857054e+04 4.2000000000000000e+03 1.4000000000000000e+01 8.0000000000000000e+00 2.5000000000000000e+00 
164 2 4 2.2559723595316457e+00 9.7196997371051766e+03 4.2000000000000000e+03 1.6000000000000000e+01 6.0000000000000000e+00 2.5000000000000000e+00 
165 2 4 2.2559723595316457e+00 2.0611186202665645e+04 4.2000000000000000e+03 1.6000000000000000e+01 8.0000000000000000e+00 2.5000000000000000e+00 
184 2 4 2.2559723595316457e+00 -2.2830713995937578e+04 4.2000000000000000e+03 1.8000000000000000e+01 6.0000000000000000e+00 2.5000000000000000e+00 
185 2 4 2.2559723595316457e+00 1.1227259094346850e+03 4.2000000000000000e+03 1.8000000000000000e+01 8.0000000000000000e+00 2.5000000000000000e+00 
6 2 4 2.2559723595316457e+00 1.7683796614629842e+04 4.2000000000000000e+03 0.0000000000000000e+00 1.0000000000000000e+01 2.5000000000000000e+00 
26 2 4 2.2559723595316457e+00 7.5517564707794709e+03 4.2000000000000000e+03 2.0000000000000000e+00 1.0000000000000000e+01 2.5000000000000000e+00 
46 2 4 2.2559723595316457e+00 6.3723427059691439e+03 4.2000000000000000e+03 4.0000000000000000e+00 1.0000000000000000e+01 2.5000000000000000e+00 
66 2 4 2.2559723595316457e+00 3.3879507529135844e+03 4.2000000000000000e+03 6.0000000000000000e+00 1.0000000000000000e+01 2.5000000000000000e+00 
86 2 4 2.2559723595316457e+00 1.7040175500932586e+04 4.2000000000000000e+03 8.0000000000000000e+00 1.0000000000000000e+01 2.5000000000000000e+00 
106 2 4 2.2559723595316457e+00 2.4776894228262303e+04 4.2000000000000000e+03 1.0000000000000000e+01 1.0000000000000000e+01 2.5000000000000000e+00 
126 2 4 2.2559723595316457e+00 8.9770940759000659e+03 4.2000000000000000e+03 1.2000000000000000e+01 1.0000000000000000e+01 2.5000000000000000e+00 
146 2 4 2.2559723595316457e+00 1.1907411019413717e+04 4.2000000000000000e+03 1.4000000000000000e+01 1.0000000000000000e+01 2.5000000000000000e+00 
166 2 4 2.2559723595316457e+00 4.8474213732111402e+03 4.2000000000000000e+03 1.6000000000000000e+01 1.0000000000000000e+01 2.5000000000000000e+00 
186 2 4 2.2559723595316457e+00 -6.2438877295190332e+03 4.2000000000000000e+03 1.8000000000000000e+01 1.0000000000000000e+01 2.5000000000000000e+00 
7 2 4 2.2559723595316457e+00 1.7718204598107493e+03 4.2000000000000000e+03 0.0000000000000000e+00 1.2000000000000000e+01 2.5000000000000000e+00 
8 2 4 2.2559723595316457e+00 -2.8478155800467797e+04 4.2000000000000000e+03 0.0000000000000000e+00 1.4000000000000000e+01 2.5000000000000000e+00 
27 2 4 2.2559723595316457e+00 9.6584933560500722e+03 4.2000000000000000e+03 2.0000000000000000e+00 1.2000000000000000e+01 2.5000000000000000e+00 
28 2 4 2.2559723595316457e+00 -8.9002292684057693e+02 4.2000000000000000e+03 2.0000000000000000e+00 1.4000000000000000e+01 2.5000000000000000e+00 
47 2 4 2.2559723595316457e+00 6.9184290977489363e+03 4.2000000000000000e+03 4.0000000000000000e+00 1.2000000000000000e+01 2.5000000000000000e+00 
48 2 4 2.2559723595316457e+00 1.1812899364545476e+04 4.2000000000000000e+03 4.0000000000000000e+00 1.4000000000000000e+01 2.5000000000000000e+00 
67 2 4 2.2559723595316457e+00 -3.5717881834450009e+02 4.2000000000000000e+03 6.0000000000000000e+00 1.2000000000000000e+01 2.5000000000000000e+00 
68 2 4 2.2559723595316457e+00 1.0562198792862389e+04 4.2000000000000000e+03 6.0000000000000000e+00 1.4000000000000000e+01 2.5000000000000000e+00 
87 2 4 2.2559723595316457e+00 1.1654449557339343e+04 4.2000000000000000e+03 8.0000000000000000e+00 1.2000000000000000e+01 2.5000000000000000e+00 
88 2 4 2.2559723595316457e+00 1.3171609633779977e+04 4.2000000000000000e+03 8.0000000000000000e+00 1.4000000000000000e+01 2.5000000000000000e+00 
107 2 4 2.2559723595316457e+00 1.7005019535138512e+04 4.2000000000000000e+03 1.0000000000000000e+01 1.2000000000000000e+01 2.5000000000000000e+00 
108 2 4 2.2559723595316457e+00 1.1980284857873296e+04 4.2000000000000000e+03 1.0000000000000000e+01 1.4000000000000000e+01 2.5000000000000000e+00 
127 2 4 2.2559723595316457e+00 2.6729493336633044e+04 4.2000000000000000e+03 1.2000000000000000e+01 1.2000000000000000e+01 2.5000000000000000e+00 
128 2 4 2.2559723595316457e+00 5.9557053280539491e+04 4.2000000000000000e+03 1.2000000000000000e+01 1.4000000000000000e+01 2.5000000000000000e+00 
147 2 4 2.2559723595316457e+00 1.6524414766950867e+04 4.2000000000000000e+03 1.4000000000000000e+01 1.2000000000000000e+01 2.5000000000000000e+00 
148 2 4 2.2559723595316457e+00 4.2804599209805980e+04 4.2000000000000000e+03 1.4000000000000000e+01 1.4000000000000000e+01 2.5000000000000000e+00 
167 2 4 2.2559723595316457e+00 -2.2704469498612311e+03 4.2000000000000000e+03 1.6000000000000000e+01 1.2000000000000000e+01 2.5000000000000000e+00 
168 2 4 2.2559723595316457e+00 -2.8842482835625988e+03 4.2000000000000000e+03 1.6000000000000000e+01 1.4000000000000000e+01 2.5000000000000000e+00 
187 2 4 2.2559723595316457e+00 -1.2993916308684245e+04 4.2000000000000000e+03 1.8000000000000000e+01 1.2000000000000000e+01 2.5000000000000000e+00 
188 2 4 2.2559723595316457e+00 -1.2128357579631713e+04 4.2000000000000000e+03 1.8000000000000000e+01 1.4000000000000000e+01 2.5000000000000000e+00 
9 2 4 2.2559723595316457e+00 9.5810557744162325e+03 4.2000000000000000e+03 0.0000000000000000e+00 1.6000000000000000e+01 2.5000000000000000e+00 
29 2 4 2.2559723595316457e+00 6.7596642942645349e+02 4.2000000000000000e+03 2.0000000000000000e+00 1.6000000000000000e+01 2.5000000000000000e+00 
49 2 4 2.2559723595316457e+00 1.0509130674125540e+03 4.2000000000000000e+03 4.0000000000000000e+00 1.6000000000000000e+01 2.5000000000000000e+00 
69 2 4 2.2559723595316457e+00 1.3695418072181121e+04 4.2000000000000000e+03 6.0000000000000000e+00 1.6000000000000000e+01 2.5000000000000000e+00 
89 2 4 2.2559723595316457e+00 1.1372920255974412e+04 4.2000000000000000e+03 8.0000000000000000e+00 1.6000000000000000e+01 2.5000000000000000e+00 
109 2 4 2.2559723595316457e+00 6.8902637259711428e+03 4.2000000000000000e+03 1.0000000000000000e+01 1.6000000000000000e+01 2.5000000000000000e+00 
129 2 4 2.2559723595316457e+00 1.9485955528454593e+04 4.2000000000000000e+03 1.2000000000000000e+01 1.6000000000000000e+01 2.5000000000000000e+00 
149 2 4 2.2559723595316457e+00 2.0778193138590104e+04 4.2000000000000000e+03 1.4000000000000000e+01 1.6000000000000000e+01 2.5000000000000000e+00 
169 2 4 2.2559723595316457e+00 9.1617940714551623e+03 4.2000000000000000e+03 1.6000000000000000e+01 1.6000000000000000e+01 2.5000000000000000e+00 
189 2 4 2.2559723595316457e+00 -5.6758540837767114e+03 4.2000000000000000e+03 1.8000000000000000e+01 1.6000000000000000e+01 2.5000000000000000e+00 
10 2 4 2.2559723595316457e+00 5.2901332370809941e+03 4.2000000000000000e+03 0.0000000000000000e+00 1.8000000000000000e+01 2.5000000000000000e+00 
30 2 4 2.2559723595316457e+00 9.8365145341017171e+02 4.2000000000000000e+03 2.0000000000000000e+00 1.8000000000000000e+01 2.5000000000000000e+00 
50 2 4 2.2559723595316457e+00 6.9924346433449309e+03 4.2000000000000000e+03 4.0000000000000000e+00 1.8000000000000000e+01 2.5000000000000000e+00 
70 2 4 2.2559723595316457e+00 1.5883918439913759e+04 4.2000000000000000e+03 6.0000000000000000e+00 1.8000000000000000e+01 2.5000000000000000e+00 
90 2 4 2.2559723595316457e+00 5.2258717151324490e+03 4.2000000000000000e+03 8.0000000000000000e+00 1.8000000000000000e+01 2.5000000000000000e+00 
110 2 4 2.2559723595316457e+00 8.4465061775925933e+03 4.2000000000000000e+03 1.0000000000000000e+01 1.8000000000000000e+01 2.5000000000000000e+00 
130 2 4 2.2559723595316457e+00 1.7984165018984364e+04 4.2000000000000000e+03 1.2000000000000000e+01 1.8000000000000000e+01 2.5000000000000000e+00 
150 2 4 2.2559723595316457e+00 1.0961422770996756e+04 4.2000000000000000e+03 1.4000000000000000e+01 1.8000000000000000e+01 2.5000000000000000e+00 
170 2 4 2.2559723595316457e+00 6.0194299097736275e+03 4.2000000000000000e+03 1.6000000000000000e+01 1.8000000000000000e+01 2.5000000000000000e+00 
190 2 4 2.2559723595316457e+00 -9.6005417623678459e+03 4.2000000000000000e+03 1.8000000000000000e+01 1.8000000000000000e+01 2.5000000000000000e+00 
1274 876 2 1.0280036364014682e+00 -1.0007487275233971e+06 4.2000000000000000e+03 4.2278861125516876e-01 2.4667446496517802e+00 6.5573772518864857e+00 
924 526 2 1.0280003139316016e+00 4.0934407465424872e+05 4.2000000000000000e+03 1.4468170806339047e+00 4.7163440045486393e-01 6.5254941838049403e+00 
2008 1610 2 1.0280026377022484e+00 5.2476548221191054e+05 4.2000000000000000e+03 3.8182411323960785e+00 1.8524915983552004e+00 6.9480792826150743e+00 
1476 1078 2 1.0280081106420391e+00 5.2916059687184592e+04 4.2000000000000000e+03 7.0025102294385499e+00 1.1411026770993891e+00 6.4203493204424609e+00 
1358 960 2 1.0279898820050410e+00 -4.9036715661959979e+05 4.2000000000000000e+03 9.2022380746071875e+00 2.0322006701651150e+00 6.8115522853560790e+00 
401 3 2 1.0279989141739101e+00 8.9720088475527521e+05 4.2000000000000000e+03 1.2803912061273408e+01 1.2067406465858008e+00 6.4283805631875044e+00 
1470 1072 2 1.0279985877820286e+00 -2.7026587974282895e+05 4.2000000000000000e+03 1.5134048932869632e+01 7.0029774711553827e-01 7.1545912868347905e+00 
1033 635 2 1.0279993964993976e+00 2.2575746356552601e+05 4.2000000000000000e+03 1.8509865226708289e+01 2.7367317197815377e+00 6.5356760814412818e+00 
1469 1071 2 1.0279977998365970e+00 2.6048588733144425e+05 4.2000000000000000e+03 1.9161814672722212e+01 2.2217422357596836e-01 6.5073815413254383e+00 
599 201 2 1.0280007057562892e+00 -9.2623328900760878e+05 4.2000000000000000e+03 4.9371165789997465e-02 4.3719518104199704e+00 8.3015350537354262e+00 
1564 1166 2 1.0279927561833853e+00 7.5593238075307454e+05 4.2000000000000000e+03 5.5854231534916154e+00 3.6480366767375583e+00 6.5151166356368426e+00 
2042 1644 2 1.0279992093341956e+00 3.4269127600519510e+05 4.2000000000000000e+03 3.5076489133716104e+00 5.6416196213183722e+00 6.6022375927090406e+00 
793 395 2 1.0279951229426929e+00 8.5009296040685743e+05 4.2000000000000000e+03 1.1002696995167565e+01 4.2920557671036264e+00 6.4440674745204092e+00 
1494 1096 2 1.0280129684620836e+00 -1.4283391904099144e+04 4.2000000000000000e+03 9.2179690067837452e+00 3.8171740553862779e+00 8.2947449130483850e+00 
1430 1032 2 1.0280030601595933e+00 -6.2099140150398458e+05 4.2000000000000000e+03 1.3035996895433362e+01 5.0544873181526642e+00 6.6073801127389800e+00 
1701 1303 2 1.0280021076016341e+00 1.4748709563825840e+04 4.2000000000000000e+03 1.6255824153286582e+01 3.7308045626428386e+00 6.9983436876941978e+00 
1750 1352 2 1.0280023984380684e+00 -1.6911413547878896e+05 4.2000000000000000e+03 1.1519092476749535e+00 6.2218001693540286e+00 6.4301157172277179e+00 
1959 1561 2 1.0279989585278271e+00 1.1343759192972450e+05 4.2000000000000000e+03 5.3693862773023158e+00 8.1999737803487029e+00 8.0034578746008247e+00 
1110 712 2 1.0280033244413578e+00 -9.2093514948841708e+05 4.2000000000000000e+03 6.0950231680135749e+00 6.3074521930010414e+00 6.4924907073459730e+00 
1517 1119 2 1.0279941186791912e+00 3.7587827756320097e+05 4.2000000000000000e+03 8.5810996011086758e+00 7.0301051043247123e+00 6.5892381782120717e+00 
422 24 2 1.0279970139337045e+00 5.5989088856654009e+04 4.2000000000000000e+03 1.5814107535188551e+01 5.7896446696711230e+00 7.7075899668491239e+00 
1083 685 2 1.0279985551037492e+00 -7.7299972374397924e+05 4.2000000000000000e+03 1.3411171871824894e+00 8.8923338956892408e+00 7.7207278000089694e+00 
551 153 2 1.0279973448279900e+00 1.0111544771204116e+05 4.2000000000000000e+03 4.6432508653632558e+00 1.0301812867405257e+01 7.4686384278629685e+00 
718 320 2 1.0280058363877334e+00 -7.6489129033667210e+05 4.2000000000000000e+03 8.1942129472631162e+00 9.3264182304694980e+00 6.6408823783296755e+00 
1440 1042 2 1.0279963628201008e+00 1.0108519678198382e+05 4.2000000000000000e+03 1.0271662070587858e+01 1.0806102306449327e+01 6.5549653148820912e+00 
690 292 2 1.0280062148110269e+00 -6.7066614517958881e+05 4.2000000000000000e+03 1.6545506803403857e+01 8.7953406956214568e+00 7.8090186809115663e+00 
1074 676 2 1.0280030299667231e+00 -4.9697469695033134e+04 4.2000000000000000e+03 1.5007359078762615e+01 1.0035400762419622e+01 6.3796611967385655e+00 
1204 806 2 1.0279932679813473e+00 1.3918987120644422e+06 4.2000000000000000e+03 1.7294399300098195e+01 1.0843678579571415e+01 6.4708763882498106e+00 
1221 823 2 1.0279962943884706e+00 5.1674279747609736e+05 4.2000000000000000e+03 9.8189564251640171e-01 1.2065653573724937e+01 6.4038396847329642e+00 
1514 1116 2 1.0280059955647298e+00 -2.4241910603080495e+05 4.2000000000000000e+03 3.0363735288367164e+00 1.3370607931117796e+01 6.4661436335278477e+00 
1015 617 2 1.0280012703564501e+00 -8.2755565187674086e+05 4.2000000000000000e+03 8.4493177803719846e+00 1.2334181562412352e+01 6.5631290521242063e+00 
1627 1229 2 1.0280124136551032e+00 -3.2550620701934234e+05 4.2000000000000000e+03 1.7679917784442424e+01 1.2848272311727339e+01 7.8895854353718624e+00 
850 452 2 1.0279994362912968e+00 -6.6278531838623411e+05 4.2000000000000000e+03 2.2571926095615975e+00 1.5911070069367943e+01 7.1416377537656794e+00 
1329 931 2 1.0280002146692808e+00 6.6751098832991335e+05 4.2000000000000000e+03 5.1819746617222666e+00 1.5063019430073870e+01 6.9930029763582784e+00 
2031 1633 2 1.0280124399987516e+00 3.7479122483957733e+05 4.2000000000000000e+03 9.8939924691736980e+00 1.4404684038267598e+01 7.5864034230183837e+00 
498 100 2 1.0279978044671731e+00 4.8323787967710535e+05 4.2000000000000000e+03 1.9734895764809316e+01 1.4383789440941385e+01 6.4772406508283380e+00 
979 581 2 1.0279987040109564e+00 -6.5660453261295054e+05 4.2000000000000000e+03 1.8186031040630617e+01 1.6188798610990677e+01 7.2269520111751948e+00 
1460 1062 2 1.0279872700105188e+00 6.5564703069500823e+05 4.2000000000000000e+03 4.1739184426837106e-01 1.8579644609413631e+01 7.0743664242638431e+00 
1630 1232 2 1.0280093166984428e+00 -3.2232753516019537e+05 4.2000000000000000e+03 2.3222473302369475e+00 1.9922508787194470e+01 6.5202180231107532e+00 
1903 1505 2 1.0280057828916374e+00 -4.0581197412352671e+05 4.2000000000000000e+03 4.0695434995481534e+00 1.7348227895733022e+01 6.5965814634472126e+00 
1055 657 2 1.0279748130574595e+00 -7.3217007763114641e+05 4.2000000000000000e+03 7.6202019543087962e+00 1.7417159080615772e+01 6.4608067197829016e+00 
1336 938 2 1.0280214332244744e+00 7.0352347123597772e+05 4.2000000000000000e+03 8.1705983480280029e+00 1.9532661196553882e+01 7.2984687733043705e+00 
748 350 2 1.0280102919346739e+00 5.7338167057118472e+05 4.2000000000000000e+03 1.0840832145415066e+01 1.7569595614382102e+01 6.7536354076537934e+00 
1936 1538 2 1.0279952655420450e+00 6.5901140739251289e+05 4.2000000000000000e+03 1.1294605493617961e+01 1.9855734140243879e+01 6.4365519546867977e+00 
1424 1026 2 1.0279992264709825e+00 4.7238554054202489e+05 4.2000000000000000e+03 1.3184317272283172e+01 1.8359224117636863e+01 6.4181772140155218e+00 
544 146 2 1.0280040578470064e+00 3.2282178597328515e+05 4.2000000000000000e+03 1.9822695240521298e+01 1.7523103011561748e+01 6.5090196471320079e+00 
1401 1003 2 1.0279946980141401e+00 7.4963804708540475e+05 4.2000000000000000e+03 2.1163252974878453e+00 2.0056136375439340e+00 8.9101697676497977e+00 
1333 935 2 1.0280079216600742e+00 7.3388743745628337e+05 4.2000000000000000e+03 4.5096359027318726e+00 1.5608746486177627e-01 9.3684161882955692e+00 
1817 1419 2 1.0279926585208010e+00 4.9987298135091946e+05 4.2000000000000000e+03 6.2708878620577426e+00 1.5103589702156610e+00 9.0045429605840663e+00 
1928 1530 2 1.0279975357534719e+00 1.1741132509097629e+06 4.2000000000000000e+03 9.3981984282789455e+00 1.2369776906851822e+00 1.0150397050329227e+01 
1027 629 2 1.0280044031024573e+00 -5.9889848194363364e+05 4.2000000000000000e+03 1.2640608148529308e+01 1.6496633968569132e+00 8.5279098212944788e+00 
1020 622 2 1.0279988200325869e+00 4.9830377597989119e+05 4.2000000000000000e+03 1.5243579038872452e+01 2.7828172924498840e+00 1.0174945561227823e+01 
1688 1290 2 1.0280004929942506e+00 4.3137095320006000e+05 4.2000000000000000e+03 1.6339704528213570e+01 4.8581773831573916e-01 9.6409386880408512e+00 
1138 740 2 1.0280024346767858e+00 -8.1290046122962178e+05 4.2000000000000000e+03 1.8259237193655306e+01 2.5897678058294469e+00 8.8912453765747959e+00 
765 367 2 1.0280014896178860e+00 -2.7506605747394031e+05 4.2000000000000000e+03 1.6441930499573798e+00 3.6279173908100368e+00 1.1073739707852296e+01 
1438 1040 2 1.0280088908111322e+00 -5.3330889900937444e+05 4.2000000000000000e+03 4.1276477552457314e+00 4.0898872748055446e+00 8.6984582861755353e+00 
526 128 2 1.0280113168962142e+00 2.9741097324623493e+05 4.2000000000000000e+03 6.5731977343543484e+00 4.3272880393770032e+00 9.7428807492261829e+00 
1102 704 2 1.0280011747736257e+00 -5.6885885238352790e+05 4.2000000000000000e+03 1.2595384215055908e+01 4.2216103698224270e+00 9.1699230074907128e+00 
1134 736 2 1.0279991997868925e+00 -7.4498212719927274e+05 4.2000000000000000e+03 1.8564143751518052e+00 6.2240484421292148e+00 9.1874479516488243e+00 
885 487 2 1.0280027958195594e+00 8.8880460610188346e+05 4.2000000000000000e+03 3.6412505353778215e+00 6.8310006992927619e+00 1.1022450662259573e+01 
1390 992 2 1.0280098410775045e+00 -8.8574432366856257e+05 4.2000000000000000e+03 6.0687679840102984e+00 6.9556478381262279e+00 1.0516189101819892e+01 
2035 1637 2 1.0280070846298746e+00 5.8347222643470927e+05 4.2000000000000000e+03 8.4241487993269697e+00 7.8670863690463628e+00 9.0424045866606342e+00 
1943 1545 2 1.0279995155558697e+00 5.6683568081220333e+05 4.2000000000000000e+03 1.0126167344171574e+01 6.2404045162868345e+00 9.4959242270237425e+00 
1934 1536 2 1.0280037807428508e+00 5.1102202817064588e+05 4.2000000000000000e+03 1.3622121658488227e+01 6.9199752846832743e+00 8.6140089234218795e+00 
459 61 2 1.0280001642807171e+00 2.5976595685595210e+05 4.2000000000000000e+03 1.1741969928175203e+01 7.6340908062690387e+00 1.0814957199596460e+01 
1502 1104 2 1.0279967091547302e+00 -6.0623656543885602e+05 4.2000000000000000e+03 1.5653027054939125e+01 6.6090739172673754e+00 1.0580427832371194e+01 
1883 1485 2 1.0280010512990323e+00 -9.3682293768021115e+05 4.2000000000000000e+03 1.9064068126863095e+01 5.9549162022836315e+00 9.6729484069831475e+00 
975 577 2 1.0279939740864152e+00 -7.1935496571068477e+05 4.2000000000000000e+03 8.0842677409350461e-01 1.0568841813254497e+01 9.7287529144510252e+00 
611 213 2 1.0280214391607845e+00 -9.5890747232536587e+05 4.2000000000000000e+03 3.0076847835998488e+00 9.5201215016899301e+00 9.9890510161409338e+00 
606 208 2 1.0280028892286328e+00 -1.3843458842926126e+05 4.2000000000000000e+03 5.8346959781887078e+00 1.1370561267136265e+01 9.5217410875889819e+00 
1170 772 2 1.0280051861374859e+00 -7.9855737955833308e+05 4.2000000000000000e+03 1.0969119971206039e+01 9.7642972563288595e+00 9.0054969427182616e+00 
618 220 2 1.0279928231956454e+00 -9.9767496458018722e+05 4.2000000000000000e+03 1.3276734409007355e+01 9.5636130354701674e+00 8.3388481150265115e+00 
893 495 2 1.0280030357195566e+00 7.4767403228890139e+05 4.2000000000000000e+03 1.5116063677698421e+01 8.7687285273653117e+00 1.0800826054956918e+01 
1624 1226 2 1.0279995362004541e+00 2.0356026925701145e+05 4.2000000000000000e+03 1.8269885792338755e+01 8.7734581696795484e+00 9.8126920555988235e+00 
1080 682 2 1.0279993074993730e+00 9.3000552796606731e+05 4.2000000000000000e+03 1.9201592475704643e+01 1.1336681811868020e+01 9.7134209585400786e+00 
1966 1568 2 1.0279960446689158e+00 7.9340568045996386e+05 4.2000000000000000e+03 3.1905074665134276e+00 1.2229254700965180e+01 8.7751230817843133e+00 
2011 1613 2 1.0280019641142590e+00 6.8830025106911559e+05 4.2000000000000000e+03 6.2182318363970408e+00 1.3273181865074910e+01 8.4805866932350362e+00 
1526 1128 2 1.0280005419680471e+00 -9.5396667184885358e+05 4.2000000000000000e+03 9.1240395717508616e+00 1.1803395566450334e+01 9.0384185933685508e+00 
1303 905 2 1.0279921736857438e+00 -8.4729599256615608e+05 4.2000000000000000e+03 1.3797349792269122e+01 1.3424045358868730e+01 9.9926871293927828e+00 
1174 776 2 1.0279851803982010e+00 -7.2212170364326215e+05 4.2000000000000000e+03 1.5106811237023772e+01 1.1732797506756059e+01 9.1803006747836360e+00 
1433 1035 2 1.0280168831211811e+00 2.3119163696881843e+05 4.2000000000000000e+03 1.6946653931145805e-02 1.4354152179251066e+01 9.1660583491109193e+00 
1407 1009 2 1.0279860152337901e+00 6.3006950796523166e+05 4.2000000000000000e+03 2.2666658711595089e-01 1.6338844094950677e+01 1.0486142533831588e+01 
592 194 2 1.0280064460764591e+00 6.3004885089033318e+05 4.2000000000000000e+03 3.7077981369258093e+00 1.4721654924653251e+01 1.1094841951037253e+01 
1539 1141 2 1.0279958905654960e+00 -8.1834304061170109e+05 4.2000000000000000e+03 3.7704491862356138e+00 1.6310429826132395e+01 9.2130073312319336e+00 
725 327 2 1.0280343154815723e+00 8.0947006157742959e+04 4.2000000000000000e+03 7.5973481262319495e+00 1.6342896422846056e+01 8.4433877960836554e+00 
1905 1507 2 1.0279810640067726e+00 4.8144245963463205e+05 4.2000000000000000e+03 9.3557771511415346e+00 1.4379987618915038e+01 9.8558650018481497e+00 
1727 1329 2 1.0280201932837256e+00 -2.3034747989295129e+05 4.2000000000000000e+03 1.0955250062475676e+01 1.6604970090671959e+01 9.3794180610620348e+00 
2014 1616 2 1.0279795823852385e+00 4.6902482689988735e+05 4.2000000000000000e+03 1.2455066691122264e+01 1.4827507840980918e+01 8.7094777366186911e+00 
1267 869 2 1.0279918921036406e+00 -8.8252822789912357e+05 4.2000000000000000e+03 1.6747225975858989e+01 1.4509910474481380e+01 9.6439421706669908e+00 
792 394 2 1.0279991534931503e+00 1.6985841560584464e+05 4.2000000000000000e+03 1.9736215908985091e+01 1.4715719209311724e+01 9.2660174518952232e+00 
1359 961 2 1.0279778166760867e+00 -8.2223595098266983e+05 4.2000000000000000e+03 2.6833520094309868e+00 1.9079312038564481e+01 9.3711519662139029e+00 
1571 1173 2 1.0280294558819092e+00 -4.8340106494211120e+05 4.2000000000000000e+03 6.8630004653408705e-01 1.9138453765644513e+01 1.1054323825406355e+01 
1313 915 2 1.0280405948788911e+00 1.7879548061711463e+05 4.2000000000000000e+03 5.1850366461303601e+00 1.9298963231039252e+01 9.2817306163775815e+00 
1797 1399 2 1.0280125908500455e+00 9.4576212143459043e+05 4.2000000000000000e+03 7.9993895692232808e+00 1.7781394278905093e+01 1.0613679024637785e+01 
671 273 2 1.0279927083507281e+00 -7.2286991074780386e+05 4.2000000000000000e+03 1.2917323698061129e+01 1.8503017736118544e+01 9.2476244175334603e+00 
640 242 2 1.0280017496705047e+00 -3.7726806183870503e+04 4.2000000000000000e+03 1.9268282753405746e+01 1.7978698645202588e+01 1.0325927291311377e+01 
1765 1367 2 1.0280037429706759e+00 2.7275081425157748e+05 4.2000000000000000e+03 3.3851570657166503e+00 2.1286652999693381e+00 1.1629425444351000e+01 
1406 1008 2 1.0279988416398926e+00 6.9665135470282240e+05 4.2000000000000000e+03 1.3831250614642714e+01 1.1773011540512852e+00 1.3165670152276547e+01 
2076 1678 2 1.0280099533730087e+00 2.9157296346451755e+05 4.2000000000000000e+03 1.1903096430435463e+01 7.6930741740628827e-01 1.1946619513899520e+01 