LAMMPS data file via write_data, version 30 Jul 2016, timestep = 50400000

384 atoms
2 atom types

0.0000000000000000e+00 2.0000000000000000e+01 xlo xhi
0.0000000000000000e+00 2.0000000000000000e+01 ylo yhi
0.0000000000000000e+00 2.0000000000000000e+01 zlo zhi

Masses

1 3.896
2 4.31

Atoms # meso-molecular

158 1 2 1.1605682584842913e+00 8.3117192677918524e+02 1.0000000000000000e+00 1.1108438903808757e+00 1.3376537260293753e-01 4.7689944876959078e-01 
67 1 2 1.1605682584842913e+00 5.5183187937537105e+02 1.0000000000000000e+00 2.0352283586795634e+00 6.6578721205287366e+00 9.0006753915548332e-01 
37 1 2 1.1605682584842913e+00 4.7649320378413722e+02 1.0000000000000000e+00 6.0164801673519799e+00 6.7636384034948902e+00 1.2995851359462054e+00 
101 1 2 1.1605682584842913e+00 3.6473835300090980e+02 1.0000000000000000e+00 1.2159005718595972e+00 9.5473906488090687e+00 8.0937879459844519e-01 
93 1 2 1.1605682584842913e+00 -8.9609574136010065e+02 1.0000000000000000e+00 3.8155291048412363e+00 4.0006357617821543e-02 2.2059191904369149e+00 
179 1 2 1.1605682584842913e+00 1.1490239617599598e+03 1.0000000000000000e+00 1.1157345974283086e+00 2.5085991832632937e+00 2.7542153196382673e+00 
382 1 2 1.1605682584842913e+00 8.2020499214108781e+02 1.0000000000000000e+00 3.3794127601387860e+00 4.0103666023114544e+00 1.9920135049058332e+00 
335 1 2 1.1605682584842913e+00 6.8860877701957133e+02 1.0000000000000000e+00 4.6415870675075270e+00 6.0746856396065541e+00 2.6266159372466351e+00 
358 1 2 1.1605682584842913e+00 -2.3810638447671536e+03 1.0000000000000000e+00 6.1162198257331584e+00 9.3042200317584793e+00 2.0030436664357749e+00 
306 1 2 1.1605682584842913e+00 2.3973956102310854e+02 1.0000000000000000e+00 2.4267289565663384e+00 8.7220636168181820e-01 3.8740784435494171e+00 
279 1 2 1.1605682584842913e+00 5.4625871364766635e+02 1.0000000000000000e+00 4.6923096571186305e+00 1.4785690968122724e+00 3.8621766063178926e+00 
47 1 2 1.1605682584842913e+00 5.1795835312785698e+02 1.0000000000000000e+00 2.5755370589242874e+00 5.2952675594210090e+00 3.7493125292500538e+00 
218 1 2 1.1605682584842913e+00 -1.6751059105176892e+03 1.0000000000000000e+00 4.0304902148196403e-01 5.9379251930120054e+00 4.2536254458373417e+00 
116 1 2 1.1605682584842913e+00 7.8978780471312371e+02 1.0000000000000000e+00 2.8420996484001879e+00 9.9119589155148748e+00 2.8833780674581377e+00 
277 1 2 1.1605682584842913e+00 7.9692972096230710e+02 1.0000000000000000e+00 5.8898481260917723e+00 9.6252886985377302e+00 4.0426119018978044e+00 
362 1 2 1.1605682584842913e+00 -3.4606039716717369e+03 1.0000000000000000e+00 3.3984879770411016e+00 3.1416413350223635e+00 4.7240304740164643e+00 
125 1 2 1.1605682584842913e+00 8.4265142872922411e+02 1.0000000000000000e+00 6.1129265730454616e+00 3.5202134530218170e+00 4.9841231945989177e+00 
285 1 2 1.1605682584842913e+00 5.3549636907732042e+02 1.0000000000000000e+00 4.7348213103969021e+00 6.6663041056713412e+00 4.8938430763084027e+00 
213 1 2 1.1605685564718573e+00 7.7711293179487666e+02 1.0000000000000000e+00 1.2064667977461918e+00 7.8676645132555212e+00 4.5648069164436338e+00 
254 1 2 1.1605682584842913e+00 6.5009417808171361e+02 1.0000000000000000e+00 1.2404678184905955e+00 2.7681032028070107e+00 6.3113074377370912e+00 
151 1 2 1.1605682584842913e+00 2.8963504605136950e+02 1.0000000000000000e+00 2.2485488678999905e+00 7.7039791145421992e+00 6.7343342474636643e+00 
191 1 2 1.1605682584842913e+00 -1.5750849297508921e+02 1.0000000000000000e+00 5.1029812065430162e+00 8.2698149006764865e+00 6.3140777315566172e+00 
211 1 2 1.1605685564718573e+00 -1.1440314114690138e+03 1.0000000000000000e+00 5.4070118816122600e-02 8.9478008654447336e+00 5.7542482866272220e+00 
378 1 2 1.1605682584842913e+00 1.0990051196712429e+03 1.0000000000000000e+00 6.5549497451550787e+00 9.9818266315464257e+00 5.9115167148231054e+00 
14 1 2 1.1605682585182080e+00 6.1258958031909629e+02 1.0000000000000000e+00 3.3450815302578141e-01 1.1062350432448453e+00 7.2013331054716216e+00 
178 1 2 1.1605682584842913e+00 -3.3281459979097208e+03 1.0000000000000000e+00 6.5261715207911521e+00 1.7027727645262369e+00 7.2297017278593643e+00 
97 1 2 1.1605682584842913e+00 6.8701897831420206e+02 1.0000000000000000e+00 3.4444554777720602e+00 5.4594575709359647e+00 7.8675993795587846e+00 
133 1 2 1.1605682584842913e+00 8.8591254888648132e+02 1.0000000000000000e+00 5.9970832964832628e+00 5.6177234845212949e+00 8.2857628300761625e+00 
302 1 2 1.1605682584842913e+00 6.9044628921865456e+02 1.0000000000000000e+00 2.8735882766184333e+00 9.0287811518662000e+00 8.2680729601629608e+00 
13 1 2 1.1605682584842913e+00 3.7708252371731464e+02 1.0000000000000000e+00 3.1110875954711052e+00 1.4069327288545497e+00 9.3032123629940582e+00 
85 1 2 1.1605683060003427e+00 9.1179337002402599e+02 1.0000000000000000e+00 3.3944837403048735e+00 4.2032437899452173e+00 9.8423696404517553e+00 
206 1 2 1.1605682584842913e+00 -2.6698654668460813e+03 1.0000000000000000e+00 5.6867999410448604e+00 3.1716310897559001e+00 8.6473359007993693e+00 
127 1 2 1.1605682584842913e+00 -3.3521815400776250e+03 1.0000000000000000e+00 1.3162970876281050e+00 5.4425351963741733e+00 9.3881762465357532e+00 
39 1 2 1.1605682584842913e+00 8.7177737323170254e+02 1.0000000000000000e+00 3.9268319023745759e+00 6.9285584554399309e+00 9.2906788789268244e+00 
220 1 2 1.1605682584842913e+00 8.6089940525514771e+02 1.0000000000000000e+00 6.9625815438331962e-02 9.2498913481906317e+00 8.6040430390415388e+00 
325 1 2 1.1605682584842913e+00 7.5719627298229693e+02 1.0000000000000000e+00 1.3832306197003084e+00 3.0419786799362418e+00 1.0234382193136849e+01 
194 1 2 1.1605683060003427e+00 6.2617821768452677e+02 1.0000000000000000e+00 5.2736958113754104e+00 4.4150034716084914e+00 1.0446680885312830e+01 
374 1 2 1.1605682584842913e+00 7.6105350076011496e+02 1.0000000000000000e+00 5.6288879380922205e+00 6.8418664358980124e+00 1.1041855146684467e+01 
74 1 2 1.1605682584842913e+00 3.5621460677908317e+02 1.0000000000000000e+00 2.7903202440286785e+00 8.5463197880992130e+00 1.0865246931442659e+01 
120 1 2 1.1605682584842913e+00 8.8439352248237856e+02 1.0000000000000000e+00 1.7223183269916309e+00 4.5404072218471625e-01 1.2752663491839266e+01 
343 1 2 1.1605682584842913e+00 -6.8065623201672253e+01 1.0000000000000000e+00 2.7586014903873042e+00 3.4276024965338645e+00 1.2072979952827938e+01 
370 1 2 1.1605682584842913e+00 -3.1781394263940956e+03 1.0000000000000000e+00 5.9644123990608087e+00 4.2785253342882239e+00 1.2610217751297560e+01 
235 1 2 1.1605682584842913e+00 8.2110694880362280e+02 1.0000000000000000e+00 2.3057727396399081e+00 6.3558837693735093e+00 1.1967576594671337e+01 
193 1 2 1.1605682584842913e+00 2.7029082162615305e+02 1.0000000000000000e+00 6.5111557101119955e+00 9.8454200007329913e+00 1.2483868158366340e+01 
92 1 2 1.1605682584842913e+00 -7.8096188428481150e+02 1.0000000000000000e+00 1.1725529781826296e+00 4.2395288741760346e+00 1.3172792692682599e+01 
260 1 2 1.1605682584842913e+00 -1.1556886133400909e+02 1.0000000000000000e+00 3.5434915462159524e+00 6.4459563881931210e+00 1.3653452826253861e+01 
341 1 2 1.1605682584842913e+00 1.0788103351012210e+03 1.0000000000000000e+00 1.4832330641843809e+00 7.3470019361853023e+00 1.4017477978350955e+01 
308 1 2 1.1605682584842913e+00 -1.5452931543373588e+03 1.0000000000000000e+00 5.6141530639141797e+00 8.1027009728264936e+00 1.3095047172712324e+01 
270 1 2 1.1605682584842913e+00 5.6262885085200605e+02 1.0000000000000000e+00 1.5349711079110482e+00 9.9005593756456918e+00 1.3079747423686166e+01 
297 1 2 1.1605682584842913e+00 3.4913822220889574e+02 1.0000000000000000e+00 2.5797387211433529e+00 1.6313944075171247e+00 1.4446178809640296e+01 
247 1 2 1.1605682584842913e+00 8.4395673493447703e+02 1.0000000000000000e+00 5.2765485286235974e+00 1.7967438135002807e+00 1.4772841425541676e+01 
280 1 2 1.1605682584842913e+00 5.0636634084355819e+02 1.0000000000000000e+00 5.3363479324556335e+00 5.5240449214897538e+00 1.4837806840496752e+01 
361 1 2 1.1605682584842913e+00 4.9470583587899739e+02 1.0000000000000000e+00 3.2357421162262416e+00 8.1552409891952387e+00 1.5214992830350246e+01 
304 1 2 1.1605682584842913e+00 1.0129541701859403e+03 1.0000000000000000e+00 4.2004016908445507e+00 2.6578487754087837e-01 1.7110340455126000e+01 
368 1 2 1.1605682584842913e+00 8.3818249639805981e+02 1.0000000000000000e+00 3.7353369305055595e+00 2.2403831627280280e+00 1.6111746974848945e+01 
82 1 2 1.1605682584842913e+00 3.6307096727093278e+02 1.0000000000000000e+00 5.9127185586297850e+00 2.9189897542941208e+00 1.6626506135684632e+01 
137 1 2 1.1605682584842913e+00 6.9439182140421849e+02 1.0000000000000000e+00 2.3422455226391246e+00 5.3864482879814801e+00 1.6243792212405925e+01 
234 1 2 1.1605682584842913e+00 8.7513626526026087e+02 1.0000000000000000e+00 5.4395739564902259e+00 7.6354670604448733e+00 1.5916833043568554e+01 
63 1 2 1.1605684749006453e+00 7.5422701200269125e+02 1.0000000000000000e+00 3.2916529892846444e+00 9.3207140393710475e+00 1.6949597946753595e+01 
183 1 2 1.1605682584842913e+00 1.0097264404065288e+03 1.0000000000000000e+00 7.5861265948740064e-01 1.1270567817473283e+00 1.8321330496801320e+01 
339 1 2 1.1605682584842913e+00 7.8869696107277287e+02 1.0000000000000000e+00 4.4453670369841713e+00 2.1817338620256219e+00 1.8023190968500440e+01 
129 1 2 1.1605682584842913e+00 1.0935221381066467e+03 1.0000000000000000e+00 4.7841675223907760e+00 5.9551524865256944e+00 1.7408069088746139e+01 
188 1 2 1.1605682584842913e+00 -2.0608778028635157e+02 1.0000000000000000e+00 5.9396050758429881e+00 8.7669046750032162e+00 1.7954447444461607e+01 
38 1 2 1.1605682584842913e+00 5.3431081950568523e+02 1.0000000000000000e+00 3.3476134004113729e+00 1.7154025192634637e+00 1.9671951124821373e+01 
354 1 2 1.1605682584842913e+00 9.2919116424569529e+02 1.0000000000000000e+00 1.3121210527253022e+00 3.2569641711689341e+00 1.9677774677160226e+01 
187 1 2 1.1605682584842913e+00 7.9672825412052089e+02 1.0000000000000000e+00 2.7491845654426941e+00 5.0837896820154720e+00 1.9418592031446746e+01 
196 1 2 1.1605682584842913e+00 7.7644534128133023e+02 1.0000000000000000e+00 5.3329656935267575e+00 4.4377366069056121e+00 1.9656548875684294e+01 
45 1 2 1.1605682584842913e+00 7.2973459120736788e+02 1.0000000000000000e+00 1.0572590573564224e+00 7.5019633177272329e+00 1.8986882500875602e+01 
321 1 2 1.1605682584842913e+00 -7.0669172312221099e+02 1.0000000000000000e+00 3.8826594023671119e+00 7.2920197197544887e+00 1.9053437721275710e+01 
261 1 2 1.1605683336674630e+00 8.5649747493994505e+02 1.0000000000000000e+00 4.0055759072279278e+00 1.2065537364758306e+01 1.3672760554068752e+00 
118 1 2 1.1605682592071884e+00 7.5285708755748192e+02 1.0000000000000000e+00 1.4694201491421723e+00 1.4961661269439482e+01 2.1540489485668143e-01 
208 1 2 1.1605683336674630e+00 2.4910031764537806e+02 1.0000000000000000e+00 4.9706996057257715e+00 1.0913841612284708e+01 2.6633603230946035e+00 
301 1 2 1.1605682584842913e+00 -2.0505982588850948e+03 1.0000000000000000e+00 1.2043747368827113e+00 1.3729025662579321e+01 1.8800176052888560e+00 
140 1 2 1.1605682584842913e+00 6.5912520448239479e+02 1.0000000000000000e+00 3.3893645416977694e+00 1.4174419151450497e+01 2.6992406380765930e+00 
165 1 2 1.1605682584842913e+00 2.0876113741834035e+02 1.0000000000000000e+00 5.5160386586677914e+00 1.5025734084063419e+01 1.7691853975316225e+00 
149 1 2 1.1605682584842913e+00 -5.0394263256758659e+03 1.0000000000000000e+00 2.8600676097659274e+00 1.5996038137792862e+01 1.6466533599693860e+00 
159 1 2 1.1605682584842913e+00 -4.7581256317064046e+01 1.0000000000000000e+00 1.4568604501023261e+00 1.7755577933353695e+01 1.4573371141725995e+00 
20 1 2 1.1605682584842913e+00 6.2191825049274166e+02 1.0000000000000000e+00 5.4403461982963170e+00 1.8502978784833211e+01 1.9028540900455040e+00 
155 1 2 1.1605682584842913e+00 5.3986291942487674e+02 1.0000000000000000e+00 6.2788616623014848e+00 1.4116408028996457e+01 3.8960169247155196e+00 
51 1 2 1.1605682584842913e+00 7.0495867474976285e+02 1.0000000000000000e+00 6.2955177880641611e-01 1.6711200085384597e+01 4.2379297371838991e+00 
310 1 2 1.1605682584842913e+00 8.0701066500834122e+02 1.0000000000000000e+00 3.3075718251003368e+00 1.7889321844463627e+01 4.1789620945414185e+00 
307 1 2 1.1605682584842913e+00 -1.4867602183078097e+03 1.0000000000000000e+00 6.5894603173271227e-01 1.9530953873818408e+01 3.1643431297279685e+00 
371 1 2 1.1605682584842913e+00 6.5425245250962303e+02 1.0000000000000000e+00 1.6288707199750796e-01 1.4753146375211600e+01 5.5242656324836492e+00 
89 1 2 1.1605682584842913e+00 6.4957293583432806e+02 1.0000000000000000e+00 2.0177561906928863e+00 1.4657959408598000e+01 4.6800970674646143e+00 
135 1 2 1.1605682584842913e+00 5.8526287045475033e+02 1.0000000000000000e+00 4.3569806449998474e+00 1.5036426832974177e+01 4.8113886700794186e+00 
207 1 2 1.1605682584842913e+00 5.7211719113953131e+02 1.0000000000000000e+00 5.0013059315693580e+00 1.7018095951178168e+01 4.8841256989001751e+00 
380 1 2 1.1605682584842913e+00 6.5984311872131730e+02 1.0000000000000000e+00 1.0374117035815500e+00 1.8535736547879726e+01 5.0055932064995803e+00 
244 1 2 1.1605682584842913e+00 7.1681710776959085e+02 1.0000000000000000e+00 2.3209289503093835e+00 1.0075387402886868e+01 5.8549702617341204e+00 
319 1 2 1.1605682584842913e+00 9.5157042493010317e+02 1.0000000000000000e+00 4.3700037489754520e+00 1.0188904607358152e+01 6.6838952252972490e+00 
294 1 2 1.1605682584842913e+00 8.2584723096310972e+02 1.0000000000000000e+00 2.9325209540896213e+00 1.2189486279443468e+01 6.4912433952280688e+00 
298 1 2 1.1605684207304152e+00 3.2852420805751211e+02 1.0000000000000000e+00 2.9811165115312641e+00 1.5204467624944147e+01 6.5632914751370146e+00 
197 1 2 1.1605682584842913e+00 6.7702965458620929e+02 1.0000000000000000e+00 6.0864754475330738e+00 1.4709151705924659e+01 6.5982689706887276e+00 
78 1 2 1.1605684207304152e+00 7.2042298895652903e+02 1.0000000000000000e+00 2.0003241723447194e+00 1.6914581957503806e+01 6.7546626224888762e+00 
346 1 2 1.1605682584842913e+00 9.7896941607618101e+02 1.0000000000000000e+00 5.9601039966794023e+00 1.8541148906974264e+01 6.2802878638488444e+00 
131 1 2 1.1605682584842913e+00 5.7195491405511120e+02 1.0000000000000000e+00 4.8213583402312183e+00 1.6102666934493318e+01 8.3089675839022039e+00 
150 1 2 1.1605682584842913e+00 6.1663121177897938e+02 1.0000000000000000e+00 9.6491210688604523e-01 1.8504858641576057e+01 8.4072104185310508e+00 
34 1 2 1.1605682584842913e+00 -9.5945706319472066e+01 1.0000000000000000e+00 3.4899281995523044e+00 1.9566477485664109e+01 7.4088226546191764e+00 
96 1 2 1.1605682584842913e+00 7.4324421274656970e+02 1.0000000000000000e+00 6.2002212880720800e+00 1.9793588626113401e+01 8.1527600509392055e+00 
100 1 2 1.1605682584842913e+00 6.1177516298318596e+02 1.0000000000000000e+00 3.3725031760732009e+00 1.2361490060950043e+01 9.5414237020333097e+00 
6 1 2 1.1605682584842913e+00 1.1620181857024595e+03 1.0000000000000000e+00 1.2953141132966834e+00 1.4239615213744111e+01 8.6233378230064961e+00 
344 1 2 1.1605682584842913e+00 7.3145313701304030e+02 1.0000000000000000e+00 3.5196404485154464e+00 1.4509467159283057e+01 8.8486081125174092e+00 
95 1 2 1.1605682584842913e+00 7.6786568223366203e+02 1.0000000000000000e+00 4.4114565406901036e+00 1.6544169623518517e+01 1.0395105274926223e+01 
324 1 2 1.1605682584842913e+00 6.3035765688591846e+02 1.0000000000000000e+00 2.2602124333211762e-01 1.7842274973737236e+01 1.0938242572425843e+01 
57 1 2 1.1605682584842913e+00 7.0748177013858844e+02 1.0000000000000000e+00 4.3195732684139809e+00 1.8606040788069922e+01 1.0166553908153803e+01 
282 1 2 1.1605682584842913e+00 7.5192347810231718e+02 1.0000000000000000e+00 3.6478493961592298e+00 1.0264243368202585e+01 1.1829161512703418e+01 
230 1 2 1.1605682584842913e+00 6.4082792529976564e+02 1.0000000000000000e+00 9.5059453616317502e-01 1.2292843015477521e+01 1.2165741065792002e+01 
24 1 2 1.1605682584842913e+00 3.9654911430430798e+02 1.0000000000000000e+00 4.6927789429126125e+00 1.2084154031163139e+01 1.2446427300933474e+01 
80 1 2 1.1605682584842913e+00 9.7883971606833234e+02 1.0000000000000000e+00 2.3199620719077418e+00 1.4015111059372408e+01 1.2031393092170283e+01 
379 1 2 1.1605682584842913e+00 7.3742286645906142e+02 1.0000000000000000e+00 4.7697537647464614e+00 1.4892159480017089e+01 1.1639779071727977e+01 
121 1 2 1.1605682584842913e+00 6.4665147465457926e+02 1.0000000000000000e+00 1.1831421771710298e+00 1.8517516767990369e+01 1.2755700792111702e+01 
138 1 2 1.1605682583484882e+00 7.1269886754380491e+02 1.0000000000000000e+00 4.9891160890945949e+00 1.7706506753334789e+01 1.2079347032454326e+01 
105 1 2 1.1605682583484882e+00 1.2402161583648547e+03 1.0000000000000000e+00 5.1274245908166680e+00 1.9681863901390070e+01 1.1823998579605929e+01 
223 1 2 1.1605682584842913e+00 6.4786956290915850e+02 1.0000000000000000e+00 3.3539908813141452e+00 1.3602991992710885e+01 1.3981494275604430e+01 
236 1 2 1.1605682584842913e+00 1.1923543018319010e+03 1.0000000000000000e+00 5.9286564216182525e+00 1.4142572710274923e+01 1.3495313875587023e+01 
111 1 2 1.1605682584842913e+00 5.1541392954277205e+02 1.0000000000000000e+00 6.1822527508630276e-01 1.6925874590729663e+01 1.4141011272879862e+01 
359 1 2 1.1605682584842913e+00 2.5281402097690864e+02 1.0000000000000000e+00 6.4601047388813955e+00 1.6883629190153375e+01 1.3240120403332938e+01 
367 1 2 1.1605682584842913e+00 7.2095269171833888e+02 1.0000000000000000e+00 4.2110666889800283e+00 1.9961206456626712e+01 1.3820198456140719e+01 
269 1 2 1.1605682584842913e+00 9.5095749546124216e+02 1.0000000000000000e+00 4.4717928269702130e+00 1.1249673497452896e+01 1.4313465351551777e+01 
146 1 2 1.1605682584842913e+00 -8.3742446820493315e+03 1.0000000000000000e+00 6.6834589736802263e-01 1.2413480606095609e+01 1.4361674089906062e+01 
219 1 2 1.1605682584842913e+00 -4.4208704569433867e+03 1.0000000000000000e+00 6.3089740454230467e+00 1.2241576687328410e+01 1.4811321579376743e+01 
309 1 2 1.1605682584842913e+00 -1.9374529073098756e+03 1.0000000000000000e+00 1.0735240505995150e-01 1.4840027993315177e+01 1.4648428501008448e+01 
246 1 2 1.1605682584842913e+00 8.3913345568403952e+02 1.0000000000000000e+00 4.5183113633204179e+00 1.5800337678154268e+01 1.4855345524346072e+01 
173 1 2 1.1605682584842913e+00 2.1426862652067243e+01 1.0000000000000000e+00 2.3448328301627788e+00 1.8656292182167682e+01 1.4482373109894489e+01 
203 1 2 1.1605684749006453e+00 -1.0465334770882093e+03 1.0000000000000000e+00 2.4254851437868656e+00 1.0937017674964034e+01 1.6204769850526429e+01 
355 1 2 1.1605682584842913e+00 7.5692044877877788e+02 1.0000000000000000e+00 3.0001020556166988e+00 1.5122346858093021e+01 1.6153492577228853e+01 
99 1 2 1.1605682584842913e+00 1.0598960514356197e+03 1.0000000000000000e+00 1.3721226045565900e+00 1.6707912337815070e+01 1.6847402798855960e+01 
272 1 2 1.1605682584842913e+00 5.5256617907335476e+02 1.0000000000000000e+00 8.4933588425330597e-01 1.9108645085517761e+01 1.6725572117348591e+01 
334 1 2 1.1605682584842913e+00 8.4477195171799212e+02 1.0000000000000000e+00 6.3242615849750674e+00 1.1080830950604074e+01 1.7617600409380902e+01 
1 1 2 1.1605682584842913e+00 -2.2303001816581655e+03 1.0000000000000000e+00 7.1752125668725653e-01 1.1637232582358486e+01 1.8436928323506720e+01 
79 1 2 1.1605682584842913e+00 6.1791040788884857e+02 1.0000000000000000e+00 1.7886631053529245e+00 1.4146530907771261e+01 1.8290949379910064e+01 
29 1 2 1.1605682584842913e+00 7.2851982397179950e+02 1.0000000000000000e+00 5.4696683831168178e+00 1.5289501206442171e+01 1.8501136015354152e+01 
292 1 2 1.1605682584842913e+00 -1.4195259502619916e+02 1.0000000000000000e+00 4.4497200045154406e+00 1.6832040087586542e+01 1.7312785335658965e+01 
271 1 2 1.1605682584842913e+00 -1.3535987586439032e+03 1.0000000000000000e+00 6.6151336706301356e+00 1.8233378389650785e+01 1.7788195925544144e+01 
199 1 2 1.1605682584842913e+00 1.0236056687389200e+03 1.0000000000000000e+00 2.4003378492768990e+00 1.1032610428874447e+01 1.9499092030028226e+01 
384 1 2 1.1605682584842913e+00 -4.3175417325941908e+02 1.0000000000000000e+00 4.7630512563815985e+00 1.0035332695052713e+01 1.9950550548711419e+01 
360 1 2 1.1605682592071884e+00 4.6810724648500161e+02 1.0000000000000000e+00 3.4258805193590631e+00 1.4804516119276386e+01 1.9859609042470360e+01 
267 1 2 1.1605682584842913e+00 3.9155125832263184e+02 1.0000000000000000e+00 4.4391635112380037e+00 1.6824836249790064e+01 1.9717293254586298e+01 
293 1 2 1.1605682584842913e+00 8.5859507853564151e+02 1.0000000000000000e+00 9.1522979353765976e-01 1.8166282541449736e+01 1.8773201704735385e+01 
326 1 2 1.1605682584842913e+00 8.7715069550663497e+02 1.0000000000000000e+00 2.9504152825527665e+00 1.9632997341338640e+01 1.8984794686416691e+01 
257 1 2 1.1605682584842913e+00 8.9400458207037195e+02 1.0000000000000000e+00 6.6911531680242815e+00 1.3641277851754252e+00 8.2464448148325620e-01 
128 1 2 1.1605682584842913e+00 1.0408425657492028e+03 1.0000000000000000e+00 9.4002281712789753e+00 1.8211583092330472e+00 1.3152471288809067e+00 
281 1 2 1.1605682584842913e+00 -3.9725708520775397e+03 1.0000000000000000e+00 1.2045860912242585e+01 3.5741314176412660e+00 1.1784254749802590e+00 
77 1 2 1.1605682584842913e+00 1.3939324457269652e+02 1.0000000000000000e+00 9.9382950361428648e+00 4.3634352450398923e+00 1.2862219484363224e+00 
255 1 2 1.1605682584842913e+00 -2.2102027366410312e+02 1.0000000000000000e+00 9.3788248847391298e+00 6.6207540515924093e+00 4.2375490231809804e-01 
323 1 2 1.1605682584842913e+00 7.5099908784189483e+02 1.0000000000000000e+00 1.1399874145937778e+01 8.9464849866977616e+00 8.0747326021273613e-01 
124 1 2 1.1605682584842913e+00 -1.9898652719879777e+02 1.0000000000000000e+00 1.1120459906316144e+01 1.1617142103176723e+00 2.5599361092791559e+00 
185 1 2 1.1605682584842913e+00 -4.6162160356008080e+03 1.0000000000000000e+00 7.7161567544863372e+00 3.4468673453341951e+00 2.4419739242230416e+00 
229 1 2 1.1605682584842913e+00 6.3228440157310320e+02 1.0000000000000000e+00 1.3032422209693635e+01 6.9105451325986786e+00 2.7113450658264520e+00 
262 1 2 1.1605682584842913e+00 8.8212299748764053e+02 1.0000000000000000e+00 1.0951605947797139e+01 6.6853116427068242e+00 2.9453485151674546e+00 
33 1 2 1.1605682584842913e+00 -7.2427839968074318e+02 1.0000000000000000e+00 8.7032610742868783e+00 8.7345769619535591e+00 3.3175463472488116e+00 
139 1 2 1.1605682584842913e+00 -8.6527836762229526e+01 1.0000000000000000e+00 7.1369213861365912e+00 5.5698547241116758e-01 4.4350392064877022e+00 
202 1 2 1.1605682584842913e+00 1.1052258849627542e+03 1.0000000000000000e+00 9.2047851073531692e+00 1.0054484200797318e+00 5.4806994954206312e+00 
160 1 2 1.1605682584842913e+00 6.2781407003630306e+02 1.0000000000000000e+00 1.1342162636479639e+01 2.7619005801970169e+00 4.6043581236171525e+00 
136 1 2 1.1605682584842913e+00 -6.4156728015966564e+02 1.0000000000000000e+00 9.5189011468289273e+00 6.2095409447522307e+00 4.4413383378810396e+00 
364 1 2 1.1605682584842913e+00 2.0225992719843873e+02 1.0000000000000000e+00 1.3202847130661718e+01 6.0301869882802075e+00 4.8945852602363935e+00 
109 1 2 1.1605682584842913e+00 -7.2080527731788948e+01 1.0000000000000000e+00 1.1580355782912109e+01 5.4514844823550168e-01 5.8168136989767172e+00 
5 1 2 1.1605682584842913e+00 2.8735344322683154e+01 1.0000000000000000e+00 1.0155127019552754e+01 3.2196124046674517e+00 6.7977454179220853e+00 
256 1 2 1.1605682584842913e+00 1.5067336309606741e+01 1.0000000000000000e+00 1.2548638956976125e+01 3.3257902292401562e+00 6.3374800285493444e+00 
70 1 2 1.1605682584842913e+00 5.7372471150014871e+02 1.0000000000000000e+00 7.7612832402599015e+00 5.0356588860927376e+00 5.8657677990519064e+00 
286 1 2 1.1605682584842913e+00 2.5985287381536784e+02 1.0000000000000000e+00 1.1577023478003664e+01 5.1413126776250087e+00 6.9614487113493766e+00 
375 1 2 1.1605682584842913e+00 8.1115705881342876e+02 1.0000000000000000e+00 8.4572558193839367e+00 7.0471880974305039e+00 6.8683564482958017e+00 
331 1 2 1.1605682584842913e+00 5.8220540886260346e+02 1.0000000000000000e+00 1.2503597448776594e+01 7.6955381453542753e+00 6.0006187303208964e+00 
284 1 2 1.1605682584842913e+00 8.9916450654924938e+02 1.0000000000000000e+00 8.7337169007604771e+00 8.7885129529064656e+00 5.7927418305520453e+00 
18 1 2 1.1605682584842913e+00 4.8920750991103080e+02 1.0000000000000000e+00 9.0618680594234107e+00 4.8571936253742759e-01 7.5327666814317578e+00 
201 1 2 1.1605682584842913e+00 -5.2089547759638481e+03 1.0000000000000000e+00 8.2766731568989673e+00 3.8043277879589521e+00 7.5617181136510858e+00 
239 1 2 1.1605682584842913e+00 7.9816911455498985e+02 1.0000000000000000e+00 7.2740480783113952e+00 9.3490973505678845e+00 8.0128578465994558e+00 
200 1 2 1.1605682584842913e+00 -5.3651022957767805e+02 1.0000000000000000e+00 1.0052557619188818e+01 1.8040407742127427e+00 8.7363050653103205e+00 
17 1 2 1.1605682584842913e+00 8.7454335293604890e+02 1.0000000000000000e+00 1.1645720395360899e+01 3.8507452552390813e+00 9.5377874452934002e+00 
253 1 2 1.1605682584842913e+00 8.1363099908354980e+02 1.0000000000000000e+00 9.7657057458675798e+00 6.7397430912915777e+00 9.2390733785028996e+00 
114 1 2 1.1605682584842913e+00 -4.1147423052696813e+03 1.0000000000000000e+00 9.4802334788208587e+00 8.8537982335452927e+00 8.6122057688786278e+00 
171 1 2 1.1605682584842913e+00 -1.0892233822424187e+03 1.0000000000000000e+00 1.2676013657103015e+01 8.9541542082219241e+00 9.0429009798692217e+00 
340 1 2 1.1605682584842913e+00 3.4941360272458951e+02 1.0000000000000000e+00 9.7297153349199998e+00 4.1188758882896076e-01 1.0451618336266446e+01 
327 1 2 1.1605682584842913e+00 3.7588262729831968e+02 1.0000000000000000e+00 8.8477078516263976e+00 2.4884530731372188e+00 1.1321250351175097e+01 
258 1 2 1.1605682584842913e+00 5.5688631224712003e+02 1.0000000000000000e+00 1.0127641708931145e+01 9.3786965296330909e+00 1.1128316780574414e+01 
59 1 2 1.1605682584842913e+00 7.1738922951487348e+02 1.0000000000000000e+00 7.8285189040243246e+00 4.9344643968767459e+00 1.2101723512963142e+01 
369 1 2 1.1605682584842913e+00 1.4661871166741719e+02 1.0000000000000000e+00 1.2689725031069111e+01 4.4415875535018055e+00 1.1533771017174118e+01 
350 1 2 1.1605682584842913e+00 1.0911123991387394e+03 1.0000000000000000e+00 1.0506347667791150e+01 7.5878708315660397e+00 1.1989406836981702e+01 
176 1 2 1.1605682584842913e+00 7.9374727540052208e+02 1.0000000000000000e+00 8.2949228277637292e+00 1.2117126035116330e+00 1.3131221717670227e+01 
123 1 2 1.1605682584842913e+00 7.0441924504089980e+02 1.0000000000000000e+00 1.1750467130839626e+01 2.1046930737753899e+00 1.3173852505655677e+01 
153 1 2 1.1605682584842913e+00 7.4954701305367985e+02 1.0000000000000000e+00 8.7025422189796942e+00 7.6248214003388597e+00 1.4021523487016653e+01 
168 1 2 1.1605682584842913e+00 -6.8083245488326247e+02 1.0000000000000000e+00 7.7251847056337741e+00 1.9226270137865750e-01 1.4823393988278614e+01 
356 1 2 1.1605682584842913e+00 1.4182538551869743e+02 1.0000000000000000e+00 1.0073745851210894e+01 1.8726979754060935e+00 1.4907647273576094e+01 
373 1 2 1.1605682584842913e+00 -1.6828986785371239e+02 1.0000000000000000e+00 7.1358872180546831e+00 4.3776648461002470e+00 1.4568777400909386e+01 
264 1 2 1.1605682584842913e+00 1.5713878535279929e+02 1.0000000000000000e+00 9.0534856820113969e+00 5.0550655835273615e+00 1.4587365171613177e+01 
26 1 2 1.1605682584842913e+00 -1.4173566742658613e+02 1.0000000000000000e+00 1.2703467413985894e+01 4.8385274120006088e+00 1.5442459924119888e+01 
289 1 2 1.1605682584842913e+00 -6.3600244234537968e+03 1.0000000000000000e+00 1.3269049751612348e+01 9.5867962870647840e+00 1.5128205760041130e+01 
351 1 2 1.1605682584842913e+00 7.5543846572898451e+02 1.0000000000000000e+00 7.9332461860585060e+00 5.1634156409234166e-01 1.7055196034352040e+01 
4 1 2 1.1605682584842913e+00 7.3479344185892774e+02 1.0000000000000000e+00 8.4743640269476472e+00 3.0400724889925765e+00 1.6061563752539968e+01 
132 1 2 1.1605682584842913e+00 7.5165100270831726e+02 1.0000000000000000e+00 1.1407661628849967e+01 7.2933801142248216e+00 1.5912976114450919e+01 
348 1 2 1.1605682584842913e+00 5.9243855567427022e+02 1.0000000000000000e+00 8.5728596813305202e+00 9.4790798467960471e+00 1.5917753945052601e+01 
366 1 2 1.1605682584842913e+00 -2.1951579079972962e+03 1.0000000000000000e+00 8.0094283207414154e+00 3.7611940751751085e+00 1.8332972892465357e+01 
312 1 2 1.1605682584842913e+00 1.2636462243430555e+02 1.0000000000000000e+00 1.0210697568894936e+01 6.1477538167934398e+00 1.7308955989565657e+01 
265 1 2 1.1605682584842913e+00 -4.4890891318136282e+03 1.0000000000000000e+00 1.2409371566779505e+01 6.5709212560991581e+00 1.7606668973861872e+01 
52 1 2 1.1605682584842913e+00 7.5249777416304551e+02 1.0000000000000000e+00 8.0430328983285708e+00 7.7012402244912703e+00 1.7327576336585629e+01 
180 1 2 1.1605682584842913e+00 -3.9225423720349281e+03 1.0000000000000000e+00 9.3686586360205659e+00 4.2273342813748616e-01 1.9750854789901219e+01 
44 1 2 1.1605682584842913e+00 -1.1122171303460862e+04 1.0000000000000000e+00 1.2458415136900848e+01 1.9420156614549831e+00 1.9986022878532960e+01 
227 1 2 1.1605682584842913e+00 9.2557439085079500e+02 1.0000000000000000e+00 1.0110139850745496e+01 3.2310231334875166e+00 1.9317790362352696e+01 
19 1 2 1.1605682584842913e+00 1.1293674394589739e+03 1.0000000000000000e+00 1.1229500546447037e+01 5.2989965807603197e+00 1.9113031911462770e+01 
36 1 2 1.1605682584842913e+00 3.4089596712901073e+02 1.0000000000000000e+00 1.1696688610911570e+01 1.1042895685330810e+01 2.2095059244078979e-02 
170 1 2 1.1605682584842913e+00 6.5033732216935823e+02 1.0000000000000000e+00 9.7221951287127126e+00 1.2760262635106344e+01 8.6377780724523689e-01 
317 1 2 1.1605682584842913e+00 1.0055033602531059e+03 1.0000000000000000e+00 8.6837376393357673e+00 1.4909357458439255e+01 2.4668651247387874e-01 