LAMMPS data file via write_data, version 30 Jul 2016, timestep = 50000000

384 atoms
2 atom types

0.0000000000000000e+00 2.0000000000000000e+01 xlo xhi
0.0000000000000000e+00 2.0000000000000000e+01 ylo yhi
0.0000000000000000e+00 2.0000000000000000e+01 zlo zhi

Masses

1 3.896
2 4.31

Atoms # meso-molecular

354 1 2 1.1605682584842913e+00 9.2919061093282198e+02 1.0000000000000000e+00 2.6945969791779563e+00 3.2715780005864357e+00 2.5432826106382983e-01 
179 1 2 1.1605682584842913e+00 1.1490233517511831e+03 1.0000000000000000e+00 3.4753313742316312e+00 5.6937360061103393e+00 8.8419627643761678e-01 
158 1 2 1.1605682584842913e+00 8.3117082466727038e+02 1.0000000000000000e+00 2.0924873277587310e+00 6.3564005756029074e-01 1.8101304033735670e+00 
252 1 2 1.1605682584842913e+00 5.2458994560622614e+02 1.0000000000000000e+00 6.7136193035342728e-01 2.9899646500711681e+00 1.8930849290493130e+00 
326 1 2 1.1605682584842913e+00 8.7714895648987408e+02 1.0000000000000000e+00 5.3576194284424021e+00 3.2647267151989117e+00 1.5369036382360397e+00 
45 1 2 1.1605682584842913e+00 7.2973372316240284e+02 1.0000000000000000e+00 2.0166460382476732e+00 5.2629170714574185e+00 2.2678049579542630e+00 
384 1 2 1.1605682584842913e+00 -4.3175536632543958e+02 1.0000000000000000e+00 8.3952014461534119e-01 7.6248923190036271e+00 1.4363153320130504e+00 
20 1 2 1.1605682584842913e+00 6.2191721570221125e+02 1.0000000000000000e+00 3.9997380171760502e+00 7.6951895429989658e+00 2.7121140070984917e+00 
346 1 2 1.1605682584842913e+00 9.7896809430714484e+02 1.0000000000000000e+00 6.5538914928437189e+00 1.1581243747268883e+00 3.6060125748498106e+00 
310 1 2 1.1605682584842913e+00 8.0700975517542224e+02 1.0000000000000000e+00 1.4781235248982649e-02 2.2362056708481592e+00 4.0150246712238618e+00 
218 1 2 1.1605682584842913e+00 -1.6751070759125814e+03 1.0000000000000000e+00 7.6841667866614571e-01 4.1788208493771908e+00 4.0274772140243309e+00 
93 1 2 1.1605682584842913e+00 -8.9609690349301377e+02 1.0000000000000000e+00 3.2655026641595217e+00 3.9501810418178396e+00 3.4022546002941962e+00 
254 1 2 1.1605682584842913e+00 6.5009279836509472e+02 1.0000000000000000e+00 5.8722041948577983e+00 4.1886702266422393e+00 3.6235210240381197e+00 
68 1 2 1.1605682584842913e+00 7.3906144169527988e+02 1.0000000000000000e+00 1.6844094177190625e+00 7.8512880693082661e+00 3.6395603393982685e+00 
42 1 2 1.1605682584842913e+00 2.1243124641420513e+02 1.0000000000000000e+00 6.1486745614873772e+00 7.8376725959521663e+00 3.1623927015599143e+00 
347 1 2 1.1605682584842913e+00 8.0089224650374376e+02 1.0000000000000000e+00 1.4023728828473971e+00 1.9118248671727349e+00 5.5581695515596188e+00 
277 1 2 1.1605682584842913e+00 7.9692800181774123e+02 1.0000000000000000e+00 1.4290470353075808e+00 9.5207406311454985e+00 5.1032312158861437e+00 
285 1 2 1.1605682584842913e+00 5.3549463691154710e+02 1.0000000000000000e+00 5.2300034977043151e+00 9.9718746440487394e+00 5.1551715549705888e+00 
125 1 2 1.1605682584842913e+00 8.4264933555437233e+02 1.0000000000000000e+00 4.3101290209135215e+00 1.9229839099076778e+00 6.8678247168913922e+00 
127 1 2 1.1605682584842913e+00 -3.3521842376686727e+03 1.0000000000000000e+00 4.8229781822505116e+00 4.2045385712275722e+00 5.9825849117257661e+00 
67 1 2 1.1605682584842913e+00 5.5183122292902908e+02 1.0000000000000000e+00 2.5732235909346657e+00 5.6942836349497110e+00 5.7293201315776843e+00 
382 1 2 1.1605682584842913e+00 8.2020411124825819e+02 1.0000000000000000e+00 5.6864693483474849e+00 6.4908031624916580e+00 6.1742721778354515e+00 
302 1 2 1.1605682584842913e+00 6.9044580962654209e+02 1.0000000000000000e+00 8.7250372132817788e-01 7.2776456417420166e+00 6.4205671997873885e+00 
282 1 2 1.1605682584842913e+00 7.5192261798101117e+02 1.0000000000000000e+00 2.6158944193842326e+00 8.4330261295349889e+00 6.3668725548002207e+00 
245 1 2 1.1605682584842913e+00 5.8896926960610540e+02 1.0000000000000000e+00 5.2527229407851384e-01 9.8593814032922769e+00 6.9032158387055427e+00 
60 1 2 1.1605682584842913e+00 7.9465085117589706e+02 1.0000000000000000e+00 2.5704518589780769e+00 2.2764397030674903e+00 8.2794989459189186e+00 
13 1 2 1.1605682584842913e+00 3.7708036784298395e+02 1.0000000000000000e+00 6.1699244446501682e+00 2.1017425908250909e+00 7.6672750285954576e+00 
378 1 2 1.1605682584842913e+00 1.0990044104732001e+03 1.0000000000000000e+00 5.9101232392462340e+00 9.4179743589807021e+00 7.7621638479663888e+00 
306 1 2 1.1605682584842913e+00 2.3973861390766331e+02 1.0000000000000000e+00 4.8641339813155815e+00 1.7258305304104622e+00 9.2370256533433359e+00 
47 1 2 1.1605682584842913e+00 5.1795741025389088e+02 1.0000000000000000e+00 2.7171398228198442e+00 3.9140728514998888e+00 9.8776703230851925e+00 
239 1 2 1.1605682584842913e+00 7.9816758116877236e+02 1.0000000000000000e+00 4.5282265794388739e+00 5.2876687754990357e+00 9.2683152462744154e+00 
190 1 2 1.1605682584842913e+00 -2.6852014652815251e+02 1.0000000000000000e+00 2.5401213064279777e+00 6.7940432468728558e+00 8.7564468523045420e+00 
201 1 2 1.1605682584842913e+00 -5.2089562202489506e+03 1.0000000000000000e+00 5.1593093467872775e+00 8.2873282674470499e+00 9.2932016438057161e+00 
150 1 2 1.1605682584842913e+00 6.1662965280683875e+02 1.0000000000000000e+00 1.0620647342327276e+00 8.7749221225065777e-01 1.1024670628664218e+01 
242 1 2 1.1605682584842913e+00 1.4297012038523030e+03 1.0000000000000000e+00 2.7309687724208818e+00 1.8666884543412645e+00 1.0271108240800020e+01 
18 1 2 1.1605682584842913e+00 4.8920642725811399e+02 1.0000000000000000e+00 4.5390333513814296e+00 3.2593118863585064e+00 1.0679361494159300e+01 
280 1 2 1.1605682584842913e+00 5.0636597384712275e+02 1.0000000000000000e+00 6.4161327992254948e+00 3.9038523601416819e+00 1.0068513497189148e+01 
97 1 2 1.1605682584842913e+00 6.8701753793266471e+02 1.0000000000000000e+00 2.5954442326593465e+00 4.2811158669514526e+00 1.2113035498315677e+01 
120 1 2 1.1605682584842913e+00 8.8439266341558846e+02 1.0000000000000000e+00 6.1839955317877564e+00 2.8732859249869764e+00 1.2221661852534915e+01 
151 1 2 1.1605682584842913e+00 2.8963360505519381e+02 1.0000000000000000e+00 1.2234048300332956e+00 6.3433002798059039e+00 1.2340974929770029e+01 
133 1 2 1.1605682584842913e+00 8.8591027035629918e+02 1.0000000000000000e+00 5.4938253292907282e+00 6.0528184544074257e+00 1.2224753751172280e+01 
260 1 2 1.1605682584842913e+00 -1.1557107321631963e+02 1.0000000000000000e+00 1.9186398695918117e+00 8.2295313028278905e+00 1.1739697537548709e+01 
220 1 2 1.1605682584842913e+00 8.6089858937343320e+02 1.0000000000000000e+00 9.3159701171618522e-02 9.0779778153727015e+00 1.1530798275417991e+01 
343 1 2 1.1605682584842913e+00 -6.8068591651312033e+01 1.0000000000000000e+00 5.0818036743843127e+00 8.6449115022494070e+00 1.2797763474362927e+01 
39 1 2 1.1605682584842913e+00 8.7177422675358775e+02 1.0000000000000000e+00 3.5045820118077859e+00 1.4651065487987180e+00 1.3023798526469884e+01 
235 1 2 1.1605682584842913e+00 8.2110560835212505e+02 1.0000000000000000e+00 2.4470377230157803e-01 3.5844030288072832e+00 1.3203644531263254e+01 
188 1 2 1.1605682584842913e+00 -2.0608994123001963e+02 1.0000000000000000e+00 3.8652833095686279e+00 6.4025215309388157e+00 1.4135953281476635e+01 
105 1 2 1.1605682584842913e+00 1.2402141623137613e+03 1.0000000000000000e+00 1.8691879279468813e+00 1.3490701902098960e+00 1.4477061241272432e+01 
183 1 2 1.1605682584842913e+00 1.0097248331044152e+03 1.0000000000000000e+00 5.2996027944442767e+00 2.0349196730458616e+00 1.4589599440412819e+01 
130 1 2 1.1605682584842913e+00 7.2412164142809274e+02 1.0000000000000000e+00 1.2414506456252399e+00 6.9497480130759639e+00 1.5127575123076797e+01 
271 1 2 1.1605682584842913e+00 -1.3535998104876976e+03 1.0000000000000000e+00 4.7268099512279340e+00 8.7181388676972016e-01 1.6494992937818058e+01 
145 1 2 1.1605682584842913e+00 8.6813240911687808e+02 1.0000000000000000e+00 4.6877636225932134e-01 1.7025091323115762e+00 1.6103077189445681e+01 
353 1 2 1.1605682584842913e+00 1.2385865249681751e+03 1.0000000000000000e+00 3.1182705184854589e+00 2.0433959186792170e+00 1.5963693762352785e+01 
287 1 2 1.1605682584842913e+00 8.3639374908031436e+02 1.0000000000000000e+00 5.8960045161143282e-01 5.0307528715623899e+00 1.5795318410403400e+01 
63 1 2 1.1605682584842913e+00 7.5419383498392131e+02 1.0000000000000000e+00 3.6351993642854490e+00 7.0290962633106222e+00 1.6024066344314409e+01 
187 1 2 1.1605682584842913e+00 7.9672692199978269e+02 1.0000000000000000e+00 1.5628456724741939e+00 2.2737940070169622e+00 1.7818334605110831e+01 
61 1 2 1.1605682584842913e+00 6.8257584660998964e+02 1.0000000000000000e+00 1.3639684165206234e+00 4.2571303732455270e+00 1.8201257051860633e+01 
129 1 2 1.1605682584842913e+00 1.0935186072103052e+03 1.0000000000000000e+00 3.8173227349478291e+00 5.3441489861034448e+00 1.7609560361375372e+01 
199 1 2 1.1605682584842913e+00 1.0236041332341197e+03 1.0000000000000000e+00 1.3753004112420546e+00 8.2462837220611540e+00 1.8275123672238564e+01 
196 1 2 1.1605682584842913e+00 7.7644434113134275e+02 1.0000000000000000e+00 4.8204698090074078e+00 8.2508128187777157e+00 1.7331093305594663e+01 
137 1 2 1.1605682584842913e+00 6.9438983649657916e+02 1.0000000000000000e+00 2.2442920023139865e+00 6.7213963384358200e-01 1.9569134580835780e+01 
159 1 2 1.1605682584842913e+00 -4.7582342506454097e+01 1.0000000000000000e+00 4.5286507629514396e+00 2.9140439660001694e-01 1.9897783210081101e+01 
38 1 2 1.1605682584842913e+00 5.3430918337696380e+02 1.0000000000000000e+00 2.9734133111835899e+00 7.1239557422644104e+00 1.9269683096745652e+01 
335 1 2 1.1605682584842913e+00 6.8860739842120961e+02 1.0000000000000000e+00 6.2104256292834243e+00 7.2774739935121939e+00 1.9438009520811860e+01 
321 1 2 1.1605682584842913e+00 -7.0669330515303614e+02 1.0000000000000000e+00 3.3482484659745873e+00 9.7912929717574997e+00 1.8774187412432028e+01 
297 1 2 1.1605682584842913e+00 3.4913691071300616e+02 1.0000000000000000e+00 1.4385712135753976e+00 1.8892544531689587e+01 8.6677079932673795e-01 
358 1 2 1.1605682584842913e+00 -2.3810660990557562e+03 1.0000000000000000e+00 3.7351952833959325e+00 1.3168429247319420e+01 1.4599672272948321e+00 
87 1 2 1.1605682584842913e+00 7.4519962883483117e+02 1.0000000000000000e+00 5.7944583519534190e+00 1.3094278948723360e+01 2.4342320412002465e+00 
293 1 2 1.1605682584842913e+00 8.5859396322020439e+02 1.0000000000000000e+00 2.2460004302648739e+00 1.5750208578682187e+01 1.6246015397868721e+00 
89 1 2 1.1605682584842913e+00 6.4957196432891874e+02 1.0000000000000000e+00 2.0396255593138921e-01 1.7345687092901709e+01 1.7294664538601503e+00 
362 1 2 1.1605682584842913e+00 -3.4606058816468803e+03 1.0000000000000000e+00 3.5175655881246679e+00 1.7322978232158963e+01 2.6347321101967767e+00 
267 1 2 1.1605682584842913e+00 3.9155040942301628e+02 1.0000000000000000e+00 5.8807327929432267e+00 1.8399883161051861e+01 2.1934670752954890e+00 
101 1 2 1.1605682584842913e+00 3.6473712285963188e+02 1.0000000000000000e+00 1.7716867414774867e-01 1.2147945797958414e+01 3.4473170629190011e+00 
136 1 2 1.1605682584842913e+00 -6.4156945774090855e+02 1.0000000000000000e+00 5.6094680406183102e+00 1.1604107412914393e+01 3.8825750654193132e+00 
363 1 2 1.1605682584842913e+00 4.7277519012086691e+02 1.0000000000000000e+00 3.8098329993562824e-01 1.5469432088780421e+01 3.4530856952164224e+00 
380 1 2 1.1605682584842913e+00 6.5984232808536717e+02 1.0000000000000000e+00 1.6675086269761139e+00 1.8905399609092505e+01 3.9931356568660052e+00 
249 1 2 1.1605682584842913e+00 -4.5303769170558371e+03 1.0000000000000000e+00 1.5764880021855254e+00 1.2693297529399777e+01 5.5210900107649294e+00 
207 1 2 1.1605682584842913e+00 5.7211690371142276e+02 1.0000000000000000e+00 4.7892949820369140e+00 1.3779816880666324e+01 5.1890306809142297e+00 
191 1 2 1.1605682584842913e+00 -1.5750930728445553e+02 1.0000000000000000e+00 2.8028665124971859e+00 1.5565341268769503e+01 4.5546727078713287e+00 
149 1 2 1.1605682584842913e+00 -5.0394274212328855e+03 1.0000000000000000e+00 5.7033058384722697e+00 1.6981384338639348e+01 4.3169476499547992e+00 
279 1 2 1.1605682584842913e+00 5.4625793514732823e+02 1.0000000000000000e+00 3.5631167075465084e+00 1.7857130956412586e+01 5.5917314196464147e+00 
116 1 2 1.1605682584842913e+00 7.8978667184047526e+02 1.0000000000000000e+00 4.3352225123968298e+00 1.2696677493487320e+01 7.0005724188188792e+00 
316 1 2 1.1605682584842913e+00 6.7070593516776808e+02 1.0000000000000000e+00 9.7140503248562804e-01 1.4717120415252660e+01 6.5410588727713925e+00 
197 1 2 1.1605682584842913e+00 6.7702875970415857e+02 1.0000000000000000e+00 5.1950833270021057e+00 1.5417415114592526e+01 6.6103820854556909e+00 
34 1 2 1.1605682584842913e+00 -9.5946347188303776e+01 1.0000000000000000e+00 1.4572462928033270e+00 1.9521021327373202e+01 5.9548723266032475e+00 
131 1 2 1.1605682584842913e+00 5.7195385119260800e+02 1.0000000000000000e+00 3.9610051492126161e+00 1.9382064006964999e+01 6.9580542057916368e+00 
114 1 2 1.1605682584842913e+00 -4.1147435650741918e+03 1.0000000000000000e+00 2.5232818764032756e+00 1.2689068749269495e+01 8.0522028456072938e+00 
22 1 2 1.1605682584842913e+00 9.1733736538937569e+02 1.0000000000000000e+00 4.5170865186084228e+00 1.4229813564618020e+01 8.3500281822676055e+00 
298 1 2 1.1605682584842913e+00 3.2849839518759154e+02 1.0000000000000000e+00 2.7889031667157984e+00 1.5573174668487601e+01 7.6699262436321911e+00 
57 1 2 1.1605682584842913e+00 7.0748133892726059e+02 1.0000000000000000e+00 2.1353502341970210e-01 1.6724039454420275e+01 7.8509871506040465e+00 
342 1 2 1.1605682584842913e+00 -5.1235979160342936e+01 1.0000000000000000e+00 1.3387145519916130e+00 1.9579452992360864e+01 8.3980719760402120e+00 
24 1 2 1.1605682584842913e+00 3.9654771068546552e+02 1.0000000000000000e+00 3.2779508188413433e+00 1.0013711217641497e+01 8.5826747360498050e+00 
117 1 2 1.1605682584725800e+00 1.0203265341449822e+03 1.0000000000000000e+00 3.5691649149008668e+00 1.2149431382210471e+01 9.9970127143017091e+00 
258 1 2 1.1605682584842913e+00 5.5688436620545690e+02 1.0000000000000000e+00 6.2367523976332686e+00 1.3549386723622835e+01 9.7970878991789334e+00 
80 1 2 1.1605682584842913e+00 9.7883777096663948e+02 1.0000000000000000e+00 4.7155226828189223e-01 1.4915962592341103e+01 9.9318515892067474e+00 
167 1 2 1.1605682584842913e+00 6.7126267583678509e+02 1.0000000000000000e+00 5.7461257488627968e+00 1.6404886573628577e+01 8.7637272518908702e+00 
41 1 2 1.1605682584842913e+00 9.9420625628365997e+02 1.0000000000000000e+00 2.7929965148167071e+00 1.8118612161532134e+01 9.9291219002221780e+00 
6 1 2 1.1605682584842913e+00 1.1620173896178512e+03 1.0000000000000000e+00 4.7674062714257142e+00 1.8652120416612259e+01 9.6668905271478867e+00 
189 1 2 1.1605682584725800e+00 6.5834547053939798e+02 1.0000000000000000e+00 1.9366923255953870e+00 1.3230173432024205e+01 1.0386007945029574e+01 
270 1 2 1.1605682584842913e+00 5.6262795768062347e+02 1.0000000000000000e+00 1.8543618864692433e+00 1.0408763288405170e+01 1.2217652928693623e+01 
361 1 2 1.1605682584842913e+00 4.9470432231423149e+02 1.0000000000000000e+00 4.2087742129347934e+00 1.0684525608742366e+01 1.1876068771454607e+01 
246 1 2 1.1605682584842913e+00 8.3913288296423252e+02 1.0000000000000000e+00 5.6433836237911397e+00 1.2901002088827935e+01 1.1600618871406013e+01 
95 1 2 1.1605682584842913e+00 7.6786510341049438e+02 1.0000000000000000e+00 1.1607637900109482e+00 1.8417021812442801e+01 1.2469583731726141e+01 
54 1 2 1.1605682584842913e+00 -5.2780196537035499e+02 1.0000000000000000e+00 4.4237158821419946e+00 1.1137728098612836e+01 1.3851265356760905e+01 
359 1 2 1.1605682584842913e+00 2.5281258716369075e+02 1.0000000000000000e+00 3.6583122606371847e+00 1.5918847781184978e+01 1.3764062449164133e+01 
278 1 2 1.1605682584842913e+00 7.8942644997980960e+02 1.0000000000000000e+00 6.1290776383973009e+00 1.8327688118103694e+01 1.3613683941398117e+01 
334 1 2 1.1605682584842913e+00 8.4477108884708582e+02 1.0000000000000000e+00 6.2014877291922179e+00 1.1209191130838985e+01 1.5000292881008306e+01 
344 1 2 1.1605682584842913e+00 7.3145201062382353e+02 1.0000000000000000e+00 7.3051811437215874e-01 1.2540362672671460e+01 1.5428114523211287e+01 
100 1 2 1.1605682584842913e+00 6.1177423678925220e+02 1.0000000000000000e+00 2.9637252818983919e+00 1.2948032418079224e+01 1.4836362738273577e+01 
292 1 2 1.1605682584842913e+00 -1.4195351091105249e+02 1.0000000000000000e+00 6.2682885396689159e+00 1.6366830543869174e+01 1.4489399221608785e+01 
204 1 2 1.1605682584842913e+00 8.8069749928758483e+02 1.0000000000000000e+00 3.8029235443160307e+00 1.7414147506555775e+01 1.5426316638296761e+01 
79 1 2 1.1605682584842913e+00 6.1790923276063154e+02 1.0000000000000000e+00 1.0618901085724621e+00 1.0365451117329529e+01 1.5836385312197230e+01 
166 1 2 1.1605682584842913e+00 6.9809426301930148e+02 1.0000000000000000e+00 3.4608710360212189e+00 1.3177997294510194e+01 1.7041637695338270e+01 
203 1 2 1.1605682584842913e+00 -1.0465660293985143e+03 1.0000000000000000e+00 4.8552990284659217e+00 1.4098048646495439e+01 1.5890936573368760e+01 
219 1 2 1.1605682584842913e+00 -4.4208721334418315e+03 1.0000000000000000e+00 6.6000046272279782e+00 1.2966342749526627e+01 1.6835439339500375e+01 
304 1 2 1.1605682584842913e+00 1.0129515225806681e+03 1.0000000000000000e+00 3.1099114083055146e-01 1.9581027168080045e+01 1.5718650615751049e+01 
49 1 2 1.1605682584842913e+00 6.4859211722284340e+02 1.0000000000000000e+00 2.5024754193606130e-01 1.3616717933881301e+01 1.7597516522500044e+01 
360 1 2 1.1605682584842913e+00 4.6810603671366698e+02 1.0000000000000000e+00 3.3237924104687786e+00 1.5690437995115383e+01 1.7575892438540425e+01 
142 1 2 1.1605682584842913e+00 8.6289632831622953e+02 1.0000000000000000e+00 6.1986544759989242e+00 1.7723454950237315e+01 1.7881441779349785e+01 
29 1 2 1.1605682584842913e+00 7.2851847347438138e+02 1.0000000000000000e+00 3.8674390789708775e+00 1.9480156248377316e+01 1.7848672606647220e+01 
7 1 2 1.1605682584842913e+00 -9.1558778180892205e+01 1.0000000000000000e+00 5.8668207358135662e+00 1.2319436942583806e+01 1.9144536450388578e+01 
328 1 2 1.1605682584842913e+00 6.9828894793295899e+02 1.0000000000000000e+00 7.5197923900518293e-01 1.4909678684024454e+01 1.9528818535309092e+01 
162 1 2 1.1605682584842913e+00 7.5177215040529313e+02 1.0000000000000000e+00 3.8582031374756784e+00 1.4696836672582769e+01 1.9715452246855723e+01 
368 1 2 1.1605682584842913e+00 8.3818102114896624e+02 1.0000000000000000e+00 2.6081025312126607e+00 1.7172520496488954e+01 1.9708681325725706e+01 
330 1 2 1.1605682635163563e+00 7.2741142534030689e+02 1.0000000000000000e+00 1.0151105688437784e+01 1.2134460493683787e+00 1.1483457189726400e+00 
21 1 2 1.1605682635163563e+00 7.3441554864756142e+02 1.0000000000000000e+00 1.2072671133424949e+01 8.2687941837113810e-01 7.9673925084911446e-01 
77 1 2 1.1605682584842913e+00 1.3939207560098828e+02 1.0000000000000000e+00 1.1576633461700656e+01 3.0351976624211643e+00 5.8849997602753057e-01 
128 1 2 1.1605682584842913e+00 1.0408416728360983e+03 1.0000000000000000e+00 6.8890680638183364e+00 6.7984032529646914e+00 1.2672492141549885e+00 
152 1 2 1.1605682584842913e+00 3.2544729672234098e+02 1.0000000000000000e+00 1.0633877002892133e+01 6.0450996994070358e+00 1.1656033778226456e+00 
182 1 2 1.1605682584842913e+00 -6.4419589924182191e+01 1.0000000000000000e+00 1.1845528283595495e+01 7.8838707353094648e+00 1.4518258295447986e-01 
185 1 2 1.1605682584842913e+00 -4.6162171479404060e+03 1.0000000000000000e+00 9.6712933003417447e+00 9.3291412645033613e+00 8.1446405152120938e-01 
65 1 2 1.1605682584842913e+00 -3.0262470776591672e+03 1.0000000000000000e+00 8.6033467085976039e+00 2.6789298327334539e+00 2.4049031907022749e+00 
139 1 2 1.1605682584842913e+00 -8.6528369308820970e+01 1.0000000000000000e+00 8.6484618219571718e+00 5.5650846487805001e+00 1.7765010971004878e+00 
255 1 2 1.1605682584842913e+00 -2.2102140649427628e+02 1.0000000000000000e+00 7.8170236224782945e+00 9.5945378279497646e+00 2.0892467950752067e+00 
323 1 2 1.1605682584842913e+00 7.5099876614856316e+02 1.0000000000000000e+00 1.2176703874639086e+01 9.2956845640753301e+00 1.9841039843140356e+00 
257 1 2 1.1605682593354480e+00 8.9400393907777732e+02 1.0000000000000000e+00 1.0607495642959714e+01 2.1950849519343358e+00 4.1824908405525667e+00 
33 1 2 1.1605682593354480e+00 -7.2427966022570888e+02 1.0000000000000000e+00 1.1236947114943469e+01 3.9259118288106287e+00 3.4156542691441851e+00 
364 1 2 1.1605682584842913e+00 2.0225959488029014e+02 1.0000000000000000e+00 1.2931158089594138e+01 6.8419019231804441e+00 3.4828189002308640e+00 
3 1 2 1.1605682584842913e+00 6.5782305825752519e+02 1.0000000000000000e+00 1.3004335396843992e+01 8.0321356105768804e-01 5.4735079094528416e+00 
70 1 2 1.1605682584842913e+00 5.7372209282181598e+02 1.0000000000000000e+00 7.0779778966267486e+00 2.1532929563644352e+00 5.6943979677395467e+00 
209 1 2 1.1605682584842913e+00 2.2992758431039802e+03 1.0000000000000000e+00 8.5757321347603206e+00 3.4177197064749802e+00 4.7416200615497344e+00 
331 1 2 1.1605682584842913e+00 5.8220453865958939e+02 1.0000000000000000e+00 9.6663527355044874e+00 7.1979973781878162e+00 4.5332099977868339e+00 
52 1 2 1.1605682584842913e+00 7.5249535685890055e+02 1.0000000000000000e+00 8.5663847328087250e+00 9.5773731542525624e+00 5.1142794213997735e+00 
372 1 2 1.1605682584842913e+00 7.5445642908388595e+02 1.0000000000000000e+00 1.2736285269948457e+01 9.1380946248945882e+00 4.5345109446688268e+00 
35 1 2 1.1605682584842913e+00 4.6832608393187888e+02 1.0000000000000000e+00 1.1393956338387401e+01 3.9058571692924851e+00 6.1691231298313092e+00 
202 1 2 1.1605682584842913e+00 1.1052247315091208e+03 1.0000000000000000e+00 8.1185398752714146e+00 6.2591274699590267e+00 6.2453665941313812e+00 
206 1 2 1.1605682584842913e+00 -2.6698680799110707e+03 1.0000000000000000e+00 1.1875685950253459e+01 6.1211169411719686e+00 6.5288299141932189e+00 
181 1 2 1.1605682584842913e+00 -2.4942943304701851e+02 1.0000000000000000e+00 1.0639621916551516e+01 9.0642325065654994e+00 5.8709100392120490e+00 
5 1 2 1.1605682584842913e+00 2.8734920424172515e+01 1.0000000000000000e+00 1.2926876994933812e+01 2.0861781425561445e+00 7.7540806390981594e+00 
262 1 2 1.1605682584842913e+00 8.8212144188090451e+02 1.0000000000000000e+00 7.1792058940166257e+00 4.4002085845753367e+00 7.4812320714868168e+00 
160 1 2 1.1605682584842913e+00 6.2781163264167822e+02 1.0000000000000000e+00 1.1972607612788179e+01 4.3209290731496877e+00 8.2293303584103956e+00 
178 1 2 1.1605682584842913e+00 -3.3281475243633222e+03 1.0000000000000000e+00 7.4171407543881056e+00 7.2203649129332419e+00 7.9047371030136553e+00 
336 1 2 1.1605682584842913e+00 5.9041625844445912e+02 1.0000000000000000e+00 1.1422559020595758e+01 1.1925383248951853e+00 9.3051877344878893e+00 
171 1 2 1.1605682584842913e+00 -1.0892248402258456e+03 1.0000000000000000e+00 8.6853110756245595e+00 4.8653037070750651e+00 9.7153595704401479e+00 
300 1 2 1.1605682584842913e+00 9.6021546877743526e+02 1.0000000000000000e+00 8.3707727092890050e+00 9.7165410287355840e+00 8.6079701684313150e+00 
217 1 2 1.1605682584335562e+00 -2.7790921550835837e+03 1.0000000000000000e+00 1.2501599214869630e+01 9.9506688387392757e+00 9.9494121241771367e+00 
327 1 2 1.1605682584842913e+00 3.7588193584460691e+02 1.0000000000000000e+00 8.0188012229441643e+00 1.6018662197982669e+00 1.0593071692485934e+01 
17 1 2 1.1605682584842913e+00 8.7454189301200813e+02 1.0000000000000000e+00 1.2281153357574427e+01 1.4751021125868202e+00 1.1237466571165861e+01 
85 1 2 1.1605682584842913e+00 9.1178098292441223e+02 1.0000000000000000e+00 9.1548329522832734e+00 3.5900236136729831e+00 1.1274539948471576e+01 
59 1 2 1.1605682584842913e+00 7.1738713529954180e+02 1.0000000000000000e+00 1.1058497515656697e+01 4.7298200183501553e+00 1.0474050966048562e+01 
15 1 2 1.1605682584842913e+00 -1.8989622502314199e+02 1.0000000000000000e+00 1.2776653187690137e+01 5.5180151720910970e+00 1.1258039579709145e+01 
286 1 2 1.1605682584842913e+00 2.5984972163365694e+02 1.0000000000000000e+00 8.6826100534341890e+00 8.5486085266199687e+00 1.0438372569191850e+01 
253 1 2 1.1605682584842913e+00 8.1362970335872228e+02 1.0000000000000000e+00 1.1703345599349360e+01 7.4213393405939385e+00 1.0396423237514741e+01 
176 1 2 1.1605682584842913e+00 7.9374508570140074e+02 1.0000000000000000e+00 1.0422328648973462e+01 2.4954390700611384e+00 1.2376571210645837e+01 
350 1 2 1.1605682584842913e+00 1.0911115326668537e+03 1.0000000000000000e+00 1.1253528258950452e+01 4.3153244385926728e+00 1.2629454513591673e+01 
373 1 2 1.1605682584842913e+00 -1.6829124121135277e+02 1.0000000000000000e+00 8.6571360177680567e+00 6.2001310401993415e+00 1.2681095522084817e+01 
374 1 2 1.1605682584842913e+00 7.6105271178496014e+02 1.0000000000000000e+00 7.5157010255291095e+00 8.6532944343149847e+00 1.2706786663793043e+01 
367 1 2 1.1605682584842913e+00 7.2095059007403847e+02 1.0000000000000000e+00 7.1672567811946708e+00 3.9859835285092582e-01 1.3221965243657420e+01 
154 1 2 1.1605682584842913e+00 1.1806227528976056e+03 1.0000000000000000e+00 9.3041899485253357e+00 9.5448810952745533e-01 1.3668401526895460e+01 
86 1 2 1.1605683038988204e+00 9.1120684200153119e+02 1.0000000000000000e+00 1.2542112240075548e+01 4.8654170830987259e-01 1.3578422791778959e+01 
174 1 2 1.1605682584842913e+00 2.1931837665187970e+02 1.0000000000000000e+00 1.3142068351511076e+01 2.8230983303849806e+00 1.2877599714273115e+01 
156 1 2 1.1605682584842913e+00 -1.3249852384734886e+03 1.0000000000000000e+00 7.3496359255882462e+00 3.2154880501208662e+00 1.3865006167967550e+01 
325 1 2 1.1605682584842913e+00 7.5719330497668693e+02 1.0000000000000000e+00 6.7114218413020446e+00 5.5065535644962633e+00 1.3916222813986069e+01 
264 1 2 1.1605682584842913e+00 1.5713639155013720e+02 1.0000000000000000e+00 1.2127957480104570e+01 7.9080421148715718e+00 1.2998494362550465e+01 
247 1 2 1.1605682584842913e+00 8.4395385766477580e+02 1.0000000000000000e+00 9.2225766230330066e+00 2.8612881444927942e+00 1.4642287790519275e+01 
356 1 2 1.1605682584842913e+00 1.4182346111368281e+02 1.0000000000000000e+00 1.2046598479725091e+01 3.2121029002606885e+00 1.5296670197440100e+01 
194 1 2 1.1605682584842913e+00 6.2616624779689528e+02 1.0000000000000000e+00 8.6023246035131855e+00 5.7133574912880034e+00 1.4637213146945280e+01 
186 1 2 1.1605682584842913e+00 6.0898920510829294e+02 1.0000000000000000e+00 1.0376261565180759e+01 7.5189060488327417e+00 1.5029168981753147e+01 
341 1 2 1.1605682584842913e+00 1.0788100967373075e+03 1.0000000000000000e+00 7.8604828700600446e+00 9.4393362806481687e+00 1.4893099788749334e+01 
132 1 2 1.1605682584842913e+00 7.5164967398314161e+02 1.0000000000000000e+00 1.0993078451368074e+01 4.7616410952004360e+00 1.6410423604205643e+01 
37 1 2 1.1605682584842913e+00 4.7649204807347064e+02 1.0000000000000000e+00 6.9000092710032472e+00 8.2107642440219184e+00 1.6877669388422170e+01 
265 1 2 1.1605682584842913e+00 -4.4890909261378138e+03 1.0000000000000000e+00 8.9854447484144142e+00 8.8252054020714077e+00 1.6499600509879723e+01 
308 1 2 1.1605682584842913e+00 -1.5452938054238052e+03 1.0000000000000000e+00 1.1682415898530488e+01 9.3217848558369170e+00 1.6122491060644368e+01 
4 1 2 1.1605682584842913e+00 7.3479153888420888e+02 1.0000000000000000e+00 9.5140384586083755e+00 1.3093689592514290e-01 1.7497998568830436e+01 
248 1 2 1.1605682584842913e+00 -3.8497669301797450e+03 1.0000000000000000e+00 1.2947984093922022e+01 5.2457164568186643e-01 1.8508069172171712e+01 
82 1 2 1.1605682584842913e+00 3.6306921556487441e+02 1.0000000000000000e+00 8.1354793650004549e+00 4.0713692813993880e+00 1.8144437309101821e+01 
234 1 2 1.1605682584842913e+00 8.7513486199034355e+02 1.0000000000000000e+00 8.6673968115204492e+00 6.4630195911855601e+00 1.8387614901090814e+01 
339 1 2 1.1605682584842913e+00 7.8869564741886347e+02 1.0000000000000000e+00 7.4109579017434148e+00 1.0178683020547247e-01 1.9433031274009025e+01 
366 1 2 1.1605682584842913e+00 -2.1951590046206011e+03 1.0000000000000000e+00 7.4968465889670828e+00 2.5480174476630397e+00 1.9368547491565163e+01 
312 1 2 1.1605682584842913e+00 1.2636378647714733e+02 1.0000000000000000e+00 1.2129668061343637e+01 2.8017158310097643e+00 1.8579075647447379e+01 
40 1 2 1.1605682584842913e+00 4.2895451056505269e+00 1.0000000000000000e+00 1.1345542338870406e+01 5.8561510404389550e+00 1.9132211180535766e+01 
115 1 2 1.1605682584842913e+00 -1.9934708143661749e+02 1.0000000000000000e+00 1.0071745612506851e+01 8.2610328637688859e+00 1.8838889061299646e+01 
290 1 2 1.1605682584842913e+00 -4.8505212802581773e+03 1.0000000000000000e+00 9.9383376573777582e+00 1.2611173527565287e+01 1.2683848055129292e+00 
224 1 2 1.1605682584842913e+00 7.2863233855824637e+02 1.0000000000000000e+00 9.3692540527217556e+00 1.5021188350726360e+01 9.6529376975883296e-01 
349 1 2 1.1605682584842913e+00 5.7599777700872801e+02 1.0000000000000000e+00 1.1463394853579707e+01 1.4931082909008500e+01 6.1088170347570447e-01 
241 1 2 1.1605682584842913e+00 3.4370510358808417e+02 1.0000000000000000e+00 1.3024835575343925e+01 1.8597947054469476e+01 1.5225120104205165e-02 
301 1 2 1.1605682584842913e+00 -2.0505988796155325e+03 1.0000000000000000e+00 9.9719961174011136e+00 1.1051909551560289e+01 2.7042907957390270e+00 
140 1 2 1.1605682584842913e+00 6.5912403974699032e+02 1.0000000000000000e+00 7.7963748499686609e+00 1.2818937822921809e+01 2.6372664487660678e+00 
319 1 2 1.1605682584842913e+00 9.5156937545381311e+02 1.0000000000000000e+00 7.5182995167398623e+00 1.5883146825425655e+01 2.1006343069549644e+00 
32 1 2 1.1605682584842913e+00 7.5140820235285378e+02 1.0000000000000000e+00 1.1613924603318106e+01 1.7666211387873588e+01 1.7278806673025373e+00 
71 1 2 1.1605682584842913e+00 6.5324812088163094e+02 1.0000000000000000e+00 1.2280618315111875e+01 1.4815915850562581e+01 3.4261223964904293e+00 
134 1 2 1.1605682584842913e+00 5.6869296992839190e+02 1.0000000000000000e+00 1.3150017876976488e+01 1.9902964087012293e+01 3.1132494866138107e+00 