LAMMPS data file via write_data, version 30 Jul 2016, timestep = 50000000

180 atoms
2 atom types

0.0000000000000000e+00 2.0000000000000000e+01 xlo xhi
0.0000000000000000e+00 2.0000000000000000e+01 ylo yhi
0.0000000000000000e+00 2.0000000000000000e+01 zlo zhi

Masses

1 3.896
2 4.31

Atoms # meso-molecular

165 1 2 2.0000077766093547e+00 -2.2736535388558309e+02 1.0000000000000000e+00 2.7064221866833069e+00 3.0762498004252825e-01 8.3183772963345000e+00 
95 1 2 1.9999928642966291e+00 -5.5931934357375712e+02 1.0000000000000000e+00 2.7297748087847888e+00 3.1459242114096764e-01 8.5743938043769532e+00 
85 1 2 1.9999892147445415e+00 -3.2820272664552186e+02 1.0000000000000000e+00 2.6838225611937880e+00 3.2972614276152679e-01 8.5080375033507565e+00 
132 1 2 2.0000076161119069e+00 -5.8544099638981743e+02 1.0000000000000000e+00 2.6984236579587804e+00 3.0611756892220660e-01 8.3099963340073941e+00 
168 1 2 2.0000076179019697e+00 -5.7361713440899450e+02 1.0000000000000000e+00 2.6984348239626867e+00 3.0611416282620679e-01 8.3099908780574125e+00 
5 1 2 1.9999832595139317e+00 -4.9894448400050885e+02 1.0000000000000000e+00 2.2401891354108407e+00 3.7532516200691631e-03 8.2967270059656375e+00 
138 1 2 2.0000076292845419e+00 -6.0179653007046613e+02 1.0000000000000000e+00 2.6985091843074178e+00 3.0609344431085772e-01 8.3099604832085046e+00 
174 1 2 2.0000076285028894e+00 -5.8491572364905369e+02 1.0000000000000000e+00 2.6985039196330742e+00 3.0609482288604850e-01 8.3099623680562953e+00 
20 1 2 2.0000121072125085e+00 -3.5729128825776417e+02 1.0000000000000000e+00 4.6718687328540476e-01 1.5133237852087678e+00 1.0796056634916066e+01 
68 1 2 1.9999943166554277e+00 -4.1038322082557636e+02 1.0000000000000000e+00 2.9560612064800001e-01 1.4168471032752821e+00 1.0442871172102798e+01 
152 1 2 1.9999931090330478e+00 -4.3808612719364567e+02 1.0000000000000000e+00 2.0074870005443596e-01 1.4115369830439879e+00 1.0394856878584246e+01 
150 1 2 1.9999910547280584e+00 -6.0204921883306417e+02 1.0000000000000000e+00 1.1564800165415461e-01 1.3504856106095098e+00 1.0345905583230842e+01 
139 1 2 1.9999913850925073e+00 -4.4540965433240206e+02 1.0000000000000000e+00 1.0901168269516220e-01 1.3509668563154693e+00 1.0346070005986725e+01 
21 1 2 1.9999917928567263e+00 -4.5803160360760000e+02 1.0000000000000000e+00 9.9921470351599012e-02 1.3507554495031291e+00 1.0346064303415785e+01 
57 1 2 1.9999921033154384e+00 -4.4205943143814471e+02 1.0000000000000000e+00 9.2565524434782706e-02 1.3501389880793133e+00 1.0346006731947318e+01 
51 1 2 1.9999921517735824e+00 -4.5469409982364760e+02 1.0000000000000000e+00 9.1469903157360907e-02 1.3500813835639753e+00 1.0346026358632303e+01 
50 1 2 1.9999921584068994e+00 -4.8302319640281212e+02 1.0000000000000000e+00 9.1302133038208402e-02 1.3500577594295415e+00 1.0346022703345302e+01 
107 1 2 1.9999489621073179e+00 -3.6498303949290823e+02 1.0000000000000000e+00 9.2234775819258430e-02 4.1697670576462725e-01 1.1693560596734441e+01 
46 1 2 2.0000194395964219e+00 -5.0941829172091155e+02 1.0000000000000000e+00 3.4646289062227403e-01 1.5660748588357489e+00 1.3547200321674307e+01 
26 1 2 2.0000194650384628e+00 -5.5514448895712735e+02 1.0000000000000000e+00 3.4603163545799837e-01 1.5677273117775377e+00 1.3545158598263047e+01 
121 1 2 2.0000194823156230e+00 -4.2908220612157612e+02 1.0000000000000000e+00 3.4557230369348912e-01 1.5690508149144797e+00 1.3543509619294886e+01 
111 1 2 2.0000194854736724e+00 -5.0999368501820425e+02 1.0000000000000000e+00 3.4452349213612926e-01 1.5703979858797037e+00 1.3541802907613731e+01 
148 1 2 2.0000194725747344e+00 -3.1043669505655629e+02 1.0000000000000000e+00 3.4426060229204092e-01 1.5700891327028315e+00 1.3542178615976255e+01 
45 1 2 2.0000194705885415e+00 -4.0204747139450507e+02 1.0000000000000000e+00 3.4387476476732393e-01 1.5704397137339587e+00 1.3541728817569918e+01 
155 1 2 2.0000193766931824e+00 -4.3019813830851740e+02 1.0000000000000000e+00 3.4315168655912254e-01 1.5669039072873365e+00 1.3546072854711259e+01 
37 1 2 2.0000193740571448e+00 -4.6930959181231071e+02 1.0000000000000000e+00 3.4304913415830907e-01 1.5668994608477083e+00 1.3546074247140446e+01 
77 1 2 2.0000193697397615e+00 -3.0707201233390373e+02 1.0000000000000000e+00 3.4293779085276410e-01 1.5668284888874990e+00 1.3546156838791539e+01 
131 1 2 2.0000193644814042e+00 -5.7637651587087760e+02 1.0000000000000000e+00 3.4280475453475057e-01 1.5667393871674313e+00 1.3546260693816881e+01 
47 1 2 2.0000202830921747e+00 -4.8793543680669137e+02 1.0000000000000000e+00 4.0816717558623805e-01 1.5509877286651308e+00 1.3560578571252519e+01 
81 1 2 2.0000200615016759e+00 -4.0234226253768179e+02 1.0000000000000000e+00 3.9067924670391219e-01 1.5527378562571568e+00 1.3561164191945926e+01 
3 1 2 2.0000221686953625e+00 -4.4594226176496653e+02 1.0000000000000000e+00 2.3364227621204825e+00 1.9731225951667092e+01 8.2126554758675443e+00 
8 1 2 2.0000221692877038e+00 -4.9036136658299267e+02 1.0000000000000000e+00 2.3364262760430017e+00 1.9731217227634247e+01 8.2126564029713638e+00 
2 1 2 2.0000221689346875e+00 -5.3352989279772203e+02 1.0000000000000000e+00 2.3364241819213731e+00 1.9731222424984118e+01 8.2126558516000081e+00 
32 1 2 2.0000221687869324e+00 -4.8011064343116090e+02 1.0000000000000000e+00 2.3364233053803503e+00 1.9731224601967710e+01 8.2126556198183742e+00 
9 1 2 2.0000221683204500e+00 -4.2971821985102389e+02 1.0000000000000000e+00 2.3364205383681607e+00 1.9731231480025052e+01 8.2126548842927001e+00 
164 1 2 2.0000217802569864e+00 -2.9525800820704120e+02 1.0000000000000000e+00 2.3341655575225850e+00 1.9738513751518060e+01 8.2110089607166703e+00 
98 1 2 1.9999955829022298e+00 -2.2512497771534746e+02 1.0000000000000000e+00 4.4059227293104914e+00 1.8294522722264091e+01 9.6777255342503068e+00 
112 1 2 1.9999955842226371e+00 -3.3242556716406841e+02 1.0000000000000000e+00 4.4058946698421284e+00 1.8294498562027673e+01 9.6777349729786621e+00 
125 1 2 1.9999955864541521e+00 -4.7061496914086808e+02 1.0000000000000000e+00 4.4059025056241978e+00 1.8294504514959591e+01 9.6777272484243113e+00 
66 1 2 1.9999955845603641e+00 -5.1370012380156072e+02 1.0000000000000000e+00 4.4059138773077935e+00 1.8294514720698619e+01 9.6777260818994240e+00 
114 1 2 1.9999955839576800e+00 -4.9118973563314512e+02 1.0000000000000000e+00 4.4059169294153246e+00 1.8294517488913961e+01 9.6777259535963296e+00 
167 1 2 1.9999955849384174e+00 -3.6312970985095387e+02 1.0000000000000000e+00 4.4059119865619412e+00 1.8294513004429621e+01 9.6777261521214157e+00 
7 1 2 1.9999956173489459e+00 -6.1300015609764637e+02 1.0000000000000000e+00 4.4060303945720349e+00 1.8294603483376878e+01 9.6776120110271098e+00 
22 1 2 1.9999525896099088e+00 -4.1642561707655830e+02 1.0000000000000000e+00 4.3878949759943859e+00 1.8392727547618623e+01 9.8365512305359442e+00 
18 1 2 1.9999955757563468e+00 -4.8744839293232189e+02 1.0000000000000000e+00 4.4059724204244128e+00 1.8294566997662621e+01 9.6777182374118578e+00 
34 1 2 1.9999955778383878e+00 -3.8950103698966899e+02 1.0000000000000000e+00 4.4059591379505223e+00 1.8294555107461392e+01 9.6777198500166488e+00 
12 1 2 1.9999955757567247e+00 -5.5295980811373965e+02 1.0000000000000000e+00 4.4059724217105538e+00 1.8294566998654673e+01 9.6777182362308150e+00 
13 1 2 1.9999955757566352e+00 -4.8038973253607395e+02 1.0000000000000000e+00 4.4059724209678262e+00 1.8294566998042463e+01 9.6777182366605459e+00 
93 1 2 1.9999955840444117e+00 -3.2733412563116076e+02 1.0000000000000000e+00 4.4059164732429039e+00 1.8294517076189990e+01 9.6777259793440908e+00 
82 1 2 1.9999956820041831e+00 -4.5394413555916663e+02 1.0000000000000000e+00 3.0487221609157293e+00 1.2666104705252055e+01 1.0915823702982353e+01 
65 1 2 1.9999956826642431e+00 -5.3914271608723379e+02 1.0000000000000000e+00 3.0448950879710259e+00 1.2670530874788724e+01 1.0914298162136024e+01 
73 1 2 1.9999956814903674e+00 -5.6418953399042937e+02 1.0000000000000000e+00 3.0443557924518720e+00 1.2671107976369571e+01 1.0914137344225464e+01 
72 1 2 1.9999956957831397e+00 -4.4968171257605871e+02 1.0000000000000000e+00 3.0399020364184968e+00 1.2676815192371610e+01 1.0911881125925701e+01 
161 1 2 1.9999956958089975e+00 -3.7351201377375975e+02 1.0000000000000000e+00 3.0398935346792135e+00 1.2676826070124552e+01 1.0911876938039764e+01 
36 1 2 1.9999955373692391e+00 -4.5472799092813358e+02 1.0000000000000000e+00 3.0172847459851244e+00 1.2697677766952044e+01 1.0909921026182916e+01 
67 1 2 1.9999957420113383e+00 -4.5338751207936826e+02 1.0000000000000000e+00 3.0360436382465670e+00 1.2683085957742890e+01 1.0908670949024875e+01 
54 1 2 1.9999953681404929e+00 -5.2552639900298436e+02 1.0000000000000000e+00 2.9978144928414454e+00 1.2715460672227405e+01 1.0909808080851112e+01 
24 1 2 1.9999953681815186e+00 -5.6277899912398414e+02 1.0000000000000000e+00 2.9978187885835048e+00 1.2715456774085924e+01 1.0909807936373218e+01 
96 1 2 1.9999953681602440e+00 -6.0957410284260368e+02 1.0000000000000000e+00 2.9978165534897965e+00 1.2715458802302232e+01 1.0909808011541861e+01 
60 1 2 1.9999953681522491e+00 -6.0639095869940695e+02 1.0000000000000000e+00 2.9978157225893241e+00 1.2715459556062164e+01 1.0909808039716520e+01 
55 1 2 1.9999953682183533e+00 -6.7802766320656735e+02 1.0000000000000000e+00 2.9978226356067879e+00 1.2715453283015769e+01 1.0909807807153866e+01 
146 1 2 1.9999990173682205e+00 -4.4470981396038218e+02 1.0000000000000000e+00 4.6931290363251845e+00 1.1807130223200074e+01 1.1669883076963465e+01 
166 1 2 1.9999980987369033e+00 -4.9581515056408557e+02 1.0000000000000000e+00 4.9053763668947283e+00 1.1810985382657035e+01 1.2651598039886098e+01 
159 1 2 2.0000018014242915e+00 -2.9451211158312969e+02 1.0000000000000000e+00 5.7450842155126098e+00 1.1596450675478158e+01 1.2231933705369155e+01 
116 1 2 2.0000011576904315e+00 -2.5051946558479324e+02 1.0000000000000000e+00 5.8462518074331715e+00 1.1660504225367394e+01 1.2292792488907217e+01 
99 1 2 2.0000012462541248e+00 -3.8954644449609106e+02 1.0000000000000000e+00 5.8396603661046278e+00 1.1655779564739740e+01 1.2286225641258158e+01 
157 1 2 2.0000008299399772e+00 -5.7823372132003385e+02 1.0000000000000000e+00 5.8745154455544464e+00 1.1685407045806317e+01 1.2314604019950769e+01 
115 1 2 2.0000008356170063e+00 -4.0980760072184029e+02 1.0000000000000000e+00 5.8734883479955755e+00 1.1684291704923876e+01 1.2314332504260960e+01 
79 1 2 2.0000008410454844e+00 -4.4157480948227328e+02 1.0000000000000000e+00 5.8726993136461250e+00 1.1683458434701219e+01 1.2314042414590428e+01 
87 1 2 2.0000008395929698e+00 -3.2060110656549404e+02 1.0000000000000000e+00 5.8747944970099155e+00 1.1685912196254883e+01 1.2313837095416323e+01 
4 1 2 1.9999976091084688e+00 -4.2588287168303970e+02 1.0000000000000000e+00 5.2027907011404801e+00 1.1702745041183595e+01 1.2723362341730047e+01 
49 1 2 1.9999994430333923e+00 -4.7277736715517187e+02 1.0000000000000000e+00 5.9139457298593827e+00 1.1724975736969622e+01 1.2406484262687524e+01 
102 1 2 1.9999957338672218e+00 -4.4720355133349864e+02 1.0000000000000000e+00 5.7336641594797202e+00 1.1789337079161971e+01 1.2777793630484945e+01 
158 1 2 1.9999970743384783e+00 -3.1101241870662483e+02 1.0000000000000000e+00 5.3169541230468118e+00 1.1802980956086373e+01 1.2840492721246536e+01 
74 1 2 1.9999958217492746e+00 -5.4219877236030220e+02 1.0000000000000000e+00 5.8437108160525515e+00 1.1820780810285886e+01 1.2714653334301319e+01 
62 1 2 1.9999974007865879e+00 -4.8048997309645165e+02 1.0000000000000000e+00 2.2127638452619860e+00 1.5016363949487953e+01 1.1867557201287054e+01 
123 1 2 2.0000108039832134e+00 -1.7973153522989961e+02 1.0000000000000000e+00 1.9834944289077752e+00 1.5224778516515283e+01 1.1972069852174208e+01 
42 1 2 1.9999924947728238e+00 -5.2878397288086114e+02 1.0000000000000000e+00 2.7660211495301001e+00 1.5036769706431585e+01 1.1798528572756338e+01 
1 1 2 1.9999924938666482e+00 -6.6002376387658387e+02 1.0000000000000000e+00 2.7660339187045402e+00 1.5036759373610009e+01 1.1798522128407912e+01 
19 1 2 1.9999924885136802e+00 -5.9629977423963419e+02 1.0000000000000000e+00 2.7661081830300538e+00 1.5036698183789936e+01 1.1798484052302724e+01 
30 1 2 1.9999924885133697e+00 -4.7112310462361518e+02 1.0000000000000000e+00 2.7661081872896687e+00 1.5036698180260569e+01 1.1798484050107989e+01 
100 1 2 1.9999886926133450e+00 -4.9492058235719139e+02 1.0000000000000000e+00 2.7083489516494814e+00 1.4978863300474666e+01 1.1772315478752786e+01 
78 1 2 2.0000138138901105e+00 -3.6208725381101146e+02 1.0000000000000000e+00 1.2233564579863048e+00 1.4948035759172138e+01 1.3260570413646469e+01 
110 1 2 2.0000140791750578e+00 -5.6234264827028039e+02 1.0000000000000000e+00 1.0230837330813551e+00 1.5145499680876428e+01 1.3168902170745147e+01 
134 1 2 2.0000140407207860e+00 -3.8410152601961875e+02 1.0000000000000000e+00 1.0208665281640594e+00 1.5147139244179733e+01 1.3165480797658937e+01 
91 1 2 2.0000139280351865e+00 -3.6516622014920790e+02 1.0000000000000000e+00 1.0163359718669933e+00 1.5155815819690758e+01 1.3162091300454454e+01 
162 1 2 2.0000139257589189e+00 -5.8127755979995152e+02 1.0000000000000000e+00 1.0162435581495457e+00 1.5155973359995373e+01 1.3162003786496774e+01 
147 1 2 2.0000139210274623e+00 -3.9871145064380829e+02 1.0000000000000000e+00 1.0160519739321374e+00 1.5156300459198230e+01 1.3161822172735270e+01 
69 1 2 2.0000139014835372e+00 -4.6659700608059035e+02 1.0000000000000000e+00 1.0152667549131298e+00 1.5157645384723082e+01 1.3161073150671136e+01 
133 1 2 2.0000136942399891e+00 -4.7811420175438445e+02 1.0000000000000000e+00 1.0090133251964564e+00 1.5097949588708945e+01 1.3092047942073835e+01 
175 1 2 2.0000136939899118e+00 -4.1926627696917842e+02 1.0000000000000000e+00 1.0089997002869293e+00 1.5097978053546786e+01 1.3092040660463198e+01 
169 1 2 2.0000136624221998e+00 -4.1382828507850405e+02 1.0000000000000000e+00 1.0073174458636605e+00 1.5101534173949627e+01 1.3091146080850821e+01 
170 1 2 2.0000136623816096e+00 -4.1787620126487371e+02 1.0000000000000000e+00 1.0073153314776784e+00 1.5101538688918819e+01 1.3091144953824369e+01 
136 1 2 1.9999968370429206e+00 -5.0074425987943914e+02 1.0000000000000000e+00 4.9083834565546551e+00 1.4424020283370661e+01 1.2443707914515404e+01 
108 1 2 2.0000038087413028e+00 -4.5328490960644962e+02 1.0000000000000000e+00 5.0065598455980451e+00 1.4342854365802024e+01 1.2404805820248203e+01 
106 1 2 2.0000038325128702e+00 -4.5647684079426153e+02 1.0000000000000000e+00 5.0065216547330769e+00 1.4343313765049373e+01 1.2403908557453224e+01 
101 1 2 2.0000038608459825e+00 -4.3618831742100957e+02 1.0000000000000000e+00 5.0048977263534429e+00 1.4346749224885045e+01 1.2400197329258607e+01 
137 1 2 2.0000039720864633e+00 -4.2647820971673724e+02 1.0000000000000000e+00 5.0070376643175374e+00 1.4344596450712039e+01 1.2399904447984589e+01 
109 1 2 2.0000040622405182e+00 -4.5824605619053290e+02 1.0000000000000000e+00 5.0011226920906049e+00 1.4356348079330031e+01 1.2387286083657598e+01 
151 1 2 2.0000040622424793e+00 -4.4451454926423065e+02 1.0000000000000000e+00 5.0011226389407240e+00 1.4356348197134196e+01 1.2387285934851466e+01 
145 1 2 2.0000040622414934e+00 -4.2737296120837999e+02 1.0000000000000000e+00 5.0011226656443561e+00 1.4356348137994660e+01 1.2387286009498052e+01 
156 1 2 2.0000040622257553e+00 -5.6629913383551127e+02 1.0000000000000000e+00 5.0011230926272106e+00 1.4356347193384826e+01 1.2387287200591073e+01 
83 1 2 2.0000041096048498e+00 -4.5911983546143716e+02 1.0000000000000000e+00 4.9966453634170813e+00 1.4364477580781704e+01 1.2378864718451018e+01 
113 1 2 2.0000041098928683e+00 -3.7840060098438829e+02 1.0000000000000000e+00 4.9965842060087517e+00 1.4364581766061969e+01 1.2378763624832130e+01 
16 1 2 2.0000159208011627e+00 -4.0424054567711369e+02 1.0000000000000000e+00 1.1853755850730843e+00 1.8358874237615542e+01 1.3303022740683048e+01 
52 1 2 2.0000159208012387e+00 -4.0076804883956970e+02 1.0000000000000000e+00 1.1853755851334113e+00 1.8358874237450145e+01 1.3303022740697250e+01 
10 1 2 2.0000159208014452e+00 -4.1808216070304729e+02 1.0000000000000000e+00 1.1853755852893726e+00 1.8358874237023034e+01 1.3303022740733869e+01 
15 1 2 2.0000159208012875e+00 -4.2536103159458116e+02 1.0000000000000000e+00 1.1853755851715029e+00 1.8358874237346051e+01 1.3303022740706075e+01 
119 1 2 1.9997707789580117e+00 -4.0539333716306589e+02 1.0000000000000000e+00 3.8832223095805762e+00 1.8032155123757537e+01 1.3054460524080906e+01 
122 1 2 2.0001031399349332e+00 -4.1796505670492235e+02 1.0000000000000000e+00 4.5792420731045960e+00 1.6949668083143358e+01 1.2739776435409139e+01 
33 1 2 2.0001031400355984e+00 -3.5149599339300551e+02 1.0000000000000000e+00 4.5792106295656385e+00 1.6949642009175353e+01 1.2739779830755449e+01 
31 1 2 2.0001031127156419e+00 -6.5267374475814017e+02 1.0000000000000000e+00 4.5792832054244705e+00 1.6949793720529943e+01 1.2739667787534371e+01 
86 1 2 2.0000950285372410e+00 -2.6767554375755560e+02 1.0000000000000000e+00 5.6812191145315385e+00 1.7913746364230157e+01 1.2825301934888801e+01 
163 1 2 2.0000890865508389e+00 -3.4818272919027646e+02 1.0000000000000000e+00 5.6283674601398284e+00 1.8101993016339435e+01 1.2522684090386587e+01 
173 1 2 2.0000522069338760e+00 -4.4900047201211947e+02 1.0000000000000000e+00 5.6616979300216901e+00 1.8321963987360828e+01 1.2497369264005867e+01 
6 1 2 2.0000517655798662e+00 -5.5639400027810439e+02 1.0000000000000000e+00 5.6617524979929712e+00 1.8323439290526402e+01 1.2497444481978585e+01 
103 1 2 2.0000502338617272e+00 -4.3910119879524950e+02 1.0000000000000000e+00 5.6619575629203478e+00 1.8328535198993560e+01 1.2497758895771856e+01 
35 1 2 2.0000486656753109e+00 -3.6942454579905871e+02 1.0000000000000000e+00 5.6622138074176487e+00 1.8333744217189640e+01 1.2498182902469422e+01 
71 1 2 1.9998677359694552e+00 -4.3578435484647730e+02 1.0000000000000000e+00 5.2454319818441322e+00 1.8642587510007907e+01 1.3299103807083265e+01 
153 1 2 1.9998677783094876e+00 -4.5209608839418649e+02 1.0000000000000000e+00 5.2455102167135985e+00 1.8643470049406460e+01 1.3297852389361893e+01 
39 1 2 1.9998673533139595e+00 -5.0177692820625862e+02 1.0000000000000000e+00 5.2519610599803439e+00 1.8649836434714263e+01 1.3290452987843285e+01 
48 1 2 1.9998673351219625e+00 -6.6539512289845220e+02 1.0000000000000000e+00 5.2525147250910731e+00 1.8650640168335475e+01 1.3289421559220662e+01 
171 1 2 1.9998672936214759e+00 -2.5027486141080405e+02 1.0000000000000000e+00 5.2528977322193864e+00 1.8650764238764506e+01 1.3289354593925271e+01 
178 1 2 1.9999368501877912e+00 -3.4590033042743028e+02 1.0000000000000000e+00 8.2093900457351254e-01 1.8775876439042616e+01 1.3337556449002982e+01 
140 1 2 1.9999368501877679e+00 -4.1644673374628775e+02 1.0000000000000000e+00 8.2093900439714862e-01 1.8775876439215214e+01 1.3337556448886712e+01 
141 1 2 1.9999368501875416e+00 -5.5739017000409626e+02 1.0000000000000000e+00 8.2093900170417400e-01 1.8775876441851398e+01 1.3337556447110135e+01 
177 1 2 1.9999368501877082e+00 -5.4885371611564983e+02 1.0000000000000000e+00 8.2093900395643760e-01 1.8775876439646488e+01 1.3337556448595898e+01 
176 1 2 1.9999368501877959e+00 -5.7798820268399311e+02 1.0000000000000000e+00 8.2093900461127156e-01 1.8775876439005661e+01 1.3337556449027813e+01 
53 1 2 1.9999368455003099e+00 -4.7686080759601106e+02 1.0000000000000000e+00 8.2088886818824103e-01 1.8775925516015665e+01 1.3337523269425608e+01 
76 1 2 1.9999368196441214e+00 -3.9999325297970074e+02 1.0000000000000000e+00 8.2061084071703605e-01 1.8776197766150208e+01 1.3337339541652584e+01 
179 1 2 1.9999368119395009e+00 -3.7921192366630527e+02 1.0000000000000000e+00 8.2052873927617809e-01 1.8776278183619400e+01 1.3337284837836425e+01 
149 1 2 1.9999417596845777e+00 -6.1624674843127889e+02 1.0000000000000000e+00 3.0807325576310358e+00 1.6948557112631452e+01 1.3687616788197246e+01 
180 1 2 1.9999417571401585e+00 -6.2770603826933268e+02 1.0000000000000000e+00 3.0807329068492835e+00 1.6948567681349548e+01 1.3687617249453355e+01 
142 1 2 1.9999412946620965e+00 -4.6921687369320739e+02 1.0000000000000000e+00 3.0805283960447678e+00 1.6950654719741856e+01 1.3687771081856249e+01 
144 1 2 1.9999425609502379e+00 -6.4953977088071281e+02 1.0000000000000000e+00 3.0801369569996435e+00 1.6945523772961995e+01 1.3687598716615751e+01 
75 1 2 1.9999426174560166e+00 -4.9736215413140036e+02 1.0000000000000000e+00 3.0800644316627359e+00 1.6945328222392604e+01 1.3687605470160499e+01 
40 1 2 1.9999409545036411e+00 -5.2723097187340181e+02 1.0000000000000000e+00 3.0795425635666116e+00 1.6952714930402774e+01 1.3688102749677507e+01 
64 1 2 1.9999432504717802e+00 -3.2620173970890659e+02 1.0000000000000000e+00 3.0789720123735433e+00 1.6943305107303804e+01 1.3687755570946022e+01 
70 1 2 1.9999444956241461e+00 -3.5952076862432142e+02 1.0000000000000000e+00 3.0753321556547206e+00 1.6940216496040819e+01 1.3688451955515607e+01 
29 1 2 1.9999489710434430e+00 -3.6303733466692302e+02 1.0000000000000000e+00 3.0216113359859023e+00 1.6954773389048192e+01 1.3701821770178412e+01 
80 1 2 1.9999888082698791e+00 -4.0086287163237080e+02 1.0000000000000000e+00 3.5174551874851129e-01 1.9847225983659136e+01 1.3731294186652359e+01 
135 1 2 1.9998440899519359e+00 -2.6694430602943999e+02 1.0000000000000000e+00 5.4518233615818570e+00 1.8573595884922280e+01 1.3390092338396974e+01 
88 1 2 2.0000000028465403e+00 -2.9734916118688614e+02 1.0000000000000000e+00 1.1090944819879125e+01 1.0698158749023907e+01 9.6537158696810510e-01 
27 1 2 2.0000000028465386e+00 -3.0887936506303413e+02 1.0000000000000000e+00 1.1090944834304540e+01 1.0698158794539891e+01 9.6537159340532874e-01 
172 1 2 2.0000000028465248e+00 -4.4214487559768486e+02 1.0000000000000000e+00 1.1090945548070827e+01 1.0698161396972676e+01 9.6537189010148095e-01 
28 1 2 2.0000000028465399e+00 -3.0112963807771473e+02 1.0000000000000000e+00 1.1090944835604093e+01 1.0698158798624652e+01 9.6537159398621408e-01 
89 1 2 2.0000000028465346e+00 -5.3858226372296917e+02 1.0000000000000000e+00 1.1090945020477909e+01 1.0698159382047994e+01 9.6537167647788669e-01 
127 1 2 2.0000000028465381e+00 -3.5833640686537774e+02 1.0000000000000000e+00 1.1090945092248679e+01 1.0698159612706915e+01 9.6537170824278207e-01 
94 1 2 2.0000000028465275e+00 -5.8282026510343928e+02 1.0000000000000000e+00 1.1090944490015403e+01 1.0698157594788867e+01 9.6537144682713538e-01 
58 1 2 1.9999999982455094e+00 -4.3291549769345642e+02 1.0000000000000000e+00 1.1486060461218777e+01 1.0378997567877438e+01 3.9189115149781600e-01 
23 1 2 1.9999999978536684e+00 -3.7578679297320923e+02 1.0000000000000000e+00 1.1553254146670822e+01 1.0485095969232725e+01 3.3820774259897973e-01 
25 1 2 1.9999999977602754e+00 -7.1163964329045052e+02 1.0000000000000000e+00 1.1560861921985703e+01 1.0496104758430075e+01 3.3716542038827491e-01 
154 1 2 1.9999999975975939e+00 -4.8596606519744159e+02 1.0000000000000000e+00 1.1548180110930799e+01 1.0534525425278341e+01 3.0469421187506979e-01 
97 1 2 1.9999999973110236e+00 -3.3418742857857615e+02 1.0000000000000000e+00 1.1480068454118802e+01 1.0859398238224786e+01 2.8521631422697974e-01 
160 1 2 1.9999999972395059e+00 -5.5741364340205109e+02 1.0000000000000000e+00 1.1488976126413878e+01 1.0846331160612442e+01 2.8239825958817583e-01 
143 1 2 1.9999999977987226e+00 -3.3110848632958994e+02 1.0000000000000000e+00 1.1464259958693907e+01 1.0854915191651774e+01 2.7543564956603395e-01 
92 1 2 1.9999999970562565e+00 -3.3149822363225906e+02 1.0000000000000000e+00 1.1509167044306198e+01 1.0806348546935631e+01 2.7458432413271394e-01 
17 1 2 2.0000219789584466e+00 -4.1209777792930743e+02 1.0000000000000000e+00 8.9891993845523874e+00 1.9186547716200483e+01 1.2986901317262443e+01 
44 1 2 2.0000178496253160e+00 -4.8747721338637848e+02 1.0000000000000000e+00 9.1798390126959788e+00 1.9296235751326783e+01 1.3068610450886153e+01 
38 1 2 2.0000281475015886e+00 -5.5121375838687823e+02 1.0000000000000000e+00 9.3439001114904077e+00 1.9520676381839888e+01 1.3261967686801308e+01 
118 1 2 2.0000299488020628e+00 -3.6643469455407541e+02 1.0000000000000000e+00 8.7746467986289947e+00 1.9820963568154344e+01 1.2800302377019095e+01 
61 1 2 1.9999885395499086e+00 -5.8340975271612558e+02 1.0000000000000000e+00 7.8929449481851828e+00 1.9857129074029665e+01 1.3366617618312594e+01 
63 1 2 2.0000430607366004e+00 -4.8078814853464627e+02 1.0000000000000000e+00 9.3442273452003661e+00 1.9687645750347254e+01 1.3401380086814568e+01 
41 1 2 1.9998181310844672e+00 -4.9429362419749083e+02 1.0000000000000000e+00 7.6217888465564849e+00 1.9465152054770606e+01 1.3459005854852938e+01 
126 1 2 1.9998231176886077e+00 -5.6013399157398408e+02 1.0000000000000000e+00 7.6219989495708900e+00 1.9482132451527576e+01 1.3448275828689072e+01 
90 1 2 1.9998231200205645e+00 -4.2933165239797512e+02 1.0000000000000000e+00 7.6219983287630928e+00 1.9482143002875286e+01 1.3448267042779017e+01 
84 1 2 1.9998231216003650e+00 -5.1760747885827743e+02 1.0000000000000000e+00 7.6219979091592061e+00 1.9482150147119711e+01 1.3448261094549128e+01 
120 1 2 1.9998231216955842e+00 -4.2553470264438744e+02 1.0000000000000000e+00 7.6219978838458218e+00 1.9482150577600446e+01 1.3448260736063434e+01 
117 1 2 2.0000478062907017e+00 -3.5665018540866316e+02 1.0000000000000000e+00 9.3294186386376818e+00 1.9700041492159688e+01 1.3473301966742662e+01 
11 1 2 2.0000478044089065e+00 -4.9445252047860100e+02 1.0000000000000000e+00 9.3294268861743870e+00 1.9700036502627608e+01 1.3473272437941363e+01 
124 1 2 2.0000477966235195e+00 -4.4365140269704699e+02 1.0000000000000000e+00 9.3294609844027665e+00 1.9700015852929177e+01 1.3473150293461376e+01 
43 1 2 2.0000477935240735e+00 -5.4336181209132769e+02 1.0000000000000000e+00 9.3294745491762132e+00 1.9700007628317053e+01 1.3473101675110563e+01 
59 1 2 2.0000478156834314e+00 -3.6870647865756348e+02 1.0000000000000000e+00 9.3293774360625701e+00 1.9700066413332859e+01 1.3473449376538211e+01 
130 1 2 2.0000478046122101e+00 -5.3992000556330481e+02 1.0000000000000000e+00 9.3294259953138035e+00 1.9700037040963707e+01 1.3473275628395246e+01 
104 1 2 1.9998288211110000e+00 -5.7220744598093063e+02 1.0000000000000000e+00 7.6348718499646289e+00 1.9452976115381674e+01 1.3485094831631965e+01 
128 1 2 2.0000050516587060e+00 -2.9229364933400802e+02 1.0000000000000000e+00 1.9602748635815207e+01 1.1260760099711706e+00 1.0818173334197926e+01 
56 1 2 2.0000064809633629e+00 -4.6093546926037897e+02 1.0000000000000000e+00 1.9747256726045805e+01 8.0981943139825641e-01 1.0903347385748768e+01 
129 1 2 1.9999962259196342e+00 -1.3837594451169861e+02 1.0000000000000000e+00 1.9932380795838782e+01 6.4697421546973877e-01 1.1070900465039433e+01 
105 1 2 1.9999961253968643e+00 -3.9626034959115015e+02 1.0000000000000000e+00 1.9743743873061554e+01 7.3464992793093753e-01 1.1295497579840308e+01 
14 1 2 1.9999957400103150e+00 -3.5471637150433008e+02 1.0000000000000000e+00 1.9981430480172193e+01 1.3019749172960917e+00 1.0348074905778946e+01 

Velocities

165 2.0683508559091632e-01 -2.0669180671387297e-01 2.3084697755795408e-01
95 2.0662195677691639e-01 -2.0728273886333931e-01 2.3155619432402044e-01
85 2.0644470976593451e-01 -2.0742732923616938e-01 2.3148619746734805e-01
132 2.0679141449979993e-01 -2.0671941032339916e-01 2.3082277908026688e-01
168 2.0679149832012464e-01 -2.0671934054278082e-01 2.3082270994808246e-01
5 2.0653194685099777e-01 -2.0839473339190806e-01 2.3193576109185618e-01
138 2.0679204856232272e-01 -2.0671888671091562e-01 2.3082228518267361e-01
174 2.0679200996242095e-01 -2.0671891835230802e-01 2.3082231365400546e-01
20 1.9681669567994969e-01 -1.8472204026102182e-01 2.1896356828066196e-01
68 1.9576224258786845e-01 -1.8570309788650941e-01 2.2036623117761692e-01
152 1.9588130515862734e-01 -1.8568804923886831e-01 2.2056030230666074e-01
150 1.9608250658768250e-01 -1.8557069737799700e-01 2.2083968428241613e-01
139 1.9609583696654767e-01 -1.8555358154577145e-01 2.2081758288748324e-01
21 1.9611362616135966e-01 -1.8552976323443621e-01 2.2079078549966641e-01
57 1.9612744134312515e-01 -1.8551022958074803e-01 2.2077031947222578e-01
51 1.9612939727120596e-01 -1.8550731928140865e-01 2.2076701448658509e-01
50 1.9612970782038147e-01 -1.8550686922703888e-01 2.2076658088492174e-01
107 1.9974576141494349e-01 -1.8526127690227009e-01 2.2060618307229687e-01
46 1.9912960643414115e-01 -1.8808787641955035e-01 2.1815384897753468e-01
26 1.9912545565594861e-01 -1.8807520759765681e-01 2.1814687449871031e-01
121 1.9912155072922472e-01 -1.8806512068407957e-01 2.1814114043833510e-01
111 1.9911463283204212e-01 -1.8805520433668735e-01 2.1813480582899822e-01
148 1.9911367798440202e-01 -1.8805778883633417e-01 2.1813587559598696e-01
45 1.9911130671415581e-01 -1.8805527850250575e-01 2.1813413161454218e-01
155 1.9911194992530065e-01 -1.8808342919395779e-01 2.1814791520965832e-01
37 1.9911144023230026e-01 -1.8808352778478959e-01 2.1814784883294708e-01
77 1.9911096735455025e-01 -1.8808415247745219e-01 2.1814804092880999e-01
131 1.9911040782821623e-01 -1.8808493255372347e-01 2.1814828693867963e-01
47 1.9946078578284812e-01 -1.8817525692088446e-01 2.1822668026562025e-01
81 1.9936927571409538e-01 -1.8816854233683611e-01 2.1822305581290777e-01
3 2.0498436567255848e-01 -2.0960601811145038e-01 2.3035526433364487e-01
8 2.0498435166359677e-01 -2.0960607857668243e-01 2.3035523050756052e-01
2 2.0498436001126080e-01 -2.0960604254948606e-01 2.3035525066800747e-01
32 2.0498436350597771e-01 -2.0960602746347393e-01 2.3035525910485399e-01
9 2.0498437454325874e-01 -2.0960597981579199e-01 2.3035528573333908e-01
164 2.0499472396709828e-01 -2.0956029787703664e-01 2.3037583429579755e-01
98 2.0850687533462631e-01 -2.0516091756467189e-01 2.2005995035713619e-01
112 2.0850688035491996e-01 -2.0516091584868876e-01 2.2005995004593337e-01
125 2.0850694140208256e-01 -2.0516099825358647e-01 2.2005994023347328e-01
66 2.0850690674041897e-01 -2.0516095613765387e-01 2.2005994553093289e-01
114 2.0850689516922175e-01 -2.0516094186234557e-01 2.2005994731259565e-01
167 2.0850691402225380e-01 -2.0516096513091125e-01 2.2005994440926657e-01