LAMMPS data file via write_data, version 30 Jul 2016, timestep = 50400000

180 atoms
2 atom types

0.0000000000000000e+00 2.0000000000000000e+01 xlo xhi
0.0000000000000000e+00 2.0000000000000000e+01 ylo yhi
0.0000000000000000e+00 2.0000000000000000e+01 zlo zhi

Masses

1 3.896
2 4.31

Atoms # meso-molecular

88 1 2 2.0000000000396811e+00 -2.9734916118688614e+02 1.0000000000000000e+00 2.7935223504488822e+00 1.8344089800736336e+00 1.1295465040956781e+01 
89 1 2 2.0000000000396825e+00 -5.3858226372296917e+02 1.0000000000000000e+00 2.7935225510477029e+00 1.8344096130978411e+00 1.1295465130466560e+01 
28 1 2 2.0000000000396811e+00 -3.0112963807771473e+02 1.0000000000000000e+00 2.7935223661738471e+00 1.8344090296743882e+00 1.1295465047974888e+01 
127 1 2 2.0000000000396798e+00 -3.5833640686537774e+02 1.0000000000000000e+00 2.7935226228184731e+00 1.8344098437568084e+00 1.1295465162231469e+01 
172 1 2 2.0000000000396785e+00 -4.4214487559768486e+02 1.0000000000000000e+00 2.7935230786406868e+00 1.8344116280229197e+00 1.1295465344090152e+01 
27 1 2 2.0000000000396820e+00 -3.0887936506303413e+02 1.0000000000000000e+00 2.7935223648742684e+00 1.8344090255896366e+00 1.1295465047393979e+01 
94 1 2 2.0000000000396803e+00 -5.8282026510343928e+02 1.0000000000000000e+00 2.7935220205850722e+00 1.8344078258384147e+00 1.1295464900815732e+01 
58 1 2 1.9999999999690488e+00 -4.3291549769345642e+02 1.0000000000000000e+00 3.1886380050282725e+00 1.5152478232011959e+00 1.0721984580782330e+01 
23 1 2 1.9999999999604083e+00 -3.7578679297320923e+02 1.0000000000000000e+00 3.2558316789459965e+00 1.6213462200683826e+00 1.0668301182251792e+01 
25 1 2 1.9999999999602054e+00 -7.1163964329045052e+02 1.0000000000000000e+00 3.2634394528818853e+00 1.6323550083445302e+00 1.0667258860585337e+01 
154 1 2 1.9999999999574176e+00 -4.8596606519744159e+02 1.0000000000000000e+00 3.2507576420329150e+00 1.6707756717512579e+00 1.0634787657830254e+01 
97 1 2 1.9999999999857283e+00 -3.3418742857857615e+02 1.0000000000000000e+00 3.1826459944560574e+00 1.9956484461086035e+00 1.0615309760588751e+01 
160 1 2 1.9999999999757869e+00 -5.5741364340205109e+02 1.0000000000000000e+00 3.1915536652559755e+00 1.9825813696129049e+00 1.0612491707049388e+01 
143 1 2 1.9999999999614566e+00 -3.3110848632958994e+02 1.0000000000000000e+00 3.1668375014483079e+00 1.9911654007403310e+00 1.0605529096128205e+01 
92 1 2 1.9999999999672853e+00 -3.3149822363225906e+02 1.0000000000000000e+00 3.2117445795344217e+00 1.9425987598964229e+00 1.0604677774536377e+01 
166 1 2 2.0000005727492192e+00 -4.9581511810357836e+02 1.0000000000000000e+00 1.3288262366442618e+01 3.8885931470021711e+00 2.5515649171725969e+00 
146 1 2 2.0000135640611445e+00 -4.4470977465393565e+02 1.0000000000000000e+00 1.3059180207828955e+01 3.8834043430701461e+00 1.5506054249621890e+00 
82 1 2 1.9999849032014843e+00 -4.5394405078691597e+02 1.0000000000000000e+00 1.1468983353065092e+01 4.7940160243631373e+00 7.8626550109482385e-01 
65 1 2 1.9999845461843384e+00 -5.3914263071095013e+02 1.0000000000000000e+00 1.1465667099012405e+01 4.7983134203219473e+00 7.8493572800228650e-01 
73 1 2 1.9999844971501322e+00 -5.6418944853417065e+02 1.0000000000000000e+00 1.1465200972688773e+01 4.7988762559126839e+00 7.8479826926550689e-01 
161 1 2 1.9999840674209128e+00 -3.7351192753513448e+02 1.0000000000000000e+00 1.1461331001405448e+01 4.8043817335837273e+00 7.8280393379966418e-01 
72 1 2 1.9999840682375398e+00 -4.4968162633913568e+02 1.0000000000000000e+00 1.1461338369048116e+01 4.8043712684989499e+00 7.8280762409472671e-01 
55 1 2 1.9999805047018047e+00 -6.7802757064441403e+02 1.0000000000000000e+00 1.1425430814399698e+01 4.8421866753904412e+00 7.8160025178701331e-01 
54 1 2 1.9999805040332779e+00 -5.2552630643957707e+02 1.0000000000000000e+00 1.1425423922155051e+01 4.8421938714667920e+00 7.8160060708568058e-01 
24 1 2 1.9999805043859951e+00 -5.6277890656123509e+02 1.0000000000000000e+00 1.1425427558177512e+01 4.8421900752101976e+00 7.8160041956757476e-01 
60 1 2 1.9999805041342189e+00 -6.0639086613618747e+02 1.0000000000000000e+00 1.1425424963048856e+01 4.8421927844936263e+00 7.8160055361029346e-01 
96 1 2 1.9999805042024223e+00 -6.0957401027951039e+02 1.0000000000000000e+00 1.1425425666338100e+01 4.8421920504165188e+00 7.8160051713051926e-01 
36 1 2 1.9999821275073117e+00 -4.5472790142108511e+02 1.0000000000000000e+00 1.1441965897700211e+01 4.8248390318978025e+00 7.8141732802169106e-01 
67 1 2 1.9999836647980775e+00 -4.5338742500706519e+02 1.0000000000000000e+00 1.1457972238863400e+01 4.8103223238893831e+00 7.7992570106893522e-01 
136 1 2 2.0000001374566296e+00 -5.0074407251605169e+02 1.0000000000000000e+00 1.3262784657061369e+01 6.4697106647827187e+00 2.2137648322214418e+00 
78 1 2 1.9999948334598145e+00 -3.6208694267896863e+02 1.0000000000000000e+00 9.5875980482392507e+00 7.4083481520602561e+00 2.8053206283292367e+00 
110 1 2 1.9999962396176327e+00 -5.6234232890218766e+02 1.0000000000000000e+00 9.3707193592466727e+00 7.6224388528705163e+00 2.6995107100603302e+00 
134 1 2 1.9999963191196215e+00 -3.8410120699415080e+02 1.0000000000000000e+00 9.3682086071460322e+00 7.6241513451306906e+00 2.6958399939649720e+00 
91 1 2 1.9999965858534194e+00 -3.6516589913322991e+02 1.0000000000000000e+00 9.3634213945689684e+00 7.6338041228979572e+00 2.6917740978227180e+00 
162 1 2 1.9999965911209905e+00 -5.8127723875343986e+02 1.0000000000000000e+00 9.3633222938608487e+00 7.6339785050620383e+00 2.6916730754262432e+00 
147 1 2 1.9999966020717888e+00 -3.9871112953460721e+02 1.0000000000000000e+00 9.3631168585473432e+00 7.6343405922640040e+00 2.6914634085073517e+00 
69 1 2 1.9999966473325232e+00 -4.6659668471141595e+02 1.0000000000000000e+00 9.3622748475388704e+00 7.6358295164841046e+00 2.6905987947555721e+00 
133 1 2 1.9999960504520471e+00 -4.7811391398100238e+02 1.0000000000000000e+00 9.3511191020472388e+00 7.5661201202507966e+00 2.6217977869799411e+00 
175 1 2 1.9999960512521038e+00 -4.1926598918990032e+02 1.0000000000000000e+00 9.3511047036368211e+00 7.5661518083214307e+00 2.6217885312724909e+00 
170 1 2 1.9999961518865459e+00 -4.1787591272838267e+02 1.0000000000000000e+00 9.3493262313728405e+00 7.5701172140979160e+00 2.6206461694128520e+00 
169 1 2 1.9999961517581366e+00 -4.1382799654299595e+02 1.0000000000000000e+00 9.3493284623942579e+00 7.5701121842435297e+00 2.6206476093536484e+00 
144 1 2 1.9999485305802653e+00 -6.4953778343763429e+02 1.0000000000000000e+00 1.1519985226589572e+01 9.3956244989308484e+00 2.6919129726469504e+00 
75 1 2 1.9999485675254354e+00 -4.9736016708859995e+02 1.0000000000000000e+00 1.1519941243270299e+01 9.3955258116287190e+00 2.6920084453548752e+00 
64 1 2 1.9999489972731279e+00 -3.2619975744657188e+02 1.0000000000000000e+00 1.1519240430108548e+01 9.3945428589502793e+00 2.6931245464749245e+00 
70 1 2 1.9999499252627049e+00 -3.5951879732470297e+02 1.0000000000000000e+00 1.1516748366551013e+01 9.3932650668232611e+00 2.6955702741845506e+00 
149 1 2 1.9999480314968492e+00 -6.1624475577193402e+02 1.0000000000000000e+00 1.1520288299995395e+01 9.3972135084438690e+00 2.6906300612783260e+00 
1 1 2 2.0000253469474907e+00 -6.6002334801483971e+02 1.0000000000000000e+00 1.1148083268958949e+01 7.3658893306739248e+00 1.4194339349484313e+00 
19 1 2 2.0000253356345143e+00 -5.9629935835292190e+02 1.0000000000000000e+00 1.1148155597957963e+01 7.3658019154024714e+00 1.4194240093596444e+00 
40 1 2 1.9999476285165028e+00 -5.2722897589075080e+02 1.0000000000000000e+00 1.1519272070763954e+01 9.3996240141685536e+00 2.6896187776626452e+00 
142 1 2 1.9999477727238211e+00 -4.6921487859494783e+02 1.0000000000000000e+00 1.1520057943227904e+01 9.3983820477416167e+00 2.6899726172267817e+00 
180 1 2 1.9999480299997374e+00 -6.2770404559506562e+02 1.0000000000000000e+00 1.1520288121980951e+01 9.3972192368863894e+00 2.6906262359860107e+00 
29 1 2 1.9999551539974822e+00 -3.6303544303846490e+02 1.0000000000000000e+00 1.1476865548065144e+01 9.4081109991052116e+00 2.7106942633005069e+00 
123 1 2 2.0000356985123515e+00 -1.7973120383289006e+02 1.0000000000000000e+00 1.0355624596149404e+01 7.6519870960509548e+00 1.4745736897236374e+00 
119 1 2 1.9992965966758238e+00 -4.0538656135265711e+02 1.0000000000000000e+00 1.2840055933731474e+01 9.5401987730783038e+00 2.2087556245672415e+00 
62 1 2 2.0000224848512653e+00 -4.8048958483826351e+02 1.0000000000000000e+00 1.0596075023998662e+01 7.3809583200661351e+00 1.4488810746192147e+00 
33 1 2 2.0001475448753139e+00 -3.5149364441749981e+02 1.0000000000000000e+00 1.3212427830015129e+01 9.1389485966748492e+00 1.9685488518720349e+00 
122 1 2 2.0001475509078990e+00 -4.1796270772207731e+02 1.0000000000000000e+00 1.3212476429435577e+01 9.1389643129493265e+00 1.9685382692132332e+00 
31 1 2 2.0001474053826498e+00 -6.5267139564247793e+02 1.0000000000000000e+00 1.3212514267608558e+01 9.1391095264310582e+00 1.9683874440488507e+00 
100 1 2 2.0000152329871290e+00 -4.9492014501961415e+02 1.0000000000000000e+00 1.1091680587004346e+01 7.2944477182375875e+00 1.4101594062737821e+00 
42 1 2 2.0000253488591451e+00 -5.2878355702333681e+02 1.0000000000000000e+00 1.1148070830175620e+01 7.3659041105690077e+00 1.4194356079891672e+00 
30 1 2 2.0000253356339188e+00 -4.7112268873690118e+02 1.0000000000000000e+00 1.1148155602105868e+01 7.3658019103618244e+00 1.4194240087867651e+00 
15 1 2 2.0000331433367009e+00 -4.2536049943274958e+02 1.0000000000000000e+00 9.6179869093990078e+00 1.0803843007710331e+01 2.2494357947123444e+00 
10 1 2 2.0000331433371441e+00 -4.1808162854121571e+02 1.0000000000000000e+00 9.6179869095368264e+00 1.0803843007320271e+01 2.2494357946929897e+00 
16 1 2 2.0000331433363399e+00 -4.0424001351528210e+02 1.0000000000000000e+00 9.6179869092844132e+00 1.0803843008034802e+01 2.2494357947284942e+00 
52 1 2 2.0000331433365655e+00 -4.0076751667773812e+02 1.0000000000000000e+00 9.6179869093547250e+00 1.0803843007835763e+01 2.2494357947186234e+00 
176 1 2 1.9999283549925244e+00 -5.7798781480825483e+02 1.0000000000000000e+00 9.2911566292355037e+00 1.1205539480838107e+01 2.2401536530883255e+00 
53 1 2 1.9999283667138601e+00 -4.7686041972717800e+02 1.0000000000000000e+00 9.2911167738228659e+00 1.1205578953663293e+01 2.2401320088435033e+00 
178 1 2 1.9999283549925368e+00 -3.4589994255211320e+02 1.0000000000000000e+00 9.2911566292053926e+00 1.1205539480867923e+01 2.2401536530721335e+00 
140 1 2 1.9999283549925890e+00 -4.1644634587097067e+02 1.0000000000000000e+00 9.2911566290650427e+00 1.1205539481006969e+01 2.2401536529961144e+00 
177 1 2 1.9999283549926965e+00 -5.4885332823991178e+02 1.0000000000000000e+00 9.2911566287150311e+00 1.1205539481353600e+01 2.2401536528062369e+00 
141 1 2 1.9999283549932019e+00 -5.5738978212835912e+02 1.0000000000000000e+00 9.2911566269242556e+00 1.1205539483126403e+01 2.2401536518360587e+00 
76 1 2 1.9999284317050003e+00 -3.9999286514659912e+02 1.0000000000000000e+00 9.2908957034281325e+00 1.1205797883158020e+01 2.2400120976899887e+00 
179 1 2 1.9999284508405968e+00 -3.7921153584366039e+02 1.0000000000000000e+00 9.2908304331268710e+00 1.1205862583910196e+01 2.2399764656103360e+00 
80 1 2 2.0000015636378623e+00 -4.0086241847221538e+02 1.0000000000000000e+00 8.6894336187381018e+00 1.2056443698552661e+01 2.4885591007390340e+00 
107 1 2 1.9999318222533815e+00 -3.6498231026858849e+02 1.0000000000000000e+00 8.1916832802215325e+00 1.2934501630662334e+01 5.7410063952347201e-01 
105 1 2 1.9999811934153382e+00 -3.9626005735818183e+02 1.0000000000000000e+00 7.7632189602717609e+00 1.3176892499025811e+01 1.1496945750550784e-01 
47 1 2 2.0000200158934125e+00 -4.8793530263367967e+02 1.0000000000000000e+00 8.5100256214033205e+00 1.3901060020798461e+01 2.3764948970474595e+00 
155 1 2 2.0000172403220264e+00 -4.3019799422366304e+02 1.0000000000000000e+00 8.4281860846648691e+00 1.3919274737877920e+01 2.3567427261236844e+00 
45 1 2 2.0000171843082759e+00 -4.0204732753289670e+02 1.0000000000000000e+00 8.4288155843864363e+00 1.3923875088599786e+01 2.3516360324289196e+00 
148 1 2 2.0000172119032973e+00 -3.1043655124670431e+02 1.0000000000000000e+00 8.4293161781447097e+00 1.3923441451732327e+01 2.3521876946121920e+00 
111 1 2 2.0000172160951779e+00 -5.0999354125789745e+02 1.0000000000000000e+00 8.4296170211724046e+00 1.3923852715981317e+01 2.3517553599342969e+00 
121 1 2 2.0000173011623672e+00 -4.2908206249015757e+02 1.0000000000000000e+00 8.4310071440586860e+00 1.3922164559122615e+01 2.3538283483543649e+00 
26 1 2 2.0000173569954689e+00 -5.5514434536221643e+02 1.0000000000000000e+00 8.4316698576841169e+00 1.3920477524784154e+01 2.3558039089233449e+00 
46 1 2 2.0000174187900965e+00 -5.0941814814227553e+02 1.0000000000000000e+00 8.4323220986497045e+00 1.3918363181356197e+01 2.3582423990058787e+00 
81 1 2 2.0000194929099435e+00 -4.0234212567514328e+02 1.0000000000000000e+00 8.4880950519264768e+00 1.3902848149095268e+01 2.3766717938072595e+00 
131 1 2 2.0000172275983243e+00 -5.7637637172721554e+02 1.0000000000000000e+00 8.4277715337514678e+00 1.3919045238975423e+01 2.3569473514980710e+00 
77 1 2 2.0000172318478255e+00 -3.0707186821201458e+02 1.0000000000000000e+00 8.4279285763744625e+00 1.3919166858456473e+01 2.3568312535354621e+00 
37 1 2 2.0000172354826784e+00 -4.6930944771152559e+02 1.0000000000000000e+00 8.4280602857165388e+00 1.3919263988252336e+01 2.3567391908234074e+00 
129 1 2 1.9999826766614441e+00 -1.3837566362314067e+02 1.0000000000000000e+00 7.9238559707497194e+00 1.3107308757523745e+01 1.9913176264679965e+01 
56 1 2 1.9999904653886782e+00 -4.6093530554208849e+02 1.0000000000000000e+00 7.7109809489959913e+00 1.3259979685180703e+01 1.9731919164387879e+01 
5 1 2 1.9999951211275331e+00 -4.9894427490646041e+02 1.0000000000000000e+00 1.0533497867112612e+01 1.1713704468310546e+01 1.7464111438058168e+01 
3 1 2 1.9999970682392478e+00 -4.4594215047991395e+02 1.0000000000000000e+00 1.0595206120416698e+01 1.1425744830767378e+01 1.7356765483903729e+01 
9 1 2 1.9999970682472690e+00 -4.2971810856562740e+02 1.0000000000000000e+00 1.0595204013861341e+01 1.1425750900689446e+01 1.7356765234788476e+01 
32 1 2 1.9999970682373223e+00 -4.8011053214619540e+02 1.0000000000000000e+00 1.0595206635033829e+01 1.1425743348805366e+01 1.7356765544187446e+01 
2 1 2 1.9999970682341126e+00 -5.3352978151288903e+02 1.0000000000000000e+00 1.0595207465350015e+01 1.1425740958452494e+01 1.7356765640969623e+01 
8 1 2 1.9999970682267296e+00 -4.9036125529848567e+02 1.0000000000000000e+00 1.0595209448989552e+01 1.1425735251521852e+01 1.7356765869792920e+01 
164 1 2 1.9999970861291390e+00 -2.9525789668143022e+02 1.0000000000000000e+00 1.0593050550072837e+01 1.1433662254189414e+01 1.7355462661501033e+01 
138 1 2 2.0000039752364409e+00 -6.0179641964480493e+02 1.0000000000000000e+00 1.0978438217204255e+01 1.2047503115797669e+01 1.7456977753838125e+01 
168 1 2 2.0000039739613520e+00 -5.7361702396115822e+02 1.0000000000000000e+00 1.0978353864956961e+01 1.2047512612287941e+01 1.7457016199782004e+01 
132 1 2 2.0000039737640178e+00 -5.8544088593840911e+02 1.0000000000000000e+00 1.0978341179977432e+01 1.2047514282703736e+01 1.7457022958998273e+01 
174 1 2 2.0000039751479459e+00 -5.8491561322188750e+02 1.0000000000000000e+00 1.0978432250647870e+01 1.2047503715027483e+01 1.7456980180456735e+01 
165 1 2 2.0000040339116816e+00 -2.2736524282034463e+02 1.0000000000000000e+00 1.0987173820587243e+01 1.2049571146720776e+01 1.7465772489395725e+01 
85 1 2 2.0000019608917494e+00 -3.2820255780271617e+02 1.0000000000000000e+00 1.0959063660854309e+01 1.2052900509262923e+01 1.7663604269777100e+01 
95 1 2 2.0000023749142577e+00 -5.5931917291100774e+02 1.0000000000000000e+00 1.1008397208772990e+01 1.2041119609438791e+01 1.7730398874100523e+01 
7 1 2 1.9999973172673386e+00 -6.1299993033748046e+02 1.0000000000000000e+00 1.2770738494770715e+01 1.0086224667292559e+01 1.8619246853981760e+01 
98 1 2 1.9999973193588709e+00 -2.2512475191144412e+02 1.0000000000000000e+00 1.2770630435202888e+01 1.0086160200384887e+01 1.8619356645288594e+01 
13 1 2 1.9999973166820941e+00 -4.8038950672270818e+02 1.0000000000000000e+00 1.2770674080796718e+01 1.0086206129046461e+01 1.8619349519870127e+01 
12 1 2 1.9999973166820459e+00 -5.5295958230048132e+02 1.0000000000000000e+00 1.2770674081493469e+01 1.0086206129618001e+01 1.8619349519454083e+01 
34 1 2 1.9999973174104460e+00 -3.8950081117905262e+02 1.0000000000000000e+00 1.2770662460640361e+01 1.0086193728696593e+01 1.8619351098695400e+01 
18 1 2 1.9999973166820955e+00 -4.8744816711895589e+02 1.0000000000000000e+00 1.2770674080226291e+01 1.0086206128784998e+01 1.8619349520596824e+01 
93 1 2 1.9999973197138374e+00 -3.2733389982881988e+02 1.0000000000000000e+00 1.2770625005563820e+01 1.0086154249349455e+01 1.8619357085109151e+01 
112 1 2 1.9999973206684982e+00 -3.3242534136205757e+02 1.0000000000000000e+00 1.2770605055739832e+01 1.0086136185930027e+01 1.8619365804253409e+01 
167 1 2 1.9999973199739425e+00 -3.6312948404976851e+02 1.0000000000000000e+00 1.2770621131754870e+01 1.0086149929012024e+01 1.8619357259158775e+01 
114 1 2 1.9999973196876364e+00 -4.9118950983068726e+02 1.0000000000000000e+00 1.2770625400551658e+01 1.0086154685679071e+01 1.8619357059514826e+01 
66 1 2 1.9999973198643008e+00 -5.1369989799977293e+02 1.0000000000000000e+00 1.2770622763873439e+01 1.0086151750569110e+01 1.8619357188310545e+01 
125 1 2 1.9999973204958637e+00 -4.7061474334167451e+02 1.0000000000000000e+00 1.2770612844982066e+01 1.0086141062847247e+01 1.8619358333004342e+01 
22 1 2 1.9999908084729627e+00 -4.1642524401018909e+02 1.0000000000000000e+00 1.2735536502010266e+01 1.0185526571215878e+01 1.8748935503680002e+01 
20 1 2 2.0000061089783481e+00 -3.5729116497378823e+02 1.0000000000000000e+00 8.4191201244355582e+00 1.3975076659050114e+01 1.9600575386458111e+01 
128 1 2 1.9999893138451261e+00 -2.9229356356666472e+02 1.0000000000000000e+00 7.5559990946181390e+00 1.3582212558311435e+01 1.9636033358361281e+01 
152 1 2 2.0000057375497398e+00 -4.3808599024451354e+02 1.0000000000000000e+00 8.1277535409603505e+00 1.3861218006827867e+01 1.9233826768608147e+01 
68 1 2 2.0000071574085827e+00 -4.1038306762427288e+02 1.0000000000000000e+00 8.2233685949599309e+00 1.3865115955762931e+01 1.9277983269433037e+01 
150 1 2 2.0000043115331039e+00 -6.0204908394671918e+02 1.0000000000000000e+00 8.0437746703471813e+00 1.3800916601584797e+01 1.9191614849230529e+01 
139 1 2 2.0000041004414886e+00 -4.4540952144402434e+02 1.0000000000000000e+00 8.0372281990387950e+00 1.3801686134189985e+01 1.9191557258557456e+01 
21 1 2 2.0000038119250942e+00 -4.5803147319605944e+02 1.0000000000000000e+00 8.0282665160148721e+00 1.3801847480363682e+01 1.9191333786627670e+01 
57 1 2 2.0000035766849171e+00 -4.4205930290300762e+02 1.0000000000000000e+00 8.0210172583316801e+00 1.3801521234790400e+01 1.9191139165202006e+01 
51 1 2 2.0000035407441596e+00 -4.5469397157748693e+02 1.0000000000000000e+00 8.0199367971065953e+00 1.3801507158912182e+01 1.9191134697218061e+01 
50 1 2 2.0000035354068433e+00 -4.8302306819679029e+02 1.0000000000000000e+00 8.0197715656403759e+00 1.3801489958556244e+01 1.9191128753747517e+01 
14 1 2 2.0000000293485507e+00 -3.5471626258560815e+02 1.0000000000000000e+00 7.9121250178934606e+00 1.3757456455745025e+01 1.9193001008239460e+01 
49 1 2 1.9999982807234213e+00 -4.7277734356375169e+02 1.0000000000000000e+00 1.4304976621312461e+01 3.7957357836899925e+00 2.3290883205854720e+00 
87 1 2 2.0000005474655884e+00 -3.2060108305009823e+02 1.0000000000000000e+00 1.4268655321569945e+01 3.7546274260542125e+00 2.2356516309341115e+00 
157 1 2 2.0000005298428123e+00 -5.7823369781448559e+02 1.0000000000000000e+00 1.4268349630551604e+01 3.7541422955938355e+00 2.2364394745724194e+00 
115 1 2 2.0000005394316012e+00 -4.0980757723047259e+02 1.0000000000000000e+00 1.4267318292756135e+01 3.7530215611861233e+00 2.2361690645815182e+00 
79 1 2 2.0000005487834218e+00 -4.4157478600107913e+02 1.0000000000000000e+00 1.4266528393777065e+01 3.7521820147369502e+00 2.2358777370686873e+00 
116 1 2 2.0000011472066288e+00 -2.5051944232183831e+02 1.0000000000000000e+00 1.4240322409470432e+01 3.7286901306018745e+00 2.2142201854475232e+00 
99 1 2 2.0000013275220994e+00 -3.8954642126779032e+02 1.0000000000000000e+00 1.4233800359231887e+01 3.7237912738303272e+00 2.2074889679558867e+00 
74 1 2 1.9999931853195132e+00 -5.4219874973382389e+02 1.0000000000000000e+00 1.4226768485724312e+01 3.8949601229363200e+00 2.6270500132283052e+00 
159 1 2 2.0000029511150381e+00 -2.9451208873721015e+02 1.0000000000000000e+00 1.4138471701690179e+01 3.6630535087431109e+00 2.1514588424812575e+00 
102 1 2 1.9999928428989111e+00 -4.4720352914924024e+02 1.0000000000000000e+00 1.4118410037043246e+01 3.8653461982295618e+00 2.6869552254183504e+00 
158 1 2 1.9999957655732619e+00 -3.1101239253239885e+02 1.0000000000000000e+00 1.3705887252561665e+01 3.8793146319121261e+00 2.7445850648113437e+00 
4 1 2 1.9999978584667626e+00 -4.2588284466040034e+02 1.0000000000000000e+00 1.3590976917949764e+01 3.7809786156209473e+00 2.6306568669009613e+00 
137 1 2 2.0000063845678944e+00 -4.2647806503215986e+02 1.0000000000000000e+00 1.3376586073498128e+01 6.3918700646285078e+00 2.1831581635397006e+00 
108 1 2 2.0000062006989103e+00 -4.5328476494067087e+02 1.0000000000000000e+00 1.3375796628154564e+01 6.3898976841525466e+00 2.1882577563237349e+00 
106 1 2 2.0000062292462917e+00 -4.5647669607481487e+02 1.0000000000000000e+00 1.3375797630013789e+01 6.3904009921254312e+00 2.1873083054934059e+00 
101 1 2 2.0000062903005791e+00 -4.3618817191257955e+02 1.0000000000000000e+00 1.3374134812683113e+01 6.3940406369007006e+00 2.1831948329115303e+00 
156 1 2 2.0000065912294063e+00 -5.6629898638623877e+02 1.0000000000000000e+00 1.3370512135146665e+01 6.4043378246741618e+00 2.1691422889597520e+00 
151 1 2 2.0000065912566862e+00 -4.4451440181473419e+02 1.0000000000000000e+00 1.3370511686877030e+01 6.4043388995420383e+00 2.1691409020324941e+00 
145 1 2 2.0000065912550800e+00 -4.2737281375889637e+02 1.0000000000000000e+00 1.3370511713253929e+01 6.4043388362095550e+00 2.1691409838189109e+00 
109 1 2 2.0000065912534470e+00 -4.5824590874106428e+02 1.0000000000000000e+00 1.3370511739364201e+01 6.4043387733806281e+00 2.1691410650617606e+00 
83 1 2 2.0000067211108825e+00 -4.5911968600403617e+02 1.0000000000000000e+00 1.3365879243573280e+01 6.4129732238746078e+00 2.1597427032181087e+00 
113 1 2 2.0000067224431870e+00 -3.7840045150014311e+02 1.0000000000000000e+00 1.3365815328501867e+01 6.4130836952709673e+00 2.1596290847351596e+00 
86 1 2 1.9999146568442596e+00 -2.6767058383950575e+02 1.0000000000000000e+00 1.4856971955003358e+01 9.7811154207786402e+00 1.7714884412447425e+00 
163 1 2 1.9998887283849607e+00 -3.4817778659502500e+02 1.0000000000000000e+00 1.4788684194839140e+01 9.9337851376323574e+00 1.5462102442117296e+00 
44 1 2 2.0000080632806148e+00 -4.8747716934999329e+02 1.0000000000000000e+00 1.8549423790078311e+01 9.3360840142301509e+00 5.5256608771393911e-01 
17 1 2 2.0000029010945863e+00 -4.1209752799557606e+02 1.0000000000000000e+00 1.8306845447186465e+01 9.2635910512634272e+00 5.1043190165945751e-01 
38 1 2 2.0000276514689479e+00 -5.5121373476403915e+02 1.0000000000000000e+00 1.8818230207187714e+01 9.5504996201944277e+00 7.2815696573761546e-01 
63 1 2 2.0000475166589884e+00 -4.8078818037239279e+02 1.0000000000000000e+00 1.8875847306618208e+01 9.7704792055702541e+00 9.0560224003888723e-01 
104 1 2 1.9998850882641117e+00 -5.7220115764299544e+02 1.0000000000000000e+00 1.7236018007894415e+01 9.7846514602087300e+00 1.1072688436769849e+00 
41 1 2 1.9998850692777239e+00 -4.9428726866602796e+02 1.0000000000000000e+00 1.7235288255124338e+01 9.7857949724137647e+00 1.1032078547644488e+00 
90 1 2 1.9998849544183732e+00 -4.2932531945928315e+02 1.0000000000000000e+00 1.7235135465110851e+01 9.7879137844536253e+00 1.1022962993746372e+00 
126 1 2 1.9998849544803816e+00 -5.6012765862600099e+02 1.0000000000000000e+00 1.7235135608823938e+01 9.7879124686893260e+00 1.1022971839854403e+00 
120 1 2 1.9998849543740540e+00 -4.2552836971237230e+02 1.0000000000000000e+00 1.7235135361964868e+01 9.7879147290885058e+00 1.1022956644309880e+00 
84 1 2 1.9998849543763455e+00 -5.1760114592589002e+02 1.0000000000000000e+00 1.7235135367827841e+01 9.7879146754048243e+00 1.1022957005261633e+00 
124 1 2 2.0000523029731525e+00 -4.4365147952036523e+02 1.0000000000000000e+00 1.8865057864668696e+01 9.7907962973707825e+00 1.0127885467716309e+00 
43 1 2 2.0000523003811859e+00 -5.4336188887524668e+02 1.0000000000000000e+00 1.8865072676784944e+01 9.7907825746454016e+00 1.0127140082832962e+00 
11 1 2 2.0000523094796860e+00 -4.9445259740094320e+02 1.0000000000000000e+00 1.8865020606993880e+01 9.7908307535228118e+00 1.0129758180520236e+00 
117 1 2 2.0000523110517410e+00 -3.5665026235511067e+02 1.0000000000000000e+00 1.8865011590161998e+01 9.7908390794929314e+00 1.0130210928790457e+00 
130 1 2 2.0000523096496927e+00 -5.3992008248848674e+02 1.0000000000000000e+00 1.8865019633091485e+01 9.7908316519478813e+00 1.0129807097452661e+00 
59 1 2 2.0000523188920560e+00 -3.6870655572378803e+02 1.0000000000000000e+00 1.8864966516794702e+01 9.7908806628866980e+00 1.0132471136081456e+00 
118 1 2 2.0000120357609026e+00 -3.6643455742574207e+02 1.0000000000000000e+00 1.8067995111447097e+01 9.9277632876664015e+00 3.2666939356841190e-01 
61 1 2 1.9999161142401847e+00 -5.8340585403236980e+02 1.0000000000000000e+00 1.7278851693570601e+01 9.9594432533654587e+00 1.0719268861306273e+00 
173 1 2 1.9998729750844491e+00 -4.4899482660389953e+02 1.0000000000000000e+00 1.4795728501192096e+01 1.0058487453738197e+01 1.5761875379439179e+00 
6 1 2 1.9998730677512688e+00 -5.5638835097306617e+02 1.0000000000000000e+00 1.4795648382274855e+01 1.0059109224086821e+01 1.5764883742022402e+00 
103 1 2 1.9998733738864520e+00 -4.3909553600166811e+02 1.0000000000000000e+00 1.4795398011600922e+01 1.0061234563372446e+01 1.5775504205459439e+00 
35 1 2 1.9998736505311485e+00 -3.6941886908931946e+02 1.0000000000000000e+00 1.4795204110489266e+01 1.0063367185485840e+01 1.5786819782293362e+00 
135 1 2 2.0000037200210685e+00 -2.6693862514674009e+02 1.0000000000000000e+00 1.4571786595858351e+01 1.0173646399218377e+01 2.0453229951555412e+00 
171 1 2 2.0000136321645106e+00 -2.5026963268689840e+02 1.0000000000000000e+00 1.4402602800127360e+01 1.0222321398695362e+01 2.0519583324793875e+00 
48 1 2 2.0000136413298808e+00 -6.6538989515257572e+02 1.0000000000000000e+00 1.4402199099927117e+01 1.0222319916694733e+01 2.0520853560967733e+00 
39 1 2 2.0000136708618301e+00 -5.0177170239153696e+02 1.0000000000000000e+00 1.4401453989268093e+01 1.0222074839942296e+01 2.0527079506019521e+00 
153 1 2 2.0000139071595058e+00 -4.5209088245902007e+02 1.0000000000000000e+00 1.4393525316568377e+01 1.0220369718080963e+01 2.0578025731878675e+00 
71 1 2 2.0000139281927942e+00 -4.3577914980419644e+02 1.0000000000000000e+00 1.4393217413311486e+01 1.0220037583706214e+01 2.0584142829445797e+00 

Velocities

88 2.9274911500276085e-01 -2.2173362181183695e-01 2.5841535411792704e-01
89 2.9274911500275963e-01 -2.2173362181183279e-01 2.5841535411793176e-01
28 2.9274911500276130e-01 -2.2173362181183684e-01 2.5841535411792549e-01
127 2.9274911500276024e-01 -2.2173362181183184e-01 2.5841535411793115e-01
172 2.9274911500275830e-01 -2.2173362181182377e-01 2.5841535411793937e-01
27 2.9274911500275796e-01 -2.2173362181183670e-01 2.5841535411793026e-01
94 2.9274911500275780e-01 -2.2173362181184209e-01 2.5841535411793004e-01
58 2.9274911535973391e-01 -2.2173362122484272e-01 2.5841535348245381e-01
23 2.9274911507300855e-01 -2.2173362133618238e-01 2.5841535374152264e-01
25 2.9274911503560236e-01 -2.2173362135667729e-01 2.5841535375836550e-01
154 2.9274911504307144e-01 -2.2173362144413486e-01 2.5841535390001108e-01
97 2.9274911525803271e-01 -2.2173362242934033e-01 2.5841535394414755e-01
160 2.9274911521698421e-01 -2.2173362240399372e-01 2.5841535397804138e-01
143 2.9274911532857434e-01 -2.2173362238813427e-01 2.5841535393303650e-01
92 2.9274911512417673e-01 -2.2173362229899593e-01 2.5841535405235155e-01
166 2.0935046506247784e-01 -1.9821685473963441e-01 2.4598513566103453e-01
146 2.0871055559062709e-01 -1.9843037547249873e-01 2.4505595515577597e-01
82 2.1163921956258155e-01 -1.9616867793706588e-01 2.4581315540557477e-01
65 2.1166338173557186e-01 -1.9617285962687961e-01 2.4582481625858174e-01
73 2.1166677660786151e-01 -1.9617334705586356e-01 2.4582624304388476e-01
161 2.1169548399539340e-01 -1.9618035570324299e-01 2.4584191735171076e-01
72 2.1169542909995137e-01 -1.9618034185891006e-01 2.4584188786583988e-01
55 2.1196956991723359e-01 -1.9621862329592149e-01 2.4590724726951815e-01
54 2.1196962476855088e-01 -1.9621863294556854e-01 2.4590725618380249e-01
24 2.1196959583177971e-01 -1.9621862785475766e-01 2.4590725148172207e-01
60 2.1196961648459445e-01 -1.9621863148742330e-01 2.4590725483667325e-01
96 2.1196961088770166e-01 -1.9621863050347624e-01 2.4590725392828602e-01
36 2.1184038462910529e-01 -1.9619787190033264e-01 2.4588155831850800e-01
67 2.1172107658358325e-01 -1.9619079644801651e-01 2.4586077732779554e-01
136 2.1069841686694418e-01 -1.9820121388657691e-01 2.4313532344594374e-01
78 2.1238602685976035e-01 -1.8597864026580380e-01 2.3725853182659129e-01
110 2.1244866852905325e-01 -1.8599705669325484e-01 2.3716168758694739e-01
134 2.1244367431402300e-01 -1.8599928286142925e-01 2.3716523354659755e-01
91 2.1244065979627605e-01 -1.8599841707843420e-01 2.3716054017896721e-01
162 2.1244055514831992e-01 -1.8599841725704361e-01 2.3716049223757704e-01
147 2.1244033713895363e-01 -1.8599841684571045e-01 2.3716039209423692e-01
69 2.1243942410655717e-01 -1.8599840660136382e-01 2.3715997692324714e-01
133 2.1231058026933844e-01 -1.8608196287155790e-01 2.3733109195497124e-01
175 2.1231057322188909e-01 -1.8608196030511825e-01 2.3733106705602725e-01
170 2.1230967275842133e-01 -1.8608159166294030e-01 2.3732790786698943e-01
169 2.1230967394116457e-01 -1.8608159218075299e-01 2.3732791191499777e-01
144 2.1626645075492357e-01 -1.9075993342619180e-01 2.2316997932894406e-01