LAMMPS data file via write_data, version 30 Jul 2016, timestep = 600000

2080 atoms
8 atom types

0.0000000000000000e+00 4.0000000000000000e+01 xlo xhi
0.0000000000000000e+00 4.0000000000000000e+01 ylo yhi
0.0000000000000000e+00 1.0000000000000000e+02 zlo zhi

Masses

1 3.896
2 16.08
3 1058.08
4 8.378
5 8.378
6 8.378
7 8.378
8 8.378

Atoms # meso-molecular

1 2 4 2.2559723595316457e+00 3.0347909298710125e+01 4.2000000000000000e+03 0.0000000000000000e+00 0.0000000000000000e+00 2.5000000000000000e+00 
2 2 4 2.2559723595316457e+00 -6.1811868433477514e+02 4.2000000000000000e+03 0.0000000000000000e+00 2.0000000000000000e+00 2.5000000000000000e+00 
21 2 4 2.2559723595316457e+00 1.1638696258123915e+02 4.2000000000000000e+03 2.0000000000000000e+00 0.0000000000000000e+00 2.5000000000000000e+00 
22 2 4 2.2559723595316457e+00 1.2211349770288004e+02 4.2000000000000000e+03 2.0000000000000000e+00 2.0000000000000000e+00 2.5000000000000000e+00 
41 2 4 2.2559723595316457e+00 -3.4453869187512828e+02 4.2000000000000000e+03 4.0000000000000000e+00 0.0000000000000000e+00 2.5000000000000000e+00 
42 2 4 2.2559723595316457e+00 2.0045046222718679e+02 4.2000000000000000e+03 4.0000000000000000e+00 2.0000000000000000e+00 2.5000000000000000e+00 
61 2 4 2.2559723595316457e+00 -1.2177824773718520e+02 4.2000000000000000e+03 6.0000000000000000e+00 0.0000000000000000e+00 2.5000000000000000e+00 
62 2 4 2.2559723595316457e+00 7.8634389585406694e+01 4.2000000000000000e+03 6.0000000000000000e+00 2.0000000000000000e+00 2.5000000000000000e+00 
81 2 4 2.2559723595316457e+00 1.4312510140164386e+02 4.2000000000000000e+03 8.0000000000000000e+00 0.0000000000000000e+00 2.5000000000000000e+00 
82 2 4 2.2559723595316457e+00 1.9907697494016861e+02 4.2000000000000000e+03 8.0000000000000000e+00 2.0000000000000000e+00 2.5000000000000000e+00 
101 2 4 2.2559723595316457e+00 1.1723053274822662e+02 4.2000000000000000e+03 1.0000000000000000e+01 0.0000000000000000e+00 2.5000000000000000e+00 
102 2 4 2.2559723595316457e+00 4.9044797919884581e+02 4.2000000000000000e+03 1.0000000000000000e+01 2.0000000000000000e+00 2.5000000000000000e+00 
121 2 4 2.2559723595316457e+00 -4.5927524881107126e+02 4.2000000000000000e+03 1.2000000000000000e+01 0.0000000000000000e+00 2.5000000000000000e+00 
122 2 4 2.2559723595316457e+00 5.7286625995000054e+02 4.2000000000000000e+03 1.2000000000000000e+01 2.0000000000000000e+00 2.5000000000000000e+00 
141 2 4 2.2559723595316457e+00 -1.2871434936884128e+02 4.2000000000000000e+03 1.4000000000000000e+01 0.0000000000000000e+00 2.5000000000000000e+00 
142 2 4 2.2559723595316457e+00 7.2601099085260671e+01 4.2000000000000000e+03 1.4000000000000000e+01 2.0000000000000000e+00 2.5000000000000000e+00 
161 2 4 2.2559723627295969e+00 6.8081200578103847e+02 4.2000000000000000e+03 1.6000000000000000e+01 0.0000000000000000e+00 2.5000000000000000e+00 
162 2 4 2.2559723595316457e+00 3.4192126604328143e+02 4.2000000000000000e+03 1.6000000000000000e+01 2.0000000000000000e+00 2.5000000000000000e+00 
181 2 4 2.2559723595316457e+00 2.2858949839445961e+02 4.2000000000000000e+03 1.8000000000000000e+01 0.0000000000000000e+00 2.5000000000000000e+00 
182 2 4 2.2559723595316457e+00 5.5821266533415269e+02 4.2000000000000000e+03 1.8000000000000000e+01 2.0000000000000000e+00 2.5000000000000000e+00 
3 2 4 2.2559723595316457e+00 -1.2604588545923707e+02 4.2000000000000000e+03 0.0000000000000000e+00 4.0000000000000000e+00 2.5000000000000000e+00 
23 2 4 2.2559723595316457e+00 -4.5730652839344891e+01 4.2000000000000000e+03 2.0000000000000000e+00 4.0000000000000000e+00 2.5000000000000000e+00 
43 2 4 2.2559723595316457e+00 1.5352601793092958e+02 4.2000000000000000e+03 4.0000000000000000e+00 4.0000000000000000e+00 2.5000000000000000e+00 
63 2 4 2.2559723595316457e+00 8.7089843852496557e+01 4.2000000000000000e+03 6.0000000000000000e+00 4.0000000000000000e+00 2.5000000000000000e+00 
83 2 4 2.2559723595316457e+00 1.2942045771061049e+02 4.2000000000000000e+03 8.0000000000000000e+00 4.0000000000000000e+00 2.5000000000000000e+00 
103 2 4 2.2559723595316457e+00 3.6434228604865541e+02 4.2000000000000000e+03 1.0000000000000000e+01 4.0000000000000000e+00 2.5000000000000000e+00 
123 2 4 2.2559723595316457e+00 5.2341744122588375e+02 4.2000000000000000e+03 1.2000000000000000e+01 4.0000000000000000e+00 2.5000000000000000e+00 
143 2 4 2.2559723595316457e+00 3.3700106287958477e+02 4.2000000000000000e+03 1.4000000000000000e+01 4.0000000000000000e+00 2.5000000000000000e+00 
163 2 4 2.2559723595316457e+00 3.5229186714091441e+02 4.2000000000000000e+03 1.6000000000000000e+01 4.0000000000000000e+00 2.5000000000000000e+00 
183 2 4 2.2559723595316457e+00 1.1906931746618311e+02 4.2000000000000000e+03 1.8000000000000000e+01 4.0000000000000000e+00 2.5000000000000000e+00 
4 2 4 2.2559723595316457e+00 -1.5204383377150620e+01 4.2000000000000000e+03 0.0000000000000000e+00 6.0000000000000000e+00 2.5000000000000000e+00 
5 2 4 2.2559723595316457e+00 1.8146533617026006e+02 4.2000000000000000e+03 0.0000000000000000e+00 8.0000000000000000e+00 2.5000000000000000e+00 
24 2 4 2.2559723595316457e+00 -3.0461782218531745e+01 4.2000000000000000e+03 2.0000000000000000e+00 6.0000000000000000e+00 2.5000000000000000e+00 
25 2 4 2.2559723595316457e+00 2.6013635395044219e+01 4.2000000000000000e+03 2.0000000000000000e+00 8.0000000000000000e+00 2.5000000000000000e+00 
44 2 4 2.2559723595316457e+00 1.0288814674883520e+02 4.2000000000000000e+03 4.0000000000000000e+00 6.0000000000000000e+00 2.5000000000000000e+00 
45 2 4 2.2559723595316457e+00 1.0075036310116609e+02 4.2000000000000000e+03 4.0000000000000000e+00 8.0000000000000000e+00 2.5000000000000000e+00 
64 2 4 2.2559723595316457e+00 1.1732318538663851e+02 4.2000000000000000e+03 6.0000000000000000e+00 6.0000000000000000e+00 2.5000000000000000e+00 
65 2 4 2.2559723595316457e+00 4.3548213433821040e+01 4.2000000000000000e+03 6.0000000000000000e+00 8.0000000000000000e+00 2.5000000000000000e+00 
84 2 4 2.2559723595316457e+00 -7.9513968730588289e+01 4.2000000000000000e+03 8.0000000000000000e+00 6.0000000000000000e+00 2.5000000000000000e+00 
85 2 4 2.2559723595316457e+00 -1.4027860891339535e+02 4.2000000000000000e+03 8.0000000000000000e+00 8.0000000000000000e+00 2.5000000000000000e+00 
104 2 4 2.2559723595316457e+00 -1.5590470877318873e+02 4.2000000000000000e+03 1.0000000000000000e+01 6.0000000000000000e+00 2.5000000000000000e+00 
105 2 4 2.2559723595316457e+00 -1.6851255878757277e+02 4.2000000000000000e+03 1.0000000000000000e+01 8.0000000000000000e+00 2.5000000000000000e+00 
124 2 4 2.2559723595316457e+00 4.6131273947829740e+01 4.2000000000000000e+03 1.2000000000000000e+01 6.0000000000000000e+00 2.5000000000000000e+00 
125 2 4 2.2559723595316457e+00 8.1905036353389528e+02 4.2000000000000000e+03 1.2000000000000000e+01 8.0000000000000000e+00 2.5000000000000000e+00 
144 2 4 2.2559723595316457e+00 4.6469949583118273e+02 4.2000000000000000e+03 1.4000000000000000e+01 6.0000000000000000e+00 2.5000000000000000e+00 
145 2 4 2.2559723595316457e+00 5.8669270793663725e+02 4.2000000000000000e+03 1.4000000000000000e+01 8.0000000000000000e+00 2.5000000000000000e+00 
164 2 4 2.2559723595316457e+00 1.5335583529090184e+02 4.2000000000000000e+03 1.6000000000000000e+01 6.0000000000000000e+00 2.5000000000000000e+00 
165 2 4 2.2559723595316457e+00 3.6794018330199799e+02 4.2000000000000000e+03 1.6000000000000000e+01 8.0000000000000000e+00 2.5000000000000000e+00 
184 2 4 2.2559723595316457e+00 2.2948030311791382e+02 4.2000000000000000e+03 1.8000000000000000e+01 6.0000000000000000e+00 2.5000000000000000e+00 
185 2 4 2.2559723595316457e+00 5.6646152969725949e+02 4.2000000000000000e+03 1.8000000000000000e+01 8.0000000000000000e+00 2.5000000000000000e+00 
6 2 4 2.2559723595316457e+00 3.8597057354182357e+02 4.2000000000000000e+03 0.0000000000000000e+00 1.0000000000000000e+01 2.5000000000000000e+00 
26 2 4 2.2559723724649157e+00 9.8142086586052926e+01 4.2000000000000000e+03 2.0000000000000000e+00 1.0000000000000000e+01 2.5000000000000000e+00 
46 2 4 2.2559723595316457e+00 4.9677040187112979e+01 4.2000000000000000e+03 4.0000000000000000e+00 1.0000000000000000e+01 2.5000000000000000e+00 
66 2 4 2.2559723595316457e+00 -5.5189118612536760e+01 4.2000000000000000e+03 6.0000000000000000e+00 1.0000000000000000e+01 2.5000000000000000e+00 
86 2 4 2.2559723595316457e+00 -1.1434716918206124e+02 4.2000000000000000e+03 8.0000000000000000e+00 1.0000000000000000e+01 2.5000000000000000e+00 
106 2 4 2.2559723595316457e+00 -6.8664758281836413e+01 4.2000000000000000e+03 1.0000000000000000e+01 1.0000000000000000e+01 2.5000000000000000e+00 
126 2 4 2.2559723595316457e+00 1.4256624734551679e+03 4.2000000000000000e+03 1.2000000000000000e+01 1.0000000000000000e+01 2.5000000000000000e+00 
146 2 4 2.2559723595316457e+00 8.4485145305882702e+02 4.2000000000000000e+03 1.4000000000000000e+01 1.0000000000000000e+01 2.5000000000000000e+00 
166 2 4 2.2559723595316457e+00 8.9011551363819763e+01 4.2000000000000000e+03 1.6000000000000000e+01 1.0000000000000000e+01 2.5000000000000000e+00 
186 2 4 2.2559723595316457e+00 5.1491053067713381e+02 4.2000000000000000e+03 1.8000000000000000e+01 1.0000000000000000e+01 2.5000000000000000e+00 
7 2 4 2.2559723595316457e+00 1.4111192207823005e+03 4.2000000000000000e+03 0.0000000000000000e+00 1.2000000000000000e+01 2.5000000000000000e+00 
8 2 4 2.2559723595316457e+00 1.2133776726417966e+03 4.2000000000000000e+03 0.0000000000000000e+00 1.4000000000000000e+01 2.5000000000000000e+00 
27 2 4 2.2559723595316457e+00 -4.9891659539376178e+01 4.2000000000000000e+03 2.0000000000000000e+00 1.2000000000000000e+01 2.5000000000000000e+00 
28 2 4 2.2559723595316457e+00 1.0054083982624147e+02 4.2000000000000000e+03 2.0000000000000000e+00 1.4000000000000000e+01 2.5000000000000000e+00 
47 2 4 2.2559723595316457e+00 -2.9619745377840724e+02 4.2000000000000000e+03 4.0000000000000000e+00 1.2000000000000000e+01 2.5000000000000000e+00 
48 2 4 2.2559723595316457e+00 -2.6975101144026729e+02 4.2000000000000000e+03 4.0000000000000000e+00 1.4000000000000000e+01 2.5000000000000000e+00 
67 2 4 2.2559723595316457e+00 1.2173323328498489e+02 4.2000000000000000e+03 6.0000000000000000e+00 1.2000000000000000e+01 2.5000000000000000e+00 
68 2 4 2.2559723595316457e+00 -3.0367857728287748e+00 4.2000000000000000e+03 6.0000000000000000e+00 1.4000000000000000e+01 2.5000000000000000e+00 
87 2 4 2.2559723595316457e+00 4.4113100511009247e+02 4.2000000000000000e+03 8.0000000000000000e+00 1.2000000000000000e+01 2.5000000000000000e+00 
88 2 4 2.2559723595316457e+00 4.7103035132851218e+01 4.2000000000000000e+03 8.0000000000000000e+00 1.4000000000000000e+01 2.5000000000000000e+00 
107 2 4 2.2559723595316457e+00 8.1100377460215313e+01 4.2000000000000000e+03 1.0000000000000000e+01 1.2000000000000000e+01 2.5000000000000000e+00 
108 2 4 2.2559723595316457e+00 3.0240219140036589e+02 4.2000000000000000e+03 1.0000000000000000e+01 1.4000000000000000e+01 2.5000000000000000e+00 
127 2 4 2.2559723595316457e+00 3.5010165985943888e+02 4.2000000000000000e+03 1.2000000000000000e+01 1.2000000000000000e+01 2.5000000000000000e+00 
128 2 4 2.2559723595316457e+00 1.2582013421971963e+02 4.2000000000000000e+03 1.2000000000000000e+01 1.4000000000000000e+01 2.5000000000000000e+00 
147 2 4 2.2559723595316457e+00 9.0586818401221319e+02 4.2000000000000000e+03 1.4000000000000000e+01 1.2000000000000000e+01 2.5000000000000000e+00 
148 2 4 2.2559723595316457e+00 6.1365741279004328e+02 4.2000000000000000e+03 1.4000000000000000e+01 1.4000000000000000e+01 2.5000000000000000e+00 
167 2 4 2.2559723595316457e+00 -5.7611027904401351e+02 4.2000000000000000e+03 1.6000000000000000e+01 1.2000000000000000e+01 2.5000000000000000e+00 
168 2 4 2.2559723595316457e+00 -7.6179903743759880e+01 4.2000000000000000e+03 1.6000000000000000e+01 1.4000000000000000e+01 2.5000000000000000e+00 
187 2 4 2.2559723595316457e+00 -1.9207780336447499e+02 4.2000000000000000e+03 1.8000000000000000e+01 1.2000000000000000e+01 2.5000000000000000e+00 
188 2 4 2.2559723595316457e+00 4.0645461467979899e+01 4.2000000000000000e+03 1.8000000000000000e+01 1.4000000000000000e+01 2.5000000000000000e+00 
9 2 4 2.2559723595316457e+00 3.9882961090797050e+02 4.2000000000000000e+03 0.0000000000000000e+00 1.6000000000000000e+01 2.5000000000000000e+00 
29 2 4 2.2559723595316457e+00 5.6314750594040532e+01 4.2000000000000000e+03 2.0000000000000000e+00 1.6000000000000000e+01 2.5000000000000000e+00 
49 2 4 2.2559723595316457e+00 2.9438802679577168e+02 4.2000000000000000e+03 4.0000000000000000e+00 1.6000000000000000e+01 2.5000000000000000e+00 
69 2 4 2.2559723595316457e+00 3.2721943039336702e+02 4.2000000000000000e+03 6.0000000000000000e+00 1.6000000000000000e+01 2.5000000000000000e+00 
89 2 4 2.2559723595316457e+00 -6.6160060175129054e+00 4.2000000000000000e+03 8.0000000000000000e+00 1.6000000000000000e+01 2.5000000000000000e+00 
109 2 4 2.2559723595316457e+00 1.0626118117458518e+02 4.2000000000000000e+03 1.0000000000000000e+01 1.6000000000000000e+01 2.5000000000000000e+00 
129 2 4 2.2559723595316457e+00 -7.0110267489555789e-01 4.2000000000000000e+03 1.2000000000000000e+01 1.6000000000000000e+01 2.5000000000000000e+00 
149 2 4 2.2559723595316457e+00 2.5914950199824847e+02 4.2000000000000000e+03 1.4000000000000000e+01 1.6000000000000000e+01 2.5000000000000000e+00 
169 2 4 2.2559723595316457e+00 -2.2059100581903994e+02 4.2000000000000000e+03 1.6000000000000000e+01 1.6000000000000000e+01 2.5000000000000000e+00 
189 2 4 2.2559723595316457e+00 5.3720384603964192e+02 4.2000000000000000e+03 1.8000000000000000e+01 1.6000000000000000e+01 2.5000000000000000e+00 
10 2 4 2.2559723595316457e+00 -6.6276520880117755e+02 4.2000000000000000e+03 0.0000000000000000e+00 1.8000000000000000e+01 2.5000000000000000e+00 
30 2 4 2.2559723595316457e+00 5.4666855076463534e+01 4.2000000000000000e+03 2.0000000000000000e+00 1.8000000000000000e+01 2.5000000000000000e+00 
50 2 4 2.2559723595316457e+00 2.4307477499605469e+02 4.2000000000000000e+03 4.0000000000000000e+00 1.8000000000000000e+01 2.5000000000000000e+00 
70 2 4 2.2559723595316457e+00 1.3043983583911569e+02 4.2000000000000000e+03 6.0000000000000000e+00 1.8000000000000000e+01 2.5000000000000000e+00 
90 2 4 2.2559723595316457e+00 1.8802745706366952e+02 4.2000000000000000e+03 8.0000000000000000e+00 1.8000000000000000e+01 2.5000000000000000e+00 
110 2 4 2.2559723595316457e+00 -1.2105944943920733e+02 4.2000000000000000e+03 1.0000000000000000e+01 1.8000000000000000e+01 2.5000000000000000e+00 
130 2 4 2.2559723595316457e+00 -2.0876997601107189e+02 4.2000000000000000e+03 1.2000000000000000e+01 1.8000000000000000e+01 2.5000000000000000e+00 
150 2 4 2.2559723595316457e+00 2.0506378218097072e+02 4.2000000000000000e+03 1.4000000000000000e+01 1.8000000000000000e+01 2.5000000000000000e+00 
170 2 4 2.2559723595316457e+00 -1.0507056567039217e+03 4.2000000000000000e+03 1.6000000000000000e+01 1.8000000000000000e+01 2.5000000000000000e+00 
190 2 4 2.2559723595316457e+00 -3.8618134482424739e+02 4.2000000000000000e+03 1.8000000000000000e+01 1.8000000000000000e+01 2.5000000000000000e+00 
1537 1139 2 1.0279993041172499e+00 2.4243457066992516e+05 4.2000000000000000e+03 8.4333857947644386e+00 1.8164577035522154e+00 7.4588692358189288e+00 
458 60 2 1.0282326691206405e+00 -3.7545489666518362e+04 4.2000000000000000e+03 1.2268986695886653e+01 2.6275744851033007e+00 7.9656142689557514e+00 
754 356 2 1.0277653019117365e+00 -6.7378462781120805e+04 4.2000000000000000e+03 1.2910038380709883e+01 2.6209369158010269e+00 7.7852716687919390e+00 
1587 1189 2 1.0273453023807011e+00 -4.9894879200841497e+04 4.2000000000000000e+03 1.7398327140820356e+01 1.1728932948906028e+00 7.8380118988565659e+00 
479 81 2 1.0286611009039832e+00 6.0224707340856512e+04 4.2000000000000000e+03 1.7773193209052256e+01 1.7054850481133177e+00 7.8500796056903663e+00 
606 208 2 1.0280007950921162e+00 -9.8223181579126380e+04 4.2000000000000000e+03 7.4538051241162799e+00 3.8254333711424002e+00 8.0489041920971491e+00 
954 556 2 1.0279963886738916e+00 -1.4190163676765666e+04 4.2000000000000000e+03 8.4238249605668383e+00 5.0656891717241983e+00 8.1424454653000335e+00 
1945 1547 2 1.0280137166194028e+00 6.9395259889073175e+04 4.2000000000000000e+03 1.5872409960903086e+01 4.6673615194676348e+00 8.0418502339022879e+00 
1989 1591 2 1.0279971045453438e+00 6.3195300557046132e+04 4.2000000000000000e+03 1.9782500755877123e+01 5.3887125105447939e+00 6.6097138610697961e+00 
1564 1166 2 1.0280051703705855e+00 -1.3401688615514971e+04 4.2000000000000000e+03 1.8646001292518761e+01 5.6635415707963546e+00 6.8320579940397934e+00 
1147 749 2 1.0279997180104603e+00 -1.3462433618176545e+05 4.2000000000000000e+03 5.2128982577565477e+00 7.3107398535383359e+00 7.0601700911031138e+00 
1315 917 2 1.0280030892066714e+00 -1.3061268979317829e+05 4.2000000000000000e+03 7.3936934486683956e+00 7.9875035920430761e+00 6.6244404723471408e+00 
1921 1523 2 1.0279982795731031e+00 1.2734357343790041e+05 4.2000000000000000e+03 9.3294313113704419e+00 6.8921728259833150e+00 7.7128709186392239e+00 
936 538 2 1.0279909846361908e+00 7.5324614491369095e+04 4.2000000000000000e+03 1.6139749320768665e+01 5.7769362749215531e+00 6.9705109208612930e+00 
1467 1069 2 1.0280037727362887e+00 -2.1922210869916773e+04 4.2000000000000000e+03 1.8946567002838275e+01 8.5289393078287432e+00 7.5413654880460630e+00 
1200 802 2 1.0279979730701330e+00 2.3103231811125417e+04 4.2000000000000000e+03 5.2876774272527731e+00 9.3956778967907653e+00 6.6485018959570121e+00 
830 432 2 1.0279987848949652e+00 -1.0772611163512949e+05 4.2000000000000000e+03 7.4564791425149535e+00 9.8373615293068966e+00 6.7587305624637342e+00 
1654 1256 2 1.0280004790822050e+00 -1.3321619216813598e+05 4.2000000000000000e+03 9.0147188100053750e+00 1.0499835313946782e+01 8.2028085608472256e+00 
1857 1459 2 1.0280180825941780e+00 6.1368310310801426e+04 4.2000000000000000e+03 1.4914749211582713e+01 8.6118567739055329e+00 7.8866906418187277e+00 
1288 890 2 1.0279938707414253e+00 5.3329637670649041e+04 4.2000000000000000e+03 1.5722535077325631e+01 9.0935061817360783e+00 6.6591113151118657e+00 
786 388 2 1.0280002888349751e+00 -1.3178610553308125e+05 4.2000000000000000e+03 1.8126276812870241e+01 9.5968480960982419e+00 6.8420171052918066e+00 
1786 1388 2 1.0280021199065610e+00 -1.3821851567328078e+05 4.2000000000000000e+03 1.5493902096191023e+00 1.2463688099266950e+01 7.4084206524403253e+00 
1322 924 2 1.0279988018949122e+00 -1.2702376669062971e+05 4.2000000000000000e+03 3.0982671225590996e+00 1.1905784452574981e+01 7.0677603769515747e+00 
412 14 2 1.0280087866381138e+00 9.1129644886029797e+04 4.2000000000000000e+03 4.2386045215712320e+00 1.3615658461080351e+01 7.8718997404524584e+00 
920 522 2 1.0279982952505573e+00 8.2939962156448673e+04 4.2000000000000000e+03 5.9775906999052779e+00 1.4038950454842304e+01 8.2629071479702603e+00 
589 191 2 1.0279978885140206e+00 1.4406661330861895e+05 4.2000000000000000e+03 1.3310670866506136e+01 1.2740563552802394e+01 6.9315414351269489e+00 
937 539 2 1.0280080708278818e+00 1.2586279407245818e+04 4.2000000000000000e+03 1.2985262801603232e+01 1.4005881901133243e+01 6.9506205193891581e+00 
1468 1070 2 1.0280266186465652e+00 7.7412731697710129e+04 4.2000000000000000e+03 1.5737368676796343e+01 1.1899770008334501e+01 6.6310564489752455e+00 
1728 1330 2 1.0279706651847262e+00 2.4270434584532406e+04 4.2000000000000000e+03 1.5678557439117707e+01 1.2531929185848824e+01 7.6941776238015347e+00 
607 209 2 1.0280084657023907e+00 -7.9255190683741530e+04 4.2000000000000000e+03 1.4211718431445455e+01 1.6212052487388441e+01 6.8170382117876249e+00 
475 77 2 1.0279833176152695e+00 4.8464435684594093e+04 4.2000000000000000e+03 1.5024495125184595e+01 1.5633655214792245e+01 6.9842916858497173e+00 
1605 1207 2 1.0280019859728651e+00 -3.8668842858968608e+04 4.2000000000000000e+03 8.6397313461400955e+00 1.9003697385113556e+00 8.6211232072403359e+00 
1024 626 2 1.0280014877800427e+00 8.8912852272279080e+04 4.2000000000000000e+03 4.4828289019184151e+00 8.3626296439672796e+00 8.4462051819071746e+00 
611 213 2 1.0280036867206497e+00 -1.1977340912220399e+05 4.2000000000000000e+03 6.6825999793227053e+00 6.9608172133801425e+00 9.4018346428422284e+00 
1970 1572 2 1.0279984699423490e+00 -4.3347201820216891e+04 4.2000000000000000e+03 7.2331567490490105e+00 8.0565579377693783e+00 1.0071732492995448e+01 
1811 1413 2 1.0280063062078295e+00 -1.1761651674754207e+05 4.2000000000000000e+03 9.4738444638477919e+00 7.7374468694633647e+00 9.3924379221496697e+00 
784 386 2 1.0280080203196034e+00 -2.7246690815026624e+04 4.2000000000000000e+03 1.1758741501061282e+01 7.0329317988663620e+00 9.0489024118892907e+00 
1594 1196 2 1.0280014008374709e+00 -9.4766983734841167e+04 4.2000000000000000e+03 1.2555624557831967e+01 5.9254029964119184e+00 8.7404216364612850e+00 
1682 1284 2 1.0280065439923525e+00 -1.0219327469580513e+05 4.2000000000000000e+03 1.4459702462373285e+01 6.4257059093420761e+00 9.3535582637686119e+00 
781 383 2 1.0280025812472708e+00 -3.8877075112477680e+04 4.2000000000000000e+03 1.6500004350017910e+01 6.3752478595439497e+00 9.1983910438809584e+00 
801 403 2 1.0279987617492334e+00 -1.9291026341242992e+04 4.2000000000000000e+03 3.7030630173850949e+00 1.0425274101585837e+01 8.9855149914311951e+00 
575 177 2 1.0279963345657759e+00 -1.5159970250132840e+05 4.2000000000000000e+03 8.5232914359869785e+00 1.0297551746769363e+01 9.4156658378519698e+00 
1778 1380 2 1.0279845285648415e+00 -7.2065900280507660e+04 4.2000000000000000e+03 1.6393535493400609e+01 1.0033845429374072e+01 8.8939228913382422e+00 
453 55 2 1.0280117218046096e+00 1.8159768178400383e+04 4.2000000000000000e+03 1.7736436028589971e+01 8.6461787796092935e+00 9.1995790233044730e+00 
782 384 2 1.0279992457407661e+00 -6.4381279057638669e+04 4.2000000000000000e+03 1.1898071486355422e+00 1.2836572684494502e+01 1.1050225044533457e+01 
1655 1257 2 1.0280021607322818e+00 -1.2044035709264663e+05 4.2000000000000000e+03 1.1290978904652875e+00 1.2036760223801542e+01 9.1401721538233893e+00 
1163 765 2 1.0280015556615354e+00 -1.4168103215733293e+05 4.2000000000000000e+03 5.3911292152968270e-02 1.3816158492677054e+01 1.0566518745741474e+01 
789 391 2 1.0280007544770819e+00 2.8909372699913265e+03 4.2000000000000000e+03 4.7506862448889597e+00 1.1552240096816231e+01 1.0293655194337926e+01 
904 506 2 1.0279995871965650e+00 3.2189210633515348e+04 4.2000000000000000e+03 5.8391078381328949e+00 1.1511957954248913e+01 9.3387665986722244e+00 
620 222 2 1.0280049628957737e+00 7.2074313911544130e+04 4.2000000000000000e+03 1.7845320175353212e+01 1.2228799350566165e+01 1.0688095736285186e+01 
521 123 2 1.0279983324491238e+00 -1.9716827553775649e+04 4.2000000000000000e+03 2.8143864167471633e+00 1.5901884889503071e+01 8.5197709342675232e+00 
1862 1464 2 1.0280014192378044e+00 -2.0465363725765381e+05 4.2000000000000000e+03 1.4662537249419856e+00 1.6355155535755454e+01 9.5069647234022785e+00 
1250 852 2 1.0279981953703214e+00 -1.0287669111769053e+05 4.2000000000000000e+03 2.8946949560483759e+00 1.6030176955316730e+01 1.0975925442566155e+01 
1840 1442 2 1.0279988398480315e+00 1.5994073681069986e+05 4.2000000000000000e+03 5.6267304948688333e+00 1.5803403718208761e+01 8.4295341012576923e+00 
1098 700 2 1.0279971179254170e+00 -1.0783267397493689e+05 4.2000000000000000e+03 4.6039172331372784e+00 1.6160857590634244e+01 1.0061866336391034e+01 
1965 1567 2 1.0282891465817841e+00 2.6888918308743912e+04 4.2000000000000000e+03 1.7093230648408021e+01 1.6498870610822234e+01 1.0107973493009315e+01 
612 214 2 1.0277224338378348e+00 3.9440644192197149e+04 4.2000000000000000e+03 1.7369955500197424e+01 1.6527313838010642e+01 9.5151707805496937e+00 
969 571 2 1.0279999999740579e+00 1.1840476372583775e+05 4.2000000000000000e+03 9.3908599562983266e+00 1.7817295951585415e+01 1.0580436162655182e+01 
1343 945 2 1.0279999999740579e+00 -7.3029721917282150e+04 4.2000000000000000e+03 9.4794979823024654e+00 1.8220348075240310e+01 1.0081965805704879e+01 
1345 947 2 1.0279903801830381e+00 1.1289402380105553e+05 4.2000000000000000e+03 1.7988351696374274e+01 1.1686496692464068e+01 1.1117327443779542e+01 
788 390 2 1.0280010468876188e+00 3.9381725224961374e+04 4.2000000000000000e+03 7.0068458929161315e-01 1.4871709785872955e+01 1.2657823814431422e+01 
1959 1561 2 1.0279983265439134e+00 7.1366300678628191e+04 4.2000000000000000e+03 4.4959016681252262e-01 1.6874614391408162e+01 1.1803930955985011e+01 
1953 1555 2 1.0279919698447546e+00 5.9629704910843822e+04 4.2000000000000000e+03 1.5206207173055796e+01 1.5421971645531999e+01 1.3406625507613949e+01 
540 142 2 1.0280104637483778e+00 -7.8631519027351160e+03 4.2000000000000000e+03 1.6316795703141764e+01 1.5597634180308535e+01 1.3412491105227863e+01 
1191 793 2 1.0279960466975406e+00 -4.7333397871526569e+04 4.2000000000000000e+03 1.5008994757762373e+01 1.7806016213135837e+01 1.3420935633401690e+01 
767 369 2 1.0279952704862656e+00 -6.5380137108820636e+04 4.2000000000000000e+03 1.5901294939003135e+01 1.8927113330065790e+01 1.2806489453301539e+01 
1078 680 2 1.0280000000898808e+00 -7.7955436505808437e+04 4.2000000000000000e+03 5.0785590055060048e+00 1.0436562972857093e+01 1.6062490082408498e+01 
444 46 2 1.0280000000396501e+00 6.4884943659706129e+04 4.2000000000000000e+03 7.0636892335684713e+00 9.4303826661770120e+00 1.4686236393042250e+01 
753 355 2 1.0279999999617306e+00 1.1803253323225570e+04 4.2000000000000000e+03 6.9417708465526609e+00 1.0568604592575957e+01 1.4271972133884713e+01 
995 597 2 1.0280041605231536e+00 -7.3956888156370813e+04 4.2000000000000000e+03 1.6739272894187831e+01 1.6249547253664062e+01 1.6252328190644761e+01 
795 397 2 1.0279984767109240e+00 -7.4967743648012824e+04 4.2000000000000000e+03 1.9723047742933645e+01 1.6584298987151946e+01 1.6264222699880538e+01 
746 348 2 1.0280017290650729e+00 -8.0514223000221973e+04 4.2000000000000000e+03 1.5425847572817778e+01 1.8145475731725625e+01 1.6085358651230131e+01 
590 192 2 1.0279982783935235e+00 -5.0544442374039587e+04 4.2000000000000000e+03 1.6576583561319357e+01 1.9519341734868725e+01 1.6389830403304241e+01 
1265 867 2 1.0279990641094234e+00 1.3288412196897340e+05 4.2000000000000000e+03 1.8013592672388945e+01 1.7953445919049120e+01 1.5099480853224314e+01 
2052 1654 2 1.0279994108734307e+00 4.1317915627839124e+04 4.2000000000000000e+03 1.9934962418850798e+01 1.8865949561046417e+01 1.6482769532675064e+01 
972 574 2 1.0279999999117182e+00 1.0068039789241058e+05 4.2000000000000000e+03 6.0682614983839356e+00 1.0654325383010040e+01 1.6737098584843586e+01 
1093 695 2 1.0279993080651963e+00 2.0074257734063620e+04 4.2000000000000000e+03 1.8749714333609550e+01 1.4986377173271713e+01 1.7025890887091268e+01 
1693 1295 2 1.0279997590570624e+00 8.6472160925123331e+04 4.2000000000000000e+03 1.7751157679948097e+01 1.5826399061447059e+01 1.8169263714236816e+01 
450 52 2 1.0279990636429834e+00 1.1141201109168051e+05 4.2000000000000000e+03 1.3309065790251887e+01 1.9396679687588250e+01 1.6672911526641744e+01 
1982 1584 2 1.0280001551961930e+00 -1.4380501369915055e+04 4.2000000000000000e+03 1.2397673853485122e+01 1.8886233762023071e+01 1.9332743412631114e+01 
500 102 2 1.0280002562977921e+00 3.6346906909982979e+04 4.2000000000000000e+03 1.8314841522675529e+01 1.8089672135123205e+01 1.7655254021588103e+01 
1479 1081 2 1.0284806133315054e+00 -8.6237933751831253e+04 4.2000000000000000e+03 1.2433515884019437e+01 2.8110141754721916e+00 2.1574970330410416e+01 
1127 729 2 1.0279884627782492e+00 -9.2599601359498862e+04 4.2000000000000000e+03 1.5171372943213116e+01 1.0641732341861836e+00 2.0898402201936001e+01 
1289 891 2 1.0280176474289935e+00 4.6078369635358838e+04 4.2000000000000000e+03 1.5251801532751552e+01 9.8603205092723190e-01 2.1583741677800123e+01 
792 394 2 1.0281561705238667e+00 -1.2055384739934349e+04 4.2000000000000000e+03 1.0709878301650205e+01 5.2857958938065197e+00 2.1255564967491281e+01 
1783 1385 2 1.0278796940852242e+00 -1.2045172791898641e+05 4.2000000000000000e+03 1.0133494861915457e+01 5.4138882376120590e+00 2.2021948368907143e+01 
408 10 2 1.0275070419384909e+00 3.1548245435055218e+04 4.2000000000000000e+03 1.2857527311651964e+01 3.3167604263628747e+00 2.2041680249142484e+01 
629 231 2 1.0279919593818847e+00 3.4091380929582083e+04 4.2000000000000000e+03 5.1408562215726024e+00 7.9600434241541809e+00 2.1683168656765584e+01 
1158 760 2 1.0280006624541409e+00 -1.0741760727869923e+05 4.2000000000000000e+03 5.7155480235180685e+00 5.8127267152367263e+00 2.2068138894233986e+01 
524 126 2 1.0280064267624529e+00 -1.6137578025891939e+04 4.2000000000000000e+03 6.7656620301354575e+00 6.0012291332026129e+00 2.0710792331410687e+01 
1257 859 2 1.0279985625787784e+00 8.3376018308906656e+04 4.2000000000000000e+03 7.4968400897869998e+00 7.7244215690996443e+00 2.0647049203669347e+01 
1168 770 2 1.0280424722058683e+00 1.5535757174459624e+05 4.2000000000000000e+03 1.2384551384155259e+01 7.7509488025294511e+00 2.0958162518186018e+01 
1233 835 2 1.0279817107074904e+00 8.9211696281824843e+04 4.2000000000000000e+03 1.2917848936615020e+01 8.1404633723931532e+00 1.9884682737956531e+01 
775 377 2 1.0280030124697619e+00 -1.4140797974454687e+05 4.2000000000000000e+03 1.5203607226950338e+01 7.4303955482705293e+00 2.0390934727228039e+01 
1582 1184 2 1.0279939510627758e+00 -1.1449856161667506e+05 4.2000000000000000e+03 1.5223406065198835e+01 8.0894571304477196e+00 2.1372118435828934e+01 
1990 1592 2 1.0280031405179011e+00 5.0750462984396741e+04 4.2000000000000000e+03 8.0202042478495965e+00 8.8012872731220853e+00 2.2177382749265849e+01 
1788 1390 2 1.0279985200021127e+00 6.4880971828621594e+04 4.2000000000000000e+03 8.6689461600687814e+00 1.1274599334249057e+01 2.1753009168911852e+01 
1873 1475 2 1.0280008227149147e+00 1.2651871150390498e+05 4.2000000000000000e+03 1.2029298136187464e+01 1.9852480957388181e+01 1.9513292061462444e+01 
1180 782 2 1.0274765214316190e+00 1.0068891129376694e+05 4.2000000000000000e+03 9.9163749407611874e+00 2.1846822770034855e+00 2.4940111627816250e+01 