LAMMPS data file via write_data, version 30 Jul 2016, timestep = 1000000

2080 atoms
8 atom types

0.0000000000000000e+00 4.0000000000000000e+01 xlo xhi
0.0000000000000000e+00 4.0000000000000000e+01 ylo yhi
0.0000000000000000e+00 1.0000000000000000e+02 zlo zhi

Masses

1 3.896
2 16.08
3 1058.08
4 8.378
5 8.378
6 8.378
7 8.378
8 8.378

Atoms # meso-molecular

1 2 4 2.2559723595316457e+00 3.0347912298133469e+01 4.2000000000000000e+03 0.0000000000000000e+00 0.0000000000000000e+00 2.5000000000000000e+00 
2 2 4 2.2559723595316457e+00 -6.1811868433477514e+02 4.2000000000000000e+03 0.0000000000000000e+00 2.0000000000000000e+00 2.5000000000000000e+00 
21 2 4 2.2559723595316457e+00 1.1638696258123915e+02 4.2000000000000000e+03 2.0000000000000000e+00 0.0000000000000000e+00 2.5000000000000000e+00 
22 2 4 2.2559723595316457e+00 1.2211349770288004e+02 4.2000000000000000e+03 2.0000000000000000e+00 2.0000000000000000e+00 2.5000000000000000e+00 
41 2 4 2.2559723595316457e+00 -3.4453869187512828e+02 4.2000000000000000e+03 4.0000000000000000e+00 0.0000000000000000e+00 2.5000000000000000e+00 
42 2 4 2.2559723595316457e+00 2.0045046222718679e+02 4.2000000000000000e+03 4.0000000000000000e+00 2.0000000000000000e+00 2.5000000000000000e+00 
61 2 4 2.2559723595316457e+00 -1.2177824773718520e+02 4.2000000000000000e+03 6.0000000000000000e+00 0.0000000000000000e+00 2.5000000000000000e+00 
62 2 4 2.2559723595316457e+00 7.8634389585406694e+01 4.2000000000000000e+03 6.0000000000000000e+00 2.0000000000000000e+00 2.5000000000000000e+00 
81 2 4 2.2559723595316457e+00 1.4312510256775852e+02 4.2000000000000000e+03 8.0000000000000000e+00 0.0000000000000000e+00 2.5000000000000000e+00 
82 2 4 2.2559723595316457e+00 1.9907697494016861e+02 4.2000000000000000e+03 8.0000000000000000e+00 2.0000000000000000e+00 2.5000000000000000e+00 
101 2 4 2.2559723595316457e+00 1.1723053274822662e+02 4.2000000000000000e+03 1.0000000000000000e+01 0.0000000000000000e+00 2.5000000000000000e+00 
102 2 4 2.2559723595316457e+00 4.9044797919884581e+02 4.2000000000000000e+03 1.0000000000000000e+01 2.0000000000000000e+00 2.5000000000000000e+00 
121 2 4 2.2559723595316457e+00 -4.5927524881107126e+02 4.2000000000000000e+03 1.2000000000000000e+01 0.0000000000000000e+00 2.5000000000000000e+00 
122 2 4 2.2559723595316457e+00 5.7286625995000054e+02 4.2000000000000000e+03 1.2000000000000000e+01 2.0000000000000000e+00 2.5000000000000000e+00 
141 2 4 2.2559723595316457e+00 -1.2871434851102225e+02 4.2000000000000000e+03 1.4000000000000000e+01 0.0000000000000000e+00 2.5000000000000000e+00 
142 2 4 2.2559723595316457e+00 7.2601099085260671e+01 4.2000000000000000e+03 1.4000000000000000e+01 2.0000000000000000e+00 2.5000000000000000e+00 
161 2 4 2.2559723595316457e+00 6.8075714559548237e+02 4.2000000000000000e+03 1.6000000000000000e+01 0.0000000000000000e+00 2.5000000000000000e+00 
162 2 4 2.2559723595316457e+00 3.4192126728670837e+02 4.2000000000000000e+03 1.6000000000000000e+01 2.0000000000000000e+00 2.5000000000000000e+00 
181 2 4 2.2559723595316457e+00 2.2858950001047771e+02 4.2000000000000000e+03 1.8000000000000000e+01 0.0000000000000000e+00 2.5000000000000000e+00 
182 2 4 2.2559723595316457e+00 5.5821266982317184e+02 4.2000000000000000e+03 1.8000000000000000e+01 2.0000000000000000e+00 2.5000000000000000e+00 
3 2 4 2.2559723595316457e+00 -1.2604588479420192e+02 4.2000000000000000e+03 0.0000000000000000e+00 4.0000000000000000e+00 2.5000000000000000e+00 
23 2 4 2.2559723595316457e+00 -4.5730650036561620e+01 4.2000000000000000e+03 2.0000000000000000e+00 4.0000000000000000e+00 2.5000000000000000e+00 
43 2 4 2.2559723595316457e+00 1.5352601793092958e+02 4.2000000000000000e+03 4.0000000000000000e+00 4.0000000000000000e+00 2.5000000000000000e+00 
63 2 4 2.2559723595316457e+00 8.7089843852496557e+01 4.2000000000000000e+03 6.0000000000000000e+00 4.0000000000000000e+00 2.5000000000000000e+00 
83 2 4 2.2559723595316457e+00 1.2942045824365448e+02 4.2000000000000000e+03 8.0000000000000000e+00 4.0000000000000000e+00 2.5000000000000000e+00 
103 2 4 2.2559723595316457e+00 3.6434228644295297e+02 4.2000000000000000e+03 1.0000000000000000e+01 4.0000000000000000e+00 2.5000000000000000e+00 
123 2 4 2.2559723595316457e+00 5.2341744122588375e+02 4.2000000000000000e+03 1.2000000000000000e+01 4.0000000000000000e+00 2.5000000000000000e+00 
143 2 4 2.2559723595316457e+00 3.3700106445313781e+02 4.2000000000000000e+03 1.4000000000000000e+01 4.0000000000000000e+00 2.5000000000000000e+00 
163 2 4 2.2559723595316457e+00 3.5229186714091441e+02 4.2000000000000000e+03 1.6000000000000000e+01 4.0000000000000000e+00 2.5000000000000000e+00 
183 2 4 2.2559723595316457e+00 1.1906932456482524e+02 4.2000000000000000e+03 1.8000000000000000e+01 4.0000000000000000e+00 2.5000000000000000e+00 
4 2 4 2.2559723595316457e+00 -1.5204383377150620e+01 4.2000000000000000e+03 0.0000000000000000e+00 6.0000000000000000e+00 2.5000000000000000e+00 
5 2 4 2.2559723595316457e+00 1.8146533670618811e+02 4.2000000000000000e+03 0.0000000000000000e+00 8.0000000000000000e+00 2.5000000000000000e+00 
24 2 4 2.2559723595316457e+00 -3.0461781571680675e+01 4.2000000000000000e+03 2.0000000000000000e+00 6.0000000000000000e+00 2.5000000000000000e+00 
25 2 4 2.2559723595316457e+00 2.6013635395044219e+01 4.2000000000000000e+03 2.0000000000000000e+00 8.0000000000000000e+00 2.5000000000000000e+00 
44 2 4 2.2559723595316457e+00 1.0288814674883520e+02 4.2000000000000000e+03 4.0000000000000000e+00 6.0000000000000000e+00 2.5000000000000000e+00 
45 2 4 2.2559723595316457e+00 1.0075036310116609e+02 4.2000000000000000e+03 4.0000000000000000e+00 8.0000000000000000e+00 2.5000000000000000e+00 
64 2 4 2.2559723595316457e+00 1.1732318538663851e+02 4.2000000000000000e+03 6.0000000000000000e+00 6.0000000000000000e+00 2.5000000000000000e+00 
65 2 4 2.2559723595316457e+00 4.3548213433821040e+01 4.2000000000000000e+03 6.0000000000000000e+00 8.0000000000000000e+00 2.5000000000000000e+00 
84 2 4 2.2559723595316457e+00 -7.9513968730588289e+01 4.2000000000000000e+03 8.0000000000000000e+00 6.0000000000000000e+00 2.5000000000000000e+00 
85 2 4 2.2559723595316457e+00 -1.4027860891339535e+02 4.2000000000000000e+03 8.0000000000000000e+00 8.0000000000000000e+00 2.5000000000000000e+00 
104 2 4 2.2559723595316457e+00 -1.5590470858973393e+02 4.2000000000000000e+03 1.0000000000000000e+01 6.0000000000000000e+00 2.5000000000000000e+00 
105 2 4 2.2559723595316457e+00 -1.6851255878757277e+02 4.2000000000000000e+03 1.0000000000000000e+01 8.0000000000000000e+00 2.5000000000000000e+00 
124 2 4 2.2559723595316457e+00 4.6131273947829740e+01 4.2000000000000000e+03 1.2000000000000000e+01 6.0000000000000000e+00 2.5000000000000000e+00 
125 2 4 2.2559723595316457e+00 8.1905036353389528e+02 4.2000000000000000e+03 1.2000000000000000e+01 8.0000000000000000e+00 2.5000000000000000e+00 
144 2 4 2.2559723595316457e+00 4.6469949479388367e+02 4.2000000000000000e+03 1.4000000000000000e+01 6.0000000000000000e+00 2.5000000000000000e+00 
145 2 4 2.2559723595316457e+00 5.8669270793663725e+02 4.2000000000000000e+03 1.4000000000000000e+01 8.0000000000000000e+00 2.5000000000000000e+00 
164 2 4 2.2559723595316457e+00 1.5335584017936907e+02 4.2000000000000000e+03 1.6000000000000000e+01 6.0000000000000000e+00 2.5000000000000000e+00 
165 2 4 2.2559723595316457e+00 3.6794018696143485e+02 4.2000000000000000e+03 1.6000000000000000e+01 8.0000000000000000e+00 2.5000000000000000e+00 
184 2 4 2.2559723595316457e+00 2.2948030410469636e+02 4.2000000000000000e+03 1.8000000000000000e+01 6.0000000000000000e+00 2.5000000000000000e+00 
185 2 4 2.2559723595316457e+00 5.6646152969725949e+02 4.2000000000000000e+03 1.8000000000000000e+01 8.0000000000000000e+00 2.5000000000000000e+00 
6 2 4 2.2559723595316457e+00 3.8597057354182357e+02 4.2000000000000000e+03 0.0000000000000000e+00 1.0000000000000000e+01 2.5000000000000000e+00 
26 2 4 2.2559723595316457e+00 9.7995083988437031e+01 4.2000000000000000e+03 2.0000000000000000e+00 1.0000000000000000e+01 2.5000000000000000e+00 
46 2 4 2.2559723595316457e+00 4.9677040187112979e+01 4.2000000000000000e+03 4.0000000000000000e+00 1.0000000000000000e+01 2.5000000000000000e+00 
66 2 4 2.2559723595316457e+00 -5.5189118612536760e+01 4.2000000000000000e+03 6.0000000000000000e+00 1.0000000000000000e+01 2.5000000000000000e+00 
86 2 4 2.2559723595316457e+00 -1.1434716918206124e+02 4.2000000000000000e+03 8.0000000000000000e+00 1.0000000000000000e+01 2.5000000000000000e+00 
106 2 4 2.2559723595316457e+00 -6.8664758281836413e+01 4.2000000000000000e+03 1.0000000000000000e+01 1.0000000000000000e+01 2.5000000000000000e+00 
126 2 4 2.2559723595316457e+00 1.4256624734551679e+03 4.2000000000000000e+03 1.2000000000000000e+01 1.0000000000000000e+01 2.5000000000000000e+00 
146 2 4 2.2559723595316457e+00 8.4485145416457112e+02 4.2000000000000000e+03 1.4000000000000000e+01 1.0000000000000000e+01 2.5000000000000000e+00 
166 2 4 2.2559723595316457e+00 8.9011553618817800e+01 4.2000000000000000e+03 1.6000000000000000e+01 1.0000000000000000e+01 2.5000000000000000e+00 
186 2 4 2.2559723595316457e+00 5.1491053067713381e+02 4.2000000000000000e+03 1.8000000000000000e+01 1.0000000000000000e+01 2.5000000000000000e+00 
7 2 4 2.2559723595316457e+00 1.4111192256579120e+03 4.2000000000000000e+03 0.0000000000000000e+00 1.2000000000000000e+01 2.5000000000000000e+00 
8 2 4 2.2559723595316457e+00 1.2133776726417966e+03 4.2000000000000000e+03 0.0000000000000000e+00 1.4000000000000000e+01 2.5000000000000000e+00 
27 2 4 2.2559723595316457e+00 -4.9891659539376178e+01 4.2000000000000000e+03 2.0000000000000000e+00 1.2000000000000000e+01 2.5000000000000000e+00 
28 2 4 2.2559723595316457e+00 1.0054083982624147e+02 4.2000000000000000e+03 2.0000000000000000e+00 1.4000000000000000e+01 2.5000000000000000e+00 
47 2 4 2.2559723595316457e+00 -2.9619745377840724e+02 4.2000000000000000e+03 4.0000000000000000e+00 1.2000000000000000e+01 2.5000000000000000e+00 
48 2 4 2.2559723595316457e+00 -2.6975101144026729e+02 4.2000000000000000e+03 4.0000000000000000e+00 1.4000000000000000e+01 2.5000000000000000e+00 
67 2 4 2.2559723595316457e+00 1.2173323328498489e+02 4.2000000000000000e+03 6.0000000000000000e+00 1.2000000000000000e+01 2.5000000000000000e+00 
68 2 4 2.2559723595316457e+00 -3.0367857728287748e+00 4.2000000000000000e+03 6.0000000000000000e+00 1.4000000000000000e+01 2.5000000000000000e+00 
87 2 4 2.2559723595316457e+00 4.4113100768389313e+02 4.2000000000000000e+03 8.0000000000000000e+00 1.2000000000000000e+01 2.5000000000000000e+00 
88 2 4 2.2559723595316457e+00 4.7103036914937846e+01 4.2000000000000000e+03 8.0000000000000000e+00 1.4000000000000000e+01 2.5000000000000000e+00 
107 2 4 2.2559723595316457e+00 8.1100377460215313e+01 4.2000000000000000e+03 1.0000000000000000e+01 1.2000000000000000e+01 2.5000000000000000e+00 
108 2 4 2.2559723595316457e+00 3.0240219140036589e+02 4.2000000000000000e+03 1.0000000000000000e+01 1.4000000000000000e+01 2.5000000000000000e+00 
127 2 4 2.2559723595316457e+00 3.5010165985943888e+02 4.2000000000000000e+03 1.2000000000000000e+01 1.2000000000000000e+01 2.5000000000000000e+00 
128 2 4 2.2559723595316457e+00 1.2582013421971963e+02 4.2000000000000000e+03 1.2000000000000000e+01 1.4000000000000000e+01 2.5000000000000000e+00 
147 2 4 2.2559723595316457e+00 9.0586818401221319e+02 4.2000000000000000e+03 1.4000000000000000e+01 1.2000000000000000e+01 2.5000000000000000e+00 
148 2 4 2.2559723595316457e+00 6.1365741279004328e+02 4.2000000000000000e+03 1.4000000000000000e+01 1.4000000000000000e+01 2.5000000000000000e+00 
167 2 4 2.2559723595316457e+00 -5.7611027904401351e+02 4.2000000000000000e+03 1.6000000000000000e+01 1.2000000000000000e+01 2.5000000000000000e+00 
168 2 4 2.2559723595316457e+00 -7.6179903743759880e+01 4.2000000000000000e+03 1.6000000000000000e+01 1.4000000000000000e+01 2.5000000000000000e+00 
187 2 4 2.2559723595316457e+00 -1.9207780336447499e+02 4.2000000000000000e+03 1.8000000000000000e+01 1.2000000000000000e+01 2.5000000000000000e+00 
188 2 4 2.2559723595316457e+00 4.0645461467979899e+01 4.2000000000000000e+03 1.8000000000000000e+01 1.4000000000000000e+01 2.5000000000000000e+00 
9 2 4 2.2559723595316457e+00 3.9882961090797050e+02 4.2000000000000000e+03 0.0000000000000000e+00 1.6000000000000000e+01 2.5000000000000000e+00 
29 2 4 2.2559723595316457e+00 5.6314750594040532e+01 4.2000000000000000e+03 2.0000000000000000e+00 1.6000000000000000e+01 2.5000000000000000e+00 
49 2 4 2.2559723595316457e+00 2.9438802679577168e+02 4.2000000000000000e+03 4.0000000000000000e+00 1.6000000000000000e+01 2.5000000000000000e+00 
69 2 4 2.2559723595316457e+00 3.2721943135049685e+02 4.2000000000000000e+03 6.0000000000000000e+00 1.6000000000000000e+01 2.5000000000000000e+00 
89 2 4 2.2559723595316457e+00 -6.6160060175129054e+00 4.2000000000000000e+03 8.0000000000000000e+00 1.6000000000000000e+01 2.5000000000000000e+00 
109 2 4 2.2559723595316457e+00 1.0626118117458518e+02 4.2000000000000000e+03 1.0000000000000000e+01 1.6000000000000000e+01 2.5000000000000000e+00 
129 2 4 2.2559723595316457e+00 -7.0110267489555789e-01 4.2000000000000000e+03 1.2000000000000000e+01 1.6000000000000000e+01 2.5000000000000000e+00 
149 2 4 2.2559723595316457e+00 2.5914950565905320e+02 4.2000000000000000e+03 1.4000000000000000e+01 1.6000000000000000e+01 2.5000000000000000e+00 
169 2 4 2.2559723595316457e+00 -2.2059100581903994e+02 4.2000000000000000e+03 1.6000000000000000e+01 1.6000000000000000e+01 2.5000000000000000e+00 
189 2 4 2.2559723595316457e+00 5.3720384603964192e+02 4.2000000000000000e+03 1.8000000000000000e+01 1.6000000000000000e+01 2.5000000000000000e+00 
10 2 4 2.2559723595316457e+00 -6.6276520721464408e+02 4.2000000000000000e+03 0.0000000000000000e+00 1.8000000000000000e+01 2.5000000000000000e+00 
30 2 4 2.2559723595316457e+00 5.4666857503628705e+01 4.2000000000000000e+03 2.0000000000000000e+00 1.8000000000000000e+01 2.5000000000000000e+00 
50 2 4 2.2559723595316457e+00 2.4307477831239109e+02 4.2000000000000000e+03 4.0000000000000000e+00 1.8000000000000000e+01 2.5000000000000000e+00 
70 2 4 2.2559723595316457e+00 1.3043983793658441e+02 4.2000000000000000e+03 6.0000000000000000e+00 1.8000000000000000e+01 2.5000000000000000e+00 
90 2 4 2.2559723595316457e+00 1.8802745706366952e+02 4.2000000000000000e+03 8.0000000000000000e+00 1.8000000000000000e+01 2.5000000000000000e+00 
110 2 4 2.2559723595316457e+00 -1.2105944943920733e+02 4.2000000000000000e+03 1.0000000000000000e+01 1.8000000000000000e+01 2.5000000000000000e+00 
130 2 4 2.2559723595316457e+00 -2.0876997601107189e+02 4.2000000000000000e+03 1.2000000000000000e+01 1.8000000000000000e+01 2.5000000000000000e+00 
150 2 4 2.2559723595316457e+00 2.0506378218097072e+02 4.2000000000000000e+03 1.4000000000000000e+01 1.8000000000000000e+01 2.5000000000000000e+00 
170 2 4 2.2559723595316457e+00 -1.0507056567039217e+03 4.2000000000000000e+03 1.6000000000000000e+01 1.8000000000000000e+01 2.5000000000000000e+00 
190 2 4 2.2559723595316457e+00 -3.8618134482424739e+02 4.2000000000000000e+03 1.8000000000000000e+01 1.8000000000000000e+01 2.5000000000000000e+00 
830 432 2 1.0279993460238441e+00 -1.0772561141750548e+05 4.2000000000000000e+03 1.1188907552426064e+01 1.1379246725933110e+00 6.8019605375749395e+00 
1200 802 2 1.0280037770219426e+00 2.3103577985383250e+04 4.2000000000000000e+03 9.4295041386195884e+00 1.4268531114617460e+00 7.4810306703011848e+00 
607 209 2 1.0279976027275357e+00 -7.9253538751608314e+04 4.2000000000000000e+03 1.5973969784226941e+01 1.3703814219745358e+00 6.5438300555117426e+00 
1343 945 2 1.0280017842368230e+00 -7.3028117873500567e+04 4.2000000000000000e+03 1.4762557764081127e+01 2.2793400166303841e+00 7.4414093988587764e+00 
1113 715 2 1.0280038819226347e+00 -5.3328967110702961e+03 4.2000000000000000e+03 1.8179689560617987e+01 5.4911762060897495e-01 8.2067532116025035e+00 
756 358 2 1.0280013363064551e+00 -3.2560516482893236e+03 4.2000000000000000e+03 1.8341448831834771e+01 2.5893435973443797e+00 6.6112048736882159e+00 
609 211 2 1.0280070759008491e+00 2.8243412307579019e+04 4.2000000000000000e+03 1.5518871250455909e+01 5.1790641848127974e+00 7.7558826873108684e+00 
1151 753 2 1.0279978509753542e+00 -1.1293408502829583e+05 4.2000000000000000e+03 1.5311574405527422e+01 6.3377964994971192e+00 8.1190843568461961e+00 
415 17 2 1.0279932202168292e+00 1.0910228647059434e+04 4.2000000000000000e+03 1.9674330253011533e+01 7.1579369858896937e+00 7.4704939949808571e+00 
861 463 2 1.0280430552052531e+00 -2.4041941559498846e+04 4.2000000000000000e+03 1.1128404953197055e+01 8.9339326574048439e+00 7.7479819928504838e+00 
1696 1298 2 1.0279570291810263e+00 5.3155979873908640e+04 4.2000000000000000e+03 1.1494243118188230e+01 9.4208624500768110e+00 7.9758351466742106e+00 
1024 626 2 1.0279978045665643e+00 8.8913445741412273e+04 4.2000000000000000e+03 9.3509326124191485e+00 5.6496571852859234e-01 9.2100872895939769e+00 
1654 1256 2 1.0280008380837313e+00 -1.3321357881204455e+05 4.2000000000000000e+03 1.2738915154804191e+01 1.1208634020084049e-01 8.3826342705575314e+00 
969 571 2 1.0280096477529568e+00 1.1840749473882977e+05 4.2000000000000000e+03 1.4498655802151271e+01 9.7276753912363412e-01 9.3208498712915624e+00 
578 180 2 1.0279958679302161e+00 -7.2993825663988071e+04 4.2000000000000000e+03 1.5910135104453067e+01 2.0559882852762321e+00 1.0695275065477402e+01 
919 521 2 1.0279008487074008e+00 -5.9437200350471445e+04 4.2000000000000000e+03 3.2909466876254880e+00 4.0279540156944051e+00 8.6437101574378428e+00 
1671 1273 2 1.0281006685001974e+00 -1.1120950258512334e+05 4.2000000000000000e+03 3.1485659290090360e+00 4.5332681924879061e+00 9.0231618575296988e+00 
1322 924 2 1.0280051552598792e+00 -1.2702360836266750e+05 4.2000000000000000e+03 8.2800872818617908e+00 4.6647973600526669e+00 9.2593588614554641e+00 
1786 1388 2 1.0279953696180895e+00 -1.3821843346648928e+05 4.2000000000000000e+03 6.7155031681331145e+00 5.6201587779122999e+00 9.7690655021338237e+00 
801 403 2 1.0279891056305743e+00 -1.9290655137800346e+04 4.2000000000000000e+03 9.1063271456721520e+00 3.0194727142166502e+00 1.0364873163962503e+01 
904 506 2 1.0280057389130908e+00 3.2189590693894483e+04 4.2000000000000000e+03 1.0932673695432479e+01 3.9462787742283769e+00 1.0973370957838593e+01 
637 239 2 1.0279974647775680e+00 6.9754416968495294e+04 4.2000000000000000e+03 1.5223246709424220e+01 3.2186410132594094e+00 9.4505781623798750e+00 
1792 1394 2 1.0280004660264279e+00 1.0812855359726635e+05 4.2000000000000000e+03 1.8984575433179320e+01 3.2190174116746251e+00 8.4208170680059613e+00 
417 19 2 1.0280035048953253e+00 2.8336664680452446e+04 4.2000000000000000e+03 9.9570162744630375e-01 8.4702564810760208e+00 9.7183855189887751e+00 
412 14 2 1.0279996695844089e+00 9.1129834683396184e+04 4.2000000000000000e+03 9.2338584137678730e+00 6.4561238347963386e+00 1.0196659573491923e+01 
920 522 2 1.0279988076925097e+00 8.2940164025570630e+04 4.2000000000000000e+03 1.0953637721248350e+01 6.8504949571314286e+00 1.0786252172111231e+01 
1533 1135 2 1.0280006552166603e+00 2.6011443664028670e+05 4.2000000000000000e+03 1.7140500058857612e+01 6.6378064261326353e+00 9.3779232314571512e+00 
1007 609 2 1.0280057692698332e+00 -1.0471504839741800e+05 4.2000000000000000e+03 1.9943596749939115e+01 7.6274432983968197e+00 8.8073014342032039e+00 
600 202 2 1.0279983697559332e+00 1.3794675414386883e+05 4.2000000000000000e+03 3.3494253637727178e-01 9.2239529780176657e+00 1.0680234185119895e+01 
1487 1089 2 1.0279894564586716e+00 -1.0543586177407594e+05 4.2000000000000000e+03 1.9694338055197008e+01 1.1216248300916789e+01 8.6907039520036928e+00 
959 561 2 1.0279986815046898e+00 -3.0736794794804089e+04 4.2000000000000000e+03 1.6883753387900544e+01 1.1603582610914684e+01 1.0496943284213744e+01 
1779 1381 2 1.0275118666994631e+00 -7.9550568238959677e+04 4.2000000000000000e+03 6.7603288353951543e+00 6.6781068873915950e-01 1.2435672395847533e+01 
985 587 2 1.0285026012900518e+00 6.4262354402923942e+04 4.2000000000000000e+03 7.2059099306104910e+00 3.5086610438476351e-01 1.2083953678165278e+01 
1949 1551 2 1.0280028629547782e+00 2.2854540442293899e+04 4.2000000000000000e+03 1.7950063195699993e+01 1.3794868155131237e+00 1.1220746310589352e+01 
1220 822 2 1.0280015367467268e+00 1.9184089166518886e+05 4.2000000000000000e+03 1.7919279644424382e+01 1.9076033514472737e+00 1.2738822138534790e+01 
1655 1257 2 1.0280006962968078e+00 -1.2044022696189584e+05 4.2000000000000000e+03 6.2220079743884122e+00 5.3815801113324309e+00 1.1399680505549409e+01 
789 391 2 1.0280003551682078e+00 2.8910311462272607e+03 4.2000000000000000e+03 9.8584189705134779e+00 4.0819028838363201e+00 1.1989495856871510e+01 
1932 1534 2 1.0279967033023123e+00 -3.5632976540330005e+03 4.2000000000000000e+03 1.9478895747251382e+01 3.0392284983122626e+00 1.2486329524320782e+01 
602 204 2 1.0280043694980578e+00 -8.3670198104484531e+04 4.2000000000000000e+03 1.9789652293168338e+01 4.2015476297262015e+00 1.1211494976111542e+01 
1386 988 2 1.0279990792863651e+00 -1.3563013776012376e+05 4.2000000000000000e+03 1.7604806202747184e+01 5.3441452221537666e+00 1.1202859174370790e+01 
1163 765 2 1.0279943017389128e+00 -1.4168090252502594e+05 4.2000000000000000e+03 4.5040730528007256e+00 6.8589682394907436e+00 1.2860435127164777e+01 
782 384 2 1.0280013322373802e+00 -6.4381176093793765e+04 4.2000000000000000e+03 5.8116215792953172e+00 5.9033816053333004e+00 1.3256415233943606e+01 
1250 852 2 1.0279993142757029e+00 -1.0287654671865600e+05 4.2000000000000000e+03 7.2279432937760797e+00 8.5356757858517351e+00 1.3448418522960306e+01 
1840 1442 2 1.0280000335804449e+00 1.5994098707725899e+05 4.2000000000000000e+03 1.0536365951506607e+01 8.4384047714517791e+00 1.1352551966245699e+01 
1541 1143 2 1.0280058170900062e+00 1.2969093737605701e+04 4.2000000000000000e+03 1.6947780843251181e+01 7.9347372727330283e+00 1.1170977203151370e+01 
748 350 2 1.0279983449503765e+00 9.4739230014582659e+04 4.2000000000000000e+03 1.8724620571045659e+01 6.6424056116834063e+00 1.1447863172273005e+01 
1862 1464 2 1.0280005496046487e+00 -2.0465355333298314e+05 4.2000000000000000e+03 5.7731311631626587e+00 9.0654473954388877e+00 1.2046225960664897e+01 
521 123 2 1.0280003044710273e+00 -1.9716731694395829e+04 4.2000000000000000e+03 7.2859785342832515e+00 8.6267354607777165e+00 1.1221765609789999e+01 
1098 700 2 1.0279999906632717e+00 -1.0783244996133799e+05 4.2000000000000000e+03 9.0926281285549706e+00 8.5762657361156744e+00 1.2614396329042332e+01 
1387 989 2 1.0280028797037166e+00 -1.4342127692851209e+05 4.2000000000000000e+03 1.6602564470622571e+01 9.6371166440057419e+00 1.2020578636070793e+01 
2000 1602 2 1.0279997891685806e+00 -1.0835001291681087e+04 4.2000000000000000e+03 1.5503312223999316e+01 1.1301712006154734e+01 1.2076407875434635e+01 
876 478 2 1.0280003529912694e+00 1.3525034700267293e+04 4.2000000000000000e+03 1.7297144986985945e+01 1.2194109296153641e+01 1.1950773135619276e+01 
643 245 2 1.0280190356346515e+00 -7.3436800805966850e+04 4.2000000000000000e+03 1.0020121592406359e+00 8.0985302361949536e+00 1.6251892379076622e+01 
1061 663 2 1.0279677112345011e+00 -7.5279100640071818e+04 4.2000000000000000e+03 2.8739540143253439e+00 8.2352371278203798e+00 1.6423372227770724e+01 
788 390 2 1.0280063023836969e+00 3.9381809883237220e+04 4.2000000000000000e+03 4.6674200069567657e+00 7.8139425211994524e+00 1.5026742204574656e+01 
1300 902 2 1.0280052983560692e+00 6.9361301242027417e+04 4.2000000000000000e+03 2.7200205708014620e+00 9.0307702986894078e+00 1.3907055671485212e+01 
1549 1151 2 1.0280058516129116e+00 1.4594264259472044e+05 4.2000000000000000e+03 1.1808933206861270e+00 9.5443669442519479e+00 1.5551642973302128e+01 
1959 1561 2 1.0279998700741211e+00 7.1366362456632705e+04 4.2000000000000000e+03 4.3635027284527954e+00 9.6443381743084853e+00 1.4254512231007933e+01 
759 361 2 1.0280674035722319e+00 -1.3706064323613112e+05 4.2000000000000000e+03 1.0246284666390540e+01 1.3971257229946735e+01 1.5242799501406701e+01 
648 250 2 1.0279443129173964e+00 1.5627144960556396e+04 4.2000000000000000e+03 1.0521391754007411e+01 1.4529225838046605e+01 1.5003146129407888e+01 
1105 707 2 1.0279991072731105e+00 7.3265583848202790e+04 4.2000000000000000e+03 5.7122279978919277e+00 1.7706515674534039e+01 1.5405912405732513e+01 
2034 1636 2 1.0280020063064281e+00 5.0166619896514720e+04 4.2000000000000000e+03 6.8823714603938431e+00 1.7169182059634956e+01 1.5081065505822293e+01 
418 20 2 1.0280019877812077e+00 -1.1713915350395269e+04 4.2000000000000000e+03 8.2813134010596574e+00 1.9569095436115422e+01 1.5421675384035616e+01 
1466 1068 2 1.0280001009549735e+00 -3.0849920671012864e+04 4.2000000000000000e+03 1.1820060329230833e+01 1.9370187497210665e+01 1.5972502310020571e+01 
1600 1202 2 1.0280138972366659e+00 -1.2712816133961054e+04 4.2000000000000000e+03 8.9431057027000129e+00 1.5996104287354679e+01 1.7639065353751036e+01 
1785 1387 2 1.0280008482795067e+00 6.0224153884701394e+04 4.2000000000000000e+03 6.3319211166317251e+00 1.8505537897051116e+01 1.7592738110124852e+01 
1805 1407 2 1.0280008064496247e+00 5.5903335631405025e+04 4.2000000000000000e+03 6.6814158338593090e+00 1.9855041382181650e+01 1.7166255239385958e+01 
814 416 2 1.0279940319060865e+00 -1.0605909205538410e+05 4.2000000000000000e+03 8.6108200142136333e+00 1.7265602835050391e+01 1.6895657594845158e+01 
511 113 2 1.0279998764784344e+00 -3.6390468841197990e+03 4.2000000000000000e+03 7.1348283386621132e+00 1.6032527396334885e+01 2.0363635264983390e+01 
407 9 2 1.0280031127255338e+00 6.1485768878998446e+04 4.2000000000000000e+03 7.9545711530407717e+00 1.6869649434398330e+01 2.1123718921495588e+01 
1566 1168 2 1.0279972121884478e+00 -1.0896356525225870e+05 4.2000000000000000e+03 9.0993703327469717e+00 1.5928592455964161e+01 1.9601339776444711e+01 
858 460 2 1.0280000000016283e+00 -1.2431925009719790e+05 4.2000000000000000e+03 1.7713834552187219e+01 1.5608996716890472e+01 2.2074657558229919e+01 
808 410 2 1.0280000000016283e+00 5.1802470131908514e+04 4.2000000000000000e+03 1.7796168034159194e+01 1.6091017254636338e+01 2.1650796956721194e+01 
1952 1554 2 1.0280005668211478e+00 4.1497796583762967e+04 4.2000000000000000e+03 7.2697763758674112e+00 1.3221934238557303e+01 2.3244016478565491e+01 
1610 1212 2 1.0279998716979892e+00 -8.2771398100918217e+04 4.2000000000000000e+03 8.4546817775173810e+00 1.3649028742787047e+01 2.4286535748442702e+01 
1190 792 2 1.0279998396652379e+00 -5.7243543730000594e+04 4.2000000000000000e+03 8.4838769528454137e+00 1.4377091915294034e+01 2.2672964884813400e+01 
1597 1199 2 1.0279990742028524e+00 -2.6528741674700388e+04 4.2000000000000000e+03 3.7749526014686920e+00 6.1292395063311811e-01 2.5109384067618393e+01 
1492 1094 2 1.0280006465890354e+00 6.4883456437435685e+04 4.2000000000000000e+03 5.2446404636877944e+00 1.1827965615242686e+00 2.6722065479191514e+01 
1683 1285 2 1.0279996558366531e+00 -9.8015065052417121e+04 4.2000000000000000e+03 4.7411572978417746e+00 2.2189256999936577e+00 2.6363460450350580e+01 
421 23 2 1.0279943361395345e+00 8.4948450682840557e+04 4.2000000000000000e+03 3.5148598189243687e+00 1.4330478953440522e+01 2.7127782453712818e+01 
1424 1026 2 1.0280068737846340e+00 6.0807512610508784e+04 4.2000000000000000e+03 4.0585547316767512e+00 1.4756064070784541e+01 2.6768287903635841e+01 
1759 1361 2 1.0279993877735958e+00 -1.0180832844893352e+05 4.2000000000000000e+03 1.1043680983761039e+01 1.6493864763664440e+01 2.7367044214421284e+01 
949 551 2 1.0279998063698137e+00 9.9961786651997900e+04 4.2000000000000000e+03 1.0502011739143217e+01 1.7045442983184778e+01 2.6833534735032234e+01 
472 74 2 1.0279999999975702e+00 4.3874080814076602e+04 4.2000000000000000e+03 1.7284260624302707e+01 1.4799225799734220e+01 2.6239095499004030e+01 
2021 1623 2 1.0279999999975702e+00 3.2363624617415753e+04 4.2000000000000000e+03 1.7731978474565576e+01 1.4353888527611822e+01 2.6097660527300647e+01 
1295 897 2 1.0280000936797877e+00 -5.9479902432548995e+04 4.2000000000000000e+03 5.9220550259027602e+00 1.3419781801521747e+01 2.9264086866833885e+01 
938 540 2 1.0279991856848993e+00 -1.6495507268882717e+05 4.2000000000000000e+03 5.1928950179562507e+00 1.4383606049868284e+01 2.9638982120603647e+01 
1079 681 2 1.0279979715615770e+00 -9.6053084338320477e+04 4.2000000000000000e+03 7.5687760928012846e+00 1.4896626167224909e+01 2.8991122225225784e+01 
895 497 2 1.0280012633667310e+00 -1.3072712675487428e+05 4.2000000000000000e+03 6.1119476502206549e+00 1.6790480175803861e+01 2.8316446686201527e+01 
1464 1066 2 1.0279992436163956e+00 1.2385366430739775e+05 4.2000000000000000e+03 8.8895015388335938e+00 1.6153881342461432e+01 2.8971471147825394e+01 
1043 645 2 1.0280002588359880e+00 -1.3233886289671288e+05 4.2000000000000000e+03 6.1996949651123545e+00 1.8131410816743536e+01 2.8249323057867425e+01 
974 576 2 1.0280001373448449e+00 -9.5763660152232216e+04 4.2000000000000000e+03 7.8877950504268570e+00 1.9475558544817243e+01 2.8867919690413903e+01 
1430 1032 2 1.0279993054517096e+00 -4.4360400613037629e+04 4.2000000000000000e+03 8.9483354023836874e+00 1.8188483264582196e+01 2.9109589944359477e+01 
1357 959 2 1.0280000007832768e+00 1.1106290035462553e+05 4.2000000000000000e+03 5.4125850216978479e+00 1.4318861170222179e+00 3.2514605125019337e+01 
931 533 2 1.0280000086085979e+00 -5.1064875680788173e+04 4.2000000000000000e+03 4.5148620439839293e+00 2.0426385445684478e+00 3.2295145741595057e+01 
1752 1354 2 1.0279999922203997e+00 3.6256459737869787e+04 4.2000000000000000e+03 6.3247308188843219e+00 6.3945665335442010e+00 3.2716932137661729e+01 
758 360 2 1.0279960010152080e+00 -1.4674075834234984e+05 4.2000000000000000e+03 2.8494122782777870e-01 1.5760991796922172e+01 3.2489568502236438e+01 
770 372 2 1.0279981568054408e+00 -8.0936799043584761e+04 4.2000000000000000e+03 2.2255891475953620e+00 1.9006116175043818e+01 3.1713472432333681e+01 
1418 1020 2 1.0280001342083795e+00 -9.7355129290199780e+04 4.2000000000000000e+03 3.9698150331839375e+00 1.9640177343431855e+01 3.1138437982121523e+01 