LAMMPS data file via write_data, version 30 Jul 2016, timestep = 50000000

4620 atoms
8 atom types

0.0000000000000000e+00 1.0000000000000000e+02 xlo xhi
0.0000000000000000e+00 4.0000000000000000e+01 ylo yhi
0.0000000000000000e+00 4.0000000000000000e+01 zlo zhi

Masses

1 3.896
2 5.36
3 20.064
4 8.378
5 8.378
6 8.378
7 8.378
8 8.378

Atoms # meso-molecular

1860 1861 2 1.0280000000020906e+00 -2.1612064315230036e+01 1.0000000000000000e+00 1.0513799128360675e+00 1.8723888596719103e+01 1.4368423386458009e+00 
1936 1937 2 1.0279999999916321e+00 -6.5882315223984271e+00 1.0000000000000000e+00 8.1829667089242675e-01 1.7833962395748006e+01 2.1885844123728027e+00 
2322 2323 2 1.0279999999918767e+00 -2.0239218106382534e+01 1.0000000000000000e+00 1.3762454868221161e+00 1.9955741068663063e+01 2.0152977384056192e+00 
2446 2447 2 1.0280000000153477e+00 1.1009485950303670e+03 1.0000000000000000e+00 1.1095601817500715e+00 1.9081546530723084e+01 3.0402963623491051e+00 
48 49 2 1.0280000000075824e+00 -3.9505729768163314e+02 1.0000000000000000e+00 9.5913910175180572e-01 1.9846701139382507e+01 5.9531117878616744e+00 
1984 1985 2 1.0279999999930902e+00 1.1027016814765395e+03 1.0000000000000000e+00 1.2353648860714408e+00 1.9998642515485741e+01 5.0785858986072077e+00 
63 64 2 1.0279999999983589e+00 -8.6524975275171414e+02 1.0000000000000000e+00 1.9576926762280034e+00 1.9024468821522994e+01 7.2870124421571862e+00 
2 3 2 1.0280000000291782e+00 -1.5091179286555603e+03 1.0000000000000000e+00 8.2618215708798215e-01 1.9504735320196733e+01 8.8639376896229418e+00 
188 189 2 1.0279999999975726e+00 8.0734790566977813e+02 1.0000000000000000e+00 2.0595356858813658e+00 1.8825547550098982e+01 8.3476704787961094e+00 
4216 4217 2 1.0279999999889460e+00 -8.4717669385505258e+02 1.0000000000000000e+00 1.4359572532109643e+00 8.3829575041945148e-01 1.1142496979756487e+01 
3506 3507 2 1.0280000000247160e+00 -1.0725519312377169e+03 1.0000000000000000e+00 2.0161378212937899e+00 1.7663647203474981e+00 1.1701306272228379e+01 
766 767 2 1.0279999999851002e+00 -1.2947304609215398e+03 1.0000000000000000e+00 3.6346196273248128e+00 2.0544070455173374e-01 1.1640506156581033e+01 
3422 3423 2 1.0280000000237193e+00 -1.0707878778657009e+03 1.0000000000000000e+00 4.9279719027318408e-01 5.3212795547523166e+00 1.1317430997322965e+01 
3338 3339 2 1.0279999999956646e+00 1.0297213425185425e+03 1.0000000000000000e+00 5.2908515822541524e-01 6.4751786798741131e+00 1.1120363629463631e+01 
1953 1954 2 1.0280000000090799e+00 -3.5819861757086319e+03 1.0000000000000000e+00 3.7587663378901448e+00 1.7743071672612341e+01 1.1653314294986190e+01 
1974 1975 2 1.0280000000077536e+00 6.4532597350168055e+02 1.0000000000000000e+00 1.3134287950530263e+00 1.8791778767390618e+01 1.0954166865067867e+01 
175 176 2 1.0279999999827942e+00 -3.9773408411994876e+02 1.0000000000000000e+00 2.0791841086002756e+00 1.9134722831999280e+01 1.0396445820077300e+01 
2415 2416 2 1.0279999999886165e+00 -3.5823320258683107e+03 1.0000000000000000e+00 3.7742082476310146e+00 1.9320064430821514e+01 1.1830432323901064e+01 
4552 4553 2 1.0279999999968941e+00 -8.4623446899816986e+02 1.0000000000000000e+00 1.4034846807843049e+00 3.4978855169598633e-01 1.2118653818909463e+01 
729 730 2 1.0280000000539893e+00 -2.1387691134422030e+03 1.0000000000000000e+00 1.7895921449160188e+00 3.2890305331467400e+00 1.3313270739030580e+01 
3590 3591 2 1.0280000000126093e+00 1.0300106983562096e+03 1.0000000000000000e+00 2.1603552738722365e+00 2.8501090549572421e+00 1.2651126587068275e+01 
645 646 2 1.0279999999892924e+00 -2.1398292925566084e+03 1.0000000000000000e+00 5.5084120080012899e-01 5.4299557477925369e+00 1.2931171989702079e+01 
390 391 2 1.0279999999536846e+00 -1.7322766593868155e+03 1.0000000000000000e+00 1.7187954282958773e+00 4.8586183712244306e+00 1.3913702505073680e+01 
1280 1281 2 1.0280000000017009e+00 1.0376113497336248e+03 1.0000000000000000e+00 1.8158241045024022e+00 6.7804579484975820e+00 1.2027953700188993e+01 
1196 1197 2 1.0280000000021878e+00 -1.0640335338950122e+03 1.0000000000000000e+00 1.5096423542764255e+00 7.3871917858817140e+00 1.2595213229225156e+01 
2205 2206 2 1.0279999999947216e+00 -3.5844658103423280e+03 1.0000000000000000e+00 3.4183162600328409e+00 1.7541583068485714e+01 1.2544993334032981e+01 
466 467 2 1.0280000000236345e+00 -4.5570003036516295e+02 1.0000000000000000e+00 1.0297018321359868e+00 1.9205092349784689e+01 1.2565704220586099e+01 
2667 2668 2 1.0280000000061409e+00 -3.5831450936790252e+03 1.0000000000000000e+00 3.2539976064036282e+00 1.8961296603409608e+01 1.2777750508782052e+01 
2116 2117 2 1.0280000000126548e+00 2.1869442928821945e+03 1.0000000000000000e+00 5.3814937934145324e-01 1.6182136879990998e+00 1.5298837529016193e+01 
2032 2033 2 1.0279999999878802e+00 2.1857204089056913e+03 1.0000000000000000e+00 4.0410251440488570e-02 2.0490696383840827e+00 1.4288511947103338e+01 
932 933 2 1.0280000000506742e+00 -3.2047816466708741e+02 1.0000000000000000e+00 1.2796880556936039e-02 3.9734020692308332e+00 1.5575952078878355e+01 
305 306 2 1.0280000000636484e+00 -1.0836394707755480e+03 1.0000000000000000e+00 1.2340682713622135e+00 4.4400669193366600e+00 1.4659219165611416e+01 
1105 1106 2 1.0279999999877232e+00 -1.3341856339235114e+03 1.0000000000000000e+00 6.2879915451755988e-02 1.6207704192005508e+01 1.4776491703703437e+01 
2079 2080 2 1.0279999999790757e+00 1.1170362036643387e+03 1.0000000000000000e+00 8.6633827628886551e-01 1.8302619945090946e+01 1.5109023826845322e+01 
4388 4389 2 1.0280000000119274e+00 -2.3648048461771223e+03 1.0000000000000000e+00 1.8377025316171163e+00 1.9782084519987549e+01 1.5345402284800658e+01 
230 231 2 1.0280000000142822e+00 -2.3650481460793917e+03 1.0000000000000000e+00 2.0173717078093065e+00 1.8538594022414149e+01 1.5159413355894348e+01 
263 264 2 1.0279999999866989e+00 5.7107990335763270e+02 1.0000000000000000e+00 6.0139776184016136e-01 2.1027481342725918e+00 1.6671067739972042e+01 
468 469 2 1.0280000000076357e+00 -3.4199395769139812e+02 1.0000000000000000e+00 1.0020378459120360e+00 1.7457482853188434e+01 1.7209917333560401e+01 
1937 1938 2 1.0280000000033249e+00 -2.9192582696844220e+03 1.0000000000000000e+00 1.4511464052298337e+00 1.7439063725976176e+01 1.6649879672448574e+01 
2226 2227 2 1.0279999999997884e+00 6.5511406863462366e+02 1.0000000000000000e+00 1.7143237124529109e+00 1.8552642612695870e+01 1.9358896739609008e+01 
886 887 2 1.0279999999840421e+00 -4.5040430024410125e+02 1.0000000000000000e+00 1.4551331876295477e+00 1.9003579515847068e+01 1.8342887892025608e+01 
2147 2148 2 1.0280000000069280e+00 -1.8536357138961466e+03 1.0000000000000000e+00 2.1504520888008993e-01 1.8645417385654209e+01 2.1518146080463094e+01 
422 423 2 1.0280000000106586e+00 -1.4945293327769318e+03 1.0000000000000000e+00 1.4539459275791580e+00 1.9328312524327703e+01 2.1254361393255547e+01 
259 260 2 1.0279999999968721e+00 -4.0879652989441922e+02 1.0000000000000000e+00 2.2917328249637010e+00 1.9291312258018387e+01 2.0410931509722417e+01 
272 273 2 1.0279999999814113e+00 8.0885232007981608e+02 1.0000000000000000e+00 1.6184869055568836e+00 1.9190950598325376e+01 2.3056483124282941e+01 
399 400 2 1.0279999999987315e+00 -8.6526221625221137e+02 1.0000000000000000e+00 1.2919400369708467e+00 1.9306126065625467e+01 2.4312806004959615e+01 
2614 2615 2 1.0280000000131109e+00 1.1007918398952145e+03 1.0000000000000000e+00 1.1350483309554409e+00 1.9905183904256059e+01 2.6832727545780664e+01 
2188 2189 2 1.0279999999879548e+00 -7.1498589796276732e+00 1.0000000000000000e+00 4.7839310311089756e-01 1.9183937743859136e+01 2.8226845185280943e+01 
316 317 2 1.0279999999993708e+00 -2.3499325416170796e+03 1.0000000000000000e+00 3.2996885551501647e+00 1.8995177461197081e+01 3.1899837506917446e+01 
315 316 2 1.0280000000223868e+00 -2.3287834893918307e+03 1.0000000000000000e+00 1.6320239171021809e+00 1.9326330334335918e+01 3.2046751799750361e+01 
147 148 2 1.0279999999882148e+00 -2.3258810018963914e+03 1.0000000000000000e+00 1.6204506411845661e+00 1.9415739030338727e+01 3.2968728241307630e+01 
148 149 2 1.0279999999992546e+00 -2.3490739742181422e+03 1.0000000000000000e+00 3.2842822264371825e+00 1.9007704131924019e+01 3.3300316868994955e+01 
2398 2399 2 1.0280000000090621e+00 -5.6074412700352294e+00 1.0000000000000000e+00 7.3854275343984244e-01 2.0998984189499865e+01 2.8063627586839455e+00 
4160 4161 2 1.0279999999842739e+00 -1.4931084910508080e+03 1.0000000000000000e+00 2.3586427088261516e-01 2.0654980016159140e+01 7.8483978320331316e+00 
4221 4222 2 1.0280000000112790e+00 -8.6434053702793153e+02 1.0000000000000000e+00 2.0679598650856699e+00 2.0542118130698007e+01 7.2962153893072159e+00 
4333 4334 2 1.0280000000170508e+00 -4.0731597973259375e+02 1.0000000000000000e+00 1.0993523179981344e+00 2.1718931037415430e+01 8.2976731844141582e+00 
4346 4347 2 1.0279999999811682e+00 8.0899387117002607e+02 1.0000000000000000e+00 2.3488447865348214e+00 2.0713887330053556e+01 8.5969698051882943e+00 
2363 2364 2 1.0279999999975160e+00 8.0714497738696821e+02 1.0000000000000000e+00 1.9976318454950899e+00 3.7325885391493479e+01 9.1825601753118367e+00 
3797 3798 2 1.0279999999952607e+00 1.6536404567732889e+03 1.0000000000000000e+00 3.7956975138688964e+00 3.7202707873674612e+01 9.6500234371275830e+00 
3832 3833 2 1.0279999999839387e+00 -1.2924334377880559e+03 1.0000000000000000e+00 4.4412679366754482e+00 3.6746732356959377e+01 9.9208023546564714e+00 
1901 1902 2 1.0280000000008658e+00 8.0871515778437242e+02 1.0000000000000000e+00 2.1395276553518032e+00 3.8141818562065772e+01 8.9451013374131154e+00 
563 564 2 1.0279999999880167e+00 1.6503362559341736e+03 1.0000000000000000e+00 3.7115785828830905e+00 3.9055537597661612e+01 9.6137562680174717e+00 
4244 4245 2 1.0280000000621852e+00 -1.3644803091715357e+03 1.0000000000000000e+00 2.0957455404749781e-01 2.1433411335089694e+01 1.1337243683059199e+01 
86 87 2 1.0279999999753255e+00 -1.3615831528887952e+03 1.0000000000000000e+00 1.1489492101669809e+00 2.0520775009011125e+01 1.1891895574071926e+01 
2019 2020 2 1.0280000000058507e+00 -2.9512704946154590e+03 1.0000000000000000e+00 2.3974292861885873e+00 2.1003804583979015e+01 1.0139744314082376e+01 
2481 2482 2 1.0280000000115352e+00 -2.9351833194258897e+03 1.0000000000000000e+00 2.6952760117623793e+00 2.0478391200919567e+01 1.1271210846538260e+01 
2436 2437 2 1.0279999999889635e+00 6.3367124122467771e+02 1.0000000000000000e+00 1.3727077040864233e+00 2.2307907974397107e+01 1.0295917473760266e+01 
3700 3701 2 1.0279999999935723e+00 -4.4549448530853590e+02 1.0000000000000000e+00 1.5682031579495788e+00 2.2339386922506410e+01 1.1369704245138980e+01 
3367 3368 2 1.0280000000470872e+00 1.5692447218205214e+03 1.0000000000000000e+00 2.2537698618014582e-01 2.4210520614134460e+01 1.1406770052690899e+01 
3879 3880 2 1.0279999999978879e+00 -2.1433057725158942e+03 1.0000000000000000e+00 5.6931963388861710e+00 3.5985955471959521e+01 1.0855576221429137e+01 
4000 4001 2 1.0280000000324780e+00 -1.2925792077307156e+03 1.0000000000000000e+00 3.8436245031017831e+00 3.7310454744965696e+01 1.1936703361749933e+01 
3963 3964 2 1.0280000000082288e+00 -2.1443932254228848e+03 1.0000000000000000e+00 5.3787967932441605e+00 3.6088460284827249e+01 1.1397996745774860e+01 
394 395 2 1.0280000000350802e+00 -8.4891038112226147e+02 1.0000000000000000e+00 1.4640475618026889e+00 3.8101022727691578e+01 1.1522878669280995e+01 
58 59 2 1.0280000000313128e+00 -8.4714428973269719e+02 1.0000000000000000e+00 1.6734511269450452e+00 3.8132053561226229e+01 1.0584098999399330e+01 
598 599 2 1.0280000000141245e+00 -1.2947330094419931e+03 1.0000000000000000e+00 3.9080091904596643e+00 3.9598535947671927e+01 1.0039110303362380e+01 
2829 2830 2 1.0279999999436393e+00 -2.1637620281121190e+03 1.0000000000000000e+00 2.7111913729485630e+00 2.2466010515838189e+01 1.3102599994686033e+01 
2830 2831 2 1.0280000000465723e+00 -2.3469828011008426e+03 1.0000000000000000e+00 3.0196155741279709e+00 2.2571980094973796e+01 1.2842027127180586e+01 
4049 4050 2 1.0279999999949423e+00 1.6529132054705328e+03 1.0000000000000000e+00 3.4559868540759298e+00 3.7604597252737584e+01 1.2159460942275187e+01 
2699 2700 2 1.0280000000411227e+00 8.0723376226775622e+02 1.0000000000000000e+00 1.4528414203475069e+00 3.8160359305465583e+01 1.3070430707689967e+01 
2237 2238 2 1.0279999999701392e+00 8.0874430558253357e+02 1.0000000000000000e+00 1.7987744883565886e+00 3.9050525250077690e+01 1.3168089446411901e+01 
815 816 2 1.0280000000409526e+00 1.6507268445448806e+03 1.0000000000000000e+00 3.3592270374275079e+00 3.9674946812627361e+01 1.2029454885704371e+01 
2541 2542 2 1.0279999999753597e+00 1.1165701735500152e+03 1.0000000000000000e+00 7.3978180459757281e-01 2.0342692280035493e+01 1.5248266064887531e+01 
4511 4512 2 1.0280000000540788e+00 9.4716880241608322e+01 1.0000000000000000e+00 1.2748846721458040e+00 3.8072957275879077e+01 1.5058386497433277e+01 
353 354 2 1.0280000000924292e+00 9.4919745771265269e+01 1.0000000000000000e+00 1.2278854237468271e+00 3.8616004986851294e+01 1.5109041048693536e+01 
4337 4338 2 1.0280000000683818e+00 5.6675509170906207e+02 1.0000000000000000e+00 9.8964669314020315e-01 3.5041834976733739e+01 1.7002093259220253e+01 
4295 4296 2 1.0279999999159446e+00 -1.0876622327469418e+03 1.0000000000000000e+00 1.8732893030166549e+00 3.4451327607738605e+01 1.7604309948023889e+01 
2949 2950 2 1.0279999999981144e+00 2.6635643665262592e+03 1.0000000000000000e+00 1.4733317544828287e-01 3.6988422401729899e+01 1.7170151122080789e+01 
338 339 2 1.0280000000006579e+00 -1.3681993181252024e+03 1.0000000000000000e+00 1.8418575986082109e+00 2.0313926061192724e+01 1.8817149522027066e+01 
2565 2566 2 1.0280000000073959e+00 -2.9622829478466692e+03 1.0000000000000000e+00 2.3770474238738428e+00 2.1070733892959662e+01 1.9923640216482816e+01 
3535 3536 2 1.0280000000043956e+00 1.5607972934642037e+03 1.0000000000000000e+00 1.2362567040011767e+00 2.2049706507296261e+01 1.8453228324023122e+01 
4495 4496 2 1.0280000000106440e+00 -2.2698543447488573e+03 1.0000000000000000e+00 6.3070092142078815e-02 2.2615142462028864e+01 1.9476062759420095e+01 
4120 4121 2 1.0279999999901375e+00 -4.4805693820397539e+02 1.0000000000000000e+00 2.2229970366546272e+00 2.2167609352646156e+01 1.9258978560806007e+01 
4212 4213 2 1.0280000000349392e+00 -1.7306937993121646e+03 1.0000000000000000e+00 2.8350751574058886e+00 3.3998852765895307e+01 1.8281201813667913e+01 
4421 4422 2 1.0280000000215799e+00 5.6649363573703624e+02 1.0000000000000000e+00 5.1413430311566288e-01 3.4956832730022100e+01 1.9773081061697969e+01 
4463 4464 2 1.0280000000488674e+00 -1.0878381003449535e+03 1.0000000000000000e+00 1.6261877474771955e+00 3.4512673332925409e+01 1.9792608083445458e+01 
4548 4549 2 1.0279999999820542e+00 -1.7332073291507209e+03 1.0000000000000000e+00 2.8109205855853427e+00 3.4383975299601815e+01 1.9343785491848038e+01 
4544 4545 2 1.0280000000622298e+00 3.3122047988047093e+03 1.0000000000000000e+00 8.4819053107824546e-02 3.6420945315229439e+01 1.9409174251782808e+01 
3033 3034 2 1.0279999999143075e+00 2.6652442172240353e+03 1.0000000000000000e+00 2.4385017662185626e-01 3.7529914315732185e+01 1.9188337312149965e+01 
2821 2822 2 1.0279999999735230e+00 -2.2215844971602664e+03 1.0000000000000000e+00 1.1548770786009160e-01 2.0844949329096206e+01 2.0666444220814391e+01 
2688 2689 2 1.0280000000180782e+00 6.4666941415301130e+02 1.0000000000000000e+00 1.0095521545464510e+00 2.1886225675312346e+01 2.0694503558993066e+01 
4487 4488 2 1.0279999999699176e+00 8.9737780409504239e+01 1.0000000000000000e+00 2.0145347891054448e+00 3.7748317649386699e+01 2.0542820480352141e+01 
764 765 2 1.0279999999933527e+00 -2.4019622917436163e+03 1.0000000000000000e+00 1.6926574573785709e+00 3.8649617316754266e+01 2.1760629089003771e+01 
791 792 2 1.0279999999991203e+00 -2.4114946774193722e+03 1.0000000000000000e+00 3.1009695002503785e+00 3.8057170368134344e+01 2.1534889529416407e+01 
4460 4461 2 1.0280000000197482e+00 1.2443550552389962e+02 1.0000000000000000e+00 2.7542110083206488e+00 3.8680738230206664e+01 2.0409325011571472e+01 
4430 4431 2 1.0280000000080545e+00 8.0742753711911291e+02 1.0000000000000000e+00 1.4003590909507497e+00 2.0681703355703139e+01 2.3123466949356246e+01 
596 597 2 1.0279999999874645e+00 -2.4035588846865212e+03 1.0000000000000000e+00 1.7993216471925941e+00 3.9117436804904592e+01 2.3065024306267890e+01 
623 624 2 1.0279999999980094e+00 -2.4092417825636867e+03 1.0000000000000000e+00 3.5058896482373396e+00 3.8718931123132755e+01 2.3244115489675167e+01 
4557 4558 2 1.0279999999978700e+00 -8.6474825504346927e+02 1.0000000000000000e+00 1.2381181197417597e+00 2.0740497626734967e+01 2.4395749187264006e+01 
4292 4293 2 1.0280000000022289e+00 1.2371051991995748e+02 1.0000000000000000e+00 3.3810096077957970e+00 3.9444901829183443e+01 2.4050560136003700e+01 
4319 4320 2 1.0280000000037985e+00 8.9980446743357305e+01 1.0000000000000000e+00 2.2282026763065121e+00 3.8771805106173510e+01 2.4209655955621113e+01 
2152 2153 2 1.0279999999914373e+00 1.1004195792598082e+03 1.0000000000000000e+00 1.1936149121187518e+00 2.0885938781484075e+01 2.6777007710027860e+01 
2564 2565 2 1.0279999999904774e+00 1.5376148398827982e+03 1.0000000000000000e+00 6.2205261602444473e-01 2.3130960022943249e+01 2.6909574053610807e+01 
2650 2651 2 1.0279999999888236e+00 -5.8242342499944861e+00 1.0000000000000000e+00 1.0252367985906168e+00 2.1965987907149930e+01 2.8060940109172613e+01 
2742 2743 2 1.0280000000009453e+00 -2.1146093685565461e+01 1.0000000000000000e+00 1.0105210484947402e+00 2.0986368580787893e+01 2.9265622265301328e+01 
2280 2281 2 1.0280000000003173e+00 -2.1573986870043115e+01 1.0000000000000000e+00 5.8074242267467058e-01 2.0045423362139271e+01 2.9363444232282582e+01 
4429 4430 2 1.0279999999961160e+00 1.1997858464214314e+03 1.0000000000000000e+00 3.7071704419078566e-01 2.3295060409928556e+01 2.8059250121568301e+01 
1444 1445 2 1.0279999999837144e+00 -2.3468399322217847e+03 1.0000000000000000e+00 2.8419879820590537e+00 2.1825315508078880e+01 3.0689006503119209e+01 
4474 4475 2 1.0280000000050142e+00 -2.3488434132187176e+03 1.0000000000000000e+00 3.3791815820374502e+00 2.0362345887547431e+01 3.1906598010020243e+01 
1443 1444 2 1.0280000000086984e+00 -2.1625562295597501e+03 1.0000000000000000e+00 2.7989585937389547e+00 2.2061581617894038e+01 3.1101174245844916e+01 
4306 4307 2 1.0279999999982978e+00 -2.3487210712596843e+03 1.0000000000000000e+00 3.2559036554684884e+00 2.0288019574256218e+01 3.3235313081275962e+01 
1274 1275 2 1.0279999999999976e+00 2.9117109465126186e+03 1.0000000000000000e+00 5.9412321530322764e+01 5.0871606707800607e+00 3.3817494369302237e+00 
2241 2242 2 1.0279999999999976e+00 -8.8895485727391929e+02 1.0000000000000000e+00 5.9522318133525140e+01 4.8171311604826261e+00 3.4584327341004473e+00 
817 818 2 1.0280000000515019e+00 2.3056355251543023e+03 1.0000000000000000e+00 5.5176518156057625e+01 1.1229635765427033e+00 7.6647861884051824e+00 
2110 2111 2 1.0279999999316178e+00 1.0088153199204457e+03 1.0000000000000000e+00 5.5736182869981860e+01 2.4270533166807925e-01 7.3375299517533437e+00 
1736 1737 2 1.0280000000709828e+00 2.4700796051481425e+03 1.0000000000000000e+00 5.7054537790481064e+01 7.6198225239418171e-01 7.5966054830960772e+00 
3413 3414 2 1.0279999999794183e+00 3.7148836947450172e+03 1.0000000000000000e+00 5.5464758748860390e+01 3.1429753065046824e+00 6.8230628458371818e+00 
1192 1193 2 1.0280000000162277e+00 -8.6891481000832755e+02 1.0000000000000000e+00 5.4883259388328526e+01 2.4939582144546475e+00 7.7612406756888195e+00 
396 397 2 1.0279999999891682e+00 -1.3933724097801542e+02 1.0000000000000000e+00 5.6663553540767907e+01 2.1982976413296309e+00 6.3385892599674918e+00 
940 941 2 1.0280000000187066e+00 -1.1684093090254451e+03 1.0000000000000000e+00 5.7101156126941746e+01 2.3276430999229283e+00 7.1128883327549168e+00 
1905 1906 2 1.0280000000498992e+00 -8.8847245039850031e+02 1.0000000000000000e+00 5.4543850546127977e+01 4.1909426057810126e+00 7.4735354218989842e+00 
4301 4302 2 1.0279999999999061e+00 3.2998915220093828e+01 1.0000000000000000e+00 6.4650376445948865e+01 1.5033210980381021e+01 7.8462476469543265e+00 
1360 1361 2 1.0279999998371017e+00 -1.1629101040339542e+03 1.0000000000000000e+00 5.8261210069607706e+01 2.5298652413789408e-01 8.3034755890806586e+00 
986 987 2 1.0279999999663147e+00 9.7616291430730780e+02 1.0000000000000000e+00 6.6486461214404443e+01 7.6319874579352265e-01 8.1276176300330718e+00 
255 256 2 1.0279999999041320e+00 -9.5760070623653382e+02 1.0000000000000000e+00 5.3258310651355373e+01 3.0017198482150680e+00 8.6171740176405329e+00 
256 257 2 1.0280000000703131e+00 -6.0178573032040845e+02 1.0000000000000000e+00 5.2933124525640451e+01 3.5397925399915176e+00 8.6204853666003878e+00 
172 173 2 1.0279999999769707e+00 -6.0231489613707663e+02 1.0000000000000000e+00 6.4456786898865573e+01 2.9962800594382677e+00 8.7394605108745420e+00 
171 172 2 1.0279999999719900e+00 -9.5753511805218932e+02 1.0000000000000000e+00 6.4746681143080053e+01 3.4514178352943277e+00 8.5511484115051015e+00 
565 566 2 1.0280000000141578e+00 2.3053730847167380e+03 1.0000000000000000e+00 5.3556305716538375e+01 5.7213900951076795e+00 9.0726055736384499e+00 
1022 1023 2 1.0279999999931744e+00 2.9112541499919857e+03 1.0000000000000000e+00 5.3980187904543520e+01 4.9989088575419833e+00 8.0024915657947933e+00 
1108 1109 2 1.0280000000101086e+00 -8.6897261932187303e+02 1.0000000000000000e+00 5.3160430536401428e+01 6.3171390054026073e+00 9.7469166394073206e+00 
1111 1112 2 1.0279999999301428e+00 -1.2223810409334292e+03 1.0000000000000000e+00 5.7083615512254184e+01 1.1319065001878995e+01 9.8517764410896298e+00 
1569 1570 2 1.0280000000121032e+00 2.5643227368962880e+03 1.0000000000000000e+00 6.5973010719065172e+01 1.1654720510517199e+01 9.5669215623167894e+00 
1570 1571 2 1.0279999999908780e+00 2.2257099995532735e+03 1.0000000000000000e+00 6.5060135783724178e+01 1.1879169500188004e+01 9.7508450048209685e+00 
480 481 2 1.0280000000113676e+00 -1.2616973290109004e+02 1.0000000000000000e+00 5.6002035702365262e+01 1.3963497453707145e+01 9.3555111284865600e+00 
650 651 2 1.0279999999335305e+00 -1.5343379557356157e+03 1.0000000000000000e+00 5.7754024478539293e+01 1.3265070598646229e+01 9.4976309194744761e+00 
976 977 2 1.0279999999655698e+00 2.9196353434396337e+02 1.0000000000000000e+00 6.0804313518283209e+01 1.3238304898992840e+01 9.2008242830549900e+00 
106 107 2 1.0280000000127758e+00 -3.9068922149225455e+02 1.0000000000000000e+00 6.1563293806173775e+01 1.3303049892446186e+01 9.2303298640893114e+00 
1482 1483 2 1.0279999999912042e+00 1.7129745623929939e+03 1.0000000000000000e+00 6.5487720564864247e+01 1.3450660424685550e+01 9.4514317812560051e+00 
2859 2860 2 1.0280000000935117e+00 1.1338896716003685e+03 1.0000000000000000e+00 4.9118113727177949e+01 1.5335095788470255e+01 9.0080541414486568e+00 
2483 2484 2 1.0279999998786729e+00 1.3600859484201692e+03 1.0000000000000000e+00 4.9282559384065458e+01 1.4986034609357679e+01 9.1760656661783369e+00 
146 147 2 1.0280000000075062e+00 -6.8881648200159020e+02 1.0000000000000000e+00 5.2768276427894961e+01 1.4523955093183462e+01 8.6023275670020425e+00 
3309 3310 2 1.0280000000315417e+00 2.9992505996947551e+02 1.0000000000000000e+00 5.3108984535379811e+01 1.5919442717225667e+01 8.6443395909192127e+00 
186 187 2 1.0279999999810141e+00 2.3583654137818414e+02 1.0000000000000000e+00 5.3971486425028573e+01 1.4410442493284549e+01 8.2000056502951217e+00 
3887 3888 2 1.0279999999874301e+00 -1.5086746057613213e+03 1.0000000000000000e+00 5.5145523971946425e+01 1.5166115054046930e+01 8.0962683495517620e+00 
4304 4305 2 1.0280000000073937e+00 -6.8643851253399498e+02 1.0000000000000000e+00 5.6088974495904139e+01 1.4787060102860288e+01 8.3506681607327717e+00 
2497 2498 2 1.0279999999024754e+00 2.6804571735075333e+03 1.0000000000000000e+00 5.8768117087358888e+01 1.4186163394715775e+01 9.4990687330656911e+00 
3421 3422 2 1.0279999999952909e+00 -1.2212514169952683e+03 1.0000000000000000e+00 5.8682584887192021e+01 1.5504898578566966e+01 8.9629979878188948e+00 
143 144 2 1.0280000000068532e+00 3.5075385430198004e+01 1.0000000000000000e+00 6.4653685315074100e+01 1.4190439155058629e+01 8.1966920754824990e+00 
4236 4237 2 1.0279999999858866e+00 -1.9534395415375729e+03 1.0000000000000000e+00 6.6061227382742757e+01 1.5402471948362074e+01 8.1245169041673009e+00 
78 79 2 1.0280000000085165e+00 -1.9489659118060270e+03 1.0000000000000000e+00 6.6658039589961319e+01 1.4595258469560639e+01 8.1103788478669721e+00 
2416 2417 2 1.0279999999715548e+00 -3.5832820529488035e+03 1.0000000000000000e+00 5.0901475298031031e+01 1.6058313736712126e+01 9.9762643201500101e+00 
4184 4185 2 1.0280000000314211e+00 -3.6467505095807746e+03 1.0000000000000000e+00 5.1995648707606392e+01 1.6327353800563806e+01 9.3419759496584085e+00 
2778 2779 2 1.0280000000448635e+00 -2.2860841270005899e+03 1.0000000000000000e+00 5.9534816658205521e+01 1.6475232519577112e+01 8.1321931210774334e+00 
4334 4335 2 1.0279999998379952e+00 1.3579500158470426e+03 1.0000000000000000e+00 5.9627025120651247e+01 1.6689623154489322e+01 9.7389567324260131e+00 
3237 3238 2 1.0279999999825153e+00 -2.4169339069998941e+03 1.0000000000000000e+00 6.0713262530235475e+01 1.6027249433727032e+01 8.0348334413195470e+00 
4336 4337 2 1.0280000000453711e+00 1.2058384711702738e+03 1.0000000000000000e+00 6.1148579284369241e+01 1.6522913021474057e+01 8.9208943764385946e+00 
2956 2957 2 1.0280000001655532e+00 2.2270146138845826e+03 1.0000000000000000e+00 6.4195042487774415e+01 1.6906579077269512e+01 9.4566060019348086e+00 
2955 2956 2 1.0279999997870291e+00 2.5650653735862425e+03 1.0000000000000000e+00 6.5014990776222859e+01 1.7506317117860668e+01 9.6882307265031926e+00 
3798 3799 2 1.0280000000538947e+00 1.8826284396637152e+03 1.0000000000000000e+00 5.9403544148801608e+01 1.8787767239767405e+01 9.9413712067578608e+00 
2961 2962 2 1.0280000000783627e+00 2.6284935039309003e+03 1.0000000000000000e+00 6.3871374496219879e+01 1.9024547984642375e+01 8.8396644150589569e+00 
3843 3844 2 1.0280000000072138e+00 -1.3437065155499356e+03 1.0000000000000000e+00 6.4400582957211824e+01 1.9208496135061690e+01 8.9617783830456421e+00 
313 314 2 1.0280000000180496e+00 -3.1168921223657953e+03 1.0000000000000000e+00 6.5057570088108591e+01 6.9793827992646372e-03 1.1391298284916148e+01 
1362 1363 2 1.0280000000051857e+00 -4.8357515273683077e+02 1.0000000000000000e+00 6.2383669735579183e+01 2.0113133864799515e+00 1.1638892764345806e+01 
3423 3424 2 1.0280000000956511e+00 -1.9344119867076224e+03 1.0000000000000000e+00 6.2962132447028182e+01 3.5968131068142077e+00 1.1719893842949729e+01 
4470 4471 2 1.0280000000149128e+00 -2.6214462197850899e+03 1.0000000000000000e+00 6.3861481654544320e+01 2.0370005334427193e+00 1.1282222844859612e+01 
145 146 2 1.0280000000498697e+00 -3.1149502561882359e+03 1.0000000000000000e+00 6.5495315356883850e+01 2.6230941288876535e+00 1.0305812655954279e+01 
992 993 2 1.0279999998741678e+00 2.1102862397253330e+03 1.0000000000000000e+00 6.6384773693266226e+01 2.7903204709393554e+00 1.1326474015073771e+01 
102 103 2 1.0280000000255785e+00 3.9628074301829304e+02 1.0000000000000000e+00 6.5851222577696575e+01 3.8566791994803817e+00 1.0105156786936551e+01 
942 943 2 1.0280000000563516e+00 -4.8759023412799667e+02 1.0000000000000000e+00 6.3102523665531919e+01 4.9354824390470071e+00 1.1399539140995778e+01 
1320 1321 2 1.0279999998960108e+00 5.0179091847379152e+02 1.0000000000000000e+00 6.4831616596255230e+01 5.2241582358546630e+00 1.1368292144898248e+01 
982 983 2 1.0280000000078546e+00 1.9654759629192138e+03 1.0000000000000000e+00 6.5912527250322640e+01 5.4941929809865204e+00 1.0170296268598912e+01 
1328 1329 2 1.0279999999968443e+00 2.1094520125385684e+03 1.0000000000000000e+00 6.6447065394527854e+01 4.5777072203013880e+00 1.1872400994471079e+01 
1147 1148 2 1.0280000000004825e+00 3.6180412805146238e+03 1.0000000000000000e+00 5.1178046114890250e+01 7.6184562424813880e+00 1.1363451344851951e+01 
2026 2027 2 1.0279999999970741e+00 1.0110202663161156e+03 1.0000000000000000e+00 5.2557199315596272e+01 7.0707443459872694e+00 1.0708954621305663e+01 
686 687 2 1.0280000000008465e+00 -7.5047943163868040e+03 1.0000000000000000e+00 5.2016289831316733e+01 7.9156340508663812e+00 1.1996048420582216e+01 
1907 1908 2 1.0280000000924450e+00 -3.1008063054694014e+02 1.0000000000000000e+00 6.2642211242118456e+01 6.5055544102758436e+00 1.0736697946405855e+01 
983 984 2 1.0280000000174958e+00 2.0818669423191809e+03 1.0000000000000000e+00 6.2181347712815686e+01 7.8613822863297962e+00 1.1572460481682121e+01 
939 940 2 1.0279999999510556e+00 -1.3847235088066795e+03 1.0000000000000000e+00 6.3041105555983926e+01 7.6044898153184972e+00 1.0746119955276489e+01 
1327 1328 2 1.0279999999807288e+00 5.1732377644193480e+02 1.0000000000000000e+00 6.5368249362575071e+01 6.6895739505766878e+00 1.1949945977364401e+01 
952 953 2 1.0280000000216727e+00 -1.3912330157578126e+03 1.0000000000000000e+00 6.5664045795974829e+01 7.8455533083735549e+00 1.1242980982705697e+01 
2027 2028 2 1.0280000000095397e+00 2.4800983670382411e+03 1.0000000000000000e+00 5.1272680286164068e+01 9.1117094506319507e+00 1.1014719919720706e+01 
522 523 2 1.0280000000246263e+00 2.4457149662073293e+03 1.0000000000000000e+00 5.3370628558226862e+01 8.4091196720093109e+00 1.0544936659798193e+01 
1107 1108 2 1.0279999999867047e+00 -1.6531402220654900e+03 1.0000000000000000e+00 5.2572630716398741e+01 9.7134530320615546e+00 1.1061959437498178e+01 
523 524 2 1.0279999999835947e+00 1.3701357558957779e+03 1.0000000000000000e+00 5.4451264488098062e+01 9.0240292580868662e+00 1.0636562496157589e+01 
57 58 2 1.0279999999703500e+00 -1.1385884196602301e+03 1.0000000000000000e+00 5.4966570686357024e+01 9.0443968989436918e+00 1.1686152482314112e+01 
564 565 2 1.0279999999956295e+00 1.8832238910291348e+03 1.0000000000000000e+00 6.4982751709109749e+01 9.3900617255968672e+00 1.0847310990958944e+01 