LAMMPS data file via write_data, version 30 Jul 2016, timestep = 50400000

1520 atoms
8 atom types

0.0000000000000000e+00 4.0000000000000000e+01 xlo xhi
0.0000000000000000e+00 4.0000000000000000e+01 ylo yhi
0.0000000000000000e+00 1.0000000000000000e+02 zlo zhi

Masses

1 3.896
2 5.36
3 20.064
4 8.378
5 8.378
6 8.378
7 8.378
8 8.378

Atoms # meso-molecular

33 34 2 1.4433053052148033e+00 0.0000000000000000e+00 1.0000000000000000e+00 1.6000000000000000e+01 1.0000000000000000e+01 4.3254475657899798e-02 
34 35 2 1.4433053052148033e+00 0.0000000000000000e+00 1.0000000000000000e+00 1.8199999999999999e+01 1.0000000000000000e+01 4.3254475657899798e-02 
185 186 2 1.4433053052148033e+00 0.0000000000000000e+00 1.0000000000000000e+00 1.6000000000000000e+01 1.2199999999999999e+01 4.3254475657899798e-02 
186 187 2 1.4433053052148033e+00 0.0000000000000000e+00 1.0000000000000000e+00 1.8199999999999999e+01 1.2199999999999999e+01 4.3254475657899798e-02 
337 338 2 1.4433053052148033e+00 0.0000000000000000e+00 1.0000000000000000e+00 1.6000000000000000e+01 1.4400000000000000e+01 4.3254475657899798e-02 
338 339 2 1.4433053052148033e+00 0.0000000000000000e+00 1.0000000000000000e+00 1.8199999999999999e+01 1.4400000000000000e+01 4.3254475657899798e-02 
489 490 2 1.4433053052148033e+00 0.0000000000000000e+00 1.0000000000000000e+00 1.6000000000000000e+01 1.6600000000000001e+01 4.3254475657899798e-02 
490 491 2 1.4433053052148033e+00 0.0000000000000000e+00 1.0000000000000000e+00 1.8199999999999999e+01 1.6600000000000001e+01 4.3254475657899798e-02 
641 642 2 1.4433053052148033e+00 0.0000000000000000e+00 1.0000000000000000e+00 1.6000000000000000e+01 1.8800000000000001e+01 4.3254475657899798e-02 
642 643 2 1.4433053052148033e+00 0.0000000000000000e+00 1.0000000000000000e+00 1.8199999999999999e+01 1.8800000000000001e+01 4.3254475657899798e-02 
37 38 2 1.4433053052148033e+00 0.0000000000000000e+00 1.0000000000000000e+00 1.6000000000000000e+01 1.0000000000000000e+01 2.2432544756578729e+00 
38 39 2 1.4433053052148033e+00 0.0000000000000000e+00 1.0000000000000000e+00 1.8199999999999999e+01 1.0000000000000000e+01 2.2432544756578729e+00 
189 190 2 1.4433053052148033e+00 0.0000000000000000e+00 1.0000000000000000e+00 1.6000000000000000e+01 1.2199999999999999e+01 2.2432544756578729e+00 
190 191 2 1.4433053052148033e+00 0.0000000000000000e+00 1.0000000000000000e+00 1.8199999999999999e+01 1.2199999999999999e+01 2.2432544756578729e+00 
341 342 2 1.4433053052148033e+00 0.0000000000000000e+00 1.0000000000000000e+00 1.6000000000000000e+01 1.4400000000000000e+01 2.2432544756578729e+00 
342 343 2 1.4433053052148033e+00 0.0000000000000000e+00 1.0000000000000000e+00 1.8199999999999999e+01 1.4400000000000000e+01 2.2432544756578729e+00 
493 494 2 1.4433053052148033e+00 0.0000000000000000e+00 1.0000000000000000e+00 1.6000000000000000e+01 1.6600000000000001e+01 2.2432544756578729e+00 
494 495 2 1.4433053052148033e+00 0.0000000000000000e+00 1.0000000000000000e+00 1.8199999999999999e+01 1.6600000000000001e+01 2.2432544756578729e+00 
645 646 2 1.4433053052148033e+00 0.0000000000000000e+00 1.0000000000000000e+00 1.6000000000000000e+01 1.8800000000000001e+01 2.2432544756578729e+00 
646 647 2 1.4433053052148033e+00 0.0000000000000000e+00 1.0000000000000000e+00 1.8199999999999999e+01 1.8800000000000001e+01 2.2432544756578729e+00 
41 42 2 1.4433053052148033e+00 0.0000000000000000e+00 1.0000000000000000e+00 1.6000000000000000e+01 1.0000000000000000e+01 4.4432544756578904e+00 
42 43 2 1.4433053052148033e+00 0.0000000000000000e+00 1.0000000000000000e+00 1.8199999999999999e+01 1.0000000000000000e+01 4.4432544756578904e+00 
193 194 2 1.4433053052148033e+00 0.0000000000000000e+00 1.0000000000000000e+00 1.6000000000000000e+01 1.2199999999999999e+01 4.4432544756578904e+00 
194 195 2 1.4433053052148033e+00 0.0000000000000000e+00 1.0000000000000000e+00 1.8199999999999999e+01 1.2199999999999999e+01 4.4432544756578904e+00 
345 346 2 1.4433053052148033e+00 0.0000000000000000e+00 1.0000000000000000e+00 1.6000000000000000e+01 1.4400000000000000e+01 4.4432544756578904e+00 
346 347 2 1.4433053052148033e+00 0.0000000000000000e+00 1.0000000000000000e+00 1.8199999999999999e+01 1.4400000000000000e+01 4.4432544756578904e+00 
497 498 2 1.4433053052148033e+00 0.0000000000000000e+00 1.0000000000000000e+00 1.6000000000000000e+01 1.6600000000000001e+01 4.4432544756578904e+00 
498 499 2 1.4433053052148033e+00 0.0000000000000000e+00 1.0000000000000000e+00 1.8199999999999999e+01 1.6600000000000001e+01 4.4432544756578904e+00 
649 650 2 1.4433053052148033e+00 0.0000000000000000e+00 1.0000000000000000e+00 1.6000000000000000e+01 1.8800000000000001e+01 4.4432544756578904e+00 
650 651 2 1.4433053052148033e+00 0.0000000000000000e+00 1.0000000000000000e+00 1.8199999999999999e+01 1.8800000000000001e+01 4.4432544756578904e+00 
45 46 2 1.4433053052148033e+00 0.0000000000000000e+00 1.0000000000000000e+00 1.6000000000000000e+01 1.0000000000000000e+01 6.6432544756578800e+00 
46 47 2 1.4433053052148033e+00 0.0000000000000000e+00 1.0000000000000000e+00 1.8199999999999999e+01 1.0000000000000000e+01 6.6432544756578800e+00 
197 198 2 1.4433053052148033e+00 0.0000000000000000e+00 1.0000000000000000e+00 1.6000000000000000e+01 1.2199999999999999e+01 6.6432544756578800e+00 
198 199 2 1.4433053052148033e+00 0.0000000000000000e+00 1.0000000000000000e+00 1.8199999999999999e+01 1.2199999999999999e+01 6.6432544756578800e+00 
349 350 2 1.4433053052148033e+00 0.0000000000000000e+00 1.0000000000000000e+00 1.6000000000000000e+01 1.4400000000000000e+01 6.6432544756578800e+00 
350 351 2 1.4433053052148033e+00 0.0000000000000000e+00 1.0000000000000000e+00 1.8199999999999999e+01 1.4400000000000000e+01 6.6432544756578800e+00 
501 502 2 1.4433053052148033e+00 0.0000000000000000e+00 1.0000000000000000e+00 1.6000000000000000e+01 1.6600000000000001e+01 6.6432544756578800e+00 
502 503 2 1.4433053052148033e+00 0.0000000000000000e+00 1.0000000000000000e+00 1.8199999999999999e+01 1.6600000000000001e+01 6.6432544756578800e+00 
653 654 2 1.4433053052148033e+00 0.0000000000000000e+00 1.0000000000000000e+00 1.6000000000000000e+01 1.8800000000000001e+01 6.6432544756578800e+00 
654 655 2 1.4433053052148033e+00 0.0000000000000000e+00 1.0000000000000000e+00 1.8199999999999999e+01 1.8800000000000001e+01 6.6432544756578800e+00 
49 50 2 1.4433053052148033e+00 0.0000000000000000e+00 1.0000000000000000e+00 1.6000000000000000e+01 1.0000000000000000e+01 8.8432544756578011e+00 
50 51 2 1.4433053052148033e+00 0.0000000000000000e+00 1.0000000000000000e+00 1.8199999999999999e+01 1.0000000000000000e+01 8.8432544756578011e+00 
201 202 2 1.4433053052148033e+00 0.0000000000000000e+00 1.0000000000000000e+00 1.6000000000000000e+01 1.2199999999999999e+01 8.8432544756578011e+00 
202 203 2 1.4433053052148033e+00 0.0000000000000000e+00 1.0000000000000000e+00 1.8199999999999999e+01 1.2199999999999999e+01 8.8432544756578011e+00 
353 354 2 1.4433053052148033e+00 0.0000000000000000e+00 1.0000000000000000e+00 1.6000000000000000e+01 1.4400000000000000e+01 8.8432544756578011e+00 
354 355 2 1.4433053052148033e+00 0.0000000000000000e+00 1.0000000000000000e+00 1.8199999999999999e+01 1.4400000000000000e+01 8.8432544756578011e+00 
505 506 2 1.4433053052148033e+00 0.0000000000000000e+00 1.0000000000000000e+00 1.6000000000000000e+01 1.6600000000000001e+01 8.8432544756578011e+00 
506 507 2 1.4433053052148033e+00 0.0000000000000000e+00 1.0000000000000000e+00 1.8199999999999999e+01 1.6600000000000001e+01 8.8432544756578011e+00 
657 658 2 1.4433053052148033e+00 0.0000000000000000e+00 1.0000000000000000e+00 1.6000000000000000e+01 1.8800000000000001e+01 8.8432544756578011e+00 
658 659 2 1.4433053052148033e+00 0.0000000000000000e+00 1.0000000000000000e+00 1.8199999999999999e+01 1.8800000000000001e+01 8.8432544756578011e+00 
53 54 2 1.4433053052148033e+00 0.0000000000000000e+00 1.0000000000000000e+00 1.6000000000000000e+01 1.0000000000000000e+01 1.1043254475657918e+01 
54 55 2 1.4433053052148033e+00 0.0000000000000000e+00 1.0000000000000000e+00 1.8199999999999999e+01 1.0000000000000000e+01 1.1043254475657918e+01 
205 206 2 1.4433053052148033e+00 0.0000000000000000e+00 1.0000000000000000e+00 1.6000000000000000e+01 1.2199999999999999e+01 1.1043254475657918e+01 
206 207 2 1.4433053052148033e+00 0.0000000000000000e+00 1.0000000000000000e+00 1.8199999999999999e+01 1.2199999999999999e+01 1.1043254475657918e+01 
357 358 2 1.4433053052148033e+00 0.0000000000000000e+00 1.0000000000000000e+00 1.6000000000000000e+01 1.4400000000000000e+01 1.1043254475657918e+01 
358 359 2 1.4433053052148033e+00 0.0000000000000000e+00 1.0000000000000000e+00 1.8199999999999999e+01 1.4400000000000000e+01 1.1043254475657918e+01 
509 510 2 1.4433053052148033e+00 0.0000000000000000e+00 1.0000000000000000e+00 1.6000000000000000e+01 1.6600000000000001e+01 1.1043254475657918e+01 
510 511 2 1.4433053052148033e+00 0.0000000000000000e+00 1.0000000000000000e+00 1.8199999999999999e+01 1.6600000000000001e+01 1.1043254475657918e+01 
661 662 2 1.4433053052148033e+00 0.0000000000000000e+00 1.0000000000000000e+00 1.6000000000000000e+01 1.8800000000000001e+01 1.1043254475657918e+01 
662 663 2 1.4433053052148033e+00 0.0000000000000000e+00 1.0000000000000000e+00 1.8199999999999999e+01 1.8800000000000001e+01 1.1043254475657918e+01 
57 58 2 1.4433053052148033e+00 0.0000000000000000e+00 1.0000000000000000e+00 1.6000000000000000e+01 1.0000000000000000e+01 1.3243254475657851e+01 
58 59 2 1.4433053052148033e+00 0.0000000000000000e+00 1.0000000000000000e+00 1.8199999999999999e+01 1.0000000000000000e+01 1.3243254475657851e+01 
209 210 2 1.4433053052148033e+00 0.0000000000000000e+00 1.0000000000000000e+00 1.6000000000000000e+01 1.2199999999999999e+01 1.3243254475657851e+01 
210 211 2 1.4433053052148033e+00 0.0000000000000000e+00 1.0000000000000000e+00 1.8199999999999999e+01 1.2199999999999999e+01 1.3243254475657851e+01 
361 362 2 1.4433053052148033e+00 0.0000000000000000e+00 1.0000000000000000e+00 1.6000000000000000e+01 1.4400000000000000e+01 1.3243254475657851e+01 
362 363 2 1.4433053052148033e+00 0.0000000000000000e+00 1.0000000000000000e+00 1.8199999999999999e+01 1.4400000000000000e+01 1.3243254475657851e+01 
513 514 2 1.4433053052148033e+00 0.0000000000000000e+00 1.0000000000000000e+00 1.6000000000000000e+01 1.6600000000000001e+01 1.3243254475657851e+01 
514 515 2 1.4433053052148033e+00 0.0000000000000000e+00 1.0000000000000000e+00 1.8199999999999999e+01 1.6600000000000001e+01 1.3243254475657851e+01 
665 666 2 1.4433053052148033e+00 0.0000000000000000e+00 1.0000000000000000e+00 1.6000000000000000e+01 1.8800000000000001e+01 1.3243254475657851e+01 
666 667 2 1.4433053052148033e+00 0.0000000000000000e+00 1.0000000000000000e+00 1.8199999999999999e+01 1.8800000000000001e+01 1.3243254475657851e+01 
61 62 2 1.4433053052148033e+00 0.0000000000000000e+00 1.0000000000000000e+00 1.6000000000000000e+01 1.0000000000000000e+01 1.5443254475657891e+01 
62 63 2 1.4433053052148033e+00 0.0000000000000000e+00 1.0000000000000000e+00 1.8199999999999999e+01 1.0000000000000000e+01 1.5443254475657891e+01 
213 214 2 1.4433053052148033e+00 0.0000000000000000e+00 1.0000000000000000e+00 1.6000000000000000e+01 1.2199999999999999e+01 1.5443254475657891e+01 
214 215 2 1.4433053052148033e+00 0.0000000000000000e+00 1.0000000000000000e+00 1.8199999999999999e+01 1.2199999999999999e+01 1.5443254475657891e+01 
365 366 2 1.4433053052148033e+00 0.0000000000000000e+00 1.0000000000000000e+00 1.6000000000000000e+01 1.4400000000000000e+01 1.5443254475657891e+01 
366 367 2 1.4433053052148033e+00 0.0000000000000000e+00 1.0000000000000000e+00 1.8199999999999999e+01 1.4400000000000000e+01 1.5443254475657891e+01 
517 518 2 1.4433053052148033e+00 0.0000000000000000e+00 1.0000000000000000e+00 1.6000000000000000e+01 1.6600000000000001e+01 1.5443254475657891e+01 
518 519 2 1.4433053052148033e+00 0.0000000000000000e+00 1.0000000000000000e+00 1.8199999999999999e+01 1.6600000000000001e+01 1.5443254475657891e+01 
669 670 2 1.4433053052148033e+00 0.0000000000000000e+00 1.0000000000000000e+00 1.6000000000000000e+01 1.8800000000000001e+01 1.5443254475657891e+01 
670 671 2 1.4433053052148033e+00 0.0000000000000000e+00 1.0000000000000000e+00 1.8199999999999999e+01 1.8800000000000001e+01 1.5443254475657891e+01 
65 66 2 1.4433053052148033e+00 0.0000000000000000e+00 1.0000000000000000e+00 1.6000000000000000e+01 1.0000000000000000e+01 1.7643254475657905e+01 
66 67 2 1.4433053052148033e+00 0.0000000000000000e+00 1.0000000000000000e+00 1.8199999999999999e+01 1.0000000000000000e+01 1.7643254475657905e+01 
217 218 2 1.4433053052148033e+00 0.0000000000000000e+00 1.0000000000000000e+00 1.6000000000000000e+01 1.2199999999999999e+01 1.7643254475657905e+01 
218 219 2 1.4433053052148033e+00 0.0000000000000000e+00 1.0000000000000000e+00 1.8199999999999999e+01 1.2199999999999999e+01 1.7643254475657905e+01 
369 370 2 1.4433053052148033e+00 0.0000000000000000e+00 1.0000000000000000e+00 1.6000000000000000e+01 1.4400000000000000e+01 1.7643254475657905e+01 
370 371 2 1.4433053052148033e+00 0.0000000000000000e+00 1.0000000000000000e+00 1.8199999999999999e+01 1.4400000000000000e+01 1.7643254475657905e+01 
521 522 2 1.4433053052148033e+00 0.0000000000000000e+00 1.0000000000000000e+00 1.6000000000000000e+01 1.6600000000000001e+01 1.7643254475657905e+01 
522 523 2 1.4433053052148033e+00 0.0000000000000000e+00 1.0000000000000000e+00 1.8199999999999999e+01 1.6600000000000001e+01 1.7643254475657905e+01 
673 674 2 1.4433053052148033e+00 0.0000000000000000e+00 1.0000000000000000e+00 1.6000000000000000e+01 1.8800000000000001e+01 1.7643254475657905e+01 
674 675 2 1.4433053052148033e+00 0.0000000000000000e+00 1.0000000000000000e+00 1.8199999999999999e+01 1.8800000000000001e+01 1.7643254475657905e+01 
69 70 2 1.4433053052148033e+00 0.0000000000000000e+00 1.0000000000000000e+00 1.6000000000000000e+01 1.0000000000000000e+01 1.9843254475657773e+01 
70 71 2 1.4433053052148033e+00 0.0000000000000000e+00 1.0000000000000000e+00 1.8199999999999999e+01 1.0000000000000000e+01 1.9843254475657773e+01 
221 222 2 1.4433053052148033e+00 0.0000000000000000e+00 1.0000000000000000e+00 1.6000000000000000e+01 1.2199999999999999e+01 1.9843254475657773e+01 
222 223 2 1.4433053052148033e+00 0.0000000000000000e+00 1.0000000000000000e+00 1.8199999999999999e+01 1.2199999999999999e+01 1.9843254475657773e+01 
373 374 2 1.4433053052148033e+00 0.0000000000000000e+00 1.0000000000000000e+00 1.6000000000000000e+01 1.4400000000000000e+01 1.9843254475657773e+01 
374 375 2 1.4433053052148033e+00 0.0000000000000000e+00 1.0000000000000000e+00 1.8199999999999999e+01 1.4400000000000000e+01 1.9843254475657773e+01 
525 526 2 1.4433053052148033e+00 0.0000000000000000e+00 1.0000000000000000e+00 1.6000000000000000e+01 1.6600000000000001e+01 1.9843254475657773e+01 
526 527 2 1.4433053052148033e+00 0.0000000000000000e+00 1.0000000000000000e+00 1.8199999999999999e+01 1.6600000000000001e+01 1.9843254475657773e+01 
677 678 2 1.4433053052148033e+00 0.0000000000000000e+00 1.0000000000000000e+00 1.6000000000000000e+01 1.8800000000000001e+01 1.9843254475657773e+01 
678 679 2 1.4433053052148033e+00 0.0000000000000000e+00 1.0000000000000000e+00 1.8199999999999999e+01 1.8800000000000001e+01 1.9843254475657773e+01 
73 74 2 1.4433053052148033e+00 0.0000000000000000e+00 1.0000000000000000e+00 1.6000000000000000e+01 1.0000000000000000e+01 2.2043254475657836e+01 
74 75 2 1.4433053052148033e+00 0.0000000000000000e+00 1.0000000000000000e+00 1.8199999999999999e+01 1.0000000000000000e+01 2.2043254475657836e+01 
225 226 2 1.4433053052148033e+00 0.0000000000000000e+00 1.0000000000000000e+00 1.6000000000000000e+01 1.2199999999999999e+01 2.2043254475657836e+01 
226 227 2 1.4433053052148033e+00 0.0000000000000000e+00 1.0000000000000000e+00 1.8199999999999999e+01 1.2199999999999999e+01 2.2043254475657836e+01 
377 378 2 1.4433053052148033e+00 0.0000000000000000e+00 1.0000000000000000e+00 1.6000000000000000e+01 1.4400000000000000e+01 2.2043254475657836e+01 
378 379 2 1.4433053052148033e+00 0.0000000000000000e+00 1.0000000000000000e+00 1.8199999999999999e+01 1.4400000000000000e+01 2.2043254475657836e+01 
529 530 2 1.4433053052148033e+00 0.0000000000000000e+00 1.0000000000000000e+00 1.6000000000000000e+01 1.6600000000000001e+01 2.2043254475657836e+01 
530 531 2 1.4433053052148033e+00 0.0000000000000000e+00 1.0000000000000000e+00 1.8199999999999999e+01 1.6600000000000001e+01 2.2043254475657836e+01 
681 682 2 1.4433053052148033e+00 0.0000000000000000e+00 1.0000000000000000e+00 1.6000000000000000e+01 1.8800000000000001e+01 2.2043254475657836e+01 
682 683 2 1.4433053052148033e+00 0.0000000000000000e+00 1.0000000000000000e+00 1.8199999999999999e+01 1.8800000000000001e+01 2.2043254475657836e+01 
77 78 2 1.4433053052148033e+00 0.0000000000000000e+00 1.0000000000000000e+00 1.6000000000000000e+01 1.0000000000000000e+01 2.4243254475657899e+01 
78 79 2 1.4433053052148033e+00 0.0000000000000000e+00 1.0000000000000000e+00 1.8199999999999999e+01 1.0000000000000000e+01 2.4243254475657899e+01 
229 230 2 1.4433053052148033e+00 0.0000000000000000e+00 1.0000000000000000e+00 1.6000000000000000e+01 1.2199999999999999e+01 2.4243254475657899e+01 
230 231 2 1.4433053052148033e+00 0.0000000000000000e+00 1.0000000000000000e+00 1.8199999999999999e+01 1.2199999999999999e+01 2.4243254475657899e+01 
381 382 2 1.4433053052148033e+00 0.0000000000000000e+00 1.0000000000000000e+00 1.6000000000000000e+01 1.4400000000000000e+01 2.4243254475657899e+01 
382 383 2 1.4433053052148033e+00 0.0000000000000000e+00 1.0000000000000000e+00 1.8199999999999999e+01 1.4400000000000000e+01 2.4243254475657899e+01 
533 534 2 1.4433053052148033e+00 0.0000000000000000e+00 1.0000000000000000e+00 1.6000000000000000e+01 1.6600000000000001e+01 2.4243254475657899e+01 
534 535 2 1.4433053052148033e+00 0.0000000000000000e+00 1.0000000000000000e+00 1.8199999999999999e+01 1.6600000000000001e+01 2.4243254475657899e+01 
685 686 2 1.4433053052148033e+00 0.0000000000000000e+00 1.0000000000000000e+00 1.6000000000000000e+01 1.8800000000000001e+01 2.4243254475657899e+01 
686 687 2 1.4433053052148033e+00 0.0000000000000000e+00 1.0000000000000000e+00 1.8199999999999999e+01 1.8800000000000001e+01 2.4243254475657899e+01 
81 82 2 1.4433053052148033e+00 0.0000000000000000e+00 1.0000000000000000e+00 1.6000000000000000e+01 1.0000000000000000e+01 2.6443254475657803e+01 
82 83 2 1.4433053052148033e+00 0.0000000000000000e+00 1.0000000000000000e+00 1.8199999999999999e+01 1.0000000000000000e+01 2.6443254475657803e+01 
233 234 2 1.4433053052148033e+00 0.0000000000000000e+00 1.0000000000000000e+00 1.6000000000000000e+01 1.2199999999999999e+01 2.6443254475657803e+01 
234 235 2 1.4433053052148033e+00 0.0000000000000000e+00 1.0000000000000000e+00 1.8199999999999999e+01 1.2199999999999999e+01 2.6443254475657803e+01 
385 386 2 1.4433053052148033e+00 0.0000000000000000e+00 1.0000000000000000e+00 1.6000000000000000e+01 1.4400000000000000e+01 2.6443254475657803e+01 
386 387 2 1.4433053052148033e+00 0.0000000000000000e+00 1.0000000000000000e+00 1.8199999999999999e+01 1.4400000000000000e+01 2.6443254475657803e+01 
537 538 2 1.4433053052148033e+00 0.0000000000000000e+00 1.0000000000000000e+00 1.6000000000000000e+01 1.6600000000000001e+01 2.6443254475657803e+01 
538 539 2 1.4433053052148033e+00 0.0000000000000000e+00 1.0000000000000000e+00 1.8199999999999999e+01 1.6600000000000001e+01 2.6443254475657803e+01 
689 690 2 1.4433053052148033e+00 0.0000000000000000e+00 1.0000000000000000e+00 1.6000000000000000e+01 1.8800000000000001e+01 2.6443254475657803e+01 
690 691 2 1.4433053052148033e+00 0.0000000000000000e+00 1.0000000000000000e+00 1.8199999999999999e+01 1.8800000000000001e+01 2.6443254475657803e+01 
85 86 2 1.4433053052148033e+00 0.0000000000000000e+00 1.0000000000000000e+00 1.6000000000000000e+01 1.0000000000000000e+01 2.8643254475657880e+01 
86 87 2 1.4433053052148033e+00 0.0000000000000000e+00 1.0000000000000000e+00 1.8199999999999999e+01 1.0000000000000000e+01 2.8643254475657880e+01 
237 238 2 1.4433053052148033e+00 0.0000000000000000e+00 1.0000000000000000e+00 1.6000000000000000e+01 1.2199999999999999e+01 2.8643254475657880e+01 
238 239 2 1.4433053052148033e+00 0.0000000000000000e+00 1.0000000000000000e+00 1.8199999999999999e+01 1.2199999999999999e+01 2.8643254475657880e+01 
389 390 2 1.4433053052148033e+00 0.0000000000000000e+00 1.0000000000000000e+00 1.6000000000000000e+01 1.4400000000000000e+01 2.8643254475657880e+01 
390 391 2 1.4433053052148033e+00 0.0000000000000000e+00 1.0000000000000000e+00 1.8199999999999999e+01 1.4400000000000000e+01 2.8643254475657880e+01 
541 542 2 1.4433053052148033e+00 0.0000000000000000e+00 1.0000000000000000e+00 1.6000000000000000e+01 1.6600000000000001e+01 2.8643254475657880e+01 
542 543 2 1.4433053052148033e+00 0.0000000000000000e+00 1.0000000000000000e+00 1.8199999999999999e+01 1.6600000000000001e+01 2.8643254475657880e+01 
693 694 2 1.4433053052148033e+00 0.0000000000000000e+00 1.0000000000000000e+00 1.6000000000000000e+01 1.8800000000000001e+01 2.8643254475657880e+01 
694 695 2 1.4433053052148033e+00 0.0000000000000000e+00 1.0000000000000000e+00 1.8199999999999999e+01 1.8800000000000001e+01 2.8643254475657880e+01 
89 90 2 1.4433053052148033e+00 0.0000000000000000e+00 1.0000000000000000e+00 1.6000000000000000e+01 1.0000000000000000e+01 3.0843254475657812e+01 
90 91 2 1.4433053052148033e+00 0.0000000000000000e+00 1.0000000000000000e+00 1.8199999999999999e+01 1.0000000000000000e+01 3.0843254475657812e+01 
241 242 2 1.4433053052148033e+00 0.0000000000000000e+00 1.0000000000000000e+00 1.6000000000000000e+01 1.2199999999999999e+01 3.0843254475657812e+01 
242 243 2 1.4433053052148033e+00 0.0000000000000000e+00 1.0000000000000000e+00 1.8199999999999999e+01 1.2199999999999999e+01 3.0843254475657812e+01 
393 394 2 1.4433053052148033e+00 0.0000000000000000e+00 1.0000000000000000e+00 1.6000000000000000e+01 1.4400000000000000e+01 3.0843254475657812e+01 
394 395 2 1.4433053052148033e+00 0.0000000000000000e+00 1.0000000000000000e+00 1.8199999999999999e+01 1.4400000000000000e+01 3.0843254475657812e+01 
545 546 2 1.4433053052148033e+00 0.0000000000000000e+00 1.0000000000000000e+00 1.6000000000000000e+01 1.6600000000000001e+01 3.0843254475657812e+01 
546 547 2 1.4433053052148033e+00 0.0000000000000000e+00 1.0000000000000000e+00 1.8199999999999999e+01 1.6600000000000001e+01 3.0843254475657812e+01 
697 698 2 1.4433053052148033e+00 0.0000000000000000e+00 1.0000000000000000e+00 1.6000000000000000e+01 1.8800000000000001e+01 3.0843254475657812e+01 
698 699 2 1.4433053052148033e+00 0.0000000000000000e+00 1.0000000000000000e+00 1.8199999999999999e+01 1.8800000000000001e+01 3.0843254475657812e+01 
93 94 2 1.4433053052148033e+00 0.0000000000000000e+00 1.0000000000000000e+00 1.6000000000000000e+01 1.0000000000000000e+01 3.3043254475657875e+01 
94 95 2 1.4433053052148033e+00 0.0000000000000000e+00 1.0000000000000000e+00 1.8199999999999999e+01 1.0000000000000000e+01 3.3043254475657875e+01 
245 246 2 1.4433053052148033e+00 0.0000000000000000e+00 1.0000000000000000e+00 1.6000000000000000e+01 1.2199999999999999e+01 3.3043254475657875e+01 
246 247 2 1.4433053052148033e+00 0.0000000000000000e+00 1.0000000000000000e+00 1.8199999999999999e+01 1.2199999999999999e+01 3.3043254475657875e+01 
397 398 2 1.4433053052148033e+00 0.0000000000000000e+00 1.0000000000000000e+00 1.6000000000000000e+01 1.4400000000000000e+01 3.3043254475657875e+01 
398 399 2 1.4433053052148033e+00 0.0000000000000000e+00 1.0000000000000000e+00 1.8199999999999999e+01 1.4400000000000000e+01 3.3043254475657875e+01 
549 550 2 1.4433053052148033e+00 0.0000000000000000e+00 1.0000000000000000e+00 1.6000000000000000e+01 1.6600000000000001e+01 3.3043254475657875e+01 
550 551 2 1.4433053052148033e+00 0.0000000000000000e+00 1.0000000000000000e+00 1.8199999999999999e+01 1.6600000000000001e+01 3.3043254475657875e+01 
701 702 2 1.4433053052148033e+00 0.0000000000000000e+00 1.0000000000000000e+00 1.6000000000000000e+01 1.8800000000000001e+01 3.3043254475657875e+01 
702 703 2 1.4433053052148033e+00 0.0000000000000000e+00 1.0000000000000000e+00 1.8199999999999999e+01 1.8800000000000001e+01 3.3043254475657875e+01 
97 98 2 1.4433053052148033e+00 0.0000000000000000e+00 1.0000000000000000e+00 1.6000000000000000e+01 1.0000000000000000e+01 3.5243254475657793e+01 
98 99 2 1.4433053052148033e+00 0.0000000000000000e+00 1.0000000000000000e+00 1.8199999999999999e+01 1.0000000000000000e+01 3.5243254475657793e+01 
249 250 2 1.4433053052148033e+00 0.0000000000000000e+00 1.0000000000000000e+00 1.6000000000000000e+01 1.2199999999999999e+01 3.5243254475657793e+01 
250 251 2 1.4433053052148033e+00 0.0000000000000000e+00 1.0000000000000000e+00 1.8199999999999999e+01 1.2199999999999999e+01 3.5243254475657793e+01 
401 402 2 1.4433053052148033e+00 0.0000000000000000e+00 1.0000000000000000e+00 1.6000000000000000e+01 1.4400000000000000e+01 3.5243254475657793e+01 
402 403 2 1.4433053052148033e+00 0.0000000000000000e+00 1.0000000000000000e+00 1.8199999999999999e+01 1.4400000000000000e+01 3.5243254475657793e+01 
553 554 2 1.4433053052148033e+00 0.0000000000000000e+00 1.0000000000000000e+00 1.6000000000000000e+01 1.6600000000000001e+01 3.5243254475657793e+01 
554 555 2 1.4433053052148033e+00 0.0000000000000000e+00 1.0000000000000000e+00 1.8199999999999999e+01 1.6600000000000001e+01 3.5243254475657793e+01 
705 706 2 1.4433053052148033e+00 0.0000000000000000e+00 1.0000000000000000e+00 1.6000000000000000e+01 1.8800000000000001e+01 3.5243254475657793e+01 
706 707 2 1.4433053052148033e+00 0.0000000000000000e+00 1.0000000000000000e+00 1.8199999999999999e+01 1.8800000000000001e+01 3.5243254475657793e+01 
101 102 2 1.4433053052148033e+00 0.0000000000000000e+00 1.0000000000000000e+00 1.6000000000000000e+01 1.0000000000000000e+01 3.7443254475657895e+01 
102 103 2 1.4433053052148033e+00 0.0000000000000000e+00 1.0000000000000000e+00 1.8199999999999999e+01 1.0000000000000000e+01 3.7443254475657895e+01 
253 254 2 1.4433053052148033e+00 0.0000000000000000e+00 1.0000000000000000e+00 1.6000000000000000e+01 1.2199999999999999e+01 3.7443254475657895e+01 
254 255 2 1.4433053052148033e+00 0.0000000000000000e+00 1.0000000000000000e+00 1.8199999999999999e+01 1.2199999999999999e+01 3.7443254475657895e+01 
405 406 2 1.4433053052148033e+00 0.0000000000000000e+00 1.0000000000000000e+00 1.6000000000000000e+01 1.4400000000000000e+01 3.7443254475657895e+01 
406 407 2 1.4433053052148033e+00 0.0000000000000000e+00 1.0000000000000000e+00 1.8199999999999999e+01 1.4400000000000000e+01 3.7443254475657895e+01 
557 558 2 1.4433053052148033e+00 0.0000000000000000e+00 1.0000000000000000e+00 1.6000000000000000e+01 1.6600000000000001e+01 3.7443254475657895e+01 
558 559 2 1.4433053052148033e+00 0.0000000000000000e+00 1.0000000000000000e+00 1.8199999999999999e+01 1.6600000000000001e+01 3.7443254475657895e+01 
709 710 2 1.4433053052148033e+00 0.0000000000000000e+00 1.0000000000000000e+00 1.6000000000000000e+01 1.8800000000000001e+01 3.7443254475657895e+01 
710 711 2 1.4433053052148033e+00 0.0000000000000000e+00 1.0000000000000000e+00 1.8199999999999999e+01 1.8800000000000001e+01 3.7443254475657895e+01 
105 106 2 1.4433053052148033e+00 0.0000000000000000e+00 1.0000000000000000e+00 1.6000000000000000e+01 1.0000000000000000e+01 3.9643254475657869e+01 
106 107 2 1.4433053052148033e+00 0.0000000000000000e+00 1.0000000000000000e+00 1.8199999999999999e+01 1.0000000000000000e+01 3.9643254475657869e+01 
257 258 2 1.4433053052148033e+00 0.0000000000000000e+00 1.0000000000000000e+00 1.6000000000000000e+01 1.2199999999999999e+01 3.9643254475657869e+01 
258 259 2 1.4433053052148033e+00 0.0000000000000000e+00 1.0000000000000000e+00 1.8199999999999999e+01 1.2199999999999999e+01 3.9643254475657869e+01 
409 410 2 1.4433053052148033e+00 0.0000000000000000e+00 1.0000000000000000e+00 1.6000000000000000e+01 1.4400000000000000e+01 3.9643254475657869e+01 
410 411 2 1.4433053052148033e+00 0.0000000000000000e+00 1.0000000000000000e+00 1.8199999999999999e+01 1.4400000000000000e+01 3.9643254475657869e+01 
561 562 2 1.4433053052148033e+00 0.0000000000000000e+00 1.0000000000000000e+00 1.6000000000000000e+01 1.6600000000000001e+01 3.9643254475657869e+01 
562 563 2 1.4433053052148033e+00 0.0000000000000000e+00 1.0000000000000000e+00 1.8199999999999999e+01 1.6600000000000001e+01 3.9643254475657869e+01 
713 714 2 1.4433053052148033e+00 0.0000000000000000e+00 1.0000000000000000e+00 1.6000000000000000e+01 1.8800000000000001e+01 3.9643254475657869e+01 
714 715 2 1.4433053052148033e+00 0.0000000000000000e+00 1.0000000000000000e+00 1.8199999999999999e+01 1.8800000000000001e+01 3.9643254475657869e+01 
109 110 2 1.4433053052148033e+00 0.0000000000000000e+00 1.0000000000000000e+00 1.6000000000000000e+01 1.0000000000000000e+01 4.1843254475657844e+01 
110 111 2 1.4433053052148033e+00 0.0000000000000000e+00 1.0000000000000000e+00 1.8199999999999999e+01 1.0000000000000000e+01 4.1843254475657844e+01 
261 262 2 1.4433053052148033e+00 0.0000000000000000e+00 1.0000000000000000e+00 1.6000000000000000e+01 1.2199999999999999e+01 4.1843254475657844e+01 
262 263 2 1.4433053052148033e+00 0.0000000000000000e+00 1.0000000000000000e+00 1.8199999999999999e+01 1.2199999999999999e+01 4.1843254475657844e+01 
413 414 2 1.4433053052148033e+00 0.0000000000000000e+00 1.0000000000000000e+00 1.6000000000000000e+01 1.4400000000000000e+01 4.1843254475657844e+01 
414 415 2 1.4433053052148033e+00 0.0000000000000000e+00 1.0000000000000000e+00 1.8199999999999999e+01 1.4400000000000000e+01 4.1843254475657844e+01 
565 566 2 1.4433053052148033e+00 0.0000000000000000e+00 1.0000000000000000e+00 1.6000000000000000e+01 1.6600000000000001e+01 4.1843254475657844e+01 
566 567 2 1.4433053052148033e+00 0.0000000000000000e+00 1.0000000000000000e+00 1.8199999999999999e+01 1.6600000000000001e+01 4.1843254475657844e+01 
717 718 2 1.4433053052148033e+00 0.0000000000000000e+00 1.0000000000000000e+00 1.6000000000000000e+01 1.8800000000000001e+01 4.1843254475657844e+01 