LAMMPS data file via write_data, version 30 Jul 2016, timestep = 50000000

245 atoms
2 atom types

0.0000000000000000e+00 2.0000000000000000e+01 xlo xhi
0.0000000000000000e+00 2.0000000000000000e+01 ylo yhi
0.0000000000000000e+00 2.0000000000000000e+01 zlo zhi

Masses

1 3.896
2 4.31

Atoms # meso-molecular

182 1 2 1.0280000007773433e+00 -1.8185491357433361e+02 1.0000000000000000e+00 4.8761180105934372e+00 1.3119633353233517e+00 1.1151295309228910e+00 
140 1 2 1.0280000007773433e+00 -1.1200358975494464e+02 1.0000000000000000e+00 4.8761180105934558e+00 1.3119633353233344e+00 1.1151295309228937e+00 
129 1 2 1.0280000007773433e+00 -6.3974316525924571e+01 1.0000000000000000e+00 4.8761180105934470e+00 1.3119633353233302e+00 1.1151295309228941e+00 
175 1 2 1.0280000007773433e+00 -1.3228796979776865e+02 1.0000000000000000e+00 4.8761180105934434e+00 1.3119633353233660e+00 1.1151295309228906e+00 
83 1 2 1.0280000007773433e+00 -1.3899083620656907e+02 1.0000000000000000e+00 4.8761180105934558e+00 1.3119633353233344e+00 1.1151295309228937e+00 
135 1 2 1.0280000007773433e+00 -1.1478983345571353e+02 1.0000000000000000e+00 4.8761180105934407e+00 1.3119633353233446e+00 1.1151295309228919e+00 
176 1 2 1.0280000007773433e+00 -1.7980085737202268e+02 1.0000000000000000e+00 4.8761180105934372e+00 1.3119633353233517e+00 1.1151295309228910e+00 
206 1 2 1.0280000000250780e+00 -1.0896578169477345e+02 1.0000000000000000e+00 4.1616897699395077e+00 8.2932397214256071e+00 6.1463882814522490e+00 
152 1 2 1.0280000000250780e+00 -1.9880665173818306e+02 1.0000000000000000e+00 4.1616897699395077e+00 8.2932397214256071e+00 6.1463882814522490e+00 
163 1 2 1.0280000000250780e+00 -1.0232272757070893e+02 1.0000000000000000e+00 4.1616897699395077e+00 8.2932397214256071e+00 6.1463882814522490e+00 
157 1 2 1.0280000000250780e+00 -1.8993156111724258e+02 1.0000000000000000e+00 4.1616897699395219e+00 8.2932397214256302e+00 6.1463882814522508e+00 
232 1 2 1.0280000000250780e+00 -2.1582368036538222e+02 1.0000000000000000e+00 4.1616897699395095e+00 8.2932397214256071e+00 6.1463882814522561e+00 
207 1 2 1.0280000000250780e+00 -1.5087611369723061e+02 1.0000000000000000e+00 4.1616897699395077e+00 8.2932397214256071e+00 6.1463882814522490e+00 
214 1 2 1.0280000000250780e+00 -7.9929974108211354e+01 1.0000000000000000e+00 4.1616897699395219e+00 8.2932397214256302e+00 6.1463882814522508e+00 
185 1 2 1.0279999999994558e+00 -1.2670215967134763e+02 1.0000000000000000e+00 4.3254097779100924e+00 3.5325782716619192e+00 1.0713791667681278e+01 
128 1 2 1.0279999999994558e+00 -1.1377380107124986e+02 1.0000000000000000e+00 4.3254097779101004e+00 3.5325782716619156e+00 1.0713791667681274e+01 
184 1 2 1.0279999999994558e+00 -1.1492961371765642e+02 1.0000000000000000e+00 4.3254097779100924e+00 3.5325782716619192e+00 1.0713791667681278e+01 
62 1 2 1.0279999999994558e+00 -1.2918648112162717e+02 1.0000000000000000e+00 4.3254097779100915e+00 3.5325782716619196e+00 1.0713791667681278e+01 
144 1 2 1.0279999999994558e+00 -1.8134483954263055e+02 1.0000000000000000e+00 4.3254097779101075e+00 3.5325782716619125e+00 1.0713791667681280e+01 
136 1 2 1.0279999999994558e+00 -1.2144160218411420e+02 1.0000000000000000e+00 4.3254097779100924e+00 3.5325782716619192e+00 1.0713791667681278e+01 
181 1 2 1.0279999999994558e+00 -1.8086150362121839e+02 1.0000000000000000e+00 4.3254097779101004e+00 3.5325782716619156e+00 1.0713791667681274e+01 
87 1 2 1.0279999999994553e+00 -1.1611982126899230e+02 1.0000000000000000e+00 5.6431171264213420e+00 6.5149435862587612e+00 1.0912424966250494e+01 
45 1 2 1.0279999999994553e+00 -1.4954080796898933e+02 1.0000000000000000e+00 5.6431171263623936e+00 6.5149435862842271e+00 1.0912424966259193e+01 
46 1 2 1.0279999999994553e+00 -1.2722913679240807e+02 1.0000000000000000e+00 5.6431171263490931e+00 6.5149435862900837e+00 1.0912424966259493e+01 
39 1 2 1.0279999999994553e+00 -1.2082510242185472e+02 1.0000000000000000e+00 5.6431171264078328e+00 6.5149435862676253e+00 1.0912424966207018e+01 
94 1 2 1.0279999999994553e+00 -1.8909136047187599e+02 1.0000000000000000e+00 5.6431171263200310e+00 6.5149435863062584e+00 1.0912424966209430e+01 
38 1 2 1.0279999999994553e+00 -1.5569286373416202e+02 1.0000000000000000e+00 5.6431171266782103e+00 6.5149435861462779e+00 1.0912424966235330e+01 
53 1 2 1.0279999999994553e+00 -1.3505210991677046e+02 1.0000000000000000e+00 5.6431171264213420e+00 6.5149435862587612e+00 1.0912424966250494e+01 
159 1 2 1.0280000007773427e+00 -1.7728233942801774e+02 1.0000000000000000e+00 5.0983983733652734e+00 1.0309446767524200e+00 1.7868295598566878e+01 
170 1 2 1.0280000007773433e+00 -1.0802339301241068e+02 1.0000000000000000e+00 5.0983983733653471e+00 1.0309446767444519e+00 1.7868295598567574e+01 
216 1 2 1.0280000007773427e+00 -1.6104502010606433e+02 1.0000000000000000e+00 5.0983983733652734e+00 1.0309446767524200e+00 1.7868295598566878e+01 
201 1 2 1.0280000007773435e+00 -1.3428761357270599e+02 1.0000000000000000e+00 5.0983983733576421e+00 1.0309446767416450e+00 1.7868295598567290e+01 
208 1 2 1.0280000007773427e+00 -1.2043254679284740e+02 1.0000000000000000e+00 5.0983983733652734e+00 1.0309446767524200e+00 1.7868295598566878e+01 
164 1 2 1.0280000007773435e+00 -1.9246052778961055e+02 1.0000000000000000e+00 5.0983983733576421e+00 1.0309446767416450e+00 1.7868295598567290e+01 
132 1 2 1.0280000007773433e+00 -1.4947630349601855e+02 1.0000000000000000e+00 5.0983983733653471e+00 1.0309446767444519e+00 1.7868295598567574e+01 
77 1 2 1.0279999999986864e+00 -1.5204273885796323e+02 1.0000000000000000e+00 2.2896963560960795e-01 1.4942403055390374e+01 1.8260756499776769e+00 
15 1 2 1.0279999999986864e+00 -1.2111838746444059e+02 1.0000000000000000e+00 2.2896963560960795e-01 1.4942403055390374e+01 1.8260756499776769e+00 
21 1 2 1.0279999999986864e+00 -1.2141477377608953e+02 1.0000000000000000e+00 2.2896963560960795e-01 1.4942403055390374e+01 1.8260756499776769e+00 
28 1 2 1.0279999999986864e+00 -1.5823017441972669e+02 1.0000000000000000e+00 2.2896963560960795e-01 1.4942403055390374e+01 1.8260756499776769e+00 
70 1 2 1.0279999999986864e+00 -1.3496002919532071e+02 1.0000000000000000e+00 2.2896963560960795e-01 1.4942403055390374e+01 1.8260756499776769e+00 
22 1 2 1.0279999999986864e+00 -1.7112757265564392e+02 1.0000000000000000e+00 2.2896963560960795e-01 1.4942403055390374e+01 1.8260756499776769e+00 
64 1 2 1.0279999999986864e+00 -1.4867198236374605e+02 1.0000000000000000e+00 2.2896963559925079e-01 1.4942403055393431e+01 1.8260756499804589e+00 
219 1 2 1.0280000004465288e+00 -1.3897329765799412e+02 1.0000000000000000e+00 1.3839811080297273e+00 1.0003758590652239e+01 6.3160069660724885e+00 
233 1 2 1.0280000004465286e+00 -2.1613344868329932e+02 1.0000000000000000e+00 1.3839811080297217e+00 1.0003758590652231e+01 6.3160069660724956e+00 
227 1 2 1.0280000004465286e+00 -1.5101233397211320e+02 1.0000000000000000e+00 1.3839811080297217e+00 1.0003758590652231e+01 6.3160069660724956e+00 
234 1 2 1.0280000004465286e+00 -2.0296173274834030e+02 1.0000000000000000e+00 1.3839811071422450e+00 1.0003758589840986e+01 6.3160069597199886e+00 
225 1 2 1.0280000004465206e+00 -1.4204854880638229e+02 1.0000000000000000e+00 1.3839811309913248e+00 1.0003758631281981e+01 6.3160069323654673e+00 
226 1 2 1.0280000004465288e+00 -2.0992585978175367e+02 1.0000000000000000e+00 1.3839811080297273e+00 1.0003758590652239e+01 6.3160069660724885e+00 
177 1 2 1.0280000004465288e+00 -2.0582172433496035e+02 1.0000000000000000e+00 1.3839811080297273e+00 1.0003758590652239e+01 6.3160069660724885e+00 
17 1 2 1.0279999999986869e+00 -1.2060508275342073e+02 1.0000000000000000e+00 1.4301823582292905e+00 1.6892370862711772e+01 4.1552437973728766e+00 
4 1 2 1.0279999999986869e+00 -1.7329479002723986e+02 1.0000000000000000e+00 1.4301823582299285e+00 1.6892370862711122e+01 4.1552437973730925e+00 
18 1 2 1.0279999999986869e+00 -1.6448641732119953e+02 1.0000000000000000e+00 1.4301823582299182e+00 1.6892370862711132e+01 4.1552437973730889e+00 
10 1 2 1.0279999999986869e+00 -1.6314134860698451e+02 1.0000000000000000e+00 1.4301823582301694e+00 1.6892370862709932e+01 4.1552437973739647e+00 
72 1 2 1.0279999999986869e+00 -1.4247747220315114e+02 1.0000000000000000e+00 1.4301823582296358e+00 1.6892370862711491e+01 4.1552437973729335e+00 
12 1 2 1.0279999999986869e+00 -1.7754145995069564e+02 1.0000000000000000e+00 1.4301823582439912e+00 1.6892370862692751e+01 4.1552437973812202e+00 
11 1 2 1.0279999999986869e+00 -1.7442424599869793e+02 1.0000000000000000e+00 1.4301823582439865e+00 1.6892370862692744e+01 4.1552437973812273e+00 
197 1 2 1.0279998968807942e+00 -2.2588506821019760e+02 1.0000000000000000e+00 2.8648786845007113e+00 1.5734532385906427e+01 8.7848770512183023e+00 
52 1 2 1.0279998968807942e+00 -1.9418073119550115e+02 1.0000000000000000e+00 2.8648786845007113e+00 1.5734532385906427e+01 8.7848770512183023e+00 
3 1 2 1.0279998968807942e+00 -1.7628612339578893e+02 1.0000000000000000e+00 2.8648786845007113e+00 1.5734532385906427e+01 8.7848770512183023e+00 
2 1 2 1.0279998968807944e+00 -1.4667769106554374e+02 1.0000000000000000e+00 2.8648786845015932e+00 1.5734532385905045e+01 8.7848770512194339e+00 
93 1 2 1.0279998968807944e+00 -1.7469932841665542e+02 1.0000000000000000e+00 2.8648786845015932e+00 1.5734532385905045e+01 8.7848770512194339e+00 
171 1 2 1.0279998968807944e+00 -1.7938021353607760e+02 1.0000000000000000e+00 2.8648786845015932e+00 1.5734532385905045e+01 8.7848770512194339e+00 
51 1 2 1.0279998968807942e+00 -1.5498429200963537e+02 1.0000000000000000e+00 2.8648786845007113e+00 1.5734532385906427e+01 8.7848770512183023e+00 
112 1 2 1.0280000919080574e+00 -1.6754012288665294e+02 1.0000000000000000e+00 6.3126293283497559e-01 1.6217283948943130e+01 1.1119022142077407e+01 
79 1 2 1.0280000919080574e+00 -1.5698338306568328e+02 1.0000000000000000e+00 6.3126293283496315e-01 1.6217283948943106e+01 1.1119022142077402e+01 
200 1 2 1.0280000919080574e+00 -2.2688187414781720e+02 1.0000000000000000e+00 6.3126293283493862e-01 1.6217283948943130e+01 1.1119022142077373e+01 
30 1 2 1.0280000919080574e+00 -1.8772990492151374e+02 1.0000000000000000e+00 6.3126293283493251e-01 1.6217283948943130e+01 1.1119022142077366e+01 
113 1 2 1.0280000919080574e+00 -1.6205011121109609e+02 1.0000000000000000e+00 6.3126293283494250e-01 1.6217283948943116e+01 1.1119022142077378e+01 
162 1 2 1.0280000919080574e+00 -1.7592875828259676e+02 1.0000000000000000e+00 6.3126293283493862e-01 1.6217283948943130e+01 1.1119022142077373e+01 
119 1 2 1.0280000919080574e+00 -1.4823243765090513e+02 1.0000000000000000e+00 6.3126293283497559e-01 1.6217283948943130e+01 1.1119022142077407e+01 
48 1 2 1.0280031220291632e+00 -1.8413942792806469e+02 1.0000000000000000e+00 1.2969453814548915e+01 4.7733373456148387e+00 4.9775825759225985e+00 
41 1 2 1.0280031220291632e+00 -1.9195966729148384e+02 1.0000000000000000e+00 1.2969453814548915e+01 4.7733373456148387e+00 4.9775825759225985e+00 
40 1 2 1.0280031220291632e+00 -1.7028745934082505e+02 1.0000000000000000e+00 1.2969453814548915e+01 4.7733373456148387e+00 4.9775825759225985e+00 
97 1 2 1.0280031220291632e+00 -1.9769357180680541e+02 1.0000000000000000e+00 1.2969453814548915e+01 4.7733373456148387e+00 4.9775825759225985e+00 
90 1 2 1.0280031220291632e+00 -1.8237174505118051e+02 1.0000000000000000e+00 1.2969453814548915e+01 4.7733373456148387e+00 4.9775825759225985e+00 
47 1 2 1.0280031220291632e+00 -2.0807024383635800e+02 1.0000000000000000e+00 1.2969453814548915e+01 4.7733373456148387e+00 4.9775825759225985e+00 
49 1 2 1.0280031220291632e+00 -1.7006819856712224e+02 1.0000000000000000e+00 1.2969453814548915e+01 4.7733373456148387e+00 4.9775825759225985e+00 
124 1 2 1.0280007657608665e+00 -1.3430585440912910e+02 1.0000000000000000e+00 1.2334916335496972e+01 2.5477778958770014e+00 1.3006384572275772e+01 
148 1 2 1.0280007657608667e+00 -1.5938966043548749e+02 1.0000000000000000e+00 1.2334916335497606e+01 2.5477778958780077e+00 1.3006384572276614e+01 
173 1 2 1.0280007657608667e+00 -1.6241892025206184e+02 1.0000000000000000e+00 1.2334916335497606e+01 2.5477778958780077e+00 1.3006384572276614e+01 
223 1 2 1.0280007657608667e+00 -7.9400378908449198e+01 1.0000000000000000e+00 1.2334916335497606e+01 2.5477778958780077e+00 1.3006384572276614e+01 
59 1 2 1.0280007657608665e+00 -1.5776769875536581e+02 1.0000000000000000e+00 1.2334916335496972e+01 2.5477778958770014e+00 1.3006384572275772e+01 
240 1 2 1.0280007657608667e+00 -6.0054299659118868e+01 1.0000000000000000e+00 1.2334916335497606e+01 2.5477778958780077e+00 1.3006384572276614e+01 
224 1 2 1.0280007657608667e+00 -1.0963789984316887e+02 1.0000000000000000e+00 1.2334916335497606e+01 2.5477778958780077e+00 1.3006384572276614e+01 
180 1 2 1.0280000106057099e+00 -1.5444624747781316e+02 1.0000000000000000e+00 1.2019650950837764e+01 5.1277874192861121e+00 1.1544175438272124e+01 
193 1 2 1.0280000927925774e+00 -1.3860243158913318e+02 1.0000000000000000e+00 1.2009928371485321e+01 5.3040123495546920e+00 1.1624573109960544e+01 
33 1 2 1.0280005848807832e+00 -1.5342085470627410e+02 1.0000000000000000e+00 1.1778984800278677e+01 6.5832704050710342e+00 1.1231589240028418e+01 
34 1 2 1.0280005848807825e+00 -1.4697639181872779e+02 1.0000000000000000e+00 1.1778984800392312e+01 6.5832704050354778e+00 1.1231589240079956e+01 
26 1 2 1.0280005848807827e+00 -1.8214225039994534e+02 1.0000000000000000e+00 1.1778984800760480e+01 6.5832704049205493e+00 1.1231589240245805e+01 
27 1 2 1.0280005848807827e+00 -1.5439737661053573e+02 1.0000000000000000e+00 1.1778984800708370e+01 6.5832704049374797e+00 1.1231589240219622e+01 
243 1 2 1.0279994493024096e+00 -1.7020280471357648e+02 1.0000000000000000e+00 1.1806666870831434e+01 4.9165125115731803e+00 1.0500468807279722e+01 
194 1 2 1.0279994734099316e+00 -1.8465151264475853e+02 1.0000000000000000e+00 1.1667657639018165e+01 5.2355584443113621e+00 1.0240078416673059e+01 
241 1 2 1.0279994734268296e+00 -1.6927442204323870e+02 1.0000000000000000e+00 1.1667628497528925e+01 5.2356056925828849e+00 1.0240063212463232e+01 
242 1 2 1.0279994747512193e+00 -1.9011042945981146e+02 1.0000000000000000e+00 1.1665374550353746e+01 5.2392676878598134e+00 1.0238895504869895e+01 
217 1 2 1.0279995680152971e+00 -1.3680638156344929e+02 1.0000000000000000e+00 9.1715462759776525e+00 7.8354149178644814e+00 1.2457792427546750e+01 
131 1 2 1.0279995680152971e+00 -1.1254194596562861e+02 1.0000000000000000e+00 9.1715462759776472e+00 7.8354149178644743e+00 1.2457792427546746e+01 
138 1 2 1.0279995680152971e+00 -1.2716934309558462e+02 1.0000000000000000e+00 9.1715462759776560e+00 7.8354149178644583e+00 1.2457792427546780e+01 
212 1 2 1.0279995680152973e+00 -1.8900406652432451e+02 1.0000000000000000e+00 9.1715462759776347e+00 7.8354149178644512e+00 1.2457792427546739e+01 
23 1 2 1.0279995680152973e+00 -1.7931389328985165e+02 1.0000000000000000e+00 9.1715462759776489e+00 7.8354149178644725e+00 1.2457792427546746e+01 
169 1 2 1.0279995680152971e+00 -1.5148897480707956e+02 1.0000000000000000e+00 9.1715462759776472e+00 7.8354149178644743e+00 1.2457792427546746e+01 
211 1 2 1.0279995680152973e+00 -1.3455153652197231e+02 1.0000000000000000e+00 9.1715462759776401e+00 7.8354149178644530e+00 1.2457792427546750e+01 
8 1 2 1.0279999555416581e+00 -8.0114638740797105e+01 1.0000000000000000e+00 8.4221838690244493e+00 3.3166763857192341e+00 1.5593391542276741e+01 
9 1 2 1.0279999555416715e+00 -7.8749409711541162e+01 1.0000000000000000e+00 8.4221838665695010e+00 3.3166764238970452e+00 1.5593391546024197e+01 
209 1 2 1.0279997998485193e+00 -1.6297438469363811e+02 1.0000000000000000e+00 7.9284012015431857e+00 1.5129987282067614e+00 1.4343352682769259e+01 
65 1 2 1.0279997998485180e+00 -1.6961589567497828e+02 1.0000000000000000e+00 7.9284012015405114e+00 1.5129987282135366e+00 1.4343352682769501e+01 
5 1 2 1.0279997998485173e+00 -1.7292678662598152e+02 1.0000000000000000e+00 7.9284012015432284e+00 1.5129987282068336e+00 1.4343352682769082e+01 
75 1 2 1.0279997998485180e+00 -2.3903478106234803e+02 1.0000000000000000e+00 7.9284012015431804e+00 1.5129987282068826e+00 1.4343352682769154e+01 
215 1 2 1.0279997998485164e+00 -1.8500194080501223e+02 1.0000000000000000e+00 7.9284012015432790e+00 1.5129987282066493e+00 1.4343352682769119e+01 
172 1 2 1.0280000786925576e+00 -1.9885495034220872e+02 1.0000000000000000e+00 9.9771156424638914e+00 4.1084779050723691e-01 1.4455576161361488e+01 
122 1 2 1.0280000787649533e+00 -1.2608012420249713e+02 1.0000000000000000e+00 9.9771106201047797e+00 4.1083806191430311e-01 1.4455583735615230e+01 
178 1 2 1.0280000786925578e+00 -1.5258099291767729e+02 1.0000000000000000e+00 9.9771156424638754e+00 4.1084779050718789e-01 1.4455576161361474e+01 
130 1 2 1.0280000786925578e+00 -1.6516011004570350e+02 1.0000000000000000e+00 9.9771156424638985e+00 4.1084779050725634e-01 1.4455576161361481e+01 
228 1 2 1.0280000786925583e+00 -1.5946131267853576e+02 1.0000000000000000e+00 9.9771156424642076e+00 4.1084779050777781e-01 1.4455576161360856e+01 
229 1 2 1.0280000786925563e+00 -1.8497650317376471e+02 1.0000000000000000e+00 9.9771156424651437e+00 4.1084779050969605e-01 1.4455576161359685e+01 
245 1 2 1.0279999607406198e+00 -1.6282290304736776e+02 1.0000000000000000e+00 8.4206510150748048e+00 3.3437910592013504e+00 1.5595709343238497e+01 
210 1 2 1.0280000103937847e+00 -2.2517994375606187e+02 1.0000000000000000e+00 7.7362006234821976e+00 4.3050282022365209e+00 1.4884794085178218e+01 
160 1 2 1.0280000103937841e+00 -2.9537870826923756e+02 1.0000000000000000e+00 7.7362006234822118e+00 4.3050282022365289e+00 1.4884794085178214e+01 
231 1 2 1.0280000103937843e+00 -1.8143901376960045e+02 1.0000000000000000e+00 7.7362006234820706e+00 4.3050282022364392e+00 1.4884794085178115e+01 
161 1 2 1.0280000103937841e+00 -2.7949131295865470e+02 1.0000000000000000e+00 7.7362006234820191e+00 4.3050282022364339e+00 1.4884794085178164e+01 
168 1 2 1.0280000103937850e+00 -2.3233384246156422e+02 1.0000000000000000e+00 7.7362006234821230e+00 4.3050282022364685e+00 1.4884794085178147e+01 
145 1 2 1.0280000005026693e+00 -1.4059183506206688e+02 1.0000000000000000e+00 1.1700209669059689e+01 7.6931282380828394e+00 1.6367014965715715e+01 
89 1 2 1.0280000005026693e+00 -1.0786697002685548e+02 1.0000000000000000e+00 1.1700209669059719e+01 7.6931282380827790e+00 1.6367014965715828e+01 
88 1 2 1.0280000005026693e+00 -9.9772495077639363e+01 1.0000000000000000e+00 1.1700209669059662e+01 7.6931282380827630e+00 1.6367014965715605e+01 
218 1 2 1.0280000005026693e+00 -1.6542053834367306e+02 1.0000000000000000e+00 1.1700209669059662e+01 7.6931282380827719e+00 1.6367014965715608e+01 
96 1 2 1.0280000005026693e+00 -1.2671996150949442e+02 1.0000000000000000e+00 1.1700209669059497e+01 7.6931282380828323e+00 1.6367014965714951e+01 
95 1 2 1.0280000005026693e+00 -1.0686311810984714e+02 1.0000000000000000e+00 1.1700209669059653e+01 7.6931282380828678e+00 1.6367014965715576e+01 
63 1 2 1.0280000005026690e+00 -1.9259918202134639e+02 1.0000000000000000e+00 1.1700209669059646e+01 7.6931282380827648e+00 1.6367014965715548e+01 
213 1 2 1.0279998614120032e+00 -1.3393468268241787e+02 1.0000000000000000e+00 9.7808522751020437e+00 1.5801419132490086e+01 1.5622307503783710e+00 
221 1 2 1.0279998836315034e+00 -1.9082976764078512e+02 1.0000000000000000e+00 9.8358328015818621e+00 1.5723311259630416e+01 1.6304407560490657e+00 
190 1 2 1.0279998901598664e+00 -1.5995188498624472e+02 1.0000000000000000e+00 9.8529357666937525e+00 1.5703564597154539e+01 1.6497727893056453e+00 
165 1 2 1.0280000420614444e+00 -2.0347936611915247e+02 1.0000000000000000e+00 1.0553360485392767e+01 1.5417243931292814e+01 1.7466624187191340e+00 
220 1 2 1.0280000386427028e+00 -2.0160144852299891e+02 1.0000000000000000e+00 1.0546165242636434e+01 1.5405830561799617e+01 1.7159395246346074e+00 
35 1 2 1.0280000048328721e+00 -1.9177387217896779e+02 1.0000000000000000e+00 1.1000161610639459e+01 1.6143056242595890e+01 1.5593892419147717e+00 
84 1 2 1.0280000048328717e+00 -1.5647045351089673e+02 1.0000000000000000e+00 1.1000161610639960e+01 1.6143056242592866e+01 1.5593892419128998e+00 
42 1 2 1.0280000048328719e+00 -1.7842587768239014e+02 1.0000000000000000e+00 1.1000161610639584e+01 1.6143056242594881e+01 1.5593892419145574e+00 
199 1 2 1.0280000943752434e+00 -1.0951113570865107e+02 1.0000000000000000e+00 9.6823689375003035e+00 1.8221519267863592e+01 4.7072172374187243e-01 
205 1 2 1.0280000943752428e+00 -2.4522520899875789e+02 1.0000000000000000e+00 9.6823689369062524e+00 1.8221519267850461e+01 4.7072172390446271e-01 
198 1 2 1.0280000943752419e+00 -1.0572586156194845e+02 1.0000000000000000e+00 9.6823689375014741e+00 1.8221519267861375e+01 4.7072172374253402e-01 
60 1 2 1.0280000943752425e+00 -1.3218766290190092e+02 1.0000000000000000e+00 9.6823689371163297e+00 1.8221519267854703e+01 4.7072172384714206e-01 
149 1 2 1.0280000943752421e+00 -1.3039182305470095e+02 1.0000000000000000e+00 9.6823689375019821e+00 1.8221519267861666e+01 4.7072172374227178e-01 
121 1 2 1.0280006822321901e+00 -1.1614745410776220e+02 1.0000000000000000e+00 1.0136348208641339e+01 1.7341628310769998e+01 1.3447917374709068e+01 
151 1 2 1.0280006822321901e+00 -1.7817451679825402e+02 1.0000000000000000e+00 1.0136348208641339e+01 1.7341628310769998e+01 1.3447917374709068e+01 
167 1 2 1.0280006822321901e+00 -1.2716354838102629e+02 1.0000000000000000e+00 1.0136348208641339e+01 1.7341628310769998e+01 1.3447917374709068e+01 
101 1 2 1.0280006822321899e+00 -1.5354388302839709e+02 1.0000000000000000e+00 1.0136348208641349e+01 1.7341628310769988e+01 1.3447917374709087e+01 
120 1 2 1.0280006822321899e+00 -1.4404659836661148e+02 1.0000000000000000e+00 1.0136348208641344e+01 1.7341628310769991e+01 1.3447917374709082e+01 
71 1 2 1.0280006822321901e+00 -1.0760643090467866e+02 1.0000000000000000e+00 1.0136348208641339e+01 1.7341628310769998e+01 1.3447917374709068e+01 
111 1 2 1.0280006822321899e+00 -1.4337398043047662e+02 1.0000000000000000e+00 1.0136348208641344e+01 1.7341628310769984e+01 1.3447917374709098e+01 
61 1 2 1.0279999169747249e+00 -1.0822928559153698e+02 1.0000000000000000e+00 8.2912421689024836e+00 1.8307931612340180e+01 1.8781173284550018e+01 
188 1 2 1.0279999169747254e+00 -1.4645927681670619e+02 1.0000000000000000e+00 8.2912421689023041e+00 1.8307931612340031e+01 1.8781173284551308e+01 
110 1 2 1.0279999169747212e+00 -1.2815958680256861e+02 1.0000000000000000e+00 8.2912421689022544e+00 1.8307931612340528e+01 1.8781173284550867e+01 
103 1 2 1.0279999169747249e+00 -1.2561215740802288e+02 1.0000000000000000e+00 8.2912421689022686e+00 1.8307931612340255e+01 1.8781173284551205e+01 
68 1 2 1.0279999612124826e+00 -1.6560162676944640e+02 1.0000000000000000e+00 9.8517966093258593e+00 1.8954789918735322e+01 1.8000331301214608e+01 
31 1 2 1.0279999612124835e+00 -1.5770201398510102e+02 1.0000000000000000e+00 9.8517966093305098e+00 1.8954789918746638e+01 1.8000331301224001e+01 
174 1 2 1.0279999612124782e+00 -1.1803343581358017e+02 1.0000000000000000e+00 9.8517966093253850e+00 1.8954789918735383e+01 1.8000331301214242e+01 
19 1 2 1.0279999612124833e+00 -1.9102620540925659e+02 1.0000000000000000e+00 9.8517966093256693e+00 1.8954789918735816e+01 1.8000331301214704e+01 
69 1 2 1.0279999612124824e+00 -1.5223619714680848e+02 1.0000000000000000e+00 9.8517966093253904e+00 1.8954789918735202e+01 1.8000331301214171e+01 
187 1 2 1.0280031201084452e+00 -1.1344798553769095e+02 1.0000000000000000e+00 1.3466074205768761e+01 4.1279513835249553e+00 1.1655508170441176e+00 
137 1 2 1.0280031201089348e+00 -1.4447391536068980e+02 1.0000000000000000e+00 1.3466074281962172e+01 4.1279513736435085e+00 1.1655508511867563e+00 
126 1 2 1.0280031201063502e+00 -1.2301062825424171e+02 1.0000000000000000e+00 1.3466074009203753e+01 4.1279513821754552e+00 1.1655506442201722e+00 
230 1 2 1.0280031201044806e+00 -1.1578898590502098e+02 1.0000000000000000e+00 1.3466073817823085e+01 4.1279513862984443e+00 1.1655504931172633e+00 
237 1 2 1.0280031201093967e+00 -2.1769957235877814e+02 1.0000000000000000e+00 1.3466074371415992e+01 4.1279513582303879e+00 1.1655508792365117e+00 
236 1 2 1.0280031201057491e+00 -2.1644578202372335e+02 1.0000000000000000e+00 1.3466073950562501e+01 4.1279513824649872e+00 1.1655505948462377e+00 
179 1 2 1.0280031201089210e+00 -1.4304259118749917e+02 1.0000000000000000e+00 1.3466074279340686e+01 4.1279513740384726e+00 1.1655508501855929e+00 
139 1 2 1.0279966045635820e+00 -1.1365387226695275e+02 1.0000000000000000e+00 1.4286237232595408e+01 7.1384472857648946e+00 1.9863839362239155e-01 
7 1 2 1.0279966045635820e+00 -1.7955408502483243e+02 1.0000000000000000e+00 1.4286237232595408e+01 7.1384472857648955e+00 1.9863839362239491e-01 
105 1 2 1.0279966045635820e+00 -2.1579210276318355e+02 1.0000000000000000e+00 1.4286237232595408e+01 7.1384472857648911e+00 1.9863839362238089e-01 
56 1 2 1.0279966045635820e+00 -2.0570150697561976e+02 1.0000000000000000e+00 1.4286237232595406e+01 7.1384472857648982e+00 1.9863839362239855e-01 
55 1 2 1.0279966045635820e+00 -1.7859852125572516e+02 1.0000000000000000e+00 1.4286237232595408e+01 7.1384472857648955e+00 1.9863839362239491e-01 
143 1 2 1.0279966045635820e+00 -1.8204984280739831e+02 1.0000000000000000e+00 1.4286237232595401e+01 7.1384472857648946e+00 1.9863839362238453e-01 
1 1 2 1.0279966045635820e+00 -2.1405969263968848e+02 1.0000000000000000e+00 1.4286237232595404e+01 7.1384472857648946e+00 1.9863839362238803e-01 
108 1 2 1.0279966064852479e+00 -1.2901410752321644e+02 1.0000000000000000e+00 1.5422262259754589e+01 2.6551157813804043e+00 5.3868997290097935e+00 
58 1 2 1.0279966064852479e+00 -1.4697277152648414e+02 1.0000000000000000e+00 1.5422262259754065e+01 2.6551157813799926e+00 5.3868997290108034e+00 
114 1 2 1.0279966064852479e+00 -1.2390326593471617e+02 1.0000000000000000e+00 1.5422262259754065e+01 2.6551157813799926e+00 5.3868997290108034e+00 
156 1 2 1.0279966064852479e+00 -1.2509993476589598e+02 1.0000000000000000e+00 1.5422262259754589e+01 2.6551157813804043e+00 5.3868997290097935e+00 
123 1 2 1.0279966064852479e+00 -1.8112218217474336e+02 1.0000000000000000e+00 1.5422262259754589e+01 2.6551157813804043e+00 5.3868997290097935e+00 
107 1 2 1.0279966064852479e+00 -1.2817144944826134e+02 1.0000000000000000e+00 1.5422262259753317e+01 2.6551157813801396e+00 5.3868997290160427e+00 
142 1 2 1.0279966064852479e+00 -1.8103542971560137e+02 1.0000000000000000e+00 1.5422262259754065e+01 2.6551157813799926e+00 5.3868997290108034e+00 
150 1 2 1.0280002856914259e+00 -1.2767368475971459e+02 1.0000000000000000e+00 1.4733807629336031e+01 4.1900526968836740e+00 9.9518269188821851e+00 
192 1 2 1.0280002856915513e+00 -1.1676136812219829e+02 1.0000000000000000e+00 1.4733807648948684e+01 4.1900526940222811e+00 9.9518270080586095e+00 
133 1 2 1.0280002856915194e+00 -1.4072465206239701e+02 1.0000000000000000e+00 1.4733807643308962e+01 4.1900526961854450e+00 9.9518269805468140e+00 
186 1 2 1.0280002856914496e+00 -1.1613959162928266e+02 1.0000000000000000e+00 1.4733807632975763e+01 4.1900526964436242e+00 9.9518269353047906e+00 
24 1 2 1.0280002856914796e+00 -2.1008568596463257e+02 1.0000000000000000e+00 1.4733807637665651e+01 4.1900526958564912e+00 9.9518269564937629e+00 
235 1 2 1.0280002856915293e+00 -2.0280228530259214e+02 1.0000000000000000e+00 1.4733807645416638e+01 4.1900526957695057e+00 9.9518269902811038e+00 
102 1 2 1.0280002856914570e+00 -1.6987173474755301e+02 1.0000000000000000e+00 1.4733807634259129e+01 4.1900526964077498e+00 9.9518269409289761e+00 
74 1 2 1.0279998927402256e+00 -1.5355463303034651e+02 1.0000000000000000e+00 1.8244261067976783e+01 6.3743992096847002e+00 9.6058270330944833e+00 
66 1 2 1.0279998927402330e+00 -1.5169446068291404e+02 1.0000000000000000e+00 1.8244261064582393e+01 6.3743992107331744e+00 9.6058270379685773e+00 
109 1 2 1.0279998927402079e+00 -1.4106045701158871e+02 1.0000000000000000e+00 1.8244261036406876e+01 6.3743992744833129e+00 9.6058275498493622e+00 
116 1 2 1.0279998927402250e+00 -1.1023998467496122e+02 1.0000000000000000e+00 1.8244261067395840e+01 6.3743992098003073e+00 9.6058270333821856e+00 
73 1 2 1.0279998927438003e+00 -1.5405195825914166e+02 1.0000000000000000e+00 1.8244590967576048e+01 6.3742727201579559e+00 9.6051192453352918e+00 
67 1 2 1.0279998927414093e+00 -7.4719342628242629e+01 1.0000000000000000e+00 1.8244781887439441e+01 6.3743883003132904e+00 9.6063431859477806e+00 
115 1 2 1.0279998927530103e+00 -1.7526108231928606e+02 1.0000000000000000e+00 1.8245831604202220e+01 6.3742354800449670e+00 9.6062245568782405e+00 
222 1 2 1.0280001077599108e+00 -1.6023025689572302e+02 1.0000000000000000e+00 1.8688520476675578e+01 9.5886757187386138e+00 9.2298383365950549e+00 
29 1 2 1.0280001077599108e+00 -1.8748169622558706e+02 1.0000000000000000e+00 1.8688520476675286e+01 9.5886757187385889e+00 9.2298383365945114e+00 
32 1 2 1.0280001077599108e+00 -2.4170856514628599e+02 1.0000000000000000e+00 1.8688520476681234e+01 9.5886757187377487e+00 9.2298383365943408e+00 
25 1 2 1.0280001077599110e+00 -2.9003896414790040e+02 1.0000000000000000e+00 1.8688520476662447e+01 9.5886757187405163e+00 9.2298383365958259e+00 
82 1 2 1.0280001077599108e+00 -1.7108693475872167e+02 1.0000000000000000e+00 1.8688520476661267e+01 9.5886757187407081e+00 9.2298383365960603e+00 
127 1 2 1.0280001077599110e+00 -1.3663658790501682e+02 1.0000000000000000e+00 1.8688520476665694e+01 9.5886757187400651e+00 9.2298383365958028e+00 
81 1 2 1.0280001077599108e+00 -2.2546524261870576e+02 1.0000000000000000e+00 1.8688520476660873e+01 9.5886757187407650e+00 9.2298383365960728e+00 
239 1 2 1.0279998863726714e+00 -1.4593860597799534e+02 1.0000000000000000e+00 1.9368152711970691e+01 2.0349520971214470e+00 1.1180236914939574e+01 
118 1 2 1.0279998863726716e+00 -1.3116430792856295e+02 1.0000000000000000e+00 1.9368152711970456e+01 2.0349520971213462e+00 1.1180236914938281e+01 
117 1 2 1.0279998863726716e+00 -1.0684016364082024e+02 1.0000000000000000e+00 1.9368152711971394e+01 2.0349520971212334e+00 1.1180236914939062e+01 