LAMMPS data file via write_data, version 30 Jul 2016, timestep = 50400000

245 atoms
2 atom types

0.0000000000000000e+00 2.0000000000000000e+01 xlo xhi
0.0000000000000000e+00 2.0000000000000000e+01 ylo yhi
0.0000000000000000e+00 2.0000000000000000e+01 zlo zhi

Masses

1 3.896
2 4.31

Atoms # meso-molecular

95 1 2 1.0279999995194617e+00 -1.0686311810984714e+02 1.0000000000000000e+00 5.6631787877499367e+00 9.3464803849660427e-01 1.8321613283712421e+00 
63 1 2 1.0279999995194617e+00 -1.9259918202134639e+02 1.0000000000000000e+00 5.6631787877499331e+00 9.3464803849649747e-01 1.8321613283712186e+00 
145 1 2 1.0279999995194617e+00 -1.4059183506206688e+02 1.0000000000000000e+00 5.6631787877499722e+00 9.3464803849657208e-01 1.8321613283713793e+00 
89 1 2 1.0279999995194617e+00 -1.0786697002685548e+02 1.0000000000000000e+00 5.6631787877500033e+00 9.3464803849651168e-01 1.8321613283715024e+00 
88 1 2 1.0279999995194617e+00 -9.9772495077639363e+01 1.0000000000000000e+00 5.6631787877499455e+00 9.3464803849649758e-01 1.8321613283712690e+00 
218 1 2 1.0279999995194617e+00 -1.6542053834367306e+02 1.0000000000000000e+00 5.6631787877499464e+00 9.3464803849650469e-01 1.8321613283712743e+00 
96 1 2 1.0279999995194617e+00 -1.2671996150949442e+02 1.0000000000000000e+00 5.6631787877497839e+00 9.3464803849656852e-01 1.8321613283706253e+00 
213 1 2 1.0279997516142294e+00 -1.3393468266603278e+02 1.0000000000000000e+00 3.3112818604977430e+00 8.2789483394986654e+00 6.8810889780212001e+00 
35 1 2 1.0280000747932831e+00 -1.9177387216698062e+02 1.0000000000000000e+00 4.5297380689744502e+00 8.6201897148422777e+00 6.8783401417381773e+00 
84 1 2 1.0280000747932823e+00 -1.5647045349890956e+02 1.0000000000000000e+00 4.5297380689749520e+00 8.6201897148392543e+00 6.8783401417362953e+00 
42 1 2 1.0280000747932825e+00 -1.7842587767040297e+02 1.0000000000000000e+00 4.5297380689745763e+00 8.6201897148412616e+00 6.8783401417379517e+00 
221 1 2 1.0279997833186962e+00 -1.9082976762573733e+02 1.0000000000000000e+00 3.3660716438359715e+00 8.2008697245108397e+00 6.9491961245836462e+00 
220 1 2 1.0280000255149415e+00 -2.0160144851668272e+02 1.0000000000000000e+00 4.0755467853328105e+00 7.8829420039926159e+00 7.0347683674652473e+00 
165 1 2 1.0280000325150909e+00 -2.0347936611286300e+02 1.0000000000000000e+00 4.0827460482138944e+00 7.8943386981093333e+00 7.0654980126930580e+00 
190 1 2 1.0279997927387585e+00 -1.5995188497156261e+02 1.0000000000000000e+00 3.3831205118786731e+00 8.1811258165185468e+00 6.9685029395228106e+00 
169 1 2 1.0279975818753748e+00 -1.5148897472606365e+02 1.0000000000000000e+00 3.1599489295655805e+00 8.2524305952710020e-01 1.8020085868431686e+01 
138 1 2 1.0279975818753748e+00 -1.2716934301428245e+02 1.0000000000000000e+00 3.1599489295655903e+00 8.2524305952708599e-01 1.8020085868431721e+01 
212 1 2 1.0279975818753748e+00 -1.8900406644330860e+02 1.0000000000000000e+00 3.1599489295655672e+00 8.2524305952707533e-01 1.8020085868431682e+01 
131 1 2 1.0279975818753748e+00 -1.1254194588432644e+02 1.0000000000000000e+00 3.1599489295655805e+00 8.2524305952710020e-01 1.8020085868431686e+01 
217 1 2 1.0279975818753748e+00 -1.3680638148243338e+02 1.0000000000000000e+00 3.1599489295655867e+00 8.2524305952711052e-01 1.8020085868431689e+01 
211 1 2 1.0279975818753748e+00 -1.3455153644095640e+02 1.0000000000000000e+00 3.1599489295655729e+00 8.2524305952708210e-01 1.8020085868431689e+01 
23 1 2 1.0279975818753748e+00 -1.7931389320883574e+02 1.0000000000000000e+00 3.1599489295655760e+00 8.2524305952709287e-01 1.8020085868431686e+01 
68 1 2 1.0279998743976362e+00 -1.6560160383724130e+02 1.0000000000000000e+00 3.3846830384288404e+00 1.1437511877552009e+01 3.3218531259603719e+00 
31 1 2 1.0279998743976368e+00 -1.5770199105289592e+02 1.0000000000000000e+00 3.3846830384334670e+00 1.1437511877563276e+01 3.3218531259697381e+00 
174 1 2 1.0279998743976368e+00 -1.1803341288108575e+02 1.0000000000000000e+00 3.3846830384283679e+00 1.1437511877552041e+01 3.3218531259600104e+00 
19 1 2 1.0279998743976368e+00 -1.9102618247705149e+02 1.0000000000000000e+00 3.3846830384286442e+00 1.1437511877552488e+01 3.3218531259604567e+00 
69 1 2 1.0279998743976366e+00 -1.5223617421460338e+02 1.0000000000000000e+00 3.3846830384283666e+00 1.1437511877551865e+01 3.3218531259599207e+00 
245 1 2 1.0279998430954242e+00 -1.6282290301366248e+02 1.0000000000000000e+00 2.4082629097984611e+00 1.6418530010137864e+01 1.2473756447161515e+00 
8 1 2 1.0279998354443225e+00 -8.0114638707000864e+01 1.0000000000000000e+00 2.4097734319885942e+00 1.6391419151129242e+01 1.2450216452294540e+00 
9 1 2 1.0279998354443327e+00 -7.8749409677744922e+01 1.0000000000000000e+00 2.4097734295663478e+00 1.6391419189301331e+01 1.2450216490287509e+00 
122 1 2 1.0279999512132612e+00 -1.2608010340375120e+02 1.0000000000000000e+00 3.9616095334254364e+00 1.3480179436919959e+01 1.0361149338387914e-01 
228 1 2 1.0279999511964741e+00 -1.5946129188221715e+02 1.0000000000000000e+00 3.9616145731313019e+00 1.3480189241313790e+01 1.0360392043044506e-01 
229 1 2 1.0279999511964739e+00 -1.8497648237744610e+02 1.0000000000000000e+00 3.9616145731322292e+00 1.3480189241315712e+01 1.0360392042928028e-01 
172 1 2 1.0279999511964744e+00 -1.9885492954589012e+02 1.0000000000000000e+00 3.9616145731309791e+00 1.3480189241313241e+01 1.0360392043109197e-01 
178 1 2 1.0279999511964744e+00 -1.5258097212135868e+02 1.0000000000000000e+00 3.9616145731309644e+00 1.3480189241313193e+01 1.0360392043107454e-01 
130 1 2 1.0279999511964744e+00 -1.6516008924938490e+02 1.0000000000000000e+00 3.9616145731309884e+00 1.3480189241313260e+01 1.0360392043108557e-01 
168 1 2 1.0280000364417110e+00 -2.3233384245336509e+02 1.0000000000000000e+00 1.7244062187643241e+00 1.7380082121586913e+01 5.3739996305445892e-01 
210 1 2 1.0280000364417110e+00 -2.2517994374786275e+02 1.0000000000000000e+00 1.7244062187643776e+00 1.7380082121586955e+01 5.3739996305452820e-01 
160 1 2 1.0280000364417130e+00 -2.9537870826923756e+02 1.0000000000000000e+00 1.7244062187644029e+00 1.7380082121586959e+01 5.3739996305452820e-01 
231 1 2 1.0280000364417117e+00 -1.8143901376140133e+02 1.0000000000000000e+00 1.7244062187642650e+00 1.7380082121586877e+01 5.3739996305443150e-01 
161 1 2 1.0280000364417117e+00 -2.7949131295865470e+02 1.0000000000000000e+00 1.7244062187641775e+00 1.7380082121586860e+01 5.3739996305449056e-01 
188 1 2 1.0280000453541740e+00 -1.4645927677412044e+02 1.0000000000000000e+00 1.8233449516052567e+00 1.0788967245808802e+01 4.1008519401861259e+00 
110 1 2 1.0280000453541736e+00 -1.2815958675998286e+02 1.0000000000000000e+00 1.8233449516052080e+00 1.0788967245809319e+01 4.1008519401857022e+00 
103 1 2 1.0280000453541742e+00 -1.2561215736050420e+02 1.0000000000000000e+00 1.8233449516052196e+00 1.0788967245809038e+01 4.1008519401860264e+00 
61 1 2 1.0280000453541740e+00 -1.0822928554401830e+02 1.0000000000000000e+00 1.8233449516054350e+00 1.0788967245808966e+01 4.1008519401848371e+00 
149 1 2 1.0280000556868640e+00 -1.3039182299717001e+02 1.0000000000000000e+00 3.2134468902126958e+00 1.0701232777533470e+01 5.7904473216144172e+00 
60 1 2 1.0280000556868640e+00 -1.3218766284436998e+02 1.0000000000000000e+00 3.2134468898267365e+00 1.0701232777526416e+01 5.7904473217192800e+00 
198 1 2 1.0280000556868634e+00 -1.0572586150206962e+02 1.0000000000000000e+00 3.2134468902121891e+00 1.0701232777533187e+01 5.7904473216146748e+00 
205 1 2 1.0280000556868634e+00 -2.4522520894122695e+02 1.0000000000000000e+00 3.2134468896164630e+00 1.0701232777522133e+01 5.7904473217766022e+00 
199 1 2 1.0280000556868634e+00 -1.0951113564877224e+02 1.0000000000000000e+00 3.2134468902110149e+00 1.0701232777535386e+01 5.7904473216140353e+00 
243 1 2 1.0279963258006812e+00 -1.7020280387047580e+02 1.0000000000000000e+00 5.8035671060291527e+00 1.7916239301944994e+01 1.6068439447377202e+01 
242 1 2 1.0279973449261846e+00 -1.9011042933469071e+02 1.0000000000000000e+00 5.6623513837265840e+00 1.8236350021151939e+01 1.5807459798107010e+01 
194 1 2 1.0279973254992851e+00 -1.8465151251840749e+02 1.0000000000000000e+00 5.6646315855092571e+00 1.8232666393082219e+01 1.5808646046886032e+01 
241 1 2 1.0279973257467612e+00 -1.6927442191691131e+02 1.0000000000000000e+00 5.6646024815153524e+00 1.8232713313972116e+01 1.5808630801266650e+01 
111 1 2 1.0280005020227758e+00 -1.4337398040773925e+02 1.0000000000000000e+00 4.1250430439479064e+00 1.0409999817577466e+01 1.9099568296750245e+01 
71 1 2 1.0280005020227758e+00 -1.0760643088194129e+02 1.0000000000000000e+00 4.1250430439479029e+00 1.0409999817577477e+01 1.9099568296750213e+01 
120 1 2 1.0280005020227758e+00 -1.4404659834387411e+02 1.0000000000000000e+00 4.1250430439479091e+00 1.0409999817577470e+01 1.9099568296750228e+01 
101 1 2 1.0280005020227758e+00 -1.5354388300565972e+02 1.0000000000000000e+00 4.1250430439479118e+00 1.0409999817577470e+01 1.9099568296750238e+01 
167 1 2 1.0280005020227758e+00 -1.2716354835828892e+02 1.0000000000000000e+00 4.1250430439479029e+00 1.0409999817577477e+01 1.9099568296750213e+01 
151 1 2 1.0280005020227758e+00 -1.7817451677551665e+02 1.0000000000000000e+00 4.1250430439479029e+00 1.0409999817577477e+01 1.9099568296750213e+01 
121 1 2 1.0280005020227758e+00 -1.1614745408502483e+02 1.0000000000000000e+00 4.1250430439479029e+00 1.0409999817577477e+01 1.9099568296750213e+01 
215 1 2 1.0279998839536453e+00 -1.8500194064125557e+02 1.0000000000000000e+00 1.9160670560507336e+00 1.4587242639827373e+01 1.9994923603828099e+01 
75 1 2 1.0279998839536457e+00 -2.3903478089859138e+02 1.0000000000000000e+00 1.9160670560506259e+00 1.4587242639827620e+01 1.9994923603828134e+01 
5 1 2 1.0279998839536457e+00 -1.7292678646222487e+02 1.0000000000000000e+00 1.9160670560506625e+00 1.4587242639827579e+01 1.9994923603828084e+01 
65 1 2 1.0279998839536464e+00 -1.6961589551122162e+02 1.0000000000000000e+00 1.9160670560479727e+00 1.4587242639834287e+01 1.9994923603828489e+01 
209 1 2 1.0279998839536457e+00 -1.6297438452988146e+02 1.0000000000000000e+00 1.9160670560506183e+00 1.4587242639827501e+01 1.9994923603828255e+01 
59 1 2 1.0280007798694597e+00 -1.5776769655927390e+02 1.0000000000000000e+00 6.3393429079716910e+00 1.5570977062559225e+01 1.8610198420630905e+01 
240 1 2 1.0280007798694595e+00 -6.0054297463312956e+01 1.0000000000000000e+00 6.3393429079723322e+00 1.5570977062560244e+01 1.8610198420631761e+01 
224 1 2 1.0280007798694595e+00 -1.0963789764699986e+02 1.0000000000000000e+00 6.3393429079723322e+00 1.5570977062560244e+01 1.8610198420631761e+01 
124 1 2 1.0280007798694597e+00 -1.3430585221303718e+02 1.0000000000000000e+00 6.3393429079716910e+00 1.5570977062559225e+01 1.8610198420630905e+01 
148 1 2 1.0280007798694595e+00 -1.5938965823939557e+02 1.0000000000000000e+00 6.3393429079723322e+00 1.5570977062560244e+01 1.8610198420631761e+01 
173 1 2 1.0280007798694595e+00 -1.6241891805596993e+02 1.0000000000000000e+00 6.3393429079723322e+00 1.5570977062560244e+01 1.8610198420631761e+01 
223 1 2 1.0280007798694595e+00 -7.9400376712280192e+01 1.0000000000000000e+00 6.3393429079723322e+00 1.5570977062560244e+01 1.8610198420631761e+01 
180 1 2 1.0279990317769965e+00 -1.5444624462421410e+02 1.0000000000000000e+00 6.0158837320113072e+00 1.8126849538089782e+01 1.7112653704406345e+01 
27 1 2 1.0280031530004998e+00 -1.5439737641658644e+02 1.0000000000000000e+00 5.7736839950284029e+00 1.9581950899361789e+01 1.6798186088980025e+01 
26 1 2 1.0280031530005016e+00 -1.8214225020599605e+02 1.0000000000000000e+00 5.7736839950809458e+00 1.9581950899344815e+01 1.6798186089006414e+01 
193 1 2 1.0279999168829645e+00 -1.3860242930666962e+02 1.0000000000000000e+00 6.0060746331053556e+00 1.8302320035000829e+01 1.7193225613278795e+01 
34 1 2 1.0280031530004985e+00 -1.4697639162477850e+02 1.0000000000000000e+00 5.7736839947102201e+00 1.9581950899459883e+01 1.6798186088839337e+01 
33 1 2 1.0280031530005047e+00 -1.5342085451232481e+02 1.0000000000000000e+00 5.7736839945957703e+00 1.9581950899495485e+01 1.6798186088787354e+01 
153 1 2 1.0279999995170925e+00 -2.2409994863247158e+02 1.0000000000000000e+00 8.8319308974090571e+00 9.7847267396658044e-01 1.0400753272022447e+00 
104 1 2 1.0279999995167917e+00 -2.2402309503522423e+02 1.0000000000000000e+00 8.8319309320925914e+00 9.7847596195391462e-01 1.0400756477316246e+00 
78 1 2 1.0279999995165994e+00 -2.0564953232423349e+02 1.0000000000000000e+00 8.8319311281365653e+00 9.7847679765549966e-01 1.0400764782830350e+00 
195 1 2 1.0279999995167985e+00 -2.3633061476053041e+02 1.0000000000000000e+00 8.8319308413321878e+00 9.7847655709219572e-01 1.0400753175900928e+00 
154 1 2 1.0279999995172302e+00 -1.3407332664746855e+02 1.0000000000000000e+00 8.8319301745884538e+00 9.7847643793015671e-01 1.0400726438497920e+00 
202 1 2 1.0279999995170925e+00 -1.5152174195556444e+02 1.0000000000000000e+00 8.8319308974090553e+00 9.7847267396645643e-01 1.0400753272022301e+00 
203 1 2 1.0279999995164366e+00 -1.2294930256528207e+02 1.0000000000000000e+00 8.8319313419609262e+00 9.7847710033398871e-01 1.0400773504916450e+00 
166 1 2 1.0279470786593914e+00 -1.7362937570089497e+02 1.0000000000000000e+00 1.0335162454373469e+01 9.4336351108403420e+00 1.0131766491119258e+01 
183 1 2 1.0279470786593914e+00 -1.0322506778476874e+02 1.0000000000000000e+00 1.0335162454373412e+01 9.4336351108402674e+00 1.0131766491119290e+01 
158 1 2 1.0279470786593914e+00 -1.6469438026693260e+02 1.0000000000000000e+00 1.0335162454373421e+01 9.4336351108402781e+00 1.0131766491119297e+01 
141 1 2 1.0279470786593909e+00 -1.3952555633168060e+02 1.0000000000000000e+00 1.0335162454373394e+01 9.4336351108402425e+00 1.0131766491119279e+01 
134 1 2 1.0279470786593914e+00 -1.1200008510573929e+02 1.0000000000000000e+00 1.0335162454373421e+01 9.4336351108402781e+00 1.0131766491119297e+01 
191 1 2 1.0279470786593914e+00 -1.7456979455375185e+02 1.0000000000000000e+00 1.0335162454373423e+01 9.4336351108402816e+00 1.0131766491119302e+01 
54 1 2 1.0279470786593909e+00 -1.5708650364393722e+02 1.0000000000000000e+00 1.0335162454373396e+01 9.4336351108402443e+00 1.0131766491119299e+01 
222 1 2 1.0280103640989864e+00 -1.6023018604896581e+02 1.0000000000000000e+00 1.2424705670249875e+01 2.0491723987125638e+00 1.4628464848209997e+01 
29 1 2 1.0280103640989862e+00 -1.8748162537882985e+02 1.0000000000000000e+00 1.2424705670248784e+01 2.0491723987125594e+00 1.4628464848208107e+01 
81 1 2 1.0280103640989919e+00 -2.2546517177194843e+02 1.0000000000000000e+00 1.2424705670199959e+01 2.0491723987161632e+00 1.4628464848209322e+01 
32 1 2 1.0280103640989842e+00 -2.4170849429952878e+02 1.0000000000000000e+00 1.2424705670269514e+01 2.0491723987111032e+00 1.4628464848209239e+01 
25 1 2 1.0280103640989910e+00 -2.9003889330115754e+02 1.0000000000000000e+00 1.2424705670205379e+01 2.0491723987157568e+00 1.4628464848208928e+01 
82 1 2 1.0280103640989917e+00 -1.7108686391196434e+02 1.0000000000000000e+00 1.2424705670201300e+01 2.0491723987160695e+00 1.4628464848209347e+01 
127 1 2 1.0280103640989897e+00 -1.3663651705825950e+02 1.0000000000000000e+00 1.2424705670216348e+01 2.0491723987149957e+00 1.4628464848209690e+01 
92 1 2 1.0279999977794152e+00 -2.0394432943305117e+02 1.0000000000000000e+00 7.7526193635685114e+00 5.5470459414494995e+00 1.4548568255394168e+01 
44 1 2 1.0279999977794152e+00 -2.1705228708005561e+02 1.0000000000000000e+00 7.7526193635685114e+00 5.5470459414494897e+00 1.4548568255394162e+01 
36 1 2 1.0279999977794152e+00 -2.0437586575446358e+02 1.0000000000000000e+00 7.7526193635685114e+00 5.5470459414494995e+00 1.4548568255394168e+01 
85 1 2 1.0279999977794152e+00 -1.6513699286146937e+02 1.0000000000000000e+00 7.7526193635685114e+00 5.5470459414494968e+00 1.4548568255394166e+01 
86 1 2 1.0279999977794152e+00 -1.1414876389603053e+02 1.0000000000000000e+00 7.7526193635685114e+00 5.5470459414494968e+00 1.4548568255394166e+01 
16 1 2 1.0279999977794152e+00 -1.8448696721773533e+02 1.0000000000000000e+00 7.7526193635685114e+00 5.5470459414494968e+00 1.4548568255394166e+01 
43 1 2 1.0279999977794152e+00 -2.2187765816285000e+02 1.0000000000000000e+00 7.7526193635685132e+00 5.5470459414494879e+00 1.4548568255394164e+01 
80 1 2 1.0279999977794154e+00 -1.0427509017300454e+02 1.0000000000000000e+00 1.0749001023220984e+01 6.1400790315643992e+00 1.3390846504001354e+01 
204 1 2 1.0279999977794154e+00 -2.3866551797439573e+02 1.0000000000000000e+00 1.0749001023220439e+01 6.1400790315660494e+00 1.3390846504000798e+01 
155 1 2 1.0279999977794154e+00 -1.7123535780250356e+02 1.0000000000000000e+00 1.0749001023220554e+01 6.1400790315687139e+00 1.3390846504002461e+01 
13 1 2 1.0279999977794154e+00 -1.7397506453511036e+02 1.0000000000000000e+00 1.0749001023221112e+01 6.1400790315661320e+00 1.3390846504002580e+01 
20 1 2 1.0279999977794154e+00 -1.4688548338658015e+02 1.0000000000000000e+00 1.0749001023221016e+01 6.1400790315633760e+00 1.3390846504000912e+01 
6 1 2 1.0279999977794154e+00 -1.7075463924663799e+02 1.0000000000000000e+00 1.0749001023222471e+01 6.1400790315676224e+00 1.3390846504006857e+01 
14 1 2 1.0279999977794154e+00 -1.1473779927566395e+02 1.0000000000000000e+00 1.0749001023221199e+01 6.1400790315642322e+00 1.3390846504001829e+01 
187 1 2 1.0280034688766826e+00 -1.1344797611878775e+02 1.0000000000000000e+00 7.3222924687937905e+00 1.6896523844461676e+01 6.6569057828106786e+00 
137 1 2 1.0280034688759683e+00 -1.4447390594170349e+02 1.0000000000000000e+00 7.3222925499890987e+00 1.6896523833683528e+01 6.6569058191907180e+00 
126 1 2 1.0280034688808353e+00 -1.2301061883536272e+02 1.0000000000000000e+00 7.3222922590459980e+00 1.6896523844258326e+01 6.6569055987579535e+00 
230 1 2 1.0280034688844082e+00 -1.1578897648616274e+02 1.0000000000000000e+00 7.3222920548870656e+00 1.6896523849733700e+01 6.6569054378280015e+00 
237 1 2 1.0280034688754183e+00 -2.1769956293978876e+02 1.0000000000000000e+00 7.3222926452764892e+00 1.6896523817050774e+01 6.6569058490917188e+00 
236 1 2 1.0280034688820014e+00 -2.1644577260477132e+02 1.0000000000000000e+00 7.3222921964794407e+00 1.6896523844919631e+01 6.6569055461750812e+00 
179 1 2 1.0280034688759854e+00 -1.4304258176851309e+02 1.0000000000000000e+00 7.3222925471958087e+00 1.6896523834111573e+01 6.6569058181231613e+00 
139 1 2 1.0279960635357590e+00 -1.1365387212746545e+02 1.0000000000000000e+00 8.1442803829739514e+00 1.9910487051112632e+01 5.7023944239471653e+00 
7 1 2 1.0279960635357590e+00 -1.7955408488530293e+02 1.0000000000000000e+00 8.1442803829739550e+00 1.9910487051112632e+01 5.7023944239471680e+00 
105 1 2 1.0279960635357590e+00 -2.1579210262365405e+02 1.0000000000000000e+00 8.1442803829739496e+00 1.9910487051112629e+01 5.7023944239471573e+00 
56 1 2 1.0279960635357590e+00 -2.0570150683609026e+02 1.0000000000000000e+00 8.1442803829739443e+00 1.9910487051112636e+01 5.7023944239471760e+00 
55 1 2 1.0279960635357590e+00 -1.7859852111619566e+02 1.0000000000000000e+00 8.1442803829739550e+00 1.9910487051112632e+01 5.7023944239471680e+00 
143 1 2 1.0279960635357590e+00 -1.8204984266786880e+02 1.0000000000000000e+00 8.1442803829739443e+00 1.9910487051112632e+01 5.7023944239471582e+00 
1 1 2 1.0279960635357590e+00 -2.1405969250015897e+02 1.0000000000000000e+00 8.1442803829739496e+00 1.9910487051112632e+01 5.7023944239471627e+00 
76 1 2 1.0280547522732659e+00 -1.7381674636917060e+02 1.0000000000000000e+00 7.7497922595472861e+00 1.1430234979606738e+01 1.0205315189232170e+01 
106 1 2 1.0280547522732659e+00 -1.7504093789169374e+02 1.0000000000000000e+00 7.7497922595473074e+00 1.1430234979606766e+01 1.0205315189232161e+01 
57 1 2 1.0280547522732657e+00 -2.3776366087066617e+02 1.0000000000000000e+00 7.7497922595472586e+00 1.1430234979606698e+01 1.0205315189232200e+01 
100 1 2 1.0280547522732659e+00 -1.6233033288532746e+02 1.0000000000000000e+00 7.7497922595473074e+00 1.1430234979606766e+01 1.0205315189232161e+01 
37 1 2 1.0280547522732657e+00 -1.0381978776219398e+02 1.0000000000000000e+00 7.7497922595472586e+00 1.1430234979606698e+01 1.0205315189232200e+01 
50 1 2 1.0280547522732657e+00 -2.3027784260968309e+02 1.0000000000000000e+00 7.7497922595472435e+00 1.1430234979606679e+01 1.0205315189232140e+01 
99 1 2 1.0280547522732657e+00 -1.6960993473995995e+02 1.0000000000000000e+00 7.7497922595472790e+00 1.1430234979606729e+01 1.0205315189232151e+01 
142 1 2 1.0280509713858483e+00 -1.8103542126345610e+02 1.0000000000000000e+00 9.4313898139940875e+00 1.4744997038804126e+01 1.0954310335823864e+01 
58 1 2 1.0280509713858483e+00 -1.4697276307433887e+02 1.0000000000000000e+00 9.4313898139940875e+00 1.4744997038804126e+01 1.0954310335823864e+01 
114 1 2 1.0280509713858483e+00 -1.2390325748243578e+02 1.0000000000000000e+00 9.4313898139940875e+00 1.4744997038804126e+01 1.0954310335823864e+01 
156 1 2 1.0280509713858479e+00 -1.2509992631361558e+02 1.0000000000000000e+00 9.4313898139946222e+00 1.4744997038804549e+01 1.0954310335822806e+01 
123 1 2 1.0280509713858479e+00 -1.8112217372259809e+02 1.0000000000000000e+00 9.4313898139946222e+00 1.4744997038804549e+01 1.0954310335822806e+01 
107 1 2 1.0280509713858481e+00 -1.2817144099611608e+02 1.0000000000000000e+00 9.4313898139932633e+00 1.4744997038804307e+01 1.0954310335829389e+01 
108 1 2 1.0280509713858479e+00 -1.2901409907107117e+02 1.0000000000000000e+00 9.4313898139946222e+00 1.4744997038804549e+01 1.0954310335822806e+01 
48 1 2 1.0279507031150033e+00 -1.8413941857570094e+02 1.0000000000000000e+00 6.9764849282433845e+00 1.6860381824207376e+01 1.0536036545276527e+01 
90 1 2 1.0279507031150033e+00 -1.8237173569881676e+02 1.0000000000000000e+00 6.9764849282433845e+00 1.6860381824207376e+01 1.0536036545276527e+01 
47 1 2 1.0279507031150033e+00 -2.0807023448399426e+02 1.0000000000000000e+00 6.9764849282433845e+00 1.6860381824207376e+01 1.0536036545276527e+01 
49 1 2 1.0279507031150033e+00 -1.7006818921475849e+02 1.0000000000000000e+00 6.9764849282433845e+00 1.6860381824207376e+01 1.0536036545276527e+01 
97 1 2 1.0279507031150033e+00 -1.9769356245444166e+02 1.0000000000000000e+00 6.9764849282433845e+00 1.6860381824207376e+01 1.0536036545276527e+01 
40 1 2 1.0279507031150033e+00 -1.7028744998846130e+02 1.0000000000000000e+00 6.9764849282433845e+00 1.6860381824207376e+01 1.0536036545276527e+01 
41 1 2 1.0279507031150033e+00 -1.9195965793912009e+02 1.0000000000000000e+00 6.9764849282433845e+00 1.6860381824207376e+01 1.0536036545276527e+01 
238 1 2 1.0280000000020513e+00 -1.8176815794575748e+02 1.0000000000000000e+00 1.3270690098318157e+01 1.4653902371516070e+01 1.6662159616504432e+01 
189 1 2 1.0280000000020564e+00 -1.9424367122819274e+02 1.0000000000000000e+00 1.3270691956667202e+01 1.4653901894715602e+01 1.6662158990432559e+01 
244 1 2 1.0280000000020508e+00 -1.4229163603393226e+02 1.0000000000000000e+00 1.3270690098318875e+01 1.4653902371515702e+01 1.6662159616502599e+01 
117 1 2 1.0280000000020511e+00 -1.0684016364082024e+02 1.0000000000000000e+00 1.3270690098318775e+01 1.4653902371515734e+01 1.6662159616502699e+01 
118 1 2 1.0280000000020530e+00 -1.3116430792856295e+02 1.0000000000000000e+00 1.3270690098317845e+01 1.4653902371515837e+01 1.6662159616501903e+01 
239 1 2 1.0280000000020539e+00 -1.4593860597799534e+02 1.0000000000000000e+00 1.3270690098318060e+01 1.4653902371515938e+01 1.6662159616503207e+01 
150 1 2 1.0280096077704906e+00 -1.2767370158662436e+02 1.0000000000000000e+00 8.7314518261132132e+00 1.7185428689905883e+01 1.5513174530070795e+01 
192 1 2 1.0280096077711056e+00 -1.1676138494910835e+02 1.0000000000000000e+00 8.7314518458808124e+00 1.7185428687059318e+01 1.5513174619084403e+01 
133 1 2 1.0280096077714220e+00 -1.4072466889061030e+02 1.0000000000000000e+00 8.7314518402384689e+00 1.7185428689220377e+01 1.5513174591612838e+01 
186 1 2 1.0280096077706404e+00 -1.1613960845619252e+02 1.0000000000000000e+00 8.7314518297846089e+00 1.7185428689468846e+01 1.5513174546462974e+01 
24 1 2 1.0280096077708216e+00 -2.1008570279284535e+02 1.0000000000000000e+00 8.7314518345146546e+00 1.7185428688885537e+01 1.5513174567612532e+01 
235 1 2 1.0280096077714438e+00 -2.0280230213080543e+02 1.0000000000000000e+00 8.7314518423593324e+00 1.7185428688805743e+01 1.5513174601329920e+01 
102 1 2 1.0280096077707339e+00 -1.6987175157576584e+02 1.0000000000000000e+00 8.7314518310829197e+00 1.7185428689434215e+01 1.5513174552075935e+01 
109 1 2 1.0279957928043650e+00 -1.4106044308593758e+02 1.0000000000000000e+00 1.2067836730616921e+01 1.8810819593531690e+01 1.4904490368124053e+01 
116 1 2 1.0279957927857799e+00 -1.1023997074952965e+02 1.0000000000000000e+00 1.2067836737196696e+01 1.8810819585275905e+01 1.4904490273135277e+01 
74 1 2 1.0279957927857213e+00 -1.5355461910480065e+02 1.0000000000000000e+00 1.2067836737307674e+01 1.8810819585263047e+01 1.4904490273080901e+01 
66 1 2 1.0279957927861576e+00 -1.5169444675736653e+02 1.0000000000000000e+00 1.2067836736654799e+01 1.8810819585386287e+01 1.4904490273984827e+01 
73 1 2 1.0279957429783384e+00 -1.5405194451698830e+02 1.0000000000000000e+00 1.2067900458315986e+01 1.8810804173026785e+01 1.4904359493135747e+01 
67 1 2 1.0279957645954385e+00 -7.4719328672251763e+01 1.0000000000000000e+00 1.2067935244319980e+01 1.8810819856848511e+01 1.4904583963528220e+01 
115 1 2 1.0279956721637915e+00 -1.7526106852950710e+02 1.0000000000000000e+00 1.2068135161018203e+01 1.8810803071832140e+01 1.4904559874567299e+01 
147 1 2 1.0279999999973959e+00 -1.2315532420250616e+02 1.0000000000000000e+00 1.2772985143101323e+01 1.2363801606906629e+01 1.6928905192655886e+01 
125 1 2 1.0279999999973981e+00 -1.2984057741559715e+02 1.0000000000000000e+00 1.2772982057136335e+01 1.2363803012359940e+01 1.6928911500843078e+01 
196 1 2 1.0279999999973992e+00 -1.5158498126139739e+02 1.0000000000000000e+00 1.2772987207046715e+01 1.2363801370882523e+01 1.6928907017297757e+01 
146 1 2 1.0279999999973977e+00 -1.6085981104651080e+02 1.0000000000000000e+00 1.2772984286618017e+01 1.2363802665993122e+01 1.6928912687002441e+01 
91 1 2 1.0279999999973959e+00 -2.0358601783751786e+02 1.0000000000000000e+00 1.2772984902939596e+01 1.2363801744969217e+01 1.6928905929890529e+01 
98 1 2 1.0279999999973961e+00 -1.8612568691115820e+02 1.0000000000000000e+00 1.2772984901046840e+01 1.2363801742761710e+01 1.6928905907406172e+01 
77 1 2 1.0279999999991603e+00 -1.5204273885796323e+02 1.0000000000000000e+00 1.4024025395797837e+01 7.4945686661003270e+00 7.3996569951522524e+00 
15 1 2 1.0279999999991603e+00 -1.2111838746444059e+02 1.0000000000000000e+00 1.4024025395797837e+01 7.4945686661003270e+00 7.3996569951522524e+00 
21 1 2 1.0279999999991603e+00 -1.2141477377608953e+02 1.0000000000000000e+00 1.4024025395797837e+01 7.4945686661003270e+00 7.3996569951522524e+00 
28 1 2 1.0279999999991603e+00 -1.5823017441972669e+02 1.0000000000000000e+00 1.4024025395797837e+01 7.4945686661003270e+00 7.3996569951522524e+00 
70 1 2 1.0279999999991603e+00 -1.3496002919532071e+02 1.0000000000000000e+00 1.4024025395797837e+01 7.4945686661003270e+00 7.3996569951522524e+00 
22 1 2 1.0279999999991603e+00 -1.7112757265564392e+02 1.0000000000000000e+00 1.4024025395797837e+01 7.4945686661003270e+00 7.3996569951522524e+00 
64 1 2 1.0279999999991603e+00 -1.4867198236374605e+02 1.0000000000000000e+00 1.4024025395787479e+01 7.4945686661033779e+00 7.3996569951550395e+00 
17 1 2 1.0279999999991607e+00 -1.2060508275342073e+02 1.0000000000000000e+00 1.5225238129327545e+01 9.4445364119905193e+00 9.7288251883399148e+00 
4 1 2 1.0279999999991607e+00 -1.7329479002723986e+02 1.0000000000000000e+00 1.5225238129328181e+01 9.4445364119898709e+00 9.7288251883401298e+00 
18 1 2 1.0279999999991607e+00 -1.6448641732119953e+02 1.0000000000000000e+00 1.5225238129328170e+01 9.4445364119898834e+00 9.7288251883401262e+00 
10 1 2 1.0279999999991607e+00 -1.6314134860698451e+02 1.0000000000000000e+00 1.5225238129328423e+01 9.4445364119886808e+00 9.7288251883410055e+00 
72 1 2 1.0279999999991607e+00 -1.4247747220315114e+02 1.0000000000000000e+00 1.5225238129327886e+01 9.4445364119902457e+00 9.7288251883399681e+00 
12 1 2 1.0279999999991607e+00 -1.7754145995069564e+02 1.0000000000000000e+00 1.5225238129342243e+01 9.4445364119715016e+00 9.7288251883482566e+00 
11 1 2 1.0279999999991607e+00 -1.7442424599869793e+02 1.0000000000000000e+00 1.5225238129342236e+01 9.4445364119714963e+00 9.7288251883482673e+00 
219 1 2 1.0281007440684293e+00 -1.3897323337344446e+02 1.0000000000000000e+00 1.4984039214274594e+01 2.1826261528923965e+00 1.1882475141167410e+01 
177 1 2 1.0281007440684293e+00 -2.0582166005041069e+02 1.0000000000000000e+00 1.4984039214274594e+01 2.1826261528923965e+00 1.1882475141167410e+01 
226 1 2 1.0281007440684293e+00 -2.0992579549720401e+02 1.0000000000000000e+00 1.4984039214274594e+01 2.1826261528923965e+00 1.1882475141167410e+01 
225 1 2 1.0281007440865984e+00 -1.4204848452193153e+02 1.0000000000000000e+00 1.4984039314838624e+01 2.1826262981984370e+00 1.1882475026221533e+01 
234 1 2 1.0281007440703045e+00 -2.0296166846380029e+02 1.0000000000000000e+00 1.4984039211231273e+01 2.1826261475679329e+00 1.1882475117295888e+01 
227 1 2 1.0281007440684293e+00 -1.5101226968756353e+02 1.0000000000000000e+00 1.4984039214274581e+01 2.1826261528923796e+00 1.1882475141167442e+01 
233 1 2 1.0281007440684293e+00 -2.1613338439874966e+02 1.0000000000000000e+00 1.4984039214274581e+01 2.1826261528923796e+00 1.1882475141167442e+01 
152 1 2 1.0279023850381186e+00 -1.9880662753675153e+02 1.0000000000000000e+00 1.7732896578501624e+01 4.1630717771359760e-01 1.1814322883749991e+01 
163 1 2 1.0279023850381186e+00 -1.0232270336938899e+02 1.0000000000000000e+00 1.7732896578501624e+01 4.1630717771359760e-01 1.1814322883749991e+01 
157 1 2 1.0279023850381186e+00 -1.8993153691581105e+02 1.0000000000000000e+00 1.7732896578501624e+01 4.1630717771360137e-01 1.1814322883749991e+01 
232 1 2 1.0279023850381186e+00 -2.1582365616395069e+02 1.0000000000000000e+00 1.7732896578501620e+01 4.1630717771359455e-01 1.1814322883749993e+01 
207 1 2 1.0279023850381186e+00 -1.5087608949579908e+02 1.0000000000000000e+00 1.7732896578501624e+01 4.1630717771359760e-01 1.1814322883749991e+01 