
4416 atoms

8 atom types

0.000000 100.000000 xlo xhi
0.000000 20.000000 ylo yhi
0.000000 40.000000 zlo zhi

Masses

1 3.720000
2 3.720000
3 3.720000
4 3.720000
5 3.720000
6 3.720000
7 3.720000
8 3.720000

Atoms

1 1 3 0.93 0.0 1.0 3.545455 4.000000 14.000000
2 1 3 0.93 0.0 1.0 3.545455 4.000000 16.000000
3 1 3 0.93 0.0 1.0 3.545455 6.000000 14.000000
4 1 3 0.93 0.0 1.0 3.545455 6.000000 16.000000
5 1 3 0.93 0.0 1.0 5.545455 4.000000 14.000000
6 1 3 0.93 0.0 1.0 5.545455 4.000000 16.000000
7 1 3 0.93 0.0 1.0 5.545455 6.000000 14.000000
8 1 3 0.93 0.0 1.0 5.545455 6.000000 16.000000
9 2 3 0.93 0.0 1.0 3.545455 4.000000 4.000000
10 2 3 0.93 0.0 1.0 3.545455 4.000000 6.000000
11 2 3 0.93 0.0 1.0 3.545455 6.000000 4.000000
12 2 3 0.93 0.0 1.0 3.545455 6.000000 6.000000
13 2 3 0.93 0.0 1.0 5.545455 4.000000 4.000000
14 2 3 0.93 0.0 1.0 5.545455 4.000000 6.000000
15 2 3 0.93 0.0 1.0 5.545455 6.000000 4.000000
16 2 3 0.93 0.0 1.0 5.545455 6.000000 6.000000
17 3 3 0.93 0.0 1.0 3.545455 14.000000 14.000000
18 3 3 0.93 0.0 1.0 3.545455 14.000000 16.000000
19 3 3 0.93 0.0 1.0 3.545455 16.000000 14.000000
20 3 3 0.93 0.0 1.0 3.545455 16.000000 16.000000
21 3 3 0.93 0.0 1.0 5.545455 14.000000 14.000000
22 3 3 0.93 0.0 1.0 5.545455 14.000000 16.000000
23 3 3 0.93 0.0 1.0 5.545455 16.000000 14.000000
24 3 3 0.93 0.0 1.0 5.545455 16.000000 16.000000
25 4 3 0.93 0.0 1.0 3.545455 14.000000 4.000000
26 4 3 0.93 0.0 1.0 3.545455 14.000000 6.000000
27 4 3 0.93 0.0 1.0 3.545455 16.000000 4.000000
28 4 3 0.93 0.0 1.0 3.545455 16.000000 6.000000
29 4 3 0.93 0.0 1.0 5.545455 14.000000 4.000000
30 4 3 0.93 0.0 1.0 5.545455 14.000000 6.000000
31 4 3 0.93 0.0 1.0 5.545455 16.000000 4.000000
32 4 3 0.93 0.0 1.0 5.545455 16.000000 6.000000
33 5 3 0.93 0.0 1.0 12.636364 4.000000 14.000000
34 5 3 0.93 0.0 1.0 12.636364 4.000000 16.000000
35 5 3 0.93 0.0 1.0 12.636364 6.000000 14.000000
36 5 3 0.93 0.0 1.0 12.636364 6.000000 16.000000
37 5 3 0.93 0.0 1.0 14.636364 4.000000 14.000000
38 5 3 0.93 0.0 1.0 14.636364 4.000000 16.000000
39 5 3 0.93 0.0 1.0 14.636364 6.000000 14.000000
40 5 3 0.93 0.0 1.0 14.636364 6.000000 16.000000
41 6 3 0.93 0.0 1.0 12.636364 4.000000 4.000000
42 6 3 0.93 0.0 1.0 12.636364 4.000000 6.000000
43 6 3 0.93 0.0 1.0 12.636364 6.000000 4.000000
44 6 3 0.93 0.0 1.0 12.636364 6.000000 6.000000
45 6 3 0.93 0.0 1.0 14.636364 4.000000 4.000000
46 6 3 0.93 0.0 1.0 14.636364 4.000000 6.000000
47 6 3 0.93 0.0 1.0 14.636364 6.000000 4.000000
48 6 3 0.93 0.0 1.0 14.636364 6.000000 6.000000
49 7 3 0.93 0.0 1.0 12.636364 14.000000 14.000000
50 7 3 0.93 0.0 1.0 12.636364 14.000000 16.000000
51 7 3 0.93 0.0 1.0 12.636364 16.000000 14.000000
52 7 3 0.93 0.0 1.0 12.636364 16.000000 16.000000
53 7 3 0.93 0.0 1.0 14.636364 14.000000 14.000000
54 7 3 0.93 0.0 1.0 14.636364 14.000000 16.000000
55 7 3 0.93 0.0 1.0 14.636364 16.000000 14.000000
56 7 3 0.93 0.0 1.0 14.636364 16.000000 16.000000
57 8 3 0.93 0.0 1.0 12.636364 14.000000 4.000000
58 8 3 0.93 0.0 1.0 12.636364 14.000000 6.000000
59 8 3 0.93 0.0 1.0 12.636364 16.000000 4.000000
60 8 3 0.93 0.0 1.0 12.636364 16.000000 6.000000
61 8 3 0.93 0.0 1.0 14.636364 14.000000 4.000000
62 8 3 0.93 0.0 1.0 14.636364 14.000000 6.000000
63 8 3 0.93 0.0 1.0 14.636364 16.000000 4.000000
64 8 3 0.93 0.0 1.0 14.636364 16.000000 6.000000
65 9 3 0.93 0.0 1.0 21.727273 4.000000 14.000000
66 9 3 0.93 0.0 1.0 21.727273 4.000000 16.000000
67 9 3 0.93 0.0 1.0 21.727273 6.000000 14.000000
68 9 3 0.93 0.0 1.0 21.727273 6.000000 16.000000
69 9 3 0.93 0.0 1.0 23.727273 4.000000 14.000000
70 9 3 0.93 0.0 1.0 23.727273 4.000000 16.000000
71 9 3 0.93 0.0 1.0 23.727273 6.000000 14.000000
72 9 3 0.93 0.0 1.0 23.727273 6.000000 16.000000
73 10 3 0.93 0.0 1.0 21.727273 4.000000 4.000000
74 10 3 0.93 0.0 1.0 21.727273 4.000000 6.000000
75 10 3 0.93 0.0 1.0 21.727273 6.000000 4.000000
76 10 3 0.93 0.0 1.0 21.727273 6.000000 6.000000
77 10 3 0.93 0.0 1.0 23.727273 4.000000 4.000000
78 10 3 0.93 0.0 1.0 23.727273 4.000000 6.000000
79 10 3 0.93 0.0 1.0 23.727273 6.000000 4.000000
80 10 3 0.93 0.0 1.0 23.727273 6.000000 6.000000
81 11 3 0.93 0.0 1.0 21.727273 14.000000 14.000000
82 11 3 0.93 0.0 1.0 21.727273 14.000000 16.000000
83 11 3 0.93 0.0 1.0 21.727273 16.000000 14.000000
84 11 3 0.93 0.0 1.0 21.727273 16.000000 16.000000
85 11 3 0.93 0.0 1.0 23.727273 14.000000 14.000000
86 11 3 0.93 0.0 1.0 23.727273 14.000000 16.000000
87 11 3 0.93 0.0 1.0 23.727273 16.000000 14.000000
88 11 3 0.93 0.0 1.0 23.727273 16.000000 16.000000
89 12 3 0.93 0.0 1.0 21.727273 14.000000 4.000000
90 12 3 0.93 0.0 1.0 21.727273 14.000000 6.000000
91 12 3 0.93 0.0 1.0 21.727273 16.000000 4.000000
92 12 3 0.93 0.0 1.0 21.727273 16.000000 6.000000
93 12 3 0.93 0.0 1.0 23.727273 14.000000 4.000000
94 12 3 0.93 0.0 1.0 23.727273 14.000000 6.000000
95 12 3 0.93 0.0 1.0 23.727273 16.000000 4.000000
96 12 3 0.93 0.0 1.0 23.727273 16.000000 6.000000
97 13 3 0.93 0.0 1.0 30.818182 4.000000 14.000000
98 13 3 0.93 0.0 1.0 30.818182 4.000000 16.000000
99 13 3 0.93 0.0 1.0 30.818182 6.000000 14.000000
100 13 3 0.93 0.0 1.0 30.818182 6.000000 16.000000
101 13 3 0.93 0.0 1.0 32.818182 4.000000 14.000000
102 13 3 0.93 0.0 1.0 32.818182 4.000000 16.000000
103 13 3 0.93 0.0 1.0 32.818182 6.000000 14.000000
104 13 3 0.93 0.0 1.0 32.818182 6.000000 16.000000
105 14 3 0.93 0.0 1.0 30.818182 4.000000 4.000000
106 14 3 0.93 0.0 1.0 30.818182 4.000000 6.000000
107 14 3 0.93 0.0 1.0 30.818182 6.000000 4.000000
108 14 3 0.93 0.0 1.0 30.818182 6.000000 6.000000
109 14 3 0.93 0.0 1.0 32.818182 4.000000 4.000000
110 14 3 0.93 0.0 1.0 32.818182 4.000000 6.000000
111 14 3 0.93 0.0 1.0 32.818182 6.000000 4.000000
112 14 3 0.93 0.0 1.0 32.818182 6.000000 6.000000
113 15 3 0.93 0.0 1.0 30.818182 14.000000 14.000000
114 15 3 0.93 0.0 1.0 30.818182 14.000000 16.000000
115 15 3 0.93 0.0 1.0 30.818182 16.000000 14.000000
116 15 3 0.93 0.0 1.0 30.818182 16.000000 16.000000
117 15 3 0.93 0.0 1.0 32.818182 14.000000 14.000000
118 15 3 0.93 0.0 1.0 32.818182 14.000000 16.000000
119 15 3 0.93 0.0 1.0 32.818182 16.000000 14.000000
120 15 3 0.93 0.0 1.0 32.818182 16.000000 16.000000
121 16 3 0.93 0.0 1.0 30.818182 14.000000 4.000000
122 16 3 0.93 0.0 1.0 30.818182 14.000000 6.000000
123 16 3 0.93 0.0 1.0 30.818182 16.000000 4.000000
124 16 3 0.93 0.0 1.0 30.818182 16.000000 6.000000
125 16 3 0.93 0.0 1.0 32.818182 14.000000 4.000000
126 16 3 0.93 0.0 1.0 32.818182 14.000000 6.000000
127 16 3 0.93 0.0 1.0 32.818182 16.000000 4.000000
128 16 3 0.93 0.0 1.0 32.818182 16.000000 6.000000
129 17 3 0.93 0.0 1.0 39.909091 4.000000 14.000000
130 17 3 0.93 0.0 1.0 39.909091 4.000000 16.000000
131 17 3 0.93 0.0 1.0 39.909091 6.000000 14.000000
132 17 3 0.93 0.0 1.0 39.909091 6.000000 16.000000
133 17 3 0.93 0.0 1.0 41.909091 4.000000 14.000000
134 17 3 0.93 0.0 1.0 41.909091 4.000000 16.000000
135 17 3 0.93 0.0 1.0 41.909091 6.000000 14.000000
136 17 3 0.93 0.0 1.0 41.909091 6.000000 16.000000
137 18 3 0.93 0.0 1.0 39.909091 4.000000 4.000000
138 18 3 0.93 0.0 1.0 39.909091 4.000000 6.000000
139 18 3 0.93 0.0 1.0 39.909091 6.000000 4.000000
140 18 3 0.93 0.0 1.0 39.909091 6.000000 6.000000
141 18 3 0.93 0.0 1.0 41.909091 4.000000 4.000000
142 18 3 0.93 0.0 1.0 41.909091 4.000000 6.000000
143 18 3 0.93 0.0 1.0 41.909091 6.000000 4.000000
144 18 3 0.93 0.0 1.0 41.909091 6.000000 6.000000
145 19 3 0.93 0.0 1.0 39.909091 14.000000 14.000000
146 19 3 0.93 0.0 1.0 39.909091 14.000000 16.000000
147 19 3 0.93 0.0 1.0 39.909091 16.000000 14.000000
148 19 3 0.93 0.0 1.0 39.909091 16.000000 16.000000
149 19 3 0.93 0.0 1.0 41.909091 14.000000 14.000000
150 19 3 0.93 0.0 1.0 41.909091 14.000000 16.000000
151 19 3 0.93 0.0 1.0 41.909091 16.000000 14.000000
152 19 3 0.93 0.0 1.0 41.909091 16.000000 16.000000
153 20 3 0.93 0.0 1.0 39.909091 14.000000 4.000000
154 20 3 0.93 0.0 1.0 39.909091 14.000000 6.000000
155 20 3 0.93 0.0 1.0 39.909091 16.000000 4.000000
156 20 3 0.93 0.0 1.0 39.909091 16.000000 6.000000
157 20 3 0.93 0.0 1.0 41.909091 14.000000 4.000000
158 20 3 0.93 0.0 1.0 41.909091 14.000000 6.000000
159 20 3 0.93 0.0 1.0 41.909091 16.000000 4.000000
160 20 3 0.93 0.0 1.0 41.909091 16.000000 6.000000
161 21 3 0.93 0.0 1.0 49.000000 4.000000 14.000000
162 21 3 0.93 0.0 1.0 49.000000 4.000000 16.000000
163 21 3 0.93 0.0 1.0 49.000000 6.000000 14.000000
164 21 3 0.93 0.0 1.0 49.000000 6.000000 16.000000
165 21 3 0.93 0.0 1.0 51.000000 4.000000 14.000000
166 21 3 0.93 0.0 1.0 51.000000 4.000000 16.000000
167 21 3 0.93 0.0 1.0 51.000000 6.000000 14.000000
168 21 3 0.93 0.0 1.0 51.000000 6.000000 16.000000
169 22 3 0.93 0.0 1.0 49.000000 4.000000 4.000000
170 22 3 0.93 0.0 1.0 49.000000 4.000000 6.000000
171 22 3 0.93 0.0 1.0 49.000000 6.000000 4.000000
172 22 3 0.93 0.0 1.0 49.000000 6.000000 6.000000
173 22 3 0.93 0.0 1.0 51.000000 4.000000 4.000000
174 22 3 0.93 0.0 1.0 51.000000 4.000000 6.000000
175 22 3 0.93 0.0 1.0 51.000000 6.000000 4.000000
176 22 3 0.93 0.0 1.0 51.000000 6.000000 6.000000
177 23 3 0.93 0.0 1.0 49.000000 14.000000 14.000000
178 23 3 0.93 0.0 1.0 49.000000 14.000000 16.000000
179 23 3 0.93 0.0 1.0 49.000000 16.000000 14.000000
180 23 3 0.93 0.0 1.0 49.000000 16.000000 16.000000
181 23 3 0.93 0.0 1.0 51.000000 14.000000 14.000000
182 23 3 0.93 0.0 1.0 51.000000 14.000000 16.000000
183 23 3 0.93 0.0 1.0 51.000000 16.000000 14.000000
184 23 3 0.93 0.0 1.0 51.000000 16.000000 16.000000
185 24 3 0.93 0.0 1.0 49.000000 14.000000 4.000000
186 24 3 0.93 0.0 1.0 49.000000 14.000000 6.000000
187 24 3 0.93 0.0 1.0 49.000000 16.000000 4.000000
188 24 3 0.93 0.0 1.0 49.000000 16.000000 6.000000
189 24 3 0.93 0.0 1.0 51.000000 14.000000 4.000000
190 24 3 0.93 0.0 1.0 51.000000 14.000000 6.000000
191 24 3 0.93 0.0 1.0 51.000000 16.000000 4.000000
192 24 3 0.93 0.0 1.0 51.000000 16.000000 6.000000
193 25 3 0.93 0.0 1.0 58.090909 4.000000 14.000000
194 25 3 0.93 0.0 1.0 58.090909 4.000000 16.000000
195 25 3 0.93 0.0 1.0 58.090909 6.000000 14.000000
196 25 3 0.93 0.0 1.0 58.090909 6.000000 16.000000
197 25 3 0.93 0.0 1.0 60.090909 4.000000 14.000000
198 25 3 0.93 0.0 1.0 60.090909 4.000000 16.000000
199 25 3 0.93 0.0 1.0 60.090909 6.000000 14.000000
200 25 3 0.93 0.0 1.0 60.090909 6.000000 16.000000
201 26 3 0.93 0.0 1.0 58.090909 4.000000 4.000000
202 26 3 0.93 0.0 1.0 58.090909 4.000000 6.000000
203 26 3 0.93 0.0 1.0 58.090909 6.000000 4.000000
204 26 3 0.93 0.0 1.0 58.090909 6.000000 6.000000
205 26 3 0.93 0.0 1.0 60.090909 4.000000 4.000000
206 26 3 0.93 0.0 1.0 60.090909 4.000000 6.000000
207 26 3 0.93 0.0 1.0 60.090909 6.000000 4.000000
208 26 3 0.93 0.0 1.0 60.090909 6.000000 6.000000
209 27 3 0.93 0.0 1.0 58.090909 14.000000 14.000000
210 27 3 0.93 0.0 1.0 58.090909 14.000000 16.000000
211 27 3 0.93 0.0 1.0 58.090909 16.000000 14.000000
212 27 3 0.93 0.0 1.0 58.090909 16.000000 16.000000
213 27 3 0.93 0.0 1.0 60.090909 14.000000 14.000000
214 27 3 0.93 0.0 1.0 60.090909 14.000000 16.000000
215 27 3 0.93 0.0 1.0 60.090909 16.000000 14.000000
216 27 3 0.93 0.0 1.0 60.090909 16.000000 16.000000
217 28 3 0.93 0.0 1.0 58.090909 14.000000 4.000000
218 28 3 0.93 0.0 1.0 58.090909 14.000000 6.000000
219 28 3 0.93 0.0 1.0 58.090909 16.000000 4.000000
220 28 3 0.93 0.0 1.0 58.090909 16.000000 6.000000
221 28 3 0.93 0.0 1.0 60.090909 14.000000 4.000000
222 28 3 0.93 0.0 1.0 60.090909 14.000000 6.000000
223 28 3 0.93 0.0 1.0 60.090909 16.000000 4.000000
224 28 3 0.93 0.0 1.0 60.090909 16.000000 6.000000
225 29 3 0.93 0.0 1.0 67.181818 4.000000 14.000000
226 29 3 0.93 0.0 1.0 67.181818 4.000000 16.000000
227 29 3 0.93 0.0 1.0 67.181818 6.000000 14.000000
228 29 3 0.93 0.0 1.0 67.181818 6.000000 16.000000
229 29 3 0.93 0.0 1.0 69.181818 4.000000 14.000000
230 29 3 0.93 0.0 1.0 69.181818 4.000000 16.000000
231 29 3 0.93 0.0 1.0 69.181818 6.000000 14.000000
232 29 3 0.93 0.0 1.0 69.181818 6.000000 16.000000
233 30 3 0.93 0.0 1.0 67.181818 4.000000 4.000000
234 30 3 0.93 0.0 1.0 67.181818 4.000000 6.000000
235 30 3 0.93 0.0 1.0 67.181818 6.000000 4.000000
236 30 3 0.93 0.0 1.0 67.181818 6.000000 6.000000
237 30 3 0.93 0.0 1.0 69.181818 4.000000 4.000000
238 30 3 0.93 0.0 1.0 69.181818 4.000000 6.000000
239 30 3 0.93 0.0 1.0 69.181818 6.000000 4.000000
240 30 3 0.93 0.0 1.0 69.181818 6.000000 6.000000
241 31 3 0.93 0.0 1.0 67.181818 14.000000 14.000000
242 31 3 0.93 0.0 1.0 67.181818 14.000000 16.000000
243 31 3 0.93 0.0 1.0 67.181818 16.000000 14.000000
244 31 3 0.93 0.0 1.0 67.181818 16.000000 16.000000
245 31 3 0.93 0.0 1.0 69.181818 14.000000 14.000000
246 31 3 0.93 0.0 1.0 69.181818 14.000000 16.000000
247 31 3 0.93 0.0 1.0 69.181818 16.000000 14.000000
248 31 3 0.93 0.0 1.0 69.181818 16.000000 16.000000
249 32 3 0.93 0.0 1.0 67.181818 14.000000 4.000000
250 32 3 0.93 0.0 1.0 67.181818 14.000000 6.000000
251 32 3 0.93 0.0 1.0 67.181818 16.000000 4.000000
252 32 3 0.93 0.0 1.0 67.181818 16.000000 6.000000
253 32 3 0.93 0.0 1.0 69.181818 14.000000 4.000000
254 32 3 0.93 0.0 1.0 69.181818 14.000000 6.000000
255 32 3 0.93 0.0 1.0 69.181818 16.000000 4.000000
256 32 3 0.93 0.0 1.0 69.181818 16.000000 6.000000
257 33 3 0.93 0.0 1.0 76.272727 4.000000 14.000000
258 33 3 0.93 0.0 1.0 76.272727 4.000000 16.000000
259 33 3 0.93 0.0 1.0 76.272727 6.000000 14.000000
260 33 3 0.93 0.0 1.0 76.272727 6.000000 16.000000
261 33 3 0.93 0.0 1.0 78.272727 4.000000 14.000000
262 33 3 0.93 0.0 1.0 78.272727 4.000000 16.000000
263 33 3 0.93 0.0 1.0 78.272727 6.000000 14.000000
264 33 3 0.93 0.0 1.0 78.272727 6.000000 16.000000
265 34 3 0.93 0.0 1.0 76.272727 4.000000 4.000000
266 34 3 0.93 0.0 1.0 76.272727 4.000000 6.000000
267 34 3 0.93 0.0 1.0 76.272727 6.000000 4.000000
268 34 3 0.93 0.0 1.0 76.272727 6.000000 6.000000
269 34 3 0.93 0.0 1.0 78.272727 4.000000 4.000000
270 34 3 0.93 0.0 1.0 78.272727 4.000000 6.000000
271 34 3 0.93 0.0 1.0 78.272727 6.000000 4.000000
272 34 3 0.93 0.0 1.0 78.272727 6.000000 6.000000
273 35 3 0.93 0.0 1.0 76.272727 14.000000 14.000000
274 35 3 0.93 0.0 1.0 76.272727 14.000000 16.000000
275 35 3 0.93 0.0 1.0 76.272727 16.000000 14.000000
276 35 3 0.93 0.0 1.0 76.272727 16.000000 16.000000
277 35 3 0.93 0.0 1.0 78.272727 14.000000 14.000000
278 35 3 0.93 0.0 1.0 78.272727 14.000000 16.000000
279 35 3 0.93 0.0 1.0 78.272727 16.000000 14.000000
280 35 3 0.93 0.0 1.0 78.272727 16.000000 16.000000
281 36 3 0.93 0.0 1.0 76.272727 14.000000 4.000000
282 36 3 0.93 0.0 1.0 76.272727 14.000000 6.000000
283 36 3 0.93 0.0 1.0 76.272727 16.000000 4.000000
284 36 3 0.93 0.0 1.0 76.272727 16.000000 6.000000
285 36 3 0.93 0.0 1.0 78.272727 14.000000 4.000000
286 36 3 0.93 0.0 1.0 78.272727 14.000000 6.000000
287 36 3 0.93 0.0 1.0 78.272727 16.000000 4.000000
288 36 3 0.93 0.0 1.0 78.272727 16.000000 6.000000
289 37 3 0.93 0.0 1.0 85.363636 4.000000 14.000000
290 37 3 0.93 0.0 1.0 85.363636 4.000000 16.000000
291 37 3 0.93 0.0 1.0 85.363636 6.000000 14.000000
292 37 3 0.93 0.0 1.0 85.363636 6.000000 16.000000
293 37 3 0.93 0.0 1.0 87.363636 4.000000 14.000000
294 37 3 0.93 0.0 1.0 87.363636 4.000000 16.000000
295 37 3 0.93 0.0 1.0 87.363636 6.000000 14.000000
296 37 3 0.93 0.0 1.0 87.363636 6.000000 16.000000
297 38 3 0.93 0.0 1.0 85.363636 4.000000 4.000000
298 38 3 0.93 0.0 1.0 85.363636 4.000000 6.000000
299 38 3 0.93 0.0 1.0 85.363636 6.000000 4.000000
300 38 3 0.93 0.0 1.0 85.363636 6.000000 6.000000
301 38 3 0.93 0.0 1.0 87.363636 4.000000 4.000000
302 38 3 0.93 0.0 1.0 87.363636 4.000000 6.000000
303 38 3 0.93 0.0 1.0 87.363636 6.000000 4.000000
304 38 3 0.93 0.0 1.0 87.363636 6.000000 6.000000
305 39 3 0.93 0.0 1.0 85.363636 14.000000 14.000000
306 39 3 0.93 0.0 1.0 85.363636 14.000000 16.000000
307 39 3 0.93 0.0 1.0 85.363636 16.000000 14.000000
308 39 3 0.93 0.0 1.0 85.363636 16.000000 16.000000
309 39 3 0.93 0.0 1.0 87.363636 14.000000 14.000000
310 39 3 0.93 0.0 1.0 87.363636 14.000000 16.000000
311 39 3 0.93 0.0 1.0 87.363636 16.000000 14.000000
312 39 3 0.93 0.0 1.0 87.363636 16.000000 16.000000
313 40 3 0.93 0.0 1.0 85.363636 14.000000 4.000000
314 40 3 0.93 0.0 1.0 85.363636 14.000000 6.000000
315 40 3 0.93 0.0 1.0 85.363636 16.000000 4.000000
316 40 3 0.93 0.0 1.0 85.363636 16.000000 6.000000
317 40 3 0.93 0.0 1.0 87.363636 14.000000 4.000000
318 40 3 0.93 0.0 1.0 87.363636 14.000000 6.000000
319 40 3 0.93 0.0 1.0 87.363636 16.000000 4.000000
320 40 3 0.93 0.0 1.0 87.363636 16.000000 6.000000
321 41 3 0.93 0.0 1.0 94.454545 4.000000 14.000000
322 41 3 0.93 0.0 1.0 94.454545 4.000000 16.000000
323 41 3 0.93 0.0 1.0 94.454545 6.000000 14.000000
324 41 3 0.93 0.0 1.0 94.454545 6.000000 16.000000
325 41 3 0.93 0.0 1.0 96.454545 4.000000 14.000000
326 41 3 0.93 0.0 1.0 96.454545 4.000000 16.000000
327 41 3 0.93 0.0 1.0 96.454545 6.000000 14.000000
328 41 3 0.93 0.0 1.0 96.454545 6.000000 16.000000
329 42 3 0.93 0.0 1.0 94.454545 4.000000 4.000000
330 42 3 0.93 0.0 1.0 94.454545 4.000000 6.000000
331 42 3 0.93 0.0 1.0 94.454545 6.000000 4.000000
332 42 3 0.93 0.0 1.0 94.454545 6.000000 6.000000
333 42 3 0.93 0.0 1.0 96.454545 4.000000 4.000000
334 42 3 0.93 0.0 1.0 96.454545 4.000000 6.000000
335 42 3 0.93 0.0 1.0 96.454545 6.000000 4.000000
336 42 3 0.93 0.0 1.0 96.454545 6.000000 6.000000
337 43 3 0.93 0.0 1.0 94.454545 14.000000 14.000000
338 43 3 0.93 0.0 1.0 94.454545 14.000000 16.000000
339 43 3 0.93 0.0 1.0 94.454545 16.000000 14.000000
340 43 3 0.93 0.0 1.0 94.454545 16.000000 16.000000
341 43 3 0.93 0.0 1.0 96.454545 14.000000 14.000000
342 43 3 0.93 0.0 1.0 96.454545 14.000000 16.000000
343 43 3 0.93 0.0 1.0 96.454545 16.000000 14.000000
344 43 3 0.93 0.0 1.0 96.454545 16.000000 16.000000
345 44 3 0.93 0.0 1.0 94.454545 14.000000 4.000000
346 44 3 0.93 0.0 1.0 94.454545 14.000000 6.000000
347 44 3 0.93 0.0 1.0 94.454545 16.000000 4.000000
348 44 3 0.93 0.0 1.0 94.454545 16.000000 6.000000
349 44 3 0.93 0.0 1.0 96.454545 14.000000 4.000000
350 44 3 0.93 0.0 1.0 96.454545 14.000000 6.000000
351 44 3 0.93 0.0 1.0 96.454545 16.000000 4.000000
352 44 3 0.93 0.0 1.0 96.454545 16.000000 6.000000
353 45 1 0.93 0.0 1.0 1.000000 1.000000 1.000000
354 45 2 0.93 0.0 1.0 1.000000 1.000000 3.000000
355 45 2 0.93 0.0 1.0 1.000000 1.000000 5.000000
356 45 2 0.93 0.0 1.0 1.000000 1.000000 7.000000
357 45 2 0.93 0.0 1.0 1.000000 1.000000 9.000000
358 45 2 0.93 0.0 1.0 1.000000 1.000000 11.000000
359 45 1 0.93 0.0 1.0 1.000000 1.000000 13.000000
360 45 2 0.93 0.0 1.0 1.000000 1.000000 15.000000
361 45 1 0.93 0.0 1.0 1.000000 1.000000 17.000000
362 45 1 0.93 0.0 1.0 1.000000 1.000000 19.000000
363 45 2 0.93 0.0 1.0 1.000000 3.000000 1.000000
364 45 1 0.93 0.0 1.0 1.000000 3.000000 3.000000
365 45 2 0.93 0.0 1.0 1.000000 3.000000 5.000000
366 45 2 0.93 0.0 1.0 1.000000 3.000000 7.000000
367 45 1 0.93 0.0 1.0 1.000000 3.000000 9.000000
368 45 1 0.93 0.0 1.0 1.000000 3.000000 11.000000
369 45 2 0.93 0.0 1.0 1.000000 3.000000 13.000000
370 45 1 0.93 0.0 1.0 1.000000 3.000000 15.000000
371 45 2 0.93 0.0 1.0 1.000000 3.000000 17.000000
372 45 2 0.93 0.0 1.0 1.000000 3.000000 19.000000
373 45 2 0.93 0.0 1.0 1.000000 5.000000 1.000000
374 45 2 0.93 0.0 1.0 1.000000 5.000000 3.000000
375 45 2 0.93 0.0 1.0 1.000000 5.000000 5.000000
376 45 1 0.93 0.0 1.0 1.000000 5.000000 7.000000
377 45 2 0.93 0.0 1.0 1.000000 5.000000 9.000000
378 45 2 0.93 0.0 1.0 1.000000 5.000000 11.000000
379 45 1 0.93 0.0 1.0 1.000000 5.000000 13.000000
380 45 2 0.93 0.0 1.0 1.000000 5.000000 15.000000
381 45 2 0.93 0.0 1.0 1.000000 5.000000 17.000000
382 45 2 0.93 0.0 1.0 1.000000 5.000000 19.000000
383 45 2 0.93 0.0 1.0 1.000000 7.000000 1.000000
384 45 2 0.93 0.0 1.0 1.000000 7.000000 3.000000
385 45 2 0.93 0.0 1.0 1.000000 7.000000 5.000000
386 45 2 0.93 0.0 1.0 1.000000 7.000000 7.000000
387 45 1 0.93 0.0 1.0 1.000000 7.000000 9.000000
388 45 1 0.93 0.0 1.0 1.000000 7.000000 11.000000
389 45 2 0.93 0.0 1.0 1.000000 7.000000 13.000000
390 45 2 0.93 0.0 1.0 1.000000 7.000000 15.000000
391 45 1 0.93 0.0 1.0 1.000000 7.000000 17.000000
392 45 2 0.93 0.0 1.0 1.000000 7.000000 19.000000
393 45 2 0.93 0.0 1.0 1.000000 9.000000 1.000000
394 45 2 0.93 0.0 1.0 1.000000 9.000000 3.000000
395 45 1 0.93 0.0 1.0 1.000000 9.000000 5.000000
396 45 2 0.93 0.0 1.0 1.000000 9.000000 7.000000
397 45 1 0.93 0.0 1.0 1.000000 9.000000 9.000000
398 45 2 0.93 0.0 1.0 1.000000 9.000000 11.000000
399 45 2 0.93 0.0 1.0 1.000000 9.000000 13.000000
400 45 2 0.93 0.0 1.0 1.000000 9.000000 15.000000
401 45 2 0.93 0.0 1.0 1.000000 9.000000 17.000000
402 45 2 0.93 0.0 1.0 1.000000 9.000000 19.000000
403 45 2 0.93 0.0 1.0 1.000000 11.000000 1.000000
404 45 2 0.93 0.0 1.0 1.000000 11.000000 3.000000
405 45 2 0.93 0.0 1.0 1.000000 11.000000 5.000000
406 45 2 0.93 0.0 1.0 1.000000 11.000000 7.000000
407 45 2 0.93 0.0 1.0 1.000000 11.000000 9.000000
408 45 2 0.93 0.0 1.0 1.000000 11.000000 11.000000
409 45 2 0.93 0.0 1.0 1.000000 11.000000 13.000000
410 45 2 0.93 0.0 1.0 1.000000 11.000000 15.000000
411 45 2 0.93 0.0 1.0 1.000000 11.000000 17.000000
412 45 2 0.93 0.0 1.0 1.000000 11.000000 19.000000
413 45 1 0.93 0.0 1.0 1.000000 13.000000 1.000000
414 45 2 0.93 0.0 1.0 1.000000 13.000000 3.000000
415 45 2 0.93 0.0 1.0 1.000000 13.000000 5.000000
416 45 2 0.93 0.0 1.0 1.000000 13.000000 7.000000
417 45 2 0.93 0.0 1.0 1.000000 13.000000 9.000000
418 45 2 0.93 0.0 1.0 1.000000 13.000000 11.000000
419 45 2 0.93 0.0 1.0 1.000000 13.000000 13.000000
420 45 1 0.93 0.0 1.0 1.000000 13.000000 15.000000
421 45 2 0.93 0.0 1.0 1.000000 13.000000 17.000000
422 45 2 0.93 0.0 1.0 1.000000 13.000000 19.000000
423 45 2 0.93 0.0 1.0 1.000000 15.000000 1.000000
424 45 1 0.93 0.0 1.0 1.000000 15.000000 3.000000
425 45 2 0.93 0.0 1.0 1.000000 15.000000 5.000000
426 45 2 0.93 0.0 1.0 1.000000 15.000000 7.000000
427 45 2 0.93 0.0 1.0 1.000000 15.000000 9.000000
428 45 2 0.93 0.0 1.0 1.000000 15.000000 11.000000
429 45 2 0.93 0.0 1.0 1.000000 15.000000 13.000000
430 45 2 0.93 0.0 1.0 1.000000 15.000000 15.000000
431 45 2 0.93 0.0 1.0 1.000000 15.000000 17.000000
432 45 1 0.93 0.0 1.0 1.000000 15.000000 19.000000
433 45 2 0.93 0.0 1.0 1.000000 17.000000 1.000000
434 45 2 0.93 0.0 1.0 1.000000 17.000000 3.000000
435 45 2 0.93 0.0 1.0 1.000000 17.000000 5.000000
436 45 2 0.93 0.0 1.0 1.000000 17.000000 7.000000
437 45 2 0.93 0.0 1.0 1.000000 17.000000 9.000000
438 45 2 0.93 0.0 1.0 1.000000 17.000000 11.000000
439 45 2 0.93 0.0 1.0 1.000000 17.000000 13.000000
440 45 1 0.93 0.0 1.0 1.000000 17.000000 15.000000
441 45 2 0.93 0.0 1.0 1.000000 17.000000 17.000000
442 45 2 0.93 0.0 1.0 1.000000 17.000000 19.000000
443 45 2 0.93 0.0 1.0 1.000000 19.000000 1.000000
444 45 1 0.93 0.0 1.0 1.000000 19.000000 3.000000
445 45 1 0.93 0.0 1.0 1.000000 19.000000 5.000000
446 45 1 0.93 0.0 1.0 1.000000 19.000000 7.000000
447 45 2 0.93 0.0 1.0 1.000000 19.000000 9.000000
448 45 2 0.93 0.0 1.0 1.000000 19.000000 11.000000
449 45 2 0.93 0.0 1.0 1.000000 19.000000 13.000000
450 45 2 0.93 0.0 1.0 1.000000 19.000000 15.000000
451 45 2 0.93 0.0 1.0 1.000000 19.000000 17.000000
452 45 2 0.93 0.0 1.0 1.000000 19.000000 19.000000
453 45 2 0.93 0.0 1.0 3.000000 1.000000 1.000000
454 45 2 0.93 0.0 1.0 3.000000 1.000000 3.000000
455 45 2 0.93 0.0 1.0 3.000000 1.000000 5.000000
456 45 2 0.93 0.0 1.0 3.000000 1.000000 7.000000
457 45 2 0.93 0.0 1.0 3.000000 1.000000 9.000000
458 45 2 0.93 0.0 1.0 3.000000 1.000000 11.000000
459 45 2 0.93 0.0 1.0 3.000000 1.000000 13.000000
460 45 2 0.93 0.0 1.0 3.000000 1.000000 15.000000
461 45 1 0.93 0.0 1.0 3.000000 1.000000 17.000000
462 45 2 0.93 0.0 1.0 3.000000 1.000000 19.000000
463 45 2 0.93 0.0 1.0 3.000000 3.000000 1.000000
464 45 2 0.93 0.0 1.0 3.000000 3.000000 9.000000
465 45 2 0.93 0.0 1.0 3.000000 3.000000 11.000000
466 45 2 0.93 0.0 1.0 3.000000 3.000000 19.000000
467 45 2 0.93 0.0 1.0 3.000000 5.000000 1.000000
468 45 1 0.93 0.0 1.0 3.000000 5.000000 9.000000
469 45 2 0.93 0.0 1.0 3.000000 5.000000 11.000000
470 45 2 0.93 0.0 1.0 3.000000 5.000000 19.000000
471 45 2 0.93 0.0 1.0 3.000000 7.000000 1.000000
472 45 2 0.93 0.0 1.0 3.000000 7.000000 9.000000
473 45 2 0.93 0.0 1.0 3.000000 7.000000 11.000000
474 45 2 0.93 0.0 1.0 3.000000 7.000000 19.000000
475 45 2 0.93 0.0 1.0 3.000000 9.000000 1.000000
476 45 2 0.93 0.0 1.0 3.000000 9.000000 3.000000
477 45 2 0.93 0.0 1.0 3.000000 9.000000 5.000000
478 45 1 0.93 0.0 1.0 3.000000 9.000000 7.000000
479 45 2 0.93 0.0 1.0 3.000000 9.000000 9.000000
480 45 2 0.93 0.0 1.0 3.000000 9.000000 11.000000
481 45 2 0.93 0.0 1.0 3.000000 9.000000 13.000000
482 45 2 0.93 0.0 1.0 3.000000 9.000000 15.000000
483 45 2 0.93 0.0 1.0 3.000000 9.000000 17.000000
484 45 2 0.93 0.0 1.0 3.000000 9.000000 19.000000
485 45 2 0.93 0.0 1.0 3.000000 11.000000 1.000000
486 45 2 0.93 0.0 1.0 3.000000 11.000000 3.000000
487 45 2 0.93 0.0 1.0 3.000000 11.000000 5.000000
488 45 1 0.93 0.0 1.0 3.000000 11.000000 7.000000
489 45 2 0.93 0.0 1.0 3.000000 11.000000 9.000000
490 45 2 0.93 0.0 1.0 3.000000 11.000000 11.000000
491 45 2 0.93 0.0 1.0 3.000000 11.000000 13.000000
492 45 2 0.93 0.0 1.0 3.000000 11.000000 15.000000
493 45 2 0.93 0.0 1.0 3.000000 11.000000 17.000000
494 45 2 0.93 0.0 1.0 3.000000 11.000000 19.000000
495 45 2 0.93 0.0 1.0 3.000000 13.000000 1.000000
496 45 2 0.93 0.0 1.0 3.000000 13.000000 9.000000
497 45 1 0.93 0.0 1.0 3.000000 13.000000 11.000000
498 45 2 0.93 0.0 1.0 3.000000 13.000000 19.000000
499 45 2 0.93 0.0 1.0 3.000000 15.000000 1.000000
500 45 2 0.93 0.0 1.0 3.000000 15.000000 9.000000
501 45 2 0.93 0.0 1.0 3.000000 15.000000 11.000000
502 45 1 0.93 0.0 1.0 3.000000 15.000000 19.000000
503 45 2 0.93 0.0 1.0 3.000000 17.000000 1.000000
504 45 2 0.93 0.0 1.0 3.000000 17.000000 9.000000
505 45 2 0.93 0.0 1.0 3.000000 17.000000 11.000000
506 45 1 0.93 0.0 1.0 3.000000 17.000000 19.000000
507 45 1 0.93 0.0 1.0 3.000000 19.000000 1.000000
508 45 2 0.93 0.0 1.0 3.000000 19.000000 3.000000
509 45 2 0.93 0.0 1.0 3.000000 19.000000 5.000000
510 45 2 0.93 0.0 1.0 3.000000 19.000000 7.000000
511 45 2 0.93 0.0 1.0 3.000000 19.000000 9.000000
512 45 1 0.93 0.0 1.0 3.000000 19.000000 11.000000
513 45 2 0.93 0.0 1.0 3.000000 19.000000 13.000000
514 45 2 0.93 0.0 1.0 3.000000 19.000000 15.000000
515 45 2 0.93 0.0 1.0 3.000000 19.000000 17.000000
516 45 2 0.93 0.0 1.0 3.000000 19.000000 19.000000
517 45 2 0.93 0.0 1.0 5.000000 1.000000 1.000000
518 45 2 0.93 0.0 1.0 5.000000 1.000000 3.000000
519 45 2 0.93 0.0 1.0 5.000000 1.000000 5.000000
520 45 2 0.93 0.0 1.0 5.000000 1.000000 7.000000
521 45 2 0.93 0.0 1.0 5.000000 1.000000 9.000000
522 45 2 0.93 0.0 1.0 5.000000 1.000000 11.000000
523 45 2 0.93 0.0 1.0 5.000000 1.000000 13.000000
524 45 1 0.93 0.0 1.0 5.000000 1.000000 15.000000
525 45 2 0.93 0.0 1.0 5.000000 1.000000 17.000000
526 45 2 0.93 0.0 1.0 5.000000 1.000000 19.000000
527 45 2 0.93 0.0 1.0 5.000000 3.000000 1.000000
528 45 2 0.93 0.0 1.0 5.000000 3.000000 9.000000
529 45 2 0.93 0.0 1.0 5.000000 3.000000 11.000000
530 45 2 0.93 0.0 1.0 5.000000 3.000000 19.000000
531 45 2 0.93 0.0 1.0 5.000000 5.000000 1.000000
532 45 2 0.93 0.0 1.0 5.000000 5.000000 9.000000
533 45 2 0.93 0.0 1.0 5.000000 5.000000 11.000000
534 45 1 0.93 0.0 1.0 5.000000 5.000000 19.000000
535 45 2 0.93 0.0 1.0 5.000000 7.000000 1.000000
536 45 2 0.93 0.0 1.0 5.000000 7.000000 9.000000
537 45 1 0.93 0.0 1.0 5.000000 7.000000 11.000000
538 45 2 0.93 0.0 1.0 5.000000 7.000000 19.000000
539 45 2 0.93 0.0 1.0 5.000000 9.000000 1.000000
540 45 2 0.93 0.0 1.0 5.000000 9.000000 3.000000
541 45 1 0.93 0.0 1.0 5.000000 9.000000 5.000000
542 45 1 0.93 0.0 1.0 5.000000 9.000000 7.000000
543 45 2 0.93 0.0 1.0 5.000000 9.000000 9.000000
544 45 2 0.93 0.0 1.0 5.000000 9.000000 11.000000
545 45 1 0.93 0.0 1.0 5.000000 9.000000 13.000000
546 45 1 0.93 0.0 1.0 5.000000 9.000000 15.000000
547 45 2 0.93 0.0 1.0 5.000000 9.000000 17.000000
548 45 2 0.93 0.0 1.0 5.000000 9.000000 19.000000
549 45 1 0.93 0.0 1.0 5.000000 11.000000 1.000000
550 45 2 0.93 0.0 1.0 5.000000 11.000000 3.000000
551 45 1 0.93 0.0 1.0 5.000000 11.000000 5.000000
552 45 1 0.93 0.0 1.0 5.000000 11.000000 7.000000
553 45 2 0.93 0.0 1.0 5.000000 11.000000 9.000000
554 45 2 0.93 0.0 1.0 5.000000 11.000000 11.000000
555 45 1 0.93 0.0 1.0 5.000000 11.000000 13.000000
556 45 2 0.93 0.0 1.0 5.000000 11.000000 15.000000
557 45 2 0.93 0.0 1.0 5.000000 11.000000 17.000000
558 45 2 0.93 0.0 1.0 5.000000 11.000000 19.000000
559 45 2 0.93 0.0 1.0 5.000000 13.000000 1.000000
560 45 1 0.93 0.0 1.0 5.000000 13.000000 9.000000
561 45 2 0.93 0.0 1.0 5.000000 13.000000 11.000000
562 45 2 0.93 0.0 1.0 5.000000 13.000000 19.000000
563 45 2 0.93 0.0 1.0 5.000000 15.000000 1.000000
564 45 2 0.93 0.0 1.0 5.000000 15.000000 9.000000
565 45 2 0.93 0.0 1.0 5.000000 15.000000 11.000000
566 45 2 0.93 0.0 1.0 5.000000 15.000000 19.000000
567 45 1 0.93 0.0 1.0 5.000000 17.000000 1.000000
568 45 1 0.93 0.0 1.0 5.000000 17.000000 9.000000
569 45 1 0.93 0.0 1.0 5.000000 17.000000 11.000000
570 45 2 0.93 0.0 1.0 5.000000 17.000000 19.000000
571 45 2 0.93 0.0 1.0 5.000000 19.000000 1.000000
572 45 1 0.93 0.0 1.0 5.000000 19.000000 3.000000
573 45 2 0.93 0.0 1.0 5.000000 19.000000 5.000000
574 45 1 0.93 0.0 1.0 5.000000 19.000000 7.000000
575 45 2 0.93 0.0 1.0 5.000000 19.000000 9.000000
576 45 2 0.93 0.0 1.0 5.000000 19.000000 11.000000
577 45 2 0.93 0.0 1.0 5.000000 19.000000 13.000000
578 45 1 0.93 0.0 1.0 5.000000 19.000000 15.000000
579 45 2 0.93 0.0 1.0 5.000000 19.000000 17.000000
580 45 1 0.93 0.0 1.0 5.000000 19.000000 19.000000
581 45 1 0.93 0.0 1.0 7.000000 1.000000 1.000000
582 45 2 0.93 0.0 1.0 7.000000 1.000000 3.000000
583 45 2 0.93 0.0 1.0 7.000000 1.000000 5.000000
584 45 2 0.93 0.0 1.0 7.000000 1.000000 7.000000
585 45 2 0.93 0.0 1.0 7.000000 1.000000 9.000000
586 45 1 0.93 0.0 1.0 7.000000 1.000000 11.000000
587 45 2 0.93 0.0 1.0 7.000000 1.000000 13.000000
588 45 2 0.93 0.0 1.0 7.000000 1.000000 15.000000
589 45 1 0.93 0.0 1.0 7.000000 1.000000 17.000000
590 45 2 0.93 0.0 1.0 7.000000 1.000000 19.000000
591 45 2 0.93 0.0 1.0 7.000000 3.000000 1.000000
592 45 1 0.93 0.0 1.0 7.000000 3.000000 3.000000
593 45 2 0.93 0.0 1.0 7.000000 3.000000 5.000000