LAMMPS data file via write_data, version 30 Jul 2016, timestep = 1000000

2080 atoms
8 atom types

0.0000000000000000e+00 4.0000000000000000e+01 xlo xhi
0.0000000000000000e+00 4.0000000000000000e+01 ylo yhi
0.0000000000000000e+00 1.0000000000000000e+02 zlo zhi

Masses

1 3.896
2 21.44
3 1058.08
4 8.378
5 8.378
6 8.378
7 8.378
8 8.378

Atoms # meso-molecular

1 2 4 2.2559723595316457e+00 1.4441895845958417e+01 4.2000000000000000e+03 0.0000000000000000e+00 0.0000000000000000e+00 2.5000000000000000e+00 
2 2 4 2.2559723595316457e+00 1.1220831852080192e+01 4.2000000000000000e+03 0.0000000000000000e+00 2.0000000000000000e+00 2.5000000000000000e+00 
3 2 4 2.2559723595316457e+00 4.3464364542389049e+00 4.2000000000000000e+03 0.0000000000000000e+00 4.0000000000000000e+00 2.5000000000000000e+00 
4 2 4 2.2559723595316457e+00 -2.8205485699929560e+00 4.2000000000000000e+03 0.0000000000000000e+00 6.0000000000000000e+00 2.5000000000000000e+00 
21 2 4 2.2559723595316457e+00 1.0514473842627289e+01 4.2000000000000000e+03 2.0000000000000000e+00 0.0000000000000000e+00 2.5000000000000000e+00 
22 2 4 2.2559723595316457e+00 2.0026681626831497e+01 4.2000000000000000e+03 2.0000000000000000e+00 2.0000000000000000e+00 2.5000000000000000e+00 
23 2 4 2.2559723595316457e+00 2.4049299796784947e+01 4.2000000000000000e+03 2.0000000000000000e+00 4.0000000000000000e+00 2.5000000000000000e+00 
24 2 4 2.2559723595316457e+00 1.5986350020882014e+01 4.2000000000000000e+03 2.0000000000000000e+00 6.0000000000000000e+00 2.5000000000000000e+00 
41 2 4 2.2559723595316457e+00 1.8015501138315486e+01 4.2000000000000000e+03 4.0000000000000000e+00 0.0000000000000000e+00 2.5000000000000000e+00 
42 2 4 2.2559723595316457e+00 4.1237022052199237e+01 4.2000000000000000e+03 4.0000000000000000e+00 2.0000000000000000e+00 2.5000000000000000e+00 
43 2 4 2.2559723595316457e+00 5.6096278830778608e+01 4.2000000000000000e+03 4.0000000000000000e+00 4.0000000000000000e+00 2.5000000000000000e+00 
44 2 4 2.2559723595316457e+00 4.2048128041258849e+01 4.2000000000000000e+03 4.0000000000000000e+00 6.0000000000000000e+00 2.5000000000000000e+00 
61 2 4 2.2559723595316457e+00 3.2634080431058337e+01 4.2000000000000000e+03 6.0000000000000000e+00 0.0000000000000000e+00 2.5000000000000000e+00 
62 2 4 2.2559723595316457e+00 6.8359777867679014e+01 4.2000000000000000e+03 6.0000000000000000e+00 2.0000000000000000e+00 2.5000000000000000e+00 
63 2 4 2.2559723595316457e+00 9.5729763574919247e+01 4.2000000000000000e+03 6.0000000000000000e+00 4.0000000000000000e+00 2.5000000000000000e+00 
64 2 4 2.2559723595316457e+00 7.4376676034544204e+01 4.2000000000000000e+03 6.0000000000000000e+00 6.0000000000000000e+00 2.5000000000000000e+00 
81 2 4 2.2559723595316457e+00 4.2157111972664879e+01 4.2000000000000000e+03 8.0000000000000000e+00 0.0000000000000000e+00 2.5000000000000000e+00 
82 2 4 2.2559723595316457e+00 7.9694228325028689e+01 4.2000000000000000e+03 8.0000000000000000e+00 2.0000000000000000e+00 2.5000000000000000e+00 
83 2 4 2.2559723595316457e+00 1.1492879459781204e+02 4.2000000000000000e+03 8.0000000000000000e+00 4.0000000000000000e+00 2.5000000000000000e+00 
84 2 4 2.2559723595316457e+00 1.0190580005419373e+02 4.2000000000000000e+03 8.0000000000000000e+00 6.0000000000000000e+00 2.5000000000000000e+00 
101 2 4 2.2559723595316457e+00 3.4657288012273185e+01 4.2000000000000000e+03 1.0000000000000000e+01 0.0000000000000000e+00 2.5000000000000000e+00 
102 2 4 2.2559723595316457e+00 6.2853452791484628e+01 4.2000000000000000e+03 1.0000000000000000e+01 2.0000000000000000e+00 2.5000000000000000e+00 
103 2 4 2.2559723595316457e+00 1.0494972180610299e+02 4.2000000000000000e+03 1.0000000000000000e+01 4.0000000000000000e+00 2.5000000000000000e+00 
104 2 4 2.2559723595316457e+00 -3.7483961825055275e+01 4.2000000000000000e+03 1.0000000000000000e+01 6.0000000000000000e+00 2.5000000000000000e+00 
121 2 4 2.2559723595316457e+00 2.0760358471496655e+01 4.2000000000000000e+03 1.2000000000000000e+01 0.0000000000000000e+00 2.5000000000000000e+00 
122 2 4 2.2559723595316457e+00 5.4536816924665615e+01 4.2000000000000000e+03 1.2000000000000000e+01 2.0000000000000000e+00 2.5000000000000000e+00 
123 2 4 2.2559723595316457e+00 -3.1831434559200043e+00 4.2000000000000000e+03 1.2000000000000000e+01 4.0000000000000000e+00 2.5000000000000000e+00 
124 2 4 2.2559723595316457e+00 -1.0881277178924295e+03 4.2000000000000000e+03 1.2000000000000000e+01 6.0000000000000000e+00 2.5000000000000000e+00 
141 2 4 2.2559723595316457e+00 1.2923674036510409e+01 4.2000000000000000e+03 1.4000000000000000e+01 0.0000000000000000e+00 2.5000000000000000e+00 
142 2 4 2.2559723595316457e+00 8.1120456637407329e+01 4.2000000000000000e+03 1.4000000000000000e+01 2.0000000000000000e+00 2.5000000000000000e+00 
143 2 4 2.2559723595316457e+00 -4.3593845727931716e+02 4.2000000000000000e+03 1.4000000000000000e+01 4.0000000000000000e+00 2.5000000000000000e+00 
144 2 4 2.2559723595316457e+00 -3.7418201572015078e+03 4.2000000000000000e+03 1.4000000000000000e+01 6.0000000000000000e+00 2.5000000000000000e+00 
161 2 4 2.2559723595316457e+00 4.3349665388946956e+00 4.2000000000000000e+03 1.6000000000000000e+01 0.0000000000000000e+00 2.5000000000000000e+00 
162 2 4 2.2559723595316457e+00 6.5252967280394017e+01 4.2000000000000000e+03 1.6000000000000000e+01 2.0000000000000000e+00 2.5000000000000000e+00 
163 2 4 2.2559723595316457e+00 -1.1742799927859819e+03 4.2000000000000000e+03 1.6000000000000000e+01 4.0000000000000000e+00 2.5000000000000000e+00 
164 2 4 2.2559723595316457e+00 -7.4478407460245708e+03 4.2000000000000000e+03 1.6000000000000000e+01 6.0000000000000000e+00 2.5000000000000000e+00 
181 2 4 2.2559723595316457e+00 -1.5936715954606289e+01 4.2000000000000000e+03 1.8000000000000000e+01 0.0000000000000000e+00 2.5000000000000000e+00 
182 2 4 2.2559723595316457e+00 -4.6743225302422937e+00 4.2000000000000000e+03 1.8000000000000000e+01 2.0000000000000000e+00 2.5000000000000000e+00 
183 2 4 2.2559723595316457e+00 -1.7911204249665152e+03 4.2000000000000000e+03 1.8000000000000000e+01 4.0000000000000000e+00 2.5000000000000000e+00 
184 2 4 2.2559723595316457e+00 -1.0304191709076014e+04 4.2000000000000000e+03 1.8000000000000000e+01 6.0000000000000000e+00 2.5000000000000000e+00 
5 2 4 2.2559723595316457e+00 -6.2514344363465826e+00 4.2000000000000000e+03 0.0000000000000000e+00 8.0000000000000000e+00 2.5000000000000000e+00 
6 2 4 2.2559723595316457e+00 -4.1499711753641124e+00 4.2000000000000000e+03 0.0000000000000000e+00 1.0000000000000000e+01 2.5000000000000000e+00 
7 2 4 2.2559723595316457e+00 -9.2686513352248712e-01 4.2000000000000000e+03 0.0000000000000000e+00 1.2000000000000000e+01 2.5000000000000000e+00 
25 2 4 2.2559723595316457e+00 2.7078254351319400e+00 4.2000000000000000e+03 2.0000000000000000e+00 8.0000000000000000e+00 2.5000000000000000e+00 
26 2 4 2.2559723595316457e+00 -1.7505669754753275e+00 4.2000000000000000e+03 2.0000000000000000e+00 1.0000000000000000e+01 2.5000000000000000e+00 
27 2 4 2.2559723595316457e+00 -8.2753938015902606e-01 4.2000000000000000e+03 2.0000000000000000e+00 1.2000000000000000e+01 2.5000000000000000e+00 
45 2 4 2.2559723595316457e+00 1.0664950685021335e+01 4.2000000000000000e+03 4.0000000000000000e+00 8.0000000000000000e+00 2.5000000000000000e+00 
46 2 4 2.2559723595316457e+00 -5.6417383698778316e+00 4.2000000000000000e+03 4.0000000000000000e+00 1.0000000000000000e+01 2.5000000000000000e+00 
47 2 4 2.2559723595316457e+00 -2.7358635599425007e+01 4.2000000000000000e+03 4.0000000000000000e+00 1.2000000000000000e+01 2.5000000000000000e+00 
65 2 4 2.2559723595316457e+00 2.1998485858702800e+01 4.2000000000000000e+03 6.0000000000000000e+00 8.0000000000000000e+00 2.5000000000000000e+00 
66 2 4 2.2559723595316457e+00 -2.1206280966620717e+01 4.2000000000000000e+03 6.0000000000000000e+00 1.0000000000000000e+01 2.5000000000000000e+00 
67 2 4 2.2559723595316457e+00 -7.6804814301793087e+01 4.2000000000000000e+03 6.0000000000000000e+00 1.2000000000000000e+01 2.5000000000000000e+00 
85 2 4 2.2559723595316457e+00 3.6555810796833775e+01 4.2000000000000000e+03 8.0000000000000000e+00 8.0000000000000000e+00 2.5000000000000000e+00 
86 2 4 2.2559723595316457e+00 -4.1159789333523449e+01 4.2000000000000000e+03 8.0000000000000000e+00 1.0000000000000000e+01 2.5000000000000000e+00 
87 2 4 2.2559723595316457e+00 -1.1340091929582273e+02 4.2000000000000000e+03 8.0000000000000000e+00 1.2000000000000000e+01 2.5000000000000000e+00 
105 2 4 2.2559723595316457e+00 -6.1205389840654357e+02 4.2000000000000000e+03 1.0000000000000000e+01 8.0000000000000000e+00 2.5000000000000000e+00 
106 2 4 2.2559723595316457e+00 -1.3878402993948359e+03 4.2000000000000000e+03 1.0000000000000000e+01 1.0000000000000000e+01 2.5000000000000000e+00 
107 2 4 2.2559723595316457e+00 -1.9179676163467229e+03 4.2000000000000000e+03 1.0000000000000000e+01 1.2000000000000000e+01 2.5000000000000000e+00 
125 2 4 2.2559723595316457e+00 -3.9197093830510830e+03 4.2000000000000000e+03 1.2000000000000000e+01 8.0000000000000000e+00 2.5000000000000000e+00 
126 2 4 2.2559723595316457e+00 -7.6235174257814970e+03 4.2000000000000000e+03 1.2000000000000000e+01 1.0000000000000000e+01 2.5000000000000000e+00 
127 2 4 2.2559723595316457e+00 -1.0391526386953401e+04 4.2000000000000000e+03 1.2000000000000000e+01 1.2000000000000000e+01 2.5000000000000000e+00 
145 2 4 2.2559723595316457e+00 -1.1321316333016503e+04 4.2000000000000000e+03 1.4000000000000000e+01 8.0000000000000000e+00 2.5000000000000000e+00 
146 2 4 2.2559723595316457e+00 -2.1421389646565432e+04 4.2000000000000000e+03 1.4000000000000000e+01 1.0000000000000000e+01 2.5000000000000000e+00 
147 2 4 2.2559723595316457e+00 -2.9708601803321122e+04 4.2000000000000000e+03 1.4000000000000000e+01 1.2000000000000000e+01 2.5000000000000000e+00 
165 2 4 2.2559723595316457e+00 -2.1424149432913076e+04 4.2000000000000000e+03 1.6000000000000000e+01 8.0000000000000000e+00 2.5000000000000000e+00 
166 2 4 2.2559723595316457e+00 -4.0765213473288415e+04 4.2000000000000000e+03 1.6000000000000000e+01 1.0000000000000000e+01 2.5000000000000000e+00 
167 2 4 2.2559723595316457e+00 -5.7810707941621324e+04 4.2000000000000000e+03 1.6000000000000000e+01 1.2000000000000000e+01 2.5000000000000000e+00 
185 2 4 2.2559723595316457e+00 -2.9224391951002443e+04 4.2000000000000000e+03 1.8000000000000000e+01 8.0000000000000000e+00 2.5000000000000000e+00 
186 2 4 2.2559723595316457e+00 -5.6098526712968080e+04 4.2000000000000000e+03 1.8000000000000000e+01 1.0000000000000000e+01 2.5000000000000000e+00 
187 2 4 2.2559723595316457e+00 -8.0778461683582806e+04 4.2000000000000000e+03 1.8000000000000000e+01 1.2000000000000000e+01 2.5000000000000000e+00 
8 2 4 2.2559723595316457e+00 8.2739320728565713e-02 4.2000000000000000e+03 0.0000000000000000e+00 1.4000000000000000e+01 2.5000000000000000e+00 
9 2 4 2.2559723595316457e+00 -5.5825266512021465e-01 4.2000000000000000e+03 0.0000000000000000e+00 1.6000000000000000e+01 2.5000000000000000e+00 
10 2 4 2.2559723595316457e+00 -5.6323313589366659e+00 4.2000000000000000e+03 0.0000000000000000e+00 1.8000000000000000e+01 2.5000000000000000e+00 
28 2 4 2.2559723595316457e+00 -6.7707343243492248e+00 4.2000000000000000e+03 2.0000000000000000e+00 1.4000000000000000e+01 2.5000000000000000e+00 
29 2 4 2.2559723595316457e+00 -2.6047156925579447e+01 4.2000000000000000e+03 2.0000000000000000e+00 1.6000000000000000e+01 2.5000000000000000e+00 
30 2 4 2.2559723595316457e+00 -5.2451376774088416e+01 4.2000000000000000e+03 2.0000000000000000e+00 1.8000000000000000e+01 2.5000000000000000e+00 
48 2 4 2.2559723595316457e+00 -7.8962666182939003e+01 4.2000000000000000e+03 4.0000000000000000e+00 1.4000000000000000e+01 2.5000000000000000e+00 
49 2 4 2.2559723595316457e+00 -1.5578185553140139e+02 4.2000000000000000e+03 4.0000000000000000e+00 1.6000000000000000e+01 2.5000000000000000e+00 
50 2 4 2.2559723595316457e+00 -2.1392618337064803e+02 4.2000000000000000e+03 4.0000000000000000e+00 1.8000000000000000e+01 2.5000000000000000e+00 
68 2 4 2.2559723595316457e+00 -1.7886885011002948e+02 4.2000000000000000e+03 6.0000000000000000e+00 1.4000000000000000e+01 2.5000000000000000e+00 
69 2 4 2.2559723595316457e+00 -3.1299190975206488e+02 4.2000000000000000e+03 6.0000000000000000e+00 1.6000000000000000e+01 2.5000000000000000e+00 
70 2 4 2.2559723595316457e+00 -3.9286796097630088e+02 4.2000000000000000e+03 6.0000000000000000e+00 1.8000000000000000e+01 2.5000000000000000e+00 
88 2 4 2.2559723595316457e+00 -2.2394845881245220e+02 4.2000000000000000e+03 8.0000000000000000e+00 1.4000000000000000e+01 2.5000000000000000e+00 
89 2 4 2.2559723595316457e+00 -3.7242254325828401e+02 4.2000000000000000e+03 8.0000000000000000e+00 1.6000000000000000e+01 2.5000000000000000e+00 
90 2 4 2.2559723595316457e+00 -4.6014665476306845e+02 4.2000000000000000e+03 8.0000000000000000e+00 1.8000000000000000e+01 2.5000000000000000e+00 
108 2 4 2.2559723595316457e+00 -2.1150336201249793e+03 4.2000000000000000e+03 1.0000000000000000e+01 1.4000000000000000e+01 2.5000000000000000e+00 
109 2 4 2.2559723595316457e+00 -2.2062129289915165e+03 4.2000000000000000e+03 1.0000000000000000e+01 1.6000000000000000e+01 2.5000000000000000e+00 
110 2 4 2.2559723595316457e+00 -2.2669828355112909e+03 4.2000000000000000e+03 1.0000000000000000e+01 1.8000000000000000e+01 2.5000000000000000e+00 
128 2 4 2.2559723595316457e+00 -1.1472490190471904e+04 4.2000000000000000e+03 1.2000000000000000e+01 1.4000000000000000e+01 2.5000000000000000e+00 
129 2 4 2.2559723595316457e+00 -1.1569658547241064e+04 4.2000000000000000e+03 1.2000000000000000e+01 1.6000000000000000e+01 2.5000000000000000e+00 
130 2 4 2.2559723595316457e+00 -1.1544523646307167e+04 4.2000000000000000e+03 1.2000000000000000e+01 1.8000000000000000e+01 2.5000000000000000e+00 
148 2 4 2.2559723595316457e+00 -3.3551953842739596e+04 4.2000000000000000e+03 1.4000000000000000e+01 1.4000000000000000e+01 2.5000000000000000e+00 
149 2 4 2.2559723595316457e+00 -3.4152952776463440e+04 4.2000000000000000e+03 1.4000000000000000e+01 1.6000000000000000e+01 2.5000000000000000e+00 
150 2 4 2.2559723595316457e+00 -3.4016419781668425e+04 4.2000000000000000e+03 1.4000000000000000e+01 1.8000000000000000e+01 2.5000000000000000e+00 
168 2 4 2.2559723595316457e+00 -6.6530380120271642e+04 4.2000000000000000e+03 1.6000000000000000e+01 1.4000000000000000e+01 2.5000000000000000e+00 
169 2 4 2.2559723595316457e+00 -6.8320983472101158e+04 4.2000000000000000e+03 1.6000000000000000e+01 1.6000000000000000e+01 2.5000000000000000e+00 
170 2 4 2.2559723595316457e+00 -6.8149345603843467e+04 4.2000000000000000e+03 1.6000000000000000e+01 1.8000000000000000e+01 2.5000000000000000e+00 
188 2 4 2.2559723595316457e+00 -9.3986244559559564e+04 4.2000000000000000e+03 1.8000000000000000e+01 1.4000000000000000e+01 2.5000000000000000e+00 
189 2 4 2.2559723595316457e+00 -9.6926816733637766e+04 4.2000000000000000e+03 1.8000000000000000e+01 1.6000000000000000e+01 2.5000000000000000e+00 
190 2 4 2.2559723595316457e+00 -9.6757389264191705e+04 4.2000000000000000e+03 1.8000000000000000e+01 1.8000000000000000e+01 2.5000000000000000e+00 
1722 1324 2 1.0280930162899558e+00 -1.7491888447901662e+05 4.2000000000000000e+03 5.5220306020703527e+00 4.1262049142231083e+00 5.6387850794060689e+01 
657 259 2 1.0281231319466504e+00 1.9158964809573670e+04 4.2000000000000000e+03 5.7196600658258712e+00 3.9380603609854035e+00 5.6399558512999569e+01 
1673 1275 2 1.0281364176060459e+00 5.0803209992955497e+04 4.2000000000000000e+03 5.2825273856061470e+00 3.7930747844215378e+00 5.6416904361025843e+01 
1049 651 2 1.0280379009446625e+00 -7.0791811378926272e+04 4.2000000000000000e+03 5.5852410402779897e+00 2.6798607873913456e+00 5.6453452261085985e+01 
1468 1070 2 1.0281228915763549e+00 5.1005298819161435e+04 4.2000000000000000e+03 6.5683643411817059e+00 2.9013592235781243e+00 5.6561271493335660e+01 
1887 1489 2 1.0281060016071384e+00 -1.4055754178185141e+05 4.2000000000000000e+03 3.6651030596053547e+00 2.0810234225450150e+00 5.6837869639206403e+01 
1703 1305 2 1.0281008006103889e+00 2.4723858514006584e+04 4.2000000000000000e+03 2.8634157376025215e+00 1.5344939484582565e+00 5.7082350985523604e+01 
1349 951 2 1.0280423652644566e+00 -1.0022313411305497e+05 4.2000000000000000e+03 2.0337114955254743e+00 2.1357907244674473e-01 5.7170914301001403e+01 
1844 1446 2 1.0280491915762362e+00 8.1206732031380277e+04 4.2000000000000000e+03 2.1046322079919899e+00 9.5943531106935862e-02 5.7147111402058215e+01 
514 116 2 1.0280995069654015e+00 -3.7012907623627485e+04 4.2000000000000000e+03 2.4271826113325341e+00 1.6705592178832258e+00 5.7251824211072517e+01 
1570 1172 2 1.0280040084354778e+00 1.1250976971645831e+05 4.2000000000000000e+03 1.2230033308400565e+00 2.3554675367706582e-01 5.7301055949806027e+01 
1328 930 2 1.0280853490795232e+00 2.5863165883947295e+04 4.2000000000000000e+03 7.9932099858449768e-01 5.5548192950306685e+00 5.8086670691745773e+01 
1501 1103 2 1.0281223289978352e+00 -3.9806870083438051e+04 4.2000000000000000e+03 3.0856159550862574e+00 5.3249098865414988e+00 5.9135923600119945e+01 
1726 1328 2 1.0281926495586191e+00 -1.3418174895629432e+05 4.2000000000000000e+03 1.0204058177679470e-01 2.4293629970861175e+00 5.9297774899762665e+01 
1285 887 2 1.0282482624716716e+00 -6.4386427237879689e+04 4.2000000000000000e+03 3.7292681370039000e+00 5.0389404868914731e+00 5.9905382613698833e+01 
1377 979 2 1.0282094033753784e+00 -4.6813707771276670e+04 4.2000000000000000e+03 3.8120571452303658e+00 5.1197569484966685e+00 5.9949564252770251e+01 
1372 974 2 1.0281090396010304e+00 1.5715828157554233e+04 4.2000000000000000e+03 6.6738135932112268e+00 2.6238072593181094e+00 5.6602602779679522e+01 
1366 968 2 1.0281094226947463e+00 -2.4763165437916419e+05 4.2000000000000000e+03 6.9916254891010396e+00 2.0887180572337645e+00 5.6742014014472943e+01 
977 579 2 1.0280117690922292e+00 1.5570165084450304e+04 4.2000000000000000e+03 7.5605455358891165e+00 6.4682020359579724e+00 5.6779157454441602e+01 
508 110 2 1.0280890799830014e+00 1.5558931236425930e+05 4.2000000000000000e+03 7.4246981415192712e+00 2.5073454251317107e+00 5.6902541709109457e+01 
1710 1312 2 1.0280547882862157e+00 -9.6520652218522300e+04 4.2000000000000000e+03 7.4594876118328859e+00 1.7253389162103421e+00 5.6977820857972752e+01 
1048 650 2 1.0280286895613908e+00 1.7841047584026859e+02 4.2000000000000000e+03 7.7459631042616488e+00 1.5550105281658972e+00 5.7147775509750851e+01 
528 130 2 1.0281187758947268e+00 1.0406051454981534e+05 4.2000000000000000e+03 7.8258085260279504e+00 1.5277660265203765e+00 5.7198037145818311e+01 
1713 1315 2 1.0280729990191169e+00 6.4147123090750426e+02 4.2000000000000000e+03 7.9043565416265098e+00 1.3171469015940656e+00 5.7268991530135892e+01 
681 283 2 1.0280772438336694e+00 1.1814043666153312e+05 4.2000000000000000e+03 8.0642268579342975e+00 1.1464052668200739e+00 5.7389344321433505e+01 
935 537 2 1.0280689463534503e+00 -2.9325330170189869e+05 4.2000000000000000e+03 1.2709260426412175e+01 3.8148289657907362e+00 5.7766110811258415e+01 
774 376 2 1.0281039790400317e+00 -1.4998682867046204e+05 4.2000000000000000e+03 9.3873775500501733e+00 5.9955190710385811e+00 5.8569326986464105e+01 
538 140 2 1.0281903967947585e+00 2.1733636411443091e+04 4.2000000000000000e+03 9.3892704903819304e+00 4.3413546884769598e+00 5.9120464917889862e+01 
1222 824 2 1.0281537079282090e+00 -1.1693068346626808e+05 4.2000000000000000e+03 1.1578910419710869e+01 5.9671048556759820e-01 5.9325908641146256e+01 
1164 766 2 1.0280793919239581e+00 6.0429554198104961e+04 4.2000000000000000e+03 1.4293479313887884e+01 5.9560884387120172e+00 5.6514121925883032e+01 
1303 905 2 1.0280383520091849e+00 -1.9048208865168388e+05 4.2000000000000000e+03 1.5607526991672069e+01 5.8980407068748679e+00 5.6485523066595931e+01 
531 133 2 1.0280377549659399e+00 -6.5165828752196263e+04 4.2000000000000000e+03 1.4984885695149504e+01 6.3740277451808192e+00 5.6486104789203928e+01 
703 305 2 1.0280331769500792e+00 1.7111769583956335e+04 4.2000000000000000e+03 1.4177084668930387e+01 6.2629021993081446e+00 5.6549966111260119e+01 
1997 1599 2 1.0280259044827045e+00 1.9727478541513707e+05 4.2000000000000000e+03 1.5751123423867998e+01 6.0838182493013075e+00 5.6537149396824994e+01 
2073 1675 2 1.0280109275998870e+00 9.2446035482327337e+04 4.2000000000000000e+03 1.5873009663921648e+01 6.1723428139046144e+00 5.6582115027688772e+01 
1641 1243 2 1.0280430877310520e+00 9.5288649526360066e+04 4.2000000000000000e+03 1.5984853356434549e+01 6.2893458193732350e+00 5.6638390458416289e+01 
1759 1361 2 1.0280148424443014e+00 1.8397035281034354e+04 4.2000000000000000e+03 1.6080606257941966e+01 3.5211646213508825e+00 5.6877702872661189e+01 
1773 1375 2 1.0280799096187296e+00 6.9787870394310652e+04 4.2000000000000000e+03 1.5432519697704054e+01 3.5329181374231351e+00 5.6879690741029812e+01 
962 564 2 1.0281182605500856e+00 -2.5960015553795439e+05 4.2000000000000000e+03 1.4801223821072416e+01 3.4515678013678714e+00 5.7029288432651740e+01 
1205 807 2 1.0280467319138720e+00 -8.7952219006364583e+04 4.2000000000000000e+03 1.6434586683041442e+01 2.9685614713961752e+00 5.7135633899553383e+01 
552 154 2 1.0280718125652391e+00 1.5440812522223612e+05 4.2000000000000000e+03 1.6749686309289164e+01 2.0381319047665749e+00 5.7616957576523056e+01 
1494 1096 2 1.0279391070371748e+00 -2.3522678910700165e+05 4.2000000000000000e+03 1.8767221418508363e+01 3.6828806161541126e+00 5.7971556456820608e+01 
678 280 2 1.0279806054689087e+00 8.2216656002834439e+04 4.2000000000000000e+03 1.8752734855114110e+01 3.5585599373271846e+00 5.7982971568099693e+01 
1764 1366 2 1.0279814119582567e+00 2.3700105268249361e+05 4.2000000000000000e+03 1.8918047079486509e+01 3.5832546595557702e+00 5.8089542853370858e+01 
1435 1037 2 1.0279265199045091e+00 -2.1393451359038678e+05 4.2000000000000000e+03 1.9077185229492610e+01 3.6272658718769759e+00 5.8188953200942386e+01 
1313 915 2 1.0281187548862498e+00 -4.3461833641191588e+04 4.2000000000000000e+03 1.8667489291368621e+01 1.9884895267013418e+00 5.8478429877403073e+01 
1763 1365 2 1.0281660150586351e+00 -9.2262398928989103e+04 4.2000000000000000e+03 1.8366770850674637e+01 1.2390386917055478e+00 5.8595790565222188e+01 
2004 1606 2 1.0280259502556015e+00 2.1299990288486829e+05 4.2000000000000000e+03 1.3391646341056695e+01 2.0188530680840313e+00 5.8706930522459565e+01 
1010 612 2 1.0279773031369537e+00 -1.3754941223366596e+05 4.2000000000000000e+03 4.9419718727794768e+00 1.0057631981073046e+01 5.5639728393815481e+01 
719 321 2 1.0279905425511908e+00 7.1555865894742718e+04 4.2000000000000000e+03 5.0637335713067486e+00 1.0125436207320266e+01 5.5647263049337695e+01 
1284 886 2 1.0279643305007515e+00 7.1757957932338148e+04 4.2000000000000000e+03 4.9161275109119975e+00 1.0781843530423789e+01 5.5649604687940759e+01 
440 42 2 1.0279705113614488e+00 1.4198305352209136e+05 4.2000000000000000e+03 4.8170156895203995e+00 9.7909108533149727e+00 5.5644165362907103e+01 
954 556 2 1.0279816018705870e+00 -2.6877798695890838e+05 4.2000000000000000e+03 4.9152620382080210e+00 9.5578959272396169e+00 5.5663557092971438e+01 
1770 1372 2 1.0279923227525765e+00 1.1802203544885427e+05 4.2000000000000000e+03 4.3411608342887540e+00 9.2172203220980471e+00 5.5699786819531319e+01 
1264 866 2 1.0279923803290698e+00 -2.8166472301090511e+04 4.2000000000000000e+03 4.3710036884062102e+00 9.1268547865281011e+00 5.5709584684315715e+01 
1060 662 2 1.0279956452711372e+00 1.8042654296342965e+05 4.2000000000000000e+03 4.4487324214248822e+00 9.0582304435920253e+00 5.5715093323121067e+01 
1948 1550 2 1.0280026111642293e+00 1.8011402289947160e+05 4.2000000000000000e+03 5.6970312490585577e+00 1.0866348215151746e+01 5.5757715620285808e+01 
1874 1476 2 1.0279764538281770e+00 1.0438084157348820e+05 4.2000000000000000e+03 3.3129328561773126e+00 1.0893535911875798e+01 5.5771784782949695e+01 
439 41 2 1.0279480313459144e+00 5.4455552401141220e+04 4.2000000000000000e+03 6.4403812153704276e+00 9.2761735139619059e+00 5.5997950663821072e+01 
663 265 2 1.0280656827094081e+00 -1.1819616406267756e+04 4.2000000000000000e+03 4.8683142647215130e+00 7.1773603997695572e+00 5.6026788916700141e+01 
2032 1634 2 1.0280350899894395e+00 2.9669547707038495e+05 4.2000000000000000e+03 4.5484413064498659e+00 6.8275782177486022e+00 5.6121124483632414e+01 
1878 1480 2 1.0279944981671725e+00 2.3415763712120097e+04 4.2000000000000000e+03 8.3785452387137094e-01 1.1856063868926777e+01 5.6378183326181258e+01 
1047 649 2 1.0280341495700687e+00 -1.0026154532429419e+05 4.2000000000000000e+03 6.7335964025600887e+00 1.0253044796738740e+01 5.6106826850869751e+01 
1027 629 2 1.0280313877173941e+00 9.2833276213369416e+01 4.2000000000000000e+03 6.8805149052718049e+00 1.0744745196951209e+01 5.6196415967920899e+01 
1640 1242 2 1.0280102206943258e+00 3.1208860171440454e+04 4.2000000000000000e+03 7.1051607136545298e+00 1.1322001870137157e+01 5.6357490855602229e+01 
896 498 2 1.0281052818036249e+00 3.8008892287894254e+04 4.2000000000000000e+03 7.4292161565263637e+00 7.9872326369132720e+00 5.6556002757107578e+01 
782 384 2 1.0281492226262654e+00 5.5276006915152575e+04 4.2000000000000000e+03 8.3808513527234716e+00 1.2375205093267443e+01 5.7517862497245225e+01 
1484 1086 2 1.0279891882645609e+00 1.3855150520695826e+04 4.2000000000000000e+03 8.9366362254031948e+00 7.5830315375353265e+00 5.7765070941849523e+01 
603 205 2 1.0280756119370964e+00 -3.9046956865183674e+04 4.2000000000000000e+03 1.2811552443541515e+01 9.8209795613463680e+00 5.8007825202922675e+01 
1387 989 2 1.0281665349428155e+00 -8.6830988065658297e+04 4.2000000000000000e+03 1.2963689252882219e+01 1.0414493240402026e+01 5.8111703743319460e+01 
1486 1088 2 1.0280884199973130e+00 -2.0011237921109714e+05 4.2000000000000000e+03 1.1997197362304675e+01 8.7075389248109065e+00 5.8117990124630794e+01 
1200 802 2 1.0279353278933259e+00 4.9887635115849940e+02 4.2000000000000000e+03 1.1783267344173840e+01 9.0289694296776446e+00 5.8467012737522715e+01 
908 510 2 1.0281384809053866e+00 7.2703952139901667e+04 4.2000000000000000e+03 1.1707343702880120e+01 1.0484477330068758e+01 5.8760358442599660e+01 
724 326 2 1.0279437340245416e+00 2.7480596848504012e+05 4.2000000000000000e+03 1.0930170070551778e+01 6.8903384260913798e+00 5.9078524712606402e+01 
1436 1038 2 1.0280370019943903e+00 9.7236415444938219e+04 4.2000000000000000e+03 9.6191505783346081e+00 1.2483137797742881e+01 5.9127475317278694e+01 
816 418 2 1.0280807978753514e+00 2.8978499260182175e+03 4.2000000000000000e+03 1.5469308016892795e+01 6.7233571455421011e+00 5.6606844599004191e+01 
989 591 2 1.0280902382600912e+00 -6.0610913958182602e+04 4.2000000000000000e+03 1.4069784219081638e+01 7.0711291711548148e+00 5.6688625893039600e+01 
1272 874 2 1.0280472080031722e+00 -1.3304173523217146e+05 4.2000000000000000e+03 1.5282402767114473e+01 7.3841237397182082e+00 5.6765019789471872e+01 
843 445 2 1.0280633655975355e+00 -1.5582191514644685e+05 4.2000000000000000e+03 1.5214045089073405e+01 7.4834873822560422e+00 5.6787325907399321e+01 
2060 1662 2 1.0280547234358381e+00 8.5439068469767517e+04 4.2000000000000000e+03 1.5194987097113842e+01 7.5349879532467936e+00 5.6802052025907855e+01 
1128 730 2 1.0281025603535547e+00 -1.3798586272554935e+05 4.2000000000000000e+03 1.4874107245303879e+01 1.2474297303262466e+01 5.7017306538812207e+01 
1738 1340 2 1.0281031106839900e+00 -1.2984666075841778e+04 4.2000000000000000e+03 1.4208346545812253e+01 1.1667220997785636e+01 5.7510312549635692e+01 
1379 981 2 1.0280449077044804e+00 -1.7405402600090313e+05 4.2000000000000000e+03 1.4535327510659798e+01 9.9011453014991844e+00 5.7715674567564101e+01 
1532 1134 2 1.0279725459913491e+00 -6.3038786219551213e+04 4.2000000000000000e+03 6.3918608572057609e+00 1.9064899200934025e+01 5.4473454346681045e+01 
1498 1100 2 1.0280046460290506e+00 -1.8763066001863769e+05 4.2000000000000000e+03 6.5049269262469229e+00 1.7178473961285782e+01 5.4326851736158808e+01 
1522 1124 2 1.0280356724278341e+00 -2.7405917438996269e+05 4.2000000000000000e+03 6.0902859495442776e+00 1.9293439895402827e+01 5.4718184362042017e+01 
1243 845 2 1.0279498131006208e+00 1.2139140761437167e+05 4.2000000000000000e+03 4.6850137263183491e+00 1.7948404825475897e+01 5.5225178695840590e+01 
1824 1426 2 1.0279601929589015e+00 1.2359296973651126e+04 4.2000000000000000e+03 9.2289250160105374e-01 1.4873102993460586e+01 5.5908883496427137e+01 
938 540 2 1.0278971613426782e+00 -1.7954792308151341e+05 4.2000000000000000e+03 3.5284075116010265e+00 1.6162913497183201e+01 5.6051505921772360e+01 
1327 929 2 1.0279399515139962e+00 -1.7862142858641446e+05 4.2000000000000000e+03 1.6713278576833632e+00 1.4424959848232998e+01 5.6321299885830953e+01 
690 292 2 1.0280369009198025e+00 9.2375861001478406e+04 4.2000000000000000e+03 2.1653132530064139e+00 1.3630663634150425e+01 5.6490270131821049e+01 
618 220 2 1.0280004639094362e+00 5.3220536482933938e+04 4.2000000000000000e+03 2.9782980809926141e+00 1.3935234680943845e+01 5.6490148479902111e+01 
1166 768 2 1.0279194855866767e+00 -2.2043814428133817e+05 4.2000000000000000e+03 3.5017520150290378e+00 1.4299722422646163e+01 5.6483659460251772e+01 
979 581 2 1.0280250707495739e+00 -1.7090582390425657e+05 4.2000000000000000e+03 3.7810490279269899e+00 1.5550686052298621e+01 5.7238797629421832e+01 
1906 1508 2 1.0283111680835952e+00 -1.7280659493888797e+03 4.2000000000000000e+03 3.3058323901757309e+00 1.5689418510177571e+01 5.7288377977632130e+01 
1050 652 2 1.0278591342583405e+00 -6.7400801083825980e+04 4.2000000000000000e+03 2.6966433171512287e+00 1.5718948677430969e+01 5.7675737740173403e+01 
587 189 2 1.0281535616110062e+00 -8.9097893381875649e+04 4.2000000000000000e+03 3.2512502372612877e+00 1.8710485513663777e+01 5.8472715398986267e+01 
996 598 2 1.0280216164739091e+00 -3.9769120324210162e+04 4.2000000000000000e+03 4.9056908660841128e+00 1.3689386925569989e+01 5.9475758349959051e+01 
1402 1004 2 1.0281334149750727e+00 -5.1094795980139650e+04 4.2000000000000000e+03 9.7186176884200819e+00 1.6860361875174867e+01 5.3712204575266995e+01 