LAMMPS data file via write_data, version 30 Jul 2016, timestep = 600000

2080 atoms
8 atom types

0.0000000000000000e+00 4.0000000000000000e+01 xlo xhi
0.0000000000000000e+00 4.0000000000000000e+01 ylo yhi
0.0000000000000000e+00 1.0000000000000000e+02 zlo zhi

Masses

1 3.896
2 21.44
3 1058.08
4 8.378
5 8.378
6 8.378
7 8.378
8 8.378

Atoms # meso-molecular

1 2 4 2.2559723595316457e+00 1.4448003008390682e+01 4.2000000000000000e+03 0.0000000000000000e+00 0.0000000000000000e+00 2.5000000000000000e+00 
2 2 4 2.2559723595316457e+00 1.1230962341687793e+01 4.2000000000000000e+03 0.0000000000000000e+00 2.0000000000000000e+00 2.5000000000000000e+00 
3 2 4 2.2559723595316457e+00 4.3609678686845186e+00 4.2000000000000000e+03 0.0000000000000000e+00 4.0000000000000000e+00 2.5000000000000000e+00 
4 2 4 2.2559723595316457e+00 -2.8149877384473601e+00 4.2000000000000000e+03 0.0000000000000000e+00 6.0000000000000000e+00 2.5000000000000000e+00 
21 2 4 2.2559723595316457e+00 1.0535249421974790e+01 4.2000000000000000e+03 2.0000000000000000e+00 0.0000000000000000e+00 2.5000000000000000e+00 
22 2 4 2.2559723595316457e+00 2.0092946908777432e+01 4.2000000000000000e+03 2.0000000000000000e+00 2.0000000000000000e+00 2.5000000000000000e+00 
23 2 4 2.2559723595316457e+00 2.4135467615947128e+01 4.2000000000000000e+03 2.0000000000000000e+00 4.0000000000000000e+00 2.5000000000000000e+00 
24 2 4 2.2559723595316457e+00 1.6013595216334160e+01 4.2000000000000000e+03 2.0000000000000000e+00 6.0000000000000000e+00 2.5000000000000000e+00 
41 2 4 2.2559723595316457e+00 1.8033500747200407e+01 4.2000000000000000e+03 4.0000000000000000e+00 0.0000000000000000e+00 2.5000000000000000e+00 
42 2 4 2.2559723595316457e+00 4.1325690725352985e+01 4.2000000000000000e+03 4.0000000000000000e+00 2.0000000000000000e+00 2.5000000000000000e+00 
43 2 4 2.2559723595316457e+00 5.6207518320042524e+01 4.2000000000000000e+03 4.0000000000000000e+00 4.0000000000000000e+00 2.5000000000000000e+00 
44 2 4 2.2559723595316457e+00 4.2076409298544405e+01 4.2000000000000000e+03 4.0000000000000000e+00 6.0000000000000000e+00 2.5000000000000000e+00 
61 2 4 2.2559723595316457e+00 3.2639471145487718e+01 4.2000000000000000e+03 6.0000000000000000e+00 0.0000000000000000e+00 2.5000000000000000e+00 
62 2 4 2.2559723595316457e+00 6.8397680034117869e+01 4.2000000000000000e+03 6.0000000000000000e+00 2.0000000000000000e+00 2.5000000000000000e+00 
63 2 4 2.2559723595316457e+00 9.5775145892199561e+01 4.2000000000000000e+03 6.0000000000000000e+00 4.0000000000000000e+00 2.5000000000000000e+00 
64 2 4 2.2559723595316457e+00 7.4368631217176713e+01 4.2000000000000000e+03 6.0000000000000000e+00 6.0000000000000000e+00 2.5000000000000000e+00 
81 2 4 2.2559723595316457e+00 4.2161731757422416e+01 4.2000000000000000e+03 8.0000000000000000e+00 0.0000000000000000e+00 2.5000000000000000e+00 
82 2 4 2.2559723595316457e+00 7.9714452931342976e+01 4.2000000000000000e+03 8.0000000000000000e+00 2.0000000000000000e+00 2.5000000000000000e+00 
83 2 4 2.2559723595316457e+00 1.1494238645459578e+02 4.2000000000000000e+03 8.0000000000000000e+00 4.0000000000000000e+00 2.5000000000000000e+00 
84 2 4 2.2559723595316457e+00 1.0190904577882905e+02 4.2000000000000000e+03 8.0000000000000000e+00 6.0000000000000000e+00 2.5000000000000000e+00 
101 2 4 2.2559723595316457e+00 3.4679952398094059e+01 4.2000000000000000e+03 1.0000000000000000e+01 0.0000000000000000e+00 2.5000000000000000e+00 
102 2 4 2.2559723595316457e+00 6.2883711107935028e+01 4.2000000000000000e+03 1.0000000000000000e+01 2.0000000000000000e+00 2.5000000000000000e+00 
103 2 4 2.2559723595316457e+00 1.0495103302235856e+02 4.2000000000000000e+03 1.0000000000000000e+01 4.0000000000000000e+00 2.5000000000000000e+00 
104 2 4 2.2559723595316457e+00 -3.7487422373300063e+01 4.2000000000000000e+03 1.0000000000000000e+01 6.0000000000000000e+00 2.5000000000000000e+00 
121 2 4 2.2559723595316457e+00 2.0726203055162969e+01 4.2000000000000000e+03 1.2000000000000000e+01 0.0000000000000000e+00 2.5000000000000000e+00 
122 2 4 2.2559723595316457e+00 5.4558149817630763e+01 4.2000000000000000e+03 1.2000000000000000e+01 2.0000000000000000e+00 2.5000000000000000e+00 
123 2 4 2.2559723595316457e+00 -3.1655712920723462e+00 4.2000000000000000e+03 1.2000000000000000e+01 4.0000000000000000e+00 2.5000000000000000e+00 
124 2 4 2.2559723595316457e+00 -1.0881078396744992e+03 4.2000000000000000e+03 1.2000000000000000e+01 6.0000000000000000e+00 2.5000000000000000e+00 
141 2 4 2.2559723595316457e+00 1.2856249791456090e+01 4.2000000000000000e+03 1.4000000000000000e+01 0.0000000000000000e+00 2.5000000000000000e+00 
142 2 4 2.2559723595316457e+00 8.1109501208283064e+01 4.2000000000000000e+03 1.4000000000000000e+01 2.0000000000000000e+00 2.5000000000000000e+00 
143 2 4 2.2559723595316457e+00 -4.3593498147017465e+02 4.2000000000000000e+03 1.4000000000000000e+01 4.0000000000000000e+00 2.5000000000000000e+00 
144 2 4 2.2559723595316457e+00 -3.7418109840817006e+03 4.2000000000000000e+03 1.4000000000000000e+01 6.0000000000000000e+00 2.5000000000000000e+00 
161 2 4 2.2559723595316457e+00 4.3325095876654824e+00 4.2000000000000000e+03 1.6000000000000000e+01 0.0000000000000000e+00 2.5000000000000000e+00 
162 2 4 2.2559723595316457e+00 6.5241979563803454e+01 4.2000000000000000e+03 1.6000000000000000e+01 2.0000000000000000e+00 2.5000000000000000e+00 
163 2 4 2.2559723595316457e+00 -1.1742835974035070e+03 4.2000000000000000e+03 1.6000000000000000e+01 4.0000000000000000e+00 2.5000000000000000e+00 
164 2 4 2.2559723595316457e+00 -7.4478370906675937e+03 4.2000000000000000e+03 1.6000000000000000e+01 6.0000000000000000e+00 2.5000000000000000e+00 
181 2 4 2.2559723595316457e+00 -1.5921606348617253e+01 4.2000000000000000e+03 1.8000000000000000e+01 0.0000000000000000e+00 2.5000000000000000e+00 
182 2 4 2.2559723595316457e+00 -4.6580773438338028e+00 4.2000000000000000e+03 1.8000000000000000e+01 2.0000000000000000e+00 2.5000000000000000e+00 
183 2 4 2.2559723595316457e+00 -1.7910948525928293e+03 4.2000000000000000e+03 1.8000000000000000e+01 4.0000000000000000e+00 2.5000000000000000e+00 
184 2 4 2.2559723595316457e+00 -1.0304177011307540e+04 4.2000000000000000e+03 1.8000000000000000e+01 6.0000000000000000e+00 2.5000000000000000e+00 
5 2 4 2.2559723595316457e+00 -6.2440222470954545e+00 4.2000000000000000e+03 0.0000000000000000e+00 8.0000000000000000e+00 2.5000000000000000e+00 
6 2 4 2.2559723595316457e+00 -4.1465966506135121e+00 4.2000000000000000e+03 0.0000000000000000e+00 1.0000000000000000e+01 2.5000000000000000e+00 
7 2 4 2.2559723595316457e+00 -9.1983814527005303e-01 4.2000000000000000e+03 0.0000000000000000e+00 1.2000000000000000e+01 2.5000000000000000e+00 
25 2 4 2.2559723595316457e+00 2.7383800180178408e+00 4.2000000000000000e+03 2.0000000000000000e+00 8.0000000000000000e+00 2.5000000000000000e+00 
26 2 4 2.2559723595316457e+00 -1.7439190760071359e+00 4.2000000000000000e+03 2.0000000000000000e+00 1.0000000000000000e+01 2.5000000000000000e+00 
27 2 4 2.2559723595316457e+00 -8.2353430787875248e-01 4.2000000000000000e+03 2.0000000000000000e+00 1.2000000000000000e+01 2.5000000000000000e+00 
45 2 4 2.2559723595316457e+00 1.0665572749563193e+01 4.2000000000000000e+03 4.0000000000000000e+00 8.0000000000000000e+00 2.5000000000000000e+00 
46 2 4 2.2559723595316457e+00 -5.6543124422524311e+00 4.2000000000000000e+03 4.0000000000000000e+00 1.0000000000000000e+01 2.5000000000000000e+00 
47 2 4 2.2559723595316457e+00 -2.7347281723381808e+01 4.2000000000000000e+03 4.0000000000000000e+00 1.2000000000000000e+01 2.5000000000000000e+00 
65 2 4 2.2559723595316457e+00 2.1979581851056949e+01 4.2000000000000000e+03 6.0000000000000000e+00 8.0000000000000000e+00 2.5000000000000000e+00 
66 2 4 2.2559723595316457e+00 -2.1210209972650560e+01 4.2000000000000000e+03 6.0000000000000000e+00 1.0000000000000000e+01 2.5000000000000000e+00 
67 2 4 2.2559723595316457e+00 -7.6798081566552781e+01 4.2000000000000000e+03 6.0000000000000000e+00 1.2000000000000000e+01 2.5000000000000000e+00 
85 2 4 2.2559723595316457e+00 3.6552946942525388e+01 4.2000000000000000e+03 8.0000000000000000e+00 8.0000000000000000e+00 2.5000000000000000e+00 
86 2 4 2.2559723595316457e+00 -4.1134579075191894e+01 4.2000000000000000e+03 8.0000000000000000e+00 1.0000000000000000e+01 2.5000000000000000e+00 
87 2 4 2.2559723595316457e+00 -1.1335519855973948e+02 4.2000000000000000e+03 8.0000000000000000e+00 1.2000000000000000e+01 2.5000000000000000e+00 
105 2 4 2.2559723595316457e+00 -6.1203951514889445e+02 4.2000000000000000e+03 1.0000000000000000e+01 8.0000000000000000e+00 2.5000000000000000e+00 
106 2 4 2.2559723595316457e+00 -1.3878110521356055e+03 4.2000000000000000e+03 1.0000000000000000e+01 1.0000000000000000e+01 2.5000000000000000e+00 
107 2 4 2.2559723595316457e+00 -1.9179128954705488e+03 4.2000000000000000e+03 1.0000000000000000e+01 1.2000000000000000e+01 2.5000000000000000e+00 
125 2 4 2.2559723595316457e+00 -3.9196832094295332e+03 4.2000000000000000e+03 1.2000000000000000e+01 8.0000000000000000e+00 2.5000000000000000e+00 
126 2 4 2.2559723595316457e+00 -7.6234878568107479e+03 4.2000000000000000e+03 1.2000000000000000e+01 1.0000000000000000e+01 2.5000000000000000e+00 
127 2 4 2.2559723595316457e+00 -1.0391510124071739e+04 4.2000000000000000e+03 1.2000000000000000e+01 1.2000000000000000e+01 2.5000000000000000e+00 
145 2 4 2.2559723595316457e+00 -1.1321309318439917e+04 4.2000000000000000e+03 1.4000000000000000e+01 8.0000000000000000e+00 2.5000000000000000e+00 
146 2 4 2.2559723595316457e+00 -2.1421377433597401e+04 4.2000000000000000e+03 1.4000000000000000e+01 1.0000000000000000e+01 2.5000000000000000e+00 
147 2 4 2.2559723595316457e+00 -2.9708597284654490e+04 4.2000000000000000e+03 1.4000000000000000e+01 1.2000000000000000e+01 2.5000000000000000e+00 
165 2 4 2.2559723595316457e+00 -2.1424153672867604e+04 4.2000000000000000e+03 1.6000000000000000e+01 8.0000000000000000e+00 2.5000000000000000e+00 
166 2 4 2.2559723595316457e+00 -4.0765216779208553e+04 4.2000000000000000e+03 1.6000000000000000e+01 1.0000000000000000e+01 2.5000000000000000e+00 
167 2 4 2.2559723595316457e+00 -5.7810707989981180e+04 4.2000000000000000e+03 1.6000000000000000e+01 1.2000000000000000e+01 2.5000000000000000e+00 
185 2 4 2.2559723595316457e+00 -2.9224395595883281e+04 4.2000000000000000e+03 1.8000000000000000e+01 8.0000000000000000e+00 2.5000000000000000e+00 
186 2 4 2.2559723595316457e+00 -5.6098528578206977e+04 4.2000000000000000e+03 1.8000000000000000e+01 1.0000000000000000e+01 2.5000000000000000e+00 
187 2 4 2.2559723595316457e+00 -8.0778461547365558e+04 4.2000000000000000e+03 1.8000000000000000e+01 1.2000000000000000e+01 2.5000000000000000e+00 
8 2 4 2.2559723595316457e+00 8.4465425323668242e-02 4.2000000000000000e+03 0.0000000000000000e+00 1.4000000000000000e+01 2.5000000000000000e+00 
9 2 4 2.2559723595316457e+00 -5.7037156356309771e-01 4.2000000000000000e+03 0.0000000000000000e+00 1.6000000000000000e+01 2.5000000000000000e+00 
10 2 4 2.2559723595316457e+00 -5.6313656509940024e+00 4.2000000000000000e+03 0.0000000000000000e+00 1.8000000000000000e+01 2.5000000000000000e+00 
28 2 4 2.2559723595316457e+00 -6.7559285964097242e+00 4.2000000000000000e+03 2.0000000000000000e+00 1.4000000000000000e+01 2.5000000000000000e+00 
29 2 4 2.2559723595316457e+00 -2.6057478057669826e+01 4.2000000000000000e+03 2.0000000000000000e+00 1.6000000000000000e+01 2.5000000000000000e+00 
30 2 4 2.2559723595316457e+00 -5.2458755100106160e+01 4.2000000000000000e+03 2.0000000000000000e+00 1.8000000000000000e+01 2.5000000000000000e+00 
48 2 4 2.2559723595316457e+00 -7.8929616731208824e+01 4.2000000000000000e+03 4.0000000000000000e+00 1.4000000000000000e+01 2.5000000000000000e+00 
49 2 4 2.2559723595316457e+00 -1.5578308413042669e+02 4.2000000000000000e+03 4.0000000000000000e+00 1.6000000000000000e+01 2.5000000000000000e+00 
50 2 4 2.2559723595316457e+00 -2.1391188647607603e+02 4.2000000000000000e+03 4.0000000000000000e+00 1.8000000000000000e+01 2.5000000000000000e+00 
68 2 4 2.2559723595316457e+00 -1.7887323195246586e+02 4.2000000000000000e+03 6.0000000000000000e+00 1.4000000000000000e+01 2.5000000000000000e+00 
69 2 4 2.2559723595316457e+00 -3.1301258139133085e+02 4.2000000000000000e+03 6.0000000000000000e+00 1.6000000000000000e+01 2.5000000000000000e+00 
70 2 4 2.2559723595316457e+00 -3.9285219497782714e+02 4.2000000000000000e+03 6.0000000000000000e+00 1.8000000000000000e+01 2.5000000000000000e+00 
88 2 4 2.2559723595316457e+00 -2.2393997827688889e+02 4.2000000000000000e+03 8.0000000000000000e+00 1.4000000000000000e+01 2.5000000000000000e+00 
89 2 4 2.2559723595316457e+00 -3.7242594121777643e+02 4.2000000000000000e+03 8.0000000000000000e+00 1.6000000000000000e+01 2.5000000000000000e+00 
90 2 4 2.2559723595316457e+00 -4.6014989219123561e+02 4.2000000000000000e+03 8.0000000000000000e+00 1.8000000000000000e+01 2.5000000000000000e+00 
108 2 4 2.2559723595316457e+00 -2.1150177922819375e+03 4.2000000000000000e+03 1.0000000000000000e+01 1.4000000000000000e+01 2.5000000000000000e+00 
109 2 4 2.2559723595316457e+00 -2.2062121798268645e+03 4.2000000000000000e+03 1.0000000000000000e+01 1.6000000000000000e+01 2.5000000000000000e+00 
110 2 4 2.2559723595316457e+00 -2.2669828355112909e+03 4.2000000000000000e+03 1.0000000000000000e+01 1.8000000000000000e+01 2.5000000000000000e+00 
128 2 4 2.2559723595316457e+00 -1.1472481693051624e+04 4.2000000000000000e+03 1.2000000000000000e+01 1.4000000000000000e+01 2.5000000000000000e+00 
129 2 4 2.2559723595316457e+00 -1.1569656578288743e+04 4.2000000000000000e+03 1.2000000000000000e+01 1.6000000000000000e+01 2.5000000000000000e+00 
130 2 4 2.2559723595316457e+00 -1.1544523141397782e+04 4.2000000000000000e+03 1.2000000000000000e+01 1.8000000000000000e+01 2.5000000000000000e+00 
148 2 4 2.2559723595316457e+00 -3.3551943055037591e+04 4.2000000000000000e+03 1.4000000000000000e+01 1.4000000000000000e+01 2.5000000000000000e+00 
149 2 4 2.2559723595316457e+00 -3.4152948535571326e+04 4.2000000000000000e+03 1.4000000000000000e+01 1.6000000000000000e+01 2.5000000000000000e+00 
150 2 4 2.2559723595316457e+00 -3.4016418447022406e+04 4.2000000000000000e+03 1.4000000000000000e+01 1.8000000000000000e+01 2.5000000000000000e+00 
168 2 4 2.2559723595316457e+00 -6.6530347963401611e+04 4.2000000000000000e+03 1.6000000000000000e+01 1.4000000000000000e+01 2.5000000000000000e+00 
169 2 4 2.2559723595316457e+00 -6.8320934381701867e+04 4.2000000000000000e+03 1.6000000000000000e+01 1.6000000000000000e+01 2.5000000000000000e+00 
170 2 4 2.2559723595316457e+00 -6.8149333483486917e+04 4.2000000000000000e+03 1.6000000000000000e+01 1.8000000000000000e+01 2.5000000000000000e+00 
188 2 4 2.2559723595316457e+00 -9.3986237382567080e+04 4.2000000000000000e+03 1.8000000000000000e+01 1.4000000000000000e+01 2.5000000000000000e+00 
189 2 4 2.2559723595316457e+00 -9.6926797458702349e+04 4.2000000000000000e+03 1.8000000000000000e+01 1.6000000000000000e+01 2.5000000000000000e+00 
190 2 4 2.2559723595316457e+00 -9.6757374241618440e+04 4.2000000000000000e+03 1.8000000000000000e+01 1.8000000000000000e+01 2.5000000000000000e+00 
1501 1103 2 1.0283216426896578e+00 -3.9773836536192961e+04 4.2000000000000000e+03 1.0426146963071916e+00 4.6445519759078806e+00 7.1304121926165266e+01 
1703 1305 2 1.0275904635553068e+00 2.4710297054007191e+04 4.2000000000000000e+03 2.7137693954776498e+00 1.0167299658436519e+00 7.1095939245320679e+01 
514 116 2 1.0277667951835781e+00 -3.7018046292417828e+04 4.2000000000000000e+03 2.9212435461459907e+00 1.5520527234036310e+00 7.0896011475950132e+01 
1887 1489 2 1.0278068516735031e+00 -1.4055526428792693e+05 4.2000000000000000e+03 3.1839572923125443e+00 1.9691793735807861e+00 7.0664193950002925e+01 
2032 1634 2 1.0282071837338829e+00 2.9673460641611461e+05 4.2000000000000000e+03 2.5199281347055282e+00 5.4647253136343421e+00 7.0232076328270907e+01 
1673 1275 2 1.0278505362925978e+00 5.0827710838832965e+04 4.2000000000000000e+03 4.1006098028998501e+00 3.3813710184793124e+00 6.9992584911516943e+01 
1049 651 2 1.0276564055609332e+00 -7.0784505422267233e+04 4.2000000000000000e+03 5.1738990579635642e+00 1.5167715761997584e+00 6.9746377073855342e+01 
1722 1324 2 1.0278499269656451e+00 -1.7489247967466974e+05 4.2000000000000000e+03 4.6833255373005462e+00 3.5925836916896432e+00 6.9701227792298127e+01 
1366 968 2 1.0275910937226507e+00 -2.4762563278661628e+05 4.2000000000000000e+03 6.4844545275152772e+00 9.8404685956578741e-01 6.9603714877433504e+01 
663 265 2 1.0280592556457959e+00 -1.1782491758703356e+04 4.2000000000000000e+03 3.9504155069304656e+00 5.7814894061588182e+00 6.9530282886818554e+01 
1372 974 2 1.0276709695113782e+00 1.5729517932694553e+04 4.2000000000000000e+03 6.5300413131376498e+00 1.9009836023842941e+00 6.9471215163027694e+01 
657 259 2 1.0278798021110751e+00 1.9185368946306407e+04 4.2000000000000000e+03 5.6071039660802748e+00 3.4526352537320713e+00 6.9444107406124544e+01 
1468 1070 2 1.0277349542135816e+00 5.1022616748234475e+04 4.2000000000000000e+03 6.6082320053362489e+00 2.3482795405642003e+00 6.9420946345913748e+01 
1458 1060 2 1.0282912163503108e+00 -2.6625474162266008e+05 4.2000000000000000e+03 8.8513699508521650e+00 5.3114324479918995e+00 7.1874493789039533e+01 
2004 1606 2 1.0279605606521758e+00 2.1297473140445558e+05 4.2000000000000000e+03 1.2857860587553903e+01 1.4634815549474531e+00 7.0080352288921191e+01 
681 283 2 1.0276858256453301e+00 1.1813463969705373e+05 4.2000000000000000e+03 8.5673803488524829e+00 1.4083044983480617e-01 6.9787081627949917e+01 
1320 922 2 1.0280523673492989e+00 -4.8768668140678128e+04 4.2000000000000000e+03 1.2155869720407118e+01 2.0683774828721826e+00 6.9772442430828690e+01 
1713 1315 2 1.0276937445210972e+00 6.3676054689782973e+02 4.2000000000000000e+03 9.0002042067168215e+00 5.7539446042431841e-01 6.9735506594218975e+01 
1710 1312 2 1.0276031952249824e+00 -9.6518507439584180e+04 4.2000000000000000e+03 6.8728108962301429e+00 5.3344762720565264e-01 6.9655005608391704e+01 
1048 650 2 1.0278630274064908e+00 1.7937524753058497e+02 4.2000000000000000e+03 8.9464002703759071e+00 1.1163524165544050e+00 6.9638605139092220e+01 
774 376 2 1.0283359048759213e+00 -1.4998807744220665e+05 4.2000000000000000e+03 1.0146614009411534e+01 5.2291962293045042e+00 6.9499140521479589e+01 
538 140 2 1.0281519549771343e+00 2.1723359440510827e+04 4.2000000000000000e+03 1.0362650999386839e+01 4.3170519247949954e+00 6.9445109422128539e+01 
508 110 2 1.0279053327406216e+00 1.5560501464827132e+05 4.2000000000000000e+03 8.1867992476488318e+00 2.8767671023484414e+00 6.9433975477377160e+01 
977 579 2 1.0282894303999985e+00 1.5592557392213972e+04 4.2000000000000000e+03 8.2513438414126075e+00 5.6710491033395503e+00 6.9405320297218097e+01 
896 498 2 1.0282613566072225e+00 3.8037097832281317e+04 4.2000000000000000e+03 7.4494905195032182e+00 6.6350688099217159e+00 6.9223322709841057e+01 
724 326 2 1.0282345239494661e+00 2.7478303617429693e+05 4.2000000000000000e+03 1.1439063321711377e+01 6.3590889768000007e+00 6.9211167557439936e+01 
935 537 2 1.0281710328100371e+00 -2.9328006365837599e+05 4.2000000000000000e+03 1.2101292230237023e+01 4.3035679636455342e+00 6.9152185246063382e+01 
552 154 2 1.0275991276213372e+00 1.5438862065465676e+05 4.2000000000000000e+03 1.5444599167037886e+01 4.0098209028899101e-01 7.1760010957967665e+01 
1763 1365 2 1.0279003289140514e+00 -9.2271882165272604e+04 4.2000000000000000e+03 1.6240797882823891e+01 2.9607421742047008e-01 7.1689593467713976e+01 
1843 1445 2 1.0278987052879600e+00 -1.2334640345644895e+04 4.2000000000000000e+03 1.9894244927948584e+01 1.5907639038747214e+00 7.0355055998127284e+01 
1435 1037 2 1.0278360431418647e+00 -2.1394308323072473e+05 4.2000000000000000e+03 1.9283675620561439e+01 1.8951348040334579e+00 7.0352475850539577e+01 
1205 807 2 1.0277840583984967e+00 -8.7964761857746606e+04 4.2000000000000000e+03 1.5468166672732933e+01 1.5589950077678543e+00 7.0324605831968739e+01 
678 280 2 1.0279321710496063e+00 8.2210504401855680e+04 4.2000000000000000e+03 1.8697606523886648e+01 2.5559261388063810e+00 7.0056236622397890e+01 
962 564 2 1.0279453594049430e+00 -2.5962319807740508e+05 4.2000000000000000e+03 1.3920197144117388e+01 1.9022301344269965e+00 6.9978685619317346e+01 
1759 1361 2 1.0279565601916987e+00 1.8378011486324453e+04 4.2000000000000000e+03 1.4940914322167085e+01 2.4278348731667911e+00 6.9810045738148929e+01 
1764 1366 2 1.0279948549601625e+00 2.3699841079715631e+05 4.2000000000000000e+03 1.8889467685917332e+01 3.2066508749763547e+00 6.9724611168750940e+01 
1773 1375 2 1.0278904077113624e+00 6.9765414659696544e+04 4.2000000000000000e+03 1.4360806432160675e+01 2.5928400151628259e+00 6.9674083841987596e+01 
1494 1096 2 1.0279330090016594e+00 -2.3522760159862746e+05 4.2000000000000000e+03 1.8514542869899778e+01 3.6288738044303894e+00 6.9580112922778042e+01 
1997 1599 2 1.0281147635464889e+00 1.9725820467895735e+05 4.2000000000000000e+03 1.5258718915788316e+01 6.6101146157326527e+00 6.8535799580091748e+01 
1303 905 2 1.0281984436048943e+00 -1.9049940370223214e+05 4.2000000000000000e+03 1.5153736834988573e+01 6.5023836089926714e+00 6.8527482128098711e+01 
1164 766 2 1.0282100374380061e+00 6.0407787035467874e+04 4.2000000000000000e+03 1.4542412308076068e+01 6.3960496208867257e+00 6.8495332999725562e+01 
703 305 2 1.0282103700287288e+00 1.7089518097071792e+04 4.2000000000000000e+03 1.4494527823475817e+01 6.5158718855221371e+00 6.8489991082568451e+01 
1112 714 2 1.0282968422813628e+00 -4.7227309566360091e+04 4.2000000000000000e+03 1.4714519149824103e+00 9.1155457181733581e+00 7.2969122202255321e+01 
1824 1426 2 1.0278663146464495e+00 1.2332379416510639e+04 4.2000000000000000e+03 6.0795222817275951e-01 1.2885960083656071e+01 7.0160589893133775e+01 
618 220 2 1.0280564725144381e+00 5.3208967004687278e+04 4.2000000000000000e+03 1.7253850151279304e+00 1.1996278745982298e+01 7.0130168497444814e+01 
690 292 2 1.0280550366886854e+00 9.2358555737269649e+04 4.2000000000000000e+03 9.7840647437253803e-01 1.1891352662672171e+01 7.0110281862444694e+01 
1878 1480 2 1.0281646218051754e+00 2.3406381834207987e+04 4.2000000000000000e+03 8.9249609449743406e-01 1.0683623729281356e+01 7.0017632202465251e+01 
1166 768 2 1.0281469933710123e+00 -2.2045766537216320e+05 4.2000000000000000e+03 3.3465182668115667e+00 1.2085683056647893e+01 6.9919568535893575e+01 
1060 662 2 1.0282494418929891e+00 1.8046470325942582e+05 4.2000000000000000e+03 2.2906484008337284e+00 6.8597782480588210e+00 6.9887052781080584e+01 
1874 1476 2 1.0281166268424617e+00 1.0439281679808823e+05 4.2000000000000000e+03 2.4321424929132216e+00 1.0670667675997267e+01 6.9622017256895361e+01 
1284 886 2 1.0283511287900811e+00 7.1774807436347284e+04 4.2000000000000000e+03 3.6739791709156866e+00 1.0590422448709393e+01 6.9286712844404661e+01 
1770 1372 2 1.0283898225407271e+00 1.1804967943763714e+05 4.2000000000000000e+03 3.6989380394847062e+00 7.8446822869537360e+00 6.9208342815441426e+01 
1264 866 2 1.0283126835169507e+00 -2.8137990007729804e+04 4.2000000000000000e+03 3.8237377097563177e+00 7.6308370386951703e+00 6.9201294585813912e+01 
1948 1550 2 1.0283228420883488e+00 1.8012851274352372e+05 4.2000000000000000e+03 4.4009477975214386e+00 1.0760153656214257e+01 6.9182685069888791e+01 
1640 1242 2 1.0283288483449238e+00 3.1213285812724727e+04 4.2000000000000000e+03 6.0072947277803381e+00 1.1339252732698258e+01 6.9136148368218883e+01 
439 41 2 1.0284691362513974e+00 5.4490154053564052e+04 4.2000000000000000e+03 6.3323744797700909e+00 7.4043246220380228e+00 6.8988708067040079e+01 
1010 612 2 1.0283552760959598e+00 -1.3752618220050712e+05 4.2000000000000000e+03 4.4000817263687013e+00 9.2751880716285999e+00 6.8985016319472109e+01 
719 321 2 1.0283026439674694e+00 7.1579072158540643e+04 4.2000000000000000e+03 4.5231470168134393e+00 9.2859092803408601e+00 6.8966313263732346e+01 
440 42 2 1.0282676521218865e+00 1.4200827791113863e+05 4.2000000000000000e+03 4.5985690786514910e+00 8.7278850687978160e+00 6.8950569014341340e+01 
954 556 2 1.0282616301950576e+00 -2.6874858870774740e+05 4.2000000000000000e+03 5.0354942654643704e+00 8.1257378724192648e+00 6.8924052945760621e+01 
1200 802 2 1.0284193656365805e+00 4.9149099008531630e+02 4.2000000000000000e+03 9.9975495736031608e+00 1.0871525357104820e+01 7.2018081852519259e+01 
1486 1088 2 1.0282712181136300e+00 -2.0013484314853334e+05 4.2000000000000000e+03 1.1530055159950898e+01 7.6506735417952854e+00 7.0472632284396425e+01 
992 594 2 1.0284186823096446e+00 -5.9226220525463898e+04 4.2000000000000000e+03 1.0047335280295675e+01 9.0000775547616669e+00 7.0139395329574640e+01 
908 510 2 1.0284772475573132e+00 7.2677243998641206e+04 4.2000000000000000e+03 1.1824535612709395e+01 9.1168287449491228e+00 6.9598488952736190e+01 
1484 1086 2 1.0284387134228914e+00 1.3861955280564582e+04 4.2000000000000000e+03 8.7063494004276727e+00 6.9219157566798231e+00 6.9608142545773404e+01 
1436 1038 2 1.0284150362179365e+00 9.7222163611241500e+04 4.2000000000000000e+03 1.0330048618665730e+01 1.0291516239143682e+01 6.9549712764505486e+01 
603 205 2 1.0285011618286866e+00 -3.9070025475374336e+04 4.2000000000000000e+03 1.2188276745086430e+01 9.3602435574855836e+00 6.9517006169554435e+01 
1387 989 2 1.0283821442698764e+00 -8.6853834127327631e+04 4.2000000000000000e+03 1.2801184584298488e+01 9.7662848667516808e+00 6.9517222238800173e+01 
782 384 2 1.0283772362580550e+00 5.5263119937199233e+04 4.2000000000000000e+03 8.7211313112841538e+00 1.1438802693235715e+01 6.9178031569031063e+01 
1047 649 2 1.0283923357163443e+00 -1.0023923183803937e+05 4.2000000000000000e+03 6.9311837092442063e+00 8.4273713031924160e+00 6.9080875811539585e+01 
1027 629 2 1.0283202875667803e+00 1.0395956968708036e+02 4.2000000000000000e+03 6.9009320910800094e+00 1.0013582991141213e+01 6.9061045022652564e+01 
969 571 2 1.0281939931532471e+00 1.0999555598341645e+05 4.2000000000000000e+03 9.4746806136420858e+00 1.2598582577331729e+01 6.9048021212504239e+01 
1156 758 2 1.0281541270419938e+00 -1.0630688297202385e+04 4.2000000000000000e+03 9.0303430287747677e+00 1.3275039726097519e+01 6.9035827384552519e+01 
531 133 2 1.0282378551396070e+00 -6.5184588018745198e+04 4.2000000000000000e+03 1.4966476889798436e+01 6.6667472507369911e+00 6.8509339242501213e+01 
1446 1048 2 1.0279028558608245e+00 -1.8981441855576882e+05 4.2000000000000000e+03 1.9838369866268376e+01 6.6703103836894453e+00 7.0356354483493419e+01 
2073 1675 2 1.0281727956048876e+00 9.2429888818491192e+04 4.2000000000000000e+03 1.5341265043345786e+01 6.6742233642601967e+00 6.8546289073614332e+01 
1379 981 2 1.0282807687119921e+00 -1.7404123510230743e+05 4.2000000000000000e+03 1.8002050501439545e+01 1.1832253912564914e+01 7.1340695768374616e+01 
1738 1340 2 1.0283155095148060e+00 -1.2975230056296647e+04 4.2000000000000000e+03 1.4185214424664476e+01 1.2483955297536291e+01 7.0939991756015559e+01 
1082 684 2 1.0281212550545913e+00 -2.8378692780672209e+04 4.2000000000000000e+03 1.9144755193870527e+01 8.0135724242082951e+00 7.0421281806792081e+01 
1128 730 2 1.0282743641638299e+00 -1.3798284278016354e+05 4.2000000000000000e+03 1.6473097013469552e+01 1.1374089432999487e+01 7.0225882904668694e+01 
713 315 2 1.0281561000865260e+00 5.9985116799377342e+04 4.2000000000000000e+03 1.6998486039655120e+01 1.2857807401092282e+01 6.9914422436318375e+01 
1298 900 2 1.0281739161002372e+00 -1.5894491740187255e+05 4.2000000000000000e+03 1.3947213794706897e+01 1.2786657895252503e+01 6.9915351654772707e+01 
516 118 2 1.0280868872406446e+00 2.2588432433860496e+05 4.2000000000000000e+03 1.7484039792532442e+01 1.3296955977093646e+01 6.9606071356769817e+01 
1930 1532 2 1.0281734116620578e+00 2.1178366370627852e+05 4.2000000000000000e+03 1.7672351514594954e+01 1.2620831959703294e+01 6.9234434441955543e+01 
914 516 2 1.0280237269476122e+00 -1.1952021692747399e+05 4.2000000000000000e+03 1.8806720725187517e+01 7.4738728331236546e+00 6.9104177897492661e+01 
2060 1662 2 1.0282354633329422e+00 8.5418902136385790e+04 4.2000000000000000e+03 1.5355393274254219e+01 7.3561421719978926e+00 6.8595226284329797e+01 
843 445 2 1.0282220486008129e+00 -1.5584198669720447e+05 4.2000000000000000e+03 1.5353169790200187e+01 7.3282508514080611e+00 6.8591251311952263e+01 
1272 874 2 1.0282653540911542e+00 -1.3306140451972038e+05 4.2000000000000000e+03 1.5348927304449345e+01 7.2457230487420867e+00 6.8581716985231381e+01 
1333 935 2 1.0281605824019746e+00 5.2156002284968345e+04 4.2000000000000000e+03 1.8961358319846667e+01 1.0324309768786152e+01 6.8563074037169869e+01 
1641 1243 2 1.0281938062306095e+00 9.5272874152965262e+04 4.2000000000000000e+03 1.5436158451167751e+01 6.7624842941440528e+00 6.8559876633851204e+01 
816 418 2 1.0282237251401010e+00 2.8801322618284698e+03 4.2000000000000000e+03 1.5291769124073213e+01 6.9357500952766333e+00 6.8548891049514580e+01 
989 591 2 1.0283230695332992e+00 -6.0635007913944180e+04 4.2000000000000000e+03 1.4506840260472121e+01 6.8297796903216446e+00 6.8492842237532074e+01 
1152 754 2 1.0281273094636330e+00 -4.7542071169056449e+04 4.2000000000000000e+03 2.7141940033967953e+00 1.9087788904417273e+01 7.3120289965640254e+01 
844 446 2 1.0279451387449836e+00 1.0695129760761185e+05 4.2000000000000000e+03 1.2858711227311670e+00 1.9285515638963385e+01 7.2848570007027462e+01 
1532 1134 2 1.0281929895931829e+00 -6.2988828135226504e+04 4.2000000000000000e+03 6.3865271648777266e+00 1.8791166270490788e+01 7.2756264398918688e+01 
1969 1571 2 1.0278900145216148e+00 7.1928385198549469e+04 4.2000000000000000e+03 7.4680330784466920e-01 1.8325587835678551e+01 7.2129370110378233e+01 
1327 929 2 1.0280532203617156e+00 -1.7860244421422179e+05 4.2000000000000000e+03 2.7354270350658654e+00 1.5887483893161146e+01 7.2067843928135176e+01 
1243 845 2 1.0281185650297890e+00 1.2142165610084703e+05 4.2000000000000000e+03 3.0702900491505556e+00 1.5744305486204524e+01 7.2078244324709644e+01 
1355 957 2 1.0279778211938539e+00 -3.7788479560438638e+04 4.2000000000000000e+03 4.5938392936824429e-01 1.7777057712422224e+01 7.1612787504043609e+01 