LAMMPS data file via write_data, version 30 Jul 2016, timestep = 1000000

2080 atoms
8 atom types

0.0000000000000000e+00 4.0000000000000000e+01 xlo xhi
0.0000000000000000e+00 4.0000000000000000e+01 ylo yhi
0.0000000000000000e+00 1.0000000000000000e+02 zlo zhi

Masses

1 3.896
2 16.08
3 1058.08
4 8.378
5 8.378
6 8.378
7 8.378
8 8.378

Atoms # meso-molecular

1 2 4 2.2559723595316457e+00 4.9475279177197663e+03 4.2000000000000000e+03 0.0000000000000000e+00 0.0000000000000000e+00 2.5000000000000000e+00 
21 2 4 2.2559723595316457e+00 8.6344982119384804e+03 4.2000000000000000e+03 2.0000000000000000e+00 0.0000000000000000e+00 2.5000000000000000e+00 
41 2 4 2.2559723595316457e+00 4.5445349506706007e+03 4.2000000000000000e+03 4.0000000000000000e+00 0.0000000000000000e+00 2.5000000000000000e+00 
61 2 4 2.2559723595316457e+00 -2.2429131251192543e+03 4.2000000000000000e+03 6.0000000000000000e+00 0.0000000000000000e+00 2.5000000000000000e+00 
81 2 4 2.2559723595316457e+00 3.5355703348492748e+03 4.2000000000000000e+03 8.0000000000000000e+00 0.0000000000000000e+00 2.5000000000000000e+00 
101 2 4 2.2559723595316457e+00 1.1490590350479273e+04 4.2000000000000000e+03 1.0000000000000000e+01 0.0000000000000000e+00 2.5000000000000000e+00 
121 2 4 2.2559723595316457e+00 -1.1610320509359815e+04 4.2000000000000000e+03 1.2000000000000000e+01 0.0000000000000000e+00 2.5000000000000000e+00 
141 2 4 2.2559723595316457e+00 1.3922684009267157e+04 4.2000000000000000e+03 1.4000000000000000e+01 0.0000000000000000e+00 2.5000000000000000e+00 
161 2 4 2.2559723595316457e+00 1.7719646379829842e+03 4.2000000000000000e+03 1.6000000000000000e+01 0.0000000000000000e+00 2.5000000000000000e+00 
181 2 4 2.2559723595316457e+00 4.6361925629803027e+03 4.2000000000000000e+03 1.8000000000000000e+01 0.0000000000000000e+00 2.5000000000000000e+00 
2 2 4 2.2559723595316457e+00 -3.5952688181607795e+02 4.2000000000000000e+03 0.0000000000000000e+00 2.0000000000000000e+00 2.5000000000000000e+00 
22 2 4 2.2559723595316457e+00 4.3751973200899083e+03 4.2000000000000000e+03 2.0000000000000000e+00 2.0000000000000000e+00 2.5000000000000000e+00 
42 2 4 2.2559723595316457e+00 2.2002883067635084e+03 4.2000000000000000e+03 4.0000000000000000e+00 2.0000000000000000e+00 2.5000000000000000e+00 
62 2 4 2.2559723595316457e+00 5.5709049369755703e+03 4.2000000000000000e+03 6.0000000000000000e+00 2.0000000000000000e+00 2.5000000000000000e+00 
82 2 4 2.2559723595316457e+00 -1.3375139101772008e+03 4.2000000000000000e+03 8.0000000000000000e+00 2.0000000000000000e+00 2.5000000000000000e+00 
102 2 4 2.2559723595316457e+00 6.0123493068140633e+03 4.2000000000000000e+03 1.0000000000000000e+01 2.0000000000000000e+00 2.5000000000000000e+00 
122 2 4 2.2559723595316457e+00 1.4662573779882207e+03 4.2000000000000000e+03 1.2000000000000000e+01 2.0000000000000000e+00 2.5000000000000000e+00 
142 2 4 2.2559723595316457e+00 1.3261892253312759e+04 4.2000000000000000e+03 1.4000000000000000e+01 2.0000000000000000e+00 2.5000000000000000e+00 
162 2 4 2.2559723595316457e+00 -2.4715560066163512e+03 4.2000000000000000e+03 1.6000000000000000e+01 2.0000000000000000e+00 2.5000000000000000e+00 
182 2 4 2.2559723595316457e+00 -5.9366000487412930e+03 4.2000000000000000e+03 1.8000000000000000e+01 2.0000000000000000e+00 2.5000000000000000e+00 
3 2 4 2.2559723595316457e+00 1.8171060261598564e+03 4.2000000000000000e+03 0.0000000000000000e+00 4.0000000000000000e+00 2.5000000000000000e+00 
23 2 4 2.2559723595316457e+00 3.6411315310645887e+03 4.2000000000000000e+03 2.0000000000000000e+00 4.0000000000000000e+00 2.5000000000000000e+00 
43 2 4 2.2559723595316457e+00 7.3483032966161700e+03 4.2000000000000000e+03 4.0000000000000000e+00 4.0000000000000000e+00 2.5000000000000000e+00 
63 2 4 2.2559723595316457e+00 -1.4845853719244760e+03 4.2000000000000000e+03 6.0000000000000000e+00 4.0000000000000000e+00 2.5000000000000000e+00 
83 2 4 2.2559723595316457e+00 -2.3137109969572307e+03 4.2000000000000000e+03 8.0000000000000000e+00 4.0000000000000000e+00 2.5000000000000000e+00 
103 2 4 2.2559723595316457e+00 6.3709487596088570e+02 4.2000000000000000e+03 1.0000000000000000e+01 4.0000000000000000e+00 2.5000000000000000e+00 
123 2 4 2.2559723595316457e+00 3.9110590220498875e+02 4.2000000000000000e+03 1.2000000000000000e+01 4.0000000000000000e+00 2.5000000000000000e+00 
143 2 4 2.2559723595316457e+00 6.5742908016883143e+02 4.2000000000000000e+03 1.4000000000000000e+01 4.0000000000000000e+00 2.5000000000000000e+00 
163 2 4 2.2559723595316457e+00 5.1499556879948705e+02 4.2000000000000000e+03 1.6000000000000000e+01 4.0000000000000000e+00 2.5000000000000000e+00 
183 2 4 2.2559723595316457e+00 -2.1846876437241722e+03 4.2000000000000000e+03 1.8000000000000000e+01 4.0000000000000000e+00 2.5000000000000000e+00 
4 2 4 2.2559723595316457e+00 4.1138950661418821e+03 4.2000000000000000e+03 0.0000000000000000e+00 6.0000000000000000e+00 2.5000000000000000e+00 
24 2 4 2.2559723595316457e+00 2.4320373149464840e+03 4.2000000000000000e+03 2.0000000000000000e+00 6.0000000000000000e+00 2.5000000000000000e+00 
44 2 4 2.2559723595316457e+00 7.7751465346264990e+02 4.2000000000000000e+03 4.0000000000000000e+00 6.0000000000000000e+00 2.5000000000000000e+00 
64 2 4 2.2559723595316457e+00 -2.0112439844176206e+03 4.2000000000000000e+03 6.0000000000000000e+00 6.0000000000000000e+00 2.5000000000000000e+00 
84 2 4 2.2559723595316457e+00 -3.8536860143809790e+03 4.2000000000000000e+03 8.0000000000000000e+00 6.0000000000000000e+00 2.5000000000000000e+00 
104 2 4 2.2559723595316457e+00 5.5226162851850609e+02 4.2000000000000000e+03 1.0000000000000000e+01 6.0000000000000000e+00 2.5000000000000000e+00 
124 2 4 2.2559723595316457e+00 -5.9840289531581482e+02 4.2000000000000000e+03 1.2000000000000000e+01 6.0000000000000000e+00 2.5000000000000000e+00 
144 2 4 2.2559723595316457e+00 3.2832813314156369e+03 4.2000000000000000e+03 1.4000000000000000e+01 6.0000000000000000e+00 2.5000000000000000e+00 
164 2 4 2.2559723595316457e+00 3.7671431542236714e+03 4.2000000000000000e+03 1.6000000000000000e+01 6.0000000000000000e+00 2.5000000000000000e+00 
184 2 4 2.2559723595316457e+00 1.5788285492623763e+03 4.2000000000000000e+03 1.8000000000000000e+01 6.0000000000000000e+00 2.5000000000000000e+00 
5 2 4 2.2559723595316457e+00 7.3673633279543492e+03 4.2000000000000000e+03 0.0000000000000000e+00 8.0000000000000000e+00 2.5000000000000000e+00 
25 2 4 2.2559723595316457e+00 6.7186369945971874e+03 4.2000000000000000e+03 2.0000000000000000e+00 8.0000000000000000e+00 2.5000000000000000e+00 
45 2 4 2.2559723595316457e+00 2.3227979387018422e+03 4.2000000000000000e+03 4.0000000000000000e+00 8.0000000000000000e+00 2.5000000000000000e+00 
65 2 4 2.2559723595316457e+00 1.5412346688268362e+03 4.2000000000000000e+03 6.0000000000000000e+00 8.0000000000000000e+00 2.5000000000000000e+00 
85 2 4 2.2559723595316457e+00 3.9351273433399138e+03 4.2000000000000000e+03 8.0000000000000000e+00 8.0000000000000000e+00 2.5000000000000000e+00 
105 2 4 2.2559723595316457e+00 1.8550402737753925e+03 4.2000000000000000e+03 1.0000000000000000e+01 8.0000000000000000e+00 2.5000000000000000e+00 
125 2 4 2.2559723595316457e+00 2.7134080235894489e+03 4.2000000000000000e+03 1.2000000000000000e+01 8.0000000000000000e+00 2.5000000000000000e+00 
145 2 4 2.2559723595316457e+00 3.1604841323824885e+03 4.2000000000000000e+03 1.4000000000000000e+01 8.0000000000000000e+00 2.5000000000000000e+00 
165 2 4 2.2559723595316457e+00 -1.7771332563709791e+03 4.2000000000000000e+03 1.6000000000000000e+01 8.0000000000000000e+00 2.5000000000000000e+00 
185 2 4 2.2559723595316457e+00 1.8166032734400828e+03 4.2000000000000000e+03 1.8000000000000000e+01 8.0000000000000000e+00 2.5000000000000000e+00 
6 2 4 2.2559723595316457e+00 2.5633716307436935e+03 4.2000000000000000e+03 0.0000000000000000e+00 1.0000000000000000e+01 2.5000000000000000e+00 
26 2 4 2.2559723595316457e+00 2.9387738916661142e+03 4.2000000000000000e+03 2.0000000000000000e+00 1.0000000000000000e+01 2.5000000000000000e+00 
46 2 4 2.2559723595316457e+00 3.7434951798321054e+03 4.2000000000000000e+03 4.0000000000000000e+00 1.0000000000000000e+01 2.5000000000000000e+00 
66 2 4 2.2559723595316457e+00 -2.7363722313947059e+04 4.2000000000000000e+03 6.0000000000000000e+00 1.0000000000000000e+01 2.5000000000000000e+00 
86 2 4 2.2559723595316457e+00 -1.2432233717778897e+03 4.2000000000000000e+03 8.0000000000000000e+00 1.0000000000000000e+01 2.5000000000000000e+00 
106 2 4 2.2559723595316457e+00 -7.1625148485308068e+02 4.2000000000000000e+03 1.0000000000000000e+01 1.0000000000000000e+01 2.5000000000000000e+00 
126 2 4 2.2559723595316457e+00 1.4012757482936818e+03 4.2000000000000000e+03 1.2000000000000000e+01 1.0000000000000000e+01 2.5000000000000000e+00 
146 2 4 2.2559723595316457e+00 2.8743277717190276e+03 4.2000000000000000e+03 1.4000000000000000e+01 1.0000000000000000e+01 2.5000000000000000e+00 
166 2 4 2.2559723595316457e+00 4.7316664133678569e+03 4.2000000000000000e+03 1.6000000000000000e+01 1.0000000000000000e+01 2.5000000000000000e+00 
186 2 4 2.2559723595316457e+00 1.5409107298934930e+04 4.2000000000000000e+03 1.8000000000000000e+01 1.0000000000000000e+01 2.5000000000000000e+00 
7 2 4 2.2559723595316457e+00 1.0059222955797298e+03 4.2000000000000000e+03 0.0000000000000000e+00 1.2000000000000000e+01 2.5000000000000000e+00 
27 2 4 2.2559723595316457e+00 6.0266832447535455e+02 4.2000000000000000e+03 2.0000000000000000e+00 1.2000000000000000e+01 2.5000000000000000e+00 
47 2 4 2.2559723595316457e+00 2.8791382127689940e+03 4.2000000000000000e+03 4.0000000000000000e+00 1.2000000000000000e+01 2.5000000000000000e+00 
67 2 4 2.2559723595316457e+00 -9.2356444235201889e+03 4.2000000000000000e+03 6.0000000000000000e+00 1.2000000000000000e+01 2.5000000000000000e+00 
87 2 4 2.2559723595316457e+00 -1.7844065456923963e+03 4.2000000000000000e+03 8.0000000000000000e+00 1.2000000000000000e+01 2.5000000000000000e+00 
107 2 4 2.2559723595316457e+00 1.7037796039653658e+03 4.2000000000000000e+03 1.0000000000000000e+01 1.2000000000000000e+01 2.5000000000000000e+00 
127 2 4 2.2559723595316457e+00 3.1269258148566141e+03 4.2000000000000000e+03 1.2000000000000000e+01 1.2000000000000000e+01 2.5000000000000000e+00 
147 2 4 2.2560020297896761e+00 6.4684099943147894e+03 4.2000000000000000e+03 1.4000000000000000e+01 1.2000000000000000e+01 2.5000000000000000e+00 
167 2 4 2.2559723595316457e+00 9.7267579083539968e+03 4.2000000000000000e+03 1.6000000000000000e+01 1.2000000000000000e+01 2.5000000000000000e+00 
187 2 4 2.2559723595316457e+00 4.5147764988427316e+03 4.2000000000000000e+03 1.8000000000000000e+01 1.2000000000000000e+01 2.5000000000000000e+00 
8 2 4 2.2559723595316457e+00 -3.4016229894187927e+03 4.2000000000000000e+03 0.0000000000000000e+00 1.4000000000000000e+01 2.5000000000000000e+00 
28 2 4 2.2559723595316457e+00 3.3819026659653418e+03 4.2000000000000000e+03 2.0000000000000000e+00 1.4000000000000000e+01 2.5000000000000000e+00 
48 2 4 2.2559723595316457e+00 -1.3793221299529312e+03 4.2000000000000000e+03 4.0000000000000000e+00 1.4000000000000000e+01 2.5000000000000000e+00 
68 2 4 2.2559723595316457e+00 -2.8892525640344693e+03 4.2000000000000000e+03 6.0000000000000000e+00 1.4000000000000000e+01 2.5000000000000000e+00 
88 2 4 2.2559723595316457e+00 2.6724006776070328e+03 4.2000000000000000e+03 8.0000000000000000e+00 1.4000000000000000e+01 2.5000000000000000e+00 
108 2 4 2.2559723595316457e+00 3.2174792000813686e+03 4.2000000000000000e+03 1.0000000000000000e+01 1.4000000000000000e+01 2.5000000000000000e+00 
128 2 4 2.2559723595316457e+00 2.2047185014687911e+03 4.2000000000000000e+03 1.2000000000000000e+01 1.4000000000000000e+01 2.5000000000000000e+00 
148 2 4 2.2559723595316457e+00 1.3664734453845426e+03 4.2000000000000000e+03 1.4000000000000000e+01 1.4000000000000000e+01 2.5000000000000000e+00 
168 2 4 2.2559723595316457e+00 5.1353193361015019e+03 4.2000000000000000e+03 1.6000000000000000e+01 1.4000000000000000e+01 2.5000000000000000e+00 
188 2 4 2.2559723595316457e+00 -2.4354749333742429e+03 4.2000000000000000e+03 1.8000000000000000e+01 1.4000000000000000e+01 2.5000000000000000e+00 
9 2 4 2.2559723595316457e+00 9.8673015884567212e+03 4.2000000000000000e+03 0.0000000000000000e+00 1.6000000000000000e+01 2.5000000000000000e+00 
29 2 4 2.2559723595316457e+00 1.8503745662953975e+03 4.2000000000000000e+03 2.0000000000000000e+00 1.6000000000000000e+01 2.5000000000000000e+00 
49 2 4 2.2559723595316457e+00 6.7088213759356349e+03 4.2000000000000000e+03 4.0000000000000000e+00 1.6000000000000000e+01 2.5000000000000000e+00 
69 2 4 2.2559723595316457e+00 1.5234231551255230e+03 4.2000000000000000e+03 6.0000000000000000e+00 1.6000000000000000e+01 2.5000000000000000e+00 
89 2 4 2.2559723595316457e+00 -1.3801572194248856e+03 4.2000000000000000e+03 8.0000000000000000e+00 1.6000000000000000e+01 2.5000000000000000e+00 
109 2 4 2.2559723595316457e+00 1.1227570458507762e+03 4.2000000000000000e+03 1.0000000000000000e+01 1.6000000000000000e+01 2.5000000000000000e+00 
129 2 4 2.2559723595316457e+00 -8.9723164971161395e+02 4.2000000000000000e+03 1.2000000000000000e+01 1.6000000000000000e+01 2.5000000000000000e+00 
149 2 4 2.2559723595316457e+00 2.9634499919182826e+03 4.2000000000000000e+03 1.4000000000000000e+01 1.6000000000000000e+01 2.5000000000000000e+00 
169 2 4 2.2559723595316457e+00 3.3556748433422017e+03 4.2000000000000000e+03 1.6000000000000000e+01 1.6000000000000000e+01 2.5000000000000000e+00 
189 2 4 2.2559723595316457e+00 5.0937713308127621e+02 4.2000000000000000e+03 1.8000000000000000e+01 1.6000000000000000e+01 2.5000000000000000e+00 
10 2 4 2.2559723595316457e+00 4.4220057021471894e+03 4.2000000000000000e+03 0.0000000000000000e+00 1.8000000000000000e+01 2.5000000000000000e+00 
30 2 4 2.2559723595316457e+00 -3.1711309242441223e+02 4.2000000000000000e+03 2.0000000000000000e+00 1.8000000000000000e+01 2.5000000000000000e+00 
50 2 4 2.2559723595316457e+00 4.5631775364548321e+03 4.2000000000000000e+03 4.0000000000000000e+00 1.8000000000000000e+01 2.5000000000000000e+00 
70 2 4 2.2559723595316457e+00 8.5562155893116369e+02 4.2000000000000000e+03 6.0000000000000000e+00 1.8000000000000000e+01 2.5000000000000000e+00 
90 2 4 2.2560461816407331e+00 2.9114893639434349e+03 4.2000000000000000e+03 8.0000000000000000e+00 1.8000000000000000e+01 2.5000000000000000e+00 
110 2 4 2.2559723595316457e+00 -4.6183202024318844e+03 4.2000000000000000e+03 1.0000000000000000e+01 1.8000000000000000e+01 2.5000000000000000e+00 
130 2 4 2.2559723595316457e+00 -6.0862268008076876e+02 4.2000000000000000e+03 1.2000000000000000e+01 1.8000000000000000e+01 2.5000000000000000e+00 
150 2 4 2.2559723595316457e+00 2.5799374643104957e+03 4.2000000000000000e+03 1.4000000000000000e+01 1.8000000000000000e+01 2.5000000000000000e+00 
170 2 4 2.2559723595316457e+00 6.4043388535374415e+03 4.2000000000000000e+03 1.6000000000000000e+01 1.8000000000000000e+01 2.5000000000000000e+00 
190 2 4 2.2559723595316457e+00 3.5259396303126073e+02 4.2000000000000000e+03 1.8000000000000000e+01 1.8000000000000000e+01 2.5000000000000000e+00 
771 373 2 1.2829380490798250e+00 -5.9316821972284088e+04 4.2000000000000000e+03 4.1909174402295335e+00 1.8919545495970889e+00 5.7288318766711974e+00 
1277 879 2 1.2829380490798250e+00 3.4614319160704254e+04 4.2000000000000000e+03 3.5826144993137805e+00 7.9497419720780860e+00 5.5674809609400429e+00 
1883 1485 2 1.2829380490798250e+00 -9.9169370620329486e+04 4.2000000000000000e+03 1.5016552971229133e+01 1.3132324857417840e+01 5.5085134521906607e+00 
669 271 2 1.2829380490798250e+00 3.2178918840414422e+04 4.2000000000000000e+03 1.0259932627856202e+01 1.5439470673818185e+01 5.8696584175481465e+00 
2044 1646 2 1.2829765118677563e+00 -7.9620341479336726e+04 4.2000000000000000e+03 7.3105212469956049e+00 1.8671822092691638e+01 5.2007054153013605e+00 
780 382 2 1.2829380490798250e+00 6.3875174517032036e+04 4.2000000000000000e+03 7.1656887414531161e+00 4.4244748577132381e-01 6.3140124263859576e+00 
1716 1318 2 1.2829380490798250e+00 6.9663609131000296e+04 4.2000000000000000e+03 1.4123919388718456e+01 1.8857855459980624e+00 6.6628089212571018e+00 
554 156 2 1.2829380490798250e+00 -2.9631815185932533e+02 4.2000000000000000e+03 4.6813754112002535e+00 4.4491550920543794e+00 7.6271399262242250e+00 
1549 1151 2 1.2829380490798250e+00 1.0015491904591001e+05 4.2000000000000000e+03 1.2865825954061622e+01 4.8407943178081085e+00 7.1585860078922545e+00 
1961 1563 2 1.2829380490798250e+00 -6.6364112308828117e+03 4.2000000000000000e+03 1.6356194756726889e+01 6.6903320434689135e+00 6.6471835164861002e+00 
779 381 2 1.2830727045422186e+00 -4.0666135228831517e+04 4.2000000000000000e+03 1.6932849865452656e+01 1.0204160205621395e+01 7.0793154884169764e+00 
1679 1281 2 1.2829380490798250e+00 -5.0710841648391681e+04 4.2000000000000000e+03 1.2779323051270743e+00 1.7689205934036508e+01 6.2761509612559916e+00 
519 121 2 1.2829402569474355e+00 9.3353646546683522e+03 4.2000000000000000e+03 6.8768947738358568e+00 1.6608146853738599e+01 7.4316029181762815e+00 
2004 1606 2 1.2829380490798250e+00 1.3933517127420684e+04 4.2000000000000000e+03 1.7582427044006813e+01 1.6624026246518881e+01 6.5607197645895035e+00 
1726 1328 2 1.2829380490798250e+00 -2.5270108311513111e+04 4.2000000000000000e+03 1.4030349333743882e+01 1.8934120215821419e+01 7.6900655618835598e+00 
1421 1023 2 1.2829380490798250e+00 4.7796346514751916e+04 4.2000000000000000e+03 1.1630717407106124e+01 3.7930833329934932e-01 8.6089406750145390e+00 
1794 1396 2 1.2829380490798250e+00 -8.9421487820222246e+04 4.2000000000000000e+03 1.8238711043568269e+01 2.7657135110144226e+00 7.9547697652682077e+00 
1717 1319 2 1.2829405039316883e+00 7.7824353015549030e+04 4.2000000000000000e+03 1.3093694889027610e+01 8.6619775807156163e+00 8.8123170424974973e+00 
1309 911 2 1.2830751593940819e+00 5.6231344788307442e+03 4.2000000000000000e+03 1.5943350025390568e+01 9.0007743696069280e+00 9.4601770950925630e+00 
1691 1293 2 1.2829402569474355e+00 -4.7822383940944994e+04 4.2000000000000000e+03 5.1596652939679846e+00 1.4552058945924717e+01 8.6371252916941863e+00 
984 586 2 1.2829380490798250e+00 9.0550342380179121e+04 4.2000000000000000e+03 1.1466285277979809e+01 1.5453281668917523e+01 8.8264110499786863e+00 
1419 1021 2 1.2829380490798250e+00 -2.5541741384144634e+05 4.2000000000000000e+03 1.2937513580379976e+01 2.1637729892090554e+00 1.0644955350130587e+01 
1810 1412 2 1.2829380490798250e+00 -2.7081707440806844e+04 4.2000000000000000e+03 2.7272042999255626e+00 7.8532550542621653e+00 1.0948720831933395e+01 
670 272 2 1.2829380490798250e+00 -6.7717349432032352e+04 4.2000000000000000e+03 1.8996646588354245e+01 8.6264568550116270e+00 9.8647540347188727e+00 
2050 1652 2 1.2829673054067439e+00 -5.0458735473977045e+04 4.2000000000000000e+03 8.0818009875535246e+00 1.1256232572740307e+01 1.0912058678116550e+01 
1482 1084 2 1.2829380490798250e+00 -8.2021570609676273e+04 4.2000000000000000e+03 1.6062741065775231e+01 1.1342429424453355e+01 1.1443923726863735e+01 
1484 1086 2 1.2830679405024696e+00 3.8880621456212117e+04 4.2000000000000000e+03 1.0744122006230103e+01 1.2939151436796989e+01 1.0749250343567047e+01 
1300 902 2 1.2842047050183403e+00 5.9566112418272787e+04 4.2000000000000000e+03 1.5121248873945570e+00 1.4150778000706516e+01 1.0436335511268457e+01 
415 17 2 1.2829400969130704e+00 -5.8666894367508263e+04 4.2000000000000000e+03 7.1900167792590057e+00 1.4061793215891912e+01 1.1055371689509785e+01 
1530 1132 2 1.2842047050183403e+00 4.7732535701023262e+04 4.2000000000000000e+03 3.3528383878437453e+00 1.6115239851607260e+01 1.0838674063794363e+01 
1048 650 2 1.2829380490798250e+00 -5.2685151059940545e+04 4.2000000000000000e+03 4.1778471954696013e+00 1.9150473343557742e+01 1.0399485491254572e+01 
1316 918 2 1.2829380490798250e+00 4.7268731131910710e+04 4.2000000000000000e+03 1.5815259690723193e+01 1.9645188321960855e+01 1.1120161006993113e+01 
1732 1334 2 1.2829380490798250e+00 7.1861184288753604e+04 4.2000000000000000e+03 4.3764973531244200e+00 1.8513385279888828e+00 1.3360774687654494e+01 
1273 875 2 1.2829380490798250e+00 6.7679226018839661e+04 4.2000000000000000e+03 8.0514296737411470e+00 5.2996272596767620e+00 1.3397838056585192e+01 
1013 615 2 1.2829380490798250e+00 5.8981615441570291e+04 4.2000000000000000e+03 1.6934709074612080e+01 7.0424554490699558e+00 1.2698118998830383e+01 
1632 1234 2 1.2829652575734984e+00 8.4882100624780593e+04 4.2000000000000000e+03 6.0472188166622809e+00 9.9643518640017081e+00 1.2516007875722192e+01 
679 281 2 1.2829380490798250e+00 -1.0805632215438885e+05 4.2000000000000000e+03 9.3818825332368334e+00 9.0412057606856600e+00 1.3184473992667794e+01 
1993 1595 2 1.2830679405024696e+00 5.2696981687852909e+04 4.2000000000000000e+03 9.8667852479782194e+00 1.3255696329365858e+01 1.3436846687962404e+01 
1818 1420 2 1.2829387725959001e+00 -9.1980992650788485e+03 4.2000000000000000e+03 1.8118331069390113e+01 1.7346891373259947e+01 1.3263809455223628e+01 
1467 1069 2 1.2829380505965555e+00 -1.5107044336841657e+03 4.2000000000000000e+03 6.6691703492773167e+00 1.9289169162699181e+01 1.2097326243251747e+01 
1967 1569 2 1.2829387725959001e+00 -5.3723512839586867e+04 4.2000000000000000e+03 1.8927290075513628e+01 1.9943300705446052e+01 1.2072839030939004e+01 
2018 1620 2 1.2829380490798250e+00 -6.5117735728230648e+04 4.2000000000000000e+03 1.0612181332238942e+01 2.2132223480900350e+00 1.4540519534840531e+01 
647 249 2 1.2829380490798250e+00 -9.5633775768236170e+04 4.2000000000000000e+03 1.5060260498062314e+00 5.2634570460871650e+00 1.5636554648364504e+01 
829 431 2 1.2829380490798250e+00 -3.3247103603701449e+04 4.2000000000000000e+03 1.4338286685613577e+01 4.4492294061362632e+00 1.3875683098224080e+01 
1592 1194 2 1.2829380490798250e+00 8.9208295868850291e+03 4.2000000000000000e+03 5.1442224915774100e+00 6.0248474151172964e+00 1.3766305646497418e+01 
2041 1643 2 1.2829380490798250e+00 4.9902694157603983e+04 4.2000000000000000e+03 1.5294645007559918e+01 7.1851873963326565e+00 1.5283161745932496e+01 
1777 1379 2 1.2829380490798250e+00 4.9297470949859344e+04 4.2000000000000000e+03 2.6231752330641225e+00 1.3153676237323378e+01 1.5010117243105789e+01 
594 196 2 1.2829380490798250e+00 -2.8112823596066366e+04 4.2000000000000000e+03 1.4710626815868402e+01 1.3997397193993777e+01 1.4011660332049201e+01 
1077 679 2 1.2829380490798250e+00 -7.2044567592260253e+04 4.2000000000000000e+03 7.8055825764898534e-01 1.8271769734456601e+01 1.4187060482189308e+01 
1745 1347 2 1.2829380505965555e+00 1.2323063878575937e+05 4.2000000000000000e+03 7.4000016068956294e+00 1.9736868694909173e+01 1.4967480895895026e+01 
1402 1004 2 1.2829380490798250e+00 -1.0907857065508826e+04 4.2000000000000000e+03 5.8982946868331636e+00 5.9634388062630661e-01 1.6591651342277782e+01 
1448 1050 2 1.2829380490798250e+00 2.1316640732576343e+04 4.2000000000000000e+03 1.8204002465194701e+01 3.7857973672451077e+00 1.6115937677826004e+01 
2034 1636 2 1.2829381807278970e+00 -1.5848099980334109e+04 4.2000000000000000e+03 4.8170348858344436e+00 5.1360128829694771e+00 1.6741996056330702e+01 
1353 955 2 1.2829590450194044e+00 1.1704140635466256e+04 4.2000000000000000e+03 7.7837419725935861e+00 4.9754980165952629e+00 1.6757364910038334e+01 
1849 1451 2 1.2829380490798250e+00 4.5656159058850011e+04 4.2000000000000000e+03 4.0996550954934952e+00 1.0792567774454026e+01 1.6956819649556650e+01 
782 384 2 1.2829380490798250e+00 -2.5903968908392875e+04 4.2000000000000000e+03 1.7592489052458976e+01 1.0892688834306529e+01 1.6972053291674065e+01 
1411 1013 2 1.2829380490798250e+00 -4.7991879921093263e+04 4.2000000000000000e+03 7.7036565434498314e+00 1.5215646220230992e+01 1.6920410087469023e+01 
1341 943 2 1.2829380490798250e+00 -2.4572638199008092e+04 4.2000000000000000e+03 1.2260634595337081e+01 1.4758332870693058e+01 1.6860608543189770e+01 
1613 1215 2 1.2829380490798250e+00 -9.0482241653303689e+04 4.2000000000000000e+03 1.6392209638975157e+01 1.5067065762739109e+01 1.7296066423989938e+01 
666 268 2 1.2829380490798250e+00 -4.0642683012392532e+04 4.2000000000000000e+03 9.6573023626754431e+00 1.5438898076201701e+00 1.8126908635149164e+01 
1031 633 2 1.2829589412826248e+00 -2.2133345648175648e+04 4.2000000000000000e+03 6.8408499050636609e+00 5.6552523779691253e+00 1.9420940782695823e+01 
577 179 2 1.2840983339154726e+00 6.9620349610849575e+04 4.2000000000000000e+03 1.0474805234573934e+01 5.5925012002062502e+00 1.8251662258535834e+01 
1918 1520 2 1.2840982682548816e+00 -5.7146507458368687e+04 4.2000000000000000e+03 1.2674982088104182e+01 4.0817689081891180e+00 1.8823537561694270e+01 
884 486 2 1.2829380490798250e+00 -3.4466016225269355e+04 4.2000000000000000e+03 1.3233012101944346e+00 9.1237056649998785e+00 1.7772483710339980e+01 
1924 1526 2 1.2829380490798250e+00 -8.5318038172646266e+03 4.2000000000000000e+03 1.8118669528092659e+00 1.3557236840726045e+01 1.8544086317096809e+01 
814 416 2 1.2829380490798250e+00 -6.9198639064531395e+04 4.2000000000000000e+03 9.2589924161886401e+00 1.2621251123111760e+01 1.8382874538490185e+01 
1854 1456 2 1.2829380490798250e+00 -5.9087402702022111e+04 4.2000000000000000e+03 1.0934621559909731e+01 1.8070591326402223e+01 1.8082880397251717e+01 
1859 1461 2 1.2831060842238071e+00 -4.0104339522796516e+04 4.2000000000000000e+03 1.3361000465183510e+01 1.9949353969765085e+01 1.8396095596138537e+01 
468 70 2 1.2831376186775478e+00 1.1091467601677761e+05 4.2000000000000000e+03 2.7253050330877926e+00 3.5693583930359207e-01 2.0011431150159066e+01 
885 487 2 1.2829380769911176e+00 -2.3384129779853183e+05 4.2000000000000000e+03 5.8783464980060955e+00 7.5283535756553110e+00 2.1505136490370973e+01 
1342 944 2 1.2829381147404157e+00 -1.9995906424028402e+04 4.2000000000000000e+03 1.1395034130704140e+01 7.6929481501423655e+00 2.0125357202442832e+01 
1226 828 2 1.2857079702064818e+00 -2.3288117050163077e+04 4.2000000000000000e+03 8.7892156221879869e+00 1.5364098171003164e+01 2.0660402715305977e+01 
1473 1075 2 1.2829380490798250e+00 2.1148624918463953e+04 4.2000000000000000e+03 1.4381767733116781e+01 1.6443379857578378e+01 2.0255423337699568e+01 
697 299 2 1.2829404962751021e+00 1.0095203082364707e+05 4.2000000000000000e+03 1.7176916218607062e+01 1.9318936805920313e+01 1.9938034706373141e+01 
1990 1592 2 1.2829475432010859e+00 -4.2123613410717684e+04 4.2000000000000000e+03 1.5157678574395542e+01 1.2803079366585739e+00 2.3142492020438894e+01 
609 211 2 1.2829380490798250e+00 -3.9482475987301776e+04 4.2000000000000000e+03 6.4051712293055187e+00 2.1783459142517088e+00 2.2385649415116465e+01 
506 108 2 1.2829380490798250e+00 2.8635097361107684e+04 4.2000000000000000e+03 1.0442212867035193e+01 3.3921107146309790e+00 2.1674386461531860e+01 
1194 796 2 1.2829380490798250e+00 -6.5596858938381105e+04 4.2000000000000000e+03 1.7053984343938961e+01 5.0456287671586511e+00 2.2214166697829885e+01 
702 304 2 1.2829380490798250e+00 -4.7713234657512803e+04 4.2000000000000000e+03 1.3945775432717120e+00 7.7661763525403549e+00 2.2943351556200923e+01 
531 133 2 1.2829380490798250e+00 -1.8676076078514110e+04 4.2000000000000000e+03 1.9685094408699449e+01 6.5441814000960683e+00 2.2061659039478823e+01 
1113 715 2 1.2829380490798250e+00 7.4111994350400701e+03 4.2000000000000000e+03 1.2006553105429029e+01 8.1182747430768263e+00 2.3103616815938540e+01 
1324 926 2 1.2829380490798250e+00 4.1055698833319198e+04 4.2000000000000000e+03 1.7581099196678654e+01 9.9243723758193063e+00 2.1894897389143974e+01 
934 536 2 1.2830058175789112e+00 -5.4814462790576137e+04 4.2000000000000000e+03 9.1001220871434363e+00 1.0708781375512769e+01 2.1916768638487788e+01 
1611 1213 2 1.2829380490798250e+00 -4.5119413593155885e+04 4.2000000000000000e+03 1.3815524834873395e+01 1.0777287585141426e+01 2.2564819331000049e+01 
464 66 2 1.2829380490798250e+00 7.4895357929395454e+04 4.2000000000000000e+03 8.3879485774014140e-01 1.2445103195438424e+01 2.1597391071446928e+01 
676 278 2 1.2857757387055679e+00 -4.8951012776018099e+04 4.2000000000000000e+03 8.9735431853315166e+00 1.3504364289692923e+01 2.2550395187385249e+01 
517 119 2 1.2829380490798250e+00 2.0134398580896942e+05 4.2000000000000000e+03 2.9803626052312011e+00 1.5540455526530977e+01 2.2886210649548303e+01 
1545 1147 2 1.2837454915791375e+00 5.6495760882923540e+04 4.2000000000000000e+03 1.2411705376601537e+01 1.4557423916237029e+00 2.4123432000480420e+01 
1572 1174 2 1.2829380490798250e+00 8.4853238087686274e+04 4.2000000000000000e+03 2.4747060893831034e+00 3.3932735360990365e+00 2.3636963048932149e+01 
1469 1071 2 1.2837359974578766e+00 -4.9248947572044504e+04 4.2000000000000000e+03 1.3514471429894495e+01 3.9756648437196231e+00 2.4249194961912757e+01 
1996 1598 2 1.2829380490798250e+00 1.1030312112568372e+04 4.2000000000000000e+03 7.6738162531477565e+00 9.6926466105907050e+00 2.4714283666166367e+01 
1548 1150 2 1.2837424394087251e+00 1.7807184661301671e+05 4.2000000000000000e+03 1.5698930042430950e+01 9.0399968777395259e+00 2.4945615367106118e+01 
1304 906 2 1.2829380490798250e+00 -8.3169492287656700e+04 4.2000000000000000e+03 1.2452368846168472e+01 1.5337569057683563e+01 2.5486141187262703e+01 
1871 1473 2 1.2829380490798250e+00 -1.7698508051190227e+04 4.2000000000000000e+03 5.7187751551092507e+00 1.6413306720611136e+01 2.4077465516703118e+01 
1248 850 2 1.2834920196218538e+00 -1.9860296502007684e+04 4.2000000000000000e+03 5.0054109645998421e+00 1.9405800828775014e+01 2.3561871409849129e+01 
1624 1226 2 1.2829380490798250e+00 9.2795133209761756e+04 4.2000000000000000e+03 1.6145784970646801e+01 1.8181862121108018e+01 2.4160400866176310e+01 
405 7 2 1.2829930451140055e+00 3.1859754500888014e+05 4.2000000000000000e+03 1.8918348830907277e+01 1.9858806480449747e+01 2.4839114125360876e+01 
833 435 2 1.2829384183321590e+00 -1.3123469369262012e+05 4.2000000000000000e+03 6.1214127285592772e+00 1.8296897050258296e+00 2.6253110718283732e+01 
1806 1408 2 1.2829380490798250e+00 -1.7593648227806139e+05 4.2000000000000000e+03 1.7208463469054220e+01 6.9760330186355146e-01 2.7136556789713147e+01 