LAMMPS data file via write_data, version 30 Jul 2016, timestep = 50000000

100 atoms
2 atom types

0.0000000000000000e+00 2.0000000000000000e+01 xlo xhi
0.0000000000000000e+00 2.0000000000000000e+01 ylo yhi
0.0000000000000000e+00 2.0000000000000000e+01 zlo zhi

Masses

1 3.896
2 4.31

Atoms # meso-molecular

78 1 2 1.0154972261737549e+00 -2.3889130207416099e+02 1.0000000000000000e+00 6.5660355061016551e+00 9.3153758630960386e+00 5.6701656115266212e+00 
53 1 2 1.0154972261737549e+00 -2.9642217754326305e+02 1.0000000000000000e+00 6.5660355061016551e+00 9.3153758630960386e+00 5.6701656115266212e+00 
52 1 2 1.0154972261737549e+00 -2.1684573431801721e+02 1.0000000000000000e+00 6.5660355061016551e+00 9.3153758630960386e+00 5.6701656115266212e+00 
83 1 2 1.0154972261737549e+00 -2.2069017954979779e+02 1.0000000000000000e+00 6.5660355061016551e+00 9.3153758630960386e+00 5.6701656115266212e+00 
58 1 2 1.0154972261737549e+00 -2.1167328042876068e+02 1.0000000000000000e+00 6.5660355061016551e+00 9.3153758630960386e+00 5.6701656115266212e+00 
1 1 2 1.0154972261737549e+00 -7.8222960814304145e+01 1.0000000000000000e+00 6.5660355061016551e+00 9.3153758630960386e+00 5.6701656115266212e+00 
29 1 2 1.0154972261737549e+00 -2.2797684686763790e+02 1.0000000000000000e+00 6.5660355061016551e+00 9.3153758630960386e+00 5.6701656115266212e+00 
45 1 2 1.0208478302067012e+00 -1.7203181049227436e+02 1.0000000000000000e+00 1.7026850765614407e+00 6.9554783420185666e+00 1.2465195972597318e+01 
60 1 2 1.0208403351600230e+00 -2.7449598989363835e+02 1.0000000000000000e+00 1.6739458278228876e+00 6.8906936268483978e+00 1.2445523880635001e+01 
75 1 2 1.0211343963444401e+00 -1.9710093838745004e+02 1.0000000000000000e+00 1.7334607191589613e+00 6.9942388006195326e+00 1.2472555899649857e+01 
30 1 2 1.0210216432174728e+00 -1.2730971902406337e+02 1.0000000000000000e+00 1.7293907004583455e+00 6.9824883956298525e+00 1.2465280640519333e+01 
70 1 2 1.0223256153269924e+00 -2.2191896826526408e+02 1.0000000000000000e+00 1.7548121321229977e+00 7.0544898634035782e+00 1.2521877795986011e+01 
97 1 2 1.0269476574661336e+00 -9.8667525092213850e+01 1.0000000000000000e+00 1.9005057451078560e+00 7.1504087607393672e+00 1.2582411009896894e+01 
38 1 2 1.0324064674360913e+00 -2.9252683101575377e+02 1.0000000000000000e+00 4.9021252674040880e+00 3.3032758598456975e+00 1.5038238929488402e+01 
37 1 2 1.0324064674360898e+00 -2.5996939072962147e+02 1.0000000000000000e+00 4.9021252674041325e+00 3.3032758598456993e+00 1.5038238929488385e+01 
43 1 2 1.0324064674360915e+00 -2.9718179886816966e+02 1.0000000000000000e+00 4.9021252674040880e+00 3.3032758598457002e+00 1.5038238929488399e+01 
48 1 2 1.0324064674360867e+00 -1.5608604441133591e+02 1.0000000000000000e+00 4.9021252674041857e+00 3.3032758598457126e+00 1.5038238929488418e+01 
54 1 2 1.0324064674360869e+00 -1.0201545715106234e+02 1.0000000000000000e+00 4.9021252674041884e+00 3.3032758598457166e+00 1.5038238929488415e+01 
49 1 2 1.0324064674360884e+00 -2.8186665150552761e+02 1.0000000000000000e+00 4.9021252674041405e+00 3.3032758598457024e+00 1.5038238929488422e+01 
13 1 2 1.0324064674360904e+00 -2.8036675877383516e+02 1.0000000000000000e+00 4.9021252674040898e+00 3.3032758598456904e+00 1.5038238929488415e+01 
8 1 2 1.0357349242857898e+00 -1.2937981287399276e+02 1.0000000000000000e+00 2.7505353836103388e+00 5.2393317645354474e+00 1.3774592019405832e+01 
9 1 2 1.0357187430049788e+00 -2.0301044244930023e+02 1.0000000000000000e+00 2.7453865003672142e+00 5.2368006473379420e+00 1.3774169516435435e+01 
4 1 2 1.0357820740512871e+00 -4.7997195570643747e+01 1.0000000000000000e+00 2.7391682418855914e+00 5.2434666770144300e+00 1.3786046606518129e+01 
33 1 2 1.0353196330373249e+00 -1.3499231730811638e+02 1.0000000000000000e+00 2.7135649857436777e+00 5.2408864280302527e+00 1.3797958153072004e+01 
10 1 2 1.0354695107106833e+00 -1.8570486589361809e+02 1.0000000000000000e+00 2.7195716039170650e+00 5.2434021559848274e+00 1.3797523684154344e+01 
34 1 2 1.0355740470388559e+00 -1.4689736239026755e+02 1.0000000000000000e+00 2.7292716184929859e+00 5.2463960588355221e+00 1.3796257038852124e+01 
18 1 2 1.0259933911065020e+00 -2.8376765610823816e+02 1.0000000000000000e+00 2.7357252413037965e+00 1.0089718461930087e+01 1.3067103154990185e+01 
72 1 2 1.0259933911065020e+00 -2.1921215645037040e+02 1.0000000000000000e+00 2.7357252413037965e+00 1.0089718461930087e+01 1.3067103154990185e+01 
73 1 2 1.0259933911065064e+00 -2.2754734348822421e+02 1.0000000000000000e+00 2.7357252413057584e+00 1.0089718461929998e+01 1.3067103154986757e+01 
68 1 2 1.0259933911065182e+00 -2.1115724720738280e+02 1.0000000000000000e+00 2.7357252413058397e+00 1.0089718461929040e+01 1.3067103154990503e+01 
92 1 2 1.0259933911065147e+00 -1.5277320360745384e+02 1.0000000000000000e+00 2.7357252413065880e+00 1.0089718461929552e+01 1.3067103154986821e+01 
64 1 2 1.0259933911065147e+00 -2.1659463544499710e+02 1.0000000000000000e+00 2.7357252413065880e+00 1.0089718461929552e+01 1.3067103154986821e+01 
63 1 2 1.0259933911065080e+00 -2.0888197807338230e+02 1.0000000000000000e+00 2.7357252413060489e+00 1.0089718461929985e+01 1.3067103154986151e+01 
21 1 2 1.0154972261737549e+00 -3.2462657870300552e+02 1.0000000000000000e+00 1.1419611954489007e+01 8.7184570277258917e+00 4.7693237276030729e+00 
41 1 2 1.0154972261737549e+00 -1.4509830362026281e+02 1.0000000000000000e+00 1.1419611954489010e+01 8.7184570277259041e+00 4.7693237276030933e+00 
16 1 2 1.0154972261737549e+00 -3.2800308087723010e+02 1.0000000000000000e+00 1.1419611954489003e+01 8.7184570277259255e+00 4.7693237276030889e+00 
27 1 2 1.0154972261737549e+00 -1.3715545454868709e+02 1.0000000000000000e+00 1.1419611954489012e+01 8.7184570277259645e+00 4.7693237276030764e+00 
17 1 2 1.0154972261737549e+00 -2.5524774139354253e+02 1.0000000000000000e+00 1.1419611954489010e+01 8.7184570277258544e+00 4.7693237276030445e+00 
22 1 2 1.0154972261737549e+00 -2.2170454459528219e+02 1.0000000000000000e+00 1.1419611954489010e+01 8.7184570277259841e+00 4.7693237276030240e+00 
47 1 2 1.0154972261737549e+00 -2.3157024125571292e+02 1.0000000000000000e+00 1.1419611954489003e+01 8.7184570277259112e+00 4.7693237276030196e+00 
40 1 2 1.0308817190584203e+00 -3.0565204900832344e+02 1.0000000000000000e+00 1.2204542767561293e+01 1.3343685094677127e+01 9.3915013315469587e+00 
6 1 2 1.0308817190616035e+00 -2.4152463937200432e+02 1.0000000000000000e+00 1.2204542767881048e+01 1.3343685095436749e+01 9.3915013311972082e+00 
15 1 2 1.0308817199686819e+00 -2.5281952572258285e+02 1.0000000000000000e+00 1.2204542858960561e+01 1.3343685311998962e+01 9.3915012315520396e+00 
11 1 2 1.0308817190318309e+00 -2.7718782166717648e+02 1.0000000000000000e+00 1.2204542764882111e+01 1.3343685088311307e+01 9.3915013344779545e+00 
36 1 2 1.0270400340843171e+00 -3.1185356798444280e+02 1.0000000000000000e+00 1.2924771773414204e+01 1.3608334602606298e+01 9.3847031094843381e+00 
46 1 2 1.0245761150772497e+00 -2.1302647660098947e+02 1.0000000000000000e+00 1.2997154087291154e+01 1.3403104024517901e+01 1.0623992146291954e+01 
57 1 2 1.0245761150862807e+00 -2.1536593105759715e+02 1.0000000000000000e+00 1.2997154083181517e+01 1.3403104023951164e+01 1.0623992148134507e+01 
32 1 2 1.0245761150757386e+00 -2.1784275283307176e+02 1.0000000000000000e+00 1.2997154088211643e+01 1.3403104024560921e+01 1.0623992145868744e+01 
65 1 2 1.0245761151195187e+00 -1.9068477866603041e+02 1.0000000000000000e+00 1.2997154069982669e+01 1.3403104021449430e+01 1.0623992153966531e+01 
81 1 2 1.0154972261737549e+00 -2.4936489753573409e+02 1.0000000000000000e+00 7.7047512697036433e+00 1.4677368894547671e+01 1.8311238670905638e+01 
61 1 2 1.0154972261737549e+00 -1.1109982351890716e+02 1.0000000000000000e+00 7.7047512697036433e+00 1.4677368894547671e+01 1.8311238670905638e+01 
42 1 2 1.0154972261737549e+00 -2.3177596210146598e+02 1.0000000000000000e+00 7.7047512697036433e+00 1.4677368894547671e+01 1.8311238670905638e+01 
87 1 2 1.0154972261737549e+00 -2.4131400753209550e+02 1.0000000000000000e+00 7.7047512697036433e+00 1.4677368894547671e+01 1.8311238670905638e+01 
82 1 2 1.0154972261737549e+00 -2.4656085188058472e+02 1.0000000000000000e+00 7.7047512697036105e+00 1.4677368894548197e+01 1.8311238670905382e+01 
77 1 2 1.0154972261737549e+00 -2.0045226385803153e+02 1.0000000000000000e+00 7.7047512697036193e+00 1.4677368894548133e+01 1.8311238670905382e+01 
86 1 2 1.0154972261737549e+00 -2.4385112239716420e+02 1.0000000000000000e+00 7.7047512697036193e+00 1.4677368894548133e+01 1.8311238670905382e+01 
85 1 2 1.0156781509053832e+00 -3.2576710653480882e+02 1.0000000000000000e+00 1.9028339671519383e+01 1.2616506103323162e+00 1.7147966037356710e-01 
39 1 2 1.0156781509053832e+00 -2.4279706950141241e+02 1.0000000000000000e+00 1.9028339671519383e+01 1.2616506103323162e+00 1.7147966037356710e-01 
59 1 2 1.0156781509053832e+00 -2.8067025207974484e+02 1.0000000000000000e+00 1.9028339671519383e+01 1.2616506103323162e+00 1.7147966037356710e-01 
44 1 2 1.0156781509053858e+00 -2.1124310736175471e+02 1.0000000000000000e+00 1.9028339671519145e+01 1.2616506103318401e+00 1.7147966037086007e-01 
84 1 2 1.0156781509053832e+00 -3.1491662636115228e+02 1.0000000000000000e+00 1.9028339671519383e+01 1.2616506103323162e+00 1.7147966037356710e-01 
14 1 2 1.0156781509053858e+00 -2.3526802529421735e+02 1.0000000000000000e+00 1.9028339671519145e+01 1.2616506103318401e+00 1.7147966037086007e-01 
80 1 2 1.0156781509053858e+00 -2.7919515677857419e+02 1.0000000000000000e+00 1.9028339671519145e+01 1.2616506103318401e+00 1.7147966037086007e-01 
96 1 2 1.0154972261737549e+00 -2.9249589068214829e+02 1.0000000000000000e+00 1.8803206301033033e+01 1.8706181596820651e-01 5.4319592893687405e+00 
62 1 2 1.0154972261737549e+00 -1.1504275622612920e+02 1.0000000000000000e+00 1.8803206301033462e+01 1.8706181596764748e-01 5.4319592893687689e+00 
91 1 2 1.0154972261737549e+00 -2.1394121172067014e+02 1.0000000000000000e+00 1.8803206301033033e+01 1.8706181596820651e-01 5.4319592893687405e+00 
67 1 2 1.0154972261737549e+00 -2.0588542350623487e+02 1.0000000000000000e+00 1.8803206301033462e+01 1.8706181596764748e-01 5.4319592893687689e+00 
76 1 2 1.0154972261737549e+00 -2.2892624016328108e+02 1.0000000000000000e+00 1.8803206301033462e+01 1.8706181596764748e-01 5.4319592893687689e+00 
66 1 2 1.0154972261737549e+00 -2.0284316821799160e+02 1.0000000000000000e+00 1.8803206301033608e+01 1.8706181596766425e-01 5.4319592893687778e+00 
100 1 2 1.0154972261737549e+00 -2.5150584953283789e+02 1.0000000000000000e+00 1.8803206301033033e+01 1.8706181596820651e-01 5.4319592893687405e+00 
95 1 2 1.0154972261737549e+00 -1.0038468406496600e+02 1.0000000000000000e+00 1.8226985078928440e+01 2.2531709363567827e+00 1.2901978631816355e+01 
74 1 2 1.0154972261737549e+00 -2.2592886030117330e+02 1.0000000000000000e+00 1.8226985078928440e+01 2.2531709363567827e+00 1.2901978631816355e+01 
69 1 2 1.0154972261737549e+00 -2.2547806742880607e+02 1.0000000000000000e+00 1.8226985078928440e+01 2.2531709363567827e+00 1.2901978631816355e+01 
25 1 2 1.0154972261737549e+00 -2.4059350316693360e+02 1.0000000000000000e+00 1.8226985078928440e+01 2.2531709363567827e+00 1.2901978631816355e+01 
99 1 2 1.0154972261737549e+00 -2.6019517879852776e+02 1.0000000000000000e+00 1.8226985078928440e+01 2.2531709363567827e+00 1.2901978631816355e+01 
98 1 2 1.0154972261737549e+00 -2.5467413672683654e+02 1.0000000000000000e+00 1.8226985078928440e+01 2.2531709363567827e+00 1.2901978631816355e+01 
79 1 2 1.0154972261737549e+00 -2.1634323442839866e+02 1.0000000000000000e+00 1.8226985078928440e+01 2.2531709363567827e+00 1.2901978631816355e+01 
90 1 2 1.0309989988687973e+00 -1.8440612538361725e+02 1.0000000000000000e+00 1.6022738552535461e+01 3.0260333928920620e+00 1.7716707931766766e+01 
55 1 2 1.0299313279310085e+00 -2.2336427255469567e+02 1.0000000000000000e+00 1.6491206077988551e+01 3.4101088162640716e+00 1.8491949880920028e+01 
24 1 2 1.0299313245006227e+00 -3.5773852966657529e+02 1.0000000000000000e+00 1.6491205443624985e+01 3.4101104710022345e+00 1.8491951102550718e+01 
19 1 2 1.0299313250255033e+00 -4.4481204711588487e+02 1.0000000000000000e+00 1.6491205537704520e+01 3.4101101966283887e+00 1.8491950927460937e+01 
20 1 2 1.0299313281080535e+00 -4.0915246667434889e+02 1.0000000000000000e+00 1.6491206111049916e+01 3.4101087332576161e+00 1.8491949816571569e+01 
88 1 2 1.0250484177570134e+00 -2.6794717892905464e+02 1.0000000000000000e+00 1.5116007727626913e+01 3.4107977488624304e+00 1.8106505500597585e+01 
93 1 2 1.0250484171256020e+00 -2.8096808937543210e+02 1.0000000000000000e+00 1.5116007758981313e+01 3.4107981209684204e+00 1.8106505457910245e+01 
94 1 2 1.0250484188617310e+00 -2.7968847122388621e+02 1.0000000000000000e+00 1.5116007672448781e+01 3.4107971716967787e+00 1.8106505609605794e+01 
89 1 2 1.0250484127468258e+00 -2.7818042737867370e+02 1.0000000000000000e+00 1.5116007977275212e+01 3.4108005025696437e+00 1.8106505069552885e+01 
31 1 2 1.0154972261737549e+00 -2.1108953993348911e+02 1.0000000000000000e+00 1.8297757963207300e+01 1.1951941148021312e+01 3.8463104250826463e+00 
35 1 2 1.0154972261737549e+00 -1.8266400386513840e+02 1.0000000000000000e+00 1.8297757963207346e+01 1.1951941148021346e+01 3.8463104250825944e+00 
26 1 2 1.0154972261737549e+00 -1.0066349028371087e+02 1.0000000000000000e+00 1.8297757963207275e+01 1.1951941148021056e+01 3.8463104250831668e+00 
7 1 2 1.0154972261737549e+00 -2.4262161492974047e+02 1.0000000000000000e+00 1.8297757963207282e+01 1.1951941148021056e+01 3.8463104250830038e+00 
12 1 2 1.0154972261737549e+00 -2.4322694010944423e+02 1.0000000000000000e+00 1.8297757963207346e+01 1.1951941148021108e+01 3.8463104250832041e+00 
51 1 2 1.0154972261737549e+00 -2.2033154302731816e+02 1.0000000000000000e+00 1.8297757963207300e+01 1.1951941148021056e+01 3.8463104250831668e+00 
71 1 2 1.0154972261737549e+00 -2.3911092201815177e+02 1.0000000000000000e+00 1.8297757963207346e+01 1.1951941148021346e+01 3.8463104250825944e+00 
23 1 2 1.0286022407520850e+00 -2.4572666359452566e+02 1.0000000000000000e+00 1.4631426330016325e+01 1.4145447673438964e+01 1.3188270755027041e+01 
2 1 2 1.0286022407520850e+00 -2.6058577188839166e+02 1.0000000000000000e+00 1.4631426330016325e+01 1.4145447673438964e+01 1.3188270755027041e+01 
3 1 2 1.0286022407520850e+00 -2.8670307518695262e+02 1.0000000000000000e+00 1.4631426330016325e+01 1.4145447673438964e+01 1.3188270755027041e+01 
5 1 2 1.0286022407520850e+00 -1.5665625905920885e+02 1.0000000000000000e+00 1.4631426330016325e+01 1.4145447673438964e+01 1.3188270755027041e+01 
50 1 2 1.0286022407520850e+00 -2.1106620866473540e+02 1.0000000000000000e+00 1.4631426330016325e+01 1.4145447673438964e+01 1.3188270755027041e+01 
56 1 2 1.0286022407520850e+00 -2.6942739900443615e+02 1.0000000000000000e+00 1.4631426330016325e+01 1.4145447673438964e+01 1.3188270755027041e+01 
28 1 2 1.0286022407520850e+00 -2.0554661595607300e+02 1.0000000000000000e+00 1.4631426330016325e+01 1.4145447673438964e+01 1.3188270755027041e+01 

Velocities

78 2.2629483507199774e-02 2.7376187578530087e-01 -2.9526110134697980e-01
53 2.2629483507199774e-02 2.7376187578530087e-01 -2.9526110134697980e-01
52 2.2629483507199774e-02 2.7376187578530087e-01 -2.9526110134697980e-01
83 2.2629483507199774e-02 2.7376187578530087e-01 -2.9526110134697980e-01
58 2.2629483507199774e-02 2.7376187578530087e-01 -2.9526110134697980e-01
1 2.2629483507199774e-02 2.7376187578530087e-01 -2.9526110134697980e-01
29 2.2629483507199774e-02 2.7376187578530087e-01 -2.9526110134697980e-01
45 -2.2363900342945824e-02 2.6957697945576595e-02 -2.2666427603415040e-01
60 -1.2461030145288607e-02 5.4212037310034517e-02 -2.2093174074875588e-01
75 -3.6233410993773071e-02 1.0521092688209348e-02 -2.2858662253541273e-01
30 -3.4743384201155456e-02 1.5589923212195399e-02 -2.2545744412065433e-01
70 -4.3246092630861939e-02 -1.4842168563535540e-02 -2.4989027400389910e-01
97 -1.0422259937642639e-01 -6.1563688559985265e-02 -2.6180769671100512e-01
38 2.2758439006345263e-01 1.2013663891848610e-01 -2.8683706499871747e-01
37 2.2758439006355974e-01 1.2013663891846636e-01 -2.8683706499869105e-01
43 2.2758439006345743e-01 1.2013663891848665e-01 -2.8683706499871320e-01
48 2.2758439006364461e-01 1.2013663891846053e-01 -2.8683706499865375e-01
54 2.2758439006364398e-01 1.2013663891846847e-01 -2.8683706499866779e-01
49 2.2758439006357495e-01 1.2013663891846428e-01 -2.8683706499866368e-01
13 2.2758439006347611e-01 1.2013663891847486e-01 -2.8683706499867229e-01
8 -4.0361277079590599e-02 -3.1833994489099751e-02 -2.7404012551254736e-01
9 -4.5334776275482977e-02 -3.4953764409707690e-02 -2.7404945526165725e-01
4 -5.1073604447682261e-02 -2.9120544628472193e-02 -2.6146529042439753e-01
33 -7.6092885590583276e-02 -3.0184339001056684e-02 -2.5121306930988180e-01
10 -7.0158829543414070e-02 -2.8366365030434524e-02 -2.5100115209160617e-01
34 -6.0906405935026338e-02 -2.4764663626455307e-02 -2.5225158993898772e-01
18 -1.3817181104692158e-01 5.3135253547448406e-03 -2.7919734845745942e-01
72 -1.3817181104692158e-01 5.3135253547448406e-03 -2.7919734845745942e-01
73 -1.3817181104674775e-01 5.3135253547640458e-03 -2.7919734845772493e-01
68 -1.3817181104673285e-01 5.3135253547111072e-03 -2.7919734845742578e-01
92 -1.3817181104666168e-01 5.3135253547551041e-03 -2.7919734845770960e-01
64 -1.3817181104666168e-01 5.3135253547551041e-03 -2.7919734845770960e-01
63 -1.3817181104671866e-01 5.3135253547722987e-03 -2.7919734845776628e-01
21 -4.6381980990635105e-03 -6.5895161208211941e-02 5.7544485653649807e-02
41 -4.6381980990634784e-03 -6.5895161208213676e-02 5.7544485653648558e-02
16 -4.6381980990650952e-03 -6.5895161208213163e-02 5.7544485653647490e-02
27 -4.6381980990639476e-03 -6.5895161208209305e-02 5.7544485653649863e-02
17 -4.6381980990640136e-03 -6.5895161208213510e-02 5.7544485653648808e-02
22 -4.6381980990679549e-03 -6.5895161208206016e-02 5.7544485653648121e-02
47 -4.6381980990646667e-03 -6.5895161208211289e-02 5.7544485653649557e-02
40 3.2327875455237798e-01 8.9710189491236537e-03 -1.2507805739526439e-02
6 3.2327875465556832e-01 8.9710192862764299e-03 -1.2507805929086202e-02
15 3.2327878408257571e-01 8.9711153933369914e-03 -1.2507859891320633e-02
11 3.2327875368534520e-01 8.9710161240284057e-03 -1.2507804153677218e-02
36 4.6324181995791031e-01 4.3208008025855331e-02 4.7144284443645414e-02
46 3.4340581558314953e-01 -1.1220121126351704e-03 -4.1589931211608130e-02
57 3.4340581720231883e-01 -1.1220119192801073e-03 -4.1589931847768595e-02
32 3.4340581521997254e-01 -1.1220121215699598e-03 -4.1589931065004908e-02
65 3.4340582239794548e-01 -1.1220110189261883e-03 -4.1589933858665086e-02
81 -4.3258934206063404e-01 4.1208136837482628e-01 2.4000249062247631e-01
61 -4.3258934206063404e-01 4.1208136837482628e-01 2.4000249062247631e-01
42 -4.3258934206063404e-01 4.1208136837482628e-01 2.4000249062247631e-01
87 -4.3258934206063404e-01 4.1208136837482628e-01 2.4000249062247631e-01
82 -4.3258934206067068e-01 4.1208136837484932e-01 2.4000249062248816e-01
77 -4.3258934206066801e-01 4.1208136837486409e-01 2.4000249062248813e-01
86 -4.3258934206066801e-01 4.1208136837486409e-01 2.4000249062248813e-01
85 1.2046468964130233e-01 8.5179381840496143e-02 4.7054717623283437e-01
39 1.2046468964130233e-01 8.5179381840496143e-02 4.7054717623283437e-01
59 1.2046468964130233e-01 8.5179381840496143e-02 4.7054717623283437e-01
44 1.2046468964136606e-01 8.5179381840441590e-02 4.7054717623311565e-01
84 1.2046468964130233e-01 8.5179381840496143e-02 4.7054717623283437e-01
14 1.2046468964136606e-01 8.5179381840441590e-02 4.7054717623311565e-01
80 1.2046468964136606e-01 8.5179381840441590e-02 4.7054717623311565e-01
96 -3.2368378070651410e-01 -4.1053090949475612e-01 3.1190585507266264e-02
62 -3.2368378070651954e-01 -4.1053090949475857e-01 3.1190585507265466e-02
91 -3.2368378070651410e-01 -4.1053090949475612e-01 3.1190585507266264e-02
67 -3.2368378070651954e-01 -4.1053090949475857e-01 3.1190585507265466e-02
76 -3.2368378070651954e-01 -4.1053090949475857e-01 3.1190585507265466e-02
66 -3.2368378070651771e-01 -4.1053090949474408e-01 3.1190585507266323e-02
100 -3.2368378070651410e-01 -4.1053090949475612e-01 3.1190585507266264e-02
95 -1.5308384832370575e-01 -1.3133107221790560e-01 -5.8477175041877147e-02
74 -1.5308384832370575e-01 -1.3133107221790560e-01 -5.8477175041877147e-02
69 -1.5308384832370575e-01 -1.3133107221790560e-01 -5.8477175041877147e-02
25 -1.5308384832370575e-01 -1.3133107221790560e-01 -5.8477175041877147e-02
99 -1.5308384832370575e-01 -1.3133107221790560e-01 -5.8477175041877147e-02
98 -1.5308384832370575e-01 -1.3133107221790560e-01 -5.8477175041877147e-02
79 -1.5308384832370575e-01 -1.3133107221790560e-01 -5.8477175041877147e-02
90 1.5992496653521565e-02 -4.6633557199635807e-02 2.1071258418734595e-01
55 -7.2708266235581395e-02 -1.0103077268349857e-01 2.1085250096693031e-01
24 -7.2707977651303352e-02 -1.0103086891009078e-01 2.1085201345889729e-01
19 -7.2708021704747952e-02 -1.0103085417951399e-01 2.1085208465545374e-01
20 -7.2708281136566619e-02 -1.0103076771973626e-01 2.1085252649778918e-01
88 -6.4379888860761542e-02 -4.3161528836509158e-02 2.1117576056726720e-01
93 -6.4379854527148658e-02 -4.3161515816552837e-02 2.1117576538680449e-01
94 -6.4379942032147933e-02 -4.3161548888949880e-02 2.1117575492242169e-01
89 -6.4379634998094390e-02 -4.3161432868725785e-02 2.1117579130901540e-01
31 3.7148542252492228e-02 -2.7269039158098179e-01 3.0498371342013869e-01
35 3.7148542252495365e-02 -2.7269039158097996e-01 3.0498371342014791e-01
26 3.7148542252500485e-02 -2.7269039158098030e-01 3.0498371342013986e-01
7 3.7148542252490847e-02 -2.7269039158098030e-01 3.0498371342015318e-01
12 3.7148542252495378e-02 -2.7269039158098407e-01 3.0498371342015723e-01
51 3.7148542252493214e-02 -2.7269039158098030e-01 3.0498371342013986e-01
71 3.7148542252495365e-02 -2.7269039158097996e-01 3.0498371342014791e-01
23 3.5823838533918601e-01 8.3756403145448119e-02 -6.6512555609894624e-03
2 3.5823838533918601e-01 8.3756403145448119e-02 -6.6512555609894624e-03
3 3.5823838533918601e-01 8.3756403145448119e-02 -6.6512555609894624e-03
5 3.5823838533918601e-01 8.3756403145448119e-02 -6.6512555609894624e-03
50 3.5823838533918601e-01 8.3756403145448119e-02 -6.6512555609894624e-03
56 3.5823838533918601e-01 8.3756403145448119e-02 -6.6512555609894624e-03
28 3.5823838533918601e-01 8.3756403145448119e-02 -6.6512555609894624e-03
