LAMMPS data file via write_data, version 30 Jul 2016, timestep = 50400000

100 atoms
2 atom types

0.0000000000000000e+00 2.0000000000000000e+01 xlo xhi
0.0000000000000000e+00 2.0000000000000000e+01 ylo yhi
0.0000000000000000e+00 2.0000000000000000e+01 zlo zhi

Masses

1 3.896
2 4.31

Atoms # meso-molecular

43 1 2 1.0276035906111607e+00 -2.9708509499693503e+02 1.0000000000000000e+00 4.3096738224012716e+00 7.2730475462623838e+00 8.7530036840483183e-01 
54 1 2 1.0276035906111605e+00 -1.0191875327986273e+02 1.0000000000000000e+00 4.3096738224012290e+00 7.2730475462624309e+00 8.7530036840483116e-01 
49 1 2 1.0276035906111589e+00 -2.8176994763429298e+02 1.0000000000000000e+00 4.3096738224012139e+00 7.2730475462623536e+00 8.7530036840478553e-01 
37 1 2 1.0276035906111605e+00 -2.5987268685838683e+02 1.0000000000000000e+00 4.3096738224012316e+00 7.2730475462624220e+00 8.7530036840482550e-01 
38 1 2 1.0276035906111607e+00 -2.9243012714451913e+02 1.0000000000000000e+00 4.3096738224012698e+00 7.2730475462623829e+00 8.7530036840483150e-01 
48 1 2 1.0276035906111600e+00 -1.5598934054013191e+02 1.0000000000000000e+00 4.3096738224012245e+00 7.2730475462624193e+00 8.7530036840481795e-01 
13 1 2 1.0276035906111605e+00 -2.8027005490260052e+02 1.0000000000000000e+00 4.3096738224012450e+00 7.2730475462623634e+00 8.7530036840481318e-01 
97 1 2 1.0295359344185873e+00 -9.8519381005497792e+01 1.0000000000000000e+00 1.8814785791621798e+00 5.5191532040408182e+00 4.8392187851918731e+00 
30 1 2 1.0295353625728900e+00 -1.2715690880637251e+02 1.0000000000000000e+00 1.8816221317963209e+00 5.5191079311575111e+00 4.8395271190228168e+00 
75 1 2 1.0295354237909162e+00 -1.9694898009181452e+02 1.0000000000000000e+00 1.8816295624498853e+00 5.5190980429684906e+00 4.8395326127365861e+00 
60 1 2 1.0295354567518744e+00 -2.7433576099899773e+02 1.0000000000000000e+00 1.8816560630545893e+00 5.5190555557054966e+00 4.8395450350172506e+00 
45 1 2 1.0295354989992549e+00 -1.7187679346478106e+02 1.0000000000000000e+00 1.8816521045128163e+00 5.5190493432756691e+00 4.8395268699098146e+00 
70 1 2 1.0295360093576449e+00 -2.2177090678114237e+02 1.0000000000000000e+00 1.8816529664614254e+00 5.5190482107651873e+00 4.8395222746346933e+00 
10 1 2 1.0258407246252830e+00 -1.8553113304896394e+02 1.0000000000000000e+00 3.7674795923052535e+00 6.6004239338130324e+00 3.8506750700923278e+00 
33 1 2 1.0260028878995548e+00 -1.3481784896061555e+02 1.0000000000000000e+00 3.7521807024226099e+00 6.6138715104806725e+00 3.8467504103475267e+00 
34 1 2 1.0255916586719012e+00 -1.4671582309766495e+02 1.0000000000000000e+00 3.8369509344565182e+00 6.5467882627920071e+00 3.9180405102527138e+00 
4 1 2 1.0261420638987373e+00 -4.7798228394170657e+01 1.0000000000000000e+00 3.9222486495096094e+00 6.4212603354011337e+00 4.1569146684757081e+00 
9 1 2 1.0254887927153242e+00 -2.0280045761119402e+02 1.0000000000000000e+00 3.9142610987435349e+00 6.4311670512703722e+00 4.2741669950421910e+00 
8 1 2 1.0255091075844169e+00 -1.2914064568183863e+02 1.0000000000000000e+00 3.9067733567675411e+00 6.4765996854662653e+00 4.2123854290574752e+00 
85 1 2 1.0154972261737549e+00 -3.2564802972412264e+02 1.0000000000000000e+00 2.2262467770260010e+00 1.6994573924792027e+00 1.8726718609310993e+01 
39 1 2 1.0154972261737549e+00 -2.4267799269071813e+02 1.0000000000000000e+00 2.2262467770260010e+00 1.6994573924792027e+00 1.8726718609310993e+01 
59 1 2 1.0154972261737549e+00 -2.8055117526905866e+02 1.0000000000000000e+00 2.2262467770260010e+00 1.6994573924792027e+00 1.8726718609310993e+01 
44 1 2 1.0154972261737549e+00 -2.1112403055106060e+02 1.0000000000000000e+00 2.2262467770260717e+00 1.6994573924791281e+00 1.8726718609311494e+01 
84 1 2 1.0154972261737549e+00 -3.1479754955046610e+02 1.0000000000000000e+00 2.2262467770260010e+00 1.6994573924792027e+00 1.8726718609310993e+01 
14 1 2 1.0154972261737549e+00 -2.3514894848352324e+02 1.0000000000000000e+00 2.2262467770260717e+00 1.6994573924791281e+00 1.8726718609311494e+01 
80 1 2 1.0154972261737549e+00 -2.7907607996788801e+02 1.0000000000000000e+00 2.2262467770260717e+00 1.6994573924791281e+00 1.8726718609311494e+01 
18 1 2 1.0154972261737549e+00 -2.8365168815038442e+02 1.0000000000000000e+00 2.3441996952268682e+00 1.3894069551723755e+01 6.0137676187834623e+00 
63 1 2 1.0154972261737549e+00 -2.0876601011551199e+02 1.0000000000000000e+00 2.3441996952267123e+00 1.3894069551723550e+01 6.0137676187835201e+00 
64 1 2 1.0154972261737549e+00 -2.1647866748712690e+02 1.0000000000000000e+00 2.3441996952267465e+00 1.3894069551723479e+01 6.0137676187836036e+00 
92 1 2 1.0154972261737549e+00 -1.5265723564958364e+02 1.0000000000000000e+00 2.3441996952267465e+00 1.3894069551723479e+01 6.0137676187836036e+00 
68 1 2 1.0154972261737549e+00 -2.1104127924951243e+02 1.0000000000000000e+00 2.3441996952268562e+00 1.3894069551723659e+01 6.0137676187834632e+00 
73 1 2 1.0154972261737549e+00 -2.2743137553035390e+02 1.0000000000000000e+00 2.3441996952267226e+00 1.3894069551723520e+01 6.0137676187835698e+00 
72 1 2 1.0154972261737549e+00 -2.1909618849250015e+02 1.0000000000000000e+00 2.3441996952268682e+00 1.3894069551723755e+01 6.0137676187834623e+00 
76 1 2 1.0304247560279796e+00 -2.2875095020828203e+02 1.0000000000000000e+00 5.5116297754962087e+00 1.1142815426218645e+01 7.8433732526781723e+00 
67 1 2 1.0304247560279796e+00 -2.0571013355123583e+02 1.0000000000000000e+00 5.5116297754962087e+00 1.1142815426218645e+01 7.8433732526781723e+00 
62 1 2 1.0304247560279796e+00 -1.1486746627113365e+02 1.0000000000000000e+00 5.5116297754962087e+00 1.1142815426218645e+01 7.8433732526781723e+00 
91 1 2 1.0304247560278978e+00 -2.1376592176567161e+02 1.0000000000000000e+00 5.5116297754975898e+00 1.1142815426216586e+01 7.8433732526778641e+00 
96 1 2 1.0304247560278978e+00 -2.9232060072717439e+02 1.0000000000000000e+00 5.5116297754975898e+00 1.1142815426216586e+01 7.8433732526778641e+00 
100 1 2 1.0304247560278978e+00 -2.5133055957783935e+02 1.0000000000000000e+00 5.5116297754975898e+00 1.1142815426216586e+01 7.8433732526778641e+00 
66 1 2 1.0304247560279671e+00 -2.0266787826299256e+02 1.0000000000000000e+00 5.5116297754950772e+00 1.1142815426218542e+01 7.8433732526791928e+00 
6 1 2 1.0220850437605096e+00 -2.4125704504458312e+02 1.0000000000000000e+00 6.6346392690050937e+00 1.3897036880025642e+01 8.7066565078363478e+00 
15 1 2 1.0220850424537073e+00 -2.5255193141292975e+02 1.0000000000000000e+00 6.6346392449527336e+00 1.3897036788438653e+01 8.7066565679931252e+00 
11 1 2 1.0220850438034881e+00 -2.7692022733915201e+02 1.0000000000000000e+00 6.6346392697975425e+00 1.3897036883039103e+01 8.7066565058559302e+00 
40 1 2 1.0220850437650826e+00 -3.0538445468080511e+02 1.0000000000000000e+00 6.6346392690895764e+00 1.3897036880347354e+01 8.7066565076249418e+00 
21 1 2 1.0222746038783044e+00 -3.2446539101153081e+02 1.0000000000000000e+00 1.1106830707059162e+01 1.8364786165066844e+00 7.4555537212097729e+00 
41 1 2 1.0222746038783017e+00 -1.4493711592876031e+02 1.0000000000000000e+00 1.1106830707058867e+01 1.8364786165064695e+00 7.4555537212090819e+00 
16 1 2 1.0222746038782990e+00 -3.2784189318575551e+02 1.0000000000000000e+00 1.1106830707058684e+01 1.8364786165068305e+00 7.4555537212076413e+00 
27 1 2 1.0222746038783057e+00 -1.3699426685718470e+02 1.0000000000000000e+00 1.1106830707059411e+01 1.8364786165071698e+00 7.4555537212098146e+00 
17 1 2 1.0222746038782968e+00 -2.5508655370203996e+02 1.0000000000000000e+00 1.1106830707058418e+01 1.8364786165063407e+00 7.4555537212076368e+00 
22 1 2 1.0222746038782990e+00 -2.2154335690377974e+02 1.0000000000000000e+00 1.1106830707058810e+01 1.8364786165072144e+00 7.4555537212074352e+00 
47 1 2 1.0222746038782990e+00 -2.3140905356421041e+02 1.0000000000000000e+00 1.1106830707058757e+01 1.8364786165070539e+00 7.4555537212074929e+00 
42 1 2 1.0154972261737549e+00 -2.3165951907405210e+02 1.0000000000000000e+00 1.0426672690957155e+01 9.2796579395680805e+00 8.1703597672653085e+00 
61 1 2 1.0154972261737549e+00 -1.1098338049151315e+02 1.0000000000000000e+00 1.0426672690957155e+01 9.2796579395680805e+00 8.1703597672653085e+00 
81 1 2 1.0154972261737549e+00 -2.4924845450832021e+02 1.0000000000000000e+00 1.0426672690957155e+01 9.2796579395680805e+00 8.1703597672653085e+00 
87 1 2 1.0154972261737549e+00 -2.4119756450468162e+02 1.0000000000000000e+00 1.0426672690957155e+01 9.2796579395680805e+00 8.1703597672653085e+00 
82 1 2 1.0154972261737549e+00 -2.4644440885317073e+02 1.0000000000000000e+00 1.0426672690957224e+01 9.2796579395683594e+00 8.1703597672652855e+00 
77 1 2 1.0154972261737549e+00 -2.0033582083061754e+02 1.0000000000000000e+00 1.0426672690957275e+01 9.2796579395683594e+00 8.1703597672652997e+00 
86 1 2 1.0154972261737549e+00 -2.4373467936975021e+02 1.0000000000000000e+00 1.0426672690957275e+01 9.2796579395683594e+00 8.1703597672652997e+00 
78 1 2 1.0154972261737549e+00 -2.3889130207416099e+02 1.0000000000000000e+00 7.5263834273386934e+00 9.3325694468264631e-01 1.3139902390515518e+01 
29 1 2 1.0154972261737549e+00 -2.2797684686763790e+02 1.0000000000000000e+00 7.5263834273386934e+00 9.3325694468264631e-01 1.3139902390515518e+01 
1 1 2 1.0154972261737549e+00 -7.8222960814304145e+01 1.0000000000000000e+00 7.5263834273386934e+00 9.3325694468264631e-01 1.3139902390515518e+01 
58 1 2 1.0154972261737549e+00 -2.1167328042876068e+02 1.0000000000000000e+00 7.5263834273386934e+00 9.3325694468264631e-01 1.3139902390515518e+01 
83 1 2 1.0154972261737549e+00 -2.2069017954979779e+02 1.0000000000000000e+00 7.5263834273386934e+00 9.3325694468264631e-01 1.3139902390515518e+01 
52 1 2 1.0154972261737549e+00 -2.1684573431801721e+02 1.0000000000000000e+00 7.5263834273386934e+00 9.3325694468264631e-01 1.3139902390515518e+01 
53 1 2 1.0154972261737549e+00 -2.9642217754326305e+02 1.0000000000000000e+00 7.5263834273386934e+00 9.3325694468264631e-01 1.3139902390515518e+01 
46 1 2 1.0421475477980606e+00 -2.1302653979550581e+02 1.0000000000000000e+00 7.4344730916679689e+00 1.4645780675141490e+01 9.7606035262811606e+00 
57 1 2 1.0421475477980662e+00 -2.1536599425210230e+02 1.0000000000000000e+00 7.4344730916738735e+00 1.4645780675144552e+01 9.7606035262771638e+00 
32 1 2 1.0421475477980584e+00 -2.1784281602759111e+02 1.0000000000000000e+00 7.4344730916667610e+00 1.4645780675140559e+01 9.7606035262820967e+00 
65 1 2 1.0421475477978510e+00 -1.9068484186050247e+02 1.0000000000000000e+00 7.4344730916935386e+00 1.4645780675152210e+01 9.7606035262662409e+00 
36 1 2 1.0287001978435188e+00 -3.1183589454904984e+02 1.0000000000000000e+00 7.5163438316163838e+00 1.4572715164894682e+01 8.8341862060107790e+00 
23 1 2 1.0603276625589100e+00 -2.4560790017899711e+02 1.0000000000000000e+00 8.9278157890691148e+00 1.6448146769567153e+01 1.1665623189139124e+01 
2 1 2 1.0603276625589100e+00 -2.6046700847286928e+02 1.0000000000000000e+00 8.9278157890691148e+00 1.6448146769567153e+01 1.1665623189139124e+01 
3 1 2 1.0603276625589100e+00 -2.8658431177143024e+02 1.0000000000000000e+00 8.9278157890691148e+00 1.6448146769567153e+01 1.1665623189139124e+01 
5 1 2 1.0603276625589100e+00 -1.5653749564368030e+02 1.0000000000000000e+00 8.9278157890691148e+00 1.6448146769567153e+01 1.1665623189139124e+01 
50 1 2 1.0603276625589100e+00 -2.1094744524920685e+02 1.0000000000000000e+00 8.9278157890691148e+00 1.6448146769567153e+01 1.1665623189139124e+01 
56 1 2 1.0603276625589100e+00 -2.6930863558891377e+02 1.0000000000000000e+00 8.9278157890691148e+00 1.6448146769567153e+01 1.1665623189139124e+01 
28 1 2 1.0603276625589100e+00 -2.0542785254054445e+02 1.0000000000000000e+00 8.9278157890691148e+00 1.6448146769567153e+01 1.1665623189139124e+01 
74 1 2 1.0402643906857350e+00 -2.2579080155168199e+02 1.0000000000000000e+00 1.1763248371006403e+01 1.6683660129348649e+01 1.0407849812413742e+01 
98 1 2 1.0402643906857350e+00 -2.5453607797734523e+02 1.0000000000000000e+00 1.1763248371006403e+01 1.6683660129348649e+01 1.0407849812413742e+01 
79 1 2 1.0402643906857350e+00 -2.1620517567890735e+02 1.0000000000000000e+00 1.1763248371006403e+01 1.6683660129348649e+01 1.0407849812413742e+01 
95 1 2 1.0402643906857350e+00 -1.0024662531547889e+02 1.0000000000000000e+00 1.1763248371006403e+01 1.6683660129348649e+01 1.0407849812413742e+01 
99 1 2 1.0402643906857350e+00 -2.6005712004904689e+02 1.0000000000000000e+00 1.1763248371006403e+01 1.6683660129348649e+01 1.0407849812413742e+01 
25 1 2 1.0402643906857350e+00 -2.4045544441744229e+02 1.0000000000000000e+00 1.1763248371006403e+01 1.6683660129348649e+01 1.0407849812413742e+01 
69 1 2 1.0402643906857350e+00 -2.2534000867931476e+02 1.0000000000000000e+00 1.1763248371006403e+01 1.6683660129348649e+01 1.0407849812413742e+01 
90 1 2 1.0143217126719963e+00 -1.8442294563744895e+02 1.0000000000000000e+00 1.5297378425509647e+01 7.6076740112364116e-01 6.9266013011135934e+00 
89 1 2 1.0270691167596422e+00 -2.7806404780011843e+02 1.0000000000000000e+00 1.4101982021555932e+01 6.0700279092201548e-01 6.9480555432790583e+00 
88 1 2 1.0270691267002676e+00 -2.6783080035032123e+02 1.0000000000000000e+00 1.4101979797089424e+01 6.0700780097477558e-01 6.9480511825495999e+00 
93 1 2 1.0270691253449649e+00 -2.8085171065776223e+02 1.0000000000000000e+00 1.4101980108105613e+01 6.0700713871017353e-01 6.9480517264466988e+00 
94 1 2 1.0270691287689317e+00 -2.7957209285009611e+02 1.0000000000000000e+00 1.4101979343367299e+01 6.0700886874402404e-01 6.9480502141593252e+00 
55 1 2 1.0342707415617909e+00 -2.2332111116400333e+02 1.0000000000000000e+00 1.5132986967972217e+01 1.4422616099189220e+00 7.4813217144425890e+00 
24 1 2 1.0342707126179829e+00 -3.5769536813139814e+02 1.0000000000000000e+00 1.5132988018014604e+01 1.4422603696221215e+00 7.4813223216050799e+00 
19 1 2 1.0342707175035497e+00 -4.4476888560511549e+02 1.0000000000000000e+00 1.5132987840752977e+01 1.4422605800972750e+00 7.4813222174890184e+00 
20 1 2 1.0342707430039397e+00 -4.0910930529088745e+02 1.0000000000000000e+00 1.5132986915651305e+01 1.4422616715976542e+00 7.4813216843701005e+00 
71 1 2 1.0154972261737549e+00 -2.3896429119100901e+02 1.0000000000000000e+00 1.9967367873134936e+01 1.8789018574350219e+01 1.2450721614052931e+01 
51 1 2 1.0154972261737549e+00 -2.2018491220017523e+02 1.0000000000000000e+00 1.9967367873135007e+01 1.8789018574350180e+01 1.2450721614052670e+01 
12 1 2 1.0154972261737549e+00 -2.4308030928230141e+02 1.0000000000000000e+00 1.9967367873134883e+01 1.8789018574349946e+01 1.2450721614052982e+01 
7 1 2 1.0154972261737549e+00 -2.4247498410259760e+02 1.0000000000000000e+00 1.9967367873135007e+01 1.8789018574350234e+01 1.2450721614052670e+01 
26 1 2 1.0154972261737549e+00 -1.0051685945656678e+02 1.0000000000000000e+00 1.9967367873135007e+01 1.8789018574350195e+01 1.2450721614052670e+01 
35 1 2 1.0154972261737549e+00 -1.8251737303799564e+02 1.0000000000000000e+00 1.9967367873134936e+01 1.8789018574350219e+01 1.2450721614052931e+01 
31 1 2 1.0154972261737549e+00 -2.1094290910634641e+02 1.0000000000000000e+00 1.9967367873134883e+01 1.8789018574349814e+01 1.2450721614052931e+01 

Velocities

43 -2.5310194502146982e-01 -6.4996507491085695e-02 -3.7167842000704060e-01
54 -2.5310194502147310e-01 -6.4996507491085750e-02 -3.7167842000703694e-01
49 -2.5310194502147837e-01 -6.4996507491093425e-02 -3.7167842000702023e-01
37 -2.5310194502147210e-01 -6.4996507491085931e-02 -3.7167842000703644e-01
38 -2.5310194502146999e-01 -6.4996507491085834e-02 -3.7167842000703982e-01
48 -2.5310194502147521e-01 -6.4996507491087430e-02 -3.7167842000703255e-01
13 -2.5310194502147221e-01 -6.4996507491088068e-02 -3.7167842000703805e-01
97 2.5595047862939823e-02 1.6072693943857647e-02 -2.3127321918219279e-01
30 2.5654383758304068e-02 1.6049107113534630e-02 -2.3112451015228686e-01
75 2.5658053434771153e-02 1.6044561907682602e-02 -2.3112199416646073e-01
60 2.5672349826741010e-02 1.6025532649085739e-02 -2.3111735761853749e-01
45 2.5669803533465575e-02 1.6022143419155126e-02 -2.3112563427917254e-01
70 2.5669642053322509e-02 1.6021215233552571e-02 -2.3112728424315687e-01
10 -4.0678520329844314e-03 1.8192462900583552e-02 -2.8676854738170365e-01
33 7.0530138749882857e-04 1.4525449286951349e-02 -2.8691563889487931e-01
34 -2.4893883804360625e-02 3.2310892277544412e-02 -2.9633719048841212e-01
4 -1.6896366064739956e-02 6.6625260345243117e-02 -3.3201402839442218e-01
9 -1.0725563039548575e-02 6.2393878513923473e-02 -3.4733119889949698e-01
8 -1.7188951335490074e-02 5.2522683986300403e-02 -3.4265205585496084e-01
85 5.4069222132360831e-02 -7.2863327642223891e-02 4.8957645907227659e-01
39 5.4069222132360831e-02 -7.2863327642223891e-02 4.8957645907227659e-01
59 5.4069222132360831e-02 -7.2863327642223891e-02 4.8957645907227659e-01
44 5.4069222132359630e-02 -7.2863327642213843e-02 4.8957645907226666e-01
84 5.4069222132360831e-02 -7.2863327642223891e-02 4.8957645907227659e-01
14 5.4069222132359630e-02 -7.2863327642213843e-02 4.8957645907226666e-01
80 5.4069222132359630e-02 -7.2863327642213843e-02 4.8957645907226666e-01
18 1.0826188726387151e-01 2.0850123832227638e-01 -7.5551069971089610e-02
63 1.0826188726386260e-01 2.0850123832228265e-01 -7.5551069971106374e-02
64 1.0826188726387080e-01 2.0850123832226974e-01 -7.5551069971097215e-02
92 1.0826188726387080e-01 2.0850123832226974e-01 -7.5551069971097215e-02
68 1.0826188726389255e-01 2.0850123832230039e-01 -7.5551069971089596e-02
73 1.0826188726386501e-01 2.0850123832227863e-01 -7.5551069971097465e-02
72 1.0826188726387151e-01 2.0850123832227638e-01 -7.5551069971089610e-02
76 -5.9555274640282507e-01 1.6249271577974653e-01 1.1080605689602988e-01
67 -5.9555274640282507e-01 1.6249271577974653e-01 1.1080605689602988e-01
62 -5.9555274640282507e-01 1.6249271577974653e-01 1.1080605689602988e-01
91 -5.9555274640161415e-01 1.6249271577849919e-01 1.1080605689593385e-01
96 -5.9555274640161415e-01 1.6249271577849919e-01 1.1080605689593385e-01
100 -5.9555274640161415e-01 1.6249271577849919e-01 1.1080605689593385e-01
66 -5.9555274640372158e-01 1.6249271577966459e-01 1.1080605689686202e-01
6 2.8710780882685760e-01 1.2897291069195488e-01 -4.9561072144679454e-02
15 2.8710779456197616e-01 1.2897288568226706e-01 -4.9561051067618107e-02
11 2.8710780929667357e-01 1.2897291151484019e-01 -4.9561072838485640e-02
40 2.8710780887714565e-01 1.2897291077983941e-01 -4.9561072218563214e-02
21 -9.2975350612338525e-02 -2.5525350441375372e-01 1.2702934470460167e-01
41 -9.2975350612211016e-02 -2.5525350441370792e-01 1.2702934470480357e-01
16 -9.2975350612132232e-02 -2.5525350441382388e-01 1.2702934470524249e-01
27 -9.2975350612369431e-02 -2.5525350441392214e-01 1.2702934470457886e-01
17 -9.2975350612058277e-02 -2.5525350441367622e-01 1.2702934470524602e-01
22 -9.2975350612150717e-02 -2.5525350441395311e-01 1.2702934470529670e-01
47 -9.2975350612150398e-02 -2.5525350441389566e-01 1.2702934470528410e-01
42 -1.1462373469376841e-01 1.3233923074230888e-01 2.5023132707955509e-01
61 -1.1462373469376841e-01 1.3233923074230888e-01 2.5023132707955509e-01
81 -1.1462373469376841e-01 1.3233923074230888e-01 2.5023132707955509e-01
87 -1.1462373469376841e-01 1.3233923074230888e-01 2.5023132707955509e-01
82 -1.1462373469370654e-01 1.3233923074230405e-01 2.5023132707953571e-01
77 -1.1462373469373362e-01 1.3233923074230408e-01 2.5023132707954565e-01
86 -1.1462373469373362e-01 1.3233923074230408e-01 2.5023132707954565e-01
78 2.7558330459734978e-02 3.3338897185912114e-01 -3.5957086692838947e-01
29 2.7558330459734978e-02 3.3338897185912114e-01 -3.5957086692838947e-01
1 2.7558330459734978e-02 3.3338897185912114e-01 -3.5957086692838947e-01
58 2.7558330459734978e-02 3.3338897185912114e-01 -3.5957086692838947e-01
83 2.7558330459734978e-02 3.3338897185912114e-01 -3.5957086692838947e-01
52 2.7558330459734978e-02 3.3338897185912114e-01 -3.5957086692838947e-01
53 2.7558330459734978e-02 3.3338897185912114e-01 -3.5957086692838947e-01
46 3.2540926908896728e-01 -3.5847903309118703e-02 -1.3206919267640033e-01
57 3.2540926908163720e-01 -3.5847903312971552e-02 -1.3206919267375655e-01
32 3.2540926909047035e-01 -3.5847903308004789e-02 -1.3206919267714823e-01
65 3.2540926905699669e-01 -3.5847903323374807e-02 -1.3206919266667230e-01
36 5.1169525197692767e-01 1.7036732488965964e-01 1.8710032867462551e-02
23 2.8750888390268242e-01 7.9815815163392742e-02 5.8872309933169387e-02
2 2.8750888390268242e-01 7.9815815163392742e-02 5.8872309933169387e-02
3 2.8750888390268242e-01 7.9815815163392742e-02 5.8872309933169387e-02
5 2.8750888390268242e-01 7.9815815163392742e-02 5.8872309933169387e-02
50 2.8750888390268242e-01 7.9815815163392742e-02 5.8872309933169387e-02
56 2.8750888390268242e-01 7.9815815163392742e-02 5.8872309933169387e-02
28 2.8750888390268242e-01 7.9815815163392742e-02 5.8872309933169387e-02
74 -3.0327160578371416e-02 -1.4323502429143134e-01 -1.3394980372216739e-01
98 -3.0327160578371416e-02 -1.4323502429143134e-01 -1.3394980372216739e-01
79 -3.0327160578371416e-02 -1.4323502429143134e-01 -1.3394980372216739e-01
95 -3.0327160578371416e-02 -1.4323502429143134e-01 -1.3394980372216739e-01
99 -3.0327160578371416e-02 -1.4323502429143134e-01 -1.3394980372216739e-01
25 -3.0327160578371416e-02 -1.4323502429143134e-01 -1.3394980372216739e-01
69 -3.0327160578371416e-02 -1.4323502429143134e-01 -1.3394980372216739e-01
90 9.9187879386315889e-02 9.5630829257925022e-03 3.0808850338856736e-01
89 8.4216291173068447e-02 -1.4196513752619266e-01 2.0574579221920183e-01
88 8.4215348679021057e-02 -1.4196319658326922e-01 2.0574413116251963e-01
93 8.4215479959786205e-02 -1.4196345381507669e-01 2.0574433790484992e-01
94 8.4215155851111154e-02 -1.4196278370937232e-01 2.0574376177237588e-01
55 5.0463300325557833e-02 -9.6627003736278777e-02 2.1802045294027209e-01
24 5.0461715612409426e-02 -9.6624725032945114e-02 2.1801916406372152e-01
19 5.0461983152755165e-02 -9.6625111788446599e-02 2.1801938489317368e-01
20 5.0463379286082466e-02 -9.6627117046068564e-02 2.1802051679908327e-01
71 8.2996582935477195e-02 -3.7151321448731489e-01 1.8710317342578153e-01
51 8.2996582935461041e-02 -3.7151321448738145e-01 1.8710317342580515e-01
12 8.2996582935473726e-02 -3.7151321448740632e-01 1.8710317342581495e-01
7 8.2996582935461041e-02 -3.7151321448737673e-01 1.8710317342580352e-01
26 8.2996582935461041e-02 -3.7151321448737962e-01 1.8710317342580512e-01
35 8.2996582935477195e-02 -3.7151321448731489e-01 1.8710317342578153e-01
31 8.2996582935467050e-02 -3.7151321448734304e-01 1.8710317342578153e-01
