LAMMPS data file via write_data, version 30 Jul 2016, timestep = 50000000

4620 atoms
8 atom types

0.0000000000000000e+00 1.0000000000000000e+02 xlo xhi
0.0000000000000000e+00 4.0000000000000000e+01 ylo yhi
0.0000000000000000e+00 4.0000000000000000e+01 zlo zhi

Masses

1 3.896
2 5.36
3 20.064
4 8.378
5 8.378
6 8.378
7 8.378
8 8.378

Atoms # meso-molecular

1 2 2 1.4432836558517188e+00 -7.7364894983476557e-11 1.0000000000000000e+00 6.9743803276132788e+00 9.9743804163016030e+00 2.9743803276149969e+00 
2 3 2 1.4432836558517188e+00 -1.0315319349634191e-10 1.0000000000000000e+00 8.9746487300814284e+00 9.9743804163016030e+00 2.9743803276149969e+00 
3 4 2 1.4432836558517188e+00 -1.0315319215458263e-10 1.0000000000000000e+00 1.0974687114538749e+01 9.9743804163016030e+00 2.9743803276149969e+00 
4 5 2 1.4432836558517188e+00 -1.0315318984517226e-10 1.0000000000000000e+00 1.2974703446507879e+01 9.9743804163016030e+00 2.9743803276149969e+00 
5 6 2 1.4432836558517188e+00 -1.0315318360782711e-10 1.0000000000000000e+00 1.4974718510242706e+01 9.9743804163016030e+00 2.9743803276149969e+00 
6 7 2 1.4432836558517188e+00 -1.0315318412665149e-10 1.0000000000000000e+00 1.6974745186972019e+01 9.9743804163016030e+00 2.9743803276149969e+00 
7 8 2 1.4432836558517188e+00 -1.0315318939545131e-10 1.0000000000000000e+00 1.8974796985139413e+01 9.9743804163016030e+00 2.9743803276149969e+00 
8 9 2 1.4432836558517188e+00 -1.0315318750684459e-10 1.0000000000000000e+00 2.0974891572767316e+01 9.9743804163016030e+00 2.9743803276149969e+00 
9 10 2 1.4432836558517188e+00 -1.0315319052399796e-10 1.0000000000000000e+00 2.2975053411369593e+01 9.9743804163016030e+00 2.9743803276149969e+00 
10 11 2 1.4432836558517188e+00 -1.0315319222943786e-10 1.0000000000000000e+00 2.4975314557407973e+01 9.9743804163016030e+00 2.9743803276149969e+00 
11 12 2 1.4432836558517188e+00 -1.0315319256568993e-10 1.0000000000000000e+00 2.6975714671099730e+01 9.9743804163016030e+00 2.9743803276149969e+00 
12 13 2 1.4432836558517188e+00 -1.0315319629700709e-10 1.0000000000000000e+00 2.8976301372414969e+01 9.9743804163016030e+00 2.9743803276149969e+00 
13 14 2 1.4432836558517188e+00 -1.0315316305665331e-10 1.0000000000000000e+00 3.0977129892076039e+01 9.9743804163016030e+00 2.9743803276149969e+00 
14 15 2 1.4432836558517188e+00 -1.0315316656041275e-10 1.0000000000000000e+00 3.2978260079445420e+01 9.9743804163016030e+00 2.9743803276149969e+00 
463 464 2 1.4432836558517188e+00 -1.0315319355481098e-10 1.0000000000000000e+00 6.9743803276132788e+00 1.1974888712778554e+01 2.9743803276149969e+00 
464 465 2 1.4432836558517188e+00 -1.2894149206767186e-10 1.0000000000000000e+00 8.9746487300814284e+00 1.1974888712778554e+01 2.9743803276149969e+00 
465 466 2 1.4432836558517188e+00 -1.2894149072590493e-10 1.0000000000000000e+00 1.0974687114538749e+01 1.1974888712778554e+01 2.9743803276149969e+00 
466 467 2 1.4432836558517188e+00 -1.2894148841647981e-10 1.0000000000000000e+00 1.2974703446507879e+01 1.1974888712778554e+01 2.9743803276149969e+00 
467 468 2 1.4432836558517188e+00 -1.2894148217913148e-10 1.0000000000000000e+00 1.4974718510242706e+01 1.1974888712778554e+01 2.9743803276149969e+00 
468 469 2 1.4432836558517188e+00 -1.2894148269796111e-10 1.0000000000000000e+00 1.6974745186972019e+01 1.1974888712778554e+01 2.9743803276149969e+00 
469 470 2 1.4432836558517188e+00 -1.2894148796676073e-10 1.0000000000000000e+00 1.8974796985139413e+01 1.1974888712778554e+01 2.9743803276149969e+00 
470 471 2 1.4432836558517188e+00 -1.2894148607817554e-10 1.0000000000000000e+00 2.0974891572767316e+01 1.1974888712778554e+01 2.9743803276149969e+00 
471 472 2 1.4432836558517188e+00 -1.2894148909531827e-10 1.0000000000000000e+00 2.2975053411369593e+01 1.1974888712778554e+01 2.9743803276149969e+00 
472 473 2 1.4432836558517188e+00 -1.2894149080076480e-10 1.0000000000000000e+00 2.4975314557407973e+01 1.1974888712778554e+01 2.9743803276149969e+00 
473 474 2 1.4432836558517188e+00 -1.2894149113701896e-10 1.0000000000000000e+00 2.6975714671099730e+01 1.1974888712778554e+01 2.9743803276149969e+00 
474 475 2 1.4432836558517188e+00 -1.2894149486833977e-10 1.0000000000000000e+00 2.8976301372414969e+01 1.1974888712778554e+01 2.9743803276149969e+00 
475 476 2 1.4432836558517188e+00 -1.2894146162796639e-10 1.0000000000000000e+00 3.0977129892076039e+01 1.1974888712778554e+01 2.9743803276149969e+00 
476 477 2 1.4432836558517188e+00 -1.2894146513174597e-10 1.0000000000000000e+00 3.2978260079445420e+01 1.1974888712778554e+01 2.9743803276149969e+00 
925 926 2 1.4432836558517188e+00 -1.0315319159776449e-10 1.0000000000000000e+00 6.9743803276132788e+00 1.3976905107162111e+01 2.9743803276149969e+00 
926 927 2 1.4432836558517188e+00 -1.2894149011061754e-10 1.0000000000000000e+00 8.9746487300814284e+00 1.3976905107162111e+01 2.9743803276149969e+00 
927 928 2 1.4432836558517188e+00 -1.2894148876886089e-10 1.0000000000000000e+00 1.0974687114538749e+01 1.3976905107162111e+01 2.9743803276149969e+00 
928 929 2 1.4432836558517188e+00 -1.2894148645943334e-10 1.0000000000000000e+00 1.2974703446507879e+01 1.3976905107162111e+01 2.9743803276149969e+00 
929 930 2 1.4432836558517188e+00 -1.2894148022208595e-10 1.0000000000000000e+00 1.4974718510242706e+01 1.3976905107162111e+01 2.9743803276149969e+00 
930 931 2 1.4432836558517188e+00 -1.2894148074091945e-10 1.0000000000000000e+00 1.6974745186972019e+01 1.3976905107162111e+01 2.9743803276149969e+00 
931 932 2 1.4432836558517188e+00 -1.2894148600971747e-10 1.0000000000000000e+00 1.8974796985139413e+01 1.3976905107162111e+01 2.9743803276149969e+00 
932 933 2 1.4432836558517188e+00 -1.2894148412113000e-10 1.0000000000000000e+00 2.0974891572767316e+01 1.3976905107162111e+01 2.9743803276149969e+00 
933 934 2 1.4432836558517188e+00 -1.2894148713828119e-10 1.0000000000000000e+00 2.2975053411369593e+01 1.3976905107162111e+01 2.9743803276149969e+00 
934 935 2 1.4432836558517188e+00 -1.2894148884372250e-10 1.0000000000000000e+00 2.4975314557407973e+01 1.3976905107162111e+01 2.9743803276149969e+00 
935 936 2 1.4432836558517188e+00 -1.2894148917997521e-10 1.0000000000000000e+00 2.6975714671099730e+01 1.3976905107162111e+01 2.9743803276149969e+00 
936 937 2 1.4432836558517188e+00 -1.2894149291129049e-10 1.0000000000000000e+00 2.8976301372414969e+01 1.3976905107162111e+01 2.9743803276149969e+00 
937 938 2 1.4432836558517188e+00 -1.2894145967092407e-10 1.0000000000000000e+00 3.0977129892076039e+01 1.3976905107162111e+01 2.9743803276149969e+00 
938 939 2 1.4432836558517188e+00 -1.2894146317470075e-10 1.0000000000000000e+00 3.2978260079445420e+01 1.3976905107162111e+01 2.9743803276149969e+00 
1387 1388 2 1.4432836558517188e+00 -1.0315318290895923e-10 1.0000000000000000e+00 6.9743803276132788e+00 1.5982718622884841e+01 2.9743803276149969e+00 
1388 1389 2 1.4432836558517188e+00 -1.2894148142182356e-10 1.0000000000000000e+00 8.9746487300814284e+00 1.5982718622884841e+01 2.9743803276149969e+00 
1389 1390 2 1.4432836558517188e+00 -1.2894148008005206e-10 1.0000000000000000e+00 1.0974687114538749e+01 1.5982718622884841e+01 2.9743803276149969e+00 
1390 1391 2 1.4432836558517188e+00 -1.2894147777063190e-10 1.0000000000000000e+00 1.2974703446507879e+01 1.5982718622884841e+01 2.9743803276149969e+00 
1391 1392 2 1.4432836558517188e+00 -1.2894147153328704e-10 1.0000000000000000e+00 1.4974718510242706e+01 1.5982718622884841e+01 2.9743803276149969e+00 
1392 1393 2 1.4432836558517188e+00 -1.2894147205211514e-10 1.0000000000000000e+00 1.6974745186972019e+01 1.5982718622884841e+01 2.9743803276149969e+00 
1393 1394 2 1.4432836558517188e+00 -1.2894147732091691e-10 1.0000000000000000e+00 1.8974796985139413e+01 1.5982718622884841e+01 2.9743803276149969e+00 
1394 1395 2 1.4432836558517188e+00 -1.2894147543232546e-10 1.0000000000000000e+00 2.0974891572767316e+01 1.5982718622884841e+01 2.9743803276149969e+00 
1395 1396 2 1.4432836558517188e+00 -1.2894147844947677e-10 1.0000000000000000e+00 2.2975053411369593e+01 1.5982718622884841e+01 2.9743803276149969e+00 
1396 1397 2 1.4432836558517188e+00 -1.2894148015491547e-10 1.0000000000000000e+00 2.4975314557407973e+01 1.5982718622884841e+01 2.9743803276149969e+00 
1397 1398 2 1.4432836558517188e+00 -1.2894148049117036e-10 1.0000000000000000e+00 2.6975714671099730e+01 1.5982718622884841e+01 2.9743803276149969e+00 
1398 1399 2 1.4432836558517188e+00 -1.2894148422249302e-10 1.0000000000000000e+00 2.8976301372414969e+01 1.5982718622884841e+01 2.9743803276149969e+00 
1399 1400 2 1.4432836558517188e+00 -1.2894145098211789e-10 1.0000000000000000e+00 3.0977129892076039e+01 1.5982718622884841e+01 2.9743803276149969e+00 
1400 1401 2 1.4432836558517188e+00 -1.2894145448590145e-10 1.0000000000000000e+00 3.2978260079445420e+01 1.5982718622884841e+01 2.9743803276149969e+00 
1849 1850 2 1.4432836558517188e+00 -1.0315320859618164e-10 1.0000000000000000e+00 6.9743803276132788e+00 1.7993418611805776e+01 2.9743803276149969e+00 
1850 1851 2 1.4432836558517188e+00 -1.2894150710904696e-10 1.0000000000000000e+00 8.9746487300814284e+00 1.7993418611805776e+01 2.9743803276149969e+00 
1851 1852 2 1.4432836558517188e+00 -1.2894150576727320e-10 1.0000000000000000e+00 1.0974687114538749e+01 1.7993418611805776e+01 2.9743803276149969e+00 
1852 1853 2 1.4432836558517188e+00 -1.2894150345785454e-10 1.0000000000000000e+00 1.2974703446507879e+01 1.7993418611805776e+01 2.9743803276149969e+00 
1853 1854 2 1.4432836558517188e+00 -1.2894149722050446e-10 1.0000000000000000e+00 1.4974718510242706e+01 1.7993418611805776e+01 2.9743803276149969e+00 
1854 1855 2 1.4432836558517188e+00 -1.2894149773933711e-10 1.0000000000000000e+00 1.6974745186972019e+01 1.7993418611805776e+01 2.9743803276149969e+00 
1855 1856 2 1.4432836558517188e+00 -1.2894150300813717e-10 1.0000000000000000e+00 1.8974796985139413e+01 1.7993418611805776e+01 2.9743803276149969e+00 
1856 1857 2 1.4432836558517188e+00 -1.2894150111954994e-10 1.0000000000000000e+00 2.0974891572767316e+01 1.7993418611805776e+01 2.9743803276149969e+00 
1857 1858 2 1.4432836558517188e+00 -1.2894150413669598e-10 1.0000000000000000e+00 2.2975053411369593e+01 1.7993418611805776e+01 2.9743803276149969e+00 
1858 1859 2 1.4432836558517188e+00 -1.2894150584214059e-10 1.0000000000000000e+00 2.4975314557407973e+01 1.7993418611805776e+01 2.9743803276149969e+00 
1859 1860 2 1.4432836558517188e+00 -1.2894150617839543e-10 1.0000000000000000e+00 2.6975714671099730e+01 1.7993418611805776e+01 2.9743803276149969e+00 
1860 1861 2 1.4432836558517188e+00 -1.2894150990971376e-10 1.0000000000000000e+00 2.8976301372414969e+01 1.7993418611805776e+01 2.9743803276149969e+00 
1861 1862 2 1.4432836558517188e+00 -1.2894147666934129e-10 1.0000000000000000e+00 3.0977129892076039e+01 1.7993418611805776e+01 2.9743803276149969e+00 
1862 1863 2 1.4432836558517188e+00 -1.2894148017312471e-10 1.0000000000000000e+00 3.2978260079445420e+01 1.7993418611805776e+01 2.9743803276149969e+00 
43 44 2 1.4432836558517188e+00 -1.0315319259952432e-10 1.0000000000000000e+00 6.9743803276132788e+00 9.9743804163016030e+00 4.9747700612111840e+00 
44 45 2 1.4432836558517188e+00 -1.2894149111239258e-10 1.0000000000000000e+00 8.9746487300814284e+00 9.9743804163016030e+00 4.9747700612111840e+00 
45 46 2 1.4432836558517188e+00 -1.2894148977062014e-10 1.0000000000000000e+00 1.0974687114538749e+01 9.9743804163016030e+00 4.9747700612111840e+00 
46 47 2 1.4432836558517188e+00 -1.2894148746120536e-10 1.0000000000000000e+00 1.2974703446507879e+01 9.9743804163016030e+00 4.9747700612111840e+00 
47 48 2 1.4432836558517188e+00 -1.2894148122386671e-10 1.0000000000000000e+00 1.4974718510242706e+01 9.9743804163016030e+00 4.9747700612111840e+00 
48 49 2 1.4432836558517188e+00 -1.2894148174269227e-10 1.0000000000000000e+00 1.6974745186972019e+01 9.9743804163016030e+00 4.9747700612111840e+00 
49 50 2 1.4432836558517188e+00 -1.2894148701148345e-10 1.0000000000000000e+00 1.8974796985139413e+01 9.9743804163016030e+00 4.9747700612111840e+00 
50 51 2 1.4432836558517188e+00 -1.2894148512289903e-10 1.0000000000000000e+00 2.0974891572767316e+01 9.9743804163016030e+00 4.9747700612111840e+00 
51 52 2 1.4432836558517188e+00 -1.2894148814004982e-10 1.0000000000000000e+00 2.2975053411369593e+01 9.9743804163016030e+00 4.9747700612111840e+00 
52 53 2 1.4432836558517188e+00 -1.2894148984548591e-10 1.0000000000000000e+00 2.4975314557407973e+01 9.9743804163016030e+00 4.9747700612111840e+00 
53 54 2 1.4432836558517188e+00 -1.2894149018173979e-10 1.0000000000000000e+00 2.6975714671099730e+01 9.9743804163016030e+00 4.9747700612111840e+00 
54 55 2 1.4432836558517188e+00 -1.2894149391306502e-10 1.0000000000000000e+00 2.8976301372414969e+01 9.9743804163016030e+00 4.9747700612111840e+00 
55 56 2 1.4432836558517188e+00 -1.2894146067269128e-10 1.0000000000000000e+00 3.0977129892076039e+01 9.9743804163016030e+00 4.9747700612111840e+00 
56 57 2 1.4432836558517188e+00 -1.2894146417647504e-10 1.0000000000000000e+00 3.2978260079445420e+01 9.9743804163016030e+00 4.9747700612111840e+00 
505 506 2 1.4432836558517188e+00 -1.2894149117085318e-10 1.0000000000000000e+00 6.9743803276132788e+00 1.1974888712778554e+01 4.9747700612111840e+00 
506 507 2 1.4432836558517188e+00 -1.5472978968371776e-10 1.0000000000000000e+00 8.9746487300814284e+00 1.1974888712778554e+01 4.9747700612111840e+00 
507 508 2 1.4432836558517188e+00 -1.5472978834195166e-10 1.0000000000000000e+00 1.0974687114538749e+01 1.1974888712778554e+01 4.9747700612111840e+00 
508 509 2 1.4432836558517188e+00 -1.5472978603253256e-10 1.0000000000000000e+00 1.2974703446507879e+01 1.1974888712778554e+01 4.9747700612111840e+00 
509 510 2 1.4432836558517188e+00 -1.5472977979518072e-10 1.0000000000000000e+00 1.4974718510242706e+01 1.1974888712778554e+01 4.9747700612111840e+00 
510 511 2 1.4432836558517188e+00 -1.5472978031402304e-10 1.0000000000000000e+00 1.6974745186972019e+01 1.1974888712778554e+01 4.9747700612111840e+00 
511 512 2 1.4432836558517188e+00 -1.5472978558281191e-10 1.0000000000000000e+00 1.8974796985139413e+01 1.1974888712778554e+01 4.9747700612111840e+00 
512 513 2 1.4432836558517188e+00 -1.5472978369422811e-10 1.0000000000000000e+00 2.0974891572767316e+01 1.1974888712778554e+01 4.9747700612111840e+00 
513 514 2 1.4432836558517188e+00 -1.5472978671137229e-10 1.0000000000000000e+00 2.2975053411369593e+01 1.1974888712778554e+01 4.9747700612111840e+00 
514 515 2 1.4432836558517188e+00 -1.5472978841681908e-10 1.0000000000000000e+00 2.4975314557407973e+01 1.1974888712778554e+01 4.9747700612111840e+00 
515 516 2 1.4432836558517188e+00 -1.5472978875307115e-10 1.0000000000000000e+00 2.6975714671099730e+01 1.1974888712778554e+01 4.9747700612111840e+00 
516 517 2 1.4432836558517188e+00 -1.5472979248439506e-10 1.0000000000000000e+00 2.8976301372414969e+01 1.1974888712778554e+01 4.9747700612111840e+00 
517 518 2 1.4432836558517188e+00 -1.5472975924401835e-10 1.0000000000000000e+00 3.0977129892076039e+01 1.1974888712778554e+01 4.9747700612111840e+00 
518 519 2 1.4432836558517188e+00 -1.5472976274780493e-10 1.0000000000000000e+00 3.2978260079445420e+01 1.1974888712778554e+01 4.9747700612111840e+00 
967 968 2 1.4432836558517188e+00 -1.2894148921380843e-10 1.0000000000000000e+00 6.9743803276132788e+00 1.3976905107162111e+01 4.9747700612111840e+00 
968 969 2 1.4432836558517188e+00 -1.5472978772667554e-10 1.0000000000000000e+00 8.9746487300814284e+00 1.3976905107162111e+01 4.9747700612111840e+00 
969 970 2 1.4432836558517188e+00 -1.5472978638489834e-10 1.0000000000000000e+00 1.0974687114538749e+01 1.3976905107162111e+01 4.9747700612111840e+00 
970 971 2 1.4432836558517188e+00 -1.5472978407549194e-10 1.0000000000000000e+00 1.2974703446507879e+01 1.3976905107162111e+01 4.9747700612111840e+00 
971 972 2 1.4432836558517188e+00 -1.5472977783813725e-10 1.0000000000000000e+00 1.4974718510242706e+01 1.3976905107162111e+01 4.9747700612111840e+00 
972 973 2 1.4432836558517188e+00 -1.5472977835697404e-10 1.0000000000000000e+00 1.6974745186972019e+01 1.3976905107162111e+01 4.9747700612111840e+00 
973 974 2 1.4432836558517188e+00 -1.5472978362576793e-10 1.0000000000000000e+00 1.8974796985139413e+01 1.3976905107162111e+01 4.9747700612111840e+00 
974 975 2 1.4432836558517188e+00 -1.5472978173717937e-10 1.0000000000000000e+00 2.0974891572767316e+01 1.3976905107162111e+01 4.9747700612111840e+00 
975 976 2 1.4432836558517188e+00 -1.5472978475432500e-10 1.0000000000000000e+00 2.2975053411369593e+01 1.3976905107162111e+01 4.9747700612111840e+00 
976 977 2 1.4432836558517188e+00 -1.5472978645977416e-10 1.0000000000000000e+00 2.4975314557407973e+01 1.3976905107162111e+01 4.9747700612111840e+00 
977 978 2 1.4432836558517188e+00 -1.5472978679602903e-10 1.0000000000000000e+00 2.6975714671099730e+01 1.3976905107162111e+01 4.9747700612111840e+00 
978 979 2 1.4432836558517188e+00 -1.5472979052734929e-10 1.0000000000000000e+00 2.8976301372414969e+01 1.3976905107162111e+01 4.9747700612111840e+00 
979 980 2 1.4432836558517188e+00 -1.5472975728697056e-10 1.0000000000000000e+00 3.0977129892076039e+01 1.3976905107162111e+01 4.9747700612111840e+00 
980 981 2 1.4432836558517188e+00 -1.5472976079075898e-10 1.0000000000000000e+00 3.2978260079445420e+01 1.3976905107162111e+01 4.9747700612111840e+00 
1429 1430 2 1.4432836558517188e+00 -1.2894148052501639e-10 1.0000000000000000e+00 6.9743803276132788e+00 1.5982718622884841e+01 4.9747700612111840e+00 
1430 1431 2 1.4432836558517188e+00 -1.5472977903786745e-10 1.0000000000000000e+00 8.9746487300814284e+00 1.5982718622884841e+01 4.9747700612111840e+00 
1431 1432 2 1.4432836558517188e+00 -1.5472977769610264e-10 1.0000000000000000e+00 1.0974687114538749e+01 1.5982718622884841e+01 4.9747700612111840e+00 
1432 1433 2 1.4432836558517188e+00 -1.5472977538667558e-10 1.0000000000000000e+00 1.2974703446507879e+01 1.5982718622884841e+01 4.9747700612111840e+00 
1433 1434 2 1.4432836558517188e+00 -1.5472976914934312e-10 1.0000000000000000e+00 1.4974718510242706e+01 1.5982718622884841e+01 4.9747700612111840e+00 
1434 1435 2 1.4432836558517188e+00 -1.5472976966817079e-10 1.0000000000000000e+00 1.6974745186972019e+01 1.5982718622884841e+01 4.9747700612111840e+00 
1435 1436 2 1.4432836558517188e+00 -1.5472977493696292e-10 1.0000000000000000e+00 1.8974796985139413e+01 1.5982718622884841e+01 4.9747700612111840e+00 
1436 1437 2 1.4432836558517188e+00 -1.5472977304837707e-10 1.0000000000000000e+00 2.0974891572767316e+01 1.5982718622884841e+01 4.9747700612111840e+00 
1437 1438 2 1.4432836558517188e+00 -1.5472977606552348e-10 1.0000000000000000e+00 2.2975053411369593e+01 1.5982718622884841e+01 4.9747700612111840e+00 
1438 1439 2 1.4432836558517188e+00 -1.5472977777097011e-10 1.0000000000000000e+00 2.4975314557407973e+01 1.5982718622884841e+01 4.9747700612111840e+00 
1439 1440 2 1.4432836558517188e+00 -1.5472977810722722e-10 1.0000000000000000e+00 2.6975714671099730e+01 1.5982718622884841e+01 4.9747700612111840e+00 
1440 1441 2 1.4432836558517188e+00 -1.5472978183854658e-10 1.0000000000000000e+00 2.8976301372414969e+01 1.5982718622884841e+01 4.9747700612111840e+00 
1441 1442 2 1.4432836558517188e+00 -1.5472974859816718e-10 1.0000000000000000e+00 3.0977129892076039e+01 1.5982718622884841e+01 4.9747700612111840e+00 
1442 1443 2 1.4432836558517188e+00 -1.5472975210195286e-10 1.0000000000000000e+00 3.2978260079445420e+01 1.5982718622884841e+01 4.9747700612111840e+00 
1891 1892 2 1.4432836558517188e+00 -1.2894150621223513e-10 1.0000000000000000e+00 6.9743803276132788e+00 1.7993418611805776e+01 4.9747700612111840e+00 
1892 1893 2 1.4432836558517188e+00 -1.5472980472509056e-10 1.0000000000000000e+00 8.9746487300814284e+00 1.7993418611805776e+01 4.9747700612111840e+00 
1893 1894 2 1.4432836558517188e+00 -1.5472980338332642e-10 1.0000000000000000e+00 1.0974687114538749e+01 1.7993418611805776e+01 4.9747700612111840e+00 
1894 1895 2 1.4432836558517188e+00 -1.5472980107390536e-10 1.0000000000000000e+00 1.2974703446507879e+01 1.7993418611805776e+01 4.9747700612111840e+00 
1895 1896 2 1.4432836558517188e+00 -1.5472979483656329e-10 1.0000000000000000e+00 1.4974718510242706e+01 1.7993418611805776e+01 4.9747700612111840e+00 
1896 1897 2 1.4432836558517188e+00 -1.5472979535539084e-10 1.0000000000000000e+00 1.6974745186972019e+01 1.7993418611805776e+01 4.9747700612111840e+00 
1897 1898 2 1.4432836558517188e+00 -1.5472980062418432e-10 1.0000000000000000e+00 1.8974796985139413e+01 1.7993418611805776e+01 4.9747700612111840e+00 
1898 1899 2 1.4432836558517188e+00 -1.5472979873560225e-10 1.0000000000000000e+00 2.0974891572767316e+01 1.7993418611805776e+01 4.9747700612111840e+00 
1899 1900 2 1.4432836558517188e+00 -1.5472980175274868e-10 1.0000000000000000e+00 2.2975053411369593e+01 1.7993418611805776e+01 4.9747700612111840e+00 
1900 1901 2 1.4432836558517188e+00 -1.5472980345819557e-10 1.0000000000000000e+00 2.4975314557407973e+01 1.7993418611805776e+01 4.9747700612111840e+00 
1901 1902 2 1.4432836558517188e+00 -1.5472980379444542e-10 1.0000000000000000e+00 2.6975714671099730e+01 1.7993418611805776e+01 4.9747700612111840e+00 
1902 1903 2 1.4432836558517188e+00 -1.5472980752576997e-10 1.0000000000000000e+00 2.8976301372414969e+01 1.7993418611805776e+01 4.9747700612111840e+00 
1903 1904 2 1.4432836558517188e+00 -1.5472977428539060e-10 1.0000000000000000e+00 3.0977129892076039e+01 1.7993418611805776e+01 4.9747700612111840e+00 
1904 1905 2 1.4432836558517188e+00 -1.5472977778917736e-10 1.0000000000000000e+00 3.2978260079445420e+01 1.7993418611805776e+01 4.9747700612111840e+00 
85 86 2 1.4432836558517188e+00 -1.0315318960515838e-10 1.0000000000000000e+00 6.9743803276132788e+00 9.9743804163016030e+00 6.9760528347201847e+00 
86 87 2 1.4432836558517188e+00 -1.2894148811802035e-10 1.0000000000000000e+00 8.9746487300814284e+00 9.9743804163016030e+00 6.9760528347201847e+00 
87 88 2 1.4432836558517188e+00 -1.2894148677625569e-10 1.0000000000000000e+00 1.0974687114538749e+01 9.9743804163016030e+00 6.9760528347201847e+00 
88 89 2 1.4432836558517188e+00 -1.2894148446682819e-10 1.0000000000000000e+00 1.2974703446507879e+01 9.9743804163016030e+00 6.9760528347201847e+00 
89 90 2 1.4432836558517188e+00 -1.2894147822948612e-10 1.0000000000000000e+00 1.4974718510242706e+01 9.9743804163016030e+00 6.9760528347201847e+00 
90 91 2 1.4432836558517188e+00 -1.2894147874831409e-10 1.0000000000000000e+00 1.6974745186972019e+01 9.9743804163016030e+00 6.9760528347201847e+00 
91 92 2 1.4432836558517188e+00 -1.2894148401711088e-10 1.0000000000000000e+00 1.8974796985139413e+01 9.9743804163016030e+00 6.9760528347201847e+00 
92 93 2 1.4432836558517188e+00 -1.2894148212852478e-10 1.0000000000000000e+00 2.0974891572767316e+01 9.9743804163016030e+00 6.9760528347201847e+00 
93 94 2 1.4432836558517188e+00 -1.2894148514567097e-10 1.0000000000000000e+00 2.2975053411369593e+01 9.9743804163016030e+00 6.9760528347201847e+00 
94 95 2 1.4432836558517188e+00 -1.2894148685111365e-10 1.0000000000000000e+00 2.4975314557407973e+01 9.9743804163016030e+00 6.9760528347201847e+00 
95 96 2 1.4432836558517188e+00 -1.2894148718737242e-10 1.0000000000000000e+00 2.6975714671099730e+01 9.9743804163016030e+00 6.9760528347201847e+00 
96 97 2 1.4432836558517188e+00 -1.2894149091869056e-10 1.0000000000000000e+00 2.8976301372414969e+01 9.9743804163016030e+00 6.9760528347201847e+00 
97 98 2 1.4432836558517188e+00 -1.2894145767831502e-10 1.0000000000000000e+00 3.0977129892076039e+01 9.9743804163016030e+00 6.9760528347201847e+00 
98 99 2 1.4432836558517188e+00 -1.2894146118210051e-10 1.0000000000000000e+00 3.2978260079445420e+01 9.9743804163016030e+00 6.9760528347201847e+00 
547 548 2 1.4432836558517188e+00 -1.2894148817647992e-10 1.0000000000000000e+00 6.9743803276132788e+00 1.1974888712778554e+01 6.9760528347201847e+00 
548 549 2 1.4432836558517188e+00 -1.5472978668934126e-10 1.0000000000000000e+00 8.9746487300814284e+00 1.1974888712778554e+01 6.9760528347201847e+00 
549 550 2 1.4432836558517188e+00 -1.5472978534757348e-10 1.0000000000000000e+00 1.0974687114538749e+01 1.1974888712778554e+01 6.9760528347201847e+00 
550 551 2 1.4432836558517188e+00 -1.5472978303815190e-10 1.0000000000000000e+00 1.2974703446507879e+01 1.1974888712778554e+01 6.9760528347201847e+00 
551 552 2 1.4432836558517188e+00 -1.5472977680081234e-10 1.0000000000000000e+00 1.4974718510242706e+01 1.1974888712778554e+01 6.9760528347201847e+00 
552 553 2 1.4432836558517188e+00 -1.5472977731964098e-10 1.0000000000000000e+00 1.6974745186972019e+01 1.1974888712778554e+01 6.9760528347201847e+00 
553 554 2 1.4432836558517188e+00 -1.5472978258843706e-10 1.0000000000000000e+00 1.8974796985139413e+01 1.1974888712778554e+01 6.9760528347201847e+00 
554 555 2 1.4432836558517188e+00 -1.5472978069985701e-10 1.0000000000000000e+00 2.0974891572767316e+01 1.1974888712778554e+01 6.9760528347201847e+00 
555 556 2 1.4432836558517188e+00 -1.5472978371700106e-10 1.0000000000000000e+00 2.2975053411369593e+01 1.1974888712778554e+01 6.9760528347201847e+00 
556 557 2 1.4432836558517188e+00 -1.5472978542244713e-10 1.0000000000000000e+00 2.4975314557407973e+01 1.1974888712778554e+01 6.9760528347201847e+00 
557 558 2 1.4432836558517188e+00 -1.5472978575869915e-10 1.0000000000000000e+00 2.6975714671099730e+01 1.1974888712778554e+01 6.9760528347201847e+00 
558 559 2 1.4432836558517188e+00 -1.5472978949002494e-10 1.0000000000000000e+00 2.8976301372414969e+01 1.1974888712778554e+01 6.9760528347201847e+00 
559 560 2 1.4432836558517188e+00 -1.5472975624963999e-10 1.0000000000000000e+00 3.0977129892076039e+01 1.1974888712778554e+01 6.9760528347201847e+00 
560 561 2 1.4432836558517188e+00 -1.5472975975342838e-10 1.0000000000000000e+00 3.2978260079445420e+01 1.1974888712778554e+01 6.9760528347201847e+00 
1009 1010 2 1.4432836558517188e+00 -1.2894148621944390e-10 1.0000000000000000e+00 6.9743803276132788e+00 1.3976905107162111e+01 6.9760528347201847e+00 
1010 1011 2 1.4432836558517188e+00 -1.5472978473229868e-10 1.0000000000000000e+00 8.9746487300814284e+00 1.3976905107162111e+01 6.9760528347201847e+00 
1011 1012 2 1.4432836558517188e+00 -1.5472978339052632e-10 1.0000000000000000e+00 1.0974687114538749e+01 1.3976905107162111e+01 6.9760528347201847e+00 
1012 1013 2 1.4432836558517188e+00 -1.5472978108111079e-10 1.0000000000000000e+00 1.2974703446507879e+01 1.3976905107162111e+01 6.9760528347201847e+00 
1013 1014 2 1.4432836558517188e+00 -1.5472977484376507e-10 1.0000000000000000e+00 1.4974718510242706e+01 1.3976905107162111e+01 6.9760528347201847e+00 
1014 1015 2 1.4432836558517188e+00 -1.5472977536259374e-10 1.0000000000000000e+00 1.6974745186972019e+01 1.3976905107162111e+01 6.9760528347201847e+00 
1015 1016 2 1.4432836558517188e+00 -1.5472978063138933e-10 1.0000000000000000e+00 1.8974796985139413e+01 1.3976905107162111e+01 6.9760528347201847e+00 
1016 1017 2 1.4432836558517188e+00 -1.5472977874281251e-10 1.0000000000000000e+00 2.0974891572767316e+01 1.3976905107162111e+01 6.9760528347201847e+00 
1017 1018 2 1.4432836558517188e+00 -1.5472978175995630e-10 1.0000000000000000e+00 2.2975053411369593e+01 1.3976905107162111e+01 6.9760528347201847e+00 
1018 1019 2 1.4432836558517188e+00 -1.5472978346540141e-10 1.0000000000000000e+00 2.4975314557407973e+01 1.3976905107162111e+01 6.9760528347201847e+00 
1019 1020 2 1.4432836558517188e+00 -1.5472978380165455e-10 1.0000000000000000e+00 2.6975714671099730e+01 1.3976905107162111e+01 6.9760528347201847e+00 
1020 1021 2 1.4432836558517188e+00 -1.5472978753297876e-10 1.0000000000000000e+00 2.8976301372414969e+01 1.3976905107162111e+01 6.9760528347201847e+00 
1021 1022 2 1.4432836558517188e+00 -1.5472975429259474e-10 1.0000000000000000e+00 3.0977129892076039e+01 1.3976905107162111e+01 6.9760528347201847e+00 
1022 1023 2 1.4432836558517188e+00 -1.5472975779638023e-10 1.0000000000000000e+00 3.2978260079445420e+01 1.3976905107162111e+01 6.9760528347201847e+00 
1471 1472 2 1.4432836558517188e+00 -1.2894147753063483e-10 1.0000000000000000e+00 6.9743803276132788e+00 1.5982718622884841e+01 6.9760528347201847e+00 
1472 1473 2 1.4432836558517188e+00 -1.5472977604349144e-10 1.0000000000000000e+00 8.9746487300814284e+00 1.5982718622884841e+01 6.9760528347201847e+00 
1473 1474 2 1.4432836558517188e+00 -1.5472977470172929e-10 1.0000000000000000e+00 1.0974687114538749e+01 1.5982718622884841e+01 6.9760528347201847e+00 
1474 1475 2 1.4432836558517188e+00 -1.5472977239231069e-10 1.0000000000000000e+00 1.2974703446507879e+01 1.5982718622884841e+01 6.9760528347201847e+00 
1475 1476 2 1.4432836558517188e+00 -1.5472976615496239e-10 1.0000000000000000e+00 1.4974718510242706e+01 1.5982718622884841e+01 6.9760528347201847e+00 
1476 1477 2 1.4432836558517188e+00 -1.5472976667379509e-10 1.0000000000000000e+00 1.6974745186972019e+01 1.5982718622884841e+01 6.9760528347201847e+00 
1477 1478 2 1.4432836558517188e+00 -1.5472977194258944e-10 1.0000000000000000e+00 1.8974796985139413e+01 1.5982718622884841e+01 6.9760528347201847e+00 
1478 1479 2 1.4432836558517188e+00 -1.5472977005400585e-10 1.0000000000000000e+00 2.0974891572767316e+01 1.5982718622884841e+01 6.9760528347201847e+00 
1479 1480 2 1.4432836558517188e+00 -1.5472977307115215e-10 1.0000000000000000e+00 2.2975053411369593e+01 1.5982718622884841e+01 6.9760528347201847e+00 
1480 1481 2 1.4432836558517188e+00 -1.5472977477659731e-10 1.0000000000000000e+00 2.4975314557407973e+01 1.5982718622884841e+01 6.9760528347201847e+00 
1481 1482 2 1.4432836558517188e+00 -1.5472977511285147e-10 1.0000000000000000e+00 2.6975714671099730e+01 1.5982718622884841e+01 6.9760528347201847e+00 
1482 1483 2 1.4432836558517188e+00 -1.5472977884417316e-10 1.0000000000000000e+00 2.8976301372414969e+01 1.5982718622884841e+01 6.9760528347201847e+00 
1483 1484 2 1.4432836558517188e+00 -1.5472974560379415e-10 1.0000000000000000e+00 3.0977129892076039e+01 1.5982718622884841e+01 6.9760528347201847e+00 
1484 1485 2 1.4432836558517188e+00 -1.5472974910757969e-10 1.0000000000000000e+00 3.2978260079445420e+01 1.5982718622884841e+01 6.9760528347201847e+00 
1933 1934 2 1.4432836558517188e+00 -1.2894150321786070e-10 1.0000000000000000e+00 6.9743803276132788e+00 1.7993418611805776e+01 6.9760528347201847e+00 