LAMMPS data file via write_data, version 30 Jul 2016, timestep = 50400000

1520 atoms
8 atom types

0.0000000000000000e+00 4.0000000000000000e+01 xlo xhi
0.0000000000000000e+00 4.0000000000000000e+01 ylo yhi
0.0000000000000000e+00 1.0000000000000000e+02 zlo zhi

Masses

1 3.896
2 5.36
3 20.064
4 8.378
5 8.378
6 8.378
7 8.378
8 8.378

Atoms # meso-molecular

2 3 2 1.0280000002692409e+00 -7.8545561533858199e+02 1.0000000000000000e+00 1.7285597400169706e+01 1.8398516766443642e+01 5.6079592199332584e+00 
308 309 2 1.0280000002692402e+00 -3.9320488573865850e+03 1.0000000000000000e+00 1.7285578868592854e+01 1.8398487080927783e+01 5.6079882524751579e+00 
670 671 2 1.0279999999968250e+00 9.8328981171524083e+02 1.0000000000000000e+00 1.2903844077116903e+01 5.4231906346848013e-01 7.7259626951022131e+00 
1068 1069 2 1.0279999997273519e+00 -3.9351303696881264e+03 1.0000000000000000e+00 1.7566285209438579e+01 1.9501611912857136e+01 6.9007848156012299e+00 
1370 1371 2 1.0279999997282416e+00 -7.8844559821489702e+02 1.0000000000000000e+00 1.7580491253406787e+01 1.9479670102661444e+01 6.9159735952321668e+00 
1239 1240 2 1.0279999999981846e+00 4.5465271956103970e+03 1.0000000000000000e+00 1.2182944936634325e+01 8.4979366554381541e-01 8.7360607351237771e+00 
175 176 2 1.0280000000132963e+00 4.5568814122231270e+03 1.0000000000000000e+00 1.2535160337309037e+01 5.1122404912583530e-01 9.2843153348860117e+00 
1040 1041 2 1.0279999999914609e+00 3.1937869254158186e+03 1.0000000000000000e+00 1.3759434851408315e+01 4.5565193398514694e+00 9.1547626173533381e+00 
1044 1045 2 1.0279999999914557e+00 2.6718858110899155e+03 1.0000000000000000e+00 1.3760084573198384e+01 4.5564030941938931e+00 9.1550568424111312e+00 
1083 1084 2 1.0280000000220495e+00 -4.9048373727078524e+03 1.0000000000000000e+00 1.9913935159280214e+01 1.5537314602390641e+01 9.2424026837794813e+00 
611 612 2 1.0279999999743559e+00 -6.8723882112561932e+02 1.0000000000000000e+00 1.9989987382514318e+01 1.5763685011449729e+01 9.4382101790825956e+00 
1478 1479 2 1.0280000000011680e+00 -5.0112419212886107e+03 1.0000000000000000e+00 1.9703398327686507e+01 1.9107395698314818e+01 9.3261080130279908e+00 
986 987 2 1.0280000000007876e+00 -8.1477236190521830e+02 1.0000000000000000e+00 1.9714935988363266e+01 1.9114958302802261e+01 9.3729045026361550e+00 
1293 1294 2 1.0280000000068510e+00 1.4557831003546839e+03 1.0000000000000000e+00 1.2899000938397908e+01 4.4290182400010352e+00 1.0578416750069408e+01 
686 687 2 1.0280000000090375e+00 7.1393935641267421e+02 1.0000000000000000e+00 1.3204003748355204e+01 4.4039612214464912e+00 1.0839114617936895e+01 
1127 1128 2 1.0280000000444833e+00 -4.7691625872258483e+03 1.0000000000000000e+00 1.3268178960205555e+01 2.7795829037964258e-02 1.3309367651747413e+01 
475 476 2 1.0280000000177050e+00 -1.0459095104043327e+03 1.0000000000000000e+00 1.4453191374285277e+01 1.9437378485606225e+00 1.2210237785242322e+01 
812 813 2 1.0280000000754268e+00 -2.3306349623105725e+03 1.0000000000000000e+00 1.3618541188087704e+01 2.0695427864393645e+00 1.2423787104421519e+01 
808 809 2 1.0280000000002323e+00 -2.0331428318250196e+03 1.0000000000000000e+00 1.3296564021665288e+01 3.3188245210926364e+00 1.2739600404633427e+01 
931 932 2 1.0279999999777552e+00 -1.0500118493314790e+03 1.0000000000000000e+00 1.4716227377190254e+01 3.4913131772043884e+00 1.2119590531218558e+01 
1389 1390 2 1.0279999999832972e+00 4.4065903722821522e+03 1.0000000000000000e+00 1.5521530417997282e+01 2.2548914223083689e+00 1.3676606763646724e+01 
809 810 2 1.0280000000192291e+00 -2.3328884569824595e+03 1.0000000000000000e+00 1.6255394357242547e+01 3.0147009014201198e+00 1.3051728096420609e+01 
1102 1103 2 1.0280000000186227e+00 -4.2420079745806961e+03 1.0000000000000000e+00 1.3886141370528765e+01 4.7424789123555078e+00 1.3046022297743665e+01 
1090 1091 2 1.0280000000073328e+00 -4.1959578116950324e+03 1.0000000000000000e+00 1.4235903034119167e+01 4.7312545330356466e+00 1.3437543109086796e+01 
805 806 2 1.0280000000004959e+00 -2.0322275547993465e+03 1.0000000000000000e+00 1.7028448332681776e+01 4.1218217284656458e+00 1.2584918529921527e+01 
1091 1092 2 1.0280000000071856e+00 -4.1977651431007271e+03 1.0000000000000000e+00 1.7019171786704906e+01 4.6350133995378604e+00 1.2625784231083633e+01 
501 502 2 1.0280000000190075e+00 8.9154183340810850e+03 1.0000000000000000e+00 1.9318998571421538e+01 1.2859653210831587e+01 1.1926121720030082e+01 
504 505 2 1.0280000000190062e+00 8.8179081810002281e+03 1.0000000000000000e+00 1.9318989557126113e+01 1.2859698914675471e+01 1.1926117477962986e+01 
1496 1497 2 1.0280000001287615e+00 2.9680798461944919e+03 1.0000000000000000e+00 1.9793170658764449e+01 1.9293992990043627e+01 1.3606709442640025e+01 
1238 1239 2 1.0279999999877838e+00 4.4760779340681811e+03 1.0000000000000000e+00 1.4876022698747763e+01 2.8275749621041926e+00 1.4013461522872070e+01 
1077 1078 2 1.0279999999991887e+00 5.0300798412401546e+03 1.0000000000000000e+00 1.5607577900539166e+01 4.4604131202686181e+00 1.4914816359827158e+01 
1099 1100 2 1.0279999999974163e+00 -4.9493811022898517e+03 1.0000000000000000e+00 1.6163292669379764e+01 5.5467775840115037e+00 1.3770086839571649e+01 
1405 1406 2 1.0279999999936809e+00 4.4938165667676185e+03 1.0000000000000000e+00 1.6539974655209431e+01 5.3054954170376858e+00 1.4285433970800435e+01 
1233 1234 2 1.0279999999946556e+00 1.8603826269805995e+02 1.0000000000000000e+00 1.9326162997845032e+01 1.4590117554573730e+01 1.4724827845823102e+01 
1236 1237 2 1.0279999999995786e+00 1.8684625950499603e+02 1.0000000000000000e+00 1.9100071088257899e+01 1.4283043608268844e+01 1.4859805927734689e+01 
1490 1491 2 1.0280000000967655e+00 -6.8176296962482375e+03 1.0000000000000000e+00 1.9805742735965438e+01 1.9161197777882556e+01 1.3763697277388118e+01 
1118 1119 2 1.0279999999640126e+00 -4.7457648650066812e+03 1.0000000000000000e+00 1.4889068347475591e+01 7.4567548433637887e-01 1.6503950831285454e+01 
380 381 2 1.0280000000641789e+00 5.4419316884968850e+02 1.0000000000000000e+00 1.4934696492322596e+01 1.6668022552276760e+00 1.7127507933826330e+01 
876 877 2 1.0280000000311444e+00 -2.8434153716699930e+03 1.0000000000000000e+00 1.5691688114015744e+01 3.7947666493462204e+00 1.6121964686793987e+01 
784 785 2 1.0279999999316674e+00 1.6536217266552109e+02 1.0000000000000000e+00 1.5697746730201517e+01 3.2913621761266008e+00 1.6135484966049678e+01 
1409 1410 2 1.0280000000124752e+00 1.6877477530971823e+03 1.0000000000000000e+00 1.4824562910367252e+01 2.4227304964833820e+00 1.7532571506953285e+01 
1275 1276 2 1.0279999999975029e+00 3.3894986505587503e+03 1.0000000000000000e+00 1.5895756392849593e+01 3.4395241959251681e+00 1.8462660929867141e+01 
1153 1154 2 1.0280000000122369e+00 9.8018721307905923e+02 1.0000000000000000e+00 1.5575135699303331e+01 3.6572926610143055e+00 1.8470925511203724e+01 
377 378 2 1.0280000000270364e+00 5.4988534767926649e+02 1.0000000000000000e+00 1.6653225034130223e+01 4.7379855752219990e+00 1.9228180748809166e+01 
1412 1413 2 1.0279999999961873e+00 1.6997618237573465e+03 1.0000000000000000e+00 1.6254159223740434e+01 5.9209145908009644e+00 1.9544891248910240e+01 
122 123 2 1.0279999999936142e+00 -6.8196828003070877e+03 1.0000000000000000e+00 1.8447840434963489e+01 5.9563597591999784e+00 1.9472685278029417e+01 
128 129 2 1.0279999999935587e+00 2.9660245897187824e+03 1.0000000000000000e+00 1.8448719106802443e+01 5.9563117069459786e+00 1.9473040015489612e+01 
63 64 2 1.0279999999992391e+00 -6.0790455362164976e+03 1.0000000000000000e+00 1.7979534667982772e+01 1.2868649679682731e+01 1.9562172859981693e+01 
320 321 2 1.0279999999988723e+00 5.0263903638305537e+03 1.0000000000000000e+00 1.7982327831186502e+01 1.4733933518040981e+01 1.8513492544568248e+01 
37 38 2 1.0280000000022391e+00 4.4935983768590540e+03 1.0000000000000000e+00 1.7771608860309687e+01 1.4378174765516796e+01 1.9332984242135471e+01 
1137 1138 2 1.0280000000003053e+00 5.4548708098208522e+02 1.0000000000000000e+00 1.8766069005215716e+01 1.5931499005028751e+01 1.8642247649465212e+01 
44 45 2 1.0279999999995351e+00 1.6939657442210819e+03 1.0000000000000000e+00 1.8813334412279790e+01 1.5888950223709021e+01 1.8987028040192378e+01 
1103 1104 2 1.0280000002119474e+00 -4.2382377919217342e+03 1.0000000000000000e+00 1.8619394589888923e+01 1.9610659263891471e+01 1.9263632591383701e+01 
1408 1409 2 1.0279999999935541e+00 4.4788963638960431e+03 1.0000000000000000e+00 1.6377931731796597e+01 5.7035135400448391e+00 2.0056820006031973e+01 
283 284 2 1.0279999999918228e+00 4.5530189343725815e+03 1.0000000000000000e+00 1.9697555031883244e+01 4.6792967655368498e+00 1.9673419225392081e+01 
1250 1251 2 1.0280000000039387e+00 2.9158538838150798e+03 1.0000000000000000e+00 1.9469583606783750e+01 4.4827790611747318e+00 2.0419388305790605e+01 
61 62 2 1.0279999999999907e+00 3.7918679490467675e+03 1.0000000000000000e+00 1.7836177810479192e+01 1.2470030803373673e+01 1.9953718003654281e+01 
441 442 2 1.0280000000020086e+00 4.9398776392626314e+03 1.0000000000000000e+00 1.7733293945021661e+01 1.3811904254825528e+01 2.1246836885142514e+01 
1493 1494 2 1.0280000000578495e+00 2.9642538425150351e+03 1.0000000000000000e+00 1.9159940175432432e+01 1.9106096839291610e+01 1.9689862545599510e+01 
1491 1492 2 1.0279999996934506e+00 -6.8216181649001282e+03 1.0000000000000000e+00 1.9135673762677438e+01 1.9970225451949400e+01 1.9910984890338781e+01 
997 998 2 1.0280000000004259e+00 6.1370150425907996e+03 1.0000000000000000e+00 1.7764108521430792e+01 1.2718121110159180e+01 2.1688980970900051e+01 
1512 1513 2 1.0279999999993694e+00 -4.3390717619013321e+03 1.0000000000000000e+00 1.9149023515060673e+01 1.2072451734382952e+01 2.1583700430723269e+01 
1509 1510 2 1.0279999999989040e+00 -4.3389424024514465e+03 1.0000000000000000e+00 1.9148596050450209e+01 1.2072291929524166e+01 2.1584881587652291e+01 
419 420 2 1.0279999999720715e+00 -4.4185148356728405e+03 1.0000000000000000e+00 1.8255727969904552e+01 1.4825145837000687e+01 2.2063644178677514e+01 
104 105 2 1.0280000000565743e+00 2.3071382717902256e+03 1.0000000000000000e+00 1.8393560171612343e+01 1.5039547584012100e+01 2.2657524441707466e+01 
109 110 2 1.0279999999781715e+00 1.6752504103771944e+03 1.0000000000000000e+00 1.7639543087760188e+01 1.7489843286962827e+01 2.2075760943571467e+01 
1144 1145 2 1.0280000000026845e+00 5.5422045065667453e+02 1.0000000000000000e+00 1.7596605284749224e+01 1.7798376688637134e+01 2.2274384764763472e+01 
59 60 2 1.0280000000238598e+00 -7.5570072051503284e+03 1.0000000000000000e+00 1.7911675928684780e+01 1.6920029104337210e+01 2.3323182351523222e+01 
443 444 2 1.0279999999926674e+00 -3.0636213692574838e+03 1.0000000000000000e+00 1.9467421364860805e+01 1.6618454699609391e+01 2.2615433801988917e+01 
47 48 2 1.0280000000446901e+00 -7.4241606089580564e+03 1.0000000000000000e+00 1.9175320215460573e+01 1.9245819472538184e+01 2.3272139126276336e+01 
726 727 2 1.0280000000034766e+00 -1.2401908592461518e+03 1.0000000000000000e+00 1.5861065331605410e+01 1.5589291147671766e+01 2.4234358060143816e+01 
1000 1001 2 1.0279999999744294e+00 7.1447027337726595e+03 1.0000000000000000e+00 1.7088183372853955e+01 1.4716413847308184e+01 2.3642526625162759e+01 
1251 1252 2 1.0280000000019718e+00 3.0786804843773434e+03 1.0000000000000000e+00 1.7418704869143426e+01 1.5109226885367780e+01 2.4696575333799782e+01 
135 136 2 1.0280000000112837e+00 -1.2712205482514523e+03 1.0000000000000000e+00 1.6069887908150452e+01 1.4727603764681886e+01 2.4859918012103520e+01 
247 248 2 1.0280000000322984e+00 3.3922060715049765e+03 1.0000000000000000e+00 1.7158085686364995e+01 1.7298636936341726e+01 2.4875824551117681e+01 
107 108 2 1.0279999999567935e+00 -7.4362283865246045e+03 1.0000000000000000e+00 1.6427989275400321e+01 1.6341511029899074e+01 2.5386288099953489e+01 
94 95 2 1.0279999999931677e+00 -7.5302770060270159e+03 1.0000000000000000e+00 1.9210366131194377e+01 1.8227827079681735e+01 2.3849507419124901e+01 
1 2 2 1.0279999999894922e+00 -7.1575252882818568e+03 1.0000000000000000e+00 1.9437947259312221e+01 1.9470761443816173e+01 2.4064073927500154e+01 
133 134 2 1.0280000000003362e+00 2.6693721437938217e+02 1.0000000000000000e+00 1.5147908020753750e+01 6.9687927260927065e+00 2.7225871507681610e+01 
782 783 2 1.0279999999975498e+00 1.7079257191997908e+03 1.0000000000000000e+00 1.4887618263487914e+01 8.6253086834642865e+00 2.6541554743681310e+01 
1084 1085 2 1.0279999999975420e+00 -2.7700800745745573e+03 1.0000000000000000e+00 1.4892575725311833e+01 8.6306939886115046e+00 2.6544881564626859e+01 
147 148 2 1.0280000000048199e+00 -1.4695609024337036e+03 1.0000000000000000e+00 1.6670753207812279e+01 8.3695619762172289e+00 2.7238694181756575e+01 
258 259 2 1.0279999999223046e+00 4.1046592268053319e+03 1.0000000000000000e+00 1.7402339931330744e+01 1.7613547692928687e+01 2.5760484607561992e+01 
246 247 2 1.0280000000536118e+00 3.3801798668728443e+03 1.0000000000000000e+00 1.7443654164758616e+01 1.8818641102115382e+01 2.6383236237797085e+01 
58 59 2 1.0279999998331870e+00 -7.5302150202535304e+03 1.0000000000000000e+00 1.7713997047322184e+01 1.9259049093642506e+01 2.6735739917209237e+01 
451 452 2 1.0279999999927887e+00 1.6321679162830887e+03 1.0000000000000000e+00 1.5916140663886837e+01 5.9945012268199749e+00 2.9262404011202733e+01 
196 197 2 1.0279999999876532e+00 -1.1896972638505863e+03 1.0000000000000000e+00 1.5937370060581323e+01 5.9704517868836877e+00 2.9277819121361727e+01 
136 137 2 1.0279999999977343e+00 2.6716247584390942e+02 1.0000000000000000e+00 1.5228584420414947e+01 6.9783130608193735e+00 2.7476885482376723e+01 
146 147 2 1.0280000000006240e+00 -1.4717203963193770e+03 1.0000000000000000e+00 1.7092882450763643e+01 8.9641671320132801e+00 2.7905293491335616e+01 
302 303 2 1.0279999999946736e+00 -1.0238095372051008e+03 1.0000000000000000e+00 1.7562027008751851e+01 8.4681922365007836e+00 2.8327127400177350e+01 
818 819 2 1.0279999998573142e+00 7.8321119917439614e+02 1.0000000000000000e+00 1.1125839354394161e+01 1.8576067200635880e+00 2.9818419065818023e+01 
626 627 2 1.0280000000641663e+00 -1.8303420880919466e+03 1.0000000000000000e+00 1.0099390870641253e+01 1.1075026015612930e+00 3.0347545131332787e+01 
240 241 2 1.0280000000054728e+00 1.5975860246703805e+03 1.0000000000000000e+00 1.3277568171489712e+01 7.7716532448614584e-01 3.1210278169584019e+01 
847 848 2 1.0279999999900453e+00 8.9225359272506853e+02 1.0000000000000000e+00 1.3227991810154727e+01 8.0074345362280441e-01 3.1313138609851652e+01 
1374 1375 2 1.0279999999926623e+00 -1.4803225697204443e+03 1.0000000000000000e+00 1.6420650059400693e+01 9.5448387561216277e-02 2.9930723560549932e+01 
1375 1376 2 1.0279999999919243e+00 -1.4795923346670534e+03 1.0000000000000000e+00 1.6287318371457193e+01 1.4375189803340734e-02 2.9969322735520119e+01 
1218 1219 2 1.0279999999937366e+00 -1.0217767715771665e+03 1.0000000000000000e+00 1.6281739994858540e+01 1.9997680408839771e+00 3.0723025129779842e+01 
1514 1515 2 1.0280000000064180e+00 -1.4588347840086185e+03 1.0000000000000000e+00 1.7662404319251294e+01 6.9509530875705028e-01 3.1120178876671311e+01 
166 167 2 1.0279999999958347e+00 -1.0446540249738964e+03 1.0000000000000000e+00 1.8906722149583345e+01 2.0281441478284692e-01 3.0923307415410100e+01 
1230 1231 2 1.0279999999964278e+00 -1.0404967886330423e+03 1.0000000000000000e+00 1.8892048761207246e+01 1.5967686014265833e-01 3.0942072284259826e+01 
662 663 2 1.0280000000238996e+00 8.5977069802929827e+02 1.0000000000000000e+00 1.1085050583481499e+01 2.6205316091188906e+00 3.0538877035029376e+01 
108 109 2 1.0280000000874900e+00 3.2895009633802265e+03 1.0000000000000000e+00 1.2727923697040364e+01 2.1304409565003501e+00 3.0449212776199765e+01 
597 598 2 1.0279999999515577e+00 5.6079456786105093e+03 1.0000000000000000e+00 1.2156945583780717e+01 2.6683607241274023e+00 3.1287378435676494e+01 
1222 1223 2 1.0279999999864342e+00 9.0404456517129574e+02 1.0000000000000000e+00 1.5908742511470800e+01 3.7839845255219040e+00 2.9969186157621280e+01 
1219 1220 2 1.0280000000078933e+00 -1.0229021911762622e+03 1.0000000000000000e+00 1.5256434612177376e+01 2.5849911243615393e+00 3.0931759576326083e+01 
1223 1224 2 1.0279999999916276e+00 9.0408402580762959e+02 1.0000000000000000e+00 1.6233441816711881e+01 3.8198374719934125e+00 3.0015613728114875e+01 
553 554 2 1.0280000000023821e+00 5.6087347318247666e+03 1.0000000000000000e+00 1.7330702622451845e+01 7.2504922721075387e+00 2.9598616358902895e+01 
556 557 2 1.0280000000063632e+00 5.6117218676392858e+03 1.0000000000000000e+00 1.7124146545437458e+01 7.2595315741386734e+00 2.9781037281522163e+01 
1269 1270 2 1.0280000000212373e+00 2.9420725203190732e+03 1.0000000000000000e+00 9.4126133900282518e+00 1.4266180584022822e-01 3.2262462839715973e+01 
1515 1516 2 1.0280000000238230e+00 -1.4777829606087475e+03 1.0000000000000000e+00 1.5296521439135455e+01 1.5286055252509029e-01 3.1389749336714022e+01 
167 168 2 1.0280000000071809e+00 -1.0380304722590877e+03 1.0000000000000000e+00 1.4997022336156371e+01 7.5902532360801900e-01 3.2887938249753930e+01 
190 191 2 1.0279999999955807e+00 5.5557356859788058e+02 1.0000000000000000e+00 1.7056192453770038e+01 1.6765959032860513e+00 3.2732466800851512e+01 
191 192 2 1.0280000000042442e+00 5.5799760840936960e+02 1.0000000000000000e+00 1.6310914932146929e+01 1.0312026851390028e+00 3.3265527802365405e+01 
578 579 2 1.0279999999589158e+00 -2.2525296864578731e+03 1.0000000000000000e+00 1.1240404940827597e+01 2.1595907403743553e+00 3.2928165930065383e+01 
708 709 2 1.0280000000449283e+00 -2.6132633581296159e+03 1.0000000000000000e+00 1.1406672552845396e+01 2.8343920813647907e+00 3.3180434184041971e+01 
659 660 2 1.0279999999987210e+00 1.0076691634714455e+03 1.0000000000000000e+00 1.3916201797510260e+01 3.6713363942791246e+00 3.2203570637162237e+01 
1366 1367 2 1.0279999999770899e+00 -1.0214022490361240e+03 1.0000000000000000e+00 1.4723136590455210e+01 2.0084908050837513e+00 3.2330389103697534e+01 
845 846 2 1.0280000000080112e+00 -2.5689389817875062e+03 1.0000000000000000e+00 1.4557237084071438e+01 3.3352771179245528e+00 3.3191921832463606e+01 
658 659 2 1.0280000000023886e+00 1.0076972926138819e+03 1.0000000000000000e+00 1.7197264326575933e+01 3.0004762376723098e+00 3.1633090493166019e+01 
1383 1384 2 1.0280000000083696e+00 -1.9112069436579031e+03 1.0000000000000000e+00 1.6626625824310572e+01 3.5894852704164850e+00 3.2160775902924961e+01 
1382 1383 2 1.0279999999945570e+00 -1.9115759352116988e+03 1.0000000000000000e+00 1.4663071565157091e+01 4.1830249770275252e+00 3.2381674404602443e+01 
205 206 2 1.0279999999869933e+00 2.9451893951369011e+03 1.0000000000000000e+00 7.9829536018726941e+00 1.8039408122104175e-01 3.3709704836467523e+01 
840 841 2 1.0280000000252851e+00 -2.0597616156953827e+03 1.0000000000000000e+00 9.4462909464855400e+00 4.4543577857306349e-01 3.4270370179693785e+01 
998 999 2 1.0279999998452460e+00 -3.5809288956996579e+02 1.0000000000000000e+00 1.1161586913216034e+01 8.1723305781583955e-01 3.3806821406146113e+01 
1003 1004 2 1.0280000001144227e+00 -1.0257114619661220e+03 1.0000000000000000e+00 1.0607780012658150e+01 4.6367525120685885e-02 3.4652625229894952e+01 
460 461 2 1.0279999999832901e+00 1.2778562589177611e+03 1.0000000000000000e+00 1.2786448612195814e+01 1.8515743338010011e+00 3.5199488475404777e+01 
457 458 2 1.0279999999832283e+00 1.4555055041325204e+03 1.0000000000000000e+00 1.2789093427901202e+01 1.8516693977837353e+00 3.5200465538627562e+01 
1232 1233 2 1.0279999998961673e+00 1.1078470651931350e+03 1.0000000000000000e+00 1.0799146765739431e+01 3.0812921225512175e+00 3.4331547011686283e+01 
550 551 2 1.0280000000528129e+00 -8.8996490044439065e+02 1.0000000000000000e+00 1.0724030779682401e+01 3.0774628855546329e+00 3.5213100808549072e+01 
1254 1255 2 1.0279999999952143e+00 5.5991255002305343e+02 1.0000000000000000e+00 1.7000564392756395e+01 3.0123089558189653e+00 3.3554301182893248e+01 
1255 1256 2 1.0279999999991887e+00 5.6358725147442442e+02 1.0000000000000000e+00 1.6223761438927053e+01 3.2439489429841366e+00 3.4396981734474863e+01 
159 160 2 1.0279999999988800e+00 9.0564851651066806e+02 1.0000000000000000e+00 1.6225236715238548e+01 5.1383913453027530e+00 3.3811961607682022e+01 
158 159 2 1.0279999999988290e+00 9.0563250939176760e+02 1.0000000000000000e+00 1.6222418293401091e+01 5.1386315920047068e+00 3.3812061120949615e+01 
848 849 2 1.0280000000011453e+00 -2.5667519537495155e+03 1.0000000000000000e+00 1.6133419888178857e+01 4.0771244513150826e+00 3.5148950626907073e+01 
614 615 2 1.0280000000205209e+00 7.8030448976974185e+01 1.0000000000000000e+00 1.2918321490261675e+01 1.3988895083863793e+00 3.6565686099659871e+01 
744 745 2 1.0280000001263270e+00 -5.1909822509408355e+02 1.0000000000000000e+00 1.0182998435846262e+01 3.1320052617272855e+00 3.6426884101014892e+01 
746 747 2 1.0279999996448024e+00 -1.2939472986347805e+03 1.0000000000000000e+00 1.0206578938952260e+01 3.5411900386243658e+00 3.6804771212446866e+01 
141 142 2 1.0280000000218930e+00 -4.3410896134286359e+03 1.0000000000000000e+00 8.4431816273349121e+00 4.6579942290965954e+00 3.6203827609767046e+01 
144 145 2 1.0280000000218679e+00 -4.3409904741859791e+03 1.0000000000000000e+00 8.4431788227996289e+00 4.6579942972017232e+00 3.6203830107747507e+01 
914 915 2 1.0279999999975946e+00 -1.7819648912259140e+03 1.0000000000000000e+00 1.6550916769158960e+01 5.5646631635925914e+00 3.6436120634680258e+01 
1196 1197 2 1.0279999999999978e+00 5.4035801616456706e+02 1.0000000000000000e+00 1.6036162234576601e+01 4.0292703241523427e+00 3.6765427152673972e+01 
458 459 2 1.0279999999994571e+00 -1.7824710163047826e+03 1.0000000000000000e+00 1.6425805238081061e+01 5.6760538631558903e+00 3.7114472610903938e+01 
1343 1344 2 1.0279999999269456e+00 1.0087805094817249e+03 1.0000000000000000e+00 7.6118635971344784e+00 3.0244833616133910e-02 3.7935838514716323e+01 
1346 1347 2 1.0279999999048708e+00 4.4736469951699946e+03 1.0000000000000000e+00 7.3606042956685434e+00 1.1180070941772997e+00 3.8916325461194305e+01 
1342 1343 2 1.0279999999840423e+00 9.8955375229049150e+02 1.0000000000000000e+00 8.3170294403093123e+00 3.3311772616141400e-01 3.7694014496685575e+01 
1379 1380 2 1.0280000001291161e+00 -1.4972371813818036e+03 1.0000000000000000e+00 1.1225863258682734e+01 4.9916536733945149e-01 3.7751708598089877e+01 
10 11 2 1.0279999998371716e+00 -1.4791141372433813e+03 1.0000000000000000e+00 1.0259597453827501e+01 1.2412799611032646e+00 3.9214563440707209e+01 
766 767 2 1.0279999999575946e+00 5.9056196424873129e+01 1.0000000000000000e+00 1.3046645555050940e+01 5.1219223306894579e-01 3.7315815849664560e+01 
1067 1068 2 1.0280000000080887e+00 -2.2606847334511467e+03 1.0000000000000000e+00 1.3319927855668224e+01 1.1431542626487707e+00 3.8429529158006986e+01 
1066 1067 2 1.0279999999495952e+00 -2.2433344224159227e+03 1.0000000000000000e+00 1.2797959543035001e+01 9.3244557919976123e-01 3.8791583746030604e+01 
547 548 2 1.0280000003059011e+00 -1.0223646098115892e+03 1.0000000000000000e+00 1.0369699460430242e+01 3.8512575521403249e+00 3.8781563022434149e+01 
9 10 2 1.0279999999556932e+00 -4.3159152064157915e+03 1.0000000000000000e+00 9.2728795454476405e+00 5.3515112192582324e+00 3.7480689343926933e+01 
12 13 2 1.0280000001236738e+00 -4.3159682926149435e+03 1.0000000000000000e+00 9.2930304301654676e+00 5.0055257186891735e+00 3.7956506113541856e+01 
735 736 2 1.0280000000015006e+00 -3.6608527142310891e+02 1.0000000000000000e+00 1.6443835030215329e+01 4.3581977141633343e+00 3.7449623156506071e+01 
935 936 2 1.0279999998969993e+00 1.6418537311464033e+03 1.0000000000000000e+00 2.7527255045692103e+00 8.3064168867956167e-01 4.0049012374163667e+01 
513 514 2 1.0279999998968945e+00 7.6794803104119037e+03 1.0000000000000000e+00 2.8539206575954190e+00 6.9803358951629346e-01 4.0119769491401371e+01 
1323 1324 2 1.0280000001374328e+00 4.0571872668195392e+03 1.0000000000000000e+00 7.1556635018178572e+00 5.4143584895741337e-01 3.9816107678666214e+01 
1469 1470 2 1.0280000001026146e+00 2.2869355681445732e+03 1.0000000000000000e+00 8.2428956874214574e+00 2.0457325416635058e-01 3.9714765458583621e+01 
11 12 2 1.0279999996824027e+00 -1.4752925704977615e+03 1.0000000000000000e+00 1.0350156196763869e+01 1.2866397425494829e+00 3.9223263177983704e+01 
1465 1466 2 1.0280000001314114e+00 2.5865693344046126e+03 1.0000000000000000e+00 1.0649407521414223e+00 2.8881417994538303e+00 4.1020406700381734e+01 
284 285 2 1.0279999998114187e+00 1.3402332399138108e+03 1.0000000000000000e+00 2.6298983013254085e+00 2.7450640533856574e+00 4.0015533189122500e+01 
273 274 2 1.0279999998170781e+00 2.7632540869629584e+03 1.0000000000000000e+00 2.6251677548954389e+00 2.7529988094574094e+00 4.0021471858564745e+01 
542 543 2 1.0279999996590770e+00 -3.5956713015314563e+02 1.0000000000000000e+00 1.0084973714327424e+01 3.7224271031557437e+00 3.9292855342708989e+01 
554 555 2 1.0279999997550713e+00 -4.8855527196663991e+02 1.0000000000000000e+00 1.1129713039320130e+01 4.3199081777571120e+00 4.0500189896409644e+01 
406 407 2 1.0279999999627509e+00 -5.2352706893676277e+03 1.0000000000000000e+00 1.1128877283034043e+01 4.2722120410294746e+00 4.0501847416156416e+01 
385 386 2 1.0279999999546654e+00 4.7542907533730431e+02 1.0000000000000000e+00 3.2799347774480028e+00 4.9287672229848406e-01 4.1862343684776597e+01 
1154 1155 2 1.0279999999707461e+00 -4.8000061761539037e+03 1.0000000000000000e+00 6.6180382981922987e+00 3.6314334926119046e-02 4.2916957287525200e+01 
97 98 2 1.0280000002057750e+00 2.5653218550957031e+03 1.0000000000000000e+00 9.7814006875306325e-01 2.9057078450867149e+00 4.1378959139023742e+01 
606 607 2 1.0279999998571898e+00 -1.8385698912702087e+03 1.0000000000000000e+00 1.9457641312748319e+00 2.0441511833753028e+00 4.2359611070819959e+01 
719 720 2 1.0279999996986928e+00 1.5314478065703056e+03 1.0000000000000000e+00 1.1767492847600336e+01 5.8429965880714008e+00 4.2003747725863647e+01 
718 719 2 1.0279999996994575e+00 1.5314466872966200e+03 1.0000000000000000e+00 1.1767696700839647e+01 5.8432869837240577e+00 4.2003880540926012e+01 
607 608 2 1.0279999999631950e+00 -1.8307602613595386e+03 1.0000000000000000e+00 1.3398590168703325e-01 6.7540087706047194e+00 4.2480693038914929e+01 
1063 1064 2 1.0280000000145519e+00 -1.8307276378080514e+03 1.0000000000000000e+00 1.2927372083026778e-01 6.1573953366939564e+00 4.2486099683204003e+01 
398 399 2 1.0280000001207592e+00 -4.7834369043365423e+03 1.0000000000000000e+00 1.0240041216209784e+01 6.5874508828109875e+00 4.2346235912415061e+01 
106 107 2 1.0279999999898191e+00 -7.4261955918814365e+03 1.0000000000000000e+00 1.0582474863108850e+01 7.5153946649254051e+00 4.2363131041631327e+01 
83 84 2 1.0279999999917500e+00 -5.9400530258566359e+03 1.0000000000000000e+00 1.3476781531030460e+00 9.1771135017845218e+00 4.2804809283440044e+01 
71 72 2 1.0279999999926737e+00 -5.9396214100720717e+03 1.0000000000000000e+00 1.3525228704567969e+00 9.1824549806336080e+00 4.2804821526340582e+01 
1421 1422 2 1.0280000003116008e+00 2.5987112231950146e+03 1.0000000000000000e+00 1.8927170641284810e+00 1.4054450312262519e+00 4.3206433050397507e+01 
1267 1268 2 1.0279999994025990e+00 3.7538002346657568e+03 1.0000000000000000e+00 3.9672999920253138e-02 1.5215583304552160e+00 4.4866424040923796e+01 
203 204 2 1.0279999993998092e+00 3.7538164451501661e+03 1.0000000000000000e+00 3.7158461193670340e-02 1.5225818645312124e+00 4.4868957710915993e+01 
516 517 2 1.0279999994856950e+00 7.6907673846562993e+03 1.0000000000000000e+00 3.6295670900134227e+00 2.6828622014780668e-01 4.3231626562401708e+01 
462 463 2 1.0279999998303817e+00 2.0088358396952149e+03 1.0000000000000000e+00 2.8868003296131839e+00 1.9881214411538195e+00 4.4048765269075446e+01 
602 603 2 1.0279999997205640e+00 2.0071994989254758e+03 1.0000000000000000e+00 2.7197184547860118e+00 2.5372762473872288e+00 4.3813077088276799e+01 
498 499 2 1.0279999998528007e+00 -9.5860194937269580e+02 1.0000000000000000e+00 1.2501793634057496e+00 5.9470370910608938e+00 4.4410448869285723e+01 
954 955 2 1.0279999995919675e+00 -9.6135171019922745e+02 1.0000000000000000e+00 1.2203474448516296e+00 5.9678019933352502e+00 4.4486669818718113e+01 
634 635 2 1.0280000001059175e+00 -4.0894415196723162e+02 1.0000000000000000e+00 4.1546539221084906e+00 5.0147141891639704e+00 4.4988051371818031e+01 
82 83 2 1.0279999999901990e+00 -5.9183505626223105e+03 1.0000000000000000e+00 1.6163089541042688e-01 7.5645113908026174e+00 4.4219061805289108e+01 
890 891 2 1.0280000001695944e+00 1.6868251358221682e+03 1.0000000000000000e+00 5.9123129205963636e+00 6.1677620923252698e+00 4.4883947409640143e+01 
115 116 2 1.0280000002352685e+00 -6.0387774690519582e+03 1.0000000000000000e+00 7.9800153601054964e+00 6.9690318702060692e+00 4.4466307365915462e+01 
789 790 2 1.0279999998774778e+00 -1.7502671135531882e+03 1.0000000000000000e+00 9.1959450653937935e+00 7.4383742737278533e+00 4.3413697636119004e+01 
262 263 2 1.0280000000638514e+00 2.5433081296533737e+03 1.0000000000000000e+00 9.1454233764996253e+00 7.9891736713959771e+00 4.4454261803128617e+01 
1033 1034 2 1.0280000000900340e+00 8.8177346252125571e+03 1.0000000000000000e+00 1.0842909029831191e+01 6.3442754137266748e+00 4.4165129514393378e+01 
1324 1325 2 1.0280000000116656e+00 1.9930568820938111e+03 1.0000000000000000e+00 1.2474628846391163e+01 7.4424192296992384e+00 4.3526845058319246e+01 
260 261 2 1.0280000000331708e+00 1.9922212949837253e+03 1.0000000000000000e+00 1.2459309281697394e+01 7.4383441790801061e+00 4.3639042335603001e+01 
1217 1218 2 1.0280000000042628e+00 1.6847539525681818e+03 1.0000000000000000e+00 2.1417141341691215e+00 8.8673088173586461e+00 4.4326383178467339e+01 
153 154 2 1.0279999999956104e+00 1.6854787618775842e+03 1.0000000000000000e+00 2.0855021799134361e+00 8.8409846009828090e+00 4.4359788028427509e+01 
1215 1216 2 1.0279999999880876e+00 -2.2747353399320991e+03 1.0000000000000000e+00 1.0966933507254115e+01 8.0785291903813743e+00 4.3727084714011987e+01 