LAMMPS data file via write_data, version 30 Jul 2016, timestep = 50000000

1520 atoms
8 atom types

0.0000000000000000e+00 4.0000000000000000e+01 xlo xhi
0.0000000000000000e+00 4.0000000000000000e+01 ylo yhi
0.0000000000000000e+00 1.0000000000000000e+02 zlo zhi

Masses

1 3.896
2 5.36
3 20.064
4 8.378
5 8.378
6 8.378
7 8.378
8 8.378

Atoms # meso-molecular

2 3 2 1.0280000002818781e+00 -7.8545561533858199e+02 1.0000000000000000e+00 1.7285451042282872e+01 1.8398111887922916e+01 7.5773124507909504e+00 
308 309 2 1.0280000002818792e+00 -3.9320488573865850e+03 1.0000000000000000e+00 1.7285432511567862e+01 1.8398082203782675e+01 7.5773414819702376e+00 
670 671 2 1.0279999999965868e+00 9.8328981171524083e+02 1.0000000000000000e+00 1.2903753074048918e+01 5.4191845067365874e-01 9.6953583182897489e+00 
1068 1069 2 1.0279999997145162e+00 -3.9351303696881264e+03 1.0000000000000000e+00 1.7566138841561465e+01 1.9501206997343875e+01 8.8701380814695625e+00 
1370 1371 2 1.0279999997154508e+00 -7.8844559821489702e+02 1.0000000000000000e+00 1.7580345543944791e+01 1.9479264162239954e+01 8.8853275562790532e+00 
1239 1240 2 1.0279999999980896e+00 4.5465271956103970e+03 1.0000000000000000e+00 1.2182854097928329e+01 8.4939275419062044e-01 1.0705456631485788e+01 
175 176 2 1.0280000000140366e+00 4.5568814122231270e+03 1.0000000000000000e+00 1.2535069743499843e+01 5.1082259111933526e-01 1.1253710438094448e+01 
1040 1041 2 1.0279999999910319e+00 3.1937869254158186e+03 1.0000000000000000e+00 1.3759330277787482e+01 4.5561470363546750e+00 1.1124159406841269e+01 
1044 1045 2 1.0279999999910250e+00 2.6718858110899155e+03 1.0000000000000000e+00 1.3759980000595007e+01 4.5560307905298885e+00 1.1124453632224801e+01 
1083 1084 2 1.0280000000232192e+00 -4.9048373727078524e+03 1.0000000000000000e+00 1.9913867684557143e+01 1.5536855521357289e+01 1.1211752198112174e+01 
611 612 2 1.0279999999734122e+00 -6.8723882112561932e+02 1.0000000000000000e+00 1.9989919612396413e+01 1.5763224879260211e+01 1.1407560484719635e+01 
1478 1479 2 1.0280000000007810e+00 -5.0112419212886107e+03 1.0000000000000000e+00 1.9703323852990533e+01 1.9106925985018012e+01 1.1295462149165470e+01 
986 987 2 1.0280000000004452e+00 -8.1477236190521830e+02 1.0000000000000000e+00 1.9714861512018370e+01 1.9114488492015077e+01 1.1342258623672596e+01 
1293 1294 2 1.0280000000072440e+00 1.4557831003546839e+03 1.0000000000000000e+00 1.2898896611668032e+01 4.4286451646964480e+00 1.2547813719413250e+01 
686 687 2 1.0280000000093874e+00 7.1393935641267421e+02 1.0000000000000000e+00 1.3203899149907455e+01 4.4035878100812864e+00 1.2808511196724037e+01 
1127 1128 2 1.0280000000463339e+00 -4.7691625872258483e+03 1.0000000000000000e+00 1.3268093317389697e+01 2.7382761250001088e-02 1.5278760777696601e+01 
475 476 2 1.0280000000186198e+00 -1.0459095104043327e+03 1.0000000000000000e+00 1.4453087361698609e+01 1.9433580211678514e+00 1.4179634384116111e+01 
812 813 2 1.0280000000788487e+00 -2.3306349623105725e+03 1.0000000000000000e+00 1.3618442990928809e+01 2.0691634820059939e+00 1.4393183601193245e+01 
808 809 2 1.0280000000004137e+00 -2.0331428318250196e+03 1.0000000000000000e+00 1.3296461536180685e+01 3.3184451104499479e+00 1.4708995205240015e+01 
931 932 2 1.0279999999766993e+00 -1.0500118493314790e+03 1.0000000000000000e+00 1.4716123533346204e+01 3.4909352043773305e+00 1.4088984652327522e+01 
1389 1390 2 1.0279999999824501e+00 4.4065903722821522e+03 1.0000000000000000e+00 1.5521426281931657e+01 2.2545135546610058e+00 1.5646000868072628e+01 
809 810 2 1.0280000000199947e+00 -2.3328884569824595e+03 1.0000000000000000e+00 1.6255289297543833e+01 3.0143254839498859e+00 1.5021122443396209e+01 
1102 1103 2 1.0280000000194838e+00 -4.2420079745806961e+03 1.0000000000000000e+00 1.3886037381173864e+01 4.7421014871788563e+00 1.5015417046331276e+01 
1090 1091 2 1.0280000000076115e+00 -4.1959578116950324e+03 1.0000000000000000e+00 1.4235798259107431e+01 4.7308779790699269e+00 1.5406937336694716e+01 
805 806 2 1.0280000000005345e+00 -2.0322275547993465e+03 1.0000000000000000e+00 1.7028342347188172e+01 4.1214466947912083e+00 1.4554313344332185e+01 
1091 1092 2 1.0280000000075773e+00 -4.1977651431007271e+03 1.0000000000000000e+00 1.7019065614726806e+01 4.6346383030816876e+00 1.4595179117428343e+01 
501 502 2 1.0280000000199752e+00 8.9154183340810850e+03 1.0000000000000000e+00 1.9318937721929963e+01 1.2859165893009683e+01 1.3895467575542698e+01 
504 505 2 1.0280000000199743e+00 8.8179081810002281e+03 1.0000000000000000e+00 1.9318928707683217e+01 1.2859211596706382e+01 1.3895463333509189e+01 
1496 1497 2 1.0280000001363394e+00 2.9680798461944919e+03 1.0000000000000000e+00 1.9793110638580529e+01 1.9293474731595886e+01 1.5576058260292049e+01 
1238 1239 2 1.0279999999873386e+00 4.4760779340681811e+03 1.0000000000000000e+00 1.4875917468980429e+01 2.8271980424311902e+00 1.5982855711023953e+01 
1077 1078 2 1.0279999999991734e+00 5.0300798412401546e+03 1.0000000000000000e+00 1.5607471951069423e+01 4.4600406810275555e+00 1.6884210498816778e+01 
1099 1100 2 1.0279999999972937e+00 -4.9493811022898517e+03 1.0000000000000000e+00 1.6163186607494534e+01 5.5464038823612078e+00 1.5739480996087726e+01 
1405 1406 2 1.0279999999934359e+00 4.4938165667676185e+03 1.0000000000000000e+00 1.6539868868784392e+01 5.3051219888532479e+00 1.6254828534240026e+01 
1233 1234 2 1.0279999999944123e+00 1.8603826269805995e+02 1.0000000000000000e+00 1.9326100098818586e+01 1.4589626464239092e+01 1.6694176063614009e+01 
1236 1237 2 1.0279999999995288e+00 1.8684625950499603e+02 1.0000000000000000e+00 1.9100008521963975e+01 1.4282552475947737e+01 1.6829153891173043e+01 
1490 1491 2 1.0280000001023311e+00 -6.8176296962482375e+03 1.0000000000000000e+00 1.9805681509184495e+01 1.9160681087860723e+01 1.5733043388433304e+01 
1118 1119 2 1.0279999999618972e+00 -4.7457648650066812e+03 1.0000000000000000e+00 1.4888963013068132e+01 7.4530391433451215e-01 1.8473345433249904e+01 
380 381 2 1.0280000000678258e+00 5.4419316884968850e+02 1.0000000000000000e+00 1.4934591057133010e+01 1.6664329250864724e+00 1.9096902579634857e+01 
876 877 2 1.0280000000332141e+00 -2.8434153716699930e+03 1.0000000000000000e+00 1.5691581783240483e+01 3.7943957174815997e+00 1.8091359367874141e+01 
784 785 2 1.0279999999278651e+00 1.6536217266552109e+02 1.0000000000000000e+00 1.5697641405648472e+01 3.2909900811108832e+00 1.8104879661023677e+01 
1409 1410 2 1.0280000000130103e+00 1.6877477530971823e+03 1.0000000000000000e+00 1.4824456870778461e+01 2.4223598162765900e+00 1.9501965970105999e+01 
1275 1276 2 1.0279999999971685e+00 3.3894986505587503e+03 1.0000000000000000e+00 1.5895647507738708e+01 3.4391573413992966e+00 2.0432055196436494e+01 
1153 1154 2 1.0280000000129539e+00 9.8018721307905923e+02 1.0000000000000000e+00 1.5575027185346027e+01 3.6569255963289446e+00 2.0440319545947609e+01 
377 378 2 1.0280000000283687e+00 5.4988534767926649e+02 1.0000000000000000e+00 1.6653111942348367e+01 4.7376224349516143e+00 2.1197573374553222e+01 
1412 1413 2 1.0279999999961096e+00 1.6997618237573465e+03 1.0000000000000000e+00 1.6254045631718384e+01 5.9205514742347303e+00 2.1514283007812690e+01 
122 123 2 1.0279999999930900e+00 -6.8196828003070877e+03 1.0000000000000000e+00 1.8447726430146069e+01 5.9560004939816809e+00 2.1442077377863257e+01 
128 129 2 1.0279999999930507e+00 2.9660245897187824e+03 1.0000000000000000e+00 1.8448605103009466e+01 5.9559524435338211e+00 2.1442432115585515e+01 
63 64 2 1.0279999999992373e+00 -6.0790455362164976e+03 1.0000000000000000e+00 1.7979478463035072e+01 1.2867742592282440e+01 2.1531487057055937e+01 
320 321 2 1.0279999999989660e+00 5.0263903638305537e+03 1.0000000000000000e+00 1.7982271622281047e+01 1.4733026272962235e+01 2.0482806643323460e+01 
37 38 2 1.0280000000024956e+00 4.4935983768590540e+03 1.0000000000000000e+00 1.7771552729840487e+01 1.4377267556099593e+01 2.1302298377964281e+01 
1137 1138 2 1.0280000000002885e+00 5.4548708098208522e+02 1.0000000000000000e+00 1.8766012813514390e+01 1.5930591768910290e+01 2.0611561722172180e+01 
44 45 2 1.0279999999995471e+00 1.6939657442210819e+03 1.0000000000000000e+00 1.8813278227923618e+01 1.5888042996713921e+01 2.0956342116896138e+01 
1103 1104 2 1.0280000002225933e+00 -4.2382377919217342e+03 1.0000000000000000e+00 1.8619322679897493e+01 1.9609924091770289e+01 2.1232944314625495e+01 
1408 1409 2 1.0279999999933584e+00 4.4788963638960431e+03 1.0000000000000000e+00 1.6377818079658706e+01 5.7031504395483692e+00 2.2026212029095181e+01 
283 284 2 1.0279999999914893e+00 4.5530189343725815e+03 1.0000000000000000e+00 1.9697441760471861e+01 4.6789387518075234e+00 2.1642811692348040e+01 
1250 1251 2 1.0280000000042795e+00 2.9158538838150798e+03 1.0000000000000000e+00 1.9469470184191763e+01 4.4824210602865957e+00 2.2388781154015710e+01 
61 62 2 1.0280000000000007e+00 3.7918679490467675e+03 1.0000000000000000e+00 1.7836121592373875e+01 1.2469123716333110e+01 2.1923032247163967e+01 
441 442 2 1.0280000000024507e+00 4.9398776392626314e+03 1.0000000000000000e+00 1.7733237744332055e+01 1.3810996916514837e+01 2.3216151353798960e+01 
1493 1494 2 1.0280000000614209e+00 2.9642538425150351e+03 1.0000000000000000e+00 1.9159859773219075e+01 1.9105361199771831e+01 2.1659166435726959e+01 
1491 1492 2 1.0279999996771734e+00 -6.8216181649001282e+03 1.0000000000000000e+00 1.9135599399747690e+01 1.9969496617074093e+01 2.1880298511958781e+01 
997 998 2 1.0280000000008418e+00 6.1370150425907996e+03 1.0000000000000000e+00 1.7764052281347336e+01 1.2717213855504857e+01 2.3658295249112633e+01 
1512 1513 2 1.0279999999990268e+00 -4.3390717619013321e+03 1.0000000000000000e+00 1.9148967330308061e+01 1.2071544559616822e+01 2.3553014670269331e+01 
1509 1510 2 1.0279999999992451e+00 -4.3389424024514465e+03 1.0000000000000000e+00 1.9148539865706240e+01 1.2071384754679663e+01 2.3554195827364012e+01 
419 420 2 1.0279999999707845e+00 -4.4185148356728405e+03 1.0000000000000000e+00 1.8255671907118508e+01 1.4824238829823338e+01 2.4032959020936048e+01 
104 105 2 1.0280000000596898e+00 2.3071382717902256e+03 1.0000000000000000e+00 1.8393502472591152e+01 1.5038640194274011e+01 2.4626838836598093e+01 
109 110 2 1.0279999999770708e+00 1.6752504103771944e+03 1.0000000000000000e+00 1.7639484704583026e+01 1.7488937159390140e+01 2.4045077019299409e+01 
1144 1145 2 1.0280000000026468e+00 5.5422045065667453e+02 1.0000000000000000e+00 1.7596547378256247e+01 1.7797470766109424e+01 2.4243701766162609e+01 
59 60 2 1.0280000000247380e+00 -7.5570072051503284e+03 1.0000000000000000e+00 1.7911618706110520e+01 1.6919120633791131e+01 2.5292498028990991e+01 
443 444 2 1.0279999999922020e+00 -3.0636213692574838e+03 1.0000000000000000e+00 1.9467361847885769e+01 1.6617553362761203e+01 2.4584749604947238e+01 
47 48 2 1.0280000000461862e+00 -7.4241606089580564e+03 1.0000000000000000e+00 1.9175260909480116e+01 1.9244919857655905e+01 2.5241455543925735e+01 
726 727 2 1.0280000000032565e+00 -1.2401908592461518e+03 1.0000000000000000e+00 1.5861009142539837e+01 1.5588372156424132e+01 2.6203672393626103e+01 
1000 1001 2 1.0279999999731742e+00 7.1447027337726595e+03 1.0000000000000000e+00 1.7088127897807521e+01 1.4715498100212464e+01 2.5611839750255658e+01 
1251 1252 2 1.0280000000022413e+00 3.0786804843773434e+03 1.0000000000000000e+00 1.7418649604971566e+01 1.5108309340186404e+01 2.6665889416010568e+01 
135 136 2 1.0280000000115568e+00 -1.2712205482514523e+03 1.0000000000000000e+00 1.6069831931459781e+01 1.4726685189308693e+01 2.6829232136531154e+01 
247 248 2 1.0280000000335798e+00 3.3922060715049765e+03 1.0000000000000000e+00 1.7158032535933199e+01 1.7297714448625324e+01 2.6845140287911484e+01 
107 108 2 1.0279999999545615e+00 -7.4362283865246045e+03 1.0000000000000000e+00 1.6427932712804342e+01 1.6340589584414836e+01 2.7355605190775471e+01 
94 95 2 1.0279999999922604e+00 -7.5302770060270159e+03 1.0000000000000000e+00 1.9210306203068708e+01 1.8226926841657818e+01 2.5818822477605242e+01 
1 2 2 1.0279999999894212e+00 -7.1575252882818568e+03 1.0000000000000000e+00 1.9437887023432598e+01 1.9469861563654163e+01 2.6033390223999369e+01 
133 134 2 1.0280000000003622e+00 2.6693721437938217e+02 1.0000000000000000e+00 1.5147860766224943e+01 6.9676439624449102e+00 2.9195320580240747e+01 
782 783 2 1.0279999999974307e+00 1.7079257191997908e+03 1.0000000000000000e+00 1.4887571086477227e+01 8.6241599343590121e+00 2.8511003836569483e+01 
1084 1085 2 1.0279999999974290e+00 -2.7700800745745573e+03 1.0000000000000000e+00 1.4892528550560117e+01 8.6295452414357587e+00 2.8514330659380107e+01 
147 148 2 1.0280000000050560e+00 -1.4695609024337036e+03 1.0000000000000000e+00 1.6670705892285490e+01 8.3684129987338185e+00 2.9208143661233851e+01 
258 259 2 1.0279999999187799e+00 4.1046592268053319e+03 1.0000000000000000e+00 1.7402289813499220e+01 1.7612619680774223e+01 2.7729804773808244e+01 
246 247 2 1.0280000000558474e+00 3.3801798668728443e+03 1.0000000000000000e+00 1.7443606488413096e+01 1.8817707133235171e+01 2.8352562115603963e+01 
58 59 2 1.0279999998249909e+00 -7.5302150202535304e+03 1.0000000000000000e+00 1.7713950693152093e+01 1.9258114365587414e+01 2.8705070972122716e+01 
451 452 2 1.0279999999924780e+00 1.6321679162830887e+03 1.0000000000000000e+00 1.5916093004024885e+01 5.9933534661086316e+00 3.1231854015003858e+01 
196 197 2 1.0279999999871161e+00 -1.1896972638505863e+03 1.0000000000000000e+00 1.5937322364968301e+01 5.9693039597302953e+00 3.1247269150216834e+01 
136 137 2 1.0279999999976108e+00 2.6716247584390942e+02 1.0000000000000000e+00 1.5228537120406154e+01 6.9771643221916051e+00 2.9446334571964794e+01 
146 147 2 1.0280000000006435e+00 -1.4717203963193770e+03 1.0000000000000000e+00 1.7092835104118738e+01 8.9630180515635285e+00 2.9874742887679851e+01 
302 303 2 1.0279999999944107e+00 -1.0238095372051008e+03 1.0000000000000000e+00 1.7561979915156833e+01 8.4670432689580668e+00 3.0296577057076149e+01 
818 819 2 1.0279999998502831e+00 7.8321119917439614e+02 1.0000000000000000e+00 1.1125783747367368e+01 1.8564871776621295e+00 3.1787862568178159e+01 
626 627 2 1.0280000000687117e+00 -1.8303420880919466e+03 1.0000000000000000e+00 1.0099329204168097e+01 1.1063843589855300e+00 3.2316997360999345e+01 
240 241 2 1.0280000000057123e+00 1.5975860246703805e+03 1.0000000000000000e+00 1.3277517308341039e+01 7.7602860738166490e-01 3.3179727374954268e+01 
847 848 2 1.0279999999893530e+00 8.9225359272506853e+02 1.0000000000000000e+00 1.3227940847270444e+01 7.9960631596216281e-01 3.3282587800347414e+01 
1374 1375 2 1.0279999999922229e+00 -1.4803225697204443e+03 1.0000000000000000e+00 1.6420600044149936e+01 9.4302083429028141e-02 3.1900175006198083e+01 
1375 1376 2 1.0279999999914131e+00 -1.4795923346670534e+03 1.0000000000000000e+00 1.6287268185153088e+01 1.3228824140836882e-02 3.1938774227777536e+01 
1218 1219 2 1.0279999999930152e+00 -1.0217767715771665e+03 1.0000000000000000e+00 1.6281690697893467e+01 1.9986216905209411e+00 3.2692476512939947e+01 
1514 1515 2 1.0280000000069054e+00 -1.4588347840086185e+03 1.0000000000000000e+00 1.7662354701060039e+01 6.9394883342000113e-01 3.3089630545324411e+01 
166 167 2 1.0279999999955594e+00 -1.0446540249738964e+03 1.0000000000000000e+00 1.8906672452070794e+01 2.0166774063741327e-01 3.2892759224120901e+01 
1230 1231 2 1.0279999999961793e+00 -1.0404967886330423e+03 1.0000000000000000e+00 1.8891999043648148e+01 1.5853016186480748e-01 3.2911524106918499e+01 
662 663 2 1.0280000000248848e+00 8.5977069802929827e+02 1.0000000000000000e+00 1.1084997076935604e+01 2.6194028830700411e+00 3.2508327941026813e+01 
108 109 2 1.0280000000927456e+00 3.2895009633802265e+03 1.0000000000000000e+00 1.2727871615230754e+01 2.1293053115492571e+00 3.2418666459545079e+01 
597 598 2 1.0279999999475644e+00 5.6079456786105093e+03 1.0000000000000000e+00 1.2156895260058086e+01 2.6672231817813059e+00 3.3256829012548735e+01 
1222 1223 2 1.0279999999857161e+00 9.0404456517129574e+02 1.0000000000000000e+00 1.5908693215241035e+01 3.7828379623594088e+00 3.1938636878594043e+01 
1219 1220 2 1.0280000000083547e+00 -1.0229021911762622e+03 1.0000000000000000e+00 1.5256385339917630e+01 2.5838455159331128e+00 3.2901210938020625e+01 
1223 1224 2 1.0279999999910716e+00 9.0408402580762959e+02 1.0000000000000000e+00 1.6233393119567396e+01 3.8186909074433029e+00 3.1985064644826323e+01 
553 554 2 1.0280000000026119e+00 5.6087347318247666e+03 1.0000000000000000e+00 1.7330655589596905e+01 7.2493441899046118e+00 3.1568066406487866e+01 
556 557 2 1.0280000000067704e+00 5.6117218676392858e+03 1.0000000000000000e+00 1.7124099589382151e+01 7.2583835048069147e+00 3.1750487165571499e+01 
1269 1270 2 1.0280000000228262e+00 2.9420725203190732e+03 1.0000000000000000e+00 9.4125533062616267e+00 1.4150853787672671e-01 3.4231905651719458e+01 
1515 1516 2 1.0280000000255178e+00 -1.4777829606087475e+03 1.0000000000000000e+00 1.5296472030993780e+01 1.5171645024000333e-01 3.3359200803182610e+01 
167 168 2 1.0280000000075102e+00 -1.0380304722590877e+03 1.0000000000000000e+00 1.4996973205887954e+01 7.5787994529061797e-01 3.4857388909530499e+01 
190 191 2 1.0279999999953107e+00 5.5557356859788058e+02 1.0000000000000000e+00 1.7056143529093209e+01 1.6754495854845317e+00 3.4701918194455757e+01 
191 192 2 1.0280000000045766e+00 5.5799760840936960e+02 1.0000000000000000e+00 1.6310865546495947e+01 1.0300566290443067e+00 3.5234978941097374e+01 
578 579 2 1.0279999999571063e+00 -2.2525296864578731e+03 1.0000000000000000e+00 1.1240349209890189e+01 2.1584197715599478e+00 3.4897611693438613e+01 
708 709 2 1.0280000000457306e+00 -2.6132633581296159e+03 1.0000000000000000e+00 1.1406615993286998e+01 2.8332148380982045e+00 3.5149882853554217e+01 
659 660 2 1.0279999999988769e+00 1.0076691634714455e+03 1.0000000000000000e+00 1.3916152721090723e+01 3.6701926682304573e+00 3.4173022210092142e+01 
1366 1367 2 1.0279999999759895e+00 -1.0214022490361240e+03 1.0000000000000000e+00 1.4723086849617976e+01 2.0073463030482337e+00 3.4299840416252877e+01 
845 846 2 1.0280000000084228e+00 -2.5689389817875062e+03 1.0000000000000000e+00 1.4557188166497310e+01 3.3341328801798280e+00 3.5161373270303734e+01 
658 659 2 1.0280000000023346e+00 1.0076972926138819e+03 1.0000000000000000e+00 1.7197215108987610e+01 2.9993299701539802e+00 3.3602542175352710e+01 
1383 1384 2 1.0280000000085823e+00 -1.9112069436579031e+03 1.0000000000000000e+00 1.6626576719582218e+01 3.5883388516239063e+00 3.4130227423784795e+01 
1382 1383 2 1.0279999999942524e+00 -1.9115759352116988e+03 1.0000000000000000e+00 1.4663022643267908e+01 4.1818807447262589e+00 3.4351125947546230e+01 
205 206 2 1.0279999999858089e+00 2.9451893951369011e+03 1.0000000000000000e+00 7.9828951587082999e+00 1.7923414641728078e-01 3.5679150282042841e+01 
840 841 2 1.0280000000274734e+00 -2.0597616156953827e+03 1.0000000000000000e+00 9.4462329128382283e+00 4.4426852802493538e-01 3.6239818151024309e+01 
998 999 2 1.0279999998386686e+00 -3.5809288956996579e+02 1.0000000000000000e+00 1.1161533525738324e+01 8.1605792282230261e-01 3.5776273359902774e+01 
1003 1004 2 1.0280000001200813e+00 -1.0257114619661220e+03 1.0000000000000000e+00 1.0607719247956521e+01 4.5196336900082797e-02 3.6622071661989864e+01 
460 461 2 1.0279999999837328e+00 1.2778562589177611e+03 1.0000000000000000e+00 1.2786394348658607e+01 1.8503801348333291e+00 3.7168948480154711e+01 
457 458 2 1.0279999999835616e+00 1.4555055041325204e+03 1.0000000000000000e+00 1.2789039169818228e+01 1.8504751963074906e+00 3.7169925544046095e+01 
1232 1233 2 1.0279999998899421e+00 1.1078470651931350e+03 1.0000000000000000e+00 1.0799083949134575e+01 3.0800960283418286e+00 3.6301000695796823e+01 
550 551 2 1.0280000000517198e+00 -8.8996490044439065e+02 1.0000000000000000e+00 1.0723967731481400e+01 3.0762423392789509e+00 3.7182555742601785e+01 
1254 1255 2 1.0279999999948519e+00 5.5991255002305343e+02 1.0000000000000000e+00 1.7000515529739364e+01 3.0111626030806411e+00 3.5523752639553585e+01 
1255 1256 2 1.0279999999991711e+00 5.6358725147442442e+02 1.0000000000000000e+00 1.6223712354043869e+01 3.2428024505525128e+00 3.6366433356333900e+01 
159 160 2 1.0279999999988740e+00 9.0564851651066806e+02 1.0000000000000000e+00 1.6225187850337448e+01 5.1372448848192933e+00 3.5781413161094278e+01 
158 159 2 1.0279999999988203e+00 9.0563250939176760e+02 1.0000000000000000e+00 1.6222369428148294e+01 5.1374851332788580e+00 3.5781512674201402e+01 
848 849 2 1.0280000000011762e+00 -2.5667519537495155e+03 1.0000000000000000e+00 1.6133371011720428e+01 4.0759774791577641e+00 3.7118402322557586e+01 
614 615 2 1.0280000000210423e+00 7.8030448976974185e+01 1.0000000000000000e+00 1.2918263995798428e+01 1.3976932549439831e+00 3.8535145610177452e+01 
744 745 2 1.0280000001341714e+00 -5.1909822509408355e+02 1.0000000000000000e+00 1.0182929932682823e+01 3.1307544562624110e+00 3.8396339134987052e+01 
746 747 2 1.0279999996236526e+00 -1.2939472986347805e+03 1.0000000000000000e+00 1.0206512489625577e+01 3.5399284950340437e+00 3.8774237243784277e+01 
141 142 2 1.0280000000229075e+00 -4.3410896134286359e+03 1.0000000000000000e+00 8.4430959741583074e+00 4.6567284458518969e+00 3.8173297100440465e+01 
144 145 2 1.0280000000228935e+00 -4.3409904741859791e+03 1.0000000000000000e+00 8.4430931696147713e+00 4.6567285139503367e+00 3.8173299598415838e+01 
914 915 2 1.0279999999974776e+00 -1.7819648912259140e+03 1.0000000000000000e+00 1.6550868206277876e+01 5.5635153120629557e+00 3.8405572347784670e+01 
1196 1197 2 1.0280000000000060e+00 5.4035801616456706e+02 1.0000000000000000e+00 1.6036113595741657e+01 4.0281224300890104e+00 3.8734878935326272e+01 
458 459 2 1.0279999999994280e+00 -1.7824710163047826e+03 1.0000000000000000e+00 1.6425756647952440e+01 5.6749058765414828e+00 3.9083924475567478e+01 
1343 1344 2 1.0279999999236469e+00 1.0087805094817249e+03 1.0000000000000000e+00 7.6118012007994880e+00 2.9011763067060357e-02 3.9905294024502304e+01 
1346 1347 2 1.0279999999003337e+00 4.4736469951699946e+03 1.0000000000000000e+00 7.3605426902867963e+00 1.1167680062483258e+00 4.0885787872365206e+01 
1342 1343 2 1.0279999999806742e+00 9.8955375229049150e+02 1.0000000000000000e+00 8.3169743286150144e+00 3.3189300857888865e-01 3.9663468862957160e+01 
1379 1380 2 1.0280000001348171e+00 -1.4972371813818036e+03 1.0000000000000000e+00 1.1225805557300175e+01 4.9796570716532917e-01 3.9721165093403584e+01 
766 767 2 1.0279999999557525e+00 5.9056196424873129e+01 1.0000000000000000e+00 1.3046587319595632e+01 5.1099342538632442e-01 3.9285273762891755e+01 
1067 1068 2 1.0280000000087013e+00 -2.2606847334511467e+03 1.0000000000000000e+00 1.3319867983726352e+01 1.1419548481774404e+00 4.0398987982541776e+01 
1066 1067 2 1.0279999999474778e+00 -2.2433344224159227e+03 1.0000000000000000e+00 1.2797899341974757e+01 9.3124490459299070e-01 4.0761044426580028e+01 
547 548 2 1.0280000003142795e+00 -1.0223646098115892e+03 1.0000000000000000e+00 1.0369602378786619e+01 3.8499566296563539e+00 4.0751025434346467e+01 
9 10 2 1.0279999999532565e+00 -4.3159152064157915e+03 1.0000000000000000e+00 9.2727933358872026e+00 5.3502386349631337e+00 3.9450160914277248e+01 
12 13 2 1.0280000001321949e+00 -4.3159682926149435e+03 1.0000000000000000e+00 9.2929441464791562e+00 5.0042460411892637e+00 3.9925971302095235e+01 
735 736 2 1.0280000000015639e+00 -3.6608527142310891e+02 1.0000000000000000e+00 1.6443786401029442e+01 4.3570497244787614e+00 3.9419074891263570e+01 
935 936 2 1.0279999998942850e+00 1.6418537311464033e+03 1.0000000000000000e+00 2.7526749401584749e+00 8.2912017699182727e-01 4.2018427890219549e+01 
513 514 2 1.0279999998963534e+00 7.6794803104119037e+03 1.0000000000000000e+00 2.8538718015312448e+00 6.9651321739065009e-01 4.2089186305276677e+01 
1323 1324 2 1.0280000001413350e+00 4.0571872668195392e+03 1.0000000000000000e+00 7.1556110278761524e+00 5.4017683996869781e-01 4.1785562172759960e+01 
1469 1470 2 1.0280000001099086e+00 2.2869355681445732e+03 1.0000000000000000e+00 8.2428284943826817e+00 2.0332962834797691e-01 4.1684219826340723e+01 
10 11 2 1.0279999998286613e+00 -1.4791141372433813e+03 1.0000000000000000e+00 1.0259528640187176e+01 1.2400791650037717e+00 4.1184024834455059e+01 
11 12 2 1.0279999996666871e+00 -1.4752925704977615e+03 1.0000000000000000e+00 1.0350088891360034e+01 1.2854434117872828e+00 4.1192726936221284e+01 
1465 1466 2 1.0280000001407736e+00 2.5865693344046126e+03 1.0000000000000000e+00 1.0648927751476007e+00 2.8865615584451287e+00 4.2989840285973109e+01 
284 285 2 1.0279999997989859e+00 1.3402332399138108e+03 1.0000000000000000e+00 2.6298509708776776e+00 2.7435387294305733e+00 4.1984951179020854e+01 
273 274 2 1.0279999998049703e+00 2.7632540869629584e+03 1.0000000000000000e+00 2.6251202029853027e+00 2.7514734743731557e+00 4.1990890138587460e+01 
542 543 2 1.0279999996477971e+00 -3.5956713015314563e+02 1.0000000000000000e+00 1.0084869034739370e+01 3.7211108227592358e+00 4.1262314556022133e+01 
554 555 2 1.0279999997397036e+00 -4.8855527196663991e+02 1.0000000000000000e+00 1.1129629696410150e+01 4.3185449916113230e+00 4.2469671513432978e+01 
406 407 2 1.0279999999586478e+00 -5.2352706893676277e+03 1.0000000000000000e+00 1.1128792121559957e+01 4.2708486748950953e+00 4.2471326830942608e+01 
385 386 2 1.0279999999515712e+00 4.7542907533730431e+02 1.0000000000000000e+00 3.2798879538752934e+00 4.9139376550326597e-01 4.3831787231400369e+01 
1154 1155 2 1.0279999999684368e+00 -4.8000061761539037e+03 1.0000000000000000e+00 6.6179951603274869e+00 3.4986558039961112e-02 4.4886411347759612e+01 
97 98 2 1.0280000002102077e+00 2.5653218550957031e+03 1.0000000000000000e+00 9.7809769045197936e-01 2.9041146998619403e+00 4.3348385274651697e+01 
606 607 2 1.0279999998522682e+00 -1.8385698912702087e+03 1.0000000000000000e+00 1.9457028704699202e+00 2.0425885479632182e+00 4.4329052381473012e+01 
719 720 2 1.0279999996822331e+00 1.5314478065703056e+03 1.0000000000000000e+00 1.1767417940733464e+01 5.8415367872131529e+00 4.3973288134365276e+01 
718 719 2 1.0279999996830320e+00 1.5314466872966200e+03 1.0000000000000000e+00 1.1767621789290024e+01 5.8418271954667818e+00 4.3973420959477508e+01 
607 608 2 1.0279999999619074e+00 -1.8307602613595386e+03 1.0000000000000000e+00 1.3383986370287815e-01 6.7522142963342402e+00 4.4450183552388680e+01 
1063 1064 2 1.0280000000153984e+00 -1.8307276378080514e+03 1.0000000000000000e+00 1.2912933884525399e-01 6.1556003044843886e+00 4.4455592689514894e+01 
398 399 2 1.0280000001269125e+00 -4.7834369043365423e+03 1.0000000000000000e+00 1.0239942028044849e+01 6.5859760202226125e+00 4.4315793843331811e+01 
106 107 2 1.0279999999898273e+00 -7.4261955918814365e+03 1.0000000000000000e+00 1.0582373437779347e+01 7.5139124447227550e+00 4.4332685844902606e+01 
83 84 2 1.0279999999916547e+00 -5.9400530258566359e+03 1.0000000000000000e+00 1.3475286228654806e+00 9.1753222774162175e+00 4.4774297292275776e+01 
71 72 2 1.0279999999925953e+00 -5.9396214100720717e+03 1.0000000000000000e+00 1.3523733521793835e+00 9.1806637503611128e+00 4.4774309557643711e+01 
1421 1422 2 1.0280000003235068e+00 2.5987112231950146e+03 1.0000000000000000e+00 1.8926658825314735e+00 1.4038950820179645e+00 4.5175885894936343e+01 
1267 1268 2 1.0279999993668250e+00 3.7538002346657568e+03 1.0000000000000000e+00 3.9603829784699195e-02 1.5198385640965166e+00 4.6835948629674000e+01 
203 204 2 1.0279999993639646e+00 3.7538164451501661e+03 1.0000000000000000e+00 3.7089029476756755e-02 1.5208621348995850e+00 4.6838482583286194e+01 
516 517 2 1.0279999994609323e+00 7.6907673846562993e+03 1.0000000000000000e+00 3.6295432467331841e+00 2.6680130620518872e-01 4.5201097313998041e+01 
462 463 2 1.0279999998223965e+00 2.0088358396952149e+03 1.0000000000000000e+00 2.8867450305734805e+00 1.9865604858218686e+00 4.6018241118760109e+01 
602 603 2 1.0279999997070708e+00 2.0071994989254758e+03 1.0000000000000000e+00 2.7196598577517839e+00 2.5357180197501434e+00 4.5782545194775423e+01 
498 499 2 1.0279999998484919e+00 -9.5860194937269580e+02 1.0000000000000000e+00 1.2500587778418304e+00 5.9452803910615550e+00 4.6379951186752969e+01 
954 955 2 1.0279999995730680e+00 -9.6135171019922745e+02 1.0000000000000000e+00 1.2202283104544613e+00 5.9660463733381821e+00 4.6456176961499864e+01 
634 635 2 1.0280000001101901e+00 -4.0894415196723162e+02 1.0000000000000000e+00 4.1545547345897713e+00 5.0130680399830290e+00 4.6957589996597605e+01 
82 83 2 1.0279999999887706e+00 -5.9183505626223105e+03 1.0000000000000000e+00 1.6148216297096843e-01 7.5627319185114095e+00 4.6188550403512217e+01 
890 891 2 1.0280000001785883e+00 1.6868251358221682e+03 1.0000000000000000e+00 5.9122085777490199e+00 6.1661637728597567e+00 4.6853497123794703e+01 
115 116 2 1.0280000002457383e+00 -6.0387774690519582e+03 1.0000000000000000e+00 7.9799156654471002e+00 6.9674882614235765e+00 4.6435863355356368e+01 
789 790 2 1.0279999998696081e+00 -1.7502671135531882e+03 1.0000000000000000e+00 9.1958353741480785e+00 7.4368602749989874e+00 4.5383249589174397e+01 
262 263 2 1.0280000000677698e+00 2.5433081296533737e+03 1.0000000000000000e+00 9.1453176826805223e+00 7.9876433824406377e+00 4.6423815275893737e+01 
1033 1034 2 1.0280000000928353e+00 8.8177346252125571e+03 1.0000000000000000e+00 1.0842806758649504e+01 6.3427769504809017e+00 4.6134684043827896e+01 
1324 1325 2 1.0280000000125145e+00 1.9930568820938111e+03 1.0000000000000000e+00 1.2474532019061764e+01 7.4409369438715194e+00 4.5496407882209020e+01 
260 261 2 1.0280000000352247e+00 1.9922212949837253e+03 1.0000000000000000e+00 1.2459211428063792e+01 7.4368609757376936e+00 4.5608604489212333e+01 
1217 1218 2 1.0280000000042879e+00 1.6847539525681818e+03 1.0000000000000000e+00 2.1415650196460274e+00 8.8655175930287147e+00 4.6295872024385893e+01 
153 154 2 1.0279999999953184e+00 1.6854787618775842e+03 1.0000000000000000e+00 2.0853531985289240e+00 8.8391934020854510e+00 4.6329277075684118e+01 
1215 1216 2 1.0279999999880174e+00 -2.2747353399320991e+03 1.0000000000000000e+00 1.0966834148606766e+01 8.0770314312863292e+00 4.5696641566201500e+01 