LAMMPS data file via write_data, version 30 Jul 2016, timestep = 1000000

2080 atoms
8 atom types

0.0000000000000000e+00 4.0000000000000000e+01 xlo xhi
0.0000000000000000e+00 4.0000000000000000e+01 ylo yhi
0.0000000000000000e+00 1.0000000000000000e+02 zlo zhi

Masses

1 3.896
2 21.44
3 1058.08
4 8.378
5 8.378
6 8.378
7 8.378
8 8.378

Atoms # meso-molecular

1 2 4 2.2559723595316457e+00 1.3921857368550468e+03 4.2000000000000000e+03 0.0000000000000000e+00 0.0000000000000000e+00 2.5000000000000000e+00 
2 2 4 2.2559723595316457e+00 9.1899375758373037e+02 4.2000000000000000e+03 0.0000000000000000e+00 2.0000000000000000e+00 2.5000000000000000e+00 
21 2 4 2.2559723595316457e+00 2.7277506107089912e+03 4.2000000000000000e+03 2.0000000000000000e+00 0.0000000000000000e+00 2.5000000000000000e+00 
22 2 4 2.2559723595316457e+00 1.1398100852761913e+03 4.2000000000000000e+03 2.0000000000000000e+00 2.0000000000000000e+00 2.5000000000000000e+00 
41 2 4 2.2559723595316457e+00 1.3421769993156563e+03 4.2000000000000000e+03 4.0000000000000000e+00 0.0000000000000000e+00 2.5000000000000000e+00 
42 2 4 2.2559723595316457e+00 -5.8145690287514049e+02 4.2000000000000000e+03 4.0000000000000000e+00 2.0000000000000000e+00 2.5000000000000000e+00 
61 2 4 2.2559723595316457e+00 -1.8435804324932956e+03 4.2000000000000000e+03 6.0000000000000000e+00 0.0000000000000000e+00 2.5000000000000000e+00 
62 2 4 2.2559723595316457e+00 -1.9289192174538084e+03 4.2000000000000000e+03 6.0000000000000000e+00 2.0000000000000000e+00 2.5000000000000000e+00 
81 2 4 2.2559723595316457e+00 -1.4760663446205222e+03 4.2000000000000000e+03 8.0000000000000000e+00 0.0000000000000000e+00 2.5000000000000000e+00 
82 2 4 2.2559723595316457e+00 -6.7757124312786459e+02 4.2000000000000000e+03 8.0000000000000000e+00 2.0000000000000000e+00 2.5000000000000000e+00 
101 2 4 2.2559723595316457e+00 -3.4647450177939584e+02 4.2000000000000000e+03 1.0000000000000000e+01 0.0000000000000000e+00 2.5000000000000000e+00 
102 2 4 2.2559723595316457e+00 9.7065669806769779e+02 4.2000000000000000e+03 1.0000000000000000e+01 2.0000000000000000e+00 2.5000000000000000e+00 
121 2 4 2.2559723595316457e+00 -6.6979435545366687e+02 4.2000000000000000e+03 1.2000000000000000e+01 0.0000000000000000e+00 2.5000000000000000e+00 
122 2 4 2.2559723595316457e+00 8.7372192381600621e+02 4.2000000000000000e+03 1.2000000000000000e+01 2.0000000000000000e+00 2.5000000000000000e+00 
141 2 4 2.2559723595316457e+00 -2.0075720756203368e+03 4.2000000000000000e+03 1.4000000000000000e+01 0.0000000000000000e+00 2.5000000000000000e+00 
142 2 4 2.2559723595316457e+00 -1.9610508038168757e+02 4.2000000000000000e+03 1.4000000000000000e+01 2.0000000000000000e+00 2.5000000000000000e+00 
161 2 4 2.2559723595316457e+00 1.4634536763380861e+03 4.2000000000000000e+03 1.6000000000000000e+01 0.0000000000000000e+00 2.5000000000000000e+00 
162 2 4 2.2559723595316457e+00 2.6485619889976060e+03 4.2000000000000000e+03 1.6000000000000000e+01 2.0000000000000000e+00 2.5000000000000000e+00 
181 2 4 2.2559723595316457e+00 6.5379817456202145e+03 4.2000000000000000e+03 1.8000000000000000e+01 0.0000000000000000e+00 2.5000000000000000e+00 
182 2 4 2.2559723595316457e+00 7.2341500612177078e+03 4.2000000000000000e+03 1.8000000000000000e+01 2.0000000000000000e+00 2.5000000000000000e+00 
3 2 4 2.2559723595316457e+00 5.1015481478359504e+02 4.2000000000000000e+03 0.0000000000000000e+00 4.0000000000000000e+00 2.5000000000000000e+00 
4 2 4 2.2559723595316457e+00 2.6694974909467464e+03 4.2000000000000000e+03 0.0000000000000000e+00 6.0000000000000000e+00 2.5000000000000000e+00 
23 2 4 2.2559723595316457e+00 -9.4441004772703877e+02 4.2000000000000000e+03 2.0000000000000000e+00 4.0000000000000000e+00 2.5000000000000000e+00 
24 2 4 2.2559723595316457e+00 -7.7336517344537526e+02 4.2000000000000000e+03 2.0000000000000000e+00 6.0000000000000000e+00 2.5000000000000000e+00 
43 2 4 2.2559723595316457e+00 -2.3549375563986068e+03 4.2000000000000000e+03 4.0000000000000000e+00 4.0000000000000000e+00 2.5000000000000000e+00 
44 2 4 2.2559723595316457e+00 -2.8730501924079585e+03 4.2000000000000000e+03 4.0000000000000000e+00 6.0000000000000000e+00 2.5000000000000000e+00 
63 2 4 2.2559723595316457e+00 -1.3098140134943230e+03 4.2000000000000000e+03 6.0000000000000000e+00 4.0000000000000000e+00 2.5000000000000000e+00 
64 2 4 2.2559723595316457e+00 -7.9975443899460458e+02 4.2000000000000000e+03 6.0000000000000000e+00 6.0000000000000000e+00 2.5000000000000000e+00 
83 2 4 2.2559723595316457e+00 2.9741111673637840e+02 4.2000000000000000e+03 8.0000000000000000e+00 4.0000000000000000e+00 2.5000000000000000e+00 
84 2 4 2.2559723595316457e+00 -6.4870422451567799e+02 4.2000000000000000e+03 8.0000000000000000e+00 6.0000000000000000e+00 2.5000000000000000e+00 
103 2 4 2.2559723595316457e+00 1.9297196474114853e+03 4.2000000000000000e+03 1.0000000000000000e+01 4.0000000000000000e+00 2.5000000000000000e+00 
104 2 4 2.2559723595316457e+00 -1.6170739644089235e+03 4.2000000000000000e+03 1.0000000000000000e+01 6.0000000000000000e+00 2.5000000000000000e+00 
123 2 4 2.2559723595316457e+00 2.4544404333626453e+03 4.2000000000000000e+03 1.2000000000000000e+01 4.0000000000000000e+00 2.5000000000000000e+00 
124 2 4 2.2559723595316457e+00 7.9685160085359644e+02 4.2000000000000000e+03 1.2000000000000000e+01 6.0000000000000000e+00 2.5000000000000000e+00 
143 2 4 2.2559723595316457e+00 3.7174194457804788e+03 4.2000000000000000e+03 1.4000000000000000e+01 4.0000000000000000e+00 2.5000000000000000e+00 
144 2 4 2.2559723595316457e+00 4.5815403651387260e+03 4.2000000000000000e+03 1.4000000000000000e+01 6.0000000000000000e+00 2.5000000000000000e+00 
163 2 4 2.2559723595316457e+00 5.5677904505551069e+03 4.2000000000000000e+03 1.6000000000000000e+01 4.0000000000000000e+00 2.5000000000000000e+00 
164 2 4 2.2559723595316457e+00 5.0640127348685273e+03 4.2000000000000000e+03 1.6000000000000000e+01 6.0000000000000000e+00 2.5000000000000000e+00 
183 2 4 2.2559723595316457e+00 8.6772673176652388e+03 4.2000000000000000e+03 1.8000000000000000e+01 4.0000000000000000e+00 2.5000000000000000e+00 
184 2 4 2.2559723595316457e+00 3.7307797642779424e+03 4.2000000000000000e+03 1.8000000000000000e+01 6.0000000000000000e+00 2.5000000000000000e+00 
5 2 4 2.2559723595316457e+00 1.4647665379140353e+03 4.2000000000000000e+03 0.0000000000000000e+00 8.0000000000000000e+00 2.5000000000000000e+00 
6 2 4 2.2559723595316457e+00 6.0608558143669688e+02 4.2000000000000000e+03 0.0000000000000000e+00 1.0000000000000000e+01 2.5000000000000000e+00 
25 2 4 2.2559723595316457e+00 -6.8823247229040783e+02 4.2000000000000000e+03 2.0000000000000000e+00 8.0000000000000000e+00 2.5000000000000000e+00 
26 2 4 2.2559723599524228e+00 8.1368200119318050e+00 4.2000000000000000e+03 2.0000000000000000e+00 1.0000000000000000e+01 2.5000000000000000e+00 
45 2 4 2.2559723595316457e+00 -2.0543523620522055e+03 4.2000000000000000e+03 4.0000000000000000e+00 8.0000000000000000e+00 2.5000000000000000e+00 
46 2 4 2.2559723595316457e+00 -2.3732219853672092e+02 4.2000000000000000e+03 4.0000000000000000e+00 1.0000000000000000e+01 2.5000000000000000e+00 
65 2 4 2.2559723595316457e+00 -2.6371405879893734e+02 4.2000000000000000e+03 6.0000000000000000e+00 8.0000000000000000e+00 2.5000000000000000e+00 
66 2 4 2.2559723595316457e+00 9.3076698320489777e+02 4.2000000000000000e+03 6.0000000000000000e+00 1.0000000000000000e+01 2.5000000000000000e+00 
85 2 4 2.2559723595316457e+00 -1.9692504332048065e+03 4.2000000000000000e+03 8.0000000000000000e+00 8.0000000000000000e+00 2.5000000000000000e+00 
86 2 4 2.2559723595316457e+00 8.3276811594594946e+01 4.2000000000000000e+03 8.0000000000000000e+00 1.0000000000000000e+01 2.5000000000000000e+00 
105 2 4 2.2559723595316457e+00 -4.3158251952538612e+03 4.2000000000000000e+03 1.0000000000000000e+01 8.0000000000000000e+00 2.5000000000000000e+00 
106 2 4 2.2559723595316457e+00 -1.6019645769889134e+03 4.2000000000000000e+03 1.0000000000000000e+01 1.0000000000000000e+01 2.5000000000000000e+00 
125 2 4 2.2559723595316457e+00 -8.5098246558896312e+02 4.2000000000000000e+03 1.2000000000000000e+01 8.0000000000000000e+00 2.5000000000000000e+00 
126 2 4 2.2559723595316457e+00 5.5999993506310534e+02 4.2000000000000000e+03 1.2000000000000000e+01 1.0000000000000000e+01 2.5000000000000000e+00 
145 2 4 2.2559723595316457e+00 3.0324376536688706e+03 4.2000000000000000e+03 1.4000000000000000e+01 8.0000000000000000e+00 2.5000000000000000e+00 
146 2 4 2.2559723595316457e+00 2.9301576419314750e+02 4.2000000000000000e+03 1.4000000000000000e+01 1.0000000000000000e+01 2.5000000000000000e+00 
165 2 4 2.2559723595316457e+00 2.0889895658381306e+03 4.2000000000000000e+03 1.6000000000000000e+01 8.0000000000000000e+00 2.5000000000000000e+00 
166 2 4 2.2559723595316457e+00 -3.3309095233758899e+03 4.2000000000000000e+03 1.6000000000000000e+01 1.0000000000000000e+01 2.5000000000000000e+00 
185 2 4 2.2559723595316457e+00 -5.3835446529566877e+02 4.2000000000000000e+03 1.8000000000000000e+01 8.0000000000000000e+00 2.5000000000000000e+00 
186 2 4 2.2559723595316457e+00 -5.1664349025100992e+03 4.2000000000000000e+03 1.8000000000000000e+01 1.0000000000000000e+01 2.5000000000000000e+00 
7 2 4 2.2559723595316457e+00 3.0901531499447565e+03 4.2000000000000000e+03 0.0000000000000000e+00 1.2000000000000000e+01 2.5000000000000000e+00 
8 2 4 2.2559723595316457e+00 2.9251125968388560e+03 4.2000000000000000e+03 0.0000000000000000e+00 1.4000000000000000e+01 2.5000000000000000e+00 
27 2 4 2.2559723595316457e+00 2.6742884349276301e+03 4.2000000000000000e+03 2.0000000000000000e+00 1.2000000000000000e+01 2.5000000000000000e+00 
28 2 4 2.2559723595316457e+00 3.0770211415199933e+03 4.2000000000000000e+03 2.0000000000000000e+00 1.4000000000000000e+01 2.5000000000000000e+00 
47 2 4 2.2559723595316457e+00 2.3342175096436440e+03 4.2000000000000000e+03 4.0000000000000000e+00 1.2000000000000000e+01 2.5000000000000000e+00 
48 2 4 2.2559723595316457e+00 1.8635094673025474e+03 4.2000000000000000e+03 4.0000000000000000e+00 1.4000000000000000e+01 2.5000000000000000e+00 
67 2 4 2.2559723595316457e+00 2.9217780964669764e+03 4.2000000000000000e+03 6.0000000000000000e+00 1.2000000000000000e+01 2.5000000000000000e+00 
68 2 4 2.2559723595316457e+00 1.3364553344068117e+03 4.2000000000000000e+03 6.0000000000000000e+00 1.4000000000000000e+01 2.5000000000000000e+00 
87 2 4 2.2559723595316457e+00 2.8275848324117533e+03 4.2000000000000000e+03 8.0000000000000000e+00 1.2000000000000000e+01 2.5000000000000000e+00 
88 2 4 2.2559723595316457e+00 1.9568410688101635e+03 4.2000000000000000e+03 8.0000000000000000e+00 1.4000000000000000e+01 2.5000000000000000e+00 
107 2 4 2.2559723595316457e+00 2.0445648629724988e+03 4.2000000000000000e+03 1.0000000000000000e+01 1.2000000000000000e+01 2.5000000000000000e+00 
108 2 4 2.2559723595316457e+00 1.7993215806991379e+03 4.2000000000000000e+03 1.0000000000000000e+01 1.4000000000000000e+01 2.5000000000000000e+00 
127 2 4 2.2559723595316457e+00 2.8350219131497679e+03 4.2000000000000000e+03 1.2000000000000000e+01 1.2000000000000000e+01 2.5000000000000000e+00 
128 2 4 2.2559723595316457e+00 2.0669515584030432e+03 4.2000000000000000e+03 1.2000000000000000e+01 1.4000000000000000e+01 2.5000000000000000e+00 
147 2 4 2.2559723595316457e+00 1.5831694516945640e+03 4.2000000000000000e+03 1.4000000000000000e+01 1.2000000000000000e+01 2.5000000000000000e+00 
148 2 4 2.2559723595316457e+00 2.0803858377172419e+03 4.2000000000000000e+03 1.4000000000000000e+01 1.4000000000000000e+01 2.5000000000000000e+00 
167 2 4 2.2559723595316457e+00 -3.9947193297130402e+03 4.2000000000000000e+03 1.6000000000000000e+01 1.2000000000000000e+01 2.5000000000000000e+00 
168 2 4 2.2559723595316457e+00 -1.8914930863162710e+03 4.2000000000000000e+03 1.6000000000000000e+01 1.4000000000000000e+01 2.5000000000000000e+00 
187 2 4 2.2559723595316457e+00 -6.7457075251369488e+03 4.2000000000000000e+03 1.8000000000000000e+01 1.2000000000000000e+01 2.5000000000000000e+00 
188 2 4 2.2559723595316457e+00 -3.7539529078990881e+03 4.2000000000000000e+03 1.8000000000000000e+01 1.4000000000000000e+01 2.5000000000000000e+00 
9 2 4 2.2559723595316457e+00 -1.7641844921763698e+03 4.2000000000000000e+03 0.0000000000000000e+00 1.6000000000000000e+01 2.5000000000000000e+00 
10 2 4 2.2559723595316457e+00 -4.5509039834404275e+03 4.2000000000000000e+03 0.0000000000000000e+00 1.8000000000000000e+01 2.5000000000000000e+00 
29 2 4 2.2559723595316457e+00 -1.4630978447967452e+03 4.2000000000000000e+03 2.0000000000000000e+00 1.6000000000000000e+01 2.5000000000000000e+00 
30 2 4 2.2559723595316457e+00 -5.2474343138164350e+03 4.2000000000000000e+03 2.0000000000000000e+00 1.8000000000000000e+01 2.5000000000000000e+00 
49 2 4 2.2559723595316457e+00 -1.1352894658127859e+03 4.2000000000000000e+03 4.0000000000000000e+00 1.6000000000000000e+01 2.5000000000000000e+00 
50 2 4 2.2559723595316457e+00 -3.4429202297688112e+03 4.2000000000000000e+03 4.0000000000000000e+00 1.8000000000000000e+01 2.5000000000000000e+00 
69 2 4 2.2559723595316457e+00 -1.1520563596913353e+03 4.2000000000000000e+03 6.0000000000000000e+00 1.6000000000000000e+01 2.5000000000000000e+00 
70 2 4 2.2559723595316457e+00 -1.3709412736036375e+03 4.2000000000000000e+03 6.0000000000000000e+00 1.8000000000000000e+01 2.5000000000000000e+00 
89 2 4 2.2559723595316457e+00 -4.6288791596949125e+02 4.2000000000000000e+03 8.0000000000000000e+00 1.6000000000000000e+01 2.5000000000000000e+00 
90 2 4 2.2559723595316457e+00 -6.5089506059219116e+02 4.2000000000000000e+03 8.0000000000000000e+00 1.8000000000000000e+01 2.5000000000000000e+00 
109 2 4 2.2559723595316457e+00 -2.8897019360146720e+02 4.2000000000000000e+03 1.0000000000000000e+01 1.6000000000000000e+01 2.5000000000000000e+00 
110 2 4 2.2559723595316457e+00 -1.2055032340038356e+03 4.2000000000000000e+03 1.0000000000000000e+01 1.8000000000000000e+01 2.5000000000000000e+00 
129 2 4 2.2559723595316457e+00 2.2760196198311296e+03 4.2000000000000000e+03 1.2000000000000000e+01 1.6000000000000000e+01 2.5000000000000000e+00 
130 2 4 2.2559723595316457e+00 3.7580603491072106e+03 4.2000000000000000e+03 1.2000000000000000e+01 1.8000000000000000e+01 2.5000000000000000e+00 
149 2 4 2.2559723595316457e+00 4.7938261055553157e+03 4.2000000000000000e+03 1.4000000000000000e+01 1.6000000000000000e+01 2.5000000000000000e+00 
150 2 4 2.2559723595316457e+00 7.5285395612553311e+03 4.2000000000000000e+03 1.4000000000000000e+01 1.8000000000000000e+01 2.5000000000000000e+00 
169 2 4 2.2559723595316457e+00 1.8544278948480560e+03 4.2000000000000000e+03 1.6000000000000000e+01 1.6000000000000000e+01 2.5000000000000000e+00 
170 2 4 2.2559723595316457e+00 2.7960700642622605e+03 4.2000000000000000e+03 1.6000000000000000e+01 1.8000000000000000e+01 2.5000000000000000e+00 
189 2 4 2.2559723595316457e+00 -1.6739932253274490e+03 4.2000000000000000e+03 1.8000000000000000e+01 1.6000000000000000e+01 2.5000000000000000e+00 
190 2 4 2.2559723595316457e+00 -8.5840657992365959e+02 4.2000000000000000e+03 1.8000000000000000e+01 1.8000000000000000e+01 2.5000000000000000e+00 
1178 780 2 1.0280008598557016e+00 -7.8588373660529754e+05 4.2000000000000000e+03 2.8897140430500588e-02 1.1049303586527836e+01 1.8819135647571631e+01 
1821 1423 2 1.0279978040989979e+00 5.2087505682478176e+05 4.2000000000000000e+03 1.7512840173178168e-01 1.4985767800084068e+01 1.9013230935010238e+01 
1735 1337 2 1.0279983215284998e+00 -8.7547929683600459e+05 4.2000000000000000e+03 1.8595954719917342e-02 1.4879555071479542e+01 1.8443193879811624e+01 
442 44 2 1.0280075896157457e+00 5.5276188938899396e+05 4.2000000000000000e+03 1.5688940352552803e+00 1.6726197092959964e+01 2.0208350666059591e+01 
1078 680 2 1.0279841579591489e+00 -2.7067911317328498e+05 4.2000000000000000e+03 2.5448037219548036e-01 1.3591372550069458e+00 2.4890681525165022e+01 
2024 1626 2 1.0279979070836105e+00 3.8328791754105740e+05 4.2000000000000000e+03 1.9141679074376203e-01 1.9529027836097806e-01 2.4897965469327172e+01 
1691 1293 2 1.0280015232502968e+00 -1.0139651781184770e+06 4.2000000000000000e+03 2.9386882759334672e+00 7.3560925663740520e+00 2.2725310898920799e+01 
792 394 2 1.0280007689570030e+00 6.4621745071076311e+05 4.2000000000000000e+03 2.9065227353230565e+00 7.5504192485380290e+00 2.3099553445601330e+01 
937 539 2 1.0279998966924297e+00 1.6732333243123247e+05 4.2000000000000000e+03 3.1211860147731780e+00 8.0199204706425586e+00 2.1858061767087424e+01 
752 354 2 1.0279981942390775e+00 4.2049476933670143e+05 4.2000000000000000e+03 2.9588992645209746e+00 8.2685890014924315e+00 2.1776225148009086e+01 
453 55 2 1.0279962561282860e+00 6.1507420041315444e+05 4.2000000000000000e+03 2.6995459160358863e+00 8.4961601716092634e+00 2.1757819322935973e+01 
1059 661 2 1.0280001491068225e+00 -8.3743961353179370e+05 4.2000000000000000e+03 1.2178439333883950e-01 9.2996310737372099e+00 2.4697360060629020e+01 
425 27 2 1.0280003963805515e+00 3.3904261070519278e+05 4.2000000000000000e+03 1.6822267217462827e+00 1.6442599974149559e+01 2.0833540641852245e+01 
1884 1486 2 1.0279981693255611e+00 2.3815846014160657e+05 4.2000000000000000e+03 2.3072312638496006e+00 1.7217999993616157e+01 2.1799708254501013e+01 
1987 1589 2 1.0279980731888232e+00 2.6854665562421811e+05 4.2000000000000000e+03 2.2540989694085165e+00 1.7418721437742981e+01 2.1872053790777311e+01 
635 237 2 1.0279989933062890e+00 -5.9846392296766455e+05 4.2000000000000000e+03 3.3497526476076684e+00 1.8234912274636418e+01 2.1437829171344085e+01 
644 246 2 1.0279990636314951e+00 2.5078565109909710e+05 4.2000000000000000e+03 3.2769093593972478e+00 1.9845190131269558e+01 2.1138953887339817e+01 
1423 1025 2 1.0279984265832549e+00 -7.1936546945685777e+05 4.2000000000000000e+03 2.7651352612266282e+00 3.9690184496421059e+00 2.7816875405557472e+01 
2067 1669 2 1.0279982452560881e+00 1.3464042860222433e+05 4.2000000000000000e+03 3.6938343174208166e+00 3.6326770495459222e+00 2.8185959296276106e+01 
1814 1416 2 1.0280056664989923e+00 -4.3263868748120649e+05 4.2000000000000000e+03 2.2962899991731589e-01 3.6830722917444580e+00 2.7186592018299137e+01 
1598 1200 2 1.0280092603996969e+00 -5.5990330262605764e+05 4.2000000000000000e+03 5.5711556345905404e-02 1.6994324254341679e+00 2.5384077358212696e+01 
913 515 2 1.0279996686809567e+00 1.2809506317801698e+05 4.2000000000000000e+03 4.2906901381754139e+00 2.9752491853856942e+00 2.8669003666511955e+01 
1782 1384 2 1.0280029056500610e+00 -5.5087109060152725e+05 4.2000000000000000e+03 2.2660305667043854e+00 6.1379134453721962e+00 2.8328083398025058e+01 
1405 1007 2 1.0280002866198787e+00 2.6588247652739403e+05 4.2000000000000000e+03 1.0791417171560436e+00 9.4692293950816193e+00 2.7604913067567644e+01 
1422 1024 2 1.0279993225967499e+00 -6.9313917808204074e+05 4.2000000000000000e+03 1.1738226767667910e+00 9.4675565107593584e+00 2.8046548253943040e+01 
1432 1034 2 1.0280032300330249e+00 2.9108866988574137e+05 4.2000000000000000e+03 1.0596983287137001e-02 9.3445363517375188e+00 2.6103438172584127e+01 
576 178 2 1.0280002376348387e+00 5.1320785078156262e+05 4.2000000000000000e+03 3.4209333617266782e+00 1.8666886069038584e+00 3.0121572244336399e+01 
1617 1219 2 1.0280000368617828e+00 3.9655977793980512e+05 4.2000000000000000e+03 2.7039040949805431e+00 2.3286359020647001e+00 3.0227797838331902e+01 
963 565 2 1.0280007569139433e+00 -6.6437739674093621e+05 4.2000000000000000e+03 3.8851012769995510e+00 1.8206819253989144e+00 2.9982023797712522e+01 
1371 973 2 1.0280016287169373e+00 -8.1797602044404938e+05 4.2000000000000000e+03 1.9837333157146624e+01 1.0386311108109722e-01 3.2145228688966640e+01 
1173 775 2 1.0280009030716128e+00 6.5047484190190979e+05 4.2000000000000000e+03 2.0701379316509416e+00 6.8640227203777480e+00 2.9634674849141057e+01 
832 434 2 1.0279977894638290e+00 3.1946708468119241e+05 4.2000000000000000e+03 1.8351583723957519e+00 8.6627838229201508e+00 2.9390340956259827e+01 
755 357 2 1.0279978264647633e+00 -6.8098912045855529e+05 4.2000000000000000e+03 1.8364359320215042e+00 8.7540766352904704e+00 2.9301384674282133e+01 
1690 1292 2 1.0280102606242030e+00 -1.0204601700324151e+06 4.2000000000000000e+03 7.1012084405225040e-01 6.1134917734439593e+00 3.7155788842341799e+01 
976 578 2 1.0279903794092635e+00 2.6513107941621862e+05 4.2000000000000000e+03 8.7906433854601196e-01 6.7001787390925402e+00 3.8845442733046454e+01 
1990 1592 2 1.0279903296405253e+00 1.5794552468674144e+05 4.2000000000000000e+03 7.9674089289806804e-01 6.5501630180950174e+00 3.8951910149662304e+01 
1739 1341 2 1.0279902794760543e+00 -6.0277569709393894e+05 4.2000000000000000e+03 7.9810871860042698e-01 6.6153818794093961e+00 3.8934873000737426e+01 
1673 1275 2 1.0279872880112080e+00 4.6941149927509297e+05 4.2000000000000000e+03 4.1013007734592346e+00 7.4459464760370961e+00 4.1490464174849116e+01 
1411 1013 2 1.0279863160714093e+00 1.4055827338006083e+05 4.2000000000000000e+03 4.1159661285058453e+00 7.4855856387603934e+00 4.1417954076288517e+01 
2031 1633 2 1.0280046873340472e+00 6.6765756078630430e+05 4.2000000000000000e+03 6.5665589534664219e+00 6.8675934823477620e+00 4.1234865661588579e+01 
695 297 2 1.0279994312291862e+00 -3.4531334418904042e+05 4.2000000000000000e+03 9.2353669981430198e+00 1.1864903749944855e+01 4.0881943408881781e+01 
1499 1101 2 1.0280002412354996e+00 -8.4136268485951435e+05 4.2000000000000000e+03 8.7424910506447500e+00 1.5548765955615826e+01 3.7503038196492817e+01 
915 517 2 1.0279977123967849e+00 -7.5577371333955869e+05 4.2000000000000000e+03 9.2039313780167209e+00 1.2119850704739671e+01 4.0713484643225080e+01 
2027 1629 2 1.0279993273997303e+00 2.9985347123078245e+05 4.2000000000000000e+03 9.8928048561485902e+00 1.2795000423760133e+01 3.8917563250559603e+01 
537 139 2 1.0280001785927357e+00 4.8533508947291278e+05 4.2000000000000000e+03 1.0856831175132799e+01 1.5494006369079232e+01 3.8073091667086118e+01 
753 355 2 1.0280001570962480e+00 5.2018903335212125e+05 4.2000000000000000e+03 1.0875453822183539e+01 1.5149432420755248e+01 3.7966667524402922e+01 
1641 1243 2 1.0279982370967171e+00 4.6829055038631568e+05 4.2000000000000000e+03 1.1232195018445646e+01 1.3534937593495636e+01 4.0125134020952466e+01 
862 464 2 1.0279985875153954e+00 -8.2581018937283300e+05 4.2000000000000000e+03 1.1282072081555741e+01 1.3594215574740064e+01 3.9941100476354059e+01 
1311 913 2 1.0280003324893658e+00 -8.4696374566756806e+05 4.2000000000000000e+03 7.3150896258328659e+00 1.6330667890053117e+01 3.9352181219509454e+01 
1026 628 2 1.0280002258605474e+00 -8.3180373725533602e+05 4.2000000000000000e+03 7.9374240743727773e+00 1.6851810006422220e+01 4.0155991530087668e+01 
1785 1387 2 1.0280002282848617e+00 1.3660330954001832e+05 4.2000000000000000e+03 7.8966680900275499e+00 1.6883586910407566e+01 4.0110178207879720e+01 
717 319 2 1.0280002079546915e+00 3.0905145849290048e+05 4.2000000000000000e+03 7.9628632230001202e+00 1.6895669052793313e+01 4.0138168121814644e+01 
1439 1041 2 1.0279999275632503e+00 -6.7916946778501663e+05 4.2000000000000000e+03 9.2717714011404944e+00 1.6480924990991028e+01 3.7609209841185880e+01 
465 67 2 1.0279961484443130e+00 3.9024109176060412e+05 4.2000000000000000e+03 8.0042284825696957e+00 3.2913209754848380e+00 4.2941422764100956e+01 
1444 1046 2 1.0279969303311063e+00 1.8668699941479554e+05 4.2000000000000000e+03 8.1503097923871852e+00 1.9781002462145065e+00 4.3092109873259979e+01 
1878 1480 2 1.0279966380442778e+00 -3.7971784258838440e+05 4.2000000000000000e+03 8.1545889678303958e+00 2.3841416528898223e+00 4.3002320060409133e+01 
703 305 2 1.0280027961340084e+00 -3.5522492564691143e+05 4.2000000000000000e+03 8.5677464401479568e+00 3.8648588976775953e+00 4.5291272406523646e+01 
757 359 2 1.0280000832426950e+00 4.4143258566397737e+05 4.2000000000000000e+03 1.2102009722655845e+01 1.4328258737513171e+00 4.5748279314277539e+01 
1752 1354 2 1.0280029330087397e+00 4.6216081179965945e+05 4.2000000000000000e+03 1.2509436321844090e+01 1.7789360652932689e+00 4.5780995512377004e+01 
1684 1286 2 1.0280013955834735e+00 4.3950447373234417e+05 4.2000000000000000e+03 4.3011805021080081e+00 7.3841433852275600e+00 4.2410305937291454e+01 
482 84 2 1.0280046208131852e+00 2.6304523045064916e+05 4.2000000000000000e+03 7.3515034490809406e+00 6.0044581016327623e+00 4.2155846096896511e+01 
503 105 2 1.0279929433994062e+00 3.2037362372808642e+05 4.2000000000000000e+03 8.2993301258573489e+00 5.7010407069545881e+00 4.3346030094905359e+01 
1147 749 2 1.0280028989961314e+00 -8.3947548559120286e+05 4.2000000000000000e+03 8.6575479379985332e+00 4.1144348550018925e+00 4.5271947507962089e+01 
974 576 2 1.0280039654324951e+00 -7.5878731780535227e+05 4.2000000000000000e+03 4.9059919079962961e+00 8.9521319234551875e+00 4.2143765549747805e+01 
800 402 2 1.0280016849061764e+00 -5.6082528357930423e+04 4.2000000000000000e+03 6.1070242059822650e+00 9.3407973471385191e+00 4.2214414452003552e+01 
1287 889 2 1.0279920847378290e+00 -1.0195043373220424e+06 4.2000000000000000e+03 7.7668493775822833e+00 8.6472043408470984e+00 4.3675689980193063e+01 
1493 1095 2 1.0279843376815809e+00 2.1992374335091200e+05 4.2000000000000000e+03 8.3567209614983167e+00 8.5069679354115983e+00 4.3669951208898787e+01 
1753 1355 2 1.0279982741474725e+00 2.6960326407622267e+05 4.2000000000000000e+03 9.6538041023643597e+00 9.2506601077230659e+00 4.2937943323547650e+01 
1066 668 2 1.0280045030756544e+00 -5.2802238805432920e+05 4.2000000000000000e+03 1.0732642674231656e+01 1.0167383317123040e+01 4.3277285640403917e+01 
950 552 2 1.0280004013442177e+00 -8.4943610346402088e+05 4.2000000000000000e+03 1.1335503169312515e+01 1.1495813466165750e+01 4.4352649530709158e+01 
1260 862 2 1.0279811468806177e+00 7.1277358761662268e+05 4.2000000000000000e+03 1.0913441333064220e+01 1.1165782479803664e+01 4.5323894980972888e+01 
791 393 2 1.0280009847745919e+00 -7.6598097233806574e+05 4.2000000000000000e+03 9.5394616777298236e+00 1.2411214472861813e+01 4.2394859383774666e+01 
1805 1407 2 1.0279886846973039e+00 4.6731663211616583e+05 4.2000000000000000e+03 1.0848182356330755e+01 1.2264401275757628e+01 4.5403186902379993e+01 
1975 1577 2 1.0279991215666022e+00 6.7674073618251586e+05 4.2000000000000000e+03 1.0833011447177732e+01 1.5235008579250233e+00 4.6141072422338610e+01 
867 469 2 1.0279988650120415e+00 -6.1180422230358724e+05 4.2000000000000000e+03 1.0385788291162315e+01 3.5816296910862988e+00 4.6880270493642179e+01 
447 49 2 1.0280008612253266e+00 5.1054654740184738e+05 4.2000000000000000e+03 1.1490036948660540e+01 6.3455241693054978e+00 4.6450331678263353e+01 
1675 1277 2 1.0280007627592032e+00 -8.9095523170338129e+05 4.2000000000000000e+03 1.1846858166981271e+01 6.8670512323906809e+00 4.6950129310958665e+01 
1492 1094 2 1.0280002100727510e+00 5.9225105210463726e+05 4.2000000000000000e+03 1.1432643094825627e+01 6.4196693130222240e+00 4.7365696838180085e+01 
1540 1142 2 1.0279990597251072e+00 5.0145563236053882e+05 4.2000000000000000e+03 1.3046606179419848e+01 4.0224215296194936e+00 4.5882948066531725e+01 
829 431 2 1.0279990857678993e+00 3.3900809492825693e+05 4.2000000000000000e+03 1.3056779019551048e+01 4.0514469203468764e+00 4.5888041982103594e+01 
730 332 2 1.0279999316216377e+00 -3.3791547864982224e+05 4.2000000000000000e+03 1.5176537549483252e+01 6.6156178286089764e+00 4.8178912667104584e+01 
567 169 2 1.0279998683577851e+00 7.1175315303381614e+05 4.2000000000000000e+03 1.5153229102153857e+01 6.0997173447764652e+00 4.8342000512900739e+01 
1510 1112 2 1.0279998693882020e+00 -5.3467935350886476e+05 4.2000000000000000e+03 1.5168334742812496e+01 6.1727270375163261e+00 4.8361691816594508e+01 
2045 1647 2 1.0280000619731842e+00 4.9426118644485954e+05 4.2000000000000000e+03 1.3572969516090287e+01 7.1159799614839043e+00 4.9195153838608569e+01 
1406 1008 2 1.0280000288952715e+00 4.0034525356776308e+05 4.2000000000000000e+03 1.3741189447003206e+01 7.0869069340818713e+00 4.9237213692354800e+01 
507 109 2 1.0279975530628251e+00 8.2043014057613199e+05 4.2000000000000000e+03 1.1573408175758825e+01 1.4130535781517404e+01 4.8586895285568666e+01 
705 307 2 1.0279964519385743e+00 1.7931678167236465e+05 4.2000000000000000e+03 1.1493165010193156e+01 1.4006936089678723e+01 4.8107541617642141e+01 
1960 1562 2 1.0279964833919919e+00 5.2713789103368297e+05 4.2000000000000000e+03 1.2075766910153902e+01 1.2731304269781525e+01 4.7302070612624853e+01 
2002 1604 2 1.0279965621851304e+00 3.1249435390814795e+05 4.2000000000000000e+03 1.2102793529112647e+01 1.2757222829467674e+01 4.7242171118544249e+01 
1375 977 2 1.0279887254051481e+00 -1.0479535436818155e+06 4.2000000000000000e+03 1.2420115884366274e+01 1.5227835210219638e+01 4.9993792860996741e+01 
1229 831 2 1.0279909712507624e+00 5.5241963433891977e+05 4.2000000000000000e+03 1.6738836010688726e+01 1.6146167720416704e+00 5.2663742979322897e+01 
1523 1125 2 1.0279909704162029e+00 -5.6824378236595576e+05 4.2000000000000000e+03 1.6739277579527997e+01 1.6146686727993658e+00 5.2663709392534201e+01 
1407 1009 2 1.0279937015556562e+00 3.8916248487250251e+05 4.2000000000000000e+03 1.6656671808259002e+01 1.6188267481674712e+00 5.2674852366076777e+01 
1273 875 2 1.0279830209073288e+00 4.3207375069817773e+05 4.2000000000000000e+03 1.2529086624116117e+01 1.5128167032007795e+01 5.0258113658584534e+01 
2072 1674 2 1.0280020727392285e+00 3.7426438298459328e+05 4.2000000000000000e+03 1.3978845183467046e+01 1.5852935409441399e+01 5.1991844934010516e+01 
1051 653 2 1.0279958449994717e+00 -7.6479528957080725e+05 4.2000000000000000e+03 1.2741804587711533e+01 1.6165297639032797e+01 5.1449024860280879e+01 
515 117 2 1.0279882143097876e+00 3.1051952262484044e+05 4.2000000000000000e+03 1.3153747836036374e+01 1.7452396626058164e+01 5.3265041942018698e+01 
701 303 2 1.0280039827820644e+00 1.4128780968799936e+04 4.2000000000000000e+03 1.3330127459679117e+01 1.7584346856012107e+01 5.4091534844411242e+01 
1211 813 2 1.0280062690108636e+00 -8.5801852843763167e+05 4.2000000000000000e+03 1.5463431555559314e+01 1.7141926118557461e+01 5.0565914032570937e+01 