LAMMPS data file via write_data, version 30 Jul 2016, timestep = 50000000

4620 atoms
8 atom types

0.0000000000000000e+00 1.0000000000000000e+02 xlo xhi
0.0000000000000000e+00 4.0000000000000000e+01 ylo yhi
0.0000000000000000e+00 4.0000000000000000e+01 zlo zhi

Masses

1 3.896
2 5.36
3 20.064
4 8.378
5 8.378
6 8.378
7 8.378
8 8.378

Atoms # meso-molecular

457 458 2 1.0280000002020915e+00 5.0504050008021972e+02 1.0000000000000000e+00 2.3773229374149022e+01 3.7306511642901080e-01 1.2754913851279968e+00 
455 456 2 1.0280000000932257e+00 2.2806874235287802e+02 1.0000000000000000e+00 2.6641851987030169e+01 1.1334463509202761e+00 7.1011628297893548e-01 
370 371 2 1.0279999999062124e+00 9.4325435598462761e+01 1.0000000000000000e+00 2.5472975932247781e+01 3.3838638776155128e-01 4.7294439719715153e-01 
1090 1091 2 1.0280000010402388e+00 2.8256888330700519e+02 1.0000000000000000e+00 2.8348151589869104e+01 1.0469060963480164e-02 7.5646067359509939e-01 
1170 1171 2 1.0279999995455722e+00 -7.7528420594924455e+02 1.0000000000000000e+00 2.3582133610891240e+01 1.9239296699801041e+00 2.7133695955209730e-01 
2622 2623 2 1.0279999994862470e+00 8.1113943965388080e+02 1.0000000000000000e+00 2.7167969274161113e+01 2.5938520698451564e+00 1.0264521133793181e+00 
4094 4095 2 1.0280000000000000e+00 7.6587887355162252e+02 1.0000000000000000e+00 1.3282144558161626e+01 9.1374648118870763e+00 8.5420893251185115e-01 
2751 2752 2 1.0280000000000000e+00 -8.0884312262407730e+02 1.0000000000000000e+00 1.3966655682847030e+01 8.4113263716677107e+00 2.9605079786141891e-01 
3738 3739 2 1.0280000009149872e+00 4.0105123708190041e+02 1.0000000000000000e+00 2.9538430191804046e+01 9.3123233353767976e+00 1.3424252283872273e+00 
3276 3277 2 1.0280000006025927e+00 5.9947186013717260e+02 1.0000000000000000e+00 2.8681164749877457e+01 1.0253074664070988e+01 6.9968071208269544e-01 
4166 4167 2 1.0279999997552396e+00 2.6381645842372689e+02 1.0000000000000000e+00 3.2503871698057921e+01 1.3257997926073330e+01 1.2363938836894353e+00 
1897 1898 2 1.0280000005644716e+00 7.5123811761536513e+02 1.0000000000000000e+00 2.1674898603897134e+01 1.4238120265126859e+01 1.2829516653776967e+00 
129 130 2 1.0280000013505044e+00 -8.4308051734973719e+02 1.0000000000000000e+00 2.9970138516126550e+01 1.3654311577503099e+01 7.9060866462105694e-01 
130 131 2 1.0279999982270711e+00 -1.3193998198491718e+03 1.0000000000000000e+00 2.9742102921325909e+01 1.4679981080307577e+01 1.5696064031797252e+00 
8 9 2 1.0279999978354508e+00 2.6197359566475228e+02 1.0000000000000000e+00 3.1767401709561092e+01 1.4607937779328507e+01 1.2233367176991559e+00 
213 214 2 1.0280000021952231e+00 -1.5914273062518882e+03 1.0000000000000000e+00 3.1063539327179388e+01 1.5861705992477200e+01 1.6287092628668385e+00 
3103 3104 2 1.0280000043245208e+00 1.8475030794973017e+02 1.0000000000000000e+00 3.2954304782127927e+01 1.6364236832885567e+01 1.0046420800641684e+00 
1051 1052 2 1.0279999977305587e+00 -1.9191980062176088e+02 1.0000000000000000e+00 2.2477423008834712e+01 1.7663514135712298e+01 1.5025408593739158e+00 
1714 1715 2 1.0279999996787066e+00 -1.5218901032383519e+03 1.0000000000000000e+00 2.2480514108226743e+01 6.8967727484515884e-01 2.0618047953442393e+00 
1510 1511 2 1.0279999992658577e+00 -5.9344795893894684e+02 1.0000000000000000e+00 2.5008167999461627e+01 1.2888580292289258e+00 2.0671679182400156e+00 
1971 1972 2 1.0280000013030788e+00 1.1733886585293328e+03 1.0000000000000000e+00 2.5058551934905839e+01 3.2831240067551731e-01 2.9481603421865210e+00 
2058 2059 2 1.0279999995584295e+00 -5.3135296381672947e+02 1.0000000000000000e+00 2.7305273273572418e+01 4.9203207365285828e-01 2.4264588575639214e+00 
2579 2580 2 1.0280000008416228e+00 4.8508874788610251e+02 1.0000000000000000e+00 2.7618110899381115e+01 2.0927705342008447e+00 2.1758625276643437e+00 
597 598 2 1.0280000000000000e+00 -8.0594259630197757e+02 1.0000000000000000e+00 2.8181253810343229e+01 4.5301919293110702e+00 2.2891697710248069e+00 
1058 1059 2 1.0280000000000000e+00 7.3461461667128378e+02 1.0000000000000000e+00 2.9280382051638163e+01 4.6528533429392809e+00 1.9989210772234844e+00 
4199 4200 2 1.0279999969124296e+00 -4.8628317185065771e+02 1.0000000000000000e+00 2.7720666045843178e+01 8.1545820420679576e+00 3.0539156268775898e+00 
3237 3238 2 1.0279999973606897e+00 -1.0309791790063323e+03 1.0000000000000000e+00 2.7579115262097989e+01 9.6756256105570273e+00 1.7287509330826256e+00 
4288 4289 2 1.0279999985294348e+00 -1.3191799414587285e+03 1.0000000000000000e+00 3.0636499831554733e+01 8.3810690565743897e+00 3.0582838616644432e+00 
4287 4288 2 1.0280000005340151e+00 -8.4286926414226400e+02 1.0000000000000000e+00 3.0889400428814454e+01 9.5147465359095200e+00 2.0339924609196514e+00 
927 928 2 1.0280000024681577e+00 -1.0310623277778404e+03 1.0000000000000000e+00 2.7422947488971300e+01 1.1035058381671547e+01 1.7031379058854266e+00 
3868 3869 2 1.0279999953932730e+00 -4.2017101171094708e+02 1.0000000000000000e+00 3.0227921909954148e+01 1.0776786431213971e+01 3.0488521087821350e+00 
1600 1601 2 1.0279999962688027e+00 4.7446832030060921e+02 1.0000000000000000e+00 2.5428422059294547e+01 1.1832169067859896e+01 2.1380015107509722e+00 
2061 2062 2 1.0280000052220011e+00 -4.5723917185788326e+02 1.0000000000000000e+00 2.5155205441311853e+01 1.2955851640649906e+01 2.4364743778279041e+00 
41 42 2 1.0279999999366232e+00 -4.8620801462357372e+02 1.0000000000000000e+00 2.7116973589513549e+01 1.2328670544853576e+01 2.8307723364976325e+00 
632 633 2 1.0280000039268111e+00 -4.1813641579561136e+01 1.0000000000000000e+00 2.9004713631599753e+01 1.2545648192946935e+01 2.9792653451409352e+00 
634 635 2 1.0279999976731637e+00 -4.2031391813859568e+02 1.0000000000000000e+00 3.0296910488754026e+01 1.2788041210683938e+01 2.1678574675260074e+00 
4371 4372 2 1.0279999984651349e+00 -1.5912303402536809e+03 1.0000000000000000e+00 3.2484942957120083e+01 1.1956425575701939e+01 1.9950975723759643e+00 
4586 4587 2 1.0279999997326164e+00 2.5671135521522979e+02 1.0000000000000000e+00 3.2193940749266545e+01 1.3198356291126014e+01 2.9266689032225495e+00 
1855 1856 2 1.0279999992058293e+00 2.4728334634885067e+02 1.0000000000000000e+00 2.1343320210730834e+01 1.4559196755471277e+01 2.3434596286088984e+00 
1608 1609 2 1.0280000017731492e+00 4.4852352981901449e+03 1.0000000000000000e+00 2.3525973762376854e+01 1.4144141573684074e+01 2.2218520408784488e+00 
2 3 2 1.0279999977258301e+00 -4.8111771681285671e+02 1.0000000000000000e+00 2.8239011422145889e+01 1.3733389625730727e+01 3.2171653469997152e+00 
212 213 2 1.0280000047455802e+00 9.3292120751799928e+02 1.0000000000000000e+00 3.0925820788694487e+01 1.4117588857436118e+01 2.9554735001936039e+00 
1606 1607 2 1.0280000000362715e+00 3.7871989629845557e+03 1.0000000000000000e+00 2.3311678041524910e+01 1.5243635973660020e+01 2.5858754548133773e+00 
428 429 2 1.0279999971107321e+00 2.5760545907915298e+02 1.0000000000000000e+00 3.1930185633511446e+01 1.5594221916240107e+01 2.8806173448684245e+00 
589 590 2 1.0280000032648264e+00 2.2498528606326889e+02 1.0000000000000000e+00 2.2210681628515403e+01 1.6898560090146205e+01 2.3563751515265485e+00 
3232 3233 2 1.0280000000000002e+00 -8.9681392445195161e+02 1.0000000000000000e+00 1.4234325287395468e+01 1.9148991898592303e+01 3.2153417794835160e+00 
2290 2291 2 1.0279999997154574e+00 -7.3730544645292503e+02 1.0000000000000000e+00 2.0805007101622081e+01 1.8456646247707777e+01 2.4693931470057677e+00 
863 864 2 1.0280000008630876e+00 8.5109898402801082e+02 1.0000000000000000e+00 2.1628404120330213e+01 1.9273060672619614e+01 2.3536018738670075e+00 
925 926 2 1.0279999949312650e+00 5.9489359396395650e+02 1.0000000000000000e+00 3.1645807761721692e+01 1.8660618407033667e+01 2.7412711454087755e+00 
1050 1051 2 1.0280000011368531e+00 -1.2557900186354782e+03 1.0000000000000000e+00 2.8988068543566918e+01 1.0931899349654119e+00 3.3436395828816154e+00 
1935 1936 2 1.0279999995980216e+00 -1.0725680445848604e+02 1.0000000000000000e+00 2.8922072659626821e+01 8.3381630303560073e-01 4.7627146903714195e+00 
4324 4325 2 1.0279999993658637e+00 -8.3795640090946813e+02 1.0000000000000000e+00 2.7769640354552021e+01 7.0236954225110226e+00 4.0621938906489836e+00 
4160 4161 2 1.0280000012737116e+00 -4.8096876243367194e+02 1.0000000000000000e+00 2.9135832867240616e+01 7.5296844137166490e+00 3.3608929740858291e+00 
172 173 2 1.0280000015273980e+00 2.2220170454543072e+02 1.0000000000000000e+00 3.0573359626660398e+01 7.0547036758174855e+00 4.5614860828350636e+00 
3905 3906 2 1.0280000015176507e+00 -3.3577629183390073e+01 1.0000000000000000e+00 2.7708309839671756e+01 9.6775066660927589e+00 3.8305788623397383e+00 
3866 3867 2 1.0279999999068588e+00 -4.1880107342020153e+01 1.0000000000000000e+00 2.9487357552290518e+01 9.3194635982398388e+00 3.3467094301846076e+00 
2983 2984 2 1.0280000039533930e+00 1.8030793552217492e+03 1.0000000000000000e+00 3.2983884262272689e+01 8.6405784217727586e+00 4.7120002460306516e+00 
671 672 2 1.0279999978754444e+00 -3.3736261417211765e+01 1.0000000000000000e+00 2.7642929596632001e+01 1.0988723796852597e+01 3.6546105316979336e+00 
3448 3449 2 1.0280000024921505e+00 5.8745307784135127e+02 1.0000000000000000e+00 2.9942277093528773e+01 1.1180939677855251e+01 4.8951164542564207e+00 
4372 4373 2 1.0280000059603187e+00 6.1756700113644024e+02 1.0000000000000000e+00 3.2223922215921057e+01 1.1439865387951766e+01 4.8672036390891016e+00 
166 167 2 1.0279999991664277e+00 -8.3808235437410963e+02 1.0000000000000000e+00 2.6274068431049390e+01 1.2905538518284402e+01 4.1130060975486673e+00 
4370 4371 2 1.0280000022233795e+00 9.3411973879525885e+02 1.0000000000000000e+00 3.1023023041337577e+01 1.1839607577137478e+01 3.6549775959014346e+00 
328 329 2 1.0280000000000000e+00 -3.4832485182787377e+02 1.0000000000000000e+00 1.0542151400042306e+01 1.4648164283261295e+01 3.4441356560825453e+00 
42 43 2 1.0279999986146626e+00 -1.2923422047108829e+03 1.0000000000000000e+00 2.6160891950310802e+01 1.4675288293725743e+01 4.4259082648497481e+00 
669 670 2 1.0280000017453970e+00 -4.3822863182744982e+02 1.0000000000000000e+00 2.7826278985541546e+01 1.3402424715540413e+01 4.6753352005435929e+00 
1138 1139 2 1.0279999962203932e+00 5.8764617333467595e+02 1.0000000000000000e+00 3.0237080179703440e+01 1.3734519569322950e+01 4.5979288042044262e+00 
214 215 2 1.0280000019371158e+00 6.1785220979858821e+02 1.0000000000000000e+00 3.2687788232468598e+01 1.4864011841152434e+01 4.0056493062767595e+00 
794 795 2 1.0280000000000000e+00 5.0572695576606077e+02 1.0000000000000000e+00 1.1115073657177078e+01 1.5530372314493736e+01 3.8922897527583631e+00 
675 676 2 1.0280000014787987e+00 -4.4271707838442109e+02 1.0000000000000000e+00 2.9949752667980491e+01 1.5327818162640673e+01 4.9936296060195424e+00 
883 884 2 1.0280000022209932e+00 3.9792142225777206e+02 1.0000000000000000e+00 3.1156314876024300e+01 1.5884789164110149e+01 4.7321112970463064e+00 
676 677 2 1.0280000058594663e+00 1.8803001646503836e+02 1.0000000000000000e+00 3.1191118549050898e+01 1.7669712069390464e+01 4.5510420298133125e+00 
1597 1598 2 1.0279999957227608e+00 1.8030833306440343e+03 1.0000000000000000e+00 3.2466471257746257e+01 1.7803199750395205e+01 4.5180148494467671e+00 
4071 4072 2 1.0280000000000002e+00 -5.3416845554442830e+02 1.0000000000000000e+00 1.5109895815911145e+01 1.8952619399452988e+01 3.9239933925031272e+00 
463 464 2 1.0280000039355972e+00 3.9873876117878217e+02 1.0000000000000000e+00 3.1078933433396625e+01 1.9388095468620101e+01 3.4448237609388803e+00 
553 554 2 1.0279999972512122e+00 2.8534529220420563e+02 1.0000000000000000e+00 2.6586801609654660e+01 2.7861446285434666e-01 5.0129491087182245e+00 
1179 1180 2 1.0279999998774014e+00 3.2857011519217673e+02 1.0000000000000000e+00 3.2651938528380100e+01 1.3763143425129785e+00 5.9711462389559591e+00 
537 538 2 1.0279999970157330e+00 -4.4782290043907420e+02 1.0000000000000000e+00 2.6616694523659895e+01 1.9423052322951833e+00 5.0321598298871173e+00 
514 515 2 1.0280000013044972e+00 -4.4830323967957452e+02 1.0000000000000000e+00 2.7799751199097145e+01 2.3929630919510045e+00 5.2359197341637165e+00 
4200 4201 2 1.0279999921045415e+00 -1.2923904530573002e+03 1.0000000000000000e+00 2.8632721969664654e+01 3.9150635777788891e+00 5.8491066007723402e+00 
4323 4324 2 1.0280000004998688e+00 -1.3130771336051339e+03 1.0000000000000000e+00 2.8176171002471229e+01 5.4163274641234596e+00 5.9167784833512655e+00 
3903 3904 2 1.0279999925964203e+00 -4.3831382243465424e+02 1.0000000000000000e+00 2.8766104831133244e+01 6.3103495007087869e+00 5.1085559081068084e+00 
86 87 2 1.0279999979108723e+00 8.4677566057200602e+02 1.0000000000000000e+00 3.1440968306189784e+01 6.6912892008162412e+00 5.3754534559825986e+00 
3909 3910 2 1.0279999947659637e+00 -4.4178766003146592e+02 1.0000000000000000e+00 3.0261771902563364e+01 8.6829728989556951e+00 5.8279661387200523e+00 
3910 3911 2 1.0280000033899090e+00 1.8815506791313180e+02 1.0000000000000000e+00 3.1807340310979754e+01 8.4655307620011477e+00 5.5634564095367525e+00 
4117 4118 2 1.0280000030393475e+00 3.9885079431599615e+02 1.0000000000000000e+00 3.0825878701169426e+01 1.0280875299006771e+01 5.6186860921598827e+00 
3655 3656 2 1.0279999904621659e+00 5.9498460791721220e+02 1.0000000000000000e+00 3.1056571167219591e+01 1.2086082811121644e+01 5.6751800077230454e+00 
3743 3744 2 1.0280000051214997e+00 1.5748137718178742e+02 1.0000000000000000e+00 3.2271991167154006e+01 1.2905042852058791e+01 6.6321257550367196e+00 
165 166 2 1.0279999998975726e+00 -1.3131258307156618e+03 1.0000000000000000e+00 2.6583432896388697e+01 1.3467016425459565e+01 5.5307364124784169e+00 
712 713 2 1.0280000116052623e+00 -4.5743497111819460e+02 1.0000000000000000e+00 2.9978672492703360e+01 1.3941718074939816e+01 6.2728539068109930e+00 
1345 1346 2 1.0280000039166377e+00 5.9538202539216559e+02 1.0000000000000000e+00 3.1551325485060900e+01 1.4087870692924328e+01 5.2679234557988615e+00 
208 209 2 1.0279999994957538e+00 -5.7072534965313889e+02 1.0000000000000000e+00 2.5922669867657078e+01 1.5636225117151479e+01 5.3622838734079847e+00 
206 207 2 1.0279999990150910e+00 6.3080291777615093e+02 1.0000000000000000e+00 2.7012491914858192e+01 1.6581472268406529e+01 5.9140608551079366e+00 
1467 1468 2 1.0280000005386545e+00 -8.3723010635057869e+02 1.0000000000000000e+00 2.7891532419422880e+01 1.7350478236533885e+01 5.1651143687402685e+00 
1594 1595 2 1.0279999979951624e+00 3.7834225703196705e+02 1.0000000000000000e+00 2.8186933438236611e+01 1.8074830175082976e+01 6.5693213119418559e+00 
1468 1469 2 1.0280000016987196e+00 5.7890239201014154e+01 1.0000000000000000e+00 2.9460068836471770e+01 1.7572404318109104e+01 6.1072766217168875e+00 
1 2 2 1.0279999973580034e+00 -1.2756946412531870e+03 1.0000000000000000e+00 3.0955821908529185e+01 1.6943200527813921e+01 6.3528678288915117e+00 
2853 2854 2 1.0280000032276240e+00 -8.3718024724677775e+02 1.0000000000000000e+00 2.9253614787255316e+01 4.5625269365110982e-01 7.4233274126371569e+00 
796 797 2 1.0279999988361650e+00 -1.1951003081168842e+03 1.0000000000000000e+00 3.1095353548824338e+01 6.6276727690434933e-01 7.4060295321554772e+00 
758 759 2 1.0280000008262549e+00 -8.7494613220564679e+02 1.0000000000000000e+00 3.3102747762782343e+01 1.2642024999966184e+00 7.5215270895390747e+00 
4364 4365 2 1.0279999959800306e+00 6.3101781993827626e+02 1.0000000000000000e+00 2.8772025227892740e+01 1.6849512590527798e+00 7.7692060624749288e+00 
4366 4367 2 1.0280000030008818e+00 -5.7037472195933265e+02 1.0000000000000000e+00 2.8612575292174245e+01 2.9268537572790225e+00 6.8630078503312690e+00 
3947 3948 2 1.0280000085244774e+00 -1.3959859197192200e+03 1.0000000000000000e+00 2.9371594312656342e+01 6.5949560466352493e+00 7.9937629845493250e+00 
4407 4408 2 1.0279999911523856e+00 6.2699840844036316e+02 1.0000000000000000e+00 3.0382765300957413e+01 6.1030283033945141e+00 7.2072211361706664e+00 
3946 3947 2 1.0280000087146788e+00 -4.5740110067458687e+02 1.0000000000000000e+00 3.0436719394189115e+01 7.5902927108459792e+00 6.8262589886515901e+00 
1638 1639 2 1.0280000076781284e+00 1.8073676118925150e+03 1.0000000000000000e+00 2.8990335677209316e+01 1.0274245519179367e+01 8.2747659409664340e+00 
713 714 2 1.0279999945683749e+00 -1.3955282504319337e+03 1.0000000000000000e+00 2.9760247224070042e+01 1.1067494664979682e+01 7.7241724359839816e+00 
134 135 2 1.0279999990721067e+00 -2.0190626398187053e+03 1.0000000000000000e+00 3.1647842872757451e+01 1.1305508933963505e+01 7.8387019659947761e+00 
638 639 2 1.0280000016795401e+00 -4.3278398674460948e+02 1.0000000000000000e+00 3.1976288610006890e+01 1.0438625956574443e+01 7.0809115490172791e+00 
249 250 2 1.0280000116654804e+00 6.2724199055744998e+02 1.0000000000000000e+00 2.9409102989417999e+01 1.2962217151517674e+01 7.0710064143128770e+00 
2055 2056 2 1.0279999678516987e+00 -3.0071705142717303e+02 1.0000000000000000e+00 2.7346288532916184e+01 1.3587261768046886e+01 8.0805215230024423e+00 
3365 3366 2 1.0279999923227032e+00 5.5209891182217014e+01 1.0000000000000000e+00 3.1987876925750140e+01 1.4130439500477001e+01 6.9106025335994614e+00 
1133 1134 2 1.0280000005860328e+00 7.5523186144067301e+02 1.0000000000000000e+00 2.9656740326385862e+01 1.7279774676653773e+01 7.9062036347154665e+00 
171 172 2 1.0280000043371891e+00 -5.7488597707848896e+02 1.0000000000000000e+00 3.1584906315755234e+01 1.7633383754151076e+01 7.3820564772335775e+00 
2905 2906 2 1.0280000010532429e+00 3.0508386413078733e+02 1.0000000000000000e+00 2.6711878999421987e+01 1.8488250242165240e+01 7.5914319554016094e+00 
3325 3326 2 1.0279999989782960e+00 -3.7188144010153417e+02 1.0000000000000000e+00 2.7091286309064987e+01 1.9644926269389103e+01 7.3083289216248559e+00 
1432 1433 2 1.0280000002070788e+00 -8.3810554621322547e+02 1.0000000000000000e+00 3.0867986760481841e+01 1.9339643223439332e+01 7.7505361657495984e+00 
4408 4409 2 1.0279999991474646e+00 -1.6109147407335345e+03 1.0000000000000000e+00 2.6341202028209054e+01 1.6279538258767925e+00 9.8686999259698194e+00 
3443 3444 2 1.0280000046117810e+00 7.5541889255624255e+02 1.0000000000000000e+00 2.9372901870266041e+01 9.4917180319351424e-01 9.8335111305241316e+00 
2854 2855 2 1.0280000014575714e+00 5.7761772100212099e+01 1.0000000000000000e+00 3.0545480424513233e+01 2.1132660628446118e-01 9.0532204239399228e+00 
759 760 2 1.0280000008155485e+00 -1.1928020584774381e+03 1.0000000000000000e+00 3.2380544823475574e+01 2.8190321319567263e-01 8.5652737194665676e+00 
2517 2518 2 1.0280000009353050e+00 -3.0097628919967718e+02 1.0000000000000000e+00 2.7203795764404951e+01 3.0321851174326686e+00 9.0031167541481416e+00 
2562 2563 2 1.0279999974029075e+00 5.1945478065646660e+02 1.0000000000000000e+00 2.9369015593721681e+01 3.1080713646382510e+00 9.9856521784048748e+00 
2558 2559 2 1.0279999979282128e+00 -1.4994989844533152e+03 1.0000000000000000e+00 2.5683064521599960e+01 3.4748151342767057e+00 9.9163404948267448e+00 
3945 3946 2 1.0279999995551188e+00 1.8943092683541403e+02 1.0000000000000000e+00 2.8069425937180821e+01 4.0587690747197707e+00 9.6209469890600765e+00 
3483 3484 2 1.0280000029410605e+00 5.4840407164328781e+02 1.0000000000000000e+00 3.0632335745326440e+01 4.1676352113427555e+00 9.9444431824842656e+00 
4405 4406 2 1.0280000061683139e+00 -1.0968274592575208e+03 1.0000000000000000e+00 2.7140796983441017e+01 6.5955585967441026e+00 9.7342657180562515e+00 
665 666 2 1.0280000066496742e+00 -4.3232038696923064e+02 1.0000000000000000e+00 2.5711357590727204e+01 8.1229700346664995e+00 8.4149746678424968e+00 
3899 3900 2 1.0279999911293849e+00 -4.3258374719063841e+02 1.0000000000000000e+00 2.5562990538898188e+01 6.9717740539602620e+00 8.4762033945096231e+00 
3024 3025 2 1.0279999985148909e+00 1.8074697174242324e+03 1.0000000000000000e+00 2.8468989018486386e+01 6.8726281534896110e+00 9.3057100736143408e+00 
593 594 2 1.0280000112153953e+00 5.1507980662043610e+02 1.0000000000000000e+00 3.1319388482535967e+01 7.8694656904592808e+00 9.6106043553677871e+00 
135 136 2 1.0279999885485034e+00 -3.4015661579545986e+02 1.0000000000000000e+00 3.1891162329855998e+01 6.9009051208892442e+00 9.8177997383805700e+00 
1006 1007 2 1.0279999988361750e+00 -2.9980561318171874e+02 1.0000000000000000e+00 2.2638952943883289e+01 8.8252602615651856e+00 9.8049293154048147e+00 
1048 1049 2 1.0280000005688588e+00 6.0195849895367337e+02 1.0000000000000000e+00 2.3779249894628204e+01 8.8250445840505787e+00 9.2851058155834547e+00 
707 708 2 1.0279999985318491e+00 1.3292126079697050e+03 1.0000000000000000e+00 2.6619800298763469e+01 9.1618214344871838e+00 9.9282473478196653e+00 
247 248 2 1.0280000008830028e+00 -1.0965416899869565e+03 1.0000000000000000e+00 2.7839533000539809e+01 9.4658217684192287e+00 9.3360653392165691e+00 
1172 1173 2 1.0279999878405699e+00 -1.1707347404105942e+03 1.0000000000000000e+00 2.6783492366761802e+01 1.0736013576148386e+01 9.7812265685409816e+00 
2096 2097 2 1.0279999961037558e+00 -1.4986215953982296e+03 1.0000000000000000e+00 2.7122592381323006e+01 1.2031008923781130e+01 9.1830077944313455e+00 
711 712 2 1.0280000072752504e+00 1.8977616582357228e+02 1.0000000000000000e+00 2.8665587398867611e+01 1.2574329219896805e+01 8.3644503280009008e+00 
333 334 2 1.0279999921664607e+00 -1.3129870179989623e+03 1.0000000000000000e+00 2.9659786104583503e+01 1.3288972574647010e+01 9.9420110799987178e+00 
4239 4240 2 1.0279999999999996e+00 -2.3332277384090264e+02 1.0000000000000000e+00 1.0391771758404985e+01 1.4359942322979537e+01 9.9475466691708636e+00 
1848 1849 2 1.0279999981118917e+00 3.6220114406437574e+02 1.0000000000000000e+00 2.4785424521209297e+01 1.4114132233321879e+01 9.0171811666274468e+00 
2310 2311 2 1.0280000072492317e+00 -2.9997379721218988e+02 1.0000000000000000e+00 2.5137875576725456e+01 1.4620681507245886e+01 9.9831995824631559e+00 
2139 2140 2 1.0280000062617409e+00 -3.0089014383334001e+02 1.0000000000000000e+00 2.7818166982446598e+01 1.3363749102713816e+01 9.6621541834961207e+00 
1683 1684 2 1.0280000109506220e+00 2.1306791109000963e+02 1.0000000000000000e+00 3.2503341118642027e+01 1.3653849950656467e+01 9.3285574060396534e+00 
250 251 2 1.0280000047839584e+00 -1.6108116557746755e+03 1.0000000000000000e+00 2.6713613759767419e+01 1.5072445020520320e+01 8.4912892813654981e+00 
251 252 2 1.0280000007234029e+00 9.1418606866540074e+02 1.0000000000000000e+00 2.8001261652923958e+01 1.5102667370904971e+01 8.4843900188769990e+00 
2100 2101 2 1.0279999997165217e+00 5.1941783010658776e+02 1.0000000000000000e+00 2.9932186821462825e+01 1.5849083296868361e+01 8.7707297123154504e+00 
1173 1174 2 1.0279999982503889e+00 5.4857570059246348e+02 1.0000000000000000e+00 3.1197129841735045e+01 1.5107755049829477e+01 8.5471867704610798e+00 
1176 1177 2 1.0280000029875400e+00 1.1391008912955995e+02 1.0000000000000000e+00 3.1480663842175208e+01 1.6522459392881764e+01 8.6021749949828745e+00 
1174 1175 2 1.0279999980498349e+00 -9.6718675083134347e+00 1.0000000000000000e+00 2.8960885054834616e+01 1.7805722918433979e+01 9.0115131454511470e+00 
672 673 2 1.0279999994770881e+00 3.7374296730093420e+02 1.0000000000000000e+00 2.5402981962192811e+01 1.9808136154853059e+01 8.7182236078849762e+00 
756 757 2 1.0280000015818562e+00 3.7450648912420434e+02 1.0000000000000000e+00 2.5480842966321013e+01 1.9199884740443899e+01 9.7787139640913789e+00 
1091 1092 2 1.0279999982127257e+00 -2.7966705549724742e+02 1.0000000000000000e+00 2.7129063999631722e+01 1.9512629557638633e+01 9.1683650197904054e+00 
173 174 2 1.0279999991932485e+00 6.2999178057723213e+02 1.0000000000000000e+00 3.1305239011335129e+01 1.8955234735296891e+01 8.8759755437351178e+00 
4409 4410 2 1.0279999975462020e+00 9.1456126618471751e+02 1.0000000000000000e+00 2.7532320268420200e+01 1.1652297548030972e+00 1.0107660330275483e+01 
1551 1552 2 1.0279999984576249e+00 9.9238818727274847e+01 1.0000000000000000e+00 3.2262168831721432e+01 1.6251031477264357e+00 1.0054293435808418e+01 
460 461 2 1.0279999986881474e+00 -5.9653421183220553e+02 1.0000000000000000e+00 3.2399031242468823e+01 1.7425759104926580e-01 1.1486101824543434e+01 
2601 2602 2 1.0279999994482587e+00 -3.0116541019185837e+02 1.0000000000000000e+00 2.7180231909379945e+01 3.0810633423852196e+00 1.0598627103837538e+01 
3486 3487 2 1.0279999966580178e+00 1.1357061273581550e+02 1.0000000000000000e+00 3.0998187775223805e+01 2.8833871996378062e+00 1.0262609749911011e+01 
1593 1594 2 1.0280000010897739e+00 -2.5488253563192265e+02 1.0000000000000000e+00 3.3287672893780694e+01 2.4068039718468013e+00 1.0395375645656022e+01 
3482 3483 2 1.0279999953989867e+00 -1.1713384460474226e+03 1.0000000000000000e+00 2.5349610699691286e+01 4.7868192982149695e+00 1.0163178989350959e+01 
4491 4492 2 1.0280000062660530e+00 -1.3129962009831734e+03 1.0000000000000000e+00 2.8889960295525533e+01 3.6388546903387908e+00 1.1511982127198348e+01 
3395 3396 2 1.0280000010569836e+00 7.3318592241873216e+02 1.0000000000000000e+00 2.2991454722646406e+01 5.7181208775289400e+00 1.1195214679716774e+01 
4319 4320 2 1.0280000012972299e+00 -1.9903868792202866e+03 1.0000000000000000e+00 2.4431085325617413e+01 5.9774346122809110e+00 1.0538943347796904e+01 
1085 1086 2 1.0280000014614024e+00 7.3465125775192826e+02 1.0000000000000000e+00 2.3720387588012951e+01 7.9162112818092636e+00 1.0786366920110133e+01 
3941 3942 2 1.0280000000405907e+00 1.3300736777817533e+03 1.0000000000000000e+00 2.5950029303624035e+01 6.6912824179668116e+00 1.0631041592326195e+01 
161 162 2 1.0279999955668235e+00 -1.9916618272265860e+03 1.0000000000000000e+00 2.5131258525248594e+01 8.0928502512341627e+00 1.0680330058835576e+01 
3989 3990 2 1.0280000061617063e+00 -3.3560957429603278e+01 1.0000000000000000e+00 2.9310767825731467e+01 7.3946681182430085e+00 1.0748912337730696e+01 
755 756 2 1.0279999868477230e+00 -3.3941849586412651e+01 1.0000000000000000e+00 2.9305045536200545e+01 8.9052649752206268e+00 1.0548283894693448e+01 
1347 1348 2 1.0280000056252627e+00 -1.0315457514993673e+03 1.0000000000000000e+00 3.0303460067698165e+01 8.9873750167229627e+00 1.1548138181193149e+01 
718 719 2 1.0279999946038685e+00 -4.2009846437153180e+02 1.0000000000000000e+00 3.3197659065747366e+01 8.6058709534980444e+00 1.1085452581945040e+01 
716 717 2 1.0279999996246865e+00 -4.1908542470887873e+01 1.0000000000000000e+00 3.1893361470969165e+01 9.6078561843812054e+00 1.1169568992180883e+01 
461 462 2 1.0279999958725996e+00 -4.8598714481825704e+02 1.0000000000000000e+00 3.0043008450076336e+01 1.0937895483752039e+01 1.0954317628527621e+01 
422 423 2 1.0279999958325476e+00 -4.8106614955394122e+02 1.0000000000000000e+00 3.1474675706018523e+01 1.1383683612672646e+01 1.1411874838130833e+01 
298 299 2 1.0279999972954854e+00 -1.3192998205123322e+03 1.0000000000000000e+00 3.3153666748519584e+01 1.0540319911037054e+01 1.1275788473332138e+01 
334 335 2 1.0279999996049174e+00 -8.3804385813275655e+02 1.0000000000000000e+00 2.9147037545828955e+01 1.2212655878340881e+01 1.0752562684446509e+01 
753 754 2 1.0280000019243161e+00 -4.3782330153920179e+02 1.0000000000000000e+00 3.0922974976104044e+01 1.2108395519140998e+01 1.0224027664911507e+01 
4325 4326 2 1.0279999999999996e+00 -4.2332643421923535e+02 1.0000000000000000e+00 1.1230557851788799e+01 1.4891238630774769e+01 1.0514587355830839e+01 
462 463 2 1.0280000063601427e+00 -1.2926109664323806e+03 1.0000000000000000e+00 2.8740257085277445e+01 1.4418752458294826e+01 1.0900417675567551e+01 
1640 1641 2 1.0279999902206289e+00 -2.8677932752542085e+02 1.0000000000000000e+00 3.2536049128435295e+01 1.3438129116837386e+01 1.0461175600851051e+01 
292 293 2 1.0280000043991797e+00 -5.7100416818542965e+02 1.0000000000000000e+00 2.8078656308633139e+01 1.5521906580767551e+01 1.0704178726500404e+01 
2269 2270 2 1.0280000000000009e+00 -2.9713711761784998e+02 1.0000000000000000e+00 1.4558542001983490e+01 1.7402009431731027e+01 1.0361635170262289e+01 
290 291 2 1.0280000089752552e+00 6.3086806369591443e+02 1.0000000000000000e+00 2.8017697276646260e+01 1.6946109979009883e+01 1.1504105648942515e+01 
1217 1218 2 1.0279999986303696e+00 7.5519034753817016e+02 1.0000000000000000e+00 2.9885241045631663e+01 1.7246126502299184e+01 1.0042381611318525e+01 
1804 1805 2 1.0279999948055059e+00 5.7747715637041068e+01 1.0000000000000000e+00 2.9896845393179859e+01 1.7921539568440640e+01 1.1353951323578721e+01 
1807 1808 2 1.0280000000000009e+00 3.5244674519688886e+02 1.0000000000000000e+00 1.4557778790934718e+01 1.8509052760677640e+01 1.0075580100734703e+01 
1974 1975 2 1.0280000024605938e+00 -3.1815618499181494e+02 1.0000000000000000e+00 2.8146535692180571e+01 1.9877291452145204e+01 1.0075050024457417e+01 
1678 1679 2 1.0280000110194323e+00 3.7824821894160493e+02 1.0000000000000000e+00 2.8433082878059853e+01 1.8655743714195680e+01 1.1270089615528267e+01 
1471 1472 2 1.0279999957511332e+00 -9.1353617906167563e+02 1.0000000000000000e+00 3.0193796975508299e+01 1.9997342902116468e+01 1.0518925684741287e+01 
1933 1934 2 1.0280000027109788e+00 -3.1115928695939840e+02 1.0000000000000000e+00 3.2952489872390835e+01 1.9498929028464936e+01 1.1435566178302857e+01 
3527 3528 2 1.0280000049931985e+00 7.5530202081519474e+02 1.0000000000000000e+00 2.8761864188831176e+01 4.6197402378446673e-01 1.2241206238221460e+01 
40 41 2 1.0279999990797748e+00 -5.9716578257609103e+02 1.0000000000000000e+00 3.2434855495940980e+01 1.5174320243626988e-01 1.3262927979423360e+01 
4450 4451 2 1.0279999959133075e+00 -5.7093632359745482e+02 1.0000000000000000e+00 2.7140792038024056e+01 1.9466106984338312e+00 1.3131135839640802e+01 
4620 4621 2 1.0279999980283014e+00 -1.2926636807146751e+03 1.0000000000000000e+00 2.8011714928233090e+01 2.9229101468580425e+00 1.3169772518476242e+01 
1473 1474 2 1.0279999997204587e+00 -5.9528666168177676e+02 1.0000000000000000e+00 3.3218385191857941e+01 2.1425808111786413e+00 1.2311178272383048e+01 
4492 4493 2 1.0279999907735735e+00 -8.3805101683432952e+02 1.0000000000000000e+00 2.8386932103832748e+01 4.3955898371345601e+00 1.2501253225970101e+01 