LAMMPS data file via write_data, version 30 Jul 2016, timestep = 50400000

4620 atoms
8 atom types

0.0000000000000000e+00 1.0000000000000000e+02 xlo xhi
0.0000000000000000e+00 4.0000000000000000e+01 ylo yhi
0.0000000000000000e+00 4.0000000000000000e+01 zlo zhi

Masses

1 3.896
2 5.36
3 20.064
4 8.378
5 8.378
6 8.378
7 8.378
8 8.378

Atoms # meso-molecular

457 458 2 1.0279999992389606e+00 5.0504050120904560e+02 1.0000000000000000e+00 2.3770721666696751e+01 3.7982526211544093e-01 1.2797260064320291e+00 
455 456 2 1.0279999990987148e+00 2.2806874658652367e+02 1.0000000000000000e+00 2.6639139493275856e+01 1.1368785753107373e+00 7.0958757386059290e-01 
370 371 2 1.0280000022037341e+00 9.4325440873823524e+01 1.0000000000000000e+00 2.5468337404772139e+01 3.4285649419574776e-01 4.7444991877252291e-01 
1090 1091 2 1.0279999999261928e+00 2.8256888463686806e+02 1.0000000000000000e+00 2.8350299559140407e+01 1.5779132110388467e-02 7.6225864630357887e-01 
1170 1171 2 1.0280000015732933e+00 -7.7528420575575228e+02 1.0000000000000000e+00 2.3578645609788659e+01 1.9304609445010874e+00 2.7398113483151004e-01 
2622 2623 2 1.0279999995636460e+00 8.1113944707950463e+02 1.0000000000000000e+00 2.7164186621353572e+01 2.5932974225942993e+00 1.0267294011894734e+00 
4094 4095 2 1.0280000000000014e+00 7.6587887355162252e+02 1.0000000000000000e+00 1.2857259608893337e+01 8.9267684036555064e+00 4.4876334106647531e-01 
3738 3739 2 1.0280000009576660e+00 4.0105123708190041e+02 1.0000000000000000e+00 2.9539783350262720e+01 9.3238329535585631e+00 1.3457538658186574e+00 
3276 3277 2 1.0280000003141974e+00 5.9947186013717260e+02 1.0000000000000000e+00 2.8682550516663515e+01 1.0264537375932481e+01 7.0293655587753989e-01 
4166 4167 2 1.0279999995633071e+00 2.6381645842372689e+02 1.0000000000000000e+00 3.2505212171033328e+01 1.3269737156475369e+01 1.2403393611202962e+00 
1897 1898 2 1.0279999988223596e+00 7.5123811761536513e+02 1.0000000000000000e+00 2.1676128510454667e+01 1.4248745733481604e+01 1.2852140844626669e+00 
129 130 2 1.0280000004164098e+00 -8.4308051734973719e+02 1.0000000000000000e+00 2.9971540919345156e+01 1.3666101712905627e+01 7.9406544081733943e-01 
130 131 2 1.0279999992499835e+00 -1.3193998198491718e+03 1.0000000000000000e+00 2.9743488519049578e+01 1.4691770916801367e+01 1.5731081105042448e+00 
8 9 2 1.0279999994590905e+00 2.6197359566475228e+02 1.0000000000000000e+00 3.1768778694820021e+01 1.4619709369377770e+01 1.2271740423164945e+00 
213 214 2 1.0280000007822307e+00 -1.5914273062518882e+03 1.0000000000000000e+00 3.1064895368614089e+01 1.5873558105721012e+01 1.6324981843689532e+00 
3103 3104 2 1.0280000023033449e+00 1.8475030797193563e+02 1.0000000000000000e+00 3.2955961816473192e+01 1.6375916552935212e+01 1.0091667868764465e+00 
1051 1052 2 1.0280000003551992e+00 -1.9191980062176088e+02 1.0000000000000000e+00 2.2478696907006462e+01 1.7674052829335594e+01 1.5046816219417229e+00 
1714 1715 2 1.0280000008503523e+00 -1.5218901028131995e+03 1.0000000000000000e+00 2.2478913710183647e+01 6.9703098709515066e-01 2.0671296697770369e+00 
1510 1511 2 1.0279999978599492e+00 -5.9344795802264684e+02 1.0000000000000000e+00 2.5005073698003109e+01 1.2938465554158893e+00 2.0712119261759265e+00 
1971 1972 2 1.0280000025426148e+00 1.1733886593546642e+03 1.0000000000000000e+00 2.5056375676391731e+01 3.3393155475948694e-01 2.9525668836324401e+00 
2058 2059 2 1.0279999991584405e+00 -5.3135295478511955e+02 1.0000000000000000e+00 2.7303318892253994e+01 4.9461002175751334e-01 2.4323649186824605e+00 
2579 2580 2 1.0280000013073274e+00 4.8508880834679758e+02 1.0000000000000000e+00 2.7614604573595653e+01 2.0905263777125933e+00 2.1784240038943063e+00 
597 598 2 1.0280002879556407e+00 -8.0594253538685280e+02 1.0000000000000000e+00 2.7927247071217899e+01 4.5138670860778403e+00 2.4850218164163773e+00 
1058 1059 2 1.0279997125670739e+00 7.3461462832561915e+02 1.0000000000000000e+00 2.9026683876273989e+01 4.6300796159156112e+00 2.1932897374099767e+00 
4199 4200 2 1.0279999945637894e+00 -4.8628317181508936e+02 1.0000000000000000e+00 2.7722275864300229e+01 8.1657849173454728e+00 3.0574688978271238e+00 
3237 3238 2 1.0279999977637049e+00 -1.0309791790063323e+03 1.0000000000000000e+00 2.7580655392309271e+01 9.6870187229210991e+00 1.7320650538700528e+00 
4288 4289 2 1.0279999986376678e+00 -1.3191799414587285e+03 1.0000000000000000e+00 3.0637790038487026e+01 8.3927234034926226e+00 3.0616387545977464e+00 
4287 4288 2 1.0280000003928085e+00 -8.4286926414226400e+02 1.0000000000000000e+00 3.0890750493526728e+01 9.5264181012026921e+00 2.0374443941054001e+00 
927 928 2 1.0280000018194151e+00 -1.0310623277778404e+03 1.0000000000000000e+00 2.7424373479966583e+01 1.1046474196816373e+01 1.7063980486804102e+00 
3868 3869 2 1.0279999965924149e+00 -4.2017101170724209e+02 1.0000000000000000e+00 3.0229197171043250e+01 1.0788544123742392e+01 3.0522128067294063e+00 
1600 1601 2 1.0280000009693775e+00 4.7446832030060921e+02 1.0000000000000000e+00 2.5430001567637824e+01 1.1843579182902280e+01 2.1410029971247351e+00 
2061 2062 2 1.0279999992314310e+00 -4.5723917184480285e+02 1.0000000000000000e+00 2.5156730726074002e+01 1.2967285192548768e+01 2.4394205636814519e+00 
41 42 2 1.0279999987875834e+00 -4.8620801462357372e+02 1.0000000000000000e+00 2.7118368827476672e+01 1.2340217777207194e+01 2.8340083029410104e+00 
632 633 2 1.0280000021273601e+00 -4.1813641573114730e+01 1.0000000000000000e+00 2.9006091265160968e+01 1.2557299658074943e+01 2.9824860124054142e+00 
634 635 2 1.0279999991725608e+00 -4.2031391813859568e+02 1.0000000000000000e+00 3.0298282383772051e+01 1.2799825198753496e+01 2.1711931979569026e+00 
4371 4372 2 1.0279999996024518e+00 -1.5912303402536809e+03 1.0000000000000000e+00 3.2486328674674020e+01 1.1968088882750424e+01 1.9991990924658383e+00 
4586 4587 2 1.0280000003685770e+00 2.5671135522253320e+02 1.0000000000000000e+00 3.2195367108131158e+01 1.3210085374988241e+01 2.9303784400154669e+00 
1855 1856 2 1.0280000011011277e+00 2.4728334634885067e+02 1.0000000000000000e+00 2.1344553332196522e+01 1.4569818231778807e+01 2.3457093981079553e+00 
1608 1609 2 1.0279999999024416e+00 4.4852352981901449e+03 1.0000000000000000e+00 2.3527276473327010e+01 1.4154889841495326e+01 2.2242215647828645e+00 
2 3 2 1.0279999989706006e+00 -4.8111771681285671e+02 1.0000000000000000e+00 2.8240344491706377e+01 1.3745097874019017e+01 3.2203187584567194e+00 
212 213 2 1.0280000013652293e+00 9.3292120754200573e+02 1.0000000000000000e+00 3.0927078628338506e+01 1.4129567753999700e+01 2.9590292777202145e+00 
1606 1607 2 1.0280000002550962e+00 3.7871989629845557e+03 1.0000000000000000e+00 2.3312983712683437e+01 1.5254397298470414e+01 2.5882406955087127e+00 
428 429 2 1.0279999985587860e+00 2.5760545909034823e+02 1.0000000000000000e+00 3.1931534677718858e+01 1.5606142785050279e+01 2.8843360330891272e+00 
589 590 2 1.0279999995346800e+00 2.2498528606326889e+02 1.0000000000000000e+00 2.2211946886321165e+01 1.6909091714099045e+01 2.3585589644568161e+00 
3232 3233 2 1.0280000000000002e+00 -8.9681392445195161e+02 1.0000000000000000e+00 1.4300882402414818e+01 1.8577333205942669e+01 3.0898105309764001e+00 
2290 2291 2 1.0279999999279379e+00 -7.3730544645292503e+02 1.0000000000000000e+00 2.0806330671376084e+01 1.8467053084101529e+01 2.4714712529233851e+00 
863 864 2 1.0280000000679144e+00 8.5109898402801082e+02 1.0000000000000000e+00 2.1629752924689676e+01 1.9283477480079053e+01 2.3556750418061183e+00 
925 926 2 1.0279999976673235e+00 5.9489359396395650e+02 1.0000000000000000e+00 3.1647149795377246e+01 1.8673611971412427e+01 2.7450105892537926e+00 
1050 1051 2 1.0280000003537855e+00 -1.2557900166499003e+03 1.0000000000000000e+00 2.8989245953098102e+01 1.0978152994593342e+00 3.3487922234001766e+00 
1935 1936 2 1.0279999983435244e+00 -1.0725680391402749e+02 1.0000000000000000e+00 2.8922858502092772e+01 8.4001835460246754e-01 4.7677645045055561e+00 
4324 4325 2 1.0280000006219820e+00 -8.3795640084186846e+02 1.0000000000000000e+00 2.7771138906003930e+01 7.0345507662046538e+00 4.0657030622073504e+00 
4160 4161 2 1.0280000014387067e+00 -4.8096876240186828e+02 1.0000000000000000e+00 2.9137140105443763e+01 7.5409241823666946e+00 3.3642712928545802e+00 
172 173 2 1.0279999983893156e+00 2.2220170460555076e+02 1.0000000000000000e+00 3.0574322113533253e+01 7.0660400700515398e+00 4.5648524808681215e+00 
3905 3906 2 1.0280000001948244e+00 -3.3577629168958289e+01 1.0000000000000000e+00 2.7709733164182719e+01 9.6889182826015734e+00 3.8336779131871590e+00 
3866 3867 2 1.0279999996734475e+00 -4.1880107332625784e+01 1.0000000000000000e+00 2.9488797576691002e+01 9.3311162542234758e+00 3.3500073589870492e+00 
2983 2984 2 1.0280000022767659e+00 1.8030793552217492e+03 1.0000000000000000e+00 3.2985107948122540e+01 8.6521010317159206e+00 4.7159818597587169e+00 
671 672 2 1.0279999970804903e+00 -3.3736261412678012e+01 1.0000000000000000e+00 2.7644301877486029e+01 1.1000186689918504e+01 3.6576679683947648e+00 
3448 3449 2 1.0280000012401063e+00 5.8745307784135127e+02 1.0000000000000000e+00 2.9943270530205837e+01 1.1193153976011665e+01 4.8984171768077225e+00 
4372 4373 2 1.0280000032078327e+00 6.1756700119351024e+02 1.0000000000000000e+00 3.2225037999137740e+01 1.1451753028547586e+01 4.8709910619083940e+00 
166 167 2 1.0279999991442352e+00 -8.3808235437410963e+02 1.0000000000000000e+00 2.6275508179259379e+01 1.2917305168094783e+01 4.1161213931295411e+00 
4370 4371 2 1.0280000001757752e+00 9.3411973879525885e+02 1.0000000000000000e+00 3.1024113439589513e+01 1.1851473010252233e+01 3.6582869797419280e+00 
328 329 2 1.0280000000000000e+00 -3.4832485182787377e+02 1.0000000000000000e+00 1.0100235284252497e+01 1.4879722180740046e+01 3.8828370395697731e+00 
42 43 2 1.0279999991385296e+00 -1.2923422047108829e+03 1.0000000000000000e+00 2.6162287757755220e+01 1.4687136172081116e+01 4.4290433657122756e+00 
669 670 2 1.0280000017433937e+00 -4.3822863182744982e+02 1.0000000000000000e+00 2.7827740609568689e+01 1.3414210392476415e+01 4.6784340221657619e+00 
1138 1139 2 1.0279999986252826e+00 5.8764617339973870e+02 1.0000000000000000e+00 3.0238176921899576e+01 1.3747115499734704e+01 4.6008330495833158e+00 
214 215 2 1.0280000006319814e+00 6.1785220992994630e+02 1.0000000000000000e+00 3.2689184741430509e+01 1.4875986299598587e+01 4.0095994910788537e+00 
794 795 2 1.0280000000000000e+00 5.0572695576606077e+02 1.0000000000000000e+00 1.0673157541387269e+01 1.5761930211972487e+01 4.3309911362455908e+00 
675 676 2 1.0280000000476033e+00 -4.4271707834052336e+02 1.0000000000000000e+00 2.9950713461919097e+01 1.5340555458199681e+01 4.9965292913926369e+00 
883 884 2 1.0280000006497563e+00 3.9792142230811572e+02 1.0000000000000000e+00 3.1157473540995216e+01 1.5897311133825756e+01 4.7353385350336676e+00 
676 677 2 1.0280000025048361e+00 1.8803001650023563e+02 1.0000000000000000e+00 3.1192265839706632e+01 1.7682248962386254e+01 4.5548240832357303e+00 
1597 1598 2 1.0279999981292596e+00 1.8030833307545936e+03 1.0000000000000000e+00 3.2467655370007407e+01 1.7815454748431428e+01 4.5221758937643166e+00 
4071 4072 2 1.0280000000000002e+00 -5.3416845554442830e+02 1.0000000000000000e+00 1.5176452930930495e+01 1.8380960706803354e+01 3.7984621439960113e+00 
463 464 2 1.0280000017426612e+00 3.9873876117878217e+02 1.0000000000000000e+00 3.1080295991184943e+01 1.9401130348761995e+01 3.4484225905485997e+00 
553 554 2 1.0279999900780461e+00 2.8534529303146610e+02 1.0000000000000000e+00 2.6587006719838399e+01 2.8476898708104104e-01 5.0193305649544993e+00 
1179 1180 2 1.0280000007482819e+00 3.2857011519217673e+02 1.0000000000000000e+00 3.2653133442415857e+01 1.3870106018142931e+00 5.9767254666127823e+00 
537 538 2 1.0279999991621984e+00 -4.4782290008147868e+02 1.0000000000000000e+00 2.6618245069612133e+01 1.9490443574409495e+00 5.0376963367452916e+00 
514 515 2 1.0279999911264490e+00 -4.4830323901219219e+02 1.0000000000000000e+00 2.7800716328894289e+01 2.4005579718792158e+00 5.2408470488732402e+00 
4200 4201 2 1.0279999882924054e+00 -1.2923904527022635e+03 1.0000000000000000e+00 2.8633095365305394e+01 3.9243293413484279e+00 5.8528128835814357e+00 
4323 4324 2 1.0279999991718953e+00 -1.3130771334867993e+03 1.0000000000000000e+00 2.8177470485958871e+01 5.4257939506531061e+00 5.9196208201327352e+00 
3903 3904 2 1.0279999918265996e+00 -4.3831382225716345e+02 1.0000000000000000e+00 2.8767018212510678e+01 6.3204190614059685e+00 5.1116476239678708e+00 
86 87 2 1.0279999997930716e+00 8.4677566057200602e+02 1.0000000000000000e+00 3.1441919892200897e+01 6.7027185933226345e+00 5.3787044130643737e+00 
3909 3910 2 1.0279999980075607e+00 -4.4178766001814813e+02 1.0000000000000000e+00 3.0262864992535022e+01 8.6949729278160603e+00 5.8311460303745086e+00 
3910 3911 2 1.0280000011850983e+00 1.8815506796074447e+02 1.0000000000000000e+00 3.1808296958864457e+01 8.4772674099780385e+00 5.5670648349561525e+00 
4117 4118 2 1.0280000011557724e+00 3.9885079433795318e+02 1.0000000000000000e+00 3.0826852139160152e+01 1.0292985469070299e+01 5.6220494626829920e+00 
3655 3656 2 1.0279999959523574e+00 5.9498460795486164e+02 1.0000000000000000e+00 3.1057592191926741e+01 1.2098186669598896e+01 5.6783634171783959e+00 
3743 3744 2 1.0280000014561907e+00 1.5748137719671013e+02 1.0000000000000000e+00 3.2273016172805221e+01 1.2917492435506000e+01 6.6352471434339195e+00 
165 166 2 1.0279999996753379e+00 -1.3131258307156618e+03 1.0000000000000000e+00 2.6584778849317207e+01 1.3478844552552353e+01 5.5337958947813908e+00 
712 713 2 1.0280000035697905e+00 -4.5743497101888795e+02 1.0000000000000000e+00 2.9979536581304444e+01 1.3955058316050815e+01 6.2755553696943656e+00 
1345 1346 2 1.0280000025406650e+00 5.9538202545797753e+02 1.0000000000000000e+00 3.1552586773227418e+01 1.4100356519834655e+01 5.2709774444163893e+00 
208 209 2 1.0279999993541853e+00 -5.7072534965313889e+02 1.0000000000000000e+00 2.5924067916070651e+01 1.5648148819898790e+01 5.3653152396497079e+00 
206 207 2 1.0279999996146909e+00 6.3080291777615093e+02 1.0000000000000000e+00 2.7013716517073391e+01 1.6593606195006984e+01 5.9171336096856422e+00 
1467 1468 2 1.0280000003111300e+00 -8.3723010635057869e+02 1.0000000000000000e+00 2.7892670025049831e+01 1.7362725440560396e+01 5.1682554101328533e+00 
1594 1595 2 1.0279999988084245e+00 3.7834225703196705e+02 1.0000000000000000e+00 2.8188032552952276e+01 1.8087110385336331e+01 6.5724827695092287e+00 
1468 1469 2 1.0280000005956895e+00 5.7890239204108809e+01 1.0000000000000000e+00 2.9461161318861301e+01 1.7584754176809785e+01 6.1105255339750890e+00 
1 2 2 1.0279999995074325e+00 -1.2756946412531870e+03 1.0000000000000000e+00 3.0956893146648081e+01 1.6955566966689400e+01 6.3561878652507282e+00 
2853 2854 2 1.0280000049957099e+00 -8.3718024718524600e+02 1.0000000000000000e+00 2.9254484029999936e+01 4.6651835924969459e-01 7.4281002103241294e+00 
796 797 2 1.0279999991833464e+00 -1.1951003081168842e+03 1.0000000000000000e+00 3.1096715984061600e+01 6.7336423095897346e-01 7.4113671912244783e+00 
758 759 2 1.0280000012918313e+00 -8.7494613220564679e+02 1.0000000000000000e+00 3.3103944713110913e+01 1.2750038930116865e+00 7.5271376132496881e+00 
4364 4365 2 1.0279999986500212e+00 6.3101781999673142e+02 1.0000000000000000e+00 2.8772813880758783e+01 1.6948841544108497e+00 7.7739743335425695e+00 
4366 4367 2 1.0280000081435738e+00 -5.7037472175239600e+02 1.0000000000000000e+00 2.8613203632714701e+01 2.9366425045590070e+00 6.8669597091748349e+00 
3947 3948 2 1.0280000045491018e+00 -1.3959859197192200e+03 1.0000000000000000e+00 2.9372603513694401e+01 6.6067210690088114e+00 7.9966548754479412e+00 
4407 4408 2 1.0279999955667209e+00 6.2699840844036316e+02 1.0000000000000000e+00 3.0383859040343918e+01 6.1148604314967496e+00 7.2101641779602197e+00 
3946 3947 2 1.0280000047482658e+00 -4.5740110065726674e+02 1.0000000000000000e+00 3.0437856371749316e+01 7.6021973200681074e+00 6.8294127404318727e+00 
1638 1639 2 1.0280000029815068e+00 1.8073676118925150e+03 1.0000000000000000e+00 2.8991138102865218e+01 1.0288074062551154e+01 8.2770054052907973e+00 
713 714 2 1.0279999983498103e+00 -1.3955282503957160e+03 1.0000000000000000e+00 2.9761091697800410e+01 1.1081245792123758e+01 7.7264963266845896e+00 
134 135 2 1.0280000007473753e+00 -2.0190626398120835e+03 1.0000000000000000e+00 3.1648576007340665e+01 1.1318463451575859e+01 7.8416481320797615e+00 
638 639 2 1.0279999997592821e+00 -4.3278398672512219e+02 1.0000000000000000e+00 3.1977135663217570e+01 1.0451426653926688e+01 7.0839477051069126e+00 
249 250 2 1.0280000039106942e+00 6.2724199064067238e+02 1.0000000000000000e+00 2.9409493354521008e+01 1.2975502727882773e+01 7.0735448390462201e+00 
2055 2056 2 1.0279999958872601e+00 -3.0071705100948344e+02 1.0000000000000000e+00 2.7346532938444181e+01 1.3602396217006994e+01 8.0829902932432756e+00 
3365 3366 2 1.0279999974174863e+00 5.5209891194251199e+01 1.0000000000000000e+00 3.1988949591176617e+01 1.4142907315327079e+01 6.9136459812186359e+00 
1133 1134 2 1.0279999992998663e+00 7.5523186144067301e+02 1.0000000000000000e+00 2.9657712384570324e+01 1.7292204955110414e+01 7.9096243555891252e+00 
171 172 2 1.0280000018196844e+00 -5.7488597705787356e+02 1.0000000000000000e+00 3.1586111900798663e+01 1.7645764094397670e+01 7.3853842848142204e+00 
2905 2906 2 1.0280000012355082e+00 3.0508386413078733e+02 1.0000000000000000e+00 2.6712972726251355e+01 1.8500554339188650e+01 7.5946521534807117e+00 
3325 3326 2 1.0279999986038162e+00 -3.7188144010153417e+02 1.0000000000000000e+00 2.7092386222504238e+01 1.9657209739176650e+01 7.3115828384312822e+00 
1432 1433 2 1.0279999996342362e+00 -8.3810554619452387e+02 1.0000000000000000e+00 3.0869106811981688e+01 1.9351461614240677e+01 7.7544663459445466e+00 
4408 4409 2 1.0279999997459150e+00 -1.6109147407335345e+03 1.0000000000000000e+00 2.6342621640081425e+01 1.6395675358569202e+00 9.8727681207701625e+00 
3443 3444 2 1.0280000026259597e+00 7.5541889259807056e+02 1.0000000000000000e+00 2.9373987599561037e+01 9.6022821099018962e-01 9.8384644748160586e+00 
2854 2855 2 1.0280000004234229e+00 5.7761772113093052e+01 1.0000000000000000e+00 3.0546661310334688e+01 2.2200756858883250e-01 9.0583545790017990e+00 
759 760 2 1.0280000000512222e+00 -1.1928020584774381e+03 1.0000000000000000e+00 3.2381754243465338e+01 2.9270325912244993e-01 8.5708093855598051e+00 
2517 2518 2 1.0280000003956449e+00 -3.0097628919783381e+02 1.0000000000000000e+00 2.7205107444201055e+01 3.0439134435081825e+00 9.0068437926298532e+00 
2562 2563 2 1.0279999984782897e+00 5.1945478065646660e+02 1.0000000000000000e+00 2.9370386747439554e+01 3.1196952037426966e+00 9.9893838526321286e+00 
2558 2559 2 1.0279999986825625e+00 -1.4994989844533152e+03 1.0000000000000000e+00 2.5684426885065633e+01 3.4869202955442851e+00 9.9197650630952356e+00 
3945 3946 2 1.0279999997853047e+00 1.8943092683541403e+02 1.0000000000000000e+00 2.8070791846228563e+01 4.0704230287671432e+00 9.6246669544577621e+00 
3483 3484 2 1.0280000018330537e+00 5.4840407164328781e+02 1.0000000000000000e+00 3.0633583096956368e+01 4.1792219775367929e+00 9.9480024771880657e+00 
4405 4406 2 1.0280000028703580e+00 -1.0968274592575208e+03 1.0000000000000000e+00 2.7141704749783102e+01 6.6080281687621651e+00 9.7366728263156439e+00 
665 666 2 1.0280000023107940e+00 -4.3232038695999080e+02 1.0000000000000000e+00 2.5712307906567599e+01 8.1360621555926471e+00 8.4168349614629498e+00 
3899 3900 2 1.0279999970051126e+00 -4.3258374717921885e+02 1.0000000000000000e+00 2.5563982246003210e+01 6.9849302723404074e+00 8.4781633165215347e+00 
3024 3025 2 1.0279999997971370e+00 1.8074697174242324e+03 1.0000000000000000e+00 2.8469951784612132e+01 6.8849648284882425e+00 9.3084429771910138e+00 
593 594 2 1.0280000117374113e+00 5.1507980662043610e+02 1.0000000000000000e+00 3.1321320354867364e+01 7.8807116332301970e+00 9.6116884441382702e+00 
135 136 2 1.0279999881069823e+00 -3.4015661579545986e+02 1.0000000000000000e+00 3.1893073243130896e+01 6.9121605295131872e+00 9.8189200253859408e+00 
1006 1007 2 1.0280000002006047e+00 -2.9980561318171874e+02 1.0000000000000000e+00 2.2640160939868874e+01 8.8381993554489604e+00 9.8069216263715173e+00 
1048 1049 2 1.0279999999295435e+00 6.0195849895367337e+02 1.0000000000000000e+00 2.3780425673900268e+01 8.8379895161339590e+00 9.2871131717926421e+00 
707 708 2 1.0280000014800261e+00 1.3292126080316316e+03 1.0000000000000000e+00 2.6620512596963195e+01 9.1758428520769790e+00 9.9303152449417009e+00 
247 248 2 1.0279999992384388e+00 -1.0965416899281736e+03 1.0000000000000000e+00 2.7840125525068537e+01 9.4797662119489861e+00 9.3383879599324224e+00 
1172 1173 2 1.0279999985170187e+00 -1.1707347403899075e+03 1.0000000000000000e+00 2.6784101350655977e+01 1.0750069866529927e+01 9.7831048814676205e+00 
2096 2097 2 1.0280000008940486e+00 -1.4986215953163878e+03 1.0000000000000000e+00 2.7122679726593713e+01 1.2045240686124188e+01 9.1849882151565776e+00 
711 712 2 1.0280000019757365e+00 1.8977616603953868e+02 1.0000000000000000e+00 2.8665522943186986e+01 1.2588472764386809e+01 8.3668713076498413e+00 
333 334 2 1.0279999990286846e+00 -1.3129870179498889e+03 1.0000000000000000e+00 2.9660215653700572e+01 1.3302348027235791e+01 9.9443191512136284e+00 
4239 4240 2 1.0279999999999996e+00 -2.3332277384090264e+02 1.0000000000000000e+00 1.0113472035582646e+01 1.3719485417336687e+01 9.1160338827230891e+00 
4325 4326 2 1.0279999999999996e+00 -4.2332643421923535e+02 1.0000000000000000e+00 1.0952258128966459e+01 1.4250781725131919e+01 9.6830745693830647e+00 
1848 1849 2 1.0279999949944492e+00 3.6220114670281225e+02 1.0000000000000000e+00 2.4780087742995995e+01 1.4148280641982735e+01 9.0099483011723436e+00 
2310 2311 2 1.0280000055767975e+00 -2.9997379449535475e+02 1.0000000000000000e+00 2.5132546278393441e+01 1.4654900561792747e+01 9.9761775617465709e+00 
2139 2140 2 1.0280000000444443e+00 -3.0089014368115215e+02 1.0000000000000000e+00 2.7818151193310442e+01 1.3378076959998976e+01 9.6640685234261312e+00 
1683 1684 2 1.0280000040936281e+00 2.1306791109602904e+02 1.0000000000000000e+00 3.2504127471885958e+01 1.3666338587272488e+01 9.3309918117776718e+00 
250 251 2 1.0280000006616985e+00 -1.6108116500285787e+03 1.0000000000000000e+00 2.6713263266817595e+01 1.5088367262907090e+01 8.4920744529947552e+00 
251 252 2 1.0280000001390723e+00 9.1418606895688231e+02 1.0000000000000000e+00 2.8001101319622848e+01 1.5117602839396959e+01 8.4856588736556429e+00 
2100 2101 2 1.0279999999243346e+00 5.1941783023750952e+02 1.0000000000000000e+00 2.9933076286441622e+01 1.5861701437332115e+01 8.7739303794531160e+00 
1173 1174 2 1.0279999993779083e+00 5.4857570059246348e+02 1.0000000000000000e+00 3.1198017228713198e+01 1.5120292067548609e+01 8.5502874236707207e+00 
1176 1177 2 1.0280000011074977e+00 1.1391008914118763e+02 1.0000000000000000e+00 3.1481717636533698e+01 1.6534911994059566e+01 8.6055246353299530e+00 
1174 1175 2 1.0280000001447154e+00 -9.6718675030753030e+00 1.0000000000000000e+00 2.8961943079487110e+01 1.7818079955854685e+01 9.0150491321236466e+00 
672 673 2 1.0279999993782316e+00 3.7374296730093420e+02 1.0000000000000000e+00 2.5404119646149500e+01 1.9820480734337345e+01 8.7214556270623955e+00 
756 757 2 1.0280000011611932e+00 3.7450648912420434e+02 1.0000000000000000e+00 2.5481935192765622e+01 1.9212199294608084e+01 9.7820066603716924e+00 
1091 1092 2 1.0279999990462079e+00 -2.7966705549699088e+02 1.0000000000000000e+00 2.7129990153691669e+01 1.9524929389762022e+01 9.1716845018215238e+00 
173 174 2 1.0280000000313538e+00 6.2999178058701273e+02 1.0000000000000000e+00 3.1306357125022110e+01 1.8966996287522509e+01 8.8799543789157216e+00 
4409 4410 2 1.0279999981879548e+00 9.1456126625423190e+02 1.0000000000000000e+00 2.7533512268100154e+01 1.1767214366077279e+00 1.0111999530307669e+01 
1551 1552 2 1.0279999982119019e+00 9.9238818798633247e+01 1.0000000000000000e+00 3.2263185673878560e+01 1.6362848388831268e+00 1.0059538675882383e+01 
460 461 2 1.0279999984995323e+00 -5.9653421183220553e+02 1.0000000000000000e+00 3.2400022107656191e+01 1.8535564269001389e-01 1.1491666398458644e+01 
2601 2602 2 1.0279999995187223e+00 -3.0116541017586701e+02 1.0000000000000000e+00 2.7181487605374844e+01 3.0927915522174239e+00 1.0602300954559407e+01 
3486 3487 2 1.0279999977021750e+00 1.1357061280522198e+02 1.0000000000000000e+00 3.0999313322610845e+01 2.8948772813006034e+00 1.0266479057294003e+01 
1593 1594 2 1.0280000007795871e+00 -2.5488253561125492e+02 1.0000000000000000e+00 3.3288586125569289e+01 2.4179250888104815e+00 1.0400771980024400e+01 
3482 3483 2 1.0279999978604903e+00 -1.1713384460474226e+03 1.0000000000000000e+00 2.5350918720063458e+01 4.7988752089867033e+00 1.0166091338347538e+01 
4491 4492 2 1.0280000025076295e+00 -1.3129962009831734e+03 1.0000000000000000e+00 2.8891273808547510e+01 3.6506919160321472e+00 1.1515888293992594e+01 
3395 3396 2 1.0280000004898013e+00 7.3318592241873216e+02 1.0000000000000000e+00 2.2992631660654357e+01 5.7305654186748543e+00 1.1197506307415177e+01 
4319 4320 2 1.0280000004386081e+00 -1.9903868792202866e+03 1.0000000000000000e+00 2.4432343690918557e+01 5.9897556594071801e+00 1.0541347814211578e+01 
1085 1086 2 1.0279999994065170e+00 7.3465125775192826e+02 1.0000000000000000e+00 2.3721591324990946e+01 7.9290723405793448e+00 1.0788422180229015e+01 
3941 3942 2 1.0280000000624150e+00 1.3300736777817533e+03 1.0000000000000000e+00 2.5950925501718128e+01 6.7038721884482353e+00 1.0633454582333597e+01 
161 162 2 1.0280000002621892e+00 -1.9916618271902337e+03 1.0000000000000000e+00 2.5132302096341053e+01 8.1056812651342511e+00 1.0682479511759821e+01 
3989 3990 2 1.0280000006417978e+00 -3.3560957414620830e+01 1.0000000000000000e+00 2.9311681149281188e+01 7.4071435073433269e+00 1.0751798954142942e+01 
755 756 2 1.0279999977510030e+00 -3.3941849509745040e+01 1.0000000000000000e+00 2.9305853915156973e+01 8.9177841637815103e+00 1.0551087981345638e+01 
1347 1348 2 1.0280000010824404e+00 -1.0315457514993673e+03 1.0000000000000000e+00 3.0304042550717611e+01 8.9997536298304279e+00 1.1550789650241757e+01 
718 719 2 1.0279999981404777e+00 -4.2009846433731616e+02 1.0000000000000000e+00 3.3198129610096231e+01 8.6179473812611036e+00 1.1088516284860855e+01 
716 717 2 1.0280000001742990e+00 -4.1908542432638129e+01 1.0000000000000000e+00 3.1894023944105804e+01 9.6202570631104347e+00 1.1172195426428429e+01 
461 462 2 1.0279999989644144e+00 -4.8598714479082304e+02 1.0000000000000000e+00 3.0043717209558217e+01 1.0951120327655524e+01 1.0956541594669602e+01 
422 423 2 1.0279999992707227e+00 -4.8106614951387155e+02 1.0000000000000000e+00 3.1475147122329169e+01 1.1396568639287244e+01 1.1414097833546371e+01 
298 299 2 1.0279999988213739e+00 -1.3192998205123322e+03 1.0000000000000000e+00 3.3154050207518061e+01 1.0552565735792436e+01 1.1278423223038642e+01 
334 335 2 1.0280000004095025e+00 -8.3804385811426300e+02 1.0000000000000000e+00 2.9147672517583377e+01 1.2226078515713587e+01 1.0754653120300919e+01 
753 754 2 1.0280000002707939e+00 -4.3782330152285635e+02 1.0000000000000000e+00 3.0923533044629941e+01 1.2121561584396426e+01 1.0226299771808808e+01 
462 463 2 1.0280000010192607e+00 -1.2926109663828101e+03 1.0000000000000000e+00 2.8740881154350891e+01 1.4431913256945133e+01 1.0902932899210395e+01 
1640 1641 2 1.0279999964526649e+00 -2.8677932752542085e+02 1.0000000000000000e+00 3.2536754328599493e+01 1.3450628459729263e+01 1.0463641517288748e+01 
292 293 2 1.0280000010720733e+00 -5.7100416809777471e+02 1.0000000000000000e+00 2.8079061887903972e+01 1.5535003671810616e+01 1.0706745453455602e+01 
2269 2270 2 1.0280000000000009e+00 -2.9713711761784998e+02 1.0000000000000000e+00 1.4425626916467884e+01 1.6870792726973274e+01 1.0760817455355792e+01 
1807 1808 2 1.0280000000000009e+00 3.5244674519688886e+02 1.0000000000000000e+00 1.4424863705419112e+01 1.7977836055919887e+01 1.0474762385828205e+01 
290 291 2 1.0280000010574881e+00 6.3086806377889184e+02 1.0000000000000000e+00 2.8018373877092518e+01 1.6958562939901981e+01 1.1507590787757650e+01 
1217 1218 2 1.0279999989065915e+00 7.5519034753900542e+02 1.0000000000000000e+00 2.9886159029946910e+01 1.7258502536190196e+01 1.0046045113222217e+01 
1804 1805 2 1.0279999986519994e+00 5.7747715675755323e+01 1.0000000000000000e+00 2.9897765548526937e+01 1.7933506869467063e+01 1.1357742729662103e+01 
1974 1975 2 1.0280000010200185e+00 -3.1815618489930540e+02 1.0000000000000000e+00 2.8147341089207981e+01 1.9889513644130201e+01 1.0078721545955014e+01 
1678 1679 2 1.0280000026909757e+00 3.7824821896304002e+02 1.0000000000000000e+00 2.8433977744498680e+01 1.8668111139501399e+01 1.1273783367911465e+01 
1933 1934 2 1.0280000015388371e+00 -3.1115928694360304e+02 1.0000000000000000e+00 3.2953501528033918e+01 1.9509795138883128e+01 1.1440418822756053e+01 
3527 3528 2 1.0280000011083343e+00 7.5530202081519474e+02 1.0000000000000000e+00 2.8763012275320580e+01 4.7327336464970388e-01 1.2245988688860381e+01 
40 41 2 1.0279999995715736e+00 -5.9716578257609103e+02 1.0000000000000000e+00 3.2435843725378376e+01 1.6298776946739074e-01 1.3268567992121156e+01 
4450 4451 2 1.0279999981865491e+00 -5.7093632358111245e+02 1.0000000000000000e+00 2.7142468900259423e+01 1.9582484943051102e+00 1.3135531627104417e+01 
4620 4621 2 1.0279999994034756e+00 -1.2926636807146751e+03 1.0000000000000000e+00 2.8013121819869628e+01 2.9346785991004452e+00 1.3173804545331482e+01 
1473 1474 2 1.0279999997382034e+00 -5.9528666165226878e+02 1.0000000000000000e+00 3.3219069659768827e+01 2.1541388751829662e+00 1.2316828680709323e+01 
4492 4493 2 1.0279999961146391e+00 -8.3805101677247808e+02 1.0000000000000000e+00 2.8388326369846986e+01 4.4073735341072391e+00 1.2504980966211617e+01 
3987 3988 2 1.0280000015559370e+00 -4.3792142234426331e+02 1.0000000000000000e+00 3.0778791351759313e+01 4.5124444824121062e+00 1.1720755521822529e+01 
4580 4581 2 1.0280000000562013e+00 -4.8141326935758775e+02 1.0000000000000000e+00 3.1324037668893180e+01 4.9691775711021622e+00 1.2869689648542247e+01 