LAMMPS data file via write_data, version 30 Jul 2016, timestep = 50400000

2772 atoms
8 atom types

0.0000000000000000e+00 1.0000000000000000e+02 xlo xhi
0.0000000000000000e+00 4.0000000000000000e+01 ylo yhi
0.0000000000000000e+00 4.0000000000000000e+01 zlo zhi

Masses

1 3.896
2 5.36
3 20.064
4 8.378
5 8.378
6 8.378
7 8.378
8 8.378

Atoms # meso-molecular

325 326 2 1.0279999999912566e+00 3.8291264888716787e+03 1.0000000000000000e+00 1.1373906603500361e+00 1.0000000000000000e+01 1.2597320560714718e+00 
114 115 2 1.0279999999977500e+00 -2.7017569988164432e+03 1.0000000000000000e+00 1.5540864495249893e+00 1.0000000000000000e+01 7.3437487295268847e-02 
334 335 2 1.0280000000030451e+00 1.7341070739640047e+03 1.0000000000000000e+00 3.4284596914772441e+00 1.0000000000000000e+01 3.0446760417096946e-01 
286 287 2 1.0279999999962302e+00 -4.6040640668338767e+02 1.0000000000000000e+00 4.5761561640500901e+00 1.0000000000000000e+01 1.1514739469142665e+00 
210 211 2 1.0279999999932914e+00 1.4682652064661620e+03 1.0000000000000000e+00 6.1498337293803944e+00 1.0000000000000000e+01 1.2528591086669951e+00 
349 350 2 1.0279999999958156e+00 -2.6616986663086000e+03 1.0000000000000000e+00 8.6987619855681597e+00 1.0000000000000000e+01 1.5187710065066655e+00 
304 305 2 1.0280000000023859e+00 -1.5789548241665066e+03 1.0000000000000000e+00 1.0433968455805630e+01 1.0000000000000000e+01 1.4082564323600393e+00 
103 104 2 1.0280000000023981e+00 -2.4383559796546087e+03 1.0000000000000000e+00 1.2013309322082227e+01 1.0000000000000000e+01 1.5460012836293091e+00 
315 316 2 1.0279999999962777e+00 -6.8320339106963877e+02 1.0000000000000000e+00 1.1768081011240046e+01 1.0000000000000000e+01 7.3480242659840961e-02 
357 358 2 1.0280000000016383e+00 7.7039434753307603e+01 1.0000000000000000e+00 1.3159165354527284e+01 1.0000000000000000e+01 7.1635079303314975e-01 
59 60 2 1.0280000000008354e+00 8.0983572330018490e+01 1.0000000000000000e+00 1.4630636851317966e+01 1.0000000000000000e+01 1.6935477763308204e-01 
68 69 2 1.0279999999956331e+00 -2.0650130715475044e+02 1.0000000000000000e+00 1.4992871502528267e+01 1.0000000000000000e+01 1.3054885499800366e+00 
317 318 2 1.0279999999999960e+00 3.4424938761923016e+01 1.0000000000000000e+00 3.2787805609710006e+01 1.0000000000000000e+01 5.6656582770817820e-01 
753 754 2 1.0279999997318996e+00 3.0013635588631848e+02 1.0000000000000000e+00 1.6370867023194966e+00 1.3800000000000001e+01 7.9782943691669372e-01 
838 839 2 1.0279999993670206e+00 2.5033721592575489e+03 1.0000000000000000e+00 9.8087145881558466e-02 1.3800000000000001e+01 1.5366514325777605e+00 
874 875 2 1.0279999999853824e+00 1.0974814805942951e+03 1.0000000000000000e+00 3.2885443123879057e+00 1.3800000000000001e+01 1.3729915487700171e+00 
559 560 2 1.0279999998737250e+00 -2.6551069083136017e+03 1.0000000000000000e+00 4.6810167301454202e+00 1.3800000000000001e+01 8.8145853504198068e-01 
767 768 2 1.0280000001483840e+00 -8.3994980148669299e+01 1.0000000000000000e+00 5.7773613028359447e+00 1.3800000000000001e+01 1.7312643541226589e+00 
850 851 2 1.0279999997743889e+00 5.3335961835258854e+02 1.0000000000000000e+00 6.9692093220937172e+00 1.3800000000000001e+01 1.0902922667539439e+00 
814 815 2 1.0280000001935472e+00 -2.4650687635184304e+03 1.0000000000000000e+00 8.0649477040226696e+00 1.3800000000000001e+01 1.6295988436713302e+00 
683 684 2 1.0279999997437363e+00 -3.0374677784614923e+03 1.0000000000000000e+00 9.8518476251968909e+00 1.3800000000000001e+01 9.5374414830453214e-01 
564 565 2 1.0280000001422966e+00 -1.3855808445919615e+03 1.0000000000000000e+00 1.0738817704045443e+01 1.3800000000000001e+01 7.6071169207970135e-01 
857 858 2 1.0280000000000000e+00 -1.9861334152888315e+02 1.0000000000000000e+00 2.6585737999812189e+01 1.3800000000000001e+01 5.7132913676924724e-01 
528 529 2 1.0280000000000000e+00 5.1585284603339335e+02 1.0000000000000000e+00 2.7236312327975327e+01 1.3800000000000001e+01 2.9348778003472220e-01 
1194 1195 2 1.0279999999895910e+00 -7.1142472955939525e+02 1.0000000000000000e+00 1.7428996480076397e+00 1.7600000000000001e+01 9.0450052329725039e-01 
1357 1358 2 1.0279999999937917e+00 2.5306249074150901e+03 1.0000000000000000e+00 4.6596915297384855e-01 1.7600000000000001e+01 8.9613491997536987e-02 
1101 1102 2 1.0279999999997615e+00 -5.3118959935335329e+02 1.0000000000000000e+00 3.0027026263993761e+00 1.7600000000000001e+01 1.7533790113564061e+00 
1196 1197 2 1.0280000000053482e+00 -8.6288209367165496e+02 1.0000000000000000e+00 3.4740378030803596e+00 1.7600000000000001e+01 7.7523865770677991e-02 
1026 1027 2 1.0279999999950156e+00 -1.3871852395924902e+03 1.0000000000000000e+00 4.6490660240179471e+00 1.7600000000000001e+01 1.4374053057856586e+00 
1369 1370 2 1.0279999999985006e+00 9.1961463433249037e+01 1.0000000000000000e+00 9.0829589918141753e+00 1.7600000000000001e+01 1.2645262288179442e+00 
1366 1367 2 1.0280000000013785e+00 4.3019631660037894e+03 1.0000000000000000e+00 1.0138421640697176e+01 1.7600000000000001e+01 5.4918084580468318e-02 
944 945 2 1.0280000000002993e+00 2.1086619653980497e+03 1.0000000000000000e+00 1.1412600289918847e+01 1.7600000000000001e+01 8.6776802369603823e-01 
205 206 2 1.0280000000044658e+00 -1.3828300962875219e+03 1.0000000000000000e+00 2.5046228582246804e-01 1.0000000000000000e+01 3.2434813043074162e+00 
203 204 2 1.0280000000027412e+00 -4.1315834318604639e+03 1.0000000000000000e+00 1.7545247470436083e+00 1.0000000000000000e+01 2.7883293941510985e+00 
415 416 2 1.0280000000055796e+00 -1.5221951266794322e+03 1.0000000000000000e+00 2.6922935655368185e+00 1.0000000000000000e+01 1.9910377867684610e+00 
290 291 2 1.0280000000162723e+00 3.3059709971995317e+03 1.0000000000000000e+00 5.2178631327428420e+00 1.0000000000000000e+01 2.6355944734611412e+00 
330 331 2 1.0279999999843619e+00 -9.1434022397298918e+02 1.0000000000000000e+00 4.0523645701971711e+00 1.0000000000000000e+01 3.1021852753114585e+00 
181 182 2 1.0280000000001204e+00 5.7900227067685887e+02 1.0000000000000000e+00 7.7157796381233323e+00 1.0000000000000000e+01 1.9695295032747440e+00 
351 352 2 1.0280000000025729e+00 -2.2757711047248904e+03 1.0000000000000000e+00 9.7500346992460862e+00 1.0000000000000000e+01 2.9584560878234023e+00 
352 353 2 1.0279999999943490e+00 -2.4563642033581200e+03 1.0000000000000000e+00 1.0916645638992581e+01 1.0000000000000000e+01 3.1967995126066153e+00 
222 223 2 1.0279999999996430e+00 -7.2443471048193878e+03 1.0000000000000000e+00 1.2806265257605231e+01 1.0000000000000000e+01 3.5922769010759055e+00 
152 153 2 1.0280000000011811e+00 5.1571052296212365e+03 1.0000000000000000e+00 1.5129297248827912e+01 1.0000000000000000e+01 2.7304494756847131e+00 
281 282 2 1.0279999999982328e+00 -2.6525641701544930e+02 1.0000000000000000e+00 1.6406971816480947e+01 1.0000000000000000e+01 3.0829484864433452e+00 
154 155 2 1.0280000000014715e+00 2.1419238544698087e+03 1.0000000000000000e+00 1.8106981705256523e+01 1.0000000000000000e+01 2.6842126268096460e+00 
155 156 2 1.0279999999991249e+00 8.2965911005198245e+02 1.0000000000000000e+00 1.8585598494952265e+01 1.0000000000000000e+01 3.5635279464528851e+00 
715 716 2 1.0279999998399976e+00 1.4628935991650046e+03 1.0000000000000000e+00 4.1146459694742799e+00 1.3800000000000001e+01 2.4436969258204102e+00 
643 644 2 1.0279999997554194e+00 5.8152425144411245e+02 1.0000000000000000e+00 5.1234535932292671e+00 1.3800000000000001e+01 3.6353324941362710e+00 
685 686 2 1.0279999996215645e+00 -2.3993793000723781e+03 1.0000000000000000e+00 8.2114211179660153e+00 1.3800000000000001e+01 3.1760093819928374e+00 
725 726 2 1.0280000000243807e+00 -2.6216362629697314e+03 1.0000000000000000e+00 9.4003944371395232e+00 1.3800000000000001e+01 2.8901581374115772e+00 
606 607 2 1.0279999999011578e+00 -8.1499328334023767e+02 1.0000000000000000e+00 1.0906558895612671e+01 1.3800000000000001e+01 2.9227331734431670e+00 
525 526 2 1.0280000000335352e+00 1.5896654516033183e+02 1.0000000000000000e+00 1.2104909963341166e+01 1.3800000000000001e+01 3.5578021119421650e+00 
1150 1151 2 1.0280000000154712e+00 -3.0165298187666403e+03 1.0000000000000000e+00 1.5707728352373689e+00 1.7600000000000001e+01 2.5132187077942847e+00 
1022 1023 2 1.0280000000014855e+00 -2.3705464456134450e+03 1.0000000000000000e+00 4.0999694535226663e+00 1.7600000000000001e+01 3.2771814644555839e+00 
1364 1365 2 1.0280000000000911e+00 2.2458494440109916e+03 1.0000000000000000e+00 5.7806953476084857e+00 1.7600000000000001e+01 2.0915859540981563e+00 
1280 1281 2 1.0279999999961589e+00 2.2771149953376948e+03 1.0000000000000000e+00 7.0261973965693656e+00 1.7600000000000001e+01 2.4961997801396421e+00 
1321 1322 2 1.0279999999969465e+00 4.0602485007277448e+02 1.0000000000000000e+00 7.7157766921401576e+00 1.7600000000000001e+01 3.5677551826320331e+00 
1367 1368 2 1.0280000000043295e+00 2.0875937057247465e+03 1.0000000000000000e+00 8.9954555980996407e+00 1.7600000000000001e+01 2.8823557827619735e+00 
1365 1366 2 1.0279999999969671e+00 4.2199686615993733e+03 1.0000000000000000e+00 1.0405449514593473e+01 1.7600000000000001e+01 2.1528301562570302e+00 
986 987 2 1.0279999999989979e+00 -1.8190774560991085e+03 1.0000000000000000e+00 1.1710523117650828e+01 1.7600000000000001e+01 3.4066626459172040e+00 
989 990 2 1.0279999999998424e+00 -1.6281730615708025e+03 1.0000000000000000e+00 1.3157504125125918e+01 1.7600000000000001e+01 1.8245775532459396e+00 
1076 1077 2 1.0280000000006875e+00 5.1562279955527574e+03 1.0000000000000000e+00 1.3380527028345055e+01 1.7600000000000001e+01 2.6728001202278877e+00 
37 38 2 1.0280000000082357e+00 1.1028733147770490e+03 1.0000000000000000e+00 5.0379602372368915e-01 1.0000000000000000e+01 5.4162782928985633e+00 
280 281 2 1.0279999999937213e+00 -8.0626677241351308e+02 1.0000000000000000e+00 1.9149787654008841e+00 1.0000000000000000e+01 5.1163298621935338e+00 
249 250 2 1.0280000000020408e+00 -1.3115644496995556e+03 1.0000000000000000e+00 4.6577431026491301e+00 1.0000000000000000e+01 4.4879795483946685e+00 
299 300 2 1.0279999999954552e+00 -1.1887140547736062e+03 1.0000000000000000e+00 7.3520395242496761e+00 1.0000000000000000e+01 3.6549598395177463e+00 
412 413 2 1.0280000000063094e+00 1.0853840613645930e+03 1.0000000000000000e+00 6.4494777229480693e+00 1.0000000000000000e+01 4.8065457651236700e+00 
97 98 2 1.0280000000057690e+00 -2.6568083787094138e+03 1.0000000000000000e+00 8.5046606548997410e+00 1.0000000000000000e+01 4.3024063414682256e+00 
223 224 2 1.0280000000031504e+00 -2.4031382310566619e+03 1.0000000000000000e+00 1.1266501625240641e+01 1.0000000000000000e+01 4.8244142197557682e+00 
312 313 2 1.0280000000013496e+00 -9.3900224057999947e+02 1.0000000000000000e+00 1.2454961771774100e+01 1.0000000000000000e+01 4.9904286407419667e+00 
65 66 2 1.0280000000007867e+00 -1.6040867673048426e+03 1.0000000000000000e+00 1.4014065116826028e+01 1.0000000000000000e+01 3.9591785022787351e+00 
402 403 2 1.0279999999981198e+00 3.9819351346052730e+02 1.0000000000000000e+00 1.5197444597459880e+01 1.0000000000000000e+01 5.1033046586723536e+00 
359 360 2 1.0280000000014906e+00 1.9795502045501155e+03 1.0000000000000000e+00 1.6106816401093578e+01 1.0000000000000000e+01 5.4531444276336209e+00 
361 362 2 1.0280000000003791e+00 -1.4420743975813161e+03 1.0000000000000000e+00 1.7172174620271594e+01 1.0000000000000000e+01 4.2610436817032724e+00 
751 752 2 1.0280000001677427e+00 -1.5222180178136323e+03 1.0000000000000000e+00 7.6200315640693472e-01 1.3800000000000001e+01 4.1607531769323849e+00 
871 872 2 1.0279999999451492e+00 1.4059952566835095e+03 1.0000000000000000e+00 2.0033746214780588e+00 1.3800000000000001e+01 4.2174785783969817e+00 
747 748 2 1.0280000002303644e+00 -2.2370358575413347e+03 1.0000000000000000e+00 2.9284424614267524e+00 1.3800000000000001e+01 5.1445894440225173e+00 
674 675 2 1.0279999999115699e+00 -4.4816125392637496e+03 1.0000000000000000e+00 5.1361535437646948e+00 1.3800000000000001e+01 4.9852182606702415e+00 
727 728 2 1.0280000000185292e+00 5.6396275384959984e+02 1.0000000000000000e+00 6.6681671994047518e+00 1.3800000000000001e+01 3.8284816780941022e+00 
892 893 2 1.0279999999273348e+00 4.0563620336603062e+03 1.0000000000000000e+00 7.0205166580029692e+00 1.3800000000000001e+01 5.0876045077531620e+00 
650 651 2 1.0280000000222342e+00 -9.7844475354753911e+02 1.0000000000000000e+00 1.1322951948368532e+01 1.3800000000000001e+01 4.4422353073399190e+00 
1265 1266 2 1.0280000000001297e+00 2.9678285068783600e+02 1.0000000000000000e+00 3.1371679147807224e-01 1.7600000000000001e+01 3.9226213080376335e+00 
1151 1152 2 1.0280000000021305e+00 -7.6007381420966385e+02 1.0000000000000000e+00 1.2549816184949005e+00 1.7600000000000001e+01 4.7215637256602214e+00 
974 975 2 1.0279999999821321e+00 1.3850810024729219e+03 1.0000000000000000e+00 2.4996285346075164e+00 1.7600000000000001e+01 3.7142325454366487e+00 
1155 1156 2 1.0280000000144944e+00 2.6231310155903009e+02 1.0000000000000000e+00 3.6652695249397831e+00 1.7600000000000001e+01 4.8748309545009310e+00 
1286 1287 2 1.0279999999888294e+00 -6.7541096395908448e+02 1.0000000000000000e+00 5.2536631578188890e+00 1.7600000000000001e+01 4.0610428990874459e+00 
1278 1279 2 1.0279999999961698e+00 -1.5071763605669016e+03 1.0000000000000000e+00 5.9516288812434555e+00 1.7600000000000001e+01 5.1995757391747750e+00 
1065 1066 2 1.0279999999946354e+00 2.0669149054160002e+03 1.0000000000000000e+00 9.0276989500596727e+00 1.7600000000000001e+01 4.7856338472273237e+00 
1025 1026 2 1.0280000000006182e+00 -5.2042407757314936e+02 1.0000000000000000e+00 1.0729679506971145e+01 1.7600000000000001e+01 3.8743552155141949e+00 
990 991 2 1.0280000000007012e+00 5.2649850719127380e+02 1.0000000000000000e+00 1.3083135771647576e+01 1.7600000000000001e+01 4.7993531786453794e+00 
1034 1035 2 1.0279999999980243e+00 -5.9110640498187036e+02 1.0000000000000000e+00 1.4477759135822827e+01 1.7600000000000001e+01 4.6726656223770950e+00 
376 377 2 1.0280000000095957e+00 2.5030181916614597e+03 1.0000000000000000e+00 3.1642014144988493e+00 1.0000000000000000e+01 5.5255602034486122e+00 
413 414 2 1.0280000000005720e+00 1.4358145511657394e+03 1.0000000000000000e+00 2.2852570432196520e+00 1.0000000000000000e+01 6.7374545604970821e+00 
168 169 2 1.0279999999938232e+00 -9.2017360981774573e+02 1.0000000000000000e+00 4.9995412989888388e+00 1.0000000000000000e+01 5.8266487050211868e+00 
291 292 2 1.0280000000053366e+00 2.9874257265706638e+02 1.0000000000000000e+00 4.4779933261162013e+00 1.0000000000000000e+01 7.2286945139990175e+00 
338 339 2 1.0279999999943252e+00 1.0348727677071204e+03 1.0000000000000000e+00 7.5737144825566531e+00 1.0000000000000000e+01 5.6360101909287827e+00 
348 349 2 1.0280000000017153e+00 -1.6056900316467897e+03 1.0000000000000000e+00 8.7516034331504962e+00 1.0000000000000000e+01 6.5347161587838212e+00 
391 392 2 1.0280000000017540e+00 -1.0976518205880465e+02 1.0000000000000000e+00 9.7125552138996110e+00 1.0000000000000000e+01 5.4842838182067082e+00 
265 266 2 1.0279999999986764e+00 5.6079676024990079e+02 1.0000000000000000e+00 1.0277321962680993e+01 1.0000000000000000e+01 6.9590005003200162e+00 
392 393 2 1.0279999999999994e+00 -1.3697968621532582e+03 1.0000000000000000e+00 2.6212368117824976e+01 1.0000000000000000e+01 5.6828024238034214e+00 
432 433 2 1.0279999999999994e+00 3.1709708866104893e+03 1.0000000000000000e+00 2.6115927755119063e+01 1.0000000000000000e+01 6.3836176864926379e+00 
831 832 2 1.0279999997555411e+00 8.4617703696381068e+02 1.0000000000000000e+00 4.6019118446733953e-01 1.3800000000000001e+01 5.6440992965018992e+00 
843 844 2 1.0279999997062215e+00 -2.0721557627232628e+03 1.0000000000000000e+00 2.7600928815206029e+00 1.3800000000000001e+01 6.6015846149103048e+00 
718 719 2 1.0280000000707754e+00 7.0855685804934171e+02 1.0000000000000000e+00 4.2031578446630533e+00 1.3800000000000001e+01 6.2096776817416419e+00 
472 473 2 1.0279999998128480e+00 4.0410367088562757e+03 1.0000000000000000e+00 5.5447151500226131e+00 1.3800000000000001e+01 7.2710371921090502e+00 
473 474 2 1.0279999998149567e+00 4.5101636035038946e+03 1.0000000000000000e+00 6.4350400493993769e+00 1.3800000000000001e+01 6.2803790972012710e+00 
821 822 2 1.0279999999115974e+00 1.9767173546467395e+03 1.0000000000000000e+00 1.2802983597856988e+01 1.3800000000000001e+01 5.6549099576953958e+00 
864 865 2 1.0280000000599356e+00 3.9864318312603103e+02 1.0000000000000000e+00 1.2133422201377876e+01 1.3800000000000001e+01 6.1279531807147851e+00 
1225 1226 2 1.0279999999858471e+00 -1.0335525320103586e+03 1.0000000000000000e+00 3.1740812372138483e-01 1.7600000000000001e+01 6.4181046543170597e+00 
1237 1238 2 1.0280000000082123e+00 -1.2426332682669158e+03 1.0000000000000000e+00 1.6058369947759477e+00 1.7600000000000001e+01 7.1868250065853507e+00 
1279 1280 2 1.0280000000060880e+00 -2.6019286478111480e+03 1.0000000000000000e+00 2.3904778610059498e+00 1.7600000000000001e+01 6.1804460273319402e+00 
1069 1070 2 1.0279999999853919e+00 -1.1978978491046546e+03 1.0000000000000000e+00 3.9491028313955003e+00 1.7600000000000001e+01 6.3105153166982726e+00 
1193 1194 2 1.0280000000059248e+00 -8.6251548273378467e+02 1.0000000000000000e+00 5.2654862777789644e+00 1.7600000000000001e+01 6.7007724421562234e+00 
1190 1191 2 1.0279999999861174e+00 -3.3460607983985847e+02 1.0000000000000000e+00 6.7030815044123022e+00 1.7600000000000001e+01 6.6142125545933590e+00 
1064 1065 2 1.0280000000079255e+00 9.1660772058226758e+02 1.0000000000000000e+00 7.7365572157236144e+00 1.7600000000000001e+01 5.6313137678941727e+00 
941 942 2 1.0279999999957554e+00 1.9980901124615239e+03 1.0000000000000000e+00 9.2801363614472745e+00 1.7600000000000001e+01 6.1528702946898877e+00 
1319 1320 2 1.0280000000014708e+00 -2.2353865180874038e+02 1.0000000000000000e+00 1.0657702886624085e+01 1.7600000000000001e+01 5.9955051715156067e+00 
985 986 2 1.0279999999966192e+00 4.2807563786563458e+02 1.0000000000000000e+00 1.1851547488550251e+01 1.7600000000000001e+01 5.6339841802105930e+00 
1285 1286 2 1.0279999999985410e+00 -1.4176532125356212e+03 1.0000000000000000e+00 1.3190433390761186e+01 1.7600000000000001e+01 6.8245623836029088e+00 
1328 1329 2 1.0280000000021285e+00 -1.3144113833056082e+02 1.0000000000000000e+00 1.4472662339063655e+01 1.7600000000000001e+01 5.8070998966591656e+00 
72 73 2 1.0280000000103422e+00 -1.8593718987598857e+02 1.0000000000000000e+00 1.1713325613435144e+00 1.0000000000000000e+01 8.2161397227832165e+00 
289 290 2 1.0279999999917457e+00 -1.5226451891906327e+03 1.0000000000000000e+00 2.8764459152748012e+00 1.0000000000000000e+01 8.0264003577537668e+00 
285 286 2 1.0279999999958402e+00 -2.2336529159990423e+03 1.0000000000000000e+00 5.6030303264980699e+00 1.0000000000000000e+01 7.7215984268813962e+00 
383 384 2 1.0280000000003364e+00 -2.7841952764974553e+02 1.0000000000000000e+00 6.9183232868960030e+00 1.0000000000000000e+01 8.1379472384252320e+00 
388 389 2 1.0279999999992600e+00 5.3300339982283560e+02 1.0000000000000000e+00 8.0464192032766544e+00 1.0000000000000000e+01 8.4559188015694087e+00 
267 268 2 1.0280000000020459e+00 -7.9803459473705493e+02 1.0000000000000000e+00 1.0157363551050905e+01 1.0000000000000000e+01 8.2102004709035370e+00 
920 921 2 1.0280000001716016e+00 1.2440005414204493e+03 1.0000000000000000e+00 7.1829883576130149e-01 1.3800000000000001e+01 7.4263818398402446e+00 
880 881 2 1.0280000000589526e+00 -2.0649665166898885e+03 1.0000000000000000e+00 9.8522747671857547e-01 1.3800000000000001e+01 9.0749534392705051e+00 
757 758 2 1.0280000002502065e+00 -9.5648583605306885e+02 1.0000000000000000e+00 3.0706130343465396e+00 1.3800000000000001e+01 8.0097055158308006e+00 
719 720 2 1.0279999996702009e+00 3.2419402721306687e+03 1.0000000000000000e+00 4.6726682524884913e+00 1.3800000000000001e+01 8.4627799593446955e+00 
817 818 2 1.0280000002814940e+00 -2.5991102277403579e+03 1.0000000000000000e+00 6.5423516515567313e+00 1.3800000000000001e+01 8.9568540708661448e+00 
729 730 2 1.0279999999285558e+00 -7.8348973746094430e+02 1.0000000000000000e+00 7.9577436737510272e+00 1.3800000000000001e+01 8.7390464804615906e+00 
684 685 2 1.0280000000453586e+00 -7.2248574741591137e+03 1.0000000000000000e+00 9.2771245786340462e+00 1.3800000000000001e+01 8.0215283547201537e+00 
774 775 2 1.0279999999982203e+00 -9.2850057486811693e+02 1.0000000000000000e+00 9.5831495344392774e+00 1.3800000000000001e+01 9.0170627337864904e+00 
1015 1016 2 1.0280000000075011e+00 -1.5042933655974525e+03 1.0000000000000000e+00 5.6694858056751596e-01 1.7600000000000001e+01 8.4533244223337185e+00 
1274 1275 2 1.0279999999889640e+00 -2.3194244933590935e+03 1.0000000000000000e+00 5.5606902012998667e+00 1.7600000000000001e+01 8.7264190021594157e+00 
1238 1239 2 1.0280000000154530e+00 6.3682185723725809e+01 1.0000000000000000e+00 6.6979462166417507e+00 1.7600000000000001e+01 8.7618309797923821e+00 
939 940 2 1.0279999999907408e+00 3.1812395849980880e+03 1.0000000000000000e+00 8.1017450600111403e+00 1.7600000000000001e+01 8.1868552563712562e+00 
936 937 2 1.0280000000113707e+00 3.1852403648642803e+03 1.0000000000000000e+00 9.4789416642317406e+00 1.7600000000000001e+01 8.8263830298517174e+00 
1205 1206 2 1.0279999999941787e+00 -2.7822336638571176e+02 1.0000000000000000e+00 1.1000311236420734e+01 1.7600000000000001e+01 8.1113341508628913e+00 
1326 1327 2 1.0280000000059952e+00 3.9566929559343043e+02 1.0000000000000000e+00 1.1927723153571980e+01 1.7600000000000001e+01 8.2929969858113903e+00 
1283 1284 2 1.0279999999985534e+00 1.9772618966162950e+03 1.0000000000000000e+00 1.3669301923318445e+01 1.7600000000000001e+01 7.9450220146126664e+00 
1362 1363 2 1.0280000000010829e+00 2.2662257617577836e+02 1.0000000000000000e+00 1.5255314258260125e+01 1.7600000000000001e+01 8.6402469834322027e+00 
329 330 2 1.0280000000063669e+00 2.2175401448801658e+03 1.0000000000000000e+00 4.0941379898677316e-01 1.0000000000000000e+01 9.9810714541163552e+00 
369 370 2 1.0279999999921581e+00 8.4653765846001124e+02 1.0000000000000000e+00 1.5321022520687009e+00 1.0000000000000000e+01 1.0082592878220952e+01 
409 410 2 1.0280000000037779e+00 1.4078222705798162e+03 1.0000000000000000e+00 3.0940527457633316e+00 1.0000000000000000e+01 9.4842873471007216e+00 
250 251 2 1.0279999999972715e+00 2.4198056827299988e+03 1.0000000000000000e+00 4.3688496213869596e+00 1.0000000000000000e+01 9.7218200578763838e+00 
213 214 2 1.0280000000004974e+00 2.6006840869530688e+03 1.0000000000000000e+00 5.6036967938437812e+00 1.0000000000000000e+01 9.9371766732951539e+00 
212 213 2 1.0280000000049996e+00 -4.4881097350004984e+03 1.0000000000000000e+00 7.1961845903031918e+00 1.0000000000000000e+01 1.0745511442496012e+01 
430 431 2 1.0279999999993397e+00 4.0560488827615281e+03 1.0000000000000000e+00 8.3603358719575347e+00 1.0000000000000000e+01 9.8620367770032704e+00 
273 274 2 1.0280000000011738e+00 -5.2698780346757360e+01 1.0000000000000000e+00 1.0196975049107104e+01 1.0000000000000000e+01 9.5225075600005145e+00 
272 273 2 1.0279999999993228e+00 -8.5643645479181987e+02 1.0000000000000000e+00 9.7383889556731020e+00 1.0000000000000000e+01 1.0758298270186719e+01 
675 676 2 1.0279999996934384e+00 2.5870235833457818e+03 1.0000000000000000e+00 2.1229892511313260e+00 1.3800000000000001e+01 9.3497427707166842e+00 
888 889 2 1.0279999999396510e+00 1.1810734924997093e+03 1.0000000000000000e+00 3.7599265017792058e+00 1.3800000000000001e+01 9.4948754383844189e+00 
679 680 2 1.0280000002345220e+00 4.2778126862326098e+03 1.0000000000000000e+00 5.2737832253839638e+00 1.3800000000000001e+01 1.0763584691102475e+01 
775 776 2 1.0279999995564351e+00 -1.2421098746951056e+03 1.0000000000000000e+00 6.7402732607767666e+00 1.3800000000000001e+01 1.0212570644802360e+01 
769 770 2 1.0280000002677083e+00 7.3186403762631369e+02 1.0000000000000000e+00 8.5686466711950189e+00 1.3800000000000001e+01 1.0642224058340505e+01 
688 689 2 1.0280000000462637e+00 -3.0350196384301380e+03 1.0000000000000000e+00 1.1024727438288474e+01 1.3800000000000001e+01 1.0688181691711630e+01 
863 864 2 1.0280000000000005e+00 -1.5970011689142689e+03 1.0000000000000000e+00 2.3741424083576515e+01 1.3800000000000001e+01 1.0738164613582889e+01 
979 980 2 1.0279999999980642e+00 -1.0884399734210926e+02 1.0000000000000000e+00 8.9678666788184402e-01 1.7600000000000001e+01 9.8056587743197561e+00 
1224 1225 2 1.0280000000000393e+00 -1.4348697692028240e+03 1.0000000000000000e+00 3.9367802591783872e-02 1.7600000000000001e+01 1.0813842775035035e+01 
1108 1109 2 1.0279999999890153e+00 -6.7906632310060058e+02 1.0000000000000000e+00 3.8192313018998387e+00 1.7600000000000001e+01 1.0500340721416405e+01 
1110 1111 2 1.0280000000124576e+00 -7.1969925033609843e+02 1.0000000000000000e+00 4.3603435084065776e+00 1.7600000000000001e+01 9.5293182288875151e+00 
980 981 2 1.0279999999912073e+00 -1.3570084264706370e+03 1.0000000000000000e+00 8.4705990428116351e+00 1.7600000000000001e+01 9.5346525384450374e+00 
1320 1321 2 1.0279999999992853e+00 1.3492347926673747e+03 1.0000000000000000e+00 1.4701891043786489e+01 1.7600000000000001e+01 9.3351776145998393e+00 
455 456 2 1.0280000000050593e+00 -2.7894684673077581e+03 1.0000000000000000e+00 1.2872050065913268e+00 1.0000000000000000e+01 1.2142081726941786e+01 
458 459 2 1.0279999999962870e+00 1.2459644514988590e+03 1.0000000000000000e+00 2.6705256307604586e+00 1.0000000000000000e+01 1.1683573751551133e+01 
381 382 2 1.0280000000046374e+00 -2.0713166883107151e+03 1.0000000000000000e+00 4.0840830545151281e+00 1.0000000000000000e+01 1.2011277789465874e+01 
253 254 2 1.0279999999951335e+00 1.4668624073118685e+03 1.0000000000000000e+00 5.9903033108767110e+00 1.0000000000000000e+01 1.1343292222540143e+01 
219 220 2 1.0280000000004317e+00 -8.9385447606487605e+02 1.0000000000000000e+00 7.1398486224576123e+00 1.0000000000000000e+01 1.2584953760710526e+01 
182 183 2 1.0279999999987577e+00 -3.7204477198012569e+02 1.0000000000000000e+00 9.8135991668436393e+00 1.0000000000000000e+01 1.2203635608866813e+01 
269 270 2 1.0280000000000025e+00 -8.6566049534539434e+02 1.0000000000000000e+00 2.4085939444975700e+01 1.0000000000000000e+01 1.2126952833250760e+01 
350 351 2 1.0280000000000025e+00 -2.3213036557479636e+03 1.0000000000000000e+00 2.4704980312850136e+01 1.0000000000000000e+01 1.2469343224293290e+01 
890 891 2 1.0279999999382841e+00 -2.6840360133851873e+03 1.0000000000000000e+00 1.2459319262039252e+00 1.3800000000000001e+01 1.1935735362449611e+01 
846 847 2 1.0279999999700609e+00 -1.5716143363116994e+03 1.0000000000000000e+00 2.5194346017865046e+00 1.3800000000000001e+01 1.1954810255135175e+01 
681 682 2 1.0279999994792026e+00 -8.9293976421203956e+02 1.0000000000000000e+00 4.1338763934110068e+00 1.3800000000000001e+01 1.1272864231880803e+01 
803 804 2 1.0279999999550089e+00 2.8844109025051853e+02 1.0000000000000000e+00 6.3606067987681509e+00 1.3800000000000001e+01 1.2130512777710795e+01 
855 856 2 1.0279999998487890e+00 8.9550063156803822e+02 1.0000000000000000e+00 8.4146247789888999e+00 1.3800000000000001e+01 1.1736818190620811e+01 
809 810 2 1.0279999998893428e+00 -2.3914707768298393e+02 1.0000000000000000e+00 1.0037365869625521e+01 1.3800000000000001e+01 1.1668919604873510e+01 
689 690 2 1.0280000000127896e+00 -7.5482871952458254e+02 1.0000000000000000e+00 1.1723667684373767e+01 1.3800000000000001e+01 1.1602707775845097e+01 
782 783 2 1.0280000000000005e+00 5.2495330347949484e+03 1.0000000000000000e+00 2.3102898016787265e+01 1.3800000000000001e+01 1.1042676087927697e+01 
1097 1098 2 1.0280000000122875e+00 3.1257123997283343e+03 1.0000000000000000e+00 3.7311409889178035e+00 1.7600000000000001e+01 1.2659338750486180e+01 
1054 1055 2 1.0279999999984342e+00 5.5989723094032379e+03 1.0000000000000000e+00 4.6602507350359268e+00 1.7600000000000001e+01 1.1675012722046578e+01 
1103 1104 2 1.0280000000153480e+00 -2.7266781729961540e+03 1.0000000000000000e+00 7.2434820538934108e+00 1.7600000000000001e+01 1.2534206030279178e+01 
1152 1153 2 1.0279999999820097e+00 -5.7857448011599104e+02 1.0000000000000000e+00 8.0102130776752034e+00 1.7600000000000001e+01 1.1653375418525226e+01 
1029 1030 2 1.0280000000058376e+00 1.0855346872923840e+02 1.0000000000000000e+00 9.2826616355203910e+00 1.7600000000000001e+01 1.2181468105105781e+01 
1068 1069 2 1.0280000000004916e+00 -8.1849786224518812e+02 1.0000000000000000e+00 1.0880627442462933e+01 1.7600000000000001e+01 1.2374610833922114e+01 
335 336 2 1.0279999999992782e+00 -2.4342644989755131e+03 1.0000000000000000e+00 2.9216933618476736e-02 1.0000000000000000e+01 1.3186822225093051e+01 
296 297 2 1.0279999999949210e+00 -2.3099639817737043e+03 1.0000000000000000e+00 9.7020677957071211e-01 1.0000000000000000e+01 1.4329541732955510e+01 
418 419 2 1.0280000000005443e+00 -2.0557359859993876e+03 1.0000000000000000e+00 2.3218851529923397e+00 1.0000000000000000e+01 1.3304154808718108e+01 
295 296 2 1.0279999999960174e+00 -9.5007012412239192e+02 1.0000000000000000e+00 4.0511895462664969e+00 1.0000000000000000e+01 1.3176135528030912e+01 
257 258 2 1.0279999999968126e+00 3.2382003493043526e+03 1.0000000000000000e+00 5.8225337653498412e+00 1.0000000000000000e+01 1.3728077800129981e+01 
217 218 2 1.0279999999970906e+00 4.2750154089496773e+03 1.0000000000000000e+00 7.8913591489022705e+00 1.0000000000000000e+01 1.3520877395124565e+01 
188 189 2 1.0279999999977831e+00 -9.8623825211174631e+02 1.0000000000000000e+00 8.9416264585364988e+00 1.0000000000000000e+01 1.4472869449107026e+01 
60 61 2 1.0280000000024001e+00 1.2903877518778695e+03 1.0000000000000000e+00 1.0410089525543327e+01 1.0000000000000000e+01 1.3123993562396747e+01 
146 147 2 1.0279999999972598e+00 1.9142120091094917e+01 1.0000000000000000e+00 1.1999491605742575e+01 1.0000000000000000e+01 1.3116244685217451e+01 
18 19 2 1.0280000000011631e+00 2.9957784670947724e+01 1.0000000000000000e+00 1.2317495846722569e+01 1.0000000000000000e+01 1.4044934629084191e+01 
852 853 2 1.0280000001067948e+00 1.3641505678733611e+03 1.0000000000000000e+00 4.0610512473297478e-01 1.3800000000000001e+01 1.4099472519911233e+01 