LAMMPS data file via write_data, version 30 Jul 2016, timestep = 50000000

2772 atoms
8 atom types

0.0000000000000000e+00 1.0000000000000000e+02 xlo xhi
0.0000000000000000e+00 4.0000000000000000e+01 ylo yhi
0.0000000000000000e+00 4.0000000000000000e+01 zlo zhi

Masses

1 3.896
2 5.36
3 20.064
4 8.378
5 8.378
6 8.378
7 8.378
8 8.378

Atoms # meso-molecular

325 326 2 1.0279999999854776e+00 3.8291264888716787e+03 1.0000000000000000e+00 1.1448608588656666e+00 1.0000000000000000e+01 1.2326832206847611e+00 
114 115 2 1.0279999999959286e+00 -2.7017569988164432e+03 1.0000000000000000e+00 1.5615570351818919e+00 1.0000000000000000e+01 4.6387752935008970e-02 
334 335 2 1.0280000000053175e+00 1.7341070739640047e+03 1.0000000000000000e+00 3.4359299036698245e+00 1.0000000000000000e+01 2.7741684393016958e-01 
286 287 2 1.0279999999929277e+00 -4.6040640668338767e+02 1.0000000000000000e+00 4.5836265472679543e+00 1.0000000000000000e+01 1.1244223415935695e+00 
210 211 2 1.0279999999877705e+00 1.4682652064661620e+03 1.0000000000000000e+00 6.1573043819092055e+00 1.0000000000000000e+01 1.2258068590080711e+00 
349 350 2 1.0279999999932345e+00 -2.6616986663086000e+03 1.0000000000000000e+00 8.7062329810808450e+00 1.0000000000000000e+01 1.4917175300719931e+00 
304 305 2 1.0280000000040623e+00 -1.5789548241665066e+03 1.0000000000000000e+00 1.0441439618399006e+01 1.0000000000000000e+01 1.3812025261845979e+00 
103 104 2 1.0280000000039080e+00 -2.4383559796546087e+03 1.0000000000000000e+00 1.2020780547538086e+01 1.0000000000000000e+01 1.5189467779907526e+00 
315 316 2 1.0279999999925531e+00 -6.8320339106963877e+02 1.0000000000000000e+00 1.1775552434665389e+01 1.0000000000000000e+01 4.6425951237743811e-02 
357 358 2 1.0280000000024418e+00 7.7039434753307603e+01 1.0000000000000000e+00 1.3166636603823541e+01 1.0000000000000000e+01 6.8929612884667724e-01 
59 60 2 1.0280000000013487e+00 8.0983572330018490e+01 1.0000000000000000e+00 1.4638108014525770e+01 1.0000000000000000e+01 1.4229944780879206e-01 
68 69 2 1.0279999999922420e+00 -2.0650130715475044e+02 1.0000000000000000e+00 1.5000342785527570e+01 1.0000000000000000e+01 1.2784332835867500e+00 
317 318 2 1.0279999999999863e+00 3.4424938761923016e+01 1.0000000000000000e+00 3.3302843193846741e+01 1.0000000000000000e+01 1.5398102151892097e+00 
753 754 2 1.0279999996012485e+00 3.0013635588631848e+02 1.0000000000000000e+00 1.6341760644084509e+00 1.3800000000000001e+01 7.9581676786078270e-01 
838 839 2 1.0279999990566022e+00 2.5033721592575489e+03 1.0000000000000000e+00 9.5148634264616200e-02 1.3800000000000001e+01 1.5345815588790419e+00 
874 875 2 1.0280000000060161e+00 1.0974814805942951e+03 1.0000000000000000e+00 3.2856262077300755e+00 1.3800000000000001e+01 1.3709980511369744e+00 
559 560 2 1.0279999998081149e+00 -2.6551069083136017e+03 1.0000000000000000e+00 4.6781038951667346e+00 1.3800000000000001e+01 8.7946199455215646e-01 
767 768 2 1.0280000001929290e+00 -8.3994980148669299e+01 1.0000000000000000e+00 5.7744416182575957e+00 1.3800000000000001e+01 1.7292723562759948e+00 
850 851 2 1.0279999997048419e+00 5.3335961835258854e+02 1.0000000000000000e+00 6.9662946463948963e+00 1.3800000000000001e+01 1.0883067288993642e+00 
814 815 2 1.0280000002490715e+00 -2.4650687635184304e+03 1.0000000000000000e+00 8.0620331221571657e+00 1.3800000000000001e+01 1.6276115169511614e+00 
683 684 2 1.0279999996874405e+00 -3.0374677784614923e+03 1.0000000000000000e+00 9.8489193043558210e+00 1.3800000000000001e+01 9.5176292958298481e-01 
564 565 2 1.0280000001622600e+00 -1.3855808445919615e+03 1.0000000000000000e+00 1.0735897737766834e+01 1.3800000000000001e+01 7.5873318661515976e-01 
857 858 2 1.0280000000000000e+00 -1.9861334152888315e+02 1.0000000000000000e+00 2.7002072810705393e+01 1.3800000000000001e+01 7.3850656022942140e-01 
528 529 2 1.0280000000000000e+00 5.1585284603339335e+02 1.0000000000000000e+00 2.7652647138868531e+01 1.3800000000000001e+01 4.6066520349489637e-01 
1194 1195 2 1.0279999999840610e+00 -7.1142472955939525e+02 1.0000000000000000e+00 1.7354792306032394e+00 1.7600000000000001e+01 9.0690709063163932e-01 
1357 1358 2 1.0279999999905252e+00 2.5306249074150901e+03 1.0000000000000000e+00 4.5854818729012170e-01 1.7600000000000001e+01 9.2020393559682487e-02 
1101 1102 2 1.0279999999990503e+00 -5.3118959935335329e+02 1.0000000000000000e+00 2.9952817600480532e+00 1.7600000000000001e+01 1.7557850723027355e+00 
1196 1197 2 1.0280000000085037e+00 -8.6288209367165496e+02 1.0000000000000000e+00 3.4666168971889371e+00 1.7600000000000001e+01 7.9929197871472929e-02 
1026 1027 2 1.0279999999929170e+00 -1.3871852395924902e+03 1.0000000000000000e+00 4.6416452123836862e+00 1.7600000000000001e+01 1.4398101891610302e+00 
1369 1370 2 1.0279999999987914e+00 9.1961463433249037e+01 1.0000000000000000e+00 9.0755384437915669e+00 1.7600000000000001e+01 1.2669279315876876e+00 
1366 1367 2 1.0280000000027776e+00 4.3019631660037894e+03 1.0000000000000000e+00 1.0131001113023276e+01 1.7600000000000001e+01 5.7319436323540675e-02 
944 945 2 1.0280000000007472e+00 2.1086619653980497e+03 1.0000000000000000e+00 1.1405179739515289e+01 1.7600000000000001e+01 8.7016901235319433e-01 
205 206 2 1.0280000000079959e+00 -1.3828300962875219e+03 1.0000000000000000e+00 2.5793275448245939e-01 1.0000000000000000e+01 3.2164337030055572e+00 
203 204 2 1.0280000000046501e+00 -4.1315834318604639e+03 1.0000000000000000e+00 1.7619948564390024e+00 1.0000000000000000e+01 2.7612801306010573e+00 
415 416 2 1.0280000000099672e+00 -1.5221951266794322e+03 1.0000000000000000e+00 2.6997632226205019e+00 1.0000000000000000e+01 1.9639876027048049e+00 
290 291 2 1.0280000000289944e+00 3.3059709971995317e+03 1.0000000000000000e+00 5.2253334240812350e+00 1.0000000000000000e+01 2.6085422766821855e+00 
330 331 2 1.0279999999736016e+00 -9.1434022397298918e+02 1.0000000000000000e+00 4.0598349643961145e+00 1.0000000000000000e+01 3.0751336999378931e+00 
299 300 2 1.0279999999921547e+00 -1.1887140547736062e+03 1.0000000000000000e+00 7.3595097565587944e+00 1.0000000000000000e+01 3.6279063963812237e+00 
181 182 2 1.0280000000001601e+00 5.7900227067685887e+02 1.0000000000000000e+00 7.7232504739913956e+00 1.0000000000000000e+01 1.9424763260140587e+00 
351 352 2 1.0280000000041922e+00 -2.2757711047248904e+03 1.0000000000000000e+00 9.7575051459916295e+00 1.0000000000000000e+01 2.9314021511309072e+00 
352 353 2 1.0279999999906464e+00 -2.4563642033581200e+03 1.0000000000000000e+00 1.0924116327686381e+01 1.0000000000000000e+01 3.1697452774333210e+00 
222 223 2 1.0279999999993874e+00 -7.2443471048193878e+03 1.0000000000000000e+00 1.2813736162625851e+01 1.0000000000000000e+01 3.5652219886829486e+00 
152 153 2 1.0280000000020539e+00 5.1571052296212365e+03 1.0000000000000000e+00 1.5136768292652109e+01 1.0000000000000000e+01 2.7033942316808930e+00 
281 282 2 1.0279999999969593e+00 -2.6525641701544930e+02 1.0000000000000000e+00 1.6414443023822017e+01 1.0000000000000000e+01 3.0558927119392019e+00 
154 155 2 1.0280000000023848e+00 2.1419238544698087e+03 1.0000000000000000e+00 1.8114453022927655e+01 1.0000000000000000e+01 2.6571566794831121e+00 
155 156 2 1.0279999999982863e+00 8.2965911005198245e+02 1.0000000000000000e+00 1.8593069854074542e+01 1.0000000000000000e+01 3.5364718683738818e+00 
715 716 2 1.0279999998089178e+00 1.4628935991650046e+03 1.0000000000000000e+00 4.1117126770651051e+00 1.3800000000000001e+01 2.4417043165229146e+00 
643 644 2 1.0279999997000124e+00 5.8152425144411245e+02 1.0000000000000000e+00 5.1205301612383156e+00 1.3800000000000001e+01 3.6333227440081526e+00 
685 686 2 1.0279999995254596e+00 -2.3993793000723781e+03 1.0000000000000000e+00 8.2085079683521371e+00 1.3800000000000001e+01 3.1740247926628533e+00 
725 726 2 1.0280000000223388e+00 -2.6216362629697314e+03 1.0000000000000000e+00 9.3974907129963974e+00 1.3800000000000001e+01 2.8881717921643211e+00 
606 607 2 1.0279999998902645e+00 -8.1499328334023767e+02 1.0000000000000000e+00 1.0903642188507089e+01 1.3800000000000001e+01 2.9207611340331860e+00 
525 526 2 1.0280000000270946e+00 1.5896654516033183e+02 1.0000000000000000e+00 1.2101989005356410e+01 1.3800000000000001e+01 3.5558413459614391e+00 
1150 1151 2 1.0280000000228724e+00 -3.0165298187666403e+03 1.0000000000000000e+00 1.5633522742039154e+00 1.7600000000000001e+01 2.5156254324160390e+00 
1022 1023 2 1.0280000000021685e+00 -2.3705464456134450e+03 1.0000000000000000e+00 4.0925486972521830e+00 1.7600000000000001e+01 3.2795869400800961e+00 
1364 1365 2 1.0280000000011738e+00 2.2458494440109916e+03 1.0000000000000000e+00 5.7732748071962012e+00 1.7600000000000001e+01 2.0939896168830088e+00 
1280 1281 2 1.0279999999947478e+00 2.2771149953376948e+03 1.0000000000000000e+00 7.0187770783830130e+00 1.7600000000000001e+01 2.4986021680039325e+00 
1321 1322 2 1.0279999999953817e+00 4.0602485007277448e+02 1.0000000000000000e+00 7.7083565816124890e+00 1.7600000000000001e+01 3.5701575593085475e+00 
1367 1368 2 1.0280000000063394e+00 2.0875937057247465e+03 1.0000000000000000e+00 8.9880353462875480e+00 1.7600000000000001e+01 2.8847574967035414e+00 
1365 1366 2 1.0279999999959084e+00 4.2199686615993733e+03 1.0000000000000000e+00 1.0398028998072972e+01 1.7600000000000001e+01 2.1552316174890587e+00 
986 987 2 1.0279999999986233e+00 -1.8190774560991085e+03 1.0000000000000000e+00 1.1703102736185045e+01 1.7600000000000001e+01 3.4090638772654240e+00 
989 990 2 1.0279999999996645e+00 -1.6281730615708025e+03 1.0000000000000000e+00 1.3150083619843805e+01 1.7600000000000001e+01 1.8269784322507026e+00 
1076 1077 2 1.0280000000004428e+00 5.1562279955527574e+03 1.0000000000000000e+00 1.3373106530356887e+01 1.7600000000000001e+01 2.6752009707099633e+00 
37 38 2 1.0280000000137119e+00 1.1028733147770490e+03 1.0000000000000000e+00 5.1126608273076368e-01 1.0000000000000000e+01 5.3892300537392952e+00 
280 281 2 1.0279999999885874e+00 -8.0626677241351308e+02 1.0000000000000000e+00 1.9224490447742300e+00 1.0000000000000000e+01 5.0892801051728682e+00 
249 250 2 1.0280000000040439e+00 -1.3115644496995556e+03 1.0000000000000000e+00 4.6652137614884932e+00 1.0000000000000000e+01 4.4609278955260665e+00 
412 413 2 1.0280000000112519e+00 1.0853840613645930e+03 1.0000000000000000e+00 6.4569479817664428e+00 1.0000000000000000e+01 4.7794924494416220e+00 
97 98 2 1.0280000000102256e+00 -2.6568083787094138e+03 1.0000000000000000e+00 8.5121311113022617e+00 1.0000000000000000e+01 4.2753526923569067e+00 
223 224 2 1.0280000000051761e+00 -2.4031382310566619e+03 1.0000000000000000e+00 1.1273972344024633e+01 1.0000000000000000e+01 4.7973597507047820e+00 
312 313 2 1.0280000000017879e+00 -9.3900224057999947e+02 1.0000000000000000e+00 1.2462432305578329e+01 1.0000000000000000e+01 4.9633737011862236e+00 
65 66 2 1.0280000000012726e+00 -1.6040867673048426e+03 1.0000000000000000e+00 1.4021535997444976e+01 1.0000000000000000e+01 3.9321231290500522e+00 
402 403 2 1.0279999999968998e+00 3.9819351346052730e+02 1.0000000000000000e+00 1.5204915764298534e+01 1.0000000000000000e+01 5.0762488070968006e+00 
359 360 2 1.0280000000024478e+00 1.9795502045501155e+03 1.0000000000000000e+00 1.6114287728957812e+01 1.0000000000000000e+01 5.4260883915885856e+00 
361 362 2 1.0280000000009182e+00 -1.4420743975813161e+03 1.0000000000000000e+00 1.7179645925018260e+01 1.0000000000000000e+01 4.2339877694080492e+00 
751 752 2 1.0280000002367951e+00 -1.5222180178136323e+03 1.0000000000000000e+00 7.5909633669888787e-01 1.3800000000000001e+01 4.1586934280974210e+00 
871 872 2 1.0279999999299116e+00 1.4059952566835095e+03 1.0000000000000000e+00 2.0004727283144570e+00 1.3800000000000001e+01 4.2154270422090274e+00 
747 748 2 1.0280000003524805e+00 -2.2370358575413347e+03 1.0000000000000000e+00 2.9255360498097698e+00 1.3800000000000001e+01 5.1425383260911222e+00 
674 675 2 1.0279999998848091e+00 -4.4816125392637496e+03 1.0000000000000000e+00 5.1332323400812028e+00 1.3800000000000001e+01 4.9832065074228575e+00 
727 728 2 1.0280000000068643e+00 5.6396275384959984e+02 1.0000000000000000e+00 6.6652571203255713e+00 1.3800000000000001e+01 3.8264751416604956e+00 
892 893 2 1.0279999999286482e+00 4.0563620336603062e+03 1.0000000000000000e+00 7.0176330484305840e+00 1.3800000000000001e+01 5.0855861651113354e+00 
650 651 2 1.0280000000411640e+00 -9.7844475354753911e+02 1.0000000000000000e+00 1.1320030802156984e+01 1.3800000000000001e+01 4.4402731309345631e+00 
1265 1266 2 1.0280000000005693e+00 2.9678285068783600e+02 1.0000000000000000e+00 3.0629647959012163e-01 1.7600000000000001e+01 3.9250290578347000e+00 
1151 1152 2 1.0280000000030434e+00 -7.6007381420966385e+02 1.0000000000000000e+00 1.2475608309670803e+00 1.7600000000000001e+01 4.7239712939831033e+00 
974 975 2 1.0279999999737801e+00 1.3850810024729219e+03 1.0000000000000000e+00 2.4922077987521774e+00 1.7600000000000001e+01 3.7166389997096072e+00 
1155 1156 2 1.0280000000212335e+00 2.6231310155903009e+02 1.0000000000000000e+00 3.6578486889509345e+00 1.7600000000000001e+01 4.8772364697469515e+00 
1286 1287 2 1.0279999999838274e+00 -6.7541096395908448e+02 1.0000000000000000e+00 5.2462423343535844e+00 1.7600000000000001e+01 4.0634474166979677e+00 
1278 1279 2 1.0279999999947491e+00 -1.5071763605669016e+03 1.0000000000000000e+00 5.9442088085488889e+00 1.7600000000000001e+01 5.2019797383657567e+00 
1065 1066 2 1.0279999999922460e+00 2.0669149054160002e+03 1.0000000000000000e+00 9.0202785445050253e+00 1.7600000000000001e+01 4.7880356905224586e+00 
1025 1026 2 1.0280000000012166e+00 -5.2042407757314936e+02 1.0000000000000000e+00 1.0722259091120806e+01 1.7600000000000001e+01 3.8767565374186308e+00 
990 991 2 1.0280000000014011e+00 5.2649850719127380e+02 1.0000000000000000e+00 1.3075715325185941e+01 1.7600000000000001e+01 4.8017540860451602e+00 
1034 1035 2 1.0279999999966718e+00 -5.9110640498187036e+02 1.0000000000000000e+00 1.4470338661608260e+01 1.7600000000000001e+01 4.6750664015529066e+00 
376 377 2 1.0280000000170109e+00 2.5030181916614597e+03 1.0000000000000000e+00 3.1716717737024909e+00 1.0000000000000000e+01 5.4985100166609513e+00 
413 414 2 1.0280000000009253e+00 1.4358145511657394e+03 1.0000000000000000e+00 2.2927272242699899e+00 1.0000000000000000e+01 6.7104042671673589e+00 
168 169 2 1.0279999999889800e+00 -9.2017360981774573e+02 1.0000000000000000e+00 5.0070114255198321e+00 1.0000000000000000e+01 5.7995967650976334e+00 
291 292 2 1.0280000000091944e+00 2.9874257265706638e+02 1.0000000000000000e+00 4.4854632320967776e+00 1.0000000000000000e+01 7.2016427468843149e+00 
338 339 2 1.0279999999904683e+00 1.0348727677071204e+03 1.0000000000000000e+00 7.5811846150549789e+00 1.0000000000000000e+01 5.6089565558388568e+00 
348 349 2 1.0280000000031255e+00 -1.6056900316467897e+03 1.0000000000000000e+00 8.7590740999155923e+00 1.0000000000000000e+01 6.5076620940382774e+00 
391 392 2 1.0280000000031473e+00 -1.0976518205880465e+02 1.0000000000000000e+00 9.7200255815537968e+00 1.0000000000000000e+01 5.4572295180316974e+00 
265 266 2 1.0279999999979370e+00 5.6079676024990079e+02 1.0000000000000000e+00 1.0284792256450210e+01 1.0000000000000000e+01 6.9319463121717684e+00 
392 393 2 1.0279999999999994e+00 -1.3697968621532582e+03 1.0000000000000000e+00 2.6855195836702446e+01 1.0000000000000000e+01 6.7212124324503275e+00 
831 832 2 1.0279999996685987e+00 8.4617703696381068e+02 1.0000000000000000e+00 4.5729416698403380e-01 1.3800000000000001e+01 5.6420352633710733e+00 
843 844 2 1.0279999995992006e+00 -2.0721557627232628e+03 1.0000000000000000e+00 2.7571829345909213e+00 1.3800000000000001e+01 6.5995394194474706e+00 
718 719 2 1.0280000000958176e+00 7.0855685804934171e+02 1.0000000000000000e+00 4.2002481519977923e+00 1.3800000000000001e+01 6.2076297087168442e+00 
472 473 2 1.0279999998048277e+00 4.0410367088562757e+03 1.0000000000000000e+00 5.5418477822184675e+00 1.3800000000000001e+01 7.2690003450532688e+00 
473 474 2 1.0279999997396294e+00 4.5101636035038946e+03 1.0000000000000000e+00 6.4321726527988492e+00 1.3800000000000001e+01 6.2783595910389751e+00 
821 822 2 1.0279999998843852e+00 1.9767173546467395e+03 1.0000000000000000e+00 1.2800053873283851e+01 1.3800000000000001e+01 5.6529484466405249e+00 
864 865 2 1.0280000000792930e+00 3.9864318312603103e+02 1.0000000000000000e+00 1.2130487841706209e+01 1.3800000000000001e+01 6.1259900324550989e+00 
1225 1226 2 1.0279999999791445e+00 -1.0335525320103586e+03 1.0000000000000000e+00 3.0998823069533799e-01 1.7600000000000001e+01 6.4205133674632551e+00 
1237 1238 2 1.0280000000117906e+00 -1.2426332682669158e+03 1.0000000000000000e+00 1.5984170159506228e+00 1.7600000000000001e+01 7.1892326923812266e+00 
1279 1280 2 1.0280000000091469e+00 -2.6019286478111480e+03 1.0000000000000000e+00 2.3830568468639473e+00 1.7600000000000001e+01 6.1828527860230427e+00 
1069 1070 2 1.0279999999787113e+00 -1.1978978491046546e+03 1.0000000000000000e+00 3.9416819056276080e+00 1.7600000000000001e+01 6.3129205027255111e+00 
1193 1194 2 1.0280000000087794e+00 -8.6251548273378467e+02 1.0000000000000000e+00 5.2580659568990251e+00 1.7600000000000001e+01 6.7031763903008237e+00 
1190 1191 2 1.0279999999795273e+00 -3.3460607983985847e+02 1.0000000000000000e+00 6.6956617487921042e+00 1.7600000000000001e+01 6.6166161438753219e+00 
1064 1065 2 1.0280000000121594e+00 9.1660772058226758e+02 1.0000000000000000e+00 7.7291374801934429e+00 1.7600000000000001e+01 5.6337161377870935e+00 
941 942 2 1.0279999999940048e+00 1.9980901124615239e+03 1.0000000000000000e+00 9.2727158588645651e+00 1.7600000000000001e+01 6.1552726253558774e+00 
1319 1320 2 1.0280000000020186e+00 -2.2353865180874038e+02 1.0000000000000000e+00 1.0650282471666213e+01 1.7600000000000001e+01 5.9979067435064248e+00 
985 986 2 1.0279999999957206e+00 4.2807563786563458e+02 1.0000000000000000e+00 1.1844126892730481e+01 1.7600000000000001e+01 5.6363854049314925e+00 
1285 1286 2 1.0279999999983032e+00 -1.4176532125356212e+03 1.0000000000000000e+00 1.3183012617678621e+01 1.7600000000000001e+01 6.8269634156773025e+00 
1328 1329 2 1.0280000000031546e+00 -1.3144113833056082e+02 1.0000000000000000e+00 1.4465241611663631e+01 1.7600000000000001e+01 5.8095006890549863e+00 
72 73 2 1.0280000000183900e+00 -1.8593718987598857e+02 1.0000000000000000e+00 1.1788030758290609e+00 1.0000000000000000e+01 8.1890910774243739e+00 
289 290 2 1.0279999999869616e+00 -1.5226451891906327e+03 1.0000000000000000e+00 2.8839159389093703e+00 1.0000000000000000e+01 7.9993501869853221e+00 
285 286 2 1.0279999999934446e+00 -2.2336529159990423e+03 1.0000000000000000e+00 5.6105001738734472e+00 1.0000000000000000e+01 7.6945463194276993e+00 
383 384 2 1.0280000000012961e+00 -2.7841952764974553e+02 1.0000000000000000e+00 6.9257935737937215e+00 1.0000000000000000e+01 8.1108944904087874e+00 
388 389 2 1.0279999999984593e+00 5.3300339982283560e+02 1.0000000000000000e+00 8.0538893957182260e+00 1.0000000000000000e+01 8.4288655212130319e+00 
267 268 2 1.0280000000034553e+00 -7.9803459473705493e+02 1.0000000000000000e+00 1.0164833665158849e+01 1.0000000000000000e+01 8.1831464750645839e+00 
432 433 2 1.0279999999999994e+00 3.1709708866104893e+03 1.0000000000000000e+00 2.6758755473996533e+01 1.0000000000000000e+01 7.4220276951395441e+00 
920 921 2 1.0280000002650655e+00 1.2440005414204493e+03 1.0000000000000000e+00 7.1544733032479557e-01 1.3800000000000001e+01 7.4243124251342358e+00 
880 881 2 1.0280000001273062e+00 -2.0649665166898885e+03 1.0000000000000000e+00 9.8235627502505063e-01 1.3800000000000001e+01 9.0728862637116219e+00 
757 758 2 1.0280000003491885e+00 -9.5648583605306885e+02 1.0000000000000000e+00 3.0677301739996059e+00 1.3800000000000001e+01 8.0076573125757609e+00 
719 720 2 1.0279999995152098e+00 3.2419402721306687e+03 1.0000000000000000e+00 4.6698022704094821e+00 1.3800000000000001e+01 8.4607355636937509e+00 
817 818 2 1.0280000003865537e+00 -2.5991102277403579e+03 1.0000000000000000e+00 6.5395153028365298e+00 1.3800000000000001e+01 8.9547813762393513e+00 
729 730 2 1.0279999998792080e+00 -7.8348973746094430e+02 1.0000000000000000e+00 7.9549029037871959e+00 1.3800000000000001e+01 8.7369776535602632e+00 
684 685 2 1.0280000000636322e+00 -7.2248574741591137e+03 1.0000000000000000e+00 9.2742885232540591e+00 1.3800000000000001e+01 8.0194727176351961e+00 
774 775 2 1.0280000000072886e+00 -9.2850057486811693e+02 1.0000000000000000e+00 9.5803134500979059e+00 1.3800000000000001e+01 9.0150088454505184e+00 
1015 1016 2 1.0280000000108984e+00 -1.5042933655974525e+03 1.0000000000000000e+00 5.5952845847233434e-01 1.7600000000000001e+01 8.4557327382972680e+00 
1274 1275 2 1.0279999999837810e+00 -2.3194244933590935e+03 1.0000000000000000e+00 5.5532690378991205e+00 1.7600000000000001e+01 8.7288203217313161e+00 
1238 1239 2 1.0280000000226992e+00 6.3682185723725809e+01 1.0000000000000000e+00 6.6905253175437363e+00 1.7600000000000001e+01 8.7642320699732199e+00 
939 940 2 1.0279999999863694e+00 3.1812395849980880e+03 1.0000000000000000e+00 8.0943240958875045e+00 1.7600000000000001e+01 8.1892559431122507e+00 
936 937 2 1.0280000000168548e+00 3.1852403648642803e+03 1.0000000000000000e+00 9.4715208557197492e+00 1.7600000000000001e+01 8.8287838996641970e+00 
1205 1206 2 1.0279999999913991e+00 -2.7822336638571176e+02 1.0000000000000000e+00 1.0992890300570272e+01 1.7600000000000001e+01 8.1137353128462362e+00 
1326 1327 2 1.0280000000091514e+00 3.9566929559343043e+02 1.0000000000000000e+00 1.1920302498535914e+01 1.7600000000000001e+01 8.2953978995626443e+00 
1283 1284 2 1.0279999999980942e+00 1.9772618966162950e+03 1.0000000000000000e+00 1.3661880971332858e+01 1.7600000000000001e+01 7.9474231603554966e+00 
1362 1363 2 1.0280000000018781e+00 2.2662257617577836e+02 1.0000000000000000e+00 1.5247893415413323e+01 1.7600000000000001e+01 8.6426481149376393e+00 
329 330 2 1.0280000000102927e+00 2.2175401448801658e+03 1.0000000000000000e+00 4.1688342465493317e-01 1.0000000000000000e+01 9.9540226090015089e+00 
369 370 2 1.0279999999876526e+00 8.4653765846001124e+02 1.0000000000000000e+00 1.5395718237421010e+00 1.0000000000000000e+01 1.0055543327350273e+01 
409 410 2 1.0280000000063079e+00 1.4078222705798162e+03 1.0000000000000000e+00 3.1015228166521269e+00 1.0000000000000000e+01 9.4572370509935073e+00 
250 251 2 1.0279999999952472e+00 2.4198056827299988e+03 1.0000000000000000e+00 4.3763195086706723e+00 1.0000000000000000e+01 9.6947689108384498e+00 
213 214 2 1.0280000000010117e+00 2.6006840869530688e+03 1.0000000000000000e+00 5.6111671798162348e+00 1.0000000000000000e+01 9.9101247064282028e+00 
212 213 2 1.0280000000078984e+00 -4.4881097350004984e+03 1.0000000000000000e+00 7.2036547396016850e+00 1.0000000000000000e+01 1.0718458779962972e+01 
430 431 2 1.0279999999990328e+00 4.0560488827615281e+03 1.0000000000000000e+00 8.3678057604347877e+00 1.0000000000000000e+01 9.8349835815009143e+00 
273 274 2 1.0280000000018441e+00 -5.2698780346757360e+01 1.0000000000000000e+00 1.0204445061247219e+01 1.0000000000000000e+01 9.4954533787576576e+00 
272 273 2 1.0279999999990870e+00 -8.5643645479181987e+02 1.0000000000000000e+00 9.7458590642189211e+00 1.0000000000000000e+01 1.0731244203120024e+01 
675 676 2 1.0279999995376574e+00 2.5870235833457818e+03 1.0000000000000000e+00 2.1201135863066973e+00 1.3800000000000001e+01 9.3476881275356334e+00 
888 889 2 1.0279999999643983e+00 1.1810734924997093e+03 1.0000000000000000e+00 3.7570632701328237e+00 1.3800000000000001e+01 9.4928135763354824e+00 
679 680 2 1.0280000003079444e+00 4.2778126862326098e+03 1.0000000000000000e+00 5.2709714250253104e+00 1.3800000000000001e+01 1.0761510917776620e+01 
775 776 2 1.0279999994078213e+00 -1.2421098746951056e+03 1.0000000000000000e+00 6.7374413121963235e+00 1.3800000000000001e+01 1.0210500943868666e+01 
769 770 2 1.0280000003866863e+00 7.3186403762631369e+02 1.0000000000000000e+00 8.5658364428962219e+00 1.3800000000000001e+01 1.0640158496728404e+01 
688 689 2 1.0280000000540250e+00 -3.0350196384301380e+03 1.0000000000000000e+00 1.1021915853022739e+01 1.3800000000000001e+01 1.0686132281516594e+01 
863 864 2 1.0280000000000005e+00 -1.5970011689142689e+03 1.0000000000000000e+00 2.3322922380240055e+01 1.3800000000000001e+01 1.0661050650367919e+01 
979 980 2 1.0279999999975162e+00 -1.0884399734210926e+02 1.0000000000000000e+00 8.8936634654873870e-01 1.7600000000000001e+01 9.8080667388021752e+00 
1224 1225 2 1.0280000000002967e+00 -1.4348697692028240e+03 1.0000000000000000e+00 3.1947014519006507e-02 1.7600000000000001e+01 1.0816251258891210e+01 
1108 1109 2 1.0279999999840139e+00 -6.7906632310060058e+02 1.0000000000000000e+00 3.8118075800775970e+00 1.7600000000000001e+01 1.0502739815175252e+01 
1110 1111 2 1.0280000000184499e+00 -7.1969925033609843e+02 1.0000000000000000e+00 4.3529208842365330e+00 1.7600000000000001e+01 9.5317183663315745e+00 
980 981 2 1.0279999999871736e+00 -1.3570084264706370e+03 1.0000000000000000e+00 8.4631784253669284e+00 1.7600000000000001e+01 9.5370536393310825e+00 
1320 1321 2 1.0279999999990659e+00 1.3492347926673747e+03 1.0000000000000000e+00 1.4694470277684360e+01 1.7600000000000001e+01 9.3375787396714198e+00 
455 456 2 1.0280000000081073e+00 -2.7894684673077581e+03 1.0000000000000000e+00 1.2946747292657497e+00 1.0000000000000000e+01 1.2115032804305516e+01 
458 459 2 1.0279999999931555e+00 1.2459644514988590e+03 1.0000000000000000e+00 2.6779954138011424e+00 1.0000000000000000e+01 1.1656523859974829e+01 
381 382 2 1.0280000000073815e+00 -2.0713166883107151e+03 1.0000000000000000e+00 4.0915528150824310e+00 1.0000000000000000e+01 1.1984227231406260e+01 
253 254 2 1.0279999999920637e+00 1.4668624073118685e+03 1.0000000000000000e+00 5.9977735151609757e+00 1.0000000000000000e+01 1.1316240104926075e+01 
219 220 2 1.0280000000015481e+00 -8.9385447606487605e+02 1.0000000000000000e+00 7.1473188301323427e+00 1.0000000000000000e+01 1.2557901062313922e+01 
182 183 2 1.0279999999982592e+00 -3.7204477198012569e+02 1.0000000000000000e+00 9.8210693797332116e+00 1.0000000000000000e+01 1.2176581683075165e+01 
269 270 2 1.0280000000000025e+00 -8.6566049534539434e+02 1.0000000000000000e+00 2.3617672202394168e+01 1.0000000000000000e+01 1.2364387431455560e+01 
350 351 2 1.0280000000000025e+00 -2.3213036557479636e+03 1.0000000000000000e+00 2.4236713070268603e+01 1.0000000000000000e+01 1.2706777822498090e+01 
890 891 2 1.0279999999401723e+00 -2.6840360133851873e+03 1.0000000000000000e+00 1.2431512321228944e+00 1.3800000000000001e+01 1.1933616893253959e+01 
846 847 2 1.0279999999372256e+00 -1.5716143363116994e+03 1.0000000000000000e+00 2.5166471141760667e+00 1.3800000000000001e+01 1.1952710495705297e+01 
681 682 2 1.0279999993003288e+00 -8.9293976421203956e+02 1.0000000000000000e+00 4.1310656887186088e+00 1.3800000000000001e+01 1.1270787536865758e+01 
803 804 2 1.0279999999556193e+00 2.8844109025051853e+02 1.0000000000000000e+00 6.3577968366587054e+00 1.3800000000000001e+01 1.2128458746207285e+01 
855 856 2 1.0279999997729268e+00 8.9550063156803822e+02 1.0000000000000000e+00 8.4118074091583495e+00 1.3800000000000001e+01 1.1734746292710843e+01 
809 810 2 1.0279999998486395e+00 -2.3914707768298393e+02 1.0000000000000000e+00 1.0034554300263547e+01 1.3800000000000001e+01 1.1666860993779569e+01 
689 690 2 1.0280000000236305e+00 -7.5482871952458254e+02 1.0000000000000000e+00 1.1720852872141249e+01 1.3800000000000001e+01 1.1600664820352119e+01 
782 783 2 1.0280000000000005e+00 5.2495330347949484e+03 1.0000000000000000e+00 2.2684396313450804e+01 1.3800000000000001e+01 1.0965562124712728e+01 
1097 1098 2 1.0280000000180018e+00 3.1257123997283343e+03 1.0000000000000000e+00 3.7237174891069986e+00 1.7600000000000001e+01 1.2661738903901723e+01 
1054 1055 2 1.0279999999976717e+00 5.5989723094032379e+03 1.0000000000000000e+00 4.6528267034595334e+00 1.7600000000000001e+01 1.1677412349247652e+01 
1103 1104 2 1.0280000000224887e+00 -2.7266781729961540e+03 1.0000000000000000e+00 7.2360591301297941e+00 1.7600000000000001e+01 1.2536603880653905e+01 
1152 1153 2 1.0279999999738960e+00 -5.7857448011599104e+02 1.0000000000000000e+00 8.0027895901405124e+00 1.7600000000000001e+01 1.1655772592777483e+01 
1029 1030 2 1.0280000000085439e+00 1.0855346872923840e+02 1.0000000000000000e+00 9.2752390567705767e+00 1.7600000000000001e+01 1.2183864174189905e+01 
1068 1069 2 1.0280000000006060e+00 -8.1849786224518812e+02 1.0000000000000000e+00 1.0873204772002088e+01 1.7600000000000001e+01 1.2377005314689340e+01 
335 336 2 1.0279999999994911e+00 -2.4342644989755131e+03 1.0000000000000000e+00 3.6686731381990183e-02 1.0000000000000000e+01 1.3159773763835270e+01 
296 297 2 1.0279999999907086e+00 -2.3099639817737043e+03 1.0000000000000000e+00 9.7767638135928259e-01 1.0000000000000000e+01 1.4302492758535299e+01 
418 419 2 1.0280000000012091e+00 -2.0557359859993876e+03 1.0000000000000000e+00 2.3293547585308274e+00 1.0000000000000000e+01 1.3277104865734806e+01 
295 296 2 1.0279999999941356e+00 -9.5007012412239192e+02 1.0000000000000000e+00 4.0586594569790995e+00 1.0000000000000000e+01 1.3149084752428950e+01 
257 258 2 1.0279999999948775e+00 3.2382003493043526e+03 1.0000000000000000e+00 5.8300039620638957e+00 1.0000000000000000e+01 1.3701026202213752e+01 
217 218 2 1.0279999999950273e+00 4.2750154089496773e+03 1.0000000000000000e+00 7.8988292038087868e+00 1.0000000000000000e+01 1.3493824594832763e+01 
188 189 2 1.0279999999961058e+00 -9.8623825211174631e+02 1.0000000000000000e+00 8.9490966912009942e+00 1.0000000000000000e+01 1.4445816476703831e+01 
60 61 2 1.0280000000042628e+00 1.2903877518778695e+03 1.0000000000000000e+00 1.0417559683571003e+01 1.0000000000000000e+01 1.3096939466846949e+01 
146 147 2 1.0279999999952409e+00 1.9142120091094917e+01 1.0000000000000000e+00 1.2006961672273210e+01 1.0000000000000000e+01 1.3089190126436149e+01 
18 19 2 1.0280000000023870e+00 2.9957784670947724e+01 1.0000000000000000e+00 1.2324965870122076e+01 1.0000000000000000e+01 1.4017880168324975e+01 
852 853 2 1.0280000000394209e+00 1.3641505678733611e+03 1.0000000000000000e+00 4.0343303619396897e-01 1.3800000000000001e+01 1.4097393588972395e+01 