LAMMPS data file via write_data, version 30 Jul 2016, timestep = 50000000

180 atoms
2 atom types

0.0000000000000000e+00 2.0000000000000000e+01 xlo xhi
0.0000000000000000e+00 2.0000000000000000e+01 ylo yhi
0.0000000000000000e+00 2.0000000000000000e+01 zlo zhi

Masses

1 3.896
2 4.31

Atoms # meso-molecular

1 1 2 6.8774415317587634e-01 -1.0449364718319363e+02 1.0000000000000000e+00 5.5456328534145172e+00 2.9453691396962638e+00 7.9696359613561718e-01 
7 1 2 6.8774415317587634e-01 -1.0528568888312978e+02 1.0000000000000000e+00 5.5456328534144665e+00 2.9453691396962891e+00 7.9696359613561085e-01 
13 1 2 3.4387207658793817e-01 1.4570216543354384e+00 1.0000000000000000e+00 4.6052155102426324e+00 7.8976981953530148e+00 5.9146433365948992e-01 
2 1 2 3.4387207658793817e-01 0.0000000000000000e+00 1.0000000000000000e+00 4.2999999999999998e+00 2.9999999999999999e-02 4.4600000000000000e+00 
8 1 2 6.8774415317587634e-01 -1.0539639825263914e+02 1.0000000000000000e+00 6.4108198121762623e+00 4.1155706717331437e+00 4.2795934371138946e+00 
44 1 2 6.8774415317587634e-01 -1.0528000745847986e+02 1.0000000000000000e+00 6.4108198121763129e+00 4.1155706717331944e+00 4.2795934371139452e+00 
15 1 2 1.0280000000000278e+00 -1.1108355248187473e+02 1.0000000000000000e+00 6.6623634622713048e+00 7.8103578169030889e+00 6.4632741507986173e+00 
3 1 2 1.0279999999999974e+00 -1.2684631382409684e+02 1.0000000000000000e+00 6.2244528859869437e+00 2.6852111830211918e+00 8.2684892850720839e+00 
9 1 2 1.0279999999999960e+00 -1.3419005138187549e+02 1.0000000000000000e+00 6.3097764925420847e+00 2.8154290398238992e+00 8.2004311684775519e+00 
45 1 2 1.0279999999999971e+00 -1.0359029374661367e+02 1.0000000000000000e+00 6.6376194540168276e+00 2.7911762988536588e+00 8.2428641495402033e+00 
10 1 2 6.8774415317587634e-01 -9.6597779275467076e+01 1.0000000000000000e+00 4.2506626709047071e+00 6.0170392075026777e+00 1.0769033279501135e+01 
16 1 2 6.8774415317587634e-01 -9.6256752985578004e+01 1.0000000000000000e+00 4.2506626709047577e+00 6.0170392075026777e+00 1.0769033279501237e+01 
17 1 2 3.4387207658793817e-01 3.4309969445715000e-01 1.0000000000000000e+00 4.7186900281772592e+00 8.1259040271643102e+00 1.3841906263062208e+01 
5 1 2 1.0279999999999747e+00 -1.3197781098722388e+02 1.0000000000000000e+00 5.5230441586416976e+00 8.0580776515271746e-01 1.5029039359009088e+01 
6 1 2 1.0280000000000886e+00 -1.3237155217684560e+02 1.0000000000000000e+00 5.5570887405648381e+00 8.2991015843768812e-01 1.5129608603298598e+01 
41 1 2 1.0279999999999734e+00 -7.7452342711005997e+01 1.0000000000000000e+00 5.6190129808688027e+00 8.5510242663992164e-01 1.5043673337528597e+01 
12 1 2 3.4387207658793817e-01 0.0000000000000000e+00 1.0000000000000000e+00 4.6699999999999999e+00 4.8899999999999997e+00 1.7109999999999999e+01 
18 1 2 3.4387207658793817e-01 9.9299960170346344e-06 1.0000000000000000e+00 5.7800041136913745e+00 7.8699986825609693e+00 1.7659998010528930e+01 
20 1 2 1.0280000000000211e+00 -1.2580999620691347e+02 1.0000000000000000e+00 5.9960444908584201e+00 1.0627633374745921e+01 2.3212818128658794e+00 
19 1 2 1.0280000000000249e+00 -1.3210095887914107e+02 1.0000000000000000e+00 6.0146714993965364e+00 1.0556157483169740e+01 2.2412920429345786e+00 
55 1 2 1.0279999999999572e+00 -8.7935998984517113e+01 1.0000000000000000e+00 6.0882071424100044e+00 1.0633289704534226e+01 2.2635914028300381e+00 
32 1 2 1.0292044668991944e+00 -1.2284161751425586e+02 1.0000000000000000e+00 4.5308870092788407e+00 1.5898944850333761e+01 2.8682019739410718e+00 
26 1 2 1.0292044668991944e+00 -1.2400938970758338e+02 1.0000000000000000e+00 4.5308870092788407e+00 1.5898944850333761e+01 2.8682019739410718e+00 
31 1 2 1.0267927040345743e+00 -7.5158684685116285e+01 1.0000000000000000e+00 4.5610042473035195e+00 1.5970021575674409e+01 2.7688883007021992e+00 
21 1 2 3.4387207658793817e-01 6.9796784281219026e-01 1.0000000000000000e+00 5.4450947502841700e+00 1.0802644153288997e+01 7.5233054492492411e+00 
33 1 2 6.8774415317587634e-01 -8.2053996173807207e+01 1.0000000000000000e+00 4.9701519489550590e+00 1.5115291547228807e+01 6.6625208275579189e+00 
27 1 2 6.8774415317587634e-01 -8.1516797296337614e+01 1.0000000000000000e+00 4.9701519489550590e+00 1.5115291547228706e+01 6.6625208275579189e+00 
22 1 2 6.8774415317587634e-01 -1.0554300851540496e+02 1.0000000000000000e+00 4.9195958402573439e+00 1.2548547954982247e+01 1.0156922616728973e+01 
28 1 2 6.8774415317587634e-01 -1.0543085379618974e+02 1.0000000000000000e+00 4.9195958402573439e+00 1.2548547954982247e+01 1.0156922616728872e+01 
34 1 2 3.4387207658793817e-01 1.1215471921745251e-01 1.0000000000000000e+00 5.1108083194849492e+00 1.6122904090034535e+01 1.1226154766542390e+01 
24 1 2 1.0280000000000411e+00 -1.4630892881528089e+02 1.0000000000000000e+00 5.7383178282657914e+00 1.1191040455098483e+01 1.5673425469250811e+01 
23 1 2 1.0280000000001612e+00 -1.4784613147008164e+02 1.0000000000000000e+00 5.7956103465850566e+00 1.1193345786787527e+01 1.5580870703800860e+01 
60 1 2 1.0280000000000231e+00 -8.4033700132947871e+01 1.0000000000000000e+00 5.8460719799508389e+00 1.1175613741588327e+01 1.5675703872830915e+01 
35 1 2 6.8774415317587634e-01 -7.9897479121099650e+01 1.0000000000000000e+00 4.3338347276764040e+00 1.6804440795207736e+01 1.5376186487154557e+01 
36 1 2 6.8774415317587634e-01 -8.0160097471948248e+01 1.0000000000000000e+00 4.3338347276764546e+00 1.6804440795207938e+01 1.5376186487154557e+01 
25 1 2 1.0280000000002736e+00 -8.8641137841329851e+01 1.0000000000000000e+00 5.9359874465794986e+00 1.4186614612531500e+01 1.8851695620672444e+01 
66 1 2 1.0279999999999005e+00 -1.3642540279803001e+02 1.0000000000000000e+00 6.0097778035062364e+00 1.4213192880174073e+01 1.8776179326197308e+01 
30 1 2 1.0280000000001335e+00 -1.4326108526406711e+02 1.0000000000000000e+00 5.9104065255797016e+00 1.4180459765377439e+01 1.8746045887339641e+01 
73 1 2 3.4387207658793817e-01 0.0000000000000000e+00 1.0000000000000000e+00 1.1859999999999999e+01 3.8000000000000000e-01 0.0000000000000000e+00 
37 1 2 6.8774415317587634e-01 -8.5481795653903291e+01 1.0000000000000000e+00 8.5368100436633778e+00 2.6540509579524736e+00 1.4163238240792793e+00 
43 1 2 6.8774415317587634e-01 -8.5100660078835134e+01 1.0000000000000000e+00 8.5368100436633778e+00 2.6540509579524736e+00 1.4163238240792793e+00 
49 1 2 3.4387207658793817e-01 0.0000000000000000e+00 1.0000000000000000e+00 8.8599999999999994e+00 8.1999999999999993e+00 1.4800000000000000e+00 
85 1 2 6.8774415317587634e-01 -1.0106516685976221e+02 1.0000000000000000e+00 1.3271135073818190e+01 8.2728648088994063e+00 1.6380076527523950e+00 
121 1 2 6.8774415317587634e-01 -1.0237519410473229e+02 1.0000000000000000e+00 1.3271135073818291e+01 8.2728648088994063e+00 1.6380076527524077e+00 
79 1 2 6.8774415317587634e-01 -1.0436229639641365e+02 1.0000000000000000e+00 1.1297557102920667e+01 4.0805799023517491e+00 3.0867125797849595e+00 
80 1 2 6.8774415317587634e-01 -1.0553607209405293e+02 1.0000000000000000e+00 1.1297557102920667e+01 4.0805799023517491e+00 3.0867125797849595e+00 
38 1 2 3.4387207658793817e-01 0.0000000000000000e+00 1.0000000000000000e+00 8.0199999999999996e+00 1.1399999999999999e+00 4.8899999999999997e+00 
50 1 2 1.0280000000000058e+00 -1.2041686982467687e+02 1.0000000000000000e+00 6.9150877955637258e+00 7.7892752486892709e+00 5.2854858316994902e+00 
14 1 2 1.0279999999999800e+00 -1.2663667606725087e+02 1.0000000000000000e+00 6.8839570333995734e+00 7.8022291954533687e+00 5.2795676102964313e+00 
92 1 2 6.8774415317587634e-01 -1.0183093235505575e+02 1.0000000000000000e+00 1.1057379178757682e+01 9.5690163371347374e+00 4.3232168018451809e+00 
86 1 2 6.8774415317587634e-01 -1.0171962963603161e+02 1.0000000000000000e+00 1.1057379178757682e+01 9.5690163371346362e+00 4.3232168018452315e+00 
74 1 2 1.0280000000001390e+00 -1.2696339286593775e+02 1.0000000000000000e+00 1.1470174421084227e+01 2.0297476232481322e+00 6.1690004486110741e+00 
75 1 2 1.0280000000000546e+00 -1.3376202055496972e+02 1.0000000000000000e+00 1.1553321077319559e+01 2.0302360630963046e+00 6.2392893296669767e+00 
81 1 2 1.0279999999999041e+00 -8.5469915254218563e+01 1.0000000000000000e+00 1.1480802084766003e+01 2.1114415102301320e+00 6.2401853726618937e+00 
51 1 2 1.0279999999999880e+00 -1.0790385436509006e+02 1.0000000000000000e+00 6.6924111104001636e+00 7.7949867100407753e+00 6.4690032301240254e+00 
87 1 2 3.4387207658793817e-01 5.0708772012610248e-01 1.0000000000000000e+00 1.1184262931298628e+01 6.5680256858056101e+00 6.7173792277266822e+00 
39 1 2 1.0280000000000034e+00 -1.2217290958565221e+02 1.0000000000000000e+00 7.5069420760838099e+00 1.2133887951135387e+00 9.4624305037408973e+00 
40 1 2 1.0280000000000009e+00 -1.5141024556277620e+02 1.0000000000000000e+00 7.3747312630418378e+00 1.0963404920504625e+00 9.6679863161299711e+00 
4 1 2 1.0279999999999980e+00 -1.0116704740181486e+02 1.0000000000000000e+00 7.1366272734825555e+00 1.1679186982154555e+00 9.6777406113904529e+00 
76 1 2 3.4387207658793817e-01 0.0000000000000000e+00 1.0000000000000000e+00 1.1270000000000000e+01 2.3000000000000001e-01 1.0830000000000000e+01 
52 1 2 3.4387207658793817e-01 0.0000000000000000e+00 1.0000000000000000e+00 7.2400000000000002e+00 7.8799999999999999e+00 1.1210000000000001e+01 
82 1 2 6.8774415317587634e-01 -8.9378652798635684e+01 1.0000000000000000e+00 1.1949467818585813e+01 6.1022729736115515e+00 1.0771195632023845e+01 
88 1 2 6.8774415317587634e-01 -8.4971668604538053e+01 1.0000000000000000e+00 1.1949467818585914e+01 6.1022729736115515e+00 1.0771195632023845e+01 
46 1 2 1.0279999999999236e+00 -1.2957612153360807e+02 1.0000000000000000e+00 7.3066890409552059e+00 4.2539054591817242e+00 1.2657381002771723e+01 
47 1 2 1.0279999999999603e+00 -1.3387477143505600e+02 1.0000000000000000e+00 7.3688459152984453e+00 4.2009551577851143e+00 1.2729401280277612e+01 
11 1 2 1.0280000000000347e+00 -8.4956643258330331e+01 1.0000000000000000e+00 7.2661389013846307e+00 4.2267444443529500e+00 1.2754705702986666e+01 
59 1 2 1.0280000000000400e+00 -1.4343421426766119e+02 1.0000000000000000e+00 9.7711569139063545e+00 8.4794653133020859e+00 1.3559256539548029e+01 
53 1 2 1.0280000000000162e+00 -1.4330628466811544e+02 1.0000000000000000e+00 9.7553736827283597e+00 8.3718461443461347e+00 1.3564066519198498e+01 
89 1 2 1.0279999999999903e+00 -7.6322110040977194e+01 1.0000000000000000e+00 9.8533847123245408e+00 8.4113764247673561e+00 1.3537887771614415e+01 
77 1 2 6.8774415317587634e-01 -1.0415980215860611e+02 1.0000000000000000e+00 1.2701240098948427e+01 1.0802243907273015e+00 1.4310429015120134e+01 
113 1 2 6.8774415317587634e-01 -1.0529208220071740e+02 1.0000000000000000e+00 1.2701240098948427e+01 1.0802243907273015e+00 1.4310429015120134e+01 
83 1 2 6.8774415317587634e-01 -9.8776077872346477e+01 1.0000000000000000e+00 1.0407773762022890e+01 4.2228532621192754e+00 1.4856044413267067e+01 
84 1 2 6.8774415317587634e-01 -1.0019476960604202e+02 1.0000000000000000e+00 1.0407773762022890e+01 4.2228532621192754e+00 1.4856044413267067e+01 
78 1 2 3.4387207658793817e-01 8.4969635147476219e-01 1.0000000000000000e+00 1.0480864205827366e+01 2.6324160369816402e-01 1.6612667585988120e+01 
42 1 2 6.8774415317587634e-01 -1.0505281579317526e+02 1.0000000000000000e+00 8.2851441072458663e+00 3.0440888262777417e+00 1.7380288107696295e+01 
48 1 2 6.8774415317587634e-01 -1.0481546831941097e+02 1.0000000000000000e+00 8.2851441072459675e+00 3.0440888262777417e+00 1.7380288107696295e+01 
54 1 2 3.4387207658793817e-01 1.3623252048829476e-01 1.0000000000000000e+00 8.3838009476228716e+00 7.0568041779601414e+00 1.6344306982787689e+01 
90 1 2 3.4387207658793817e-01 0.0000000000000000e+00 1.0000000000000000e+00 1.1449999999999999e+01 8.0600000000000005e+00 1.7260000000000002e+01 
91 1 2 3.4387207658793817e-01 2.5386536526562714e-01 1.0000000000000000e+00 1.1299811631114075e+01 1.1405873732633387e+01 1.1498063078719651e+00 
61 1 2 1.0279999999999976e+00 -1.4129050202768423e+02 1.0000000000000000e+00 9.9484704808515705e+00 1.4962986050819465e+01 2.7576285673491796e-01 
97 1 2 1.0279999999999918e+00 -8.2899785288708102e+01 1.0000000000000000e+00 1.0172396533815498e+01 1.5050825004354841e+01 3.5107407916261046e-01 
67 1 2 1.0280000000000082e+00 -1.2142866120677846e+02 1.0000000000000000e+00 9.4448882308422544e+00 1.5964235131410483e+01 6.1026651706268087e-01 
103 1 2 1.0279999999999994e+00 -1.3659519957863864e+02 1.0000000000000000e+00 9.6724741210051892e+00 1.6065274515111987e+01 6.4933113939096632e-01 
56 1 2 1.0280000000000151e+00 -8.2593907768721792e+01 1.0000000000000000e+00 7.7216204673493003e+00 1.1940033257359879e+01 5.2669876091651204e+00 
57 1 2 1.0280000000000313e+00 -1.4595309984668822e+02 1.0000000000000000e+00 7.8561344053682403e+00 1.1781465708775638e+01 5.6460848328774169e+00 
62 1 2 1.0279999999999450e+00 -1.1387348510582987e+02 1.0000000000000000e+00 7.8908276139312914e+00 1.2958726466802236e+01 5.6601509396801237e+00 
134 1 2 1.0279999999999876e+00 -8.0544768152640614e+01 1.0000000000000000e+00 1.3122271065840767e+01 1.5152893487216623e+01 4.9587219438312768e+00 
99 1 2 1.0280000000000087e+00 -1.1188119738402075e+02 1.0000000000000000e+00 1.1637929281026173e+01 1.4511833710444751e+01 5.1861647197377945e+00 
98 1 2 1.0279999999999987e+00 -1.4806323919085844e+02 1.0000000000000000e+00 1.2650862926778078e+01 1.4085451556379445e+01 4.6965122305427451e+00 
104 1 2 1.0280000000000042e+00 -1.0690459737560806e+02 1.0000000000000000e+00 1.1639733609937901e+01 1.4501304841975383e+01 5.1878472265209146e+00 
140 1 2 1.0279999999999876e+00 -5.2895054123585538e+01 1.0000000000000000e+00 1.3109203138226876e+01 1.5168516616119605e+01 4.9607538038173580e+00 
68 1 2 3.4387207658793817e-01 0.0000000000000000e+00 1.0000000000000000e+00 8.3499999999999996e+00 1.7660000000000000e+01 4.1900000000000004e+00 
63 1 2 1.0280000000000054e+00 -1.6361424558016796e+02 1.0000000000000000e+00 7.8236429502133165e+00 1.2805866983541559e+01 6.0589899690522069e+00 
105 1 2 3.4387207658793817e-01 0.0000000000000000e+00 1.0000000000000000e+00 1.1720000000000001e+01 1.7340000000000000e+01 7.9800000000000004e+00 
58 1 2 3.4387207658793817e-01 2.6309520562931149e-02 1.0000000000000000e+00 8.8333034838514681e+00 1.0370869958283860e+01 9.8018374605960119e+00 
70 1 2 6.8774415317587634e-01 -9.8243429186467353e+01 1.0000000000000000e+00 8.7520131541291359e+00 1.7203744773205042e+01 9.1489587747536572e+00 
69 1 2 6.8774415317587634e-01 -9.8431071386418495e+01 1.0000000000000000e+00 8.7520131541292372e+00 1.7203744773204839e+01 9.1489587747535559e+00 
64 1 2 6.8774415317587634e-01 -7.8126645520339338e+01 1.0000000000000000e+00 9.9535500319597094e+00 1.3526592598008200e+01 1.0567925041272519e+01 
100 1 2 6.8774415317587634e-01 -7.7483947115975198e+01 1.0000000000000000e+00 9.9535500319598107e+00 1.3526592598008200e+01 1.0567925041272620e+01 
94 1 2 1.0279999999999816e+00 -1.4125868524889108e+02 1.0000000000000000e+00 1.1525203337765459e+01 1.2219476529481257e+01 1.2789049565657145e+01 
95 1 2 1.0280000000003335e+00 -1.4785468579790452e+02 1.0000000000000000e+00 1.1569720896735836e+01 1.2186826526120008e+01 1.2882891432857097e+01 
101 1 2 1.0279999999997367e+00 -8.1725007816542487e+01 1.0000000000000000e+00 1.1533479186972071e+01 1.2288962967068183e+01 1.2872459859572533e+01 
65 1 2 6.8774415317587634e-01 -9.8803652378308129e+01 1.0000000000000000e+00 7.2119789156746430e+00 1.4571081045035093e+01 1.3627811801535310e+01 
29 1 2 6.8774415317587634e-01 -9.8713842989599385e+01 1.0000000000000000e+00 7.2119789156746430e+00 1.4571081045035093e+01 1.3627811801535310e+01 
106 1 2 1.0280000000001692e+00 -1.3241972760466209e+02 1.0000000000000000e+00 1.0148495026613777e+01 1.7383684638934099e+01 1.2863260487529327e+01 
107 1 2 1.0280000000000991e+00 -1.5058573129891352e+02 1.0000000000000000e+00 1.0215170678215300e+01 1.7448228791331058e+01 1.2920203807521652e+01 
71 1 2 1.0280000000000351e+00 -8.8624322776708468e+01 1.0000000000000000e+00 1.0116623364497238e+01 1.7423615802204363e+01 1.2959405332274693e+01 
96 1 2 6.8774415317587634e-01 -1.0485871241814891e+02 1.0000000000000000e+00 1.1574999999999950e+01 1.2650000000000000e+01 1.6850000000000101e+01 
102 1 2 6.8774415317587634e-01 -1.0485871241814891e+02 1.0000000000000000e+00 1.1575000000000051e+01 1.2650000000000000e+01 1.6849999999999898e+01 
72 1 2 3.4387207658793817e-01 1.5560328012444915e+00 1.0000000000000000e+00 7.5224480828046252e+00 1.7107015705171630e+01 1.6679079364233274e+01 
108 1 2 3.4387207658793817e-01 0.0000000000000000e+00 1.0000000000000000e+00 1.1190000000000000e+01 1.7300000000000001e+01 1.6980000000000000e+01 
116 1 2 1.0280000000000018e+00 -1.3555560681977192e+02 1.0000000000000000e+00 1.5287217150560464e+01 3.1341603432567000e-01 1.2243892289855758e+00 
146 1 2 1.0280000000000000e+00 -9.1268510896388236e+01 1.0000000000000000e+00 1.5424107813515311e+01 1.4805622912542279e-01 1.2313053416132966e+00 
110 1 2 1.0280000000000002e+00 -1.4954770648138799e+02 1.0000000000000000e+00 1.5282507680040618e+01 1.5874227542098709e-01 1.2701637845123872e+00 
115 1 2 3.4387207658793817e-01 0.0000000000000000e+00 1.0000000000000000e+00 1.4869999999999999e+01 4.6799999999999997e+00 2.0000000000000000e-02 
157 1 2 3.4387207658793817e-01 0.0000000000000000e+00 1.0000000000000000e+00 1.7399999999999999e+01 7.4699999999999998e+00 1.0000000000000000e-02 
151 1 2 1.0280000000000951e+00 -4.8002370377295051e+01 1.0000000000000000e+00 1.6571075044184180e+01 4.8202008632902231e+00 2.9256375666642063e+00 
152 1 2 1.0280000000003151e+00 -1.4804030514269607e+02 1.0000000000000000e+00 1.6679975362364178e+01 5.0766950108483133e+00 2.7127316187917248e+00 
122 1 2 1.0280000000000629e+00 -1.2338361178623907e+02 1.0000000000000000e+00 1.6004226028397184e+01 5.6488739008924043e+00 3.4859847042604857e+00 
158 1 2 1.0280000000002438e+00 -1.6297554692345651e+02 1.0000000000000000e+00 1.6320220414869770e+01 5.7917119134210147e+00 3.5381605565849044e+00 
163 1 2 3.4387207658793817e-01 7.2739580397612102e-01 1.0000000000000000e+00 1.7983325987353528e+01 9.7938101077137816e+00 2.0043395208792072e+00 
153 1 2 1.0279828268916045e+00 -1.2428235046929187e+02 1.0000000000000000e+00 1.6304818992844318e+01 6.9297429145037954e+00 7.7635980887552902e+00 
147 1 2 1.0280154720125463e+00 -1.0837970580278245e+02 1.0000000000000000e+00 1.6213232084990352e+01 6.9833254378698344e+00 7.6286463288874717e+00 
117 1 2 1.0280043705856168e+00 -1.2965192704705066e+02 1.0000000000000000e+00 1.6271717298931705e+01 7.0376629273082658e+00 7.6553271921264878e+00 
129 1 2 6.8774415317587634e-01 -1.0456584709448191e+02 1.0000000000000000e+00 1.3391023558919578e+01 9.7964288691313381e+00 7.7248269513686285e+00 
93 1 2 6.8774415317587634e-01 -1.0495953245774959e+02 1.0000000000000000e+00 1.3391023558919477e+01 9.7964288691314394e+00 7.7248269513686791e+00 
165 1 2 3.4387207658793817e-01 1.2429556853552355e+00 1.0000000000000000e+00 1.7983486513102498e+01 9.6267356099268930e+00 6.6597418508176291e+00 
160 1 2 1.0279127350118160e+00 -5.4439843785585950e+01 1.0000000000000000e+00 1.5702319294913368e+01 4.7862122717105944e+00 8.8914326007499245e+00 
123 1 2 1.0280527114310463e+00 -1.2802688176796070e+02 1.0000000000000000e+00 1.5691756320108929e+01 4.6720410158693237e+00 9.0232175117658926e+00 
159 1 2 1.0280527114310463e+00 -1.2581995397554296e+02 1.0000000000000000e+00 1.5691756320108929e+01 4.6720410158693237e+00 9.0232175117658926e+00 
111 1 2 1.0280000000000016e+00 -1.7353976255157826e+02 1.0000000000000000e+00 1.5452866676265458e+01 2.0999467429396308e+00 1.1934229316786398e+01 
112 1 2 1.0280000000000100e+00 -1.6294872265328473e+02 1.0000000000000000e+00 1.7095609559800121e+01 2.0177223408298128e+00 1.1862725820198165e+01 
148 1 2 1.0280000000000247e+00 -6.3158924715326677e+01 1.0000000000000000e+00 1.7815156303481256e+01 2.2510956088990888e+00 1.1919605290556836e+01 
124 1 2 1.0280000000000376e+00 -1.2368505057363734e+02 1.0000000000000000e+00 1.4714280060063404e+01 8.4286567452942673e+00 1.1735565894431829e+01 
130 1 2 1.0279999999999461e+00 -1.2826450351169845e+02 1.0000000000000000e+00 1.4732071688508979e+01 8.4765325607360413e+00 1.1739218286562460e+01 
118 1 2 1.0280000000000020e+00 -1.9387854444902996e+02 1.0000000000000000e+00 1.5317089777045295e+01 2.5024467611091099e+00 1.2360979929835125e+01 
119 1 2 1.0279999999999891e+00 -5.5137009660859334e+01 1.0000000000000000e+00 1.5265940791042409e+01 2.3524781812758730e+00 1.2393782570788151e+01 
154 1 2 1.0279999999999856e+00 -1.1363335827813948e+02 1.0000000000000000e+00 1.7711393863676086e+01 3.0783942077624480e+00 1.2550423962380082e+01 
155 1 2 1.0279999999999856e+00 -1.1363335827813951e+02 1.0000000000000000e+00 1.7711393863676086e+01 3.0783942077624480e+00 1.2550423962380082e+01 
125 1 2 1.0279999999999665e+00 -1.3493046777454120e+02 1.0000000000000000e+00 1.5490290088535136e+01 8.0830743715499622e+00 1.2588287422732154e+01 
161 1 2 1.0280000000000395e+00 -1.1754514613607131e+02 1.0000000000000000e+00 1.5527141984011360e+01 8.1101953708889347e+00 1.2565301233186510e+01 
149 1 2 6.8774415317587634e-01 -1.0590653156202677e+02 1.0000000000000000e+00 1.7899999999999899e+01 7.6999999999999680e-01 1.5530000000000635e+01 
150 1 2 6.8774415317587634e-01 -1.0590653156202677e+02 1.0000000000000000e+00 1.7900000000000102e+01 7.6999999999999680e-01 1.5530000000000635e+01 
120 1 2 3.4387207658793817e-01 9.6925521000016280e-04 1.0000000000000000e+00 1.4740018019713006e+01 3.5898989397264964e+00 1.6800044719381333e+01 
156 1 2 3.4387207658793817e-01 0.0000000000000000e+00 1.0000000000000000e+00 1.7600000000000001e+01 4.4000000000000004e+00 1.7600000000000001e+01 
162 1 2 3.4387207658793817e-01 0.0000000000000000e+00 1.0000000000000000e+00 1.8289999999999999e+01 7.2699999999999996e+00 1.6879999999999999e+01 
126 1 2 3.4387207658793817e-01 0.0000000000000000e+00 1.0000000000000000e+00 1.5320000000000000e+01 8.2899999999999991e+00 1.6480000000000000e+01 
145 1 2 1.0280000000000062e+00 -9.3861447058540534e+01 1.0000000000000000e+00 1.6165599763964412e+01 8.6454812002809900e-01 1.8894468905757979e+01 
114 1 2 1.0280000000000145e+00 -1.3643999189077721e+02 1.0000000000000000e+00 1.6103832966330781e+01 8.7021970495965528e-01 1.8826954242028922e+01 
109 1 2 1.0279999999999865e+00 -1.4921640374180282e+02 1.0000000000000000e+00 1.5964332836291597e+01 9.3905508353634826e-01 1.8941299968230840e+01 
127 1 2 6.8774415317587634e-01 -1.0219007631762697e+02 1.0000000000000000e+00 1.4293649672167932e+01 1.1453275982889892e+01 8.4364475515751236e-01 
133 1 2 6.8774415317587634e-01 -1.0075958032321074e+02 1.0000000000000000e+00 1.4293649672167831e+01 1.1453275982889892e+01 8.4364475515751236e-01 
169 1 2 3.4387207658793817e-01 0.0000000000000000e+00 1.0000000000000000e+00 1.7590000000000000e+01 1.4160000000000000e+01 1.6000000000000000e-01 
128 1 2 3.4387207658793817e-01 6.3399685466454470e-02 1.0000000000000000e+00 1.4368855299809349e+01 1.0068410449661192e+01 4.2166671820876145e+00 
164 1 2 1.0280000000000409e+00 -9.4010966422034841e+01 1.0000000000000000e+00 1.8418907378409596e+01 1.2835252772321784e+01 4.9376190957979045e+00 
170 1 2 1.0279999999999327e+00 -1.3697136389285438e+02 1.0000000000000000e+00 1.8427042553560891e+01 1.2942250411972152e+01 4.9191947680654922e+00 
171 1 2 1.0280000000000467e+00 -1.1998980330600546e+02 1.0000000000000000e+00 1.8439232081790859e+01 1.2903310821462094e+01 5.0201366102831031e+00 
176 1 2 6.8774415317587634e-01 -6.8052099501911172e+01 1.0000000000000000e+00 1.7660745932828089e+01 1.6712687026493079e+01 5.7893563714410829e+00 
177 1 2 6.8774415317587634e-01 -6.8309080170859659e+01 1.0000000000000000e+00 1.7660745932828089e+01 1.6712687026493281e+01 5.7893563714410829e+00 
141 1 2 3.4387207658793817e-01 0.0000000000000000e+00 1.0000000000000000e+00 1.4670000000000000e+01 1.7989999999999998e+01 6.7300000000000004e+00 
135 1 2 1.0279999999997851e+00 -9.8706065202756861e+01 1.0000000000000000e+00 1.6151270429914227e+01 1.3860333958284700e+01 9.9832493546525978e+00 
166 1 2 3.4387207658793817e-01 1.2145110819773648e-01 1.0000000000000000e+00 1.7193676431019249e+01 1.0507898063436183e+01 1.0023767475226183e+01 
136 1 2 1.0279999999999594e+00 -1.3909170067017496e+02 1.0000000000000000e+00 1.6116306781607371e+01 1.3860864452192500e+01 1.0086358004592318e+01 
172 1 2 1.0280000000001888e+00 -1.1398875576451265e+02 1.0000000000000000e+00 1.6219125520712680e+01 1.3832984041975140e+01 1.0063883097888228e+01 
142 1 2 6.8774415317587634e-01 -8.6966649442325249e+01 1.0000000000000000e+00 1.6423187376487231e+01 1.7899055718958017e+01 1.0620545757260714e+01 
178 1 2 6.8774415317587634e-01 -8.6516798426274576e+01 1.0000000000000000e+00 1.6423187376487434e+01 1.7899055718957815e+01 1.0620545757260816e+01 
167 1 2 3.4387207658793817e-01 2.1522825335827575e-01 1.0000000000000000e+00 1.8052899542667454e+01 1.1039964757600618e+01 1.3472616150710852e+01 
137 1 2 1.0280000000000218e+00 -1.2024876284696929e+02 1.0000000000000000e+00 1.5698834176042295e+01 1.4974959970308289e+01 1.3736839967435690e+01 
143 1 2 1.0280000000000071e+00 -1.3148689005185503e+02 1.0000000000000000e+00 1.5706542666787763e+01 1.4993316851391636e+01 1.3730878937973365e+01 
179 1 2 3.4387207658793817e-01 4.5543963437049190e-01 1.0000000000000000e+00 1.8673608071068728e+01 1.7432003923510237e+01 1.3238893604491167e+01 
131 1 2 6.8774415317587634e-01 -8.9602176873323899e+01 1.0000000000000000e+00 1.5188346658888268e+01 1.1351877620014294e+01 1.5384532308195830e+01 
132 1 2 6.8774415317587634e-01 -8.9686450071018157e+01 1.0000000000000000e+00 1.5188346658888268e+01 1.1351877620014294e+01 1.5384532308195931e+01 
173 1 2 1.0280000000000153e+00 -1.3035797430079066e+02 1.0000000000000000e+00 1.6589720047559652e+01 1.4878499249795683e+01 1.4542221554258363e+01 
174 1 2 1.0279999999999401e+00 -9.3753430762310174e+01 1.0000000000000000e+00 1.6575798605712553e+01 1.4880614665877006e+01 1.4557507111391601e+01 
168 1 2 3.4387207658793817e-01 0.0000000000000000e+00 1.0000000000000000e+00 1.7570000000000000e+01 1.0350000000000000e+01 1.7280000000000001e+01 
138 1 2 3.4387207658793817e-01 1.2829947725760130e-01 1.0000000000000000e+00 1.4780290878282369e+01 1.4165886193404825e+01 1.7408271833247099e+01 
139 1 2 1.0279999999999674e+00 -4.9236525400770887e+01 1.0000000000000000e+00 1.5304446333888645e+01 1.6978127365048373e+01 1.9195011017443893e+01 
175 1 2 1.0279999999999752e+00 -1.1801062013763718e+02 1.0000000000000000e+00 1.5319437103732890e+01 1.6981170235880722e+01 1.9210691133832263e+01 
144 1 2 1.0279999999999792e+00 -1.3555149679128098e+02 1.0000000000000000e+00 1.6161942979800152e+01 1.7160891244274143e+01 1.8368566661653560e+01 
180 1 2 1.0280000000000189e+00 -1.3526318418299675e+02 1.0000000000000000e+00 1.6146575355752830e+01 1.7168237976585086e+01 1.8354793138186910e+01 

Velocities

1 -3.5569035352918110e-12 1.7784517676459055e-12 -4.4461294191147638e-13
7 3.5569035352918110e-12 -1.7784517676459055e-12 4.4461294191147638e-13
13 4.9406564584124654e-324 4.9406564584124654e-324 4.9406564584124654e-324
2 0.0000000000000000e+00 0.0000000000000000e+00 0.0000000000000000e+00
8 3.5569035352918126e-12 3.5569035352918126e-12 3.5569035352918126e-12
44 -3.5569035352918126e-12 -3.5569035352918126e-12 -3.5569035352918126e-12
15 -8.8168773939157905e-13 1.2964441502805307e-13 3.4624677843086724e-12
3 7.7677319245767190e-12 2.2211685064100547e-12 -5.2620956657002098e-12
9 7.4708664194403410e-12 2.2202769791449214e-12 -5.3170540133684364e-12
45 7.3827244161297267e-12 2.2202791193278458e-12 -5.3227693760055867e-12
10 3.5569035352918134e-12 2.9643938750474793e-323 7.1138070705836269e-12
16 -3.5569035352918134e-12 -2.9643938750474793e-323 -7.1138070705836269e-12
17 -4.9406564584124654e-324 -4.9406564584124654e-324 -4.9406564584124654e-324
5 4.8550990471052193e-13 1.7718528156801573e-13 -9.5960385660422139e-13
6 -2.8899118794665809e-13 -6.8627970147826593e-15 2.0044798981614100e-12
41 -1.9654236815736911e-13 -1.7172851523067380e-13 -1.0430723706269117e-12
12 0.0000000000000000e+00 0.0000000000000000e+00 0.0000000000000000e+00
18 4.9406564584124654e-324 -4.9406564584124654e-324 -4.9406564584124654e-324
20 1.9779373741861070e-13 5.8357630106156606e-13 4.1401248821398444e-13
19 3.7235118678980734e-13 -3.2535293676575710e-13 -5.6057908139289545e-13
55 -5.7071580567974926e-13 -2.5814936920512539e-13 1.4744087260352097e-13
32 1.8793994290643609e-13 4.4353853735033172e-13 -6.1974494683235867e-13
26 1.8793994290643609e-13 4.4353853735033172e-13 -6.1974494683235867e-13
31 -3.7587988581287219e-13 -8.8707707470066343e-13 1.2394898936647173e-12
21 4.9406564584124654e-324 4.9406564584124654e-324 -4.9406564584124654e-324
33 -2.9643938750474793e-323 -7.1138070705836269e-12 -2.9643938750474793e-323
27 2.9643938750474793e-323 7.1138070705836269e-12 2.9643938750474793e-323
22 2.9643938750474793e-323 2.9643938750474793e-323 -7.1138070705836269e-12
28 -2.9643938750474793e-323 -2.9643938750474793e-323 7.1138070705836269e-12
34 4.9406564584124654e-324 -4.9406564584124654e-324 -4.9406564584124654e-324
24 -3.1717257273038642e-12 8.9227905167593746e-14 3.1896823346290576e-12
23 3.9369518549601247e-13 6.3962504668023213e-13 -6.2014730838506371e-12
60 2.7801814789750463e-12 -7.3038609118059117e-13 3.0255527610998552e-12
35 3.5569035352918167e-12 1.4227614141167267e-11 2.9643938750474793e-323
36 -3.5569035352918167e-12 -1.4227614141167267e-11 -2.9643938750474793e-323
25 -4.1707170236277809e-13 -3.6386237815108379e-13 9.6237072793568944e-12
66 2.7793269279070603e-12 9.8310982741491799e-13 -2.0799639415696016e-12
30 -2.3665572690746642e-12 -6.2116423588831610e-13 -7.5530410907979793e-12
73 0.0000000000000000e+00 0.0000000000000000e+00 0.0000000000000000e+00
37 2.9643938750474793e-323 2.9643938750474793e-323 2.9643938750474793e-323
43 -2.9643938750474793e-323 -2.9643938750474793e-323 -2.9643938750474793e-323
49 0.0000000000000000e+00 0.0000000000000000e+00 0.0000000000000000e+00
85 7.1138070705836269e-12 2.9643938750474793e-323 8.8922588382295336e-13