LAMMPS data file via write_data, version 30 Jul 2016, timestep = 50400000

4620 atoms
8 atom types

0.0000000000000000e+00 1.0000000000000000e+02 xlo xhi
0.0000000000000000e+00 4.0000000000000000e+01 ylo yhi
0.0000000000000000e+00 4.0000000000000000e+01 zlo zhi

Masses

1 3.896
2 5.36
3 20.064
4 8.378
5 8.378
6 8.378
7 8.378
8 8.378

Atoms # meso-molecular

1886 1887 2 1.0279999999860443e+00 -1.0752535940311175e+03 1.0000000000000000e+00 5.8601457054363735e+00 6.3930223907419836e-01 1.4809450607383134e+00 
1428 1429 2 1.0280000000729963e+00 1.6445776032855690e+02 1.0000000000000000e+00 7.1641314821682078e+00 1.4704645096243083e+00 1.6469315451882784e+00 
3742 3743 2 1.0280000021559905e+00 -7.9460732853318791e+02 1.0000000000000000e+00 1.5033576902539558e+01 7.3514232015257375e-01 2.6747220097614283e-01 
4448 4449 2 1.0279999995048990e+00 2.1647186195552720e+02 1.0000000000000000e+00 2.6840319438279437e+01 1.0752182631709637e+00 3.2311622865265888e-01 
4415 4416 2 1.0280000015497197e+00 1.1446000594918458e+02 1.0000000000000000e+00 2.6720318842864831e+01 1.6520018110756731e+00 1.3338501397086733e+00 
672 673 2 1.0280000023423652e+00 -3.4782472885600292e+01 1.0000000000000000e+00 2.8735281225445569e+01 4.9368690621297656e-01 2.6173918944815988e-01 
4407 4408 2 1.0279999999530789e+00 3.0952654228329568e+01 1.0000000000000000e+00 3.0549369957903394e+01 1.8467238092210052e-02 4.2032859823093882e-01 
1354 1355 2 1.0279999403342146e+00 -2.8891545914218125e+02 1.0000000000000000e+00 1.4123657417392412e+01 2.4100182724181414e+00 1.1313713958944882e+00 
427 428 2 1.0280000628913748e+00 1.1347473348157746e+03 1.0000000000000000e+00 1.5106646337537866e+01 3.0144002907160141e+00 1.1684104159385602e+00 
3197 3198 2 1.0280000205914834e+00 -6.6638971136228065e+01 1.0000000000000000e+00 1.8172788447626601e+01 3.1292601036031118e+00 7.5873987396371434e-01 
3006 3007 2 1.0279999906897022e+00 5.4312933928909124e+03 1.0000000000000000e+00 1.6863444194781536e+01 2.1571895907824903e+00 4.2111618862947880e-01 
921 922 2 1.0280000127694842e+00 -5.2193357241485876e+02 1.0000000000000000e+00 2.2543071837318003e+01 2.2572773266576696e+00 1.4095290660439403e+00 
2064 2065 2 1.0279999920910756e+00 1.2877198742180335e+03 1.0000000000000000e+00 2.4266392965868466e+01 3.0689259664563346e+00 1.4940347586121590e+00 
2417 2418 2 1.0279999995220372e+00 -1.0897708187763492e+03 1.0000000000000000e+00 2.8617314488326919e+01 2.6261793756455303e+00 2.5343389796435950e-01 
1220 1221 2 1.0279999999999994e+00 -1.6269223476079782e+02 1.0000000000000000e+00 2.2954553904375845e+00 3.7245133220598148e+00 2.1477861189973518e-01 
1262 1263 2 1.0279999999999994e+00 2.1685600925523346e+02 1.0000000000000000e+00 2.5804333332169436e+00 4.6465136997114440e+00 8.2802888152726717e-01 
4488 4489 2 1.0279999821622385e+00 1.8599742615305547e+02 1.0000000000000000e+00 1.9086998146274794e+01 4.5415519473790749e+00 1.5607261113856743e+00 
4292 4293 2 1.0280000007942058e+00 -9.3399230966737105e+02 1.0000000000000000e+00 2.1436818045102317e+01 3.8661298942678299e+00 5.7489272832849658e-01 
2334 2335 2 1.0280000009914410e+00 -4.7137822278605609e+02 1.0000000000000000e+00 2.8759993391318424e+01 3.6059841181025774e+00 9.5946604326809537e-01 
4447 4448 2 1.0280000124042370e+00 -3.6660549431324807e+02 1.0000000000000000e+00 1.8907060083680605e+01 5.8153810525466056e+00 7.9124403979092794e-01 
176 177 2 1.0280000033091223e+00 2.5631217331922549e+03 1.0000000000000000e+00 2.2364974168091940e+01 5.5610446869368069e+00 8.2684410032949096e-01 
595 596 2 1.0279999968540314e+00 -1.1783444848541487e+03 1.0000000000000000e+00 2.1888118272039218e+01 6.6411186936276989e+00 1.6040226631152241e+00 
3118 3119 2 1.0279999986217245e+00 -6.7040161797155562e+01 1.0000000000000000e+00 2.3798173819500615e+01 6.1808793090582936e+00 6.2600962994369536e-01 
139 140 2 1.0279999977393057e+00 -9.9102862719772577e+02 1.0000000000000000e+00 2.5836627001007642e+01 6.0490375749318623e+00 1.6589690197725289e+00 
12 13 2 1.0280000026169451e+00 2.6065714988658992e+03 1.0000000000000000e+00 3.0076222896509279e+01 6.5464883862566436e+00 2.1913025171550138e-01 
4366 4367 2 1.0280000021681934e+00 -3.2338309305524729e+02 1.0000000000000000e+00 2.2927268628581810e+01 7.7606692693232358e+00 1.5256574547617596e+00 
4423 4424 2 1.0279999995470408e+00 3.1980899937784494e+02 1.0000000000000000e+00 2.4871828348603291e+01 7.0172145497954368e+00 1.5158909824355762e+00 
1057 1058 2 1.0280000020228321e+00 5.2907371378022253e+02 1.0000000000000000e+00 2.6843129600209409e+01 7.6125027394781251e+00 1.1461564233347215e+00 
775 776 2 1.0279999986288071e+00 -1.5972145633281484e+03 1.0000000000000000e+00 2.8163882728047167e+01 6.7288398142151511e+00 1.3395772577993836e+00 
470 471 2 1.0279999976169212e+00 -4.1878788692536136e+02 1.0000000000000000e+00 3.0229396729439369e+01 7.5311512219213128e+00 8.0895985655167080e-01 
509 510 2 1.0279999999999987e+00 -2.3592435435025948e+02 1.0000000000000000e+00 1.7856802282170321e+01 8.5012212093259087e+00 5.8738641096099353e-01 
3498 3499 2 1.0280000006369201e+00 -7.2672048774536461e+02 1.0000000000000000e+00 2.5909611306085544e+01 9.1502765850671235e+00 6.6030985174412204e-01 
4088 4089 2 1.0279999988012856e+00 5.0332613821518424e+02 1.0000000000000000e+00 2.4791453192135673e+01 1.0129410063266626e+01 1.1103429409498962e+00 
4074 4075 2 1.0279999984964443e+00 -1.4038638002222970e+03 1.0000000000000000e+00 2.9768107790678883e+01 1.1351322165944497e+01 8.4783137396998012e-02 
3154 3155 2 1.0279999999273113e+00 -6.4729647720950561e+02 1.0000000000000000e+00 3.2698078938550729e+01 1.0971320673738202e+01 6.2376167072191846e-01 
1614 1615 2 1.0280000004543821e+00 3.0904953858394565e+03 1.0000000000000000e+00 2.3981937370034874e+01 1.1758145120466361e+01 1.3313248517443221e+00 
3869 3870 2 1.0280000009809995e+00 1.0111993317614001e+03 1.0000000000000000e+00 2.6159168719566559e+01 1.2782101878461502e+01 3.8528029004352515e-01 
3446 3447 2 1.0280000014663730e+00 -1.4249187526917794e+01 1.0000000000000000e+00 3.0537966056117980e+01 1.2544808173704194e+01 3.6120518403807084e-03 
3613 3614 2 1.0279999986810504e+00 -6.8551514644451771e+01 1.0000000000000000e+00 3.0044537522572362e+01 1.2900805459151176e+01 1.6624504939791342e+00 
345 346 2 1.0280000007298047e+00 -3.6061693680412054e+03 1.0000000000000000e+00 3.2423250618168844e+01 1.2854357634065618e+01 1.1513178608016525e+00 
84 85 2 1.0279999973181864e+00 -9.3285952867197324e+01 1.0000000000000000e+00 2.2584645775978462e+01 1.4659989801620965e+01 1.6144302268064306e-01 
1099 1100 2 1.0280000001830305e+00 -3.5388314457630509e+02 1.0000000000000000e+00 3.1412319582390321e+01 1.4074630316800871e+01 9.8447932220842560e-01 
424 425 2 1.0280000000000007e+00 9.3379445433862060e+01 1.0000000000000000e+00 1.3726652161257078e+00 1.5260416071517012e+01 1.6375715457747710e+00 
3578 3579 2 1.0279999994375213e+00 1.1170012364090931e+03 1.0000000000000000e+00 2.3403062121652454e+01 1.5900888824265268e+01 1.6145225461287993e+00 
1350 1351 2 1.0279999994886950e+00 -5.8724868771725642e+02 1.0000000000000000e+00 2.9676153560670343e+01 1.6337460001008459e+01 6.9142364707105031e-01 
4421 4422 2 1.0279999999881548e+00 9.0129128961553943e+02 1.0000000000000000e+00 2.8593810448978331e+01 1.5258080521452870e+01 1.3721615143596639e+00 
803 804 2 1.0280000002568186e+00 3.6001795008260046e+01 1.0000000000000000e+00 3.2493251494595647e+01 1.6540563457667211e+01 4.0875866015785844e-01 
3579 3580 2 1.0279999996777669e+00 -2.0112259432863982e+02 1.0000000000000000e+00 2.5771779657117250e+01 1.8069180222906855e+01 4.6255514698423716e-01 
2990 2991 2 1.0280000003499565e+00 1.7883156859147689e+03 1.0000000000000000e+00 2.7095052185125517e+01 1.8160560598931351e+01 1.4663645386861006e+00 
1808 1809 2 1.0280000001120757e+00 3.7190506806500771e+01 1.0000000000000000e+00 3.0632170534520252e+01 1.6908579778935444e+01 2.0119916704833107e-02 
2980 2981 2 1.0280000005140142e+00 -5.9048608925687131e+02 1.0000000000000000e+00 2.5587056214522320e+01 1.9241664758904065e+01 1.0332397073826212e+00 
2286 2287 2 1.0280000001525547e+00 -9.9831091250535019e+02 1.0000000000000000e+00 3.0653685127399321e+01 1.8419962494736691e+01 1.3867323083597853e+00 
1817 1818 2 1.0280000002180791e+00 -5.6710668154345694e+02 1.0000000000000000e+00 3.2158389914141218e+01 1.8397270515346214e+01 1.2857018592516616e+00 
2354 2355 2 1.0280000000506087e+00 2.9877460953869195e+02 1.0000000000000000e+00 2.9918224404982978e+00 1.0193217508406951e+00 2.8135203787181808e+00 
1723 1724 2 1.0279999998902636e+00 5.7599136529883094e+02 1.0000000000000000e+00 6.3965836550517263e+00 5.5517931673810095e-01 2.7203803451856565e+00 
1383 1384 2 1.0279999893444327e+00 -6.0017465804786070e+02 1.0000000000000000e+00 2.3042405647067849e+01 1.4448050792543141e+00 2.1294937493626493e+00 
2311 2312 2 1.0280000000125535e+00 -3.7521540444502659e+02 1.0000000000000000e+00 2.9429349191405493e+01 9.4675038585834159e-01 2.6838834818312383e+00 
1892 1893 2 1.0280000000062954e+00 2.6716189900495510e+02 1.0000000000000000e+00 3.0638518364454397e+00 2.2569217243175346e+00 3.1913242073130781e+00 
1600 1601 2 1.0279999999801783e+00 4.7717348215875961e+02 1.0000000000000000e+00 6.5460958631236990e+00 2.9826210785409883e+00 1.9308889641786064e+00 
743 744 2 1.0279999998957421e+00 1.4466292224005265e+03 1.0000000000000000e+00 8.1992397683448779e+00 2.5618860894154252e+00 2.8018595087143239e+00 
2063 2064 2 1.0280000086536281e+00 -2.1199577511538009e+03 1.0000000000000000e+00 2.4789949681886892e+01 2.2238757522433370e+00 2.1556804886092977e+00 
1620 1621 2 1.0280000004606498e+00 5.3351307411048929e+03 1.0000000000000000e+00 2.7974254663903970e+01 3.2401131053362593e+00 2.9209979954630381e+00 
2773 2774 2 1.0279999990743940e+00 1.1193423179313154e+02 1.0000000000000000e+00 2.8580321814387570e+01 2.0454884329157101e+00 1.9903867502362411e+00 
300 301 2 1.0280000029889336e+00 -8.7807331454881194e+01 1.0000000000000000e+00 3.1299373416418113e+01 2.5876978291177677e+00 2.2551633096424140e+00 
10 11 2 1.0279999970320832e+00 8.5309880593675393e+02 1.0000000000000000e+00 3.2296645582877083e+01 2.1084236505738265e+00 1.9635909632392470e+00 
1637 1638 2 1.0279999999020635e+00 1.0819612859447059e+03 1.0000000000000000e+00 6.2828521222207412e+00 4.3021604257047636e+00 2.4592777963700430e+00 
1176 1177 2 1.0280000001109439e+00 -7.3760872661642225e+02 1.0000000000000000e+00 7.8160058108182850e+00 4.4024749858932237e+00 2.0328688647723165e+00 
2099 2100 2 1.0279999999560567e+00 2.4056620143788186e+03 1.0000000000000000e+00 9.2229803446138874e+00 4.8185509636815471e+00 2.3825527592454447e+00 
1582 1583 2 1.0280009443397879e+00 1.5202083757091850e+03 1.0000000000000000e+00 2.0713217648106674e+01 3.4363810216346851e+00 3.0215835287054338e+00 
4086 4087 2 1.0279999967835123e+00 9.3896446099043271e+02 1.0000000000000000e+00 2.6793728564937375e+01 4.9781051644073173e+00 2.9090778631031995e+00 
2428 2429 2 1.0279999456331113e+00 -2.1597994634300926e+03 1.0000000000000000e+00 1.6611748037166244e+01 6.5216056921355783e+00 2.2529007214547656e+00 
2405 2406 2 1.0280000179139750e+00 -1.0708707125353710e+03 1.0000000000000000e+00 1.7806717866211532e+01 5.2169137278768645e+00 1.8096093393419466e+00 
2329 2330 2 1.0280000699646699e+00 -5.0843365918792080e+02 1.0000000000000000e+00 1.6819418892335371e+01 5.8387266428308804e+00 3.2353385657507716e+00 
1316 1317 2 1.0280000019839988e+00 1.1338391850217940e+03 1.0000000000000000e+00 2.7669963709769821e+01 5.1169537606411017e+00 1.8338450100887318e+00 
3673 3674 2 1.0280000003777650e+00 -2.1794238532331931e+02 1.0000000000000000e+00 2.8759396929988611e+01 5.3181893746796831e+00 3.2952759700360073e+00 
1779 1780 2 1.0280000007958194e+00 2.0369587932772974e+03 1.0000000000000000e+00 3.0241868033225099e+01 5.6577116569644073e+00 2.6330764465891314e+00 
1145 1146 2 1.0280000004872374e+00 1.5034965003231323e+03 1.0000000000000000e+00 2.7183089714483117e+01 6.7021268983363491e+00 2.7762573913640711e+00 
771 772 2 1.0279999991761231e+00 -1.3623988315310921e+03 1.0000000000000000e+00 2.8561917203110131e+01 7.3810464939338223e+00 2.7459263475595801e+00 
3074 3075 2 1.0280000000000000e+00 -2.7743644205663204e+03 1.0000000000000000e+00 4.8996669297337778e+00 9.4974929826925862e+00 2.7986161166251913e+00 
2594 2595 2 1.0280000019119864e+00 4.6382306766365849e+02 1.0000000000000000e+00 2.1055510120458244e+01 8.4034170687145213e+00 2.3317816918134566e+00 
2600 2601 2 1.0279999996144165e+00 8.6203767541675711e+02 1.0000000000000000e+00 2.0821656235234357e+01 9.6196906203770105e+00 2.3678615844283750e+00 
4232 4233 2 1.0279999958344099e+00 3.6443428307320858e+02 1.0000000000000000e+00 2.2918522085886600e+01 8.4818303487524531e+00 2.7588389077741278e+00 
1447 1448 2 1.0280000031399976e+00 2.5583111761878008e+03 1.0000000000000000e+00 2.4210238047966232e+01 9.2848867957270471e+00 2.4367805302731695e+00 
1139 1140 2 1.0280000000000000e+00 -1.2048190047103885e+03 1.0000000000000000e+00 1.6972314393265776e+01 1.1059009855889508e+01 2.5288015243951181e+00 
302 303 2 1.0280000000000000e+00 -8.9667132594668283e+02 1.0000000000000000e+00 1.8107043794335254e+01 1.1170311848069240e+01 2.4429291170452152e+00 
1613 1614 2 1.0279999995682785e+00 1.5709517716483642e+03 1.0000000000000000e+00 2.3238424644278201e+01 1.0357276717513859e+01 1.8001658600944095e+00 
1214 1215 2 1.0280000007495445e+00 2.5496894073263260e+02 1.0000000000000000e+00 2.1743722932581797e+01 1.1117770845087916e+01 2.3972555331573573e+00 
515 516 2 1.0280000000112228e+00 5.9542398040061357e+02 1.0000000000000000e+00 2.4678058014819221e+01 1.1267501719964024e+01 2.9183340980734354e+00 
2616 2617 2 1.0279999997188130e+00 -1.1986968902897672e+02 1.0000000000000000e+00 2.5848867228018090e+01 1.0331563301645842e+01 2.8822460815040696e+00 
353 354 2 1.0279999988983679e+00 5.8972074318085515e+02 1.0000000000000000e+00 3.1112320379455763e+01 1.1082722421746899e+01 1.7465017381584487e+00 
818 819 2 1.0279999997792280e+00 1.0943688951270833e+03 1.0000000000000000e+00 3.1233192507344622e+01 1.0243977299905637e+01 2.9083250842952562e+00 
1468 1469 2 1.0280000000000000e+00 -1.5475117238702353e+02 1.0000000000000000e+00 5.1651957185363813e+00 1.2907164914349547e+01 3.0040873346040766e+00 
245 246 2 1.0279999994389204e+00 -4.4953514931810969e+03 1.0000000000000000e+00 2.1092210520257840e+01 1.2341242770076571e+01 2.7800455564202604e+00 
2619 2620 2 1.0279999996657809e+00 1.7049003668153409e+02 1.0000000000000000e+00 2.2918482821053797e+01 1.2898090373577864e+01 1.6685890160369496e+00 
977 978 2 1.0280000004648824e+00 -6.5587391991237473e+02 1.0000000000000000e+00 2.3202306032430151e+01 1.2000629313187485e+01 3.1628104341640699e+00 
4426 4427 2 1.0279999998536034e+00 1.1394561331534032e+03 1.0000000000000000e+00 2.4189788411770916e+01 1.2999811620921694e+01 2.6293301987364832e+00 
3299 3300 2 1.0279999998945721e+00 -2.5767046985574393e+02 1.0000000000000000e+00 2.8159504241012648e+01 1.2666456760104008e+01 3.2951438226883436e+00 
3571 3572 2 1.0280000009873218e+00 -1.0517838364223217e+03 1.0000000000000000e+00 2.9644354623002172e+01 1.1676633509016314e+01 2.1333632859321643e+00 
1804 1805 2 1.0280000000000000e+00 -1.2942360076833288e+02 1.0000000000000000e+00 5.6843400135803748e+00 1.3700232334380917e+01 2.3646295285943273e+00 
4470 4471 2 1.0280000004076759e+00 -1.5187741862054581e+03 1.0000000000000000e+00 2.1554759719691770e+01 1.4046670819673922e+01 2.1106903733039255e+00 
3968 3969 2 1.0280000005504357e+00 1.0444027211431408e+03 1.0000000000000000e+00 2.2562663055588459e+01 1.4507631957022209e+01 2.7058013502495140e+00 
776 777 2 1.0280000003845502e+00 -1.2835241129545252e+03 1.0000000000000000e+00 2.6667320956825208e+01 1.4501461913201434e+01 2.6095469908454745e+00 
263 264 2 1.0279999995761844e+00 8.7906797149402382e+02 1.0000000000000000e+00 2.8327217094591621e+01 1.3895784932404704e+01 1.8655623790872022e+00 
1767 1768 2 1.0280000000000007e+00 -1.0068640375468689e+02 1.0000000000000000e+00 2.3531932474456654e+00 1.5757517236649209e+01 1.9519411194913741e+00 
3620 3621 2 1.0280000004973908e+00 -5.3768479257854938e+02 1.0000000000000000e+00 2.3274856388827338e+01 1.6267244533182758e+01 2.7570772319556385e+00 
2243 2244 2 1.0279999998796945e+00 -2.5471465961214648e+02 1.0000000000000000e+00 2.5748110950205490e+01 1.5337010565680393e+01 2.9232359465894535e+00 
569 570 2 1.0280000001232326e+00 7.6910569329503232e+02 1.0000000000000000e+00 2.6568223128265647e+01 1.6568047100921454e+01 2.0783777054354386e+00 
2193 2194 2 1.0279999999385439e+00 -2.2411230976782167e+03 1.0000000000000000e+00 2.9895919224411649e+01 1.5913411401691615e+01 3.1889090736847994e+00 
2751 2752 2 1.0279999998237404e+00 1.0558233386201096e+03 1.0000000000000000e+00 3.0019993852632950e+01 1.5019188471227416e+01 2.1827965507662728e+00 
1272 1273 2 1.0279999995378550e+00 -2.9784656419140174e+02 1.0000000000000000e+00 3.2531922807395134e+01 1.5017660869437233e+01 2.2225532190450004e+00 
1011 1012 2 1.0279999987801727e+00 1.2584143773842769e+02 1.0000000000000000e+00 2.1884671945105154e+01 1.7977733641742287e+01 3.2922297887150886e+00 
3997 3998 2 1.0280000011397803e+00 -1.2431599684252478e+03 1.0000000000000000e+00 2.5028081918384455e+01 1.7036455627107504e+01 2.0384384180732544e+00 
4418 4419 2 1.0279999987169410e+00 2.5820890692137928e+03 1.0000000000000000e+00 2.5328177769613749e+01 1.8326172954369078e+01 2.4905736085496271e+00 
639 640 2 1.0280000005228471e+00 1.1390934531832261e+03 1.0000000000000000e+00 2.8098660531639336e+01 1.6931479482821775e+01 2.3895655403043108e+00 
3454 3455 2 1.0279999992233850e+00 4.3616840313706671e+03 1.0000000000000000e+00 2.7614552169441232e+01 1.7971406306505489e+01 3.2970290336712114e+00 
2174 2175 2 1.0279999998838811e+00 1.2203025401926730e+02 1.0000000000000000e+00 3.1022669136537765e+01 1.7564343335568495e+01 2.9756361891877381e+00 
2284 2285 2 1.0279999992597191e+00 -4.3112959165438417e+02 1.0000000000000000e+00 3.2418096387605338e+01 1.7005430598120014e+01 1.8486089957699281e+00 
1153 1154 2 1.0280242421311503e+00 3.0228292699662829e+03 1.0000000000000000e+00 1.5115132786151785e+01 1.9677673357093632e+01 2.8623416993543263e+00 
589 590 2 1.0280000000000000e+00 -4.2786013088988852e+01 1.0000000000000000e+00 1.8634639503887886e+01 1.9034091009104550e+01 2.7006854666858935e+00 
4389 4390 2 1.0280000000893845e+00 3.1577504843543993e+03 1.0000000000000000e+00 2.7235108568412759e+01 1.9631182253686880e+01 2.0908308399100006e+00 
89 90 2 1.0280000001187011e+00 -1.5520848846752037e+03 1.0000000000000000e+00 2.9888404051877398e+01 1.9308009852636324e+01 2.3134996259092091e+00 
1263 1264 2 1.0280000000432923e+00 9.8122507518816775e+01 1.0000000000000000e+00 4.6639775606380915e+00 9.3037330348243352e-01 3.5534761529679701e+00 
2230 2231 2 1.0279999999536689e+00 1.4025290556373338e+03 1.0000000000000000e+00 3.6996565407386508e+00 8.5520171692906710e-01 4.4392326625266740e+00 
3956 3957 2 1.0279999952511756e+00 -6.2511231484369148e+02 1.0000000000000000e+00 2.4600059156798125e+01 4.8929279763124806e-01 3.4812732287454300e+00 
4540 4541 2 1.0280000042723221e+00 7.2549031013860861e+02 1.0000000000000000e+00 2.5667720714253061e+01 1.4307760045711751e-01 3.7457795475680227e+00 
3823 3824 2 1.0280000001807972e+00 -1.0591683420453379e+01 1.0000000000000000e+00 2.8292589573434579e+01 2.6840911144428969e-01 3.8547080965449134e+00 
976 977 2 1.0279999996480038e+00 -1.2794063459499912e+03 1.0000000000000000e+00 3.0123832651725891e+01 1.5943844079872860e+00 3.9617824482096688e+00 
4285 4286 2 1.0279999998073321e+00 -1.4095691360988837e+02 1.0000000000000000e+00 3.1989439412504563e+01 1.1225345705261554e+00 4.0429852742295047e+00 
713 714 2 1.0279999999826082e+00 -6.9585299345097656e+02 1.0000000000000000e+00 5.3587853024001033e+00 3.2685408840111250e+00 3.5870061607075994e+00 
1550 1551 2 1.0279999999041749e+00 -5.5135216327479179e+02 1.0000000000000000e+00 5.6702444464782253e+00 1.8759179580415688e+00 4.8343408830605590e+00 
1247 1248 2 1.0280000001685008e+00 -1.4266871278744088e+03 1.0000000000000000e+00 7.3687922067263747e+00 3.1001990506733614e+00 3.6773853288510225e+00 
3467 3468 2 1.0279990558705163e+00 1.8284739045476213e+03 1.0000000000000000e+00 2.0727935552907873e+01 3.1261367061539689e+00 4.1219965883730874e+00 
2355 2356 2 1.0280000072639544e+00 3.9033206933760408e+02 1.0000000000000000e+00 2.3585038891022883e+01 2.3573379169418738e+00 4.1460207815858565e+00 
3366 3367 2 1.0279999921268217e+00 6.7484655628878602e+02 1.0000000000000000e+00 2.4315697774387843e+01 2.1178091376096559e+00 4.9977104261021550e+00 
2088 2089 2 1.0279999990255024e+00 -2.2970910300700161e+03 1.0000000000000000e+00 2.7920714731115208e+01 2.1762423055755344e+00 3.7131426717144485e+00 
3905 3906 2 1.0280000000323941e+00 7.6764332821559663e+01 1.0000000000000000e+00 3.2275057560495178e+01 2.4062376874667901e+00 4.5982072568091743e+00 
2100 2101 2 1.0280000000389775e+00 5.6555989426923616e+03 1.0000000000000000e+00 4.0583259611450728e+00 3.6155860100843578e+00 3.5067786570144941e+00 
719 720 2 1.0279999999929035e+00 1.0206786899264646e+03 1.0000000000000000e+00 8.7920322651192979e+00 4.1386002001057092e+00 3.5163577796674899e+00 
854 855 2 1.0280000005816052e+00 4.9058540351311694e+02 1.0000000000000000e+00 2.6139291009819814e+01 4.3693105026655257e+00 4.8961373672144042e+00 
1235 1236 2 1.0279999990432778e+00 -1.2767943109109888e+03 1.0000000000000000e+00 3.0546048514347177e+01 4.6663133347038750e+00 3.5491963667203144e+00 
3707 3708 2 1.0279999999648932e+00 -8.6154840047260404e+02 1.0000000000000000e+00 3.3100312694969993e+01 4.4232780994894467e+00 4.2137133680668866e+00 
629 630 2 1.0279999999420497e+00 -7.0345131434376049e+02 1.0000000000000000e+00 4.6801436233563853e+00 5.1402233997657465e+00 4.5142021160457135e+00 
2906 2907 2 1.0279999906928527e+00 -2.6640433975096239e+03 1.0000000000000000e+00 2.2395076410799135e+01 5.8026453464893946e+00 3.4528528268912515e+00 
3398 3399 2 1.0279999997020175e+00 -7.1250639260575346e+00 1.0000000000000000e+00 2.3875045761610895e+01 6.0410159121727842e+00 4.7695158775531192e+00 
681 682 2 1.0280000000559542e+00 -4.0534682626147746e+03 1.0000000000000000e+00 2.5606053364838687e+01 6.0911218884106741e+00 4.3354311088437152e+00 
891 892 2 1.0279999995334614e+00 7.2176425534457235e+02 1.0000000000000000e+00 2.7363057637773707e+01 5.4994086354011387e+00 4.5732682924033909e+00 
4094 4095 2 1.0279999995313980e+00 7.1380491928100400e+02 1.0000000000000000e+00 2.8640982877431210e+01 6.2216230599805709e+00 4.5206024239920062e+00 
3545 3546 2 1.0279999994148372e+00 -1.2722177544940246e+03 1.0000000000000000e+00 3.0768220905133962e+01 6.6069937375962935e+00 4.0676593013757838e+00 
1974 1975 2 1.0280000415325459e+00 -1.7062614210021657e+03 1.0000000000000000e+00 1.6388468012239418e+01 7.8313675941080989e+00 4.0431221304587295e+00 
578 579 2 1.0279999723782709e+00 5.7654559316888265e+02 1.0000000000000000e+00 1.5394731304332652e+01 7.2530843003014107e+00 4.0469040790134487e+00 
4335 4336 2 1.0280000092070416e+00 2.5055985936093583e+02 1.0000000000000000e+00 2.1750500971919905e+01 6.7394181001101181e+00 3.7638313026668264e+00 
1751 1752 2 1.0279999995771953e+00 -4.1447215921326119e+02 1.0000000000000000e+00 3.0045724630857801e+01 7.6125722061725032e+00 3.3817024365068864e+00 
1226 1227 2 1.0280000000000000e+00 -5.7531467561640034e+02 1.0000000000000000e+00 5.3179930048491304e+00 9.8967645193664175e+00 3.7850027306561413e+00 
1215 1216 2 1.0279999937620472e+00 4.1122306629773220e+02 1.0000000000000000e+00 2.1291238631769467e+01 8.5889172085081498e+00 4.2616475871392883e+00 
920 921 2 1.0280000049895970e+00 -3.1627765507121188e+02 1.0000000000000000e+00 2.0823238100635152e+01 9.5000465824239928e+00 4.9154714419673917e+00 
2662 2663 2 1.0279999978585692e+00 -1.2628636971709268e+03 1.0000000000000000e+00 2.3810471251341280e+01 8.3385865374382888e+00 4.6735546580865552e+00 
2237 2238 2 1.0280000004720906e+00 -1.8024871068213165e+03 1.0000000000000000e+00 2.7105810499161375e+01 8.8225804615554537e+00 4.7587494906368546e+00 
777 778 2 1.0279999993943938e+00 -1.4063314170389863e+03 1.0000000000000000e+00 2.9668494064123031e+01 9.1573831715727536e+00 4.2145162334304915e+00 
890 891 2 1.0280000004138607e+00 -8.1559537314844738e+02 1.0000000000000000e+00 2.8723734901546575e+01 8.5088163090217037e+00 4.8273306862619014e+00 
3544 3545 2 1.0280000001641114e+00 -1.5587999434677408e+03 1.0000000000000000e+00 3.2081955393843849e+01 8.4342419038199949e+00 3.8163812129858954e+00 
307 308 2 1.0280000010984296e+00 -1.0906080614399493e+03 1.0000000000000000e+00 2.0596396703751019e+01 1.1478097775092662e+01 3.9494116539530535e+00 
1188 1189 2 1.0279999969801097e+00 -6.9534325132299659e+02 1.0000000000000000e+00 2.1799163909422301e+01 1.1014297261402694e+01 4.5171061059619531e+00 
1322 1323 2 1.0279999997955904e+00 -2.5900427271523699e+02 1.0000000000000000e+00 2.6895772061066619e+01 1.0742088884936368e+01 3.7913062915566296e+00 
2109 2110 2 1.0280000005815200e+00 -6.6770809535649164e+02 1.0000000000000000e+00 2.8397506471639581e+01 1.1318730535364573e+01 3.9965853764547936e+00 
317 318 2 1.0279999994784226e+00 -3.2546340983832602e+02 1.0000000000000000e+00 3.1864207458127186e+01 1.0234243932952884e+01 4.3087123841346902e+00 
4095 4096 2 1.0280000003423713e+00 1.0415846226409258e+03 1.0000000000000000e+00 3.1556345728399673e+01 1.2018932198545066e+01 3.4228016346250558e+00 
3035 3036 2 1.0280000004266079e+00 1.8406619982217171e+03 1.0000000000000000e+00 3.0065827254190129e+01 1.2915105714134141e+01 3.5566400824062310e+00 
3077 3078 2 1.0280000001988239e+00 -1.5037242881878760e+03 1.0000000000000000e+00 2.8187097428211960e+01 1.4140905621669395e+01 3.4457747439174868e+00 
2200 2201 2 1.0279999995036706e+00 -1.2440583439360603e+03 1.0000000000000000e+00 3.0333427470407919e+01 1.4267625093757871e+01 4.2159260788105781e+00 
1238 1239 2 1.0279999997065876e+00 -1.0299863558863449e+03 1.0000000000000000e+00 3.1689539424073086e+01 1.3441805169378405e+01 3.5506322814200661e+00 
2302 2303 2 1.0280000001568712e+00 -1.8312558552144101e+03 1.0000000000000000e+00 2.8199597256736141e+01 1.6326992773095327e+01 4.2522484838868229e+00 
1230 1231 2 1.0279999999155307e+00 -1.1285475543149616e+02 1.0000000000000000e+00 2.6787510132132653e+01 1.6140012589960904e+01 4.7544080310225834e+00 
431 432 2 1.0280000002306600e+00 6.0447768028556334e+02 1.0000000000000000e+00 3.2995585981804425e+01 1.5160489067211056e+01 3.5205618296123258e+00 
2824 2825 2 1.0280242738308258e+00 1.7443905004137459e+03 1.0000000000000000e+00 1.5926771308746208e+01 1.7957497661879053e+01 4.3012204715495095e+00 
4004 4005 2 1.0279999998985472e+00 -2.4606185925859691e+03 1.0000000000000000e+00 2.6054528859978333e+01 1.8151250510111282e+01 4.0494201190704642e+00 
2635 2636 2 1.0279999997924374e+00 -1.5864223368317437e+02 1.0000000000000000e+00 2.5468546486866110e+01 1.6837060713066016e+01 4.7392790086174408e+00 
2124 2125 2 1.0279999995591917e+00 -2.0843341230244556e+02 1.0000000000000000e+00 2.9821117846338488e+01 1.7434607520784969e+01 3.8878771206917517e+00 
2157 2158 2 1.0280000001687111e+00 2.5448321394333735e+02 1.0000000000000000e+00 3.2270638116421480e+01 1.7010807855632130e+01 3.7871265047740721e+00 
1644 1645 2 1.0280000010502777e+00 7.6827644819941133e+02 1.0000000000000000e+00 2.1480941055239107e+01 1.9005824846240877e+01 3.6251438787867265e+00 
377 378 2 1.0280000003517404e+00 5.1113101223553133e+02 1.0000000000000000e+00 2.3214579550717538e+01 1.9907826678557168e+01 4.4012160951496995e+00 
3155 3156 2 1.0279999997457938e+00 -8.9433230394689224e+02 1.0000000000000000e+00 2.4979133943285966e+01 1.9514585587604969e+01 4.3786824781273586e+00 
2128 2129 2 1.0280000007137950e+00 2.1728299311794228e+02 1.0000000000000000e+00 2.7312947332376872e+01 1.9402099659081706e+01 4.2636798059727514e+00 
2631 2632 2 1.0279999994113513e+00 -3.6147437496340849e+01 1.0000000000000000e+00 2.9020797272783234e+01 1.8547186050563685e+01 4.8058376072217373e+00 
2154 2155 2 1.0279999991579278e+00 -2.0575904759934838e+02 1.0000000000000000e+00 3.0322523061712779e+01 1.9871848757551788e+01 4.0245448339526257e+00 
1284 1285 2 1.0280000011382069e+00 -1.5268630391506031e+03 1.0000000000000000e+00 3.1720801537320000e+01 1.9579007791540160e+01 3.4768204309723307e+00 
1369 1370 2 1.0280000000825953e+00 -6.0814134646238870e+01 1.0000000000000000e+00 3.2840234492617732e+01 1.8898971506388943e+01 4.1850618222853262e+00 
3958 3959 2 1.0280000000000000e+00 4.7261022625638725e+02 1.0000000000000000e+00 1.4421087620170690e+01 1.2267047981808121e+00 6.6659928739269887e+00 
798 799 2 1.0279999995646734e+00 -1.2356538990654714e+02 1.0000000000000000e+00 3.0155578667482303e+01 7.7651868071339558e-01 5.1365741652993711e+00 
1718 1719 2 1.0280000000537270e+00 -5.5015725695834158e+02 1.0000000000000000e+00 4.5714155839344022e+00 2.3593348292649079e+00 5.1508128252583614e+00 
4545 4546 2 1.0280000000000000e+00 4.1925861720305285e+01 1.0000000000000000e+00 1.3447665331055630e+01 1.7678502981687823e+00 6.4071809492490361e+00 
1234 1235 2 1.0280000011902353e+00 -1.5778167486440743e+03 1.0000000000000000e+00 2.7066129377402238e+01 2.4288183456758659e+00 5.9020528431928572e+00 
3502 3503 2 1.0279999991634698e+00 -2.6077036233971035e+02 1.0000000000000000e+00 2.8428045263325998e+01 2.6452505439425678e+00 5.3650658362685775e+00 
2495 2496 2 1.0279999994093671e+00 -9.7792444430507373e+01 1.0000000000000000e+00 3.2481861399371809e+01 3.1716174564538635e+00 5.9439013406290924e+00 
1731 1732 2 1.0279999999586684e+00 -3.4596430288495606e+02 1.0000000000000000e+00 3.9930088932905941e+00 4.4880918839670327e+00 5.2250167875914038e+00 
2525 2526 2 1.0280000006059540e+00 -2.1198805148766942e+03 1.0000000000000000e+00 2.1906953752610786e+01 4.4952835813848377e+00 6.6348228897342105e+00 
3860 3861 2 1.0279999992333366e+00 5.2071236771998394e+02 1.0000000000000000e+00 2.4367939782581058e+01 4.7849717212681115e+00 5.2917438518804349e+00 