LAMMPS data file via write_data, version 30 Jul 2016, timestep = 50000000

4620 atoms
8 atom types

0.0000000000000000e+00 1.0000000000000000e+02 xlo xhi
0.0000000000000000e+00 4.0000000000000000e+01 ylo yhi
0.0000000000000000e+00 4.0000000000000000e+01 zlo zhi

Masses

1 3.896
2 5.36
3 20.064
4 8.378
5 8.378
6 8.378
7 8.378
8 8.378

Atoms # meso-molecular

1886 1887 2 1.0279999995799012e+00 -1.0752535940311175e+03 1.0000000000000000e+00 5.9037655588744524e+00 6.4547739486014910e-01 1.0467383687391318e+00 
1428 1429 2 1.0280000026414600e+00 1.6445776032615052e+02 1.0000000000000000e+00 7.2077551859418403e+00 1.4766253150409387e+00 1.2128674688370016e+00 
4448 4449 2 1.0279999975579655e+00 2.1647186157472848e+02 1.0000000000000000e+00 2.6839232006294687e+01 1.0957003710045548e+00 3.8438908004847466e-01 
672 673 2 1.0279999960503059e+00 -3.4782472902478744e+01 1.0000000000000000e+00 2.8733962042323050e+01 5.1464070837504516e-01 3.2262734274864480e-01 
4407 4408 2 1.0279999992226148e+00 3.0952654223894672e+01 1.0000000000000000e+00 3.0548030902567390e+01 3.9635290133151327e-02 4.8113147284734620e-01 
1220 1221 2 1.0280000000000118e+00 -1.6269223476079782e+02 1.0000000000000000e+00 2.8356659348239392e+00 3.1785824721997158e+00 7.7968131440567124e-03 
1600 1601 2 1.0280000006611263e+00 4.7717348210057412e+02 1.0000000000000000e+00 6.5897965499029869e+00 2.9886945895187567e+00 1.4968282300668663e+00 
427 428 2 1.0280000676729473e+00 1.1347473333708842e+03 1.0000000000000000e+00 1.4965233437618245e+01 2.8684788276037181e+00 7.7251440340344102e-01 
1354 1355 2 1.0279999326305198e+00 -2.8891545967656771e+02 1.0000000000000000e+00 1.3981356094316149e+01 2.2657973250879291e+00 7.3645353098734512e-01 
3197 3198 2 1.0279999773353816e+00 -6.6638986177269558e+01 1.0000000000000000e+00 1.8037719027578497e+01 2.9748372519022896e+00 3.6602520606651229e-01 
3006 3007 2 1.0279999749467468e+00 5.4312933871196992e+03 1.0000000000000000e+00 1.6724810925236799e+01 2.0081757134171139e+00 3.0715989995941023e-02 
921 922 2 1.0279999544589551e+00 -5.2193357423708062e+02 1.0000000000000000e+00 2.2542369218562936e+01 2.2732861774202320e+00 1.4797651077367582e+00 
2064 2065 2 1.0280000357643420e+00 1.2877198740433298e+03 1.0000000000000000e+00 2.4265532246980101e+01 3.0858929821220187e+00 1.5620790726226657e+00 
4415 4416 2 1.0280000007656280e+00 1.1446000575119558e+02 1.0000000000000000e+00 2.6719482977270339e+01 1.6723707939570449e+00 1.3952893480192048e+00 
2417 2418 2 1.0280000010400372e+00 -1.0897708187763492e+03 1.0000000000000000e+00 2.8615593041348038e+01 2.6476163056707684e+00 3.1440011422416125e-01 
1262 1263 2 1.0280000000000118e+00 2.1685600925523346e+02 1.0000000000000000e+00 3.1206438776032983e+00 4.1005828498588652e+00 6.2104708276023890e-01 
1176 1177 2 1.0280000044634474e+00 -7.3760872663884493e+02 1.0000000000000000e+00 7.8597807439453211e+00 4.4086176205402463e+00 1.5992619123206144e+00 
4488 4489 2 1.0279999870705301e+00 1.8599733571912509e+02 1.0000000000000000e+00 1.8962136985042644e+01 4.3719100003515301e+00 1.1756044238737979e+00 
4292 4293 2 1.0279999284888734e+00 -9.3399225966517645e+02 1.0000000000000000e+00 2.1429422947477320e+01 3.8857700596523754e+00 6.5910949546216857e-01 
2334 2335 2 1.0279999990911677e+00 -4.7137822278605609e+02 1.0000000000000000e+00 2.8758198077239289e+01 3.6273583600203749e+00 1.0204291497702507e+00 
2405 2406 2 1.0279999998149627e+00 -1.0708707251566227e+03 1.0000000000000000e+00 1.7680236517677923e+01 5.0480626457310169e+00 1.4171096205162603e+00 
4447 4448 2 1.0280000058750627e+00 -3.6660551142157749e+02 1.0000000000000000e+00 1.8776897812933814e+01 5.6430515666924901e+00 4.0155282336787318e-01 
176 177 2 1.0279999993760294e+00 2.5631217287155237e+03 1.0000000000000000e+00 2.2362176373040267e+01 5.5830247098293242e+00 8.9550927597106378e-01 
3118 3119 2 1.0280000077123075e+00 -6.7040163548373002e+01 1.0000000000000000e+00 2.3795821714821141e+01 6.2024725280775259e+00 6.9178914604049813e-01 
2282 2283 2 1.0279999912779225e+00 -8.8471735194466828e+02 1.0000000000000000e+00 2.6620443183949728e+01 6.4373460516920824e+00 5.1351778553119003e-02 
12 13 2 1.0279999992082383e+00 2.6065714988658992e+03 1.0000000000000000e+00 3.0074881823794929e+01 6.5672158373064047e+00 2.8007830220656971e-01 
509 510 2 1.0279999999999987e+00 -2.3592435435025948e+02 1.0000000000000000e+00 1.8344128523397814e+01 8.2258668325150985e+00 6.6058388890653486e-01 
4366 4367 2 1.0280000067773754e+00 -3.2338309344766719e+02 1.0000000000000000e+00 2.2925095304695137e+01 7.7832110933406353e+00 1.5894135694197065e+00 
4423 4424 2 1.0279999882049726e+00 3.1980899913665132e+02 1.0000000000000000e+00 2.4869263505688288e+01 7.0389247040697773e+00 1.5795457064730676e+00 
1057 1058 2 1.0280000050648685e+00 5.2907371375137109e+02 1.0000000000000000e+00 2.6840848091859531e+01 7.6335486596556432e+00 1.2082851497464928e+00 
775 776 2 1.0279999990540427e+00 -1.5972145633281484e+03 1.0000000000000000e+00 2.8161863810573646e+01 6.7501369649728531e+00 1.4011078114991520e+00 
470 471 2 1.0280000006936076e+00 -4.1878788692536136e+02 1.0000000000000000e+00 3.0228033136695345e+01 7.5518264736312588e+00 8.6992693752138783e-01 
3498 3499 2 1.0280000015750799e+00 -7.2672048779288480e+02 1.0000000000000000e+00 2.5907639714528617e+01 9.1711741095461292e+00 7.2223073725917741e-01 
4088 4089 2 1.0280000001052194e+00 5.0332613814544771e+02 1.0000000000000000e+00 2.4789727514446959e+01 1.0150828619305980e+01 1.1717573549636404e+00 
4074 4075 2 1.0280000001038978e+00 -1.4038638002222970e+03 1.0000000000000000e+00 2.9766774069323411e+01 1.1371950265349875e+01 1.4554672754873901e-01 
3154 3155 2 1.0280000010980241e+00 -6.4729647720950561e+02 1.0000000000000000e+00 3.2696929154042905e+01 1.0992175505585205e+01 6.8472096870823063e-01 
1614 1615 2 1.0280000001422245e+00 3.0904953858394565e+03 1.0000000000000000e+00 2.3980185799487931e+01 1.1779863620597300e+01 1.3925145868495190e+00 
3869 3870 2 1.0280000013597927e+00 1.0111993317614001e+03 1.0000000000000000e+00 2.6157911132749415e+01 1.2802388246115598e+01 4.4541148325978608e-01 
3446 3447 2 1.0280000017330047e+00 -1.4249187538390640e+01 1.0000000000000000e+00 3.0536631156366671e+01 1.2565419516167546e+01 6.4466557692565998e-02 
345 346 2 1.0280000004728791e+00 -3.6061693680412054e+03 1.0000000000000000e+00 3.2422100710500658e+01 1.2875216252228325e+01 1.2123010222769659e+00 
84 85 2 1.0280000020452151e+00 -9.3285952867197324e+01 1.0000000000000000e+00 2.2583057807685588e+01 1.4681628253507585e+01 2.2234201793521502e-01 
1099 1100 2 1.0280000004333762e+00 -3.5388314457630509e+02 1.0000000000000000e+00 3.1411209387561669e+01 1.4095458796603291e+01 1.0454367587811646e+00 
424 425 2 1.0279999999999991e+00 9.3379445433862060e+01 1.0000000000000000e+00 1.3451545888383662e+00 1.5137011152877632e+01 1.5032479447327298e+00 
1350 1351 2 1.0279999992827267e+00 -5.8724868771725642e+02 1.0000000000000000e+00 2.9675113744382308e+01 1.6358577129869939e+01 7.5246412276638253e-01 
4421 4422 2 1.0280000001338241e+00 9.0129128961553943e+02 1.0000000000000000e+00 2.8592590578018005e+01 1.5279302063666641e+01 1.4331162237249671e+00 
803 804 2 1.0280000006030687e+00 3.6001795002575705e+01 1.0000000000000000e+00 3.2492331295483645e+01 1.6561433078986148e+01 4.6986725741318452e-01 
3579 3580 2 1.0280000000801273e+00 -2.0112259432863982e+02 1.0000000000000000e+00 2.5770527531534704e+01 1.8090717502757524e+01 5.2333379747440811e-01 
2990 2991 2 1.0279999997843652e+00 1.7883156859147689e+03 1.0000000000000000e+00 2.7093815686163676e+01 1.8182111883670672e+01 1.5271387435832962e+00 
1808 1809 2 1.0280000004914718e+00 3.7190506800816429e+01 1.0000000000000000e+00 3.0631255347958962e+01 1.6929593371848426e+01 8.1216906093810118e-02 
2980 2981 2 1.0280000000237093e+00 -5.9048608925687131e+02 1.0000000000000000e+00 2.5585829281115174e+01 1.9263206227911002e+01 1.0939981960720562e+00 
2286 2287 2 1.0280000004761187e+00 -9.9831091250535019e+02 1.0000000000000000e+00 3.0652696979567331e+01 1.8441133751771623e+01 1.4478201564487512e+00 
1817 1818 2 1.0280000001178309e+00 -5.6710668154345694e+02 1.0000000000000000e+00 3.2157407710958424e+01 1.8418265063992617e+01 1.3468281465198166e+00 
2354 2355 2 1.0280000026977874e+00 2.9877460953711903e+02 1.0000000000000000e+00 3.0341263869537860e+00 1.0250378051730131e+00 2.3768037040754488e+00 
1263 1264 2 1.0280000013543662e+00 9.8122507373438182e+01 1.0000000000000000e+00 4.7062916511367998e+00 9.3608251201901083e-01 3.1170343151017290e+00 
1723 1724 2 1.0279999955953638e+00 5.7599136516676356e+02 1.0000000000000000e+00 6.4401526339238506e+00 5.6126689213550529e-01 2.2861834952417448e+00 
1383 1384 2 1.0280000325697263e+00 -6.0017465834723430e+02 1.0000000000000000e+00 2.3041966196477350e+01 1.4607396656870655e+00 2.1992840065991950e+00 
2311 2312 2 1.0280000004893179e+00 -3.7521540444502659e+02 1.0000000000000000e+00 2.9427668233261723e+01 9.6789554824634072e-01 2.7448702629538944e+00 
1892 1893 2 1.0279999995895659e+00 2.6716189900065677e+02 1.0000000000000000e+00 3.1061484988696320e+00 2.2625666568535165e+00 2.7545744594425288e+00 
713 714 2 1.0279999982767267e+00 -6.9585299379847527e+02 1.0000000000000000e+00 5.4015245015057864e+00 3.2743230615707635e+00 3.1512622636472627e+00 
1247 1248 2 1.0280000075894113e+00 -1.4266871279566303e+03 1.0000000000000000e+00 7.4125091536133727e+00 3.1064054950767326e+00 3.2433510622203876e+00 
743 744 2 1.0279999945559382e+00 1.4466292224005265e+03 1.0000000000000000e+00 8.2429830245462004e+00 2.5680383183314093e+00 2.3680847669190053e+00 
2063 2064 2 1.0279999581998396e+00 -2.1199577515147848e+03 1.0000000000000000e+00 2.4789679742319116e+01 2.2411652686692753e+00 2.2234385744242178e+00 
1620 1621 2 1.0280000008426133e+00 5.3351307411048929e+03 1.0000000000000000e+00 2.7972512692166422e+01 3.2613339543808237e+00 2.9819475695222191e+00 
2773 2774 2 1.0279999994409312e+00 1.1193423177135570e+02 1.0000000000000000e+00 2.8578647420352183e+01 2.0666761656919186e+00 2.0513366051172088e+00 
300 301 2 1.0279999989154969e+00 -8.7807331454881194e+01 1.0000000000000000e+00 3.1297514119397555e+01 2.6089954744245576e+00 2.3159476851702450e+00 
10 11 2 1.0280000010665082e+00 8.5309880593675393e+02 1.0000000000000000e+00 3.2294788256575728e+01 2.1297260732618781e+00 2.0243712228485502e+00 
2100 2101 2 1.0280000020478000e+00 5.6555989426240612e+03 1.0000000000000000e+00 4.1007578908625915e+00 3.6212161601673278e+00 3.0703464527310906e+00 
1637 1638 2 1.0279999945374740e+00 1.0819612858089547e+03 1.0000000000000000e+00 6.3264588005279716e+00 4.3083784345378104e+00 2.0251112732839918e+00 
2099 2100 2 1.0279999980990897e+00 2.4056620143788186e+03 1.0000000000000000e+00 9.2667046927917394e+00 4.8247439099811587e+00 1.9490623812281835e+00 
719 720 2 1.0279999997104037e+00 1.0206786899205891e+03 1.0000000000000000e+00 8.8357019008071394e+00 4.1447747599845401e+00 3.0828421025712691e+00 
1582 1583 2 1.0280114358845331e+00 1.5202083530405587e+03 1.0000000000000000e+00 2.0682817163882678e+01 3.5749181365089222e+00 2.9240735741564721e+00 
4086 4087 2 1.0279999993548783e+00 9.3896446095034662e+02 1.0000000000000000e+00 2.6791647403878876e+01 4.9991385748736716e+00 2.9703548156815867e+00 
2428 2429 2 1.0280000094993462e+00 -2.1597994743369204e+03 1.0000000000000000e+00 1.6478914880751930e+01 6.3568139365836140e+00 1.8575429327973099e+00 
2329 2330 2 1.0279999857708764e+00 -5.0843367386306585e+02 1.0000000000000000e+00 1.6685455179620224e+01 5.6762236287166115e+00 2.8379954940866776e+00 
595 596 2 1.0279999814425040e+00 -1.1783444858073069e+03 1.0000000000000000e+00 2.1884273305932410e+01 6.6637539420090341e+00 1.6701601366771799e+00 
139 140 2 1.0280000060317558e+00 -9.9102862730249126e+02 1.0000000000000000e+00 2.5834628329770641e+01 6.0701714144047436e+00 1.7214661590007125e+00 
1316 1317 2 1.0280000005521273e+00 1.1338391850217940e+03 1.0000000000000000e+00 2.7668025801741845e+01 5.1382262057382508e+00 1.8952216394506995e+00 
1779 1780 2 1.0279999992682582e+00 2.0369587932772974e+03 1.0000000000000000e+00 3.0240046693430035e+01 5.6790704034204369e+00 2.6939921774468769e+00 
1145 1146 2 1.0279999971229985e+00 1.5034965003231323e+03 1.0000000000000000e+00 2.7180971705338074e+01 6.7235959970618868e+00 2.8377674547379739e+00 
771 772 2 1.0280000029810938e+00 -1.3623988315310921e+03 1.0000000000000000e+00 2.8560035343544879e+01 7.4024290270224906e+00 2.8072590108002990e+00 
3074 3075 2 1.0280000000000000e+00 -2.7743644205663204e+03 1.0000000000000000e+00 5.1631149280836528e+00 9.2215113131751085e+00 2.9653366855311782e+00 
2594 2595 2 1.0280000015265691e+00 4.6382306746773031e+02 1.0000000000000000e+00 2.1052471759553935e+01 8.4256255258121655e+00 2.3942150356829650e+00 
2600 2601 2 1.0279999969181344e+00 8.6203767541675711e+02 1.0000000000000000e+00 2.0818784118725798e+01 9.6418143651852866e+00 2.4298891783200034e+00 
4232 4233 2 1.0279999915310207e+00 3.6443428290368928e+02 1.0000000000000000e+00 2.2916385573086316e+01 8.5039875335533193e+00 2.8217372873980109e+00 
1447 1448 2 1.0280000010858612e+00 2.5583111761878008e+03 1.0000000000000000e+00 2.4208699646703923e+01 9.3072191285342214e+00 2.4983241673080410e+00 
1139 1140 2 1.0280000000000000e+00 -1.2048190047103885e+03 1.0000000000000000e+00 1.7016272932474465e+01 1.0601668596270793e+01 2.4442427912240818e+00 
302 303 2 1.0280000000000000e+00 -8.9667132594668283e+02 1.0000000000000000e+00 1.8151002333543943e+01 1.0712970588450524e+01 2.3583703838741790e+00 
1613 1614 2 1.0279999997858056e+00 1.5709517716483642e+03 1.0000000000000000e+00 2.3236656889468446e+01 1.0379089305501207e+01 1.8616376247552282e+00 
1214 1215 2 1.0280000013082864e+00 2.5496894069643423e+02 1.0000000000000000e+00 2.1741676801234657e+01 1.1139630131963427e+01 2.4586732265703537e+00 
515 516 2 1.0279999999994176e+00 5.9542398040061357e+02 1.0000000000000000e+00 2.4676250516658484e+01 1.1289145765654116e+01 2.9794928530426672e+00 
2616 2617 2 1.0279999995141194e+00 -1.1986968904042587e+02 1.0000000000000000e+00 2.5847165894454690e+01 1.0353037156103225e+01 2.9432909585774634e+00 
353 354 2 1.0279999998282530e+00 5.8972074318085515e+02 1.0000000000000000e+00 3.1111034375976075e+01 1.1103781833048426e+01 1.8073490396802392e+00 
818 819 2 1.0279999989247113e+00 1.0943688951270833e+03 1.0000000000000000e+00 3.1231807117485168e+01 1.0265083267463833e+01 2.9692150160806690e+00 
1468 1469 2 1.0280000000000000e+00 -1.5475117238702353e+02 1.0000000000000000e+00 5.2937112008813187e+00 1.2753837788420466e+01 2.5592846234959379e+00 
245 246 2 1.0279999984868318e+00 -4.4953514931810969e+03 1.0000000000000000e+00 2.1090118658231439e+01 1.2362983711197648e+01 2.8412669835899194e+00 
2619 2620 2 1.0280000001755305e+00 1.7049003668153409e+02 1.0000000000000000e+00 2.2916706474918279e+01 1.2919766108257200e+01 1.7296180629572078e+00 
977 978 2 1.0279999998806240e+00 -6.5587391991237473e+02 1.0000000000000000e+00 2.3200505552740850e+01 1.2022303941154437e+01 3.2238926469878990e+00 
4426 4427 2 1.0279999998441254e+00 1.1394561331534032e+03 1.0000000000000000e+00 2.4188026437863584e+01 1.3021466862635435e+01 2.6904384243499742e+00 
3571 3572 2 1.0279999999922900e+00 -1.0517838364223217e+03 1.0000000000000000e+00 2.9643066383995802e+01 1.1697687203389085e+01 2.1942255117143161e+00 
3613 3614 2 1.0280000001637821e+00 -6.8551514649967871e+01 1.0000000000000000e+00 3.0043291230209253e+01 1.2921774958341738e+01 1.7232403770760694e+00 
1804 1805 2 1.0280000000000000e+00 -1.2942360076833288e+02 1.0000000000000000e+00 5.8128554959253123e+00 1.3546905208451836e+01 1.9198268174861888e+00 
4470 4471 2 1.0280000000379481e+00 -1.5187741862054581e+03 1.0000000000000000e+00 2.1553076872316627e+01 1.4068389175537426e+01 2.1716209001450895e+00 
3968 3969 2 1.0280000001583880e+00 1.0444027211431408e+03 1.0000000000000000e+00 2.2560988584139572e+01 1.4529296409705264e+01 2.7666932224946970e+00 
776 777 2 1.0280000003028451e+00 -1.2835241129545252e+03 1.0000000000000000e+00 2.6666005898504174e+01 1.4522907911478704e+01 2.6703761839767841e+00 
263 264 2 1.0279999996350488e+00 8.7906797149402382e+02 1.0000000000000000e+00 2.8325903980114898e+01 1.3917032452654889e+01 1.9263992348480334e+00 
1767 1768 2 1.0279999999999991e+00 -1.0068640375468689e+02 1.0000000000000000e+00 2.3256826201583274e+00 1.5634112318009828e+01 1.8176175184493328e+00 
3620 3621 2 1.0279999994766298e+00 -5.3768479257854938e+02 1.0000000000000000e+00 2.3273461840185185e+01 1.6288905125961957e+01 2.8178647235889915e+00 
3578 3579 2 1.0280000008678885e+00 1.1170012364090931e+03 1.0000000000000000e+00 2.3401656621874917e+01 1.5922534878814814e+01 1.6753497177830903e+00 
2243 2244 2 1.0280000000269998e+00 -2.5471465961214648e+02 1.0000000000000000e+00 2.5746824035520667e+01 1.5358484136195029e+01 2.9840284300839683e+00 
569 570 2 1.0279999998922806e+00 7.6910569329503232e+02 1.0000000000000000e+00 2.6566923845279707e+01 1.6589566294452876e+01 2.1391712496862070e+00 
2193 2194 2 1.0280000003373801e+00 -2.2411230976782167e+03 1.0000000000000000e+00 2.9894714093965767e+01 1.5934672005421856e+01 3.2497771267808124e+00 
2751 2752 2 1.0280000004544660e+00 1.0558233386201096e+03 1.0000000000000000e+00 3.0018791936517793e+01 1.5040404824889698e+01 2.2437355998229354e+00 
1272 1273 2 1.0279999998855140e+00 -2.9784656419140174e+02 1.0000000000000000e+00 3.2530817263113747e+01 1.5038651000286343e+01 2.2835427465656490e+00 
3997 3998 2 1.0280000012408073e+00 -1.2431599684252478e+03 1.0000000000000000e+00 2.5026816277544889e+01 1.7057954575505871e+01 2.0992127767493507e+00 
639 640 2 1.0280000009329573e+00 1.1390934531832261e+03 1.0000000000000000e+00 2.8097338513844143e+01 1.6952984979441329e+01 2.4503383225353317e+00 
2174 2175 2 1.0280000001439455e+00 1.2203025401926730e+02 1.0000000000000000e+00 3.1021566470037349e+01 1.7585564298503023e+01 3.0366193894831519e+00 
2284 2285 2 1.0279999996760421e+00 -4.3112959165438417e+02 1.0000000000000000e+00 3.2417125274116451e+01 1.7026417208732163e+01 1.9096721354585748e+00 
589 590 2 1.0280000000000000e+00 -4.2786013088988852e+01 1.0000000000000000e+00 1.8565097607735172e+01 1.9185324057588851e+01 2.8895439615731497e+00 
4418 4419 2 1.0279999997114257e+00 2.5820890692137928e+03 1.0000000000000000e+00 2.5326875499776147e+01 1.8347693291454039e+01 2.5513334118595359e+00 
4389 4390 2 1.0280000010509827e+00 3.1577504843543993e+03 1.0000000000000000e+00 2.7233903050486468e+01 1.9652731086575280e+01 2.1515521636048041e+00 
89 90 2 1.0280000003358043e+00 -1.5520848846752037e+03 1.0000000000000000e+00 2.9887408596346003e+01 1.9329321771202487e+01 2.3744961964735096e+00 
2230 2231 2 1.0279999981896464e+00 1.4025290556373338e+03 1.0000000000000000e+00 3.7419136630531762e+00 8.6086593618188134e-01 4.0026210497872201e+00 
3956 3957 2 1.0279999959035586e+00 -6.2511231498277925e+02 1.0000000000000000e+00 2.4598986660468821e+01 5.0666237435481876e-01 3.5460493530655222e+00 
4540 4541 2 1.0280000037183437e+00 7.2549030999939396e+02 1.0000000000000000e+00 2.5666820565314048e+01 1.6069325468199158e-01 3.8101649839205636e+00 
3823 3824 2 1.0280000004285927e+00 -1.0591683428862710e+01 1.0000000000000000e+00 2.8290894388089448e+01 2.8946454506519398e-01 3.9157863710389531e+00 
976 977 2 1.0279999998154556e+00 -1.2794063459499912e+03 1.0000000000000000e+00 3.0122141090634500e+01 1.6157115969621916e+00 4.0226275617563161e+00 
4285 4286 2 1.0280000003966738e+00 -1.4095691360988837e+02 1.0000000000000000e+00 3.1987797851545473e+01 1.1438904451490759e+00 4.1037837624247349e+00 
1718 1719 2 1.0280000028227096e+00 -5.5015725697313064e+02 1.0000000000000000e+00 4.6137564704027101e+00 2.3649751526386935e+00 4.7142978038732242e+00 
1550 1551 2 1.0279999957409811e+00 -5.5135216329630134e+02 1.0000000000000000e+00 5.7126941588916749e+00 1.8815301001216176e+00 4.3979344153630704e+00 
3467 3468 2 1.0279886197943846e+00 1.8284738961477046e+03 1.0000000000000000e+00 2.0703272082767270e+01 3.2637193093947348e+00 4.0241456432762739e+00 
2355 2356 2 1.0279999770604089e+00 3.9033206923707507e+02 1.0000000000000000e+00 2.3582881975184737e+01 2.3777501559062135e+00 4.2111345460905021e+00 
2088 2089 2 1.0279999997501805e+00 -2.2970910300700161e+03 1.0000000000000000e+00 2.7918945411187384e+01 2.1974895507361456e+00 3.7740775235061723e+00 
3905 3906 2 1.0279999999553902e+00 7.6764332821559663e+01 1.0000000000000000e+00 3.2273391947202846e+01 2.4275824281464020e+00 4.6589922918517210e+00 
1731 1732 2 1.0279999950496534e+00 -3.4596430290742535e+02 1.0000000000000000e+00 4.0349705286533162e+00 4.4935630541663514e+00 4.7878348467611351e+00 
854 855 2 1.0279999998422684e+00 4.9058540351311694e+02 1.0000000000000000e+00 2.6137588136623876e+01 4.3905928662703220e+00 4.9571935739391000e+00 
1235 1236 2 1.0280000003005731e+00 -1.2767943109109888e+03 1.0000000000000000e+00 3.0544292881887067e+01 4.6876530746920837e+00 3.6100532881606888e+00 
3707 3708 2 1.0280000003618841e+00 -8.6154840047260404e+02 1.0000000000000000e+00 3.3098645197902528e+01 4.4445701785586715e+00 4.2745443417621880e+00 
629 630 2 1.0280000007741543e+00 -7.0345131437560156e+02 1.0000000000000000e+00 4.7222136620760349e+00 5.1457823866498478e+00 4.0769187741375843e+00 
2906 2907 2 1.0279999956885622e+00 -2.6640433977518878e+03 1.0000000000000000e+00 2.2391879694817931e+01 5.8240838946724951e+00 3.5170630586533731e+00 
3398 3399 2 1.0279999989835498e+00 -7.1250640594243659e+00 1.0000000000000000e+00 2.3873352672408522e+01 6.0625505929012107e+00 4.8309961835469908e+00 
681 682 2 1.0280000000463148e+00 -4.0534682626147746e+03 1.0000000000000000e+00 2.5604441363273796e+01 6.1124901410493617e+00 4.3964511086592708e+00 
891 892 2 1.0280000008554373e+00 7.2176425534457235e+02 1.0000000000000000e+00 2.7361277239537962e+01 5.5207116015130415e+00 4.6343988527117306e+00 
3673 3674 2 1.0280000009485752e+00 -2.1794238532943314e+02 1.0000000000000000e+00 2.8757573736431699e+01 5.3395314412768684e+00 3.3562332597733144e+00 
4094 4095 2 1.0279999993244366e+00 7.1380491928100400e+02 1.0000000000000000e+00 2.8639232094145125e+01 6.2429999109896794e+00 4.5815467741210645e+00 
3545 3546 2 1.0280000014663659e+00 -1.2722177544940246e+03 1.0000000000000000e+00 3.0766523432126295e+01 6.6282936297936645e+00 4.1285647741361284e+00 
1974 1975 2 1.0279999582218597e+00 -1.7062615260308739e+03 1.0000000000000000e+00 1.6238963527931073e+01 7.6855914802742378e+00 3.6556346929986709e+00 
578 579 2 1.0280000407875831e+00 5.7654558852250398e+02 1.0000000000000000e+00 1.5246816818134269e+01 7.1076446375504947e+00 3.6570357915472522e+00 
4335 4336 2 1.0280000042585520e+00 2.5055985927509539e+02 1.0000000000000000e+00 2.1747339460766536e+01 6.7611983786137460e+00 3.8279355318282549e+00 
1751 1752 2 1.0279999996465246e+00 -4.1447215921326119e+02 1.0000000000000000e+00 3.0043969746469877e+01 7.6339094755003876e+00 3.4426519732186724e+00 
1226 1227 2 1.0280000000000000e+00 -5.7531467561640034e+02 1.0000000000000000e+00 5.5814410031990054e+00 9.6207828498489398e+00 3.9517232995621283e+00 
1215 1216 2 1.0279999971557179e+00 4.1122306625727447e+02 1.0000000000000000e+00 2.1288780760278058e+01 8.6105476728898562e+00 4.3243904244585716e+00 
920 921 2 1.0280000022336213e+00 -3.1627765513637632e+02 1.0000000000000000e+00 2.0821007921275822e+01 9.5221028382187196e+00 4.9778311317865676e+00 
2662 2663 2 1.0279999988394797e+00 -1.2628636971709268e+03 1.0000000000000000e+00 2.3808795129131674e+01 8.3602411307353410e+00 4.7347663407338620e+00 
2237 2238 2 1.0280000000412248e+00 -1.8024871068213165e+03 1.0000000000000000e+00 2.7104212528189677e+01 8.8440015302869757e+00 4.8195446920093401e+00 
777 778 2 1.0280000008352723e+00 -1.4063314170389863e+03 1.0000000000000000e+00 2.9666886630181395e+01 9.1787856134865198e+00 4.2753937038131857e+00 
890 891 2 1.0279999991302853e+00 -8.1559537314844738e+02 1.0000000000000000e+00 2.8722086298985484e+01 8.5302115806906933e+00 4.8882060656297366e+00 
3544 3545 2 1.0280000004233154e+00 -1.5587999434677408e+03 1.0000000000000000e+00 3.2080487380871325e+01 8.4554289341279265e+00 3.8772193525701737e+00 
307 308 2 1.0280000008555419e+00 -1.0906080614399493e+03 1.0000000000000000e+00 2.0594260876677843e+01 1.1499690606487741e+01 4.0105497758615325e+00 
1188 1189 2 1.0279999990376629e+00 -6.9534325134790288e+02 1.0000000000000000e+00 2.1797011106449396e+01 1.1035831168755731e+01 4.5782825278901340e+00 
1322 1323 2 1.0280000007153833e+00 -2.5900427271523699e+02 1.0000000000000000e+00 2.6894233210922788e+01 1.0763553386638625e+01 3.8522054616159540e+00 
2109 2110 2 1.0279999996022324e+00 -6.6770809535649164e+02 1.0000000000000000e+00 2.8396051199686973e+01 1.1340098020511094e+01 4.0573948795632875e+00 
317 318 2 1.0279999999495848e+00 -3.2546340983832602e+02 1.0000000000000000e+00 3.1862770294156796e+01 1.0255484521585782e+01 4.3696167048724375e+00 
3299 3300 2 1.0280000001270968e+00 -2.5767046985574393e+02 1.0000000000000000e+00 2.8158136975404560e+01 1.2687768818064161e+01 3.3559531336314730e+00 
4095 4096 2 1.0280000017752411e+00 1.0415846226409258e+03 1.0000000000000000e+00 3.1554985081150097e+01 1.2040100139554582e+01 3.4836481512314501e+00 
3035 3036 2 1.0280000003983301e+00 1.8406619982217171e+03 1.0000000000000000e+00 3.0064528793960889e+01 1.2936274393611852e+01 3.6174243590453550e+00 
3077 3078 2 1.0279999999911100e+00 -1.5037242881878760e+03 1.0000000000000000e+00 2.8185748820834686e+01 1.4162265560735911e+01 3.5065720447196798e+00 
2200 2201 2 1.0280000013122750e+00 -1.2440583439360603e+03 1.0000000000000000e+00 3.0332080311315135e+01 1.4288870637606202e+01 4.2766376043027998e+00 
1238 1239 2 1.0279999985848693e+00 -1.0299863558863449e+03 1.0000000000000000e+00 3.1688221784181948e+01 1.3462971987271830e+01 3.6114070319352525e+00 
2302 2303 2 1.0279999990939157e+00 -1.8312558552144101e+03 1.0000000000000000e+00 2.8198313072231624e+01 1.6348435581861761e+01 4.3129691397219805e+00 
1230 1231 2 1.0280000006370016e+00 -1.1285475543149616e+02 1.0000000000000000e+00 2.6786175450175307e+01 1.6161511535647957e+01 4.8150135802580332e+00 
431 432 2 1.0280000002131031e+00 6.0447768028556334e+02 1.0000000000000000e+00 3.2994441687987482e+01 1.5181549674941476e+01 3.5815241080411688e+00 
2824 2825 2 1.0280000000000000e+00 1.7443903377139054e+03 1.0000000000000000e+00 1.5898477833060776e+01 1.8299943342186680e+01 4.3281029207901573e+00 
1011 1012 2 1.0279999999087162e+00 1.2584143773842769e+02 1.0000000000000000e+00 2.1883319891288078e+01 1.7999568029940253e+01 3.3527383424474149e+00 
4004 4005 2 1.0280000002751990e+00 -2.4606185925859691e+03 1.0000000000000000e+00 2.6053253694022551e+01 1.8172857375331571e+01 4.1101225828418988e+00 
2635 2636 2 1.0279999994006930e+00 -1.5864223368317437e+02 1.0000000000000000e+00 2.5467171508510184e+01 1.6858612111062115e+01 4.7998237104897772e+00 
3454 3455 2 1.0279999999505347e+00 4.3616840313706671e+03 1.0000000000000000e+00 2.7613285426531139e+01 1.7992958575253009e+01 3.3577598275219489e+00 
2124 2125 2 1.0280000010102892e+00 -2.0843341230244556e+02 1.0000000000000000e+00 2.9819936895556044e+01 1.7455931453307429e+01 3.9487232841406650e+00 
2157 2158 2 1.0280000003950234e+00 2.5448321394333735e+02 1.0000000000000000e+00 3.2269581868258150e+01 1.7031978391994333e+01 3.8480974908776617e+00 
1644 1645 2 1.0280000001310234e+00 7.6827644819941133e+02 1.0000000000000000e+00 2.1479615985973336e+01 1.9027675977822074e+01 3.6856898625490824e+00 
377 378 2 1.0280000006730519e+00 5.1113101223553133e+02 1.0000000000000000e+00 2.3213171198151688e+01 1.9929483050364215e+01 4.4617161229023390e+00 
3155 3156 2 1.0279999998810909e+00 -8.9433230394689224e+02 1.0000000000000000e+00 2.4977821637990296e+01 1.9536236969156118e+01 4.4393634093037466e+00 
2128 2129 2 1.0280000007190431e+00 2.1728299311794228e+02 1.0000000000000000e+00 2.7311687002105614e+01 1.9423667927751939e+01 4.3244100877513727e+00 
2631 2632 2 1.0280000005268732e+00 -3.6147437502025191e+01 1.0000000000000000e+00 2.9019582674810557e+01 1.8568661296038290e+01 4.8665654688470310e+00 
2154 2155 2 1.0280000001631491e+00 -2.0575904759934838e+02 1.0000000000000000e+00 3.0321464640350015e+01 1.9893264281264610e+01 4.0855032189271352e+00 
1284 1285 2 1.0280000007297339e+00 -1.5268630391506031e+03 1.0000000000000000e+00 3.1719733143124436e+01 1.9600299914530957e+01 3.5378661813144197e+00 
1369 1370 2 1.0280000005130894e+00 -6.0814134647726497e+01 1.0000000000000000e+00 3.2839130728600104e+01 1.8920185040978097e+01 4.2460752590229269e+00 
4545 4546 2 1.0280000000000002e+00 4.1925861720305285e+01 1.0000000000000000e+00 1.3077034621288346e+01 1.3602660739308599e+00 6.4347845653530245e+00 
798 799 2 1.0280000000720853e+00 -1.2356538990654714e+02 1.0000000000000000e+00 3.0153895803342234e+01 7.9786195299202556e-01 5.1974292663906567e+00 
3366 3367 2 1.0280000232677631e+00 6.7484655620036369e+02 1.0000000000000000e+00 2.4313695267753790e+01 2.1382231511763821e+00 5.0626352882621575e+00 
1234 1235 2 1.0279999996771951e+00 -1.5778167486440743e+03 1.0000000000000000e+00 2.7064395701267568e+01 2.4501231038849820e+00 5.9629131399824802e+00 
3502 3503 2 1.0280000003356555e+00 -2.6077036233971035e+02 1.0000000000000000e+00 2.8426296423668930e+01 2.6665695083826981e+00 5.4258825497250296e+00 
2495 2496 2 1.0280000001509302e+00 -9.7792444430507373e+01 1.0000000000000000e+00 3.2480204165755900e+01 3.1929832337039010e+00 6.0046904207428593e+00 
3860 3861 2 1.0279999989473232e+00 5.2071236771998394e+02 1.0000000000000000e+00 2.4366334434294593e+01 4.8062932839784320e+00 5.3528622533903869e+00 
1590 1591 2 1.0279999989985866e+00 4.9692457909066081e+02 1.0000000000000000e+00 2.3427696770130346e+01 4.0788643802828650e+00 6.3729978375739362e+00 
267 268 2 1.0280000006272432e+00 9.0944265478929947e+02 1.0000000000000000e+00 2.5881928397352272e+01 3.4646810587136643e+00 5.9580994941444025e+00 
3099 3100 2 1.0279999998293785e+00 -1.8078886337748168e+03 1.0000000000000000e+00 2.9551367406108874e+01 4.5367393963786382e+00 5.0974009645462708e+00 