LAMMPS data file via write_data, version 30 Jul 2016, timestep = 1000000

2080 atoms
8 atom types

0.0000000000000000e+00 4.0000000000000000e+01 xlo xhi
0.0000000000000000e+00 4.0000000000000000e+01 ylo yhi
0.0000000000000000e+00 1.0000000000000000e+02 zlo zhi

Masses

1 3.896
2 5.36
3 1058.08
4 8.378
5 8.378
6 8.378
7 8.378
8 8.378

Atoms # meso-molecular

1 2 4 2.2559723595316457e+00 1.0000000000000000e+00 4.2000000000000000e+03 0.0000000000000000e+00 0.0000000000000000e+00 2.5000000000000000e+00 
2 2 4 2.2559723595316457e+00 1.0000000000000000e+00 4.2000000000000000e+03 0.0000000000000000e+00 2.0000000000000000e+00 2.5000000000000000e+00 
3 2 4 2.2559723595316457e+00 1.0000000000000000e+00 4.2000000000000000e+03 0.0000000000000000e+00 4.0000000000000000e+00 2.5000000000000000e+00 
21 2 4 2.2559723595316457e+00 1.0000000000000000e+00 4.2000000000000000e+03 2.0000000000000000e+00 0.0000000000000000e+00 2.5000000000000000e+00 
22 2 4 2.2559723595316457e+00 1.0000000000000000e+00 4.2000000000000000e+03 2.0000000000000000e+00 2.0000000000000000e+00 2.5000000000000000e+00 
23 2 4 2.2559723595316457e+00 1.0000000000000000e+00 4.2000000000000000e+03 2.0000000000000000e+00 4.0000000000000000e+00 2.5000000000000000e+00 
41 2 4 2.2559723595316457e+00 1.0000000000000000e+00 4.2000000000000000e+03 4.0000000000000000e+00 0.0000000000000000e+00 2.5000000000000000e+00 
42 2 4 2.2559723595316457e+00 1.0000000000000000e+00 4.2000000000000000e+03 4.0000000000000000e+00 2.0000000000000000e+00 2.5000000000000000e+00 
43 2 4 2.2559723595316457e+00 1.0000000000000000e+00 4.2000000000000000e+03 4.0000000000000000e+00 4.0000000000000000e+00 2.5000000000000000e+00 
61 2 4 2.2559723595316457e+00 1.0000000000000000e+00 4.2000000000000000e+03 6.0000000000000000e+00 0.0000000000000000e+00 2.5000000000000000e+00 
62 2 4 2.2559723595316457e+00 1.0000000000000000e+00 4.2000000000000000e+03 6.0000000000000000e+00 2.0000000000000000e+00 2.5000000000000000e+00 
63 2 4 2.2559723595316457e+00 1.0000000000000000e+00 4.2000000000000000e+03 6.0000000000000000e+00 4.0000000000000000e+00 2.5000000000000000e+00 
81 2 4 2.2559723595316457e+00 1.0000000000000000e+00 4.2000000000000000e+03 8.0000000000000000e+00 0.0000000000000000e+00 2.5000000000000000e+00 
82 2 4 2.2559723595316457e+00 1.0000000000000000e+00 4.2000000000000000e+03 8.0000000000000000e+00 2.0000000000000000e+00 2.5000000000000000e+00 
83 2 4 2.2559723595316457e+00 1.0000000000000000e+00 4.2000000000000000e+03 8.0000000000000000e+00 4.0000000000000000e+00 2.5000000000000000e+00 
101 2 4 2.2559723595316457e+00 1.0000000000000000e+00 4.2000000000000000e+03 1.0000000000000000e+01 0.0000000000000000e+00 2.5000000000000000e+00 
102 2 4 2.2559723595316457e+00 1.0000000000000000e+00 4.2000000000000000e+03 1.0000000000000000e+01 2.0000000000000000e+00 2.5000000000000000e+00 
103 2 4 2.2559723595316457e+00 1.0000000000000000e+00 4.2000000000000000e+03 1.0000000000000000e+01 4.0000000000000000e+00 2.5000000000000000e+00 
121 2 4 2.2559723595316457e+00 1.0000000000000000e+00 4.2000000000000000e+03 1.2000000000000000e+01 0.0000000000000000e+00 2.5000000000000000e+00 
122 2 4 2.2559723595316457e+00 1.0000000000000000e+00 4.2000000000000000e+03 1.2000000000000000e+01 2.0000000000000000e+00 2.5000000000000000e+00 
123 2 4 2.2559723595316457e+00 1.0000000000000000e+00 4.2000000000000000e+03 1.2000000000000000e+01 4.0000000000000000e+00 2.5000000000000000e+00 
141 2 4 2.2559723595316457e+00 1.0000000000000000e+00 4.2000000000000000e+03 1.4000000000000000e+01 0.0000000000000000e+00 2.5000000000000000e+00 
142 2 4 2.2559723595316457e+00 1.0000000000000000e+00 4.2000000000000000e+03 1.4000000000000000e+01 2.0000000000000000e+00 2.5000000000000000e+00 
143 2 4 2.2559723595316457e+00 1.0000000000000000e+00 4.2000000000000000e+03 1.4000000000000000e+01 4.0000000000000000e+00 2.5000000000000000e+00 
161 2 4 2.2559723595316457e+00 1.0000000000000000e+00 4.2000000000000000e+03 1.6000000000000000e+01 0.0000000000000000e+00 2.5000000000000000e+00 
162 2 4 2.2559723595316457e+00 1.0000000000000000e+00 4.2000000000000000e+03 1.6000000000000000e+01 2.0000000000000000e+00 2.5000000000000000e+00 
163 2 4 2.2559723595316457e+00 1.0000000000000000e+00 4.2000000000000000e+03 1.6000000000000000e+01 4.0000000000000000e+00 2.5000000000000000e+00 
181 2 4 2.2559723595316457e+00 9.9999987534945656e-01 4.2000000000000000e+03 1.8000000000000000e+01 0.0000000000000000e+00 2.5000000000000000e+00 
182 2 4 2.2559723595316457e+00 1.0000000000000000e+00 4.2000000000000000e+03 1.8000000000000000e+01 2.0000000000000000e+00 2.5000000000000000e+00 
183 2 4 2.2559723595316457e+00 1.0000000000000000e+00 4.2000000000000000e+03 1.8000000000000000e+01 4.0000000000000000e+00 2.5000000000000000e+00 
4 2 4 2.2559723595316457e+00 1.0000000000000000e+00 4.2000000000000000e+03 0.0000000000000000e+00 6.0000000000000000e+00 2.5000000000000000e+00 
5 2 4 2.2559723595316457e+00 1.0000000000000000e+00 4.2000000000000000e+03 0.0000000000000000e+00 8.0000000000000000e+00 2.5000000000000000e+00 
24 2 4 2.2559723595316457e+00 1.0000000000000000e+00 4.2000000000000000e+03 2.0000000000000000e+00 6.0000000000000000e+00 2.5000000000000000e+00 
25 2 4 2.2559723595316457e+00 1.0000000000000000e+00 4.2000000000000000e+03 2.0000000000000000e+00 8.0000000000000000e+00 2.5000000000000000e+00 
44 2 4 2.2559723595316457e+00 1.0000000000000000e+00 4.2000000000000000e+03 4.0000000000000000e+00 6.0000000000000000e+00 2.5000000000000000e+00 
45 2 4 2.2559723595316457e+00 1.0000000000000000e+00 4.2000000000000000e+03 4.0000000000000000e+00 8.0000000000000000e+00 2.5000000000000000e+00 
64 2 4 2.2559723595316457e+00 1.0000000000000000e+00 4.2000000000000000e+03 6.0000000000000000e+00 6.0000000000000000e+00 2.5000000000000000e+00 
65 2 4 2.2559723595316457e+00 1.0000000000000000e+00 4.2000000000000000e+03 6.0000000000000000e+00 8.0000000000000000e+00 2.5000000000000000e+00 
84 2 4 2.2559723595316457e+00 1.0000000000000000e+00 4.2000000000000000e+03 8.0000000000000000e+00 6.0000000000000000e+00 2.5000000000000000e+00 
85 2 4 2.2559723595316457e+00 1.0000000000000000e+00 4.2000000000000000e+03 8.0000000000000000e+00 8.0000000000000000e+00 2.5000000000000000e+00 
104 2 4 2.2559723595316457e+00 1.0000000000000000e+00 4.2000000000000000e+03 1.0000000000000000e+01 6.0000000000000000e+00 2.5000000000000000e+00 
105 2 4 2.2559723595316457e+00 1.0000000000000000e+00 4.2000000000000000e+03 1.0000000000000000e+01 8.0000000000000000e+00 2.5000000000000000e+00 
124 2 4 2.2559723595316457e+00 1.0000000000000000e+00 4.2000000000000000e+03 1.2000000000000000e+01 6.0000000000000000e+00 2.5000000000000000e+00 
125 2 4 2.2559723595316457e+00 -1.9286687051537399e+01 4.2000000000000000e+03 1.2000000000000000e+01 8.0000000000000000e+00 2.5000000000000000e+00 
144 2 4 2.2559723595316457e+00 -1.9289536113683635e+01 4.2000000000000000e+03 1.4000000000000000e+01 6.0000000000000000e+00 2.5000000000000000e+00 
145 2 4 2.2559723595316457e+00 -3.6924474879051695e+02 4.2000000000000000e+03 1.4000000000000000e+01 8.0000000000000000e+00 2.5000000000000000e+00 
164 2 4 2.2559723595316457e+00 -8.9917971229479605e+01 4.2000000000000000e+03 1.6000000000000000e+01 6.0000000000000000e+00 2.5000000000000000e+00 
165 2 4 2.2559723595316457e+00 -1.0941426880745423e+03 4.2000000000000000e+03 1.6000000000000000e+01 8.0000000000000000e+00 2.5000000000000000e+00 
184 2 4 2.2559723595316457e+00 -1.2256208107258836e+02 4.2000000000000000e+03 1.8000000000000000e+01 6.0000000000000000e+00 2.5000000000000000e+00 
185 2 4 2.2559723595316457e+00 -1.5415856586051882e+03 4.2000000000000000e+03 1.8000000000000000e+01 8.0000000000000000e+00 2.5000000000000000e+00 
6 2 4 2.2559723595316457e+00 1.0000000000000000e+00 4.2000000000000000e+03 0.0000000000000000e+00 1.0000000000000000e+01 2.5000000000000000e+00 
7 2 4 2.2559723595316457e+00 1.0000000000000000e+00 4.2000000000000000e+03 0.0000000000000000e+00 1.2000000000000000e+01 2.5000000000000000e+00 
8 2 4 2.2559723595316457e+00 9.8972053012277650e-01 4.2000000000000000e+03 0.0000000000000000e+00 1.4000000000000000e+01 2.5000000000000000e+00 
26 2 4 2.2559723595316457e+00 1.0000000000000000e+00 4.2000000000000000e+03 2.0000000000000000e+00 1.0000000000000000e+01 2.5000000000000000e+00 
27 2 4 2.2559723595316457e+00 1.0000000000000000e+00 4.2000000000000000e+03 2.0000000000000000e+00 1.2000000000000000e+01 2.5000000000000000e+00 
28 2 4 2.2559723595316457e+00 9.7865511970174046e-01 4.2000000000000000e+03 2.0000000000000000e+00 1.4000000000000000e+01 2.5000000000000000e+00 
46 2 4 2.2559723595316457e+00 1.0000000000000000e+00 4.2000000000000000e+03 4.0000000000000000e+00 1.0000000000000000e+01 2.5000000000000000e+00 
47 2 4 2.2559723595316457e+00 1.0000000000000000e+00 4.2000000000000000e+03 4.0000000000000000e+00 1.2000000000000000e+01 2.5000000000000000e+00 
48 2 4 2.2559723595316457e+00 9.9914934345369422e-01 4.2000000000000000e+03 4.0000000000000000e+00 1.4000000000000000e+01 2.5000000000000000e+00 
66 2 4 2.2559723595316457e+00 1.0001649555604573e+00 4.2000000000000000e+03 6.0000000000000000e+00 1.0000000000000000e+01 2.5000000000000000e+00 
67 2 4 2.2559723595316457e+00 9.9983277245855628e-01 4.2000000000000000e+03 6.0000000000000000e+00 1.2000000000000000e+01 2.5000000000000000e+00 
68 2 4 2.2559723595316457e+00 1.0001431202788891e+00 4.2000000000000000e+03 6.0000000000000000e+00 1.4000000000000000e+01 2.5000000000000000e+00 
86 2 4 2.2559723595316457e+00 9.9999937657592708e-01 4.2000000000000000e+03 8.0000000000000000e+00 1.0000000000000000e+01 2.5000000000000000e+00 
87 2 4 2.2559723595316457e+00 9.9980259190989429e-01 4.2000000000000000e+03 8.0000000000000000e+00 1.2000000000000000e+01 2.5000000000000000e+00 
88 2 4 2.2559723595316457e+00 9.9626335920287690e-01 4.2000000000000000e+03 8.0000000000000000e+00 1.4000000000000000e+01 2.5000000000000000e+00 
106 2 4 2.2559723595316457e+00 1.0000000000000000e+00 4.2000000000000000e+03 1.0000000000000000e+01 1.0000000000000000e+01 2.5000000000000000e+00 
107 2 4 2.2559723595316457e+00 1.0000708111669008e+00 4.2000000000000000e+03 1.0000000000000000e+01 1.2000000000000000e+01 2.5000000000000000e+00 
108 2 4 2.2559723595316457e+00 1.0039200150628242e+00 4.2000000000000000e+03 1.0000000000000000e+01 1.4000000000000000e+01 2.5000000000000000e+00 
126 2 4 2.2559723595316457e+00 -8.9854952061412803e+01 4.2000000000000000e+03 1.2000000000000000e+01 1.0000000000000000e+01 2.5000000000000000e+00 
127 2 4 2.2559723595316457e+00 -1.2281757685802523e+02 4.2000000000000000e+03 1.2000000000000000e+01 1.2000000000000000e+01 2.5000000000000000e+00 
128 2 4 2.2559723595316457e+00 -1.2813686525704958e+02 4.2000000000000000e+03 1.2000000000000000e+01 1.4000000000000000e+01 2.5000000000000000e+00 
146 2 4 2.2559723595316457e+00 -1.0933495109631863e+03 4.2000000000000000e+03 1.4000000000000000e+01 1.0000000000000000e+01 2.5000000000000000e+00 
147 2 4 2.2559723595316457e+00 -1.5479329744151462e+03 4.2000000000000000e+03 1.4000000000000000e+01 1.2000000000000000e+01 2.5000000000000000e+00 
148 2 4 2.2559723595316457e+00 -1.6264446450451464e+03 4.2000000000000000e+03 1.4000000000000000e+01 1.4000000000000000e+01 2.5000000000000000e+00 
166 2 4 2.2559723595316457e+00 -3.0030685644083883e+03 4.2000000000000000e+03 1.6000000000000000e+01 1.0000000000000000e+01 2.5000000000000000e+00 
167 2 4 2.2559723595316457e+00 -4.2438584339091676e+03 4.2000000000000000e+03 1.6000000000000000e+01 1.2000000000000000e+01 2.5000000000000000e+00 
168 2 4 2.2559723595316457e+00 -4.4588488934369898e+03 4.2000000000000000e+03 1.6000000000000000e+01 1.4000000000000000e+01 2.5000000000000000e+00 
186 2 4 2.2559723595316457e+00 -4.2263648128760642e+03 4.2000000000000000e+03 1.8000000000000000e+01 1.0000000000000000e+01 2.5000000000000000e+00 
187 2 4 2.2559723595316457e+00 -5.9607333917719016e+03 4.2000000000000000e+03 1.8000000000000000e+01 1.2000000000000000e+01 2.5000000000000000e+00 
188 2 4 2.2559723595316457e+00 -6.2274719601689148e+03 4.2000000000000000e+03 1.8000000000000000e+01 1.4000000000000000e+01 2.5000000000000000e+00 
9 2 4 2.2559723595316457e+00 8.5645780024641316e-01 4.2000000000000000e+03 0.0000000000000000e+00 1.6000000000000000e+01 2.5000000000000000e+00 
10 2 4 2.2559723595316457e+00 9.4358627541846296e-01 4.2000000000000000e+03 0.0000000000000000e+00 1.8000000000000000e+01 2.5000000000000000e+00 
29 2 4 2.2559723595316457e+00 8.1354061453668414e-01 4.2000000000000000e+03 2.0000000000000000e+00 1.6000000000000000e+01 2.5000000000000000e+00 
30 2 4 2.2559723595316457e+00 9.9622396976744476e-01 4.2000000000000000e+03 2.0000000000000000e+00 1.8000000000000000e+01 2.5000000000000000e+00 
49 2 4 2.2559723595316457e+00 9.6867140011004615e-01 4.2000000000000000e+03 4.0000000000000000e+00 1.6000000000000000e+01 2.5000000000000000e+00 
50 2 4 2.2559723595316457e+00 1.0001501897771781e+00 4.2000000000000000e+03 4.0000000000000000e+00 1.8000000000000000e+01 2.5000000000000000e+00 
69 2 4 2.2559723595316457e+00 9.9774416196924198e-01 4.2000000000000000e+03 6.0000000000000000e+00 1.6000000000000000e+01 2.5000000000000000e+00 
70 2 4 2.2559723595316457e+00 9.9967194063178955e-01 4.2000000000000000e+03 6.0000000000000000e+00 1.8000000000000000e+01 2.5000000000000000e+00 
89 2 4 2.2559723595316457e+00 9.7440857819442961e-01 4.2000000000000000e+03 8.0000000000000000e+00 1.6000000000000000e+01 2.5000000000000000e+00 
90 2 4 2.2559723595316457e+00 9.9827511738456698e-01 4.2000000000000000e+03 8.0000000000000000e+00 1.8000000000000000e+01 2.5000000000000000e+00 
109 2 4 2.2559723595316457e+00 9.2876225412362468e-01 4.2000000000000000e+03 1.0000000000000000e+01 1.6000000000000000e+01 2.5000000000000000e+00 
110 2 4 2.2559723595316457e+00 9.9985699988001464e-01 4.2000000000000000e+03 1.0000000000000000e+01 1.8000000000000000e+01 2.5000000000000000e+00 
129 2 4 2.2559723595316457e+00 -1.2853665551556907e+02 4.2000000000000000e+03 1.2000000000000000e+01 1.6000000000000000e+01 2.5000000000000000e+00 
130 2 4 2.2559723595316457e+00 -1.2838395849183735e+02 4.2000000000000000e+03 1.2000000000000000e+01 1.8000000000000000e+01 2.5000000000000000e+00 
149 2 4 2.2559723595316457e+00 -1.6313002552917826e+03 4.2000000000000000e+03 1.4000000000000000e+01 1.6000000000000000e+01 2.5000000000000000e+00 
150 2 4 2.2559723595316457e+00 -1.6295162604516736e+03 4.2000000000000000e+03 1.4000000000000000e+01 1.8000000000000000e+01 2.5000000000000000e+00 
169 2 4 2.2559723595316457e+00 -4.4657543446330128e+03 4.2000000000000000e+03 1.6000000000000000e+01 1.6000000000000000e+01 2.5000000000000000e+00 
170 2 4 2.2559723595316457e+00 -4.4648023284756136e+03 4.2000000000000000e+03 1.6000000000000000e+01 1.8000000000000000e+01 2.5000000000000000e+00 
189 2 4 2.2559723595316457e+00 -6.2194901755550236e+03 4.2000000000000000e+03 1.8000000000000000e+01 1.6000000000000000e+01 2.5000000000000000e+00 
190 2 4 2.2559723595316457e+00 -6.2354156348764764e+03 4.2000000000000000e+03 1.8000000000000000e+01 1.8000000000000000e+01 2.5000000000000000e+00 
474 76 2 1.0280000509813576e+00 -6.0331577876351901e+02 4.2000000000000000e+03 1.1883484816798447e+01 1.4870521383562620e+01 8.0905648244503453e+01 
1325 927 2 1.0279998393664347e+00 1.1083228209022634e+03 4.2000000000000000e+03 2.2340971980328135e+00 1.6183176993587331e+01 7.7417664680026377e+01 
1188 790 2 1.0279996949447714e+00 -4.8143496004322361e+02 4.2000000000000000e+03 2.1240030949661008e+00 1.6117704822563290e+01 7.7450991210454490e+01 
1042 644 2 1.0279997005726906e+00 2.8215953167199482e+03 4.2000000000000000e+03 2.1469885864027374e+00 1.6106475590314666e+01 7.7454648735995633e+01 
854 456 2 1.0279996891984746e+00 -1.2250683232743481e+03 4.2000000000000000e+03 2.1174603537830703e+00 1.6112930345973599e+01 7.7455361372009435e+01 
1592 1194 2 1.0279997048792346e+00 5.2079462478790101e+03 4.2000000000000000e+03 2.1767221291258889e+00 1.6044736142133551e+01 7.7499560729405800e+01 
630 232 2 1.0279998063911868e+00 -2.1985177734483359e+03 4.2000000000000000e+03 2.4615815043047675e+00 1.5869368864255128e+01 7.7643057569120870e+01 
848 450 2 1.0279998232847203e+00 1.5358401793723415e+03 4.2000000000000000e+03 2.6167579343623513e+00 1.5812617834960749e+01 7.7688296964355288e+01 
1678 1280 2 1.0279998419280116e+00 4.5804636588712623e+02 4.2000000000000000e+03 2.6302169402232081e+00 1.5778682897439479e+01 7.7750153650206684e+01 
1364 966 2 1.0279998507910559e+00 3.0210654508106909e+03 4.2000000000000000e+03 2.5724835561114254e+00 1.5790911183970520e+01 7.7754584753027430e+01 
1612 1214 2 1.0280000278851296e+00 3.8726123053377837e+03 4.2000000000000000e+03 3.9315999678917266e+00 1.6192361409662862e+01 7.7818261719993799e+01 
2035 1637 2 1.0279998544678990e+00 -3.4734003730879334e+02 4.2000000000000000e+03 2.6560774296160568e+00 1.5756312079079368e+01 7.7792482816673754e+01 
1968 1570 2 1.0280000295444549e+00 -7.4083763617693339e+03 4.2000000000000000e+03 4.0144376325212088e+00 1.6219848668042882e+01 7.7851135124216540e+01 
2066 1668 2 1.0280000730063841e+00 -4.3116689779683259e+02 4.2000000000000000e+03 4.1548499961248391e+00 1.6391362115096086e+01 7.7907507530629303e+01 
1920 1522 2 1.0279998656561944e+00 -6.6307368813413541e+03 4.2000000000000000e+03 2.8143734950547170e+00 1.5682710462455166e+01 7.7911934495251131e+01 
1178 780 2 1.0279998772352559e+00 -2.7380742299823669e+03 4.2000000000000000e+03 2.8456536159719583e+00 1.5661483402234520e+01 7.7979058882529316e+01 
1581 1183 2 1.0279998120866527e+00 -4.8201107514780997e+03 4.2000000000000000e+03 3.3963697878608241e+00 1.5572969061331783e+01 7.8042181909191797e+01 
1913 1515 2 1.0279998497768146e+00 -7.0194820671761036e+03 4.2000000000000000e+03 3.0616413428416283e+00 1.5588213557376784e+01 7.8103531788043057e+01 
1452 1054 2 1.0279998089173741e+00 7.9973627284672864e+02 4.2000000000000000e+03 3.2990289502291157e+00 1.5542342003178772e+01 7.8133655869936788e+01 
1813 1415 2 1.0279998384541840e+00 -1.6977401496243046e+03 4.2000000000000000e+03 3.1520291093002282e+00 1.5556793277382617e+01 7.8204999266268757e+01 
815 417 2 1.0280009673637822e+00 1.2298452724387130e+03 4.2000000000000000e+03 4.3589776079281171e+00 1.7507135464463591e+01 7.8430777724577851e+01 
699 301 2 1.0280006405187292e+00 -1.0150927758493806e+03 4.2000000000000000e+03 4.7964250321753950e+00 1.7642297414311109e+01 7.8538977241353635e+01 
2053 1655 2 1.0279996628141974e+00 -1.9119583610418840e+03 4.2000000000000000e+03 4.5370111258975845e+00 1.5591070945195463e+01 7.8605920506845806e+01 
556 158 2 1.0279996908557145e+00 6.6149890718620654e+03 4.2000000000000000e+03 3.6572867777510121e+00 1.5448611785116087e+01 7.8667891919447243e+01 
1665 1267 2 1.0279996728145422e+00 8.7026113500777785e+02 4.2000000000000000e+03 3.7093526796160865e+00 1.5438917618178532e+01 7.8682097113397475e+01 
2009 1611 2 1.0279996963425273e+00 -6.7669277273541302e+03 4.2000000000000000e+03 3.6368967204106530e+00 1.5459009635738665e+01 7.8705809066444260e+01 
1175 777 2 1.0279995752028033e+00 -5.4723814458395339e+02 4.2000000000000000e+03 4.8679930615121298e+00 1.5644632287026221e+01 7.8862147241390900e+01 
1184 786 2 1.0279996013828820e+00 -2.3690090613659586e+03 4.2000000000000000e+03 3.8706000939733385e+00 1.5424204231183419e+01 7.8834028023676979e+01 
1335 937 2 1.0279999472497590e+00 -1.8897797533506520e+02 4.2000000000000000e+03 3.6289430114084711e+00 1.5872481367975020e+01 7.9237688291592306e+01 
1201 803 2 1.0279990673588322e+00 -6.5966471895514212e+02 4.2000000000000000e+03 4.6738065308779886e+00 1.5471595571361073e+01 7.9560815354925793e+01 
723 325 2 1.0279987333298528e+00 -9.6656239055007200e+02 4.2000000000000000e+03 4.9821913301379963e+00 1.5532736895444007e+01 7.9817513841809401e+01 
429 31 2 1.0279996947345034e+00 -7.2450631712529848e+03 4.2000000000000000e+03 5.1000690825276660e+00 1.5900556480276487e+01 7.8794527419880168e+01 
1758 1360 2 1.0279999939364488e+00 1.9328072889374155e+03 4.2000000000000000e+03 5.5420721049807682e+00 1.7018738063954515e+01 7.8793037455027630e+01 
1748 1350 2 1.0280001746681040e+00 -1.1111103001329569e+04 4.2000000000000000e+03 5.8061347717353726e+00 1.7775244811558348e+01 7.9020619656052020e+01 
715 317 2 1.0280001947830339e+00 -2.2472688663893132e+02 4.2000000000000000e+03 6.3470423686612643e+00 1.9461441907888613e+01 7.9266102108325484e+01 
1019 621 2 1.0280000963073939e+00 -6.4118195248118639e+02 4.2000000000000000e+03 6.6041321535477913e+00 1.9808635755203017e+01 7.9386767644364582e+01 
1523 1125 2 1.0280000902457185e+00 -6.4121819618547590e+02 4.2000000000000000e+03 6.6022265229493993e+00 1.9856824259102510e+01 7.9387961253476192e+01 
658 260 2 1.0280002606250767e+00 -6.1065650078600866e+03 4.2000000000000000e+03 6.5553031139105018e+00 1.8311025761138552e+01 7.9548876926771840e+01 
1627 1229 2 1.0280002773834258e+00 2.3216033094355948e+03 4.2000000000000000e+03 6.4835079956594948e+00 1.8024177206638754e+01 7.9554882128116432e+01 
675 277 2 1.0279998115445499e+00 -2.1800848974497349e+03 4.2000000000000000e+03 7.3808092375314187e+00 1.9890521398551755e+01 7.9889703367659479e+01 
1851 1453 2 1.0279998656806499e+00 -2.1798462284107300e+03 4.2000000000000000e+03 7.3810156819333814e+00 1.9643743010486521e+01 7.9894329292427159e+01 
2073 1675 2 1.0279979492710483e+00 9.7353935172237434e+03 4.2000000000000000e+03 5.5646897329291853e+00 1.5660571578224916e+01 8.0163008823217808e+01 
791 393 2 1.0279993485914518e+00 -2.3552736399565892e+03 4.2000000000000000e+03 7.9588890574814020e+00 1.9764896033666865e+01 8.0325103138583415e+01 
1631 1233 2 1.0280008838678425e+00 -2.3583891364911551e+03 4.2000000000000000e+03 7.2668099303252855e+00 1.8106701665643048e+01 8.0481294424950079e+01 
443 45 2 1.0280023834898324e+00 9.6482626655329867e+01 4.2000000000000000e+03 7.1148793022717394e+00 1.7883789341539856e+01 8.0494432695682306e+01 
892 494 2 1.0279993944804604e+00 -1.6076420273760980e+03 4.2000000000000000e+03 7.8501965723852312e+00 1.8600863239162418e+01 8.0668102885463895e+01 
690 292 2 1.0279989844457131e+00 -3.6992559816352532e+03 4.2000000000000000e+03 8.0718600135297631e+00 1.8461752772284541e+01 8.0889490401033171e+01 
633 235 2 1.0280001250333382e+00 3.8672945839718591e+03 4.2000000000000000e+03 1.1609665585862990e+01 1.9124302599813927e+01 8.0918828849326985e+01 
1089 691 2 1.0280001288050464e+00 9.1112797360903187e+03 4.2000000000000000e+03 1.2924605914892883e+01 1.9119271775658692e+01 8.0925910427998716e+01 
1351 953 2 1.0280001258307305e+00 -1.7676871836299731e+03 4.2000000000000000e+03 1.2963224675123328e+01 1.9127643270871637e+01 8.0933076509650732e+01 
1564 1166 2 1.0279999219246678e+00 -2.4369069254372107e+03 4.2000000000000000e+03 1.8963474365940222e+01 8.9649025782440059e+00 8.5643006852009293e+01 
1561 1163 2 1.0279999187204907e+00 -2.4368524624343245e+03 4.2000000000000000e+03 1.8482765324790254e+01 8.9629500748243469e+00 8.5657549378889172e+01 
1164 766 2 1.0279999209392126e+00 6.7495628990116541e+02 4.2000000000000000e+03 1.9113971573706650e+01 8.9357442771629554e+00 8.5671241407338400e+01 
1161 763 2 1.0279999131093103e+00 6.7472253887551017e+02 4.2000000000000000e+03 1.8270768246263223e+01 8.9579984617069002e+00 8.5685660917173323e+01 
904 506 2 1.0279999778974565e+00 6.0535901118130960e+02 4.2000000000000000e+03 4.7446848114479581e+00 1.3646872990661244e+01 8.3461599522347228e+01 
1186 788 2 1.0279998842068829e+00 -1.1116646435658661e+03 4.2000000000000000e+03 4.3517285542344881e+00 1.3339967535156287e+01 8.3528092185906203e+01 
1767 1369 2 1.0279999349180111e+00 2.0803622225414119e+03 4.2000000000000000e+03 4.4783007889992108e+00 1.3639062748030435e+01 8.3610280376122518e+01 
1943 1545 2 1.0279999572784797e+00 5.8864164505433973e+03 4.2000000000000000e+03 3.9726415077740982e+00 1.2476565321583408e+01 8.3692777157820288e+01 
1683 1285 2 1.0279999224287220e+00 1.0733049940972492e+03 4.2000000000000000e+03 4.3250611736744586e+00 1.3629092823591987e+01 8.3701337547877444e+01 
958 560 2 1.0279999131938322e+00 -2.0072547093532614e+03 4.2000000000000000e+03 4.0730307394281242e+00 1.3595930571738583e+01 8.3853961646958780e+01 
559 161 2 1.0279998947934896e+00 -1.2334489676619769e+03 4.2000000000000000e+03 3.5381358567123371e+00 1.3140865004790943e+01 8.3964335462361547e+01 
721 323 2 1.0279999701481439e+00 2.7370706943737355e+03 4.2000000000000000e+03 3.0356480318536740e+00 1.2257510137209300e+01 8.4327326401761951e+01 
1531 1133 2 1.0280000115345520e+00 -2.4088309783998648e+03 4.2000000000000000e+03 3.7263238610687410e+00 1.1027783094329077e+01 8.5223853619552997e+01 
1098 700 2 1.0279999798624708e+00 2.6819181647449304e+03 4.2000000000000000e+03 2.9760549213631724e+00 1.3316778448781545e+01 8.5301338455359925e+01 
1896 1498 2 1.0280000536171350e+00 -2.7023128598558646e+03 4.2000000000000000e+03 4.9941817444598477e+00 1.1793673024534089e+01 8.4031564617325287e+01 
550 152 2 1.0279999929375028e+00 2.2313555210118116e+03 4.2000000000000000e+03 2.6297042330919527e+00 1.2682613179386852e+01 8.5672013641712198e+01 
961 563 2 1.0279999903801587e+00 1.4264574778510898e+03 4.2000000000000000e+03 2.7844576115813102e+00 1.2990781882187992e+01 8.5679721750400759e+01 
746 348 2 1.0279998712363796e+00 -9.9157033585446115e+03 4.2000000000000000e+03 9.6267941981126128e+00 1.3790675094861097e+01 8.1437685121718403e+01 
1790 1392 2 1.0279998747348444e+00 4.2913295182746452e+02 4.2000000000000000e+03 9.5854207899107902e+00 1.3768229335215500e+01 8.1468437139196908e+01 
1656 1258 2 1.0279998864788380e+00 2.2042681586361496e+02 4.2000000000000000e+03 9.4737171263964477e+00 1.3782393685043884e+01 8.1499813426506677e+01 
1918 1520 2 1.0279999020059307e+00 -6.3168779540407786e+03 4.2000000000000000e+03 9.3257170075867748e+00 1.3806801620812429e+01 8.1534625329780326e+01 
1444 1046 2 1.0279999109401361e+00 -2.5360155727462948e+03 4.2000000000000000e+03 9.2341861914707906e+00 1.3864572957669715e+01 8.1523047653741926e+01 
510 112 2 1.0279999439994179e+00 -1.3577015650154908e+03 4.2000000000000000e+03 8.8064982777227385e+00 1.3911784800304220e+01 8.1616294611204694e+01 
411 13 2 1.0279999607126127e+00 -6.3340658970468521e+03 4.2000000000000000e+03 8.6840258340240091e+00 1.3783495310946858e+01 8.1767012921471917e+01 
1643 1245 2 1.0279999987768094e+00 5.6046973100832001e+03 4.2000000000000000e+03 8.0706346044923833e+00 1.3775737644670221e+01 8.1972153808753035e+01 
925 527 2 1.0279995539034907e+00 4.6762794111059638e+03 4.2000000000000000e+03 6.4421503930149067e+00 1.4684541107032494e+01 8.1991407898365523e+01 
1984 1586 2 1.0279996739951522e+00 -2.5693337887042371e+03 4.2000000000000000e+03 6.4003923790268997e+00 1.4614672426907680e+01 8.2110265989694042e+01 
623 225 2 1.0279998615883010e+00 -1.0640006946847179e+03 4.2000000000000000e+03 9.8484699792677333e+00 1.3919797046453478e+01 8.1287072996400482e+01 
1583 1185 2 1.0280001869128348e+00 -6.4255103567373344e+03 4.2000000000000000e+03 6.9902349154287053e+00 1.3636553028281801e+01 8.2556312810295850e+01 
870 472 2 1.0280003665589668e+00 4.7016312634373417e+03 4.2000000000000000e+03 6.0242318194763866e+00 1.3948761721005555e+01 8.2794836289839196e+01 
1414 1016 2 1.0280003808855880e+00 -8.6172404563967866e+03 4.2000000000000000e+03 5.9709998157884661e+00 1.4170624259744068e+01 8.2825024062481518e+01 
1320 922 2 1.0280003398965107e+00 -2.1233200001040832e+03 4.2000000000000000e+03 5.6793840040360255e+00 1.3666669987748444e+01 8.3037262477207818e+01 
1007 609 2 1.0280001656863631e+00 2.2612952510648311e+03 4.2000000000000000e+03 5.3267445753325653e+00 1.3380661643910425e+01 8.3191342702936808e+01 
978 580 2 1.0280002324398438e+00 3.1290867894674766e+03 4.2000000000000000e+03 5.3682116186555184e+00 1.3736703764677703e+01 8.3180259734719371e+01 
533 135 2 1.0280000448702034e+00 -4.4699018119822258e+03 4.2000000000000000e+03 5.0027504772470301e+00 1.3590127591676517e+01 8.3311914168461598e+01 
1363 965 2 1.0280006114047358e+00 -1.5666284089503731e+03 4.2000000000000000e+03 6.1844505816391351e+00 1.4612238917391432e+01 8.4083889695650726e+01 
984 586 2 1.0279998706378006e+00 6.6448781691855329e+03 4.2000000000000000e+03 5.0794908245611250e+00 1.1022640767366994e+01 8.5174867270636881e+01 
428 30 2 1.0280005642499852e+00 -2.8572231292885613e+03 4.2000000000000000e+03 7.1119915491442862e+00 1.4051674408968559e+01 8.5271522693983783e+01 
751 353 2 1.0279991398122175e+00 1.8135019911757236e+03 4.2000000000000000e+03 7.2804062755452348e+00 1.2144218235409488e+01 8.5507471776082312e+01 
1298 900 2 1.0280000832837319e+00 -9.9797486231061077e+02 4.2000000000000000e+03 7.9413597512055523e+00 1.3903182981382345e+01 8.5499824715492622e+01 
738 340 2 1.0279999462291631e+00 -3.6991061900716539e+02 4.2000000000000000e+03 8.6273237439608295e+00 1.4591592408430779e+01 8.5557520670671707e+01 
963 565 2 1.0279998297199653e+00 4.7883647090683141e+01 4.2000000000000000e+03 1.1120913165444586e+01 1.3473666390140364e+01 8.1051656166682847e+01 
1458 1060 2 1.0279998248140600e+00 6.4120809348265211e+03 4.2000000000000000e+03 1.1262505782663949e+01 1.3302945535098965e+01 8.1096611261070933e+01 
473 75 2 1.0279999235809578e+00 -3.2271411424598809e+03 4.2000000000000000e+03 1.0668808630497205e+01 1.4408685185905151e+01 8.0959121779654751e+01 
527 129 2 1.0279998287536580e+00 2.9351007801131878e+01 4.2000000000000000e+03 1.1580458181268005e+01 1.3013252017745256e+01 8.1196066258847637e+01 
902 504 2 1.0279998669695192e+00 -4.4975213160775111e+03 4.2000000000000000e+03 1.0500527474286658e+01 1.4061464631639087e+01 8.1039060963566769e+01 
1427 1029 2 1.0279998785756264e+00 1.4357846018546474e+04 4.2000000000000000e+03 1.2773485288447931e+01 1.2643120547459946e+01 8.1420652659130354e+01 
1777 1379 2 1.0280001118247892e+00 1.4860531787254413e+03 4.2000000000000000e+03 1.3427652757541271e+01 1.4362141635986292e+01 8.1392072075301201e+01 
858 460 2 1.0279998406815722e+00 2.2800393644366263e+03 4.2000000000000000e+03 1.2248775326852829e+01 1.2545927186938162e+01 8.1505157087813814e+01 