LAMMPS data file via write_data, version 30 Jul 2016, timestep = 50400000

180 atoms
2 atom types

0.0000000000000000e+00 2.0000000000000000e+01 xlo xhi
0.0000000000000000e+00 2.0000000000000000e+01 ylo yhi
0.0000000000000000e+00 2.0000000000000000e+01 zlo zhi

Masses

1 3.896
2 4.31

Atoms # meso-molecular

150 1 2 1.0280081004752604e+00 -1.1265233482631014e+02 1.0000000000000000e+00 2.4448582314437091e+00 1.3583878761158585e-01 4.4907966287085239e+00 
15 1 2 1.0280081004081918e+00 -2.1788871832382046e+02 1.0000000000000000e+00 2.4448590593169044e+00 1.3583190214307148e-01 4.4907978152706782e+00 
46 1 2 1.0280081004776256e+00 -1.5558967691984492e+02 1.0000000000000000e+00 2.4448582023386418e+00 1.3583903096440794e-01 4.4907965867638220e+00 
30 1 2 1.0280081005062114e+00 -2.4430769293368286e+02 1.0000000000000000e+00 2.4448578502799685e+00 1.3584196652023195e-01 4.4907960808540670e+00 
156 1 2 1.0280081003840476e+00 -1.3084750783832880e+02 1.0000000000000000e+00 2.4448593603292079e+00 1.3582942118542432e-01 4.4907982426624216e+00 
70 1 2 1.0279960699658444e+00 -1.5353349500860512e+02 1.0000000000000000e+00 2.3532753682018464e+00 8.9667239456744396e-01 5.3996609966705709e+00 
114 1 2 1.0279893393561830e+00 -1.8467320456298324e+02 1.0000000000000000e+00 2.6840215393901445e+00 4.5935189231600870e-01 6.1705094815257970e+00 
149 1 2 1.0279893393561828e+00 -2.9510767007317190e+02 1.0000000000000000e+00 2.6840215393899771e+00 4.5935189231604134e-01 6.1705094815258956e+00 
26 1 2 1.0279893393561830e+00 -1.9638305146932504e+02 1.0000000000000000e+00 2.6840215393899789e+00 4.5935189231599499e-01 6.1705094815259383e+00 
134 1 2 1.0280574794165316e+00 -2.2546678148750749e+02 1.0000000000000000e+00 3.6794074945383688e+00 6.6431202028156724e+00 6.3613308421313741e+00 
159 1 2 1.0280574794165331e+00 -1.3688514266162210e+02 1.0000000000000000e+00 3.6794074945383817e+00 6.6431202028156662e+00 6.3613308421313590e+00 
165 1 2 1.0280574794165331e+00 -1.3127013377235033e+02 1.0000000000000000e+00 3.6794074945383768e+00 6.6431202028156617e+00 6.3613308421313732e+00 
127 1 2 1.0280574794165316e+00 -2.0665408478181826e+02 1.0000000000000000e+00 3.6794074945383688e+00 6.6431202028156724e+00 6.3613308421313741e+00 
102 1 2 1.0280574794165320e+00 -2.3366213564044673e+02 1.0000000000000000e+00 3.6794074945383710e+00 6.6431202028156928e+00 6.3613308421313501e+00 
34 1 2 1.0280574794165331e+00 -2.7770238394697884e+02 1.0000000000000000e+00 3.6794074945383768e+00 6.6431202028156617e+00 6.3613308421313732e+00 
59 1 2 1.0280574794165314e+00 -2.0679523728010020e+02 1.0000000000000000e+00 3.6794074945383701e+00 6.6431202028156848e+00 6.3613308421313581e+00 
4 1 2 1.0279602515442159e+00 -1.3586044868221262e+02 1.0000000000000000e+00 5.2780184189887240e+00 9.6332823515740689e+00 6.5146288242056496e+00 
75 1 2 1.0279602515442161e+00 -6.8324992732390143e+01 1.0000000000000000e+00 5.2780184189887311e+00 9.6332823515740689e+00 6.5146288242056558e+00 
76 1 2 1.0279602515442161e+00 -8.0525005370148705e+01 1.0000000000000000e+00 5.2780184189887231e+00 9.6332823515740724e+00 6.5146288242056754e+00 
10 1 2 1.0279602515442159e+00 -1.8068960271912732e+02 1.0000000000000000e+00 5.2780184189887240e+00 9.6332823515740689e+00 6.5146288242056496e+00 
33 1 2 1.0279602515442161e+00 -2.3256222231590635e+02 1.0000000000000000e+00 5.2780184189887311e+00 9.6332823515740689e+00 6.5146288242056558e+00 
153 1 2 1.0279602515442159e+00 -2.1038699399039706e+02 1.0000000000000000e+00 5.2780184189887240e+00 9.6332823515740689e+00 6.5146288242056496e+00 
3 1 2 1.0279602515442161e+00 -7.2161000843783512e+01 1.0000000000000000e+00 5.2780184189887311e+00 9.6332823515740689e+00 6.5146288242056558e+00 
139 1 2 1.0280212275971692e+00 -2.3163425834740931e+02 1.0000000000000000e+00 2.9930328461800215e-01 2.0777490957224769e+00 7.6560581564369521e+00 
65 1 2 1.0280212275971701e+00 -1.7401933570214439e+02 1.0000000000000000e+00 2.9930328461903022e-01 2.0777490957231590e+00 7.6560581564370516e+00 
28 1 2 1.0280212275971696e+00 -1.8107081209040646e+02 1.0000000000000000e+00 2.9930328461769112e-01 2.0777490957222602e+00 7.6560581564364512e+00 
104 1 2 1.0280212275971696e+00 -2.6647145897522279e+02 1.0000000000000000e+00 2.9930328461769112e-01 2.0777490957222602e+00 7.6560581564364512e+00 
105 1 2 1.0280212275971701e+00 -2.3071312886967706e+02 1.0000000000000000e+00 2.9930328461779221e-01 2.0777490957223312e+00 7.6560581564366554e+00 
98 1 2 1.0280212275971696e+00 -2.6275177066750922e+02 1.0000000000000000e+00 2.9930328461769112e-01 2.0777490957222602e+00 7.6560581564364512e+00 
135 1 2 1.0280212275971696e+00 -2.0845845013886256e+02 1.0000000000000000e+00 2.9930328461897543e-01 2.0777490957231555e+00 7.6560581564387258e+00 
32 1 2 1.0279066224823090e+00 -1.6127323283568896e+02 1.0000000000000000e+00 2.5972211270835532e+00 5.6938473975430473e+00 9.6475555767518220e+00 
29 1 2 1.0279066225094005e+00 -1.4947625428173930e+02 1.0000000000000000e+00 2.5972212458896577e+00 5.6938474848424381e+00 9.6475556736894319e+00 
40 1 2 1.0279066225072013e+00 -1.4399295427548449e+02 1.0000000000000000e+00 2.5972212472914524e+00 5.6938474902928098e+00 9.6475556710846497e+00 
69 1 2 1.0279066224823088e+00 -1.9843316507494453e+02 1.0000000000000000e+00 2.5972211270835297e+00 5.6938473975430464e+00 9.6475555767517900e+00 
111 1 2 1.0279066225190288e+00 -2.2989328806032734e+02 1.0000000000000000e+00 2.5972212818807332e+00 5.6938475087918539e+00 9.6475557051731666e+00 
45 1 2 1.0279066225190288e+00 -9.6764597780103827e+01 1.0000000000000000e+00 2.5972212818807110e+00 5.6938475087918432e+00 9.6475557051731435e+00 
39 1 2 1.0279066225190288e+00 -1.0068293432169565e+02 1.0000000000000000e+00 2.5972212818807332e+00 5.6938475087918539e+00 9.6475557051731666e+00 
97 1 2 1.0280898426440634e+00 -2.2495403300800038e+02 1.0000000000000000e+00 5.0863973038799939e+00 3.8607294528933194e+00 8.5114544693736178e+00 
61 1 2 1.0280898426440632e+00 -2.1100416167645167e+02 1.0000000000000000e+00 5.0863973038795551e+00 3.8607294528929770e+00 8.5114544693735290e+00 
55 1 2 1.0280898426440634e+00 -1.5996586465377450e+02 1.0000000000000000e+00 5.0863973038799939e+00 3.8607294528933194e+00 8.5114544693736178e+00 
21 1 2 1.0280898426440637e+00 -2.3311983060258515e+02 1.0000000000000000e+00 5.0863973038797479e+00 3.8607294528930796e+00 8.5114544693737209e+00 
79 1 2 1.0280898426440632e+00 -1.1919534184469660e+02 1.0000000000000000e+00 5.0863973038795551e+00 3.8607294528929770e+00 8.5114544693735290e+00 
49 1 2 1.0280898426440632e+00 -1.5038714240257849e+02 1.0000000000000000e+00 5.0863973038795551e+00 3.8607294528929770e+00 8.5114544693735290e+00 
73 1 2 1.0280898426440637e+00 -1.1544204151469370e+02 1.0000000000000000e+00 5.0863973038794654e+00 3.8607294528928309e+00 8.5114544693737475e+00 
64 1 2 1.0279997863083543e+00 -1.7441558708994845e+02 1.0000000000000000e+00 3.6655274663890123e+00 1.2629823379056738e+01 6.2504950856496122e-01 
100 1 2 1.0279997863083543e+00 -1.5774856536142752e+02 1.0000000000000000e+00 3.6655274663890123e+00 1.2629823379056738e+01 6.2504950856496122e-01 
57 1 2 1.0279997863083543e+00 -1.5883820302652410e+02 1.0000000000000000e+00 3.6655274663890123e+00 1.2629823379056738e+01 6.2504950856496122e-01 
99 1 2 1.0279997863083543e+00 -1.5467334810465050e+02 1.0000000000000000e+00 3.6655274663890123e+00 1.2629823379056738e+01 6.2504950856496122e-01 
63 1 2 1.0279997863083543e+00 -1.7413621013181307e+02 1.0000000000000000e+00 3.6655274663890123e+00 1.2629823379056738e+01 6.2504950856496122e-01 
41 1 2 1.0279997863083543e+00 -2.3968577099022332e+02 1.0000000000000000e+00 3.6655274663890123e+00 1.2629823379056738e+01 6.2504950856496122e-01 
93 1 2 1.0279997863083543e+00 -1.5808166706141941e+02 1.0000000000000000e+00 3.6655274663890123e+00 1.2629823379056738e+01 6.2504950856496122e-01 
83 1 2 1.0279999116300600e+00 -1.7669658992280671e+02 1.0000000000000000e+00 4.5601276680080133e-01 1.0859616782417095e+01 5.2314487760739068e+00 
54 1 2 1.0279999116300600e+00 -2.3223482544059510e+02 1.0000000000000000e+00 4.5601276680079056e-01 1.0859616782417092e+01 5.2314487760739183e+00 
12 1 2 1.0279999116300600e+00 -2.9021308860846000e+02 1.0000000000000000e+00 4.5601276680080471e-01 1.0859616782417088e+01 5.2314487760739059e+00 
18 1 2 1.0279999116300600e+00 -2.7927785214837894e+02 1.0000000000000000e+00 4.5601276680080133e-01 1.0859616782417095e+01 5.2314487760739068e+00 
20 1 2 1.0279999116300600e+00 -1.9208098865837320e+02 1.0000000000000000e+00 4.5601276680080133e-01 1.0859616782417095e+01 5.2314487760739068e+00 
11 1 2 1.0279999116300600e+00 -2.7931466842079953e+02 1.0000000000000000e+00 4.5601276680080471e-01 1.0859616782417088e+01 5.2314487760739059e+00 
48 1 2 1.0279999116300600e+00 -2.0732800849760355e+02 1.0000000000000000e+00 4.5601276680080133e-01 1.0859616782417095e+01 5.2314487760739068e+00 
25 1 2 1.0279920147022832e+00 -2.3836434656598556e+02 1.0000000000000000e+00 1.9425019471332533e-01 1.7612410178447384e+01 6.5062401905581853e+00 
60 1 2 1.0279920147253205e+00 -2.0001333100732697e+02 1.0000000000000000e+00 1.9425009169143789e-01 1.7612410275307123e+01 6.5062403334384102e+00 
19 1 2 1.0279920147023058e+00 -2.2042292080335667e+02 1.0000000000000000e+00 1.9425019462200244e-01 1.7612410178530734e+01 6.5062401906876683e+00 
14 1 2 1.0279920147022112e+00 -2.0331816446781212e+02 1.0000000000000000e+00 1.9425019495829279e-01 1.7612410178221758e+01 6.5062401902129876e+00 
147 1 2 1.0279920147229020e+00 -2.0153422781694886e+02 1.0000000000000000e+00 1.9425010289438649e-01 1.7612410264324946e+01 6.5062403184051565e+00 
13 1 2 1.0279920147022816e+00 -1.8656893739338486e+02 1.0000000000000000e+00 1.9425019470999463e-01 1.7612410178450364e+01 6.5062401905629406e+00 
175 1 2 1.0280209283090840e+00 -1.7502449930192512e+02 1.0000000000000000e+00 2.1452166244623800e+00 1.8488556142626830e+01 7.2263849542091458e+00 
35 1 2 1.0280209283090656e+00 -2.1363569143659862e+02 1.0000000000000000e+00 2.1452166204099905e+00 1.8488556121945770e+01 7.2263849526036648e+00 
56 1 2 1.0280209283090842e+00 -2.1308591060364827e+02 1.0000000000000000e+00 2.1452166244623587e+00 1.8488556142626955e+01 7.2263849542092204e+00 
42 1 2 1.0280209283090649e+00 -2.0791815384231739e+02 1.0000000000000000e+00 2.1452166204099488e+00 1.8488556121945791e+01 7.2263849526037367e+00 
169 1 2 1.0280209283090838e+00 -1.6811758924710853e+02 1.0000000000000000e+00 2.1452166244624751e+00 1.8488556142626866e+01 7.2263849542090233e+00 
101 1 2 1.0279710700109095e+00 -2.5106719352406969e+02 1.0000000000000000e+00 3.8473678185045190e-01 1.9433512677341472e+01 9.8499739034364797e+00 
47 1 2 1.0279710700109095e+00 -1.9400013721142818e+02 1.0000000000000000e+00 3.8473678185045190e-01 1.9433512677341472e+01 9.8499739034364797e+00 
24 1 2 1.0279710700109095e+00 -1.3914864235338391e+02 1.0000000000000000e+00 3.8473678185045190e-01 1.9433512677341472e+01 9.8499739034364797e+00 
9 1 2 1.0279710700109095e+00 -1.5225070615069131e+02 1.0000000000000000e+00 3.8473678185045190e-01 1.9433512677341472e+01 9.8499739034364797e+00 
174 1 2 1.0279710700109095e+00 -2.5525437397422422e+02 1.0000000000000000e+00 3.8473678185045190e-01 1.9433512677341472e+01 9.8499739034364797e+00 
96 1 2 1.0279710700109095e+00 -2.1516216607914791e+02 1.0000000000000000e+00 3.8473678185060689e-01 1.9433512677341479e+01 9.8499739034365401e+00 
126 1 2 1.0279710700109095e+00 -2.0028232357291859e+02 1.0000000000000000e+00 3.8473678185045190e-01 1.9433512677341472e+01 9.8499739034364797e+00 
113 1 2 1.0280001143481701e+00 -1.8052390468296591e+02 1.0000000000000000e+00 3.1302759175552158e-01 1.8631584081047372e+01 1.6259597218658765e+01 
23 1 2 1.0280001143481701e+00 -1.5896258057942902e+02 1.0000000000000000e+00 3.1302759175552158e-01 1.8631584081047372e+01 1.6259597218658765e+01 
112 1 2 1.0280001143481701e+00 -2.5461419318818346e+02 1.0000000000000000e+00 3.1302759175552158e-01 1.8631584081047372e+01 1.6259597218658765e+01 
22 1 2 1.0280001143481701e+00 -1.8021726292265686e+02 1.0000000000000000e+00 3.1302759175558159e-01 1.8631584081047446e+01 1.6259597218658783e+01 
119 1 2 1.0280001143481701e+00 -2.0534131822568634e+02 1.0000000000000000e+00 3.1302759175563527e-01 1.8631584081047446e+01 1.6259597218658740e+01 
82 1 2 1.0280001143481701e+00 -1.8132209940931932e+02 1.0000000000000000e+00 3.1302759175562428e-01 1.8631584081047443e+01 1.6259597218658747e+01 
118 1 2 1.0280001143481701e+00 -1.8920167960118266e+02 1.0000000000000000e+00 3.1302759175558159e-01 1.8631584081047446e+01 1.6259597218658783e+01 
163 1 2 1.0279997863083543e+00 -1.8550575640092845e+02 1.0000000000000000e+00 6.6527296433060110e+00 1.2988097860766308e+01 1.9352808951132637e+01 
71 1 2 1.0279997863083545e+00 -1.6972604817634306e+02 1.0000000000000000e+00 6.6527296439786987e+00 1.2988097864204269e+01 1.9352808953680242e+01 
128 1 2 1.0279997863083545e+00 -1.5937363774043428e+02 1.0000000000000000e+00 6.6527296481914897e+00 1.2988097872101998e+01 1.9352808965795887e+01 
133 1 2 1.0279997863083543e+00 -1.8750067572892254e+02 1.0000000000000000e+00 6.6527296433129122e+00 1.2988097860771962e+01 1.9352808951150436e+01 
164 1 2 1.0279997863083530e+00 -1.6958220228721331e+02 1.0000000000000000e+00 6.6527296490299364e+00 1.2988097877732576e+01 1.9352808969350143e+01 
50 1 2 1.0279997863083528e+00 -2.2351615562422850e+02 1.0000000000000000e+00 6.6527296505053952e+00 1.2988097882305977e+01 1.9352808974102395e+01 
170 1 2 1.0279997863083545e+00 -1.5875631161168809e+02 1.0000000000000000e+00 6.6527296448053805e+00 1.2988097866391252e+01 1.9352808956237158e+01 
171 1 2 1.0279886257506652e+00 -2.4363888120722086e+02 1.0000000000000000e+00 6.8594183880248156e+00 6.8531892681007340e+00 7.6520959477554502e+00 
136 1 2 1.0279886257506652e+00 -2.1084569492662760e+02 1.0000000000000000e+00 6.8594183880248156e+00 6.8531892681007340e+00 7.6520959477554502e+00 
88 1 2 1.0279886257506652e+00 -1.0507088735844758e+02 1.0000000000000000e+00 6.8594183880248156e+00 6.8531892681007340e+00 7.6520959477554502e+00 
52 1 2 1.0279886257506652e+00 -1.3149057785571588e+02 1.0000000000000000e+00 6.8594183880248156e+00 6.8531892681007340e+00 7.6520959477554502e+00 
178 1 2 1.0279886257506652e+00 -2.3663462350265698e+02 1.0000000000000000e+00 6.8594183880248156e+00 6.8531892681007340e+00 7.6520959477554502e+00 
143 1 2 1.0279886257506652e+00 -2.0251751798362451e+02 1.0000000000000000e+00 6.8594183880248156e+00 6.8531892681007340e+00 7.6520959477554502e+00 
142 1 2 1.0279886257506652e+00 -2.0159177356513408e+02 1.0000000000000000e+00 6.8594183880248156e+00 6.8531892681007340e+00 7.6520959477554502e+00 
85 1 2 1.0280328236522198e+00 -2.3248681588340790e+02 1.0000000000000000e+00 1.5882669783325566e+01 2.6241819538084523e+00 1.1552696053030189e+00 
121 1 2 1.0280328235952165e+00 -1.6186044329635146e+02 1.0000000000000000e+00 1.5882674405229935e+01 2.6241756768893647e+00 1.1552658523862631e+00 
148 1 2 1.0280328236106313e+00 -2.7617636096382023e+02 1.0000000000000000e+00 1.5882673234282311e+01 2.6241776375438248e+00 1.1552666006986221e+00 
154 1 2 1.0280320984101723e+00 -2.7393251234954613e+02 1.0000000000000000e+00 1.5833011589818300e+01 2.6548582479164167e+00 1.2313640086140427e+00 
58 1 2 1.0279638143997709e+00 -1.8785555871535408e+02 1.0000000000000000e+00 1.5897871129403216e+01 1.7036601569357561e+00 3.0762866858507687e+00 
16 1 2 1.0279638143997707e+00 -1.3560234242657651e+02 1.0000000000000000e+00 1.5897871129403244e+01 1.7036601569357324e+00 3.0762866858507576e+00 
107 1 2 1.0279638143997711e+00 -1.6328860656346245e+02 1.0000000000000000e+00 1.5897871129403212e+01 1.7036601569355678e+00 3.0762866858506825e+00 
53 1 2 1.0279638143997709e+00 -1.0068752068625666e+02 1.0000000000000000e+00 1.5897871129403221e+01 1.7036601569357279e+00 3.0762866858507563e+00 
17 1 2 1.0279638143997709e+00 -1.2929580028602490e+02 1.0000000000000000e+00 1.5897871129403221e+01 1.7036601569357432e+00 3.0762866858507629e+00 
27 1 2 1.0279638143997709e+00 -2.2677298002788882e+02 1.0000000000000000e+00 1.5897871129403560e+01 1.7036601569364251e+00 3.0762866858510654e+00 
109 1 2 1.0279999116300602e+00 -2.2321048628491832e+02 1.0000000000000000e+00 1.8244074432069837e+01 9.9104356066087220e+00 3.0231227061302142e+00 
145 1 2 1.0279999116300602e+00 -2.5369614140579989e+02 1.0000000000000000e+00 1.8244074432069837e+01 9.9104356066087220e+00 3.0231227061302142e+00 
95 1 2 1.0279999116300602e+00 -2.4100886144852805e+02 1.0000000000000000e+00 1.8244074432069837e+01 9.9104356066087220e+00 3.0231227061302142e+00 
158 1 2 1.0279999116300602e+00 -2.3796886223774561e+02 1.0000000000000000e+00 1.8244074432069837e+01 9.9104356066087220e+00 3.0231227061302142e+00 
108 1 2 1.0279999116300602e+00 -2.1447805301062084e+02 1.0000000000000000e+00 1.8244074432069837e+01 9.9104356066087220e+00 3.0231227061302142e+00 
115 1 2 1.0279999116300602e+00 -1.9784305151636886e+02 1.0000000000000000e+00 1.8244074432069439e+01 9.9104356066087629e+00 3.0231227061305916e+00 
146 1 2 1.0279999116300602e+00 -2.2499858149832966e+02 1.0000000000000000e+00 1.8244074432069837e+01 9.9104356066087220e+00 3.0231227061302142e+00 
87 1 2 1.0280001143466218e+00 -1.7047630842904880e+02 1.0000000000000000e+00 1.8621156539042495e+01 5.1893031255508926e-01 1.4199064503875659e+01 
51 1 2 1.0280001143466218e+00 -2.1044879471837817e+02 1.0000000000000000e+00 1.8621156539042499e+01 5.1893031255509048e-01 1.4199064503875658e+01 
84 1 2 1.0280001143466218e+00 -2.0299012177227632e+02 1.0000000000000000e+00 1.8621156539042499e+01 5.1893031255509048e-01 1.4199064503875658e+01 
120 1 2 1.0280001143466218e+00 -2.5649513600374462e+02 1.0000000000000000e+00 1.8621156539042495e+01 5.1893031255508903e-01 1.4199064503875659e+01 
90 1 2 1.0280001143466218e+00 -2.4514352084732053e+02 1.0000000000000000e+00 1.8621156539042495e+01 5.1893031255508926e-01 1.4199064503875659e+01 
81 1 2 1.0280001143466218e+00 -1.8240666210457175e+02 1.0000000000000000e+00 1.8621156539042495e+01 5.1893031255508903e-01 1.4199064503875659e+01 
89 1 2 1.0280001143466218e+00 -2.0943756971138282e+02 1.0000000000000000e+00 1.8621156539042495e+01 5.1893031255508903e-01 1.4199064503875659e+01 
180 1 2 1.0280386283435101e+00 -2.5602433251594675e+02 1.0000000000000000e+00 1.8487476279424168e+01 1.4526876937441622e+00 1.8425376424248810e+01 
173 1 2 1.0280386283435101e+00 -2.0370210611517450e+02 1.0000000000000000e+00 1.8487476279431846e+01 1.4526876937488393e+00 1.8425376424248917e+01 
138 1 2 1.0280386283435108e+00 -2.0662711620524860e+02 1.0000000000000000e+00 1.8487476279428318e+01 1.4526876937425350e+00 1.8425376424256303e+01 
137 1 2 1.0280386283435101e+00 -1.6757642848899303e+02 1.0000000000000000e+00 1.8487476279432126e+01 1.4526876937484379e+00 1.8425376424249940e+01 
172 1 2 1.0280386283435110e+00 -2.0477483590005784e+02 1.0000000000000000e+00 1.8487476279427586e+01 1.4526876937419326e+00 1.8425376424256584e+01 
144 1 2 1.0280386283435101e+00 -2.0260590412044348e+02 1.0000000000000000e+00 1.8487476279429941e+01 1.4526876937473963e+00 1.8425376424249396e+01 
179 1 2 1.0280386283435101e+00 -2.3034165516574569e+02 1.0000000000000000e+00 1.8487476279432610e+01 1.4526876937486455e+00 1.8425376424250096e+01 
122 1 2 1.0279645693216057e+00 -1.1139834296858051e+02 1.0000000000000000e+00 1.6955950227437913e+01 3.9378662056016078e+00 1.9816336227506493e+01 
72 1 2 1.0279645693216060e+00 -2.7680991164980583e+02 1.0000000000000000e+00 1.6955950227437963e+01 3.9378662056015261e+00 1.9816336227506390e+01 
151 1 2 1.0279645693216060e+00 -1.8997039075280253e+02 1.0000000000000000e+00 1.6955950227437910e+01 3.9378662056016061e+00 1.9816336227506490e+01 
86 1 2 1.0279645693216055e+00 -1.3276730754686645e+02 1.0000000000000000e+00 1.6955950227437899e+01 3.9378662056016274e+00 1.9816336227506515e+01 
44 1 2 1.0279645690124217e+00 -2.0251006098177595e+02 1.0000000000000000e+00 1.6955891901936823e+01 3.9379291247747350e+00 1.9816401869296669e+01 
91 1 2 1.0279645690868948e+00 -2.4004975561853695e+02 1.0000000000000000e+00 1.6955906572704411e+01 3.9379143104797829e+00 1.9816387084287697e+01 
5 1 2 1.0279967149288733e+00 -1.9451046710638940e+02 1.0000000000000000e+00 1.5236072505659328e+01 1.4141004980311367e+01 1.4983091349308273e+00 
92 1 2 1.0279967149288625e+00 -2.4830307916760808e+02 1.0000000000000000e+00 1.5236072505654871e+01 1.4141004980312520e+01 1.4983091348984434e+00 
162 1 2 1.0279967149288625e+00 -1.9154632166940257e+02 1.0000000000000000e+00 1.5236072505654871e+01 1.4141004980312520e+01 1.4983091348984434e+00 
168 1 2 1.0279967149288625e+00 -1.8907489265011304e+02 1.0000000000000000e+00 1.5236072505654871e+01 1.4141004980312520e+01 1.4983091348984434e+00 
125 1 2 1.0279967149288733e+00 -1.7649687130303101e+02 1.0000000000000000e+00 1.5236072505659328e+01 1.4141004980311367e+01 1.4983091349308273e+00 
132 1 2 1.0279967149288625e+00 -1.7789515550239790e+02 1.0000000000000000e+00 1.5236072505654871e+01 1.4141004980312520e+01 1.4983091348984434e+00 
6 1 2 1.0279967149288625e+00 -1.8629075614606876e+02 1.0000000000000000e+00 1.5236072505654871e+01 1.4141004980312520e+01 1.4983091348984434e+00 
78 1 2 1.0280016695660104e+00 -2.6943269557505153e+02 1.0000000000000000e+00 1.3640742913640613e+01 1.6971523847154494e+01 1.8355735293239144e+00 
155 1 2 1.0280016695660104e+00 -2.2470483713218545e+02 1.0000000000000000e+00 1.3640742913640615e+01 1.6971523847154494e+01 1.8355735293239144e+00 
161 1 2 1.0280016695660104e+00 -1.8679207356561471e+02 1.0000000000000000e+00 1.3640742913640624e+01 1.6971523847154497e+01 1.8355735293239144e+00 
77 1 2 1.0280016695660104e+00 -2.7653559343161584e+02 1.0000000000000000e+00 1.3640742913640617e+01 1.6971523847154494e+01 1.8355735293239099e+00 
36 1 2 1.0280016695660104e+00 -2.4749465951012809e+02 1.0000000000000000e+00 1.3640742913640617e+01 1.6971523847154494e+01 1.8355735293239104e+00 
106 1 2 1.0280016695660104e+00 -1.5307308004066971e+02 1.0000000000000000e+00 1.3640742913640613e+01 1.6971523847154494e+01 1.8355735293239144e+00 
160 1 2 1.0280016695660104e+00 -2.2821888967118883e+02 1.0000000000000000e+00 1.3640742913640613e+01 1.6971523847154494e+01 1.8355735293239144e+00 
74 1 2 1.0279498473177746e+00 -1.5473350799973741e+02 1.0000000000000000e+00 1.5562599692095265e+01 1.4299528165934484e+01 5.5111067475013629e+00 
66 1 2 1.0279498473177746e+00 -1.7012807499790100e+02 1.0000000000000000e+00 1.5562599692095324e+01 1.4299528165934465e+01 5.5111067475010529e+00 
152 1 2 1.0279498473177746e+00 -2.0099432663227961e+02 1.0000000000000000e+00 1.5562599692095510e+01 1.4299528165934415e+01 5.5111067475007243e+00 
116 1 2 1.0279498473177746e+00 -2.0185463419370163e+02 1.0000000000000000e+00 1.5562599692095533e+01 1.4299528165934410e+01 5.5111067475006053e+00 
80 1 2 1.0279498473177748e+00 -1.6461230547253408e+02 1.0000000000000000e+00 1.5562599692095509e+01 1.4299528165934419e+01 5.5111067475006097e+00 
157 1 2 1.0279498473177746e+00 -1.8143464466246539e+02 1.0000000000000000e+00 1.5562599692095381e+01 1.4299528165934451e+01 5.5111067475009801e+00 
110 1 2 1.0279498473177748e+00 -2.1856754881063000e+02 1.0000000000000000e+00 1.5562599692095509e+01 1.4299528165934419e+01 5.5111067475006097e+00 
140 1 2 1.0280186460554606e+00 -1.4003809777179725e+02 1.0000000000000000e+00 1.6461233596982801e+01 1.7365598004619088e+01 5.5204336891169108e+00 
176 1 2 1.0280186460554630e+00 -1.6516886155194990e+02 1.0000000000000000e+00 1.6461233596982691e+01 1.7365598004618967e+01 5.5204336891168397e+00 
117 1 2 1.0280186460554614e+00 -2.3050448708506812e+02 1.0000000000000000e+00 1.6461233596982716e+01 1.7365598004618978e+01 5.5204336891167989e+00 
177 1 2 1.0280186460554626e+00 -1.5534424371147577e+02 1.0000000000000000e+00 1.6461233596982751e+01 1.7365598004619027e+01 5.5204336891168495e+00 
141 1 2 1.0280186460554614e+00 -1.1890151927472228e+02 1.0000000000000000e+00 1.6461233596982769e+01 1.7365598004619038e+01 5.5204336891168380e+00 
62 1 2 1.0280069603437487e+00 -2.1895904429778739e+02 1.0000000000000000e+00 1.5942143692648591e+01 1.8385183918402586e+01 4.5708987372518024e+00 
103 1 2 1.0279840148625163e+00 -2.8798123477565701e+02 1.0000000000000000e+00 1.5268872691804706e+01 1.9067614115712328e+01 5.3680007440033171e+00 
67 1 2 1.0279840148625168e+00 -1.6968033970311564e+02 1.0000000000000000e+00 1.5268872691804672e+01 1.9067614115712292e+01 5.3680007440033677e+00 
31 1 2 1.0279840148625168e+00 -1.7562881494324927e+02 1.0000000000000000e+00 1.5268872691804740e+01 1.9067614115712356e+01 5.3680007440032913e+00 
123 1 2 1.0279840148888095e+00 -1.5814661713202662e+02 1.0000000000000000e+00 1.5268871726414883e+01 1.9067613400014409e+01 5.3680004289173731e+00 
68 1 2 1.0279840148625168e+00 -2.3951033445896547e+02 1.0000000000000000e+00 1.5268872691804638e+01 1.9067614115712274e+01 5.3680007440033117e+00 
1 1 2 1.0286479616026949e+00 -2.6425025450050077e+02 1.0000000000000000e+00 1.7592256927331199e+01 1.6897787531787390e+01 8.9678961994681394e+00 
7 1 2 1.0286479616026949e+00 -2.2761712761269314e+02 1.0000000000000000e+00 1.7592256927331199e+01 1.6897787531787390e+01 8.9678961994681394e+00 
2 1 2 1.0286479616026949e+00 -1.2065337897887566e+02 1.0000000000000000e+00 1.7592256927331199e+01 1.6897787531787390e+01 8.9678961994681394e+00 
43 1 2 1.0286479616026936e+00 -2.7293235001684735e+02 1.0000000000000000e+00 1.7592256927330808e+01 1.6897787531787806e+01 8.9678961994685373e+00 
8 1 2 1.0286479616026931e+00 -2.0203743270809036e+02 1.0000000000000000e+00 1.7592256927330716e+01 1.6897787531787817e+01 8.9678961994685427e+00 
37 1 2 1.0286479616026949e+00 -2.3300427508033559e+02 1.0000000000000000e+00 1.7592256927331199e+01 1.6897787531787390e+01 8.9678961994681394e+00 
38 1 2 1.0286479616026949e+00 -1.3911451859219693e+02 1.0000000000000000e+00 1.7592256927331199e+01 1.6897787531787390e+01 8.9678961994681394e+00 
124 1 2 1.0274495985579428e+00 -2.3479120770996144e+02 1.0000000000000000e+00 1.7342279110979433e+01 1.4771697479140030e+01 1.1447253592188618e+01 
131 1 2 1.0274495985579424e+00 -1.6101062700413109e+02 1.0000000000000000e+00 1.7342279110979437e+01 1.4771697479140045e+01 1.1447253592188638e+01 
166 1 2 1.0274495985579424e+00 -1.5094551867372934e+02 1.0000000000000000e+00 1.7342279110979437e+01 1.4771697479140046e+01 1.1447253592188639e+01 
130 1 2 1.0274495985579428e+00 -1.8868109285620488e+02 1.0000000000000000e+00 1.7342279110979433e+01 1.4771697479140030e+01 1.1447253592188618e+01 
167 1 2 1.0274495985579428e+00 -1.8880972606683048e+02 1.0000000000000000e+00 1.7342279110979433e+01 1.4771697479140030e+01 1.1447253592188618e+01 
94 1 2 1.0274495985579424e+00 -2.3906940043375823e+02 1.0000000000000000e+00 1.7342279110979437e+01 1.4771697479140045e+01 1.1447253592188638e+01 
129 1 2 1.0274495985579424e+00 -1.8921815961706983e+02 1.0000000000000000e+00 1.7342279110979437e+01 1.4771697479140045e+01 1.1447253592188638e+01 

Velocities

150 3.6203865830095477e-01 -3.1871564051476647e-02 -1.3608306216904356e-01
15 3.6203866031832482e-01 -3.1871570654542228e-02 -1.3608306043822371e-01
46 3.6203865822984699e-01 -3.1871563818122214e-02 -1.3608306223028493e-01
30 3.6203865737091556e-01 -3.1871561003009648e-02 -1.3608306296833589e-01
156 3.6203866104869414e-01 -3.1871573034040861e-02 -1.3608305981555846e-01
70 3.6237975125116317e-01 -3.1869469692220563e-02 -1.3569210044545016e-01
114 3.6243524296355611e-01 -3.1514236335239330e-02 -1.3632324118060105e-01
149 3.6243524296355556e-01 -3.1514236335238498e-02 -1.3632324118060091e-01
26 3.6243524296355495e-01 -3.1514236335239539e-02 -1.3632324118060266e-01
134 3.5885473852807726e-01 -1.7223270227006999e-02 -1.2602496440647731e-01
159 3.5885473852807814e-01 -1.7223270227006576e-02 -1.2602496440647662e-01
165 3.5885473852807814e-01 -1.7223270227007030e-02 -1.2602496440647734e-01
127 3.5885473852807726e-01 -1.7223270227006999e-02 -1.2602496440647731e-01
102 3.5885473852807720e-01 -1.7223270227006909e-02 -1.2602496440647806e-01
34 3.5885473852807814e-01 -1.7223270227007030e-02 -1.2602496440647734e-01
59 3.5885473852807731e-01 -1.7223270227006857e-02 -1.2602496440647787e-01
4 3.5542323626199557e-01 -1.9364137041928599e-02 -1.1709036238381297e-01
75 3.5542323626199551e-01 -1.9364137041927579e-02 -1.1709036238381311e-01
76 3.5542323626199557e-01 -1.9364137041927808e-02 -1.1709036238381343e-01
10 3.5542323626199557e-01 -1.9364137041928599e-02 -1.1709036238381297e-01
33 3.5542323626199551e-01 -1.9364137041927583e-02 -1.1709036238381311e-01
153 3.5542323626199557e-01 -1.9364137041928599e-02 -1.1709036238381297e-01
3 3.5542323626199551e-01 -1.9364137041927583e-02 -1.1709036238381311e-01
139 3.6182101922059973e-01 -3.2555466520027471e-02 -1.3474695539060266e-01
65 3.6182101922060617e-01 -3.2555466520026409e-02 -1.3474695539060200e-01
28 3.6182101922059712e-01 -3.2555466520028067e-02 -1.3474695539060513e-01
104 3.6182101922059712e-01 -3.2555466520028067e-02 -1.3474695539060513e-01
105 3.6182101922059917e-01 -3.2555466520028511e-02 -1.3474695539060391e-01
98 3.6182101922059712e-01 -3.2555466520028067e-02 -1.3474695539060513e-01
135 3.6182101922060372e-01 -3.2555466520023918e-02 -1.3474695539059420e-01
32 3.5600412685376304e-01 -2.5812821557632922e-02 -1.2161674412601968e-01
29 3.5600412932887282e-01 -2.5812819251023366e-02 -1.2161674156106084e-01
40 3.5600412939144371e-01 -2.5812819138846418e-02 -1.2161674163940550e-01
69 3.5600412685376259e-01 -2.5812821557632978e-02 -1.2161674412602037e-01
111 3.5600413005981557e-01 -2.5812818600245209e-02 -1.2161674072267438e-01
45 3.5600413005981502e-01 -2.5812818600245299e-02 -1.2161674072267485e-01
39 3.5600413005981557e-01 -2.5812818600245209e-02 -1.2161674072267438e-01
97 3.5731196254666198e-01 -1.8559187272517531e-02 -1.3021592996799261e-01
61 3.5731196254669301e-01 -1.8559187272485136e-02 -1.3021592996798442e-01
55 3.5731196254666198e-01 -1.8559187272517531e-02 -1.3021592996799261e-01
21 3.5731196254667946e-01 -1.8559187272496589e-02 -1.3021592996799947e-01
79 3.5731196254669301e-01 -1.8559187272485136e-02 -1.3021592996798442e-01