LAMMPS data file via write_data, version 30 Jul 2016, timestep = 50000000

180 atoms
2 atom types

0.0000000000000000e+00 2.0000000000000000e+01 xlo xhi
0.0000000000000000e+00 2.0000000000000000e+01 ylo yhi
0.0000000000000000e+00 2.0000000000000000e+01 zlo zhi

Masses

1 3.896
2 4.31

Atoms # meso-molecular

85 1 2 1.0280827947191296e+00 -2.3248683805050405e+02 1.0000000000000000e+00 1.7612578961993064e+00 3.1733170529107424e+00 6.4366732124475510e+00 
148 1 2 1.0280827946229576e+00 -2.7617638313078811e+02 1.0000000000000000e+00 1.7612607415262842e+00 3.1733134388664350e+00 6.4366706779210183e+00 
121 1 2 1.0280827945866555e+00 -1.6186046546352674e+02 1.0000000000000000e+00 1.7612617040897129e+00 3.1733118116680261e+00 6.4366700409890996e+00 
154 1 2 1.0280816833057036e+00 -2.7393253498705417e+02 1.0000000000000000e+00 1.7192347485924142e+00 3.1998325518570452e+00 6.4994702643720634e+00 
179 1 2 1.0280950500198009e+00 -2.3034165830631730e+02 1.0000000000000000e+00 4.3626963987612566e+00 1.9188525481612559e+00 3.7348508621306578e+00 
144 1 2 1.0280950500198009e+00 -2.0260590726101509e+02 1.0000000000000000e+00 4.3626963987594145e+00 1.9188525481604164e+00 3.7348508621301759e+00 
172 1 2 1.0280950500198007e+00 -2.0477483904062944e+02 1.0000000000000000e+00 4.3626963987577501e+00 1.9188525481567986e+00 3.7348508621351351e+00 
137 1 2 1.0280950500198005e+00 -1.6757643162956464e+02 1.0000000000000000e+00 4.3626963987609271e+00 1.9188525481611149e+00 3.7348508621305481e+00 
138 1 2 1.0280950500198007e+00 -2.0662711934582020e+02 1.0000000000000000e+00 4.3626963987582652e+00 1.9188525481572074e+00 3.7348508621349468e+00 
173 1 2 1.0280950500198001e+00 -2.0370210925574611e+02 1.0000000000000000e+00 4.3626963987607370e+00 1.9188525481613756e+00 3.7348508621298402e+00 
180 1 2 1.0280950500198003e+00 -2.5602433565650449e+02 1.0000000000000000e+00 4.3626963987554532e+00 1.9188525481582537e+00 3.7348508621297984e+00 
44 1 2 1.0279124893802705e+00 -2.0251007240084471e+02 1.0000000000000000e+00 2.8611574199258487e+00 4.4477654349585016e+00 5.0776191900864003e+00 
151 1 2 1.0279124901958525e+00 -1.8997040218157588e+02 1.0000000000000000e+00 2.8612381082559679e+00 4.4476747137942301e+00 5.0775289861220312e+00 
72 1 2 1.0279124901958521e+00 -2.7680992307928045e+02 1.0000000000000000e+00 2.8612381082560367e+00 4.4476747137941199e+00 5.0775289861218980e+00 
91 1 2 1.0279124895770908e+00 -2.4004976703992500e+02 1.0000000000000000e+00 2.8611777180671210e+00 4.4477440685046021e+00 5.0775988824189149e+00 
122 1 2 1.0279124901958523e+00 -1.1139835439751488e+02 1.0000000000000000e+00 2.8612381082559728e+00 4.4476747137942372e+00 5.0775289861220454e+00 
86 1 2 1.0279124901958521e+00 -1.3276731897563980e+02 1.0000000000000000e+00 2.8612381082559541e+00 4.4476747137942514e+00 5.0775289861220534e+00 
58 1 2 1.0279111745308622e+00 -1.8785559307036797e+02 1.0000000000000000e+00 1.7721510356845780e+00 2.2983607042756717e+00 8.3763899114429918e+00 
107 1 2 1.0279111745308624e+00 -1.6328864091847635e+02 1.0000000000000000e+00 1.7721510356845740e+00 2.2983607042754097e+00 8.3763899114428781e+00 
53 1 2 1.0279111745308616e+00 -1.0068755504122070e+02 1.0000000000000000e+00 1.7721510356845855e+00 2.2983607042756318e+00 8.3763899114429776e+00 
27 1 2 1.0279111745308629e+00 -2.2677301438290272e+02 1.0000000000000000e+00 1.7721510356850647e+00 2.2983607042765994e+00 8.3763899114433755e+00 
16 1 2 1.0279111745308616e+00 -1.3560237678159041e+02 1.0000000000000000e+00 1.7721510356846164e+00 2.2983607042756358e+00 8.3763899114429776e+00 
17 1 2 1.0279111745308622e+00 -1.2929583464103879e+02 1.0000000000000000e+00 1.7721510356845831e+00 2.2983607042756571e+00 8.3763899114429847e+00 
135 1 2 1.0280011570556304e+00 -2.0845845038898028e+02 1.0000000000000000e+00 5.8178146004286049e+00 3.3816487336446821e+00 1.3053174460460424e+01 
65 1 2 1.0280011570556304e+00 -1.7401933595226211e+02 1.0000000000000000e+00 5.8178146004286724e+00 3.3816487336446674e+00 1.3053174460458781e+01 
98 1 2 1.0280011570556302e+00 -2.6275177091835758e+02 1.0000000000000000e+00 5.8178146004273561e+00 3.3816487336437873e+00 1.3053174460458184e+01 
105 1 2 1.0280011570556304e+00 -2.3071312911979479e+02 1.0000000000000000e+00 5.8178146004274467e+00 3.3816487336438539e+00 1.3053174460458390e+01 
104 1 2 1.0280011570556302e+00 -2.6647145922607115e+02 1.0000000000000000e+00 5.8178146004273561e+00 3.3816487336437873e+00 1.3053174460458184e+01 
139 1 2 1.0280011570556311e+00 -2.3163425859752704e+02 1.0000000000000000e+00 5.8178146004276590e+00 3.3816487336440040e+00 1.3053174460458685e+01 
28 1 2 1.0280011570556302e+00 -1.8107081234052418e+02 1.0000000000000000e+00 5.8178146004273561e+00 3.3816487336437873e+00 1.3053174460458184e+01 
101 1 2 1.0279992592579272e+00 -2.5106721334473139e+02 1.0000000000000000e+00 5.9014320576155974e+00 7.4257879275113314e-01 1.5252272816980341e+01 
126 1 2 1.0279992592579272e+00 -2.0028234339358028e+02 1.0000000000000000e+00 5.9014320576155974e+00 7.4257879275113314e-01 1.5252272816980341e+01 
96 1 2 1.0279992592579272e+00 -2.1516218589980960e+02 1.0000000000000000e+00 5.9014320576157555e+00 7.4257879275114635e-01 1.5252272816980401e+01 
174 1 2 1.0279992592579272e+00 -2.5525439379488591e+02 1.0000000000000000e+00 5.9014320576155974e+00 7.4257879275113314e-01 1.5252272816980341e+01 
9 1 2 1.0279992592579272e+00 -1.5225072597135301e+02 1.0000000000000000e+00 5.9014320576155974e+00 7.4257879275113314e-01 1.5252272816980341e+01 
24 1 2 1.0279992592579272e+00 -1.3914866217404560e+02 1.0000000000000000e+00 5.9014320576155974e+00 7.4257879275113314e-01 1.5252272816980341e+01 
47 1 2 1.0279992592579272e+00 -1.9400015703208987e+02 1.0000000000000000e+00 5.9014320576155974e+00 7.4257879275113314e-01 1.5252272816980341e+01 
84 1 2 1.0279901914678662e+00 -2.0299012986304953e+02 1.0000000000000000e+00 4.3742731736542497e+00 7.8341703551354624e-01 1.9765976571822087e+01 
81 1 2 1.0279901914678662e+00 -1.8240667019534496e+02 1.0000000000000000e+00 4.3742731736542524e+00 7.8341703551354502e-01 1.9765976571822087e+01 
90 1 2 1.0279901914678662e+00 -2.4514352893809374e+02 1.0000000000000000e+00 4.3742731736542488e+00 7.8341703551354536e-01 1.9765976571822087e+01 
120 1 2 1.0279901914678662e+00 -2.5649514409450330e+02 1.0000000000000000e+00 4.3742731736542524e+00 7.8341703551354502e-01 1.9765976571822087e+01 
89 1 2 1.0279901914678662e+00 -2.0943757780215603e+02 1.0000000000000000e+00 4.3742731736542524e+00 7.8341703551354502e-01 1.9765976571822087e+01 
87 1 2 1.0279901914678662e+00 -1.7047631651982201e+02 1.0000000000000000e+00 4.3742731736542488e+00 7.8341703551354536e-01 1.9765976571822087e+01 
51 1 2 1.0279901914678662e+00 -2.1044880280915137e+02 1.0000000000000000e+00 4.3742731736542497e+00 7.8341703551354624e-01 1.9765976571822087e+01 
113 1 2 1.0280079594172757e+00 -1.8052391222908977e+02 1.0000000000000000e+00 6.0507828309873242e+00 1.8962389853553528e+01 1.8977672967183181e+00 
23 1 2 1.0280079594172757e+00 -1.5896258812555288e+02 1.0000000000000000e+00 6.0507828309873242e+00 1.8962389853553528e+01 1.8977672967183181e+00 
112 1 2 1.0280079594172757e+00 -2.5461420073430733e+02 1.0000000000000000e+00 6.0507828309873242e+00 1.8962389853553528e+01 1.8977672967183181e+00 
22 1 2 1.0280079594172757e+00 -1.8021727046878073e+02 1.0000000000000000e+00 6.0507828309873792e+00 1.8962389853553596e+01 1.8977672967183334e+00 
119 1 2 1.0280079594172757e+00 -2.0534132577181020e+02 1.0000000000000000e+00 6.0507828309874299e+00 1.8962389853553596e+01 1.8977672967182933e+00 
118 1 2 1.0280079594172757e+00 -1.8920168714730653e+02 1.0000000000000000e+00 6.0507828309873792e+00 1.8962389853553596e+01 1.8977672967183334e+00 
82 1 2 1.0280079594172757e+00 -1.8132210695544319e+02 1.0000000000000000e+00 6.0507828309874192e+00 1.8962389853553596e+01 1.8977672967183019e+00 
5 1 2 1.0280019739269972e+00 -1.9451101470157775e+02 1.0000000000000000e+00 1.0373646221936734e+00 1.4999437918672031e+01 6.4372258872260026e+00 
92 1 2 1.0280019739269972e+00 -2.4830362676279643e+02 1.0000000000000000e+00 1.0373646221935737e+00 1.4999437918671793e+01 6.4372258872239980e+00 
162 1 2 1.0280019739269972e+00 -1.9154686926459092e+02 1.0000000000000000e+00 1.0373646221935737e+00 1.4999437918671793e+01 6.4372258872239980e+00 
168 1 2 1.0280019739269972e+00 -1.8907544024530139e+02 1.0000000000000000e+00 1.0373646221935737e+00 1.4999437918671793e+01 6.4372258872239980e+00 
125 1 2 1.0280019739269972e+00 -1.7649741889821937e+02 1.0000000000000000e+00 1.0373646221936734e+00 1.4999437918672031e+01 6.4372258872260026e+00 
132 1 2 1.0280019739269972e+00 -1.7789570309758625e+02 1.0000000000000000e+00 1.0373646221935737e+00 1.4999437918671793e+01 6.4372258872239980e+00 
6 1 2 1.0280019739269972e+00 -1.8629130374125711e+02 1.0000000000000000e+00 1.0373646221935737e+00 1.4999437918671793e+01 6.4372258872239980e+00 
146 1 2 1.0280002782928350e+00 -2.2499858149832966e+02 1.0000000000000000e+00 4.7707309912666078e+00 1.1223406382225734e+01 8.1701163030246473e+00 
115 1 2 1.0280002782928350e+00 -1.9784305151636886e+02 1.0000000000000000e+00 4.7707309912662064e+00 1.1223406382225777e+01 8.1701163030250310e+00 
108 1 2 1.0280002782928350e+00 -2.1447805301062084e+02 1.0000000000000000e+00 4.7707309912666078e+00 1.1223406382225734e+01 8.1701163030246473e+00 
158 1 2 1.0280002782928350e+00 -2.3796886223774561e+02 1.0000000000000000e+00 4.7707309912666078e+00 1.1223406382225734e+01 8.1701163030246473e+00 
95 1 2 1.0280002782928350e+00 -2.4100886144852805e+02 1.0000000000000000e+00 4.7707309912666078e+00 1.1223406382225734e+01 8.1701163030246473e+00 
145 1 2 1.0280002782928350e+00 -2.5369614140579989e+02 1.0000000000000000e+00 4.7707309912666078e+00 1.1223406382225734e+01 8.1701163030246473e+00 
109 1 2 1.0280002782928350e+00 -2.2321048628491832e+02 1.0000000000000000e+00 4.7707309912666078e+00 1.1223406382225734e+01 8.1701163030246473e+00 
110 1 2 1.0280037112133533e+00 -2.1856808170912279e+02 1.0000000000000000e+00 1.2971249431823362e+00 1.5176666848591488e+01 1.0343296694961818e+01 
157 1 2 1.0280037112133533e+00 -1.8143517756095818e+02 1.0000000000000000e+00 1.2971249431822145e+00 1.5176666848591427e+01 1.0343296694962268e+01 
80 1 2 1.0280037112133533e+00 -1.6461283837102687e+02 1.0000000000000000e+00 1.2971249431823362e+00 1.5176666848591488e+01 1.0343296694961818e+01 
116 1 2 1.0280037112133533e+00 -2.0185516709219442e+02 1.0000000000000000e+00 1.2971249431823637e+00 1.5176666848591481e+01 1.0343296694961815e+01 
152 1 2 1.0280037112133533e+00 -2.0099485953077240e+02 1.0000000000000000e+00 1.2971249431823362e+00 1.5176666848591452e+01 1.0343296694961980e+01 
66 1 2 1.0280037112133533e+00 -1.7012860789639379e+02 1.0000000000000000e+00 1.2971249431821608e+00 1.5176666848591424e+01 1.0343296694962357e+01 
74 1 2 1.0280037112133533e+00 -1.5473404089823021e+02 1.0000000000000000e+00 1.2971249431820970e+00 1.5176666848591351e+01 1.0343296694962779e+01 
140 1 2 1.0279913342736906e+00 -1.4003886280649331e+02 1.0000000000000000e+00 2.2039301314606834e+00 1.8168464232176923e+01 1.0998523950073844e+01 
176 1 2 1.0279913342736908e+00 -1.6516962658664596e+02 1.0000000000000000e+00 2.2039301314605737e+00 1.8168464232176788e+01 1.0998523950073769e+01 
117 1 2 1.0279913342736922e+00 -2.3050525211976418e+02 1.0000000000000000e+00 2.2039301314605981e+00 1.8168464232176802e+01 1.0998523950073722e+01 
177 1 2 1.0279913342736922e+00 -1.5534500874617183e+02 1.0000000000000000e+00 2.2039301314606652e+00 1.8168464232176884e+01 1.0998523950073764e+01 
141 1 2 1.0279913342736922e+00 -1.1890228430940056e+02 1.0000000000000000e+00 2.2039301314606679e+00 1.8168464232176891e+01 1.0998523950073777e+01 
62 1 2 1.0279995578064320e+00 -2.1895910133765582e+02 1.0000000000000000e+00 1.6724056949558355e+00 1.9200799682043151e+01 1.0066444865986290e+01 
103 1 2 1.0280055613352477e+00 -2.8798127336873819e+02 1.0000000000000000e+00 1.0070166024470479e+00 1.9868260762981716e+01 1.0885153115704158e+01 
67 1 2 1.0280055613352479e+00 -1.6968037829629910e+02 1.0000000000000000e+00 1.0070166024470342e+00 1.9868260762981699e+01 1.0885153115704201e+01 
123 1 2 1.0280055613456527e+00 -1.5814665572522293e+02 1.0000000000000000e+00 1.0070156666081171e+00 1.9868260079177812e+01 1.0885152805672979e+01 
31 1 2 1.0280055613352466e+00 -1.7562885353643273e+02 1.0000000000000000e+00 1.0070166024470939e+00 1.9868260762981759e+01 1.0885153115704135e+01 
68 1 2 1.0280055613352448e+00 -2.3951037305214894e+02 1.0000000000000000e+00 1.0070166024469827e+00 1.9868260762981674e+01 1.0885153115704179e+01 
14 1 2 1.0279985891580812e+00 -2.0331840787164455e+02 1.0000000000000000e+00 5.7240744512652260e+00 1.8878522423016722e+01 1.1964319050294748e+01 
147 1 2 1.0279985891574410e+00 -2.0153447122099587e+02 1.0000000000000000e+00 5.7240743619328471e+00 1.8878522505302310e+01 1.1964319192035031e+01 
19 1 2 1.0279985891580823e+00 -2.2042316420718979e+02 1.0000000000000000e+00 5.7240744509390566e+00 1.8878522423311626e+01 1.1964319050819572e+01 
25 1 2 1.0279985891580821e+00 -2.3836458996981844e+02 1.0000000000000000e+00 5.7240744510275396e+00 1.8878522423232187e+01 1.1964319050676458e+01 
60 1 2 1.0279985891573706e+00 -2.0001357441139808e+02 1.0000000000000000e+00 5.7240743510515255e+00 1.8878522515813795e+01 1.1964319208659719e+01 
13 1 2 1.0279985891580830e+00 -1.8656918079721774e+02 1.0000000000000000e+00 5.7240744510243013e+00 1.8878522423235058e+01 1.1964319050681745e+01 
43 1 2 1.0279999286751491e+00 -2.7293271705001314e+02 1.0000000000000000e+00 3.6096464416767495e+00 1.6995538834983424e+01 1.5027831683949460e+01 
8 1 2 1.0279999286751491e+00 -2.0203779974128429e+02 1.0000000000000000e+00 3.6096464416767273e+00 1.6995538834983428e+01 1.5027831683949460e+01 
2 1 2 1.0279999286751491e+00 -1.2065374601206713e+02 1.0000000000000000e+00 3.6096464416768552e+00 1.6995538834983297e+01 1.5027831683949364e+01 
7 1 2 1.0279999286751491e+00 -2.2761749464588706e+02 1.0000000000000000e+00 3.6096464416768552e+00 1.6995538834983297e+01 1.5027831683949364e+01 
1 1 2 1.0279999286751491e+00 -2.6425062153366656e+02 1.0000000000000000e+00 3.6096464416768552e+00 1.6995538834983297e+01 1.5027831683949364e+01 
37 1 2 1.0279999286751491e+00 -2.3300464211352951e+02 1.0000000000000000e+00 3.6096464416768552e+00 1.6995538834983297e+01 1.5027831683949364e+01 
38 1 2 1.0279999286751491e+00 -1.3911488562539085e+02 1.0000000000000000e+00 3.6096464416768552e+00 1.6995538834983297e+01 1.5027831683949364e+01 
131 1 2 1.0279999286751491e+00 -1.6101062229592480e+02 1.0000000000000000e+00 3.3430028073367661e+00 1.4884908494172413e+01 1.7506633622263490e+01 
166 1 2 1.0279999286751491e+00 -1.5094551396552305e+02 1.0000000000000000e+00 3.3430028073367879e+00 1.4884908494172418e+01 1.7506633622263497e+01 
130 1 2 1.0279999286751491e+00 -1.8868108814799859e+02 1.0000000000000000e+00 3.3430028073367382e+00 1.4884908494172345e+01 1.7506633622263429e+01 
167 1 2 1.0279999286751491e+00 -1.8880972135862419e+02 1.0000000000000000e+00 3.3430028073367382e+00 1.4884908494172345e+01 1.7506633622263429e+01 
94 1 2 1.0279999286751491e+00 -2.3906939572555194e+02 1.0000000000000000e+00 3.3430028073367661e+00 1.4884908494172413e+01 1.7506633622263490e+01 
129 1 2 1.0279999286751491e+00 -1.8921815490886354e+02 1.0000000000000000e+00 3.3430028073367661e+00 1.4884908494172413e+01 1.7506633622263490e+01 
124 1 2 1.0279999286751491e+00 -2.3479120300175515e+02 1.0000000000000000e+00 3.3430028073367382e+00 1.4884908494172345e+01 1.7506633622263429e+01 
150 1 2 1.0279999502261916e+00 -1.1265233553369995e+02 1.0000000000000000e+00 7.9792847128832909e+00 1.4316483409958254e+00 9.9114217919490333e+00 
15 1 2 1.0279999502208241e+00 -2.1788871903124124e+02 1.0000000000000000e+00 7.9792855489274226e+00 1.4316413867180995e+00 9.9114229839215824e+00 
156 1 2 1.0279999502188866e+00 -1.3084750854575208e+02 1.0000000000000000e+00 7.9792858529110218e+00 1.4316388809683633e+00 9.9114234132668209e+00 
30 1 2 1.0279999502286823e+00 -2.4430769364109449e+02 1.0000000000000000e+00 7.9792843279573686e+00 1.4316515516729234e+00 9.9114212415988376e+00 
46 1 2 1.0279999502263724e+00 -1.5558967762725950e+02 1.0000000000000000e+00 7.9792846834912101e+00 1.4316485867807214e+00 9.9114217498133126e+00 
114 1 2 1.0279996033285956e+00 -1.8467320737485261e+02 1.0000000000000000e+00 8.2131146975420108e+00 1.7506103118752554e+00 1.1590800211333070e+01 
149 1 2 1.0279996033285939e+00 -2.9510767288575948e+02 1.0000000000000000e+00 8.2131146975418456e+00 1.7506103118752818e+00 1.1590800211333175e+01 
26 1 2 1.0279996033285956e+00 -1.9638305428119440e+02 1.0000000000000000e+00 8.2131146975418385e+00 1.7506103118752392e+00 1.1590800211333216e+01 
70 1 2 1.0280002142841345e+00 -1.5353349584950709e+02 1.0000000000000000e+00 7.8863943965662680e+00 2.1910388487173451e+00 1.0825243041829777e+01 
59 1 2 1.0280465848424498e+00 -2.0679539773101897e+02 1.0000000000000000e+00 9.3914701220525618e+00 7.3851790760697691e+00 1.1271037122612567e+01 
134 1 2 1.0280465848424494e+00 -2.2546694193842626e+02 1.0000000000000000e+00 9.3914701220525583e+00 7.3851790760697629e+00 1.1271037122612585e+01 
159 1 2 1.0280465848424485e+00 -1.3688530311254087e+02 1.0000000000000000e+00 9.3914701220525743e+00 7.3851790760697540e+00 1.1271037122612560e+01 
165 1 2 1.0280465848424487e+00 -1.3127029422326910e+02 1.0000000000000000e+00 9.3914701220525671e+00 7.3851790760697531e+00 1.1271037122612576e+01 
127 1 2 1.0280465848424494e+00 -2.0665424523273703e+02 1.0000000000000000e+00 9.3914701220525583e+00 7.3851790760697629e+00 1.1271037122612585e+01 
102 1 2 1.0280465848424500e+00 -2.3366229609136550e+02 1.0000000000000000e+00 9.3914701220525547e+00 7.3851790760697806e+00 1.1271037122612560e+01 
34 1 2 1.0280465848424487e+00 -2.7770254439789392e+02 1.0000000000000000e+00 9.3914701220525671e+00 7.3851790760697531e+00 1.1271037122612576e+01 
171 1 2 1.0279779807877079e+00 -2.4363895192625230e+02 1.0000000000000000e+00 1.2638112849017222e+01 7.6272610185053411e+00 1.2279255497645853e+01 
142 1 2 1.0279779807877079e+00 -2.0159184428416552e+02 1.0000000000000000e+00 1.2638112849017222e+01 7.6272610185053411e+00 1.2279255497645853e+01 
143 1 2 1.0279779807877079e+00 -2.0251758870265596e+02 1.0000000000000000e+00 1.2638112849017222e+01 7.6272610185053411e+00 1.2279255497645853e+01 
178 1 2 1.0279779807877079e+00 -2.3663469422168842e+02 1.0000000000000000e+00 1.2638112849017222e+01 7.6272610185053411e+00 1.2279255497645853e+01 
52 1 2 1.0279779807877079e+00 -1.3149064857474733e+02 1.0000000000000000e+00 1.2638112849017222e+01 7.6272610185053411e+00 1.2279255497645853e+01 
88 1 2 1.0279779807877079e+00 -1.0507095807746576e+02 1.0000000000000000e+00 1.2638112849017222e+01 7.6272610185053411e+00 1.2279255497645853e+01 
136 1 2 1.0279779807877079e+00 -2.1084576564565904e+02 1.0000000000000000e+00 1.2638112849017222e+01 7.6272610185053411e+00 1.2279255497645853e+01 
61 1 2 1.0275762475966979e+00 -2.1100427880446424e+02 1.0000000000000000e+00 1.0775815924054328e+01 4.7089955390182539e+00 1.3798845440846257e+01 
55 1 2 1.0275762475967090e+00 -1.5996598178178706e+02 1.0000000000000000e+00 1.0775815924050789e+01 4.7089955390430562e+00 1.3798845440773546e+01 
21 1 2 1.0275762475967001e+00 -2.3311994773059772e+02 1.0000000000000000e+00 1.0775815924037722e+01 4.7089955390165290e+00 1.3798845440802442e+01 
79 1 2 1.0275762475966979e+00 -1.1919545897272218e+02 1.0000000000000000e+00 1.0775815924054328e+01 4.7089955390182539e+00 1.3798845440846257e+01 
49 1 2 1.0275762475966979e+00 -1.5038725953059105e+02 1.0000000000000000e+00 1.0775815924054328e+01 4.7089955390182539e+00 1.3798845440846257e+01 
73 1 2 1.0275762475966932e+00 -1.1544215864271928e+02 1.0000000000000000e+00 1.0775815924025904e+01 4.7089955389912452e+00 1.3798845440831911e+01 
97 1 2 1.0275762475967090e+00 -2.2495415013601294e+02 1.0000000000000000e+00 1.0775815924050789e+01 4.7089955390430562e+00 1.3798845440773546e+01 
39 1 2 1.0284009145448818e+00 -1.0068310659413308e+02 1.0000000000000000e+00 8.3231598642849640e+00 6.6962329908073910e+00 1.4674051234966161e+01 
45 1 2 1.0284009145448818e+00 -9.6764770052541252e+01 1.0000000000000000e+00 8.3231598642849569e+00 6.6962329908073874e+00 1.4674051234966152e+01 
111 1 2 1.0284009145448818e+00 -2.2989346033278602e+02 1.0000000000000000e+00 8.3231598642849640e+00 6.6962329908073910e+00 1.4674051234966161e+01 
69 1 2 1.0284009145680457e+00 -1.9843333734778957e+02 1.0000000000000000e+00 8.3231597791625784e+00 6.6962329256324873e+00 1.4674051162190015e+01 
40 1 2 1.0284009145535347e+00 -1.4399312654806005e+02 1.0000000000000000e+00 8.3231598458245006e+00 6.6962329793386131e+00 1.4674051215421111e+01 
29 1 2 1.0284009145513127e+00 -1.4947642655429672e+02 1.0000000000000000e+00 8.3231598446620225e+00 6.6962329765860433e+00 1.4674051217055936e+01 
32 1 2 1.0284009145680457e+00 -1.6127340510853401e+02 1.0000000000000000e+00 8.3231597791625838e+00 6.6962329256324882e+00 1.4674051162190027e+01 
64 1 2 1.0279999323684637e+00 -1.7441558708994845e+02 1.0000000000000000e+00 9.8645347715692022e+00 1.4004503844124848e+01 5.9349956704028939e+00 
100 1 2 1.0279999323684637e+00 -1.5774856536142752e+02 1.0000000000000000e+00 9.8645347715692022e+00 1.4004503844124848e+01 5.9349956704028939e+00 
57 1 2 1.0279999323684637e+00 -1.5883820302652410e+02 1.0000000000000000e+00 9.8645347715692022e+00 1.4004503844124848e+01 5.9349956704028939e+00 
99 1 2 1.0279999323684637e+00 -1.5467334810465050e+02 1.0000000000000000e+00 9.8645347715692022e+00 1.4004503844124848e+01 5.9349956704028939e+00 
63 1 2 1.0279999323684637e+00 -1.7413621013181307e+02 1.0000000000000000e+00 9.8645347715692022e+00 1.4004503844124848e+01 5.9349956704028939e+00 
41 1 2 1.0279999323684637e+00 -2.3968577099022332e+02 1.0000000000000000e+00 9.8645347715692022e+00 1.4004503844124848e+01 5.9349956704028939e+00 
93 1 2 1.0279999323684637e+00 -1.5808166706141941e+02 1.0000000000000000e+00 9.8645347715692022e+00 1.4004503844124848e+01 5.9349956704028939e+00 
163 1 2 1.0279999323684632e+00 -1.8550575640092845e+02 1.0000000000000000e+00 1.2851734072842047e+01 1.4362788561890897e+01 4.6627573593903042e+00 
170 1 2 1.0279999323684619e+00 -1.5875631161168809e+02 1.0000000000000000e+00 1.2851734074341376e+01 1.4362788567515825e+01 4.6627573644947571e+00 
50 1 2 1.0279999323684663e+00 -2.2351615562422850e+02 1.0000000000000000e+00 1.2851734080041220e+01 1.4362788583430440e+01 4.6627573823599020e+00 
164 1 2 1.0279999323684650e+00 -1.6958220228721331e+02 1.0000000000000000e+00 1.2851734078565812e+01 1.4362788578857096e+01 4.6627573776077105e+00 
133 1 2 1.0279999323684632e+00 -1.8750067572892254e+02 1.0000000000000000e+00 1.2851734072848952e+01 1.4362788561896551e+01 4.6627573594081069e+00 
128 1 2 1.0279999323684634e+00 -1.5937363774043428e+02 1.0000000000000000e+00 1.2851734077727407e+01 1.4362788573226622e+01 4.6627573740534487e+00 
71 1 2 1.0279999323684619e+00 -1.6972604817634306e+02 1.0000000000000000e+00 1.2851734073514713e+01 1.4362788565328781e+01 4.6627573619378468e+00 
12 1 2 1.0280002782928350e+00 -2.9021308860846000e+02 1.0000000000000000e+00 6.9826585076356471e+00 1.2172463021747634e+01 1.0378497885615181e+01 
18 1 2 1.0280002782928350e+00 -2.7927785214837894e+02 1.0000000000000000e+00 6.9826585076356436e+00 1.2172463021747642e+01 1.0378497885615181e+01 
83 1 2 1.0280002782928350e+00 -1.7669658992280671e+02 1.0000000000000000e+00 6.9826585076356436e+00 1.2172463021747642e+01 1.0378497885615181e+01 
54 1 2 1.0280002782928352e+00 -2.3223482544059510e+02 1.0000000000000000e+00 6.9826585076356320e+00 1.2172463021747639e+01 1.0378497885615193e+01 
48 1 2 1.0280002782928350e+00 -2.0732800849760355e+02 1.0000000000000000e+00 6.9826585076356436e+00 1.2172463021747642e+01 1.0378497885615181e+01 
11 1 2 1.0280002782928350e+00 -2.7931466842079953e+02 1.0000000000000000e+00 6.9826585076356471e+00 1.2172463021747634e+01 1.0378497885615181e+01 
20 1 2 1.0280002782928350e+00 -1.9208098865837320e+02 1.0000000000000000e+00 6.9826585076356436e+00 1.2172463021747642e+01 1.0378497885615181e+01 
4 1 2 1.0279877992492938e+00 -1.3586048485639697e+02 1.0000000000000000e+00 1.1023616162954017e+01 1.0369188604974807e+01 1.1126831153917566e+01 
3 1 2 1.0279877992492954e+00 -7.2161037017958648e+01 1.0000000000000000e+00 1.1023616162954021e+01 1.0369188604974807e+01 1.1126831153917571e+01 
153 1 2 1.0279877992492938e+00 -2.1038703016458140e+02 1.0000000000000000e+00 1.1023616162954017e+01 1.0369188604974807e+01 1.1126831153917566e+01 
33 1 2 1.0279877992492954e+00 -2.3256225849009070e+02 1.0000000000000000e+00 1.1023616162954021e+01 1.0369188604974807e+01 1.1126831153917571e+01 
10 1 2 1.0279877992492938e+00 -1.8068963889331167e+02 1.0000000000000000e+00 1.1023616162954017e+01 1.0369188604974807e+01 1.1126831153917566e+01 
76 1 2 1.0279877992492952e+00 -8.0525041544323841e+01 1.0000000000000000e+00 1.1023616162954017e+01 1.0369188604974813e+01 1.1126831153917593e+01 
75 1 2 1.0279877992492954e+00 -6.8325028906565279e+01 1.0000000000000000e+00 1.1023616162954021e+01 1.0369188604974807e+01 1.1126831153917571e+01 
35 1 2 1.0280007890634071e+00 -2.1363571709301235e+02 1.0000000000000000e+00 7.6769291900549934e+00 1.9775898581951193e+01 1.2646011083482650e+01 
56 1 2 1.0280007890633966e+00 -2.1308593626006189e+02 1.0000000000000000e+00 7.6769291939754876e+00 1.9775898602592541e+01 1.2646011084898090e+01 
42 1 2 1.0280007890634060e+00 -2.0791817949873112e+02 1.0000000000000000e+00 7.6769291900549552e+00 1.9775898581951193e+01 1.2646011083482708e+01 
169 1 2 1.0280007890633962e+00 -1.6811761490352214e+02 1.0000000000000000e+00 7.6769291939755986e+00 1.9775898602592463e+01 1.2646011084897900e+01 
175 1 2 1.0280007890633960e+00 -1.7502452495833873e+02 1.0000000000000000e+00 7.6769291939755160e+00 1.9775898602592413e+01 1.2646011084898007e+01 
36 1 2 1.0279993112348778e+00 -2.4749501965269559e+02 1.0000000000000000e+00 1.9395474077693610e+01 1.7812051933860324e+01 6.1846749998193857e+00 
77 1 2 1.0279993112348778e+00 -2.7653595357424888e+02 1.0000000000000000e+00 1.9395474077693596e+01 1.7812051933860317e+01 6.1846749998194008e+00 
161 1 2 1.0279993112348778e+00 -1.8679243370818222e+02 1.0000000000000000e+00 1.9395474077693642e+01 1.7812051933860339e+01 6.1846749998193236e+00 
155 1 2 1.0279993112348778e+00 -2.2470519727475295e+02 1.0000000000000000e+00 1.9395474077693649e+01 1.7812051933860346e+01 6.1846749998193564e+00 
78 1 2 1.0279993112348778e+00 -2.6943305571768457e+02 1.0000000000000000e+00 1.9395474077693599e+01 1.7812051933860314e+01 6.1846749998193520e+00 
160 1 2 1.0279993112348778e+00 -2.2821924981375633e+02 1.0000000000000000e+00 1.9395474077693610e+01 1.7812051933860321e+01 6.1846749998193502e+00 
106 1 2 1.0279993112348778e+00 -1.5307344018323721e+02 1.0000000000000000e+00 1.9395474077693603e+01 1.7812051933860317e+01 6.1846749998193493e+00 

Velocities

85 3.5337857452853899e-01 -1.3490729053977080e-02 -1.3224228099453858e-01
148 3.5337862224524191e-01 -1.3490785323715938e-02 -1.3224231855604937e-01
121 3.5337863852573431e-01 -1.3490811339674913e-02 -1.3224232743565922e-01
154 3.5274691437971972e-01 -1.3105945086076745e-02 -1.3119792455204340e-01
179 3.5303145290974858e-01 -1.0957819452646109e-02 -1.3281728135303264e-01
144 3.5303145290969312e-01 -1.0957819452670206e-02 -1.3281728135304677e-01
172 3.5303145290964483e-01 -1.0957819452781088e-02 -1.3281728135289833e-01
137 3.5303145290973847e-01 -1.0957819452650319e-02 -1.3281728135303575e-01
138 3.5303145290966037e-01 -1.0957819452769683e-02 -1.3281728135290427e-01
173 3.5303145290973176e-01 -1.0957819452640218e-02 -1.3281728135305584e-01
180 3.5303145290957416e-01 -1.0957819452735364e-02 -1.3281728135305795e-01
44 3.5217626869603641e-01 -1.2093857371735883e-02 -1.3159313507449941e-01
151 3.5217402905384715e-01 -1.2091213907905515e-02 -1.3159065268663420e-01
72 3.5217402905384565e-01 -1.2091213907903119e-02 -1.3159065268663001e-01
91 3.5217570543136378e-01 -1.2093234424541388e-02 -1.3159257644978983e-01
122 3.5217402905384781e-01 -1.2091213907906184e-02 -1.3159065268663431e-01
86 3.5217402905384892e-01 -1.2091213907902880e-02 -1.3159065268663586e-01
58 3.5317315895729667e-01 -1.5134920317002244e-02 -1.3278610037723432e-01
107 3.5317315895729628e-01 -1.5134920316993450e-02 -1.3278610037723571e-01
53 3.5317315895729623e-01 -1.5134920317000693e-02 -1.3278610037723518e-01
27 3.5317315895728268e-01 -1.5134920317028384e-02 -1.3278610037724725e-01
16 3.5317315895729556e-01 -1.5134920317000807e-02 -1.3278610037723507e-01
17 3.5317315895729640e-01 -1.5134920317002018e-02 -1.3278610037723410e-01
135 3.6218159109588205e-01 -3.2645729753700239e-02 -1.3488596829993638e-01
65 3.6218159109588072e-01 -3.2645729753699011e-02 -1.3488596829993729e-01
98 3.6218159109588022e-01 -3.2645729753698519e-02 -1.3488596829993760e-01
105 3.6218159109588038e-01 -3.2645729753698907e-02 -1.3488596829993749e-01
104 3.6218159109588022e-01 -3.2645729753698519e-02 -1.3488596829993760e-01
139 3.6218159109588061e-01 -3.2645729753699573e-02 -1.3488596829993735e-01
28 3.6218159109588022e-01 -3.2645729753698519e-02 -1.3488596829993760e-01
101 3.6208766323319458e-01 -3.2922629591487361e-02 -1.3489681331608019e-01
126 3.6208766323319458e-01 -3.2922629591487361e-02 -1.3489681331608019e-01
96 3.6208766323319430e-01 -3.2922629591487555e-02 -1.3489681331607903e-01
174 3.6208766323319458e-01 -3.2922629591487361e-02 -1.3489681331608019e-01
9 3.6208766323319458e-01 -3.2922629591487361e-02 -1.3489681331608019e-01
24 3.6208766323319458e-01 -3.2922629591487361e-02 -1.3489681331608019e-01
47 3.6208766323319458e-01 -3.2922629591487361e-02 -1.3489681331608019e-01
84 3.5597528012531515e-01 -6.0225797999175889e-03 -1.3861160263718172e-01
81 3.5597528012531510e-01 -6.0225797999174727e-03 -1.3861160263718167e-01
90 3.5597528012531510e-01 -6.0225797999176175e-03 -1.3861160263718178e-01
120 3.5597528012531510e-01 -6.0225797999174727e-03 -1.3861160263718167e-01
89 3.5597528012531510e-01 -6.0225797999174727e-03 -1.3861160263718167e-01