

5500 atoms
11  atom types
0 900 xlo xhi
0 900 ylo yhi
0 900 zlo zhi



Atoms

1 1 3.100000 1.000000 738 300 735 0 0 0
2 1 3.100000 1.000000 123 100 641 0 0 0
3 1 3.100000 1.000000 274 30 683 0 0 0
4 1 3.100000 1.000000 162 453 38 0 0 0
5 1 3.100000 1.000000 673 810 485 0 0 0
6 1 3.100000 1.000000 398 296 255 0 0 0
7 1 3.100000 1.000000 248 841 108 0 0 0
8 1 3.100000 1.000000 428 57 215 0 0 0
9 1 3.100000 1.000000 124 306 684 0 0 0
10 1 3.100000 1.000000 708 65 40 0 0 0
11 1 3.100000 1.000000 221 855 340 0 0 0
12 1 3.100000 1.000000 108 79 493 0 0 0
13 1 3.100000 1.000000 749 405 523 0 0 0
14 1 3.100000 1.000000 585 619 129 0 0 0
15 1 3.100000 1.000000 623 392 39 0 0 0
16 1 3.100000 1.000000 209 791 387 0 0 0
17 1 3.100000 1.000000 516 191 381 0 0 0
18 1 3.100000 1.000000 625 672 438 0 0 0
19 1 3.100000 1.000000 840 796 744 0 0 0
20 1 3.100000 1.000000 676 656 861 0 0 0
21 1 3.100000 1.000000 768 878 817 0 0 0
22 1 3.100000 1.000000 261 86 48 0 0 0
23 1 3.100000 1.000000 754 836 505 0 0 0
24 1 3.100000 1.000000 429 573 224 0 0 0
25 1 3.100000 1.000000 558 296 669 0 0 0
26 1 3.100000 1.000000 650 557 612 0 0 0
27 1 3.100000 1.000000 137 174 803 0 0 0
28 1 3.100000 1.000000 570 799 627 0 0 0
29 1 3.100000 1.000000 108 791 523 0 0 0
30 1 3.100000 1.000000 5 620 280 0 0 0
31 1 3.100000 1.000000 18 540 310 0 0 0
32 1 3.100000 1.000000 835 853 396 0 0 0
33 1 3.100000 1.000000 35 759 384 0 0 0
34 1 3.100000 1.000000 540 341 57 0 0 0
35 1 3.100000 1.000000 817 51 406 0 0 0
36 1 3.100000 1.000000 638 701 115 0 0 0
37 1 3.100000 1.000000 350 891 289 0 0 0
38 1 3.100000 1.000000 305 613 240 0 0 0
39 1 3.100000 1.000000 33 722 184 0 0 0
40 1 3.100000 1.000000 608 779 856 0 0 0
41 1 3.100000 1.000000 888 797 548 0 0 0
42 1 3.100000 1.000000 350 785 502 0 0 0
43 1 3.100000 1.000000 799 872 413 0 0 0
44 1 3.100000 1.000000 335 513 754 0 0 0
45 1 3.100000 1.000000 445 482 806 0 0 0
46 1 3.100000 1.000000 851 220 659 0 0 0
47 1 3.100000 1.000000 66 622 702 0 0 0
48 1 3.100000 1.000000 408 27 416 0 0 0
49 1 3.100000 1.000000 700 112 290 0 0 0
50 1 3.100000 1.000000 36 721 169 0 0 0
51 1 3.100000 1.000000 892 761 118 0 0 0
52 1 3.100000 1.000000 593 212 3 0 0 0
53 1 3.100000 1.000000 195 111 876 0 0 0
54 1 3.100000 1.000000 660 446 541 0 0 0
55 1 3.100000 1.000000 515 891 175 0 0 0
56 1 3.100000 1.000000 473 894 395 0 0 0
57 1 3.100000 1.000000 284 113 117 0 0 0
58 1 3.100000 1.000000 139 521 196 0 0 0
59 1 3.100000 1.000000 607 373 309 0 0 0
60 1 3.100000 1.000000 897 410 130 0 0 0
61 1 3.100000 1.000000 218 402 891 0 0 0
62 1 3.100000 1.000000 388 147 255 0 0 0
63 1 3.100000 1.000000 392 394 366 0 0 0
64 1 3.100000 1.000000 420 155 865 0 0 0
65 1 3.100000 1.000000 113 722 8 0 0 0
66 1 3.100000 1.000000 288 295 3 0 0 0
67 1 3.100000 1.000000 735 631 116 0 0 0
68 1 3.100000 1.000000 4 770 689 0 0 0
69 1 3.100000 1.000000 200 529 162 0 0 0
70 1 3.100000 1.000000 561 578 572 0 0 0
71 1 3.100000 1.000000 691 796 127 0 0 0
72 1 3.100000 1.000000 735 285 274 0 0 0
73 1 3.100000 1.000000 142 729 669 0 0 0
74 1 3.100000 1.000000 561 301 824 0 0 0
75 1 3.100000 1.000000 526 414 646 0 0 0
76 1 3.100000 1.000000 534 754 93 0 0 0
77 1 3.100000 1.000000 537 589 776 0 0 0
78 1 3.100000 1.000000 705 593 647 0 0 0
79 1 3.100000 1.000000 494 845 328 0 0 0
80 1 3.100000 1.000000 657 507 7 0 0 0
81 1 3.100000 1.000000 329 350 803 0 0 0
82 1 3.100000 1.000000 508 237 240 0 0 0
83 1 3.100000 1.000000 783 380 121 0 0 0
84 1 3.100000 1.000000 552 41 474 0 0 0
85 1 3.100000 1.000000 528 619 888 0 0 0
86 1 3.100000 1.000000 326 305 794 0 0 0
87 1 3.100000 1.000000 471 895 483 0 0 0
88 1 3.100000 1.000000 347 700 228 0 0 0
89 1 3.100000 1.000000 146 295 174 0 0 0
90 1 3.100000 1.000000 475 104 733 0 0 0
91 1 3.100000 1.000000 482 485 235 0 0 0
92 1 3.100000 1.000000 437 94 473 0 0 0
93 1 3.100000 1.000000 730 877 5 0 0 0
94 1 3.100000 1.000000 3 581 98 0 0 0
95 1 3.100000 1.000000 478 261 717 0 0 0
96 1 3.100000 1.000000 466 587 174 0 0 0
97 1 3.100000 1.000000 413 158 169 0 0 0
98 1 3.100000 1.000000 896 557 870 0 0 0
99 1 3.100000 1.000000 277 704 317 0 0 0
100 1 3.100000 1.000000 503 279 421 0 0 0
101 1 3.100000 1.000000 336 813 6 0 0 0
102 1 3.100000 1.000000 571 350 100 0 0 0
103 1 3.100000 1.000000 196 232 129 0 0 0
104 1 3.100000 1.000000 201 236 710 0 0 0
105 1 3.100000 1.000000 351 714 71 0 0 0
106 1 3.100000 1.000000 168 332 710 0 0 0
107 1 3.100000 1.000000 343 745 20 0 0 0
108 1 3.100000 1.000000 564 742 578 0 0 0
109 1 3.100000 1.000000 586 171 382 0 0 0
110 1 3.100000 1.000000 3 674 713 0 0 0
111 1 3.100000 1.000000 476 110 626 0 0 0
112 1 3.100000 1.000000 535 733 128 0 0 0
113 1 3.100000 1.000000 687 82 361 0 0 0
114 1 3.100000 1.000000 869 283 597 0 0 0
115 1 3.100000 1.000000 679 635 463 0 0 0
116 1 3.100000 1.000000 803 855 795 0 0 0
117 1 3.100000 1.000000 665 350 641 0 0 0
118 1 3.100000 1.000000 686 67 535 0 0 0
119 1 3.100000 1.000000 364 653 706 0 0 0
120 1 3.100000 1.000000 798 657 480 0 0 0
121 1 3.100000 1.000000 611 285 642 0 0 0
122 1 3.100000 1.000000 389 872 527 0 0 0
123 1 3.100000 1.000000 517 660 609 0 0 0
124 1 3.100000 1.000000 30 629 45 0 0 0
125 1 3.100000 1.000000 679 460 732 0 0 0
126 1 3.100000 1.000000 242 415 739 0 0 0
127 1 3.100000 1.000000 138 181 242 0 0 0
128 1 3.100000 1.000000 831 19 309 0 0 0
129 1 3.100000 1.000000 466 435 62 0 0 0
130 1 3.100000 1.000000 324 333 771 0 0 0
131 1 3.100000 1.000000 856 96 209 0 0 0
132 1 3.100000 1.000000 598 485 181 0 0 0
133 1 3.100000 1.000000 277 154 893 0 0 0
134 1 3.100000 1.000000 887 185 674 0 0 0
135 1 3.100000 1.000000 84 864 235 0 0 0
136 1 3.100000 1.000000 816 259 702 0 0 0
137 1 3.100000 1.000000 655 397 35 0 0 0
138 1 3.100000 1.000000 49 328 54 0 0 0
139 1 3.100000 1.000000 358 846 541 0 0 0
140 1 3.100000 1.000000 473 270 26 0 0 0
141 1 3.100000 1.000000 344 226 122 0 0 0
142 1 3.100000 1.000000 553 876 659 0 0 0
143 1 3.100000 1.000000 787 253 866 0 0 0
144 1 3.100000 1.000000 780 240 151 0 0 0
145 1 3.100000 1.000000 555 376 167 0 0 0
146 1 3.100000 1.000000 842 292 426 0 0 0
147 1 3.100000 1.000000 644 100 875 0 0 0
148 1 3.100000 1.000000 732 149 355 0 0 0
149 1 3.100000 1.000000 838 560 301 0 0 0
150 1 3.100000 1.000000 480 133 571 0 0 0
151 1 3.100000 1.000000 506 529 849 0 0 0
152 1 3.100000 1.000000 629 235 825 0 0 0
153 1 3.100000 1.000000 440 122 179 0 0 0
154 1 3.100000 1.000000 406 54 471 0 0 0
155 1 3.100000 1.000000 609 661 848 0 0 0
156 1 3.100000 1.000000 777 603 292 0 0 0
157 1 3.100000 1.000000 355 400 444 0 0 0
158 1 3.100000 1.000000 383 232 646 0 0 0
159 1 3.100000 1.000000 738 222 306 0 0 0
160 1 3.100000 1.000000 140 702 491 0 0 0
161 1 3.100000 1.000000 763 309 120 0 0 0
162 1 3.100000 1.000000 713 90 407 0 0 0
163 1 3.100000 1.000000 638 530 581 0 0 0
164 1 3.100000 1.000000 869 37 636 0 0 0
165 1 3.100000 1.000000 493 646 397 0 0 0
166 1 3.100000 1.000000 441 575 153 0 0 0
167 1 3.100000 1.000000 785 83 605 0 0 0
168 1 3.100000 1.000000 330 466 889 0 0 0
169 1 3.100000 1.000000 76 304 211 0 0 0
170 1 3.100000 1.000000 434 496 14 0 0 0
171 1 3.100000 1.000000 25 412 323 0 0 0
172 1 3.100000 1.000000 197 225 465 0 0 0
173 1 3.100000 1.000000 657 15 95 0 0 0
174 1 3.100000 1.000000 338 37 184 0 0 0
175 1 3.100000 1.000000 74 530 883 0 0 0
176 1 3.100000 1.000000 524 71 558 0 0 0
177 1 3.100000 1.000000 677 8 693 0 0 0
178 1 3.100000 1.000000 434 338 311 0 0 0
179 1 3.100000 1.000000 423 466 616 0 0 0
180 1 3.100000 1.000000 634 52 264 0 0 0
181 1 3.100000 1.000000 700 77 676 0 0 0
182 1 3.100000 1.000000 175 327 53 0 0 0
183 1 3.100000 1.000000 640 84 69 0 0 0
184 1 3.100000 1.000000 788 474 106 0 0 0
185 1 3.100000 1.000000 72 549 688 0 0 0
186 1 3.100000 1.000000 55 225 759 0 0 0
187 1 3.100000 1.000000 666 54 819 0 0 0
188 1 3.100000 1.000000 459 488 258 0 0 0
189 1 3.100000 1.000000 771 11 776 0 0 0
190 1 3.100000 1.000000 539 697 829 0 0 0
191 1 3.100000 1.000000 855 550 58 0 0 0
192 1 3.100000 1.000000 684 725 437 0 0 0
193 1 3.100000 1.000000 737 466 521 0 0 0
194 1 3.100000 1.000000 858 354 96 0 0 0
195 1 3.100000 1.000000 116 478 697 0 0 0
196 1 3.100000 1.000000 804 534 22 0 0 0
197 1 3.100000 1.000000 715 352 76 0 0 0
198 1 3.100000 1.000000 635 863 616 0 0 0
199 1 3.100000 1.000000 45 786 679 0 0 0
200 1 3.100000 1.000000 821 477 528 0 0 0
201 1 3.100000 1.000000 802 433 178 0 0 0
202 1 3.100000 1.000000 861 269 4 0 0 0
203 1 3.100000 1.000000 398 106 522 0 0 0
204 1 3.100000 1.000000 72 117 876 0 0 0
205 1 3.100000 1.000000 220 285 454 0 0 0
206 1 3.100000 1.000000 69 190 140 0 0 0
207 1 3.100000 1.000000 91 57 544 0 0 0
208 1 3.100000 1.000000 219 692 508 0 0 0
209 1 3.100000 1.000000 887 789 394 0 0 0
210 1 3.100000 1.000000 666 711 872 0 0 0
211 1 3.100000 1.000000 294 613 457 0 0 0
212 1 3.100000 1.000000 473 626 726 0 0 0
213 1 3.100000 1.000000 529 125 884 0 0 0
214 1 3.100000 1.000000 151 197 153 0 0 0
215 1 3.100000 1.000000 179 469 439 0 0 0
216 1 3.100000 1.000000 685 538 629 0 0 0
217 1 3.100000 1.000000 826 681 686 0 0 0
218 1 3.100000 1.000000 470 0 531 0 0 0
219 1 3.100000 1.000000 130 887 420 0 0 0
220 1 3.100000 1.000000 525 705 283 0 0 0
221 1 3.100000 1.000000 549 99 49 0 0 0
222 1 3.100000 1.000000 158 624 675 0 0 0
223 1 3.100000 1.000000 36 253 800 0 0 0
224 1 3.100000 1.000000 20 404 149 0 0 0
225 1 3.100000 1.000000 174 583 670 0 0 0
226 1 3.100000 1.000000 665 369 308 0 0 0
227 1 3.100000 1.000000 394 347 89 0 0 0
228 1 3.100000 1.000000 232 869 141 0 0 0
229 1 3.100000 1.000000 815 100 180 0 0 0
230 1 3.100000 1.000000 388 677 885 0 0 0
231 1 3.100000 1.000000 671 326 137 0 0 0
232 1 3.100000 1.000000 720 536 761 0 0 0
233 1 3.100000 1.000000 496 572 115 0 0 0
234 1 3.100000 1.000000 448 592 571 0 0 0
235 1 3.100000 1.000000 650 818 255 0 0 0
236 1 3.100000 1.000000 420 583 676 0 0 0
237 1 3.100000 1.000000 729 129 123 0 0 0
238 1 3.100000 1.000000 870 414 92 0 0 0
239 1 3.100000 1.000000 112 329 192 0 0 0
240 1 3.100000 1.000000 344 717 869 0 0 0
241 1 3.100000 1.000000 330 541 347 0 0 0
242 1 3.100000 1.000000 519 361 883 0 0 0
243 1 3.100000 1.000000 380 9 555 0 0 0
244 1 3.100000 1.000000 547 458 300 0 0 0
245 1 3.100000 1.000000 219 260 270 0 0 0
246 1 3.100000 1.000000 526 680 6 0 0 0
247 1 3.100000 1.000000 302 561 135 0 0 0
248 1 3.100000 1.000000 425 532 601 0 0 0
249 1 3.100000 1.000000 569 696 31 0 0 0
250 1 3.100000 1.000000 762 140 800 0 0 0
251 1 3.100000 1.000000 783 522 441 0 0 0
252 1 3.100000 1.000000 231 141 855 0 0 0
253 1 3.100000 1.000000 266 574 864 0 0 0
254 1 3.100000 1.000000 822 273 474 0 0 0
255 1 3.100000 1.000000 274 544 734 0 0 0
256 1 3.100000 1.000000 544 170 567 0 0 0
257 1 3.100000 1.000000 602 524 228 0 0 0
258 1 3.100000 1.000000 738 101 812 0 0 0
259 1 3.100000 1.000000 439 671 608 0 0 0
260 1 3.100000 1.000000 522 585 801 0 0 0
261 1 3.100000 1.000000 475 468 475 0 0 0
262 1 3.100000 1.000000 68 751 617 0 0 0
263 1 3.100000 1.000000 23 118 343 0 0 0
264 1 3.100000 1.000000 40 92 616 0 0 0
265 1 3.100000 1.000000 566 418 261 0 0 0
266 1 3.100000 1.000000 453 114 483 0 0 0
267 1 3.100000 1.000000 120 717 108 0 0 0
268 1 3.100000 1.000000 400 607 209 0 0 0
269 1 3.100000 1.000000 313 198 32 0 0 0
270 1 3.100000 1.000000 73 773 617 0 0 0
271 1 3.100000 1.000000 874 348 238 0 0 0
272 1 3.100000 1.000000 502 468 89 0 0 0
273 1 3.100000 1.000000 271 492 259 0 0 0
274 1 3.100000 1.000000 614 584 403 0 0 0
275 1 3.100000 1.000000 382 250 821 0 0 0
276 1 3.100000 1.000000 695 703 88 0 0 0
277 1 3.100000 1.000000 279 875 805 0 0 0
278 1 3.100000 1.000000 439 376 512 0 0 0
279 1 3.100000 1.000000 648 689 710 0 0 0
280 1 3.100000 1.000000 681 814 583 0 0 0
281 1 3.100000 1.000000 450 841 83 0 0 0
282 1 3.100000 1.000000 688 443 552 0 0 0
283 1 3.100000 1.000000 830 714 196 0 0 0
284 1 3.100000 1.000000 189 480 780 0 0 0
285 1 3.100000 1.000000 645 862 182 0 0 0
286 1 3.100000 1.000000 618 658 38 0 0 0
287 1 3.100000 1.000000 706 89 13 0 0 0
288 1 3.100000 1.000000 611 528 389 0 0 0
289 1 3.100000 1.000000 275 328 230 0 0 0
290 1 3.100000 1.000000 138 161 145 0 0 0
291 1 3.100000 1.000000 773 612 138 0 0 0
292 1 3.100000 1.000000 857 400 581 0 0 0
293 1 3.100000 1.000000 561 382 447 0 0 0
294 1 3.100000 1.000000 757 572 27 0 0 0
295 1 3.100000 1.000000 689 369 889 0 0 0
296 1 3.100000 1.000000 871 87 699 0 0 0
297 1 3.100000 1.000000 9 794 788 0 0 0
298 1 3.100000 1.000000 75 557 416 0 0 0
299 1 3.100000 1.000000 516 833 745 0 0 0
300 1 3.100000 1.000000 747 71 6 0 0 0
301 1 3.100000 1.000000 44 896 670 0 0 0
302 1 3.100000 1.000000 182 853 223 0 0 0
303 1 3.100000 1.000000 815 514 605 0 0 0
304 1 3.100000 1.000000 362 423 329 0 0 0
305 1 3.100000 1.000000 389 212 698 0 0 0
306 1 3.100000 1.000000 430 184 786 0 0 0
307 1 3.100000 1.000000 230 245 732 0 0 0
308 1 3.100000 1.000000 118 320 389 0 0 0
309 1 3.100000 1.000000 587 837 374 0 0 0
310 1 3.100000 1.000000 432 736 497 0 0 0
311 1 3.100000 1.000000 490 832 494 0 0 0
312 1 3.100000 1.000000 313 166 447 0 0 0
313 1 3.100000 1.000000 536 81 114 0 0 0
314 1 3.100000 1.000000 293 495 537 0 0 0
315 1 3.100000 1.000000 623 884 750 0 0 0
316 1 3.100000 1.000000 421 414 86 0 0 0
317 1 3.100000 1.000000 359 696 331 0 0 0
318 1 3.100000 1.000000 191 815 704 0 0 0
319 1 3.100000 1.000000 633 502 693 0 0 0
320 1 3.100000 1.000000 107 86 581 0 0 0
321 1 3.100000 1.000000 605 576 513 0 0 0
322 1 3.100000 1.000000 199 41 679 0 0 0
323 1 3.100000 1.000000 698 577 812 0 0 0
324 1 3.100000 1.000000 864 871 407 0 0 0
325 1 3.100000 1.000000 502 646 443 0 0 0
326 1 3.100000 1.000000 404 219 9 0 0 0
327 1 3.100000 1.000000 542 579 706 0 0 0
328 1 3.100000 1.000000 873 822 621 0 0 0
329 1 3.100000 1.000000 729 555 275 0 0 0
330 1 3.100000 1.000000 574 663 361 0 0 0
331 1 3.100000 1.000000 255 420 89 0 0 0
332 1 3.100000 1.000000 820 619 131 0 0 0
333 1 3.100000 1.000000 651 469 760 0 0 0
334 1 3.100000 1.000000 563 434 731 0 0 0
335 1 3.100000 1.000000 122 88 529 0 0 0
336 1 3.100000 1.000000 565 492 749 0 0 0
337 1 3.100000 1.000000 627 134 428 0 0 0
338 1 3.100000 1.000000 433 159 402 0 0 0
339 1 3.100000 1.000000 154 41 58 0 0 0
340 1 3.100000 1.000000 481 615 773 0 0 0
341 1 3.100000 1.000000 842 23 293 0 0 0
342 1 3.100000 1.000000 31 895 64 0 0 0
343 1 3.100000 1.000000 214 647 533 0 0 0
344 1 3.100000 1.000000 75 362 67 0 0 0
345 1 3.100000 1.000000 858 537 207 0 0 0
346 1 3.100000 1.000000 488 254 699 0 0 0
347 1 3.100000 1.000000 337 881 885 0 0 0
348 1 3.100000 1.000000 817 414 197 0 0 0
349 1 3.100000 1.000000 319 620 238 0 0 0
350 1 3.100000 1.000000 377 201 5 0 0 0
351 1 3.100000 1.000000 302 195 80 0 0 0
352 1 3.100000 1.000000 595 279 76 0 0 0
353 1 3.100000 1.000000 659 493 775 0 0 0
354 1 3.100000 1.000000 345 568 289 0 0 0
355 1 3.100000 1.000000 464 527 826 0 0 0
356 1 3.100000 1.000000 672 167 233 0 0 0
357 1 3.100000 1.000000 471 504 214 0 0 0
358 1 3.100000 1.000000 509 421 681 0 0 0
359 1 3.100000 1.000000 706 792 401 0 0 0
360 1 3.100000 1.000000 44 270 655 0 0 0
361 1 3.100000 1.000000 101 624 850 0 0 0
362 1 3.100000 1.000000 182 320 229 0 0 0
363 1 3.100000 1.000000 310 131 775 0 0 0
364 1 3.100000 1.000000 474 93 122 0 0 0
365 1 3.100000 1.000000 453 765 289 0 0 0
366 1 3.100000 1.000000 686 388 845 0 0 0
367 1 3.100000 1.000000 52 897 418 0 0 0
368 1 3.100000 1.000000 733 703 311 0 0 0
369 1 3.100000 1.000000 287 799 633 0 0 0
370 1 3.100000 1.000000 94 53 357 0 0 0
371 1 3.100000 1.000000 96 235 729 0 0 0
372 1 3.100000 1.000000 378 597 861 0 0 0
373 1 3.100000 1.000000 253 782 489 0 0 0
374 1 3.100000 1.000000 696 408 634 0 0 0
375 1 3.100000 1.000000 871 13 499 0 0 0
376 1 3.100000 1.000000 312 751 888 0 0 0
377 1 3.100000 1.000000 258 804 37 0 0 0
378 1 3.100000 1.000000 676 689 793 0 0 0
379 1 3.100000 1.000000 139 128 744 0 0 0
380 1 3.100000 1.000000 772 222 797 0 0 0
381 1 3.100000 1.000000 230 319 184 0 0 0
382 1 3.100000 1.000000 59 697 781 0 0 0
383 1 3.100000 1.000000 72 50 715 0 0 0
384 1 3.100000 1.000000 614 798 276 0 0 0
385 1 3.100000 1.000000 348 821 289 0 0 0
386 1 3.100000 1.000000 848 234 193 0 0 0
387 1 3.100000 1.000000 888 544 97 0 0 0
388 1 3.100000 1.000000 25 372 838 0 0 0
389 1 3.100000 1.000000 870 512 67 0 0 0
390 1 3.100000 1.000000 715 384 289 0 0 0
391 1 3.100000 1.000000 612 666 660 0 0 0
392 1 3.100000 1.000000 797 778 457 0 0 0
393 1 3.100000 1.000000 678 850 559 0 0 0
394 1 3.100000 1.000000 494 616 458 0 0 0
395 1 3.100000 1.000000 822 65 431 0 0 0
396 1 3.100000 1.000000 211 65 665 0 0 0
397 1 3.100000 1.000000 404 105 361 0 0 0
398 1 3.100000 1.000000 553 182 734 0 0 0
399 1 3.100000 1.000000 492 153 398 0 0 0
400 1 3.100000 1.000000 559 868 834 0 0 0
401 1 3.100000 1.000000 0 580 601 0 0 0
402 1 3.100000 1.000000 661 529 479 0 0 0
403 1 3.100000 1.000000 270 360 481 0 0 0
404 1 3.100000 1.000000 830 6 250 0 0 0
405 1 3.100000 1.000000 440 828 367 0 0 0
406 1 3.100000 1.000000 871 139 484 0 0 0
407 1 3.100000 1.000000 637 596 589 0 0 0
408 1 3.100000 1.000000 150 301 771 0 0 0
409 1 3.100000 1.000000 884 793 76 0 0 0
410 1 3.100000 1.000000 434 504 44 0 0 0
411 1 3.100000 1.000000 369 557 677 0 0 0
412 1 3.100000 1.000000 122 318 306 0 0 0
413 1 3.100000 1.000000 601 588 666 0 0 0
414 1 3.100000 1.000000 234 570 672 0 0 0
415 1 3.100000 1.000000 536 110 652 0 0 0
416 1 3.100000 1.000000 3 82 792 0 0 0
417 1 3.100000 1.000000 487 771 540 0 0 0
418 1 3.100000 1.000000 228 21 841 0 0 0
419 1 3.100000 1.000000 152 58 787 0 0 0
420 1 3.100000 1.000000 228 492 391 0 0 0
421 1 3.100000 1.000000 325 861 48 0 0 0
422 1 3.100000 1.000000 102 83 418 0 0 0
423 1 3.100000 1.000000 460 736 159 0 0 0
424 1 3.100000 1.000000 279 123 729 0 0 0
425 1 3.100000 1.000000 103 659 840 0 0 0
426 1 3.100000 1.000000 756 715 22 0 0 0
427 1 3.100000 1.000000 700 302 793 0 0 0
428 1 3.100000 1.000000 340 583 814 0 0 0
429 1 3.100000 1.000000 333 735 24 0 0 0
430 1 3.100000 1.000000 220 63 517 0 0 0
431 1 3.100000 1.000000 612 440 530 0 0 0
432 1 3.100000 1.000000 712 542 614 0 0 0
433 1 3.100000 1.000000 283 155 502 0 0 0
434 1 3.100000 1.000000 442 486 677 0 0 0
435 1 3.100000 1.000000 323 589 437 0 0 0
436 1 3.100000 1.000000 315 497 304 0 0 0
437 1 3.100000 1.000000 337 297 658 0 0 0
438 1 3.100000 1.000000 282 689 341 0 0 0
439 1 3.100000 1.000000 249 123 176 0 0 0
440 1 3.100000 1.000000 273 343 292 0 0 0
441 1 3.100000 1.000000 842 107 732 0 0 0
442 1 3.100000 1.000000 473 872 427 0 0 0
443 1 3.100000 1.000000 239 255 634 0 0 0
444 1 3.100000 1.000000 741 749 220 0 0 0
445 1 3.100000 1.000000 519 224 861 0 0 0
446 1 3.100000 1.000000 108 540 459 0 0 0
447 1 3.100000 1.000000 412 29 756 0 0 0
448 1 3.100000 1.000000 170 312 598 0 0 0
449 1 3.100000 1.000000 512 613 721 0 0 0
450 1 3.100000 1.000000 740 38 216 0 0 0
451 1 3.100000 1.000000 184 881 324 0 0 0
452 1 3.100000 1.000000 69 506 296 0 0 0
453 1 3.100000 1.000000 548 745 603 0 0 0
454 1 3.100000 1.000000 282 586 452 0 0 0
455 1 3.100000 1.000000 554 257 676 0 0 0
456 1 3.100000 1.000000 515 417 368 0 0 0
457 1 3.100000 1.000000 74 829 398 0 0 0
458 1 3.100000 1.000000 831 152 762 0 0 0
459 1 3.100000 1.000000 529 716 475 0 0 0
460 1 3.100000 1.000000 402 608 565 0 0 0
461 1 3.100000 1.000000 618 793 546 0 0 0
462 1 3.100000 1.000000 42 862 152 0 0 0
463 1 3.100000 1.000000 390 562 49 0 0 0
464 1 3.100000 1.000000 93 844 636 0 0 0
465 1 3.100000 1.000000 597 498 45 0 0 0
466 1 3.100000 1.000000 426 113 463 0 0 0
467 1 3.100000 1.000000 794 188 444 0 0 0
468 1 3.100000 1.000000 292 171 596 0 0 0
469 1 3.100000 1.000000 154 752 412 0 0 0
470 1 3.100000 1.000000 681 306 173 0 0 0
471 1 3.100000 1.000000 347 24 66 0 0 0
472 1 3.100000 1.000000 45 119 80 0 0 0
473 1 3.100000 1.000000 250 561 642 0 0 0
474 1 3.100000 1.000000 351 707 638 0 0 0
475 1 3.100000 1.000000 87 456 236 0 0 0
476 1 3.100000 1.000000 185 882 401 0 0 0
477 1 3.100000 1.000000 648 829 641 0 0 0
478 1 3.100000 1.000000 192 273 864 0 0 0
479 1 3.100000 1.000000 841 480 768 0 0 0
480 1 3.100000 1.000000 405 313 174 0 0 0
481 1 3.100000 1.000000 578 712 251 0 0 0
482 1 3.100000 1.000000 644 810 422 0 0 0
483 1 3.100000 1.000000 776 212 83 0 0 0
484 1 3.100000 1.000000 518 563 842 0 0 0
485 1 3.100000 1.000000 256 703 399 0 0 0
486 1 3.100000 1.000000 544 888 433 0 0 0
487 1 3.100000 1.000000 98 636 362 0 0 0
488 1 3.100000 1.000000 739 880 688 0 0 0
489 1 3.100000 1.000000 756 821 268 0 0 0
490 1 3.100000 1.000000 624 327 633 0 0 0
491 1 3.100000 1.000000 851 57 446 0 0 0
492 1 3.100000 1.000000 254 702 356 0 0 0
493 1 3.100000 1.000000 676 630 568 0 0 0
494 1 3.100000 1.000000 811 249 231 0 0 0
495 1 3.100000 1.000000 806 557 34 0 0 0
496 1 3.100000 1.000000 305 254 74 0 0 0
497 1 3.100000 1.000000 738 352 762 0 0 0
498 1 3.100000 1.000000 253 243 743 0 0 0
499 1 3.100000 1.000000 93 99 716 0 0 0
500 1 3.100000 1.000000 413 724 195 0 0 0
501 1 3.100000 1.000000 146 727 253 0 0 0
502 1 3.100000 1.000000 592 81 107 0 0 0
503 1 3.100000 1.000000 48 809 737 0 0 0
504 1 3.100000 1.000000 668 772 138 0 0 0
505 1 3.100000 1.000000 52 678 696 0 0 0
506 1 3.100000 1.000000 86 83 102 0 0 0
507 1 3.100000 1.000000 213 874 454 0 0 0
508 1 3.100000 1.000000 75 279 697 0 0 0
509 1 3.100000 1.000000 818 372 849 0 0 0
510 1 3.100000 1.000000 635 837 725 0 0 0
511 1 3.100000 1.000000 882 83 552 0 0 0
512 1 3.100000 1.000000 235 676 685 0 0 0
513 1 3.100000 1.000000 342 776 594 0 0 0
514 1 3.100000 1.000000 180 597 466 0 0 0
515 1 3.100000 1.000000 318 649 245 0 0 0
516 1 3.100000 1.000000 166 787 380 0 0 0
517 1 3.100000 1.000000 268 100 406 0 0 0
518 1 3.100000 1.000000 774 176 685 0 0 0
519 1 3.100000 1.000000 624 146 209 0 0 0
520 1 3.100000 1.000000 573 781 198 0 0 0
521 1 3.100000 1.000000 398 764 282 0 0 0
522 1 3.100000 1.000000 102 151 110 0 0 0
523 1 3.100000 1.000000 787 494 38 0 0 0
524 1 3.100000 1.000000 533 674 635 0 0 0
525 1 3.100000 1.000000 99 144 384 0 0 0
526 1 3.100000 1.000000 396 311 324 0 0 0
527 1 3.100000 1.000000 829 631 424 0 0 0
528 1 3.100000 1.000000 335 506 600 0 0 0
529 1 3.100000 1.000000 173 230 747 0 0 0
530 1 3.100000 1.000000 434 855 680 0 0 0
531 1 3.100000 1.000000 633 405 596 0 0 0
532 1 3.100000 1.000000 67 507 800 0 0 0
533 1 3.100000 1.000000 177 394 394 0 0 0
534 1 3.100000 1.000000 267 27 220 0 0 0
535 1 3.100000 1.000000 3 178 416 0 0 0
536 1 3.100000 1.000000 439 627 727 0 0 0
537 1 3.100000 1.000000 763 608 511 0 0 0
538 1 3.100000 1.000000 340 43 169 0 0 0
539 1 3.100000 1.000000 92 268 451 0 0 0
540 1 3.100000 1.000000 891 755 406 0 0 0
541 1 3.100000 1.000000 672 540 811 0 0 0
542 1 3.100000 1.000000 420 607 470 0 0 0
543 1 3.100000 1.000000 320 836 864 0 0 0
544 1 3.100000 1.000000 766 203 43 0 0 0
545 1 3.100000 1.000000 138 258 273 0 0 0
546 1 3.100000 1.000000 555 750 0 0 0 0
547 1 3.100000 1.000000 434 613 608 0 0 0
548 1 3.100000 1.000000 45 105 704 0 0 0
549 1 3.100000 1.000000 266 198 124 0 0 0
550 1 3.100000 1.000000 717 189 31 0 0 0
551 1 3.100000 1.000000 275 13 571 0 0 0
552 1 3.100000 1.000000 186 486 330 0 0 0
553 1 3.100000 1.000000 656 858 318 0 0 0
554 1 3.100000 1.000000 672 725 522 0 0 0
555 1 3.100000 1.000000 767 863 832 0 0 0
556 1 3.100000 1.000000 141 518 682 0 0 0
557 1 3.100000 1.000000 193 53 448 0 0 0
558 1 3.100000 1.000000 854 150 553 0 0 0
559 1 3.100000 1.000000 710 417 751 0 0 0
560 1 3.100000 1.000000 886 234 41 0 0 0
561 1 3.100000 1.000000 18 562 54 0 0 0
562 1 3.100000 1.000000 641 748 540 0 0 0
563 1 3.100000 1.000000 72 557 499 0 0 0
564 1 3.100000 1.000000 390 381 376 0 0 0
565 1 3.100000 1.000000 64 249 391 0 0 0
566 1 3.100000 1.000000 897 442 10 0 0 0
567 1 3.100000 1.000000 731 687 115 0 0 0
568 1 3.100000 1.000000 279 641 317 0 0 0
569 1 3.100000 1.000000 833 503 786 0 0 0
570 1 3.100000 1.000000 736 490 173 0 0 0
571 1 3.100000 1.000000 777 560 735 0 0 0
572 1 3.100000 1.000000 884 301 635 0 0 0
573 1 3.100000 1.000000 576 373 344 0 0 0
574 1 3.100000 1.000000 227 816 726 0 0 0
575 1 3.100000 1.000000 603 880 127 0 0 0
576 1 3.100000 1.000000 147 29 569 0 0 0
577 1 3.100000 1.000000 209 761 408 0 0 0
578 1 3.100000 1.000000 376 140 202 0 0 0
579 1 3.100000 1.000000 693 125 705 0 0 0
580 1 3.100000 1.000000 580 862 347 0 0 0
581 1 3.100000 1.000000 805 791 7 0 0 0
582 1 3.100000 1.000000 640 775 309 0 0 0
583 1 3.100000 1.000000 375 504 734 0 0 0
584 1 3.100000 1.000000 720 731 650 0 0 0
585 1 3.100000 1.000000 598 487 683 0 0 0
586 1 3.100000 1.000000 725 634 764 0 0 0
587 1 3.100000 1.000000 446 843 625 0 0 0
588 1 3.100000 1.000000 854 319 818 0 0 0
589 1 3.100000 1.000000 208 164 95 0 0 0
590 1 3.100000 1.000000 14 796 57 0 0 0
591 1 3.100000 1.000000 361 701 1 0 0 0
592 1 3.100000 1.000000 421 441 776 0 0 0
593 1 3.100000 1.000000 730 869 432 0 0 0
594 1 3.100000 1.000000 616 741 264 0 0 0
595 1 3.100000 1.000000 367 439 803 0 0 0
596 1 3.100000 1.000000 202 316 589 0 0 0
597 1 3.100000 1.000000 66 814 532 0 0 0
598 1 3.100000 1.000000 744 820 3 0 0 0
599 1 3.100000 1.000000 714 129 167 0 0 0
600 1 3.100000 1.000000 809 195 116 0 0 0
601 1 3.100000 1.000000 19 556 817 0 0 0
602 1 3.100000 1.000000 20 129 411 0 0 0
603 1 3.100000 1.000000 848 859 432 0 0 0
604 1 3.100000 1.000000 381 576 273 0 0 0
605 1 3.100000 1.000000 697 95 764 0 0 0
606 1 3.100000 1.000000 600 349 232 0 0 0
607 1 3.100000 1.000000 289 467 198 0 0 0
608 1 3.100000 1.000000 873 311 118 0 0 0
609 1 3.100000 1.000000 28 125 299 0 0 0
610 1 3.100000 1.000000 247 87 494 0 0 0
611 1 3.100000 1.000000 363 106 203 0 0 0
612 1 3.100000 1.000000 333 126 332 0 0 0
613 1 3.100000 1.000000 744 126 344 0 0 0
614 1 3.100000 1.000000 276 507 72 0 0 0
615 1 3.100000 1.000000 601 304 219 0 0 0
616 1 3.100000 1.000000 465 56 568 0 0 0
617 1 3.100000 1.000000 749 397 135 0 0 0
618 1 3.100000 1.000000 47 422 499 0 0 0
619 1 3.100000 1.000000 217 450 624 0 0 0
620 1 3.100000 1.000000 517 698 711 0 0 0
621 1 3.100000 1.000000 163 213 869 0 0 0
622 1 3.100000 1.000000 418 546 147 0 0 0
623 1 3.100000 1.000000 803 390 274 0 0 0
624 1 3.100000 1.000000 247 718 781 0 0 0
625 1 3.100000 1.000000 371 419 238 0 0 0
626 1 3.100000 1.000000 590 36 346 0 0 0
627 1 3.100000 1.000000 310 837 796 0 0 0
628 1 3.100000 1.000000 445 884 318 0 0 0
629 1 3.100000 1.000000 96 202 769 0 0 0
630 1 3.100000 1.000000 721 771 619 0 0 0
631 1 3.100000 1.000000 584 86 832 0 0 0
632 1 3.100000 1.000000 606 505 479 0 0 0
633 1 3.100000 1.000000 753 408 21 0 0 0
634 1 3.100000 1.000000 127 707 740 0 0 0
635 1 3.100000 1.000000 61 178 311 0 0 0
636 1 3.100000 1.000000 351 768 400 0 0 0
637 1 3.100000 1.000000 749 178 337 0 0 0
638 1 3.100000 1.000000 645 675 322 0 0 0
639 1 3.100000 1.000000 64 772 576 0 0 0
640 1 3.100000 1.000000 885 645 499 0 0 0
641 1 3.100000 1.000000 604 381 585 0 0 0
642 1 3.100000 1.000000 536 87 242 0 0 0
643 1 3.100000 1.000000 167 893 702 0 0 0
644 1 3.100000 1.000000 189 120 509 0 0 0
645 1 3.100000 1.000000 81 233 687 0 0 0
646 1 3.100000 1.000000 392 636 607 0 0 0
647 1 3.100000 1.000000 792 486 785 0 0 0
648 1 3.100000 1.000000 282 231 613 0 0 0
649 1 3.100000 1.000000 656 295 537 0 0 0
650 1 3.100000 1.000000 384 280 282 0 0 0
651 1 3.100000 1.000000 883 36 715 0 0 0
652 1 3.100000 1.000000 620 573 803 0 0 0
653 1 3.100000 1.000000 863 792 796 0 0 0
654 1 3.100000 1.000000 717 81 68 0 0 0
655 1 3.100000 1.000000 327 162 354 0 0 0
656 1 3.100000 1.000000 166 607 90 0 0 0
657 1 3.100000 1.000000 774 551 628 0 0 0
658 1 3.100000 1.000000 711 833 860 0 0 0
659 1 3.100000 1.000000 424 589 307 0 0 0
660 1 3.100000 1.000000 113 73 640 0 0 0
661 1 3.100000 1.000000 395 108 676 0 0 0
662 1 3.100000 1.000000 263 729 401 0 0 0
663 1 3.100000 1.000000 166 744 294 0 0 0
664 1 3.100000 1.000000 114 561 375 0 0 0
665 1 3.100000 1.000000 234 40 590 0 0 0
666 1 3.100000 1.000000 640 207 297 0 0 0
667 1 3.100000 1.000000 783 81 848 0 0 0
668 1 3.100000 1.000000 511 844 834 0 0 0
669 1 3.100000 1.000000 471 421 575 0 0 0
670 1 3.100000 1.000000 831 534 649 0 0 0
671 1 3.100000 1.000000 571 82 809 0 0 0
672 1 3.100000 1.000000 347 345 690 0 0 0
673 1 3.100000 1.000000 801 563 534 0 0 0
674 1 3.100000 1.000000 195 729 248 0 0 0
675 1 3.100000 1.000000 622 63 340 0 0 0
676 1 3.100000 1.000000 312 756 547 0 0 0
677 1 3.100000 1.000000 661 639 680 0 0 0
678 1 3.100000 1.000000 662 250 625 0 0 0
679 1 3.100000 1.000000 596 774 146 0 0 0
680 1 3.100000 1.000000 323 705 732 0 0 0
681 1 3.100000 1.000000 124 428 814 0 0 0
682 1 3.100000 1.000000 34 827 259 0 0 0
683 1 3.100000 1.000000 724 728 822 0 0 0
684 1 3.100000 1.000000 411 75 651 0 0 0
685 1 3.100000 1.000000 711 698 767 0 0 0
686 1 3.100000 1.000000 151 162 623 0 0 0
687 1 3.100000 1.000000 699 824 414 0 0 0
688 1 3.100000 1.000000 531 638 716 0 0 0
689 1 3.100000 1.000000 308 386 642 0 0 0
690 1 3.100000 1.000000 506 709 499 0 0 0
691 1 3.100000 1.000000 339 834 27 0 0 0
692 1 3.100000 1.000000 253 868 855 0 0 0
693 1 3.100000 1.000000 565 744 735 0 0 0
694 1 3.100000 1.000000 539 255 811 0 0 0
695 1 3.100000 1.000000 343 66 609 0 0 0
696 1 3.100000 1.000000 210 218 823 0 0 0
697 1 3.100000 1.000000 885 69 799 0 0 0
698 1 3.100000 1.000000 451 600 537 0 0 0
699 1 3.100000 1.000000 267 61 23 0 0 0
700 1 3.100000 1.000000 10 567 785 0 0 0
701 1 3.100000 1.000000 509 6 719 0 0 0
702 1 3.100000 1.000000 589 312 739 0 0 0
703 1 3.100000 1.000000 544 29 583 0 0 0
704 1 3.100000 1.000000 431 568 839 0 0 0
705 1 3.100000 1.000000 342 11 57 0 0 0
706 1 3.100000 1.000000 103 273 275 0 0 0
707 1 3.100000 1.000000 27 310 396 0 0 0
708 1 3.100000 1.000000 878 761 149 0 0 0
709 1 3.100000 1.000000 516 181 210 0 0 0
710 1 3.100000 1.000000 591 243 777 0 0 0
711 1 3.100000 1.000000 476 804 836 0 0 0
712 1 3.100000 1.000000 295 493 248 0 0 0
713 1 3.100000 1.000000 134 137 277 0 0 0
714 1 3.100000 1.000000 770 621 897 0 0 0
715 1 3.100000 1.000000 709 63 61 0 0 0
716 1 3.100000 1.000000 766 219 334 0 0 0
717 1 3.100000 1.000000 194 246 697 0 0 0
718 1 3.100000 1.000000 642 224 610 0 0 0
719 1 3.100000 1.000000 791 792 843 0 0 0
720 1 3.100000 1.000000 153 536 186 0 0 0
721 1 3.100000 1.000000 83 112 91 0 0 0