LAMMPS data file via write_data, version 30 Jul 2016, timestep = 50000000

2772 atoms
8 atom types

0.0000000000000000e+00 1.0000000000000000e+02 xlo xhi
0.0000000000000000e+00 4.0000000000000000e+01 ylo yhi
0.0000000000000000e+00 4.0000000000000000e+01 zlo zhi

Masses

1 3.896
2 5.36
3 20.064
4 8.378
5 8.378
6 8.378
7 8.378
8 8.378

Atoms # meso-molecular

86 87 2 1.0280000000000094e+00 -1.6900702161436602e+03 1.0000000000000000e+00 4.2173206144543727e+00 1.0000000000000000e+01 8.2882360488578152e-02 
43 44 2 1.0280000000000091e+00 -7.6719006861872504e+02 1.0000000000000000e+00 4.2173109918799456e+00 1.0000000000000000e+01 8.2878948451504980e-02 
21 22 2 1.0280000000000005e+00 1.6018873683019056e+03 1.0000000000000000e+00 8.3554656448940747e+00 1.0000000000000000e+01 1.0899827813657106e+00 
417 418 2 1.0280000000000002e+00 2.6021229164876754e+03 1.0000000000000000e+00 1.1204169978607583e+01 1.0000000000000000e+01 5.3637515572481576e-01 
252 253 2 1.0280000000000002e+00 2.4872449725027282e+03 1.0000000000000000e+00 1.1340895463834851e+01 1.0000000000000000e+01 7.3190766252030304e-01 
421 422 2 1.0280000000000025e+00 -2.7530230021651209e+03 1.0000000000000000e+00 1.5007999512365162e+01 1.0000000000000000e+01 1.9378306708499728e+00 
222 223 2 1.0279999999999985e+00 -3.5338057686597203e+03 1.0000000000000000e+00 1.6494325061121426e+01 1.0000000000000000e+01 1.3764700517646711e+00 
221 222 2 1.0280000000000051e+00 5.8693407555369095e+03 1.0000000000000000e+00 1.7107368777221740e+01 1.0000000000000000e+01 1.9332939003354186e+00 
442 443 2 1.0280000000000014e+00 8.0702701644512217e+02 1.0000000000000000e+00 1.7820285448250939e+01 1.0000000000000000e+01 3.1354245026208877e-01 
182 183 2 1.0280000000000011e+00 7.3827730371739108e+03 1.0000000000000000e+00 1.9530275499967299e+01 1.0000000000000000e+01 1.1457741767582730e+00 
141 142 2 1.0279999999999978e+00 -3.6678937177764824e+03 1.0000000000000000e+00 1.9656025926684549e+01 1.0000000000000000e+01 1.5696994322044400e+00 
318 319 2 1.0280000000000049e+00 -1.3807588673166701e+03 1.0000000000000000e+00 2.1973166081149415e+01 1.0000000000000000e+01 1.6966421188283680e+00 
60 61 2 1.0280000000000056e+00 2.6161184665744131e+03 1.0000000000000000e+00 2.2024861313077288e+01 1.0000000000000000e+01 1.7143238790385762e+00 
149 150 2 1.0279999999999980e+00 -3.0501396911680949e+03 1.0000000000000000e+00 2.4266427970694160e+01 1.0000000000000000e+01 7.4659728380082768e-01 
68 69 2 1.0280000000000014e+00 1.7761109231348510e+03 1.0000000000000000e+00 2.4309002084835790e+01 1.0000000000000000e+01 1.0901620254187046e+00 
444 445 2 1.0280000000000018e+00 -1.6109787098146580e+03 1.0000000000000000e+00 2.5674487390734736e+01 1.0000000000000000e+01 1.1522247067472742e+00 
229 230 2 1.0279999999999965e+00 4.5640208981147298e+03 1.0000000000000000e+00 2.6718612287398674e+01 1.0000000000000000e+01 1.6191531355098903e+00 
85 86 2 1.0280000000000034e+00 -1.7056103122533636e+02 1.0000000000000000e+00 2.8717290663136108e+01 1.0000000000000000e+01 7.5118598994135899e-01 
253 254 2 1.0280000000000016e+00 -1.5536281226161582e+03 1.0000000000000000e+00 2.9772030229424132e+01 1.0000000000000000e+01 5.0308114357679234e-01 
428 429 2 1.0279999999999949e+00 1.8284126745263184e+03 1.0000000000000000e+00 3.1371944802128837e+01 1.0000000000000000e+01 1.9546564690715529e-01 
55 56 2 1.0280000000000051e+00 1.0032158611086786e+03 1.0000000000000000e+00 3.1453244012736821e+01 1.0000000000000000e+01 1.7230306927645958e+00 
343 344 2 1.0280000000000005e+00 -6.7863402354553036e+03 1.0000000000000000e+00 3.3059360503367238e+01 1.0000000000000000e+01 1.6529440745478876e+00 
706 707 2 1.0280000000000431e+00 1.3879759730718629e+03 1.0000000000000000e+00 3.9191261090173009e+00 1.3400000000000000e+01 1.8723472515698101e+00 
586 587 2 1.0280000000001115e+00 -7.0703700471880884e+03 1.0000000000000000e+00 4.8870339486485941e+00 1.3400000000000000e+01 3.4835753275979764e-01 
707 708 2 1.0280000000000329e+00 -2.3734108318770400e+03 1.0000000000000000e+00 3.9225814774469678e+00 1.3400000000000000e+01 1.8499287882002615e+00 
754 755 2 1.0279999999999996e+00 -1.0257245696686916e+03 1.0000000000000000e+00 6.2879849812531319e+00 1.3400000000000000e+01 6.6937814404132590e-01 
839 840 2 1.0279999999999576e+00 -1.6892810035942407e+03 1.0000000000000000e+00 7.4561808624601404e+00 1.3400000000000000e+01 1.4991355342208181e+00 
887 888 2 1.0279999999998568e+00 3.7613709716491408e+03 1.0000000000000000e+00 8.4258277821670919e+00 1.3400000000000000e+01 1.1793072275008893e+00 
683 684 2 1.0280000000004546e+00 5.8570442762087760e+03 1.0000000000000000e+00 1.2421131289719151e+01 1.3400000000000000e+01 1.0748243254913975e-01 
909 910 2 1.0279999999990519e+00 -2.1134829105402669e+03 1.0000000000000000e+00 1.2997211336630286e+01 1.3400000000000000e+01 2.4312858897617887e-01 
729 730 2 1.0279999999977916e+00 3.1297454383631411e+03 1.0000000000000000e+00 1.4834061711973947e+01 1.3400000000000000e+01 9.1052711707977596e-01 
731 732 2 1.0280000000018401e+00 1.8550834478205347e+03 1.0000000000000000e+00 1.4945033070283275e+01 1.3400000000000000e+01 1.3692233769938524e+00 
844 845 2 1.0279999999976503e+00 2.2252175299232613e+03 1.0000000000000000e+00 1.6877614858333715e+01 1.3400000000000000e+01 3.5834380540080091e-01 
677 678 2 1.0280000000009284e+00 -5.8815462510548659e+03 1.0000000000000000e+00 1.6601230529277625e+01 1.3400000000000000e+01 4.9227360177703766e-01 
508 509 2 1.0280000000007654e+00 2.4646328484551373e+03 1.0000000000000000e+00 1.8602401039745942e+01 1.3400000000000000e+01 2.1407729346505509e-02 
633 634 2 1.0280000000002141e+00 -1.0632758403459682e+03 1.0000000000000000e+00 1.8767659831986641e+01 1.3400000000000000e+01 7.5855424627986323e-01 
547 548 2 1.0279999999998495e+00 -1.7309470777089825e+02 1.0000000000000000e+00 2.1310202504819998e+01 1.3400000000000000e+01 1.2253998833427282e+00 
885 886 2 1.0279999999994438e+00 -1.3620775478609839e+03 1.0000000000000000e+00 2.1425511391078810e+01 1.3400000000000000e+01 1.1618542389112181e+00 
530 531 2 1.0280000000011109e+00 1.7764492370109820e+03 1.0000000000000000e+00 2.3222455138441283e+01 1.3400000000000000e+01 9.3021035196026647e-01 
611 612 2 1.0279999999994625e+00 -3.0498471783985096e+03 1.0000000000000000e+00 2.3540142965981406e+01 1.3400000000000000e+01 8.5370074734847723e-01 
780 781 2 1.0279999999986369e+00 -1.3786501940826770e+03 1.0000000000000000e+00 2.5678624977306271e+01 1.3400000000000000e+01 8.7774278295698838e-01 
522 523 2 1.0279999999986145e+00 2.6182692368290664e+03 1.0000000000000000e+00 2.5678628148222433e+01 1.3400000000000000e+01 8.7774809290486522e-01 
726 727 2 1.0279999999991316e+00 4.2962544509643776e+03 1.0000000000000000e+00 2.7843641984370183e+01 1.3400000000000000e+01 1.8081130614120138e+00 
563 564 2 1.0279999999991678e+00 2.6032179564625740e+03 1.0000000000000000e+00 2.9411129516657585e+01 1.3400000000000000e+01 1.7841789415838478e+00 
476 477 2 1.0279999999985345e+00 -3.5077025604626406e+03 1.0000000000000000e+00 3.2264348179419592e+01 1.3400000000000000e+01 1.5076120149981809e+00 
494 495 2 1.0279999999990435e+00 3.7518309379319817e+03 1.0000000000000000e+00 3.3266288876943918e+01 1.3400000000000000e+01 9.3249795962960891e-01 
770 771 2 1.0280000000000833e+00 -3.5993810106781675e+03 1.0000000000000000e+00 3.2065114764837254e+01 1.3400000000000000e+01 4.8687167424925998e-01 
1107 1108 2 1.0280000000000018e+00 2.8664733447655717e+03 1.0000000000000000e+00 4.6402273492354063e+00 1.6800000000000001e+01 1.0006499924360182e+00 
946 947 2 1.0279999999999998e+00 1.6678034530159598e+03 1.0000000000000000e+00 4.7275204631952708e+00 1.6800000000000001e+01 1.6323417102004514e+00 
951 952 2 1.0280000000000011e+00 -1.2186038583524987e+03 1.0000000000000000e+00 6.4252163630309713e+00 1.6800000000000001e+01 1.3855311922697682e+00 
939 940 2 1.0280000000000002e+00 -5.0542875464165918e+03 1.0000000000000000e+00 7.1923369821545817e+00 1.6800000000000001e+01 1.9072412303298816e+00 
1378 1379 2 1.0279999999999940e+00 -4.0589413328390319e+03 1.0000000000000000e+00 1.0021593452988681e+01 1.6800000000000001e+01 8.9373572627293285e-01 
1201 1202 2 1.0280000000000014e+00 7.3575031969781485e+03 1.0000000000000000e+00 1.0105313499604668e+01 1.6800000000000001e+01 1.0059913835573193e+00 
1384 1385 2 1.0279999999999980e+00 -1.4185130852579996e+03 1.0000000000000000e+00 1.2220284151440310e+01 1.6800000000000001e+01 1.5094143859060796e+00 
1105 1106 2 1.0280000000000009e+00 2.9635080913051952e+03 1.0000000000000000e+00 1.4808256208737422e+01 1.6800000000000001e+01 1.1044189845747405e+00 
934 935 2 1.0279999999999967e+00 -4.0200912559281705e+03 1.0000000000000000e+00 1.4933364246909289e+01 1.6800000000000001e+01 1.5720388310604123e+00 
1237 1238 2 1.0280000000000034e+00 -1.1263281391213613e+03 1.0000000000000000e+00 1.6746332453503943e+01 1.6800000000000001e+01 5.4191399015754746e-02 
1324 1325 2 1.0279999999999909e+00 3.6822447128356371e+03 1.0000000000000000e+00 1.6984736926540851e+01 1.6800000000000001e+01 1.4992343489475990e+00 
1242 1243 2 1.0280000000000022e+00 -1.3802128030597137e+03 1.0000000000000000e+00 1.8865909677775754e+01 1.6800000000000001e+01 5.3835646491953204e-01 
984 985 2 1.0280000000000051e+00 2.6166808209522642e+03 1.0000000000000000e+00 1.8867905998660149e+01 1.6800000000000001e+01 5.4760824788070672e-01 
1331 1332 2 1.0279999999999967e+00 6.2937308099087709e+01 1.0000000000000000e+00 2.1146650552871915e+01 1.6800000000000001e+01 1.2871298077758933e+00 
1367 1368 2 1.0280000000000002e+00 -3.3848886209470802e+03 1.0000000000000000e+00 2.2073983750907832e+01 1.6800000000000001e+01 3.4547838162616845e-01 
1374 1375 2 1.0280000000000045e+00 2.4605405662191306e+03 1.0000000000000000e+00 2.2211712964411177e+01 1.6800000000000001e+01 5.0580466357692555e-01 
954 955 2 1.0279999999999869e+00 2.7949313096581127e+03 1.0000000000000000e+00 2.9944200226832915e+01 1.6800000000000001e+01 1.7238878790243044e+00 
1034 1035 2 1.0279999999999980e+00 2.4848604859508969e+03 1.0000000000000000e+00 3.0466385011638831e+01 1.6800000000000001e+01 1.8907527379147200e+00 
983 984 2 1.0280000000000089e+00 1.8944202765186583e+03 1.0000000000000000e+00 2.9837002661235971e+01 1.6800000000000001e+01 2.4807442183172736e-02 
1070 1071 2 1.0280000000000087e+00 -2.9169906123967239e+03 1.0000000000000000e+00 2.9838740705289464e+01 1.6800000000000001e+01 2.4773232273495371e-02 
1023 1024 2 1.0279999999999925e+00 -1.5619285416321782e+03 1.0000000000000000e+00 3.2451750987087635e+01 1.6800000000000001e+01 1.3800149409173479e-01 
1108 1109 2 1.0279999999999969e+00 4.9939928261263849e+03 1.0000000000000000e+00 3.2468976189020808e+01 1.6800000000000001e+01 8.0926986891112010e-02 
123 124 2 1.0279999999999991e+00 1.6739942685944634e+03 1.0000000000000000e+00 8.1865219626363483e+00 1.0000000000000000e+01 2.3724497312931843e+00 
370 371 2 1.0279999999999994e+00 -5.6951255224945317e+02 1.0000000000000000e+00 8.4737352018586609e+00 1.0000000000000000e+01 2.3770965778510753e+00 
129 130 2 1.0280000000000031e+00 2.2549906453592303e+03 1.0000000000000000e+00 1.2914326458833910e+01 1.0000000000000000e+01 2.8667765150129556e+00 
128 129 2 1.0280000000000034e+00 -1.4797219169695694e+02 1.0000000000000000e+00 1.2912311110072139e+01 1.0000000000000000e+01 2.8724706294966493e+00 
256 257 2 1.0279999999999951e+00 -5.2978482194720516e+02 1.0000000000000000e+00 1.4450041130435810e+01 1.0000000000000000e+01 2.1544141535708459e+00 
213 214 2 1.0279999999999991e+00 3.1074091025677740e+03 1.0000000000000000e+00 1.6067955051077142e+01 1.0000000000000000e+01 3.4685115344991551e+00 
218 219 2 1.0280000000000005e+00 -2.3688923794314005e+03 1.0000000000000000e+00 1.6488626235758275e+01 1.0000000000000000e+01 3.8483328466275393e+00 
185 186 2 1.0279999999999994e+00 1.6839124111513679e+03 1.0000000000000000e+00 1.8727312206432497e+01 1.0000000000000000e+01 2.6720721865574890e+00 
231 232 2 1.0279999999999940e+00 7.6826095486745253e+03 1.0000000000000000e+00 2.1518228755060019e+01 1.0000000000000000e+01 3.0865243701800940e+00 
234 235 2 1.0280000000000018e+00 4.5573455053272983e+03 1.0000000000000000e+00 2.7120396297511917e+01 1.0000000000000000e+01 2.3689944832073238e+00 
274 275 2 1.0279999999999974e+00 4.8434125135632200e+02 1.0000000000000000e+00 2.5791165561477509e+01 1.0000000000000000e+01 3.7042567805330089e+00 
24 25 2 1.0279999999999982e+00 -1.6359197056191738e+03 1.0000000000000000e+00 2.5652333651975429e+01 1.0000000000000000e+01 3.9182764314191774e+00 
67 68 2 1.0279999999999985e+00 2.9479898305755751e+03 1.0000000000000000e+00 2.7981107810980877e+01 1.0000000000000000e+01 3.9598189279394331e+00 
392 393 2 1.0280000000000000e+00 2.7281898747104543e+02 1.0000000000000000e+00 2.7980886502174414e+01 1.0000000000000000e+01 3.9629185488351655e+00 
263 264 2 1.0279999999999920e+00 1.6399194411052717e+03 1.0000000000000000e+00 3.0813946940059775e+01 1.0000000000000000e+01 2.6821744024303045e+00 
54 55 2 1.0280000000000082e+00 2.3112144292874809e+03 1.0000000000000000e+00 3.0599560168837645e+01 1.0000000000000000e+01 3.4593363977484537e+00 
262 263 2 1.0279999999999969e+00 7.7252168796498026e+03 1.0000000000000000e+00 3.3240004872094843e+01 1.0000000000000000e+01 3.0053528061313881e+00 
709 710 2 1.0280000000000569e+00 9.0792055480139552e+03 1.0000000000000000e+00 4.7278331601048063e+00 1.3400000000000000e+01 3.3259769308864127e+00 
924 925 2 1.0279999999998348e+00 -2.7466707928667374e+03 1.0000000000000000e+00 6.1793396689048405e+00 1.3400000000000000e+01 3.0467851629716525e+00 
884 885 2 1.0280000000000580e+00 -8.4097084351120532e+02 1.0000000000000000e+00 7.7701271755779544e+00 1.3400000000000000e+01 3.5811725516502215e+00 
803 804 2 1.0280000000000313e+00 3.6907434989082858e+03 1.0000000000000000e+00 8.9384067685325519e+00 1.3400000000000000e+01 2.4107472513176780e+00 
883 884 2 1.0280000000000891e+00 -2.7510436494305804e+03 1.0000000000000000e+00 1.0614845997295154e+01 1.3400000000000000e+01 2.6190831167498954e+00 
675 676 2 1.0279999999999372e+00 3.1103054793691972e+03 1.0000000000000000e+00 1.0780849707061435e+01 1.3400000000000000e+01 2.7079981628386816e+00 
771 772 2 1.0280000000003904e+00 -3.8076767116602832e+03 1.0000000000000000e+00 1.3247807472620048e+01 1.3400000000000000e+01 2.0266002730783916e+00 
719 720 2 1.0279999999998626e+00 2.6648261577000194e+03 1.0000000000000000e+00 1.3534336381792857e+01 1.3400000000000000e+01 2.6980387569478905e+00 
767 768 2 1.0279999999996312e+00 -4.3298755925770329e+03 1.0000000000000000e+00 1.2690971478868104e+01 1.3400000000000000e+01 3.9386624308289453e+00 
591 592 2 1.0279999999988585e+00 2.2554453882142743e+03 1.0000000000000000e+00 1.8286823507075596e+01 1.3400000000000000e+01 2.1925661997042050e+00 
590 591 2 1.0280000000014009e+00 -1.4734995523630189e+02 1.0000000000000000e+00 1.8496932557994576e+01 1.3400000000000000e+01 2.6366896729761380e+00 
554 555 2 1.0280000000053025e+00 -1.0937635051695884e+03 1.0000000000000000e+00 2.0659156250222363e+01 1.3400000000000000e+01 2.8855186753609035e+00 
601 602 2 1.0279999999953677e+00 -6.9880339984591774e+03 1.0000000000000000e+00 2.0261855630511072e+01 1.3400000000000000e+01 2.9888698681442611e+00 
693 694 2 1.0279999999995950e+00 7.6819111611065146e+03 1.0000000000000000e+00 2.5217287880888023e+01 1.3400000000000000e+01 3.7074420965443666e+00 
688 689 2 1.0280000000010912e+00 6.5188652312428603e+03 1.0000000000000000e+00 2.4563311058798259e+01 1.3400000000000000e+01 3.9647438339197500e+00 
597 598 2 1.0280000000010494e+00 2.7172026387096173e+02 1.0000000000000000e+00 2.7188098413932334e+01 1.3400000000000000e+01 2.0003326354668300e+00 
640 641 2 1.0279999999992036e+00 7.7557657610454517e+03 1.0000000000000000e+00 2.8234407811645791e+01 1.3400000000000000e+01 3.4319405362599933e+00 
901 902 2 1.0279999999981848e+00 -1.7511544502405523e+03 1.0000000000000000e+00 3.0284291208477921e+01 1.3400000000000000e+01 2.0456473577646563e+00 
567 568 2 1.0280000000018772e+00 1.3245664493478332e+03 1.0000000000000000e+00 3.0146644665854719e+01 1.3400000000000000e+01 3.0923247618714838e+00 
732 733 2 1.0279999999986849e+00 7.3454112613710713e+03 1.0000000000000000e+00 3.2859654057217135e+01 1.3400000000000000e+01 3.5245000522454148e+00 
1075 1076 2 1.0280000000000002e+00 -5.5969117424613924e+03 1.0000000000000000e+00 4.2940306034457087e+00 1.6800000000000001e+01 3.4659111757227690e+00 
1116 1117 2 1.0280000000000000e+00 1.4841774678207046e+03 1.0000000000000000e+00 4.2938365291729372e+00 1.6800000000000001e+01 3.4668632445772762e+00 
1126 1127 2 1.0279999999999985e+00 1.2400138098026136e+02 1.0000000000000000e+00 8.2898741607348061e+00 1.6800000000000001e+01 2.5333775963452712e+00 
977 978 2 1.0280000000000007e+00 -1.9389785905044023e+03 1.0000000000000000e+00 8.2360477519331408e+00 1.6800000000000001e+01 3.1435522292283178e+00 
1165 1166 2 1.0280000000000047e+00 -3.5336752873250834e+03 1.0000000000000000e+00 1.1645396786335853e+01 1.6800000000000001e+01 2.0963651351157946e+00 
1348 1349 2 1.0279999999999976e+00 5.8439201548384426e+03 1.0000000000000000e+00 1.2759526623091556e+01 1.6800000000000001e+01 3.1204544614609175e+00 
1106 1107 2 1.0280000000000031e+00 7.3712832367042138e+03 1.0000000000000000e+00 1.4399730307549122e+01 1.6800000000000001e+01 3.1031345235159762e+00 
933 934 2 1.0279999999999976e+00 -4.0577469375647934e+03 1.0000000000000000e+00 1.5777140128420710e+01 1.6800000000000001e+01 3.5577912043520832e+00 
1155 1156 2 1.0280000000000027e+00 7.6842408090982290e+03 1.0000000000000000e+00 1.8008034801714427e+01 1.6800000000000001e+01 2.0916183102106296e+00 
1152 1153 2 1.0280000000000025e+00 9.0637963463713859e+03 1.0000000000000000e+00 1.7932859098580316e+01 1.6800000000000001e+01 3.3410688768546795e+00 
1281 1282 2 1.0280000000000138e+00 8.7663545666991968e+02 1.0000000000000000e+00 2.0590263026178079e+01 1.6800000000000001e+01 2.6725744476565105e+00 
1277 1278 2 1.0279999999999885e+00 2.5986254709528394e+03 1.0000000000000000e+00 2.0432955004053809e+01 1.6800000000000001e+01 2.8466434845739395e+00 
1056 1057 2 1.0279999999999996e+00 1.6744206739385277e+02 1.0000000000000000e+00 2.5278200951073309e+01 1.6800000000000001e+01 3.7606739028479836e+00 
969 970 2 1.0279999999999991e+00 -6.7190804620467702e+02 1.0000000000000000e+00 2.5266375326956801e+01 1.6800000000000001e+01 3.7687509513846944e+00 
947 948 2 1.0280000000000133e+00 -3.0431926432882292e+03 1.0000000000000000e+00 3.0662085830781560e+01 1.6800000000000001e+01 3.5728601364291168e+00 
1334 1335 2 1.0280000000000009e+00 -1.9336039644804437e+03 1.0000000000000000e+00 3.2994504819312546e+01 1.6800000000000001e+01 2.1233893606686727e+00 
960 961 2 1.0279999999999998e+00 1.0747580507435880e+03 1.0000000000000000e+00 3.2497790290814009e+01 1.6800000000000001e+01 2.4793161372520487e+00 
1083 1084 2 1.0279999999999925e+00 -2.4753907323442481e+03 1.0000000000000000e+00 3.3120682149666244e+01 1.6800000000000001e+01 3.7581507947925568e+00 
338 339 2 1.0279999999999954e+00 -1.5929372733173250e+03 1.0000000000000000e+00 1.2601043251115289e+01 1.0000000000000000e+01 4.7182397301226375e+00 
379 380 2 1.0280000000000056e+00 -7.5305548707114110e+02 1.0000000000000000e+00 1.2243551908811368e+01 1.0000000000000000e+01 5.6114469823681121e+00 
211 212 2 1.0280000000000022e+00 2.3478515772198834e+03 1.0000000000000000e+00 1.4020830073689813e+01 1.0000000000000000e+01 4.9777668732696743e+00 
175 176 2 1.0280000000000005e+00 -2.4526185760372539e+02 1.0000000000000000e+00 1.4323617921416698e+01 1.0000000000000000e+01 5.5943941349954400e+00 
212 213 2 1.0280000000000020e+00 -8.7394497739014951e+03 1.0000000000000000e+00 1.6420134988215040e+01 1.0000000000000000e+01 5.5684992664671826e+00 
296 297 2 1.0280000000000009e+00 -1.3372090287662635e+02 1.0000000000000000e+00 1.6373134110111227e+01 1.0000000000000000e+01 5.6193099444745993e+00 
143 144 2 1.0279999999999996e+00 -4.8749913918522470e+03 1.0000000000000000e+00 1.8796328148557933e+01 1.0000000000000000e+01 4.1236572792206303e+00 
225 226 2 1.0280000000000000e+00 2.3410897561362790e+03 1.0000000000000000e+00 1.9051737246550108e+01 1.0000000000000000e+01 4.1400489532869900e+00 
313 314 2 1.0279999999999994e+00 -1.1270118692680176e+03 1.0000000000000000e+00 2.0149835977353561e+01 1.0000000000000000e+01 5.7654699458835283e+00 
226 227 2 1.0280000000000025e+00 6.5170566775689058e+03 1.0000000000000000e+00 2.2057468643291571e+01 1.0000000000000000e+01 4.4250283602307059e+00 
228 229 2 1.0280000000000042e+00 9.0638600074698079e+03 1.0000000000000000e+00 2.2411946617708342e+01 1.0000000000000000e+01 4.1942617812760323e+00 
450 451 2 1.0280000000000027e+00 2.4590141403192888e+03 1.0000000000000000e+00 2.4361358642040173e+01 1.0000000000000000e+01 5.3046492507008898e+00 
443 444 2 1.0279999999999943e+00 -3.3860186509253513e+03 1.0000000000000000e+00 2.4149216442080917e+01 1.0000000000000000e+01 5.4651578819192235e+00 
358 359 2 1.0280000000000027e+00 7.5507202822282466e+02 1.0000000000000000e+00 2.6858135056364411e+01 1.0000000000000000e+01 5.3842321193879927e+00 
134 135 2 1.0279999999999909e+00 -2.2140186268622265e+03 1.0000000000000000e+00 3.0650104560970526e+01 1.0000000000000000e+01 4.9704428692909719e+00 
426 427 2 1.0280000000000022e+00 -6.9517466240226281e+02 1.0000000000000000e+00 3.0969392052207095e+01 1.0000000000000000e+01 5.4197740739549181e+00 
6 7 2 1.0280000000000029e+00 -3.2629991507106422e+02 1.0000000000000000e+00 3.2346666064052663e+01 1.0000000000000000e+01 4.1647124041548498e+00 
349 350 2 1.0279999999999960e+00 -2.6587130813862432e+03 1.0000000000000000e+00 3.3018925073452522e+01 1.0000000000000000e+01 5.1723419928069188e+00 
708 709 2 1.0280000000000302e+00 7.0207729924456471e+03 1.0000000000000000e+00 5.3396229373033357e+00 1.3400000000000000e+01 4.3103857362807476e+00 
753 754 2 1.0280000000001219e+00 -5.2657453237558354e+02 1.0000000000000000e+00 6.4310128706424621e+00 1.3400000000000000e+01 4.3455351380560030e+00 
920 921 2 1.0279999999998628e+00 3.8282813649931131e+03 1.0000000000000000e+00 8.7670051372771045e+00 1.3400000000000000e+01 4.1861799916338063e+00 
836 837 2 1.0279999999999847e+00 3.6255411723861775e+03 1.0000000000000000e+00 9.6891614632860037e+00 1.3400000000000000e+01 4.5969146713707847e+00 
514 515 2 1.0280000000000251e+00 -2.0311885902366989e+03 1.0000000000000000e+00 1.1431498119637457e+01 1.3400000000000000e+01 4.3534974989558854e+00 
599 600 2 1.0279999999998741e+00 -4.3514161601220840e+03 1.0000000000000000e+00 1.1596309923012292e+01 1.3400000000000000e+01 5.7148635720024465e+00 
923 924 2 1.0279999999998541e+00 -8.4958201524781953e+02 1.0000000000000000e+00 1.0120681557730618e+01 1.3400000000000000e+01 5.9405332948119565e+00 
466 467 2 1.0280000000004073e+00 5.9819088122878447e+03 1.0000000000000000e+00 1.3804098382897658e+01 1.3400000000000000e+01 4.5622637087742337e+00 
843 844 2 1.0279999999994234e+00 -7.0383930406725813e+02 1.0000000000000000e+00 1.5037872661560540e+01 1.3400000000000000e+01 5.1664292065357094e+00 
762 763 2 1.0279999999994154e+00 1.3447066877698367e+02 1.0000000000000000e+00 1.5027799660625613e+01 1.3400000000000000e+01 5.1880664922521325e+00 
902 903 2 1.0280000000008582e+00 -3.0354154950773982e+03 1.0000000000000000e+00 1.7548217774644964e+01 1.3400000000000000e+01 4.6072085234458733e+00 
775 776 2 1.0280000000008089e+00 -1.1268782888607930e+03 1.0000000000000000e+00 1.7673782176020175e+01 1.3400000000000000e+01 4.4174603080737533e+00 
862 863 2 1.0279999999973890e+00 3.6825437641703684e+03 1.0000000000000000e+00 1.8842494863798791e+01 1.3400000000000000e+01 5.5425116324072361e+00 
507 508 2 1.0280000000002705e+00 -6.6311221313408123e+02 1.0000000000000000e+00 2.0913891024264956e+01 1.3400000000000000e+01 5.0169758926517032e+00 
594 595 2 1.0280000000003078e+00 1.7613411127262916e+02 1.0000000000000000e+00 2.0928655911397826e+01 1.3400000000000000e+01 5.0452174451058935e+00 
715 716 2 1.0279999999988478e+00 -1.5549294234739314e+03 1.0000000000000000e+00 2.3197886297260418e+01 1.3400000000000000e+01 5.0326318407418240e+00 
716 717 2 1.0279999999988136e+00 -1.6975903412575731e+03 1.0000000000000000e+00 2.3197868108339829e+01 1.3400000000000000e+01 5.0323792475816695e+00 
905 906 2 1.0280000000005773e+00 -3.3850191499717275e+03 1.0000000000000000e+00 2.7201908305318309e+01 1.3400000000000000e+01 4.0236714294910474e+00 
912 913 2 1.0279999999988814e+00 2.4595724603516746e+03 1.0000000000000000e+00 2.6294569264938431e+01 1.3400000000000000e+01 4.3084725679322080e+00 
552 553 2 1.0280000000006617e+00 1.2499893360278438e+03 1.0000000000000000e+00 2.8813616155051349e+01 1.3400000000000000e+01 5.6975580598490296e+00 
559 560 2 1.0279999999999725e+00 -2.5490238904751882e+03 1.0000000000000000e+00 2.9683311681231256e+01 1.3400000000000000e+01 4.4171751174690002e+00 
768 769 2 1.0279999999997191e+00 -6.3343163794413595e+03 1.0000000000000000e+00 2.9551923980830583e+01 1.3400000000000000e+01 5.5586156659205077e+00 
475 476 2 1.0279999999993352e+00 2.3262139891141187e+03 1.0000000000000000e+00 3.2572470198130958e+01 1.3400000000000000e+01 5.2365812882598259e+00 
651 652 2 1.0279999999994223e+00 1.8712907550052296e+02 1.0000000000000000e+00 3.2588429383262600e+01 1.3400000000000000e+01 5.2424465878321769e+00 
1323 1324 2 1.0280000000000014e+00 3.3744345885059961e+03 1.0000000000000000e+00 4.7458296371312407e+00 1.6800000000000001e+01 5.2923885042976275e+00 
1122 1123 2 1.0280000000000005e+00 3.0911520908723796e+03 1.0000000000000000e+00 6.2260031077586317e+00 1.6800000000000001e+01 4.2960229445312432e+00 
957 958 2 1.0279999999999982e+00 -3.9240816897990630e+03 1.0000000000000000e+00 6.2426677110504718e+00 1.6800000000000001e+01 4.3572253757630799e+00 
1003 1004 2 1.0279999999999994e+00 -1.4722506861184945e+03 1.0000000000000000e+00 8.5074043118449083e+00 1.6800000000000001e+01 5.0365732650226525e+00 
1002 1003 2 1.0279999999999994e+00 -2.1099213788482002e+03 1.0000000000000000e+00 8.5183901123712165e+00 1.6800000000000001e+01 5.0504317139643886e+00 
1343 1344 2 1.0280000000000005e+00 -8.6825079497543038e+02 1.0000000000000000e+00 1.0929687461395019e+01 1.6800000000000001e+01 4.1628794509705607e+00 
1004 1005 2 1.0280000000000016e+00 -7.9521509837557051e+02 1.0000000000000000e+00 1.0325365855903078e+01 1.6800000000000001e+01 4.5936455277865509e+00 
1256 1257 2 1.0279999999999987e+00 3.8243085559512874e+03 1.0000000000000000e+00 1.1756022843548282e+01 1.6800000000000001e+01 5.8577493885590206e+00 
1365 1366 2 1.0280000000000009e+00 5.4607555524250370e+02 1.0000000000000000e+00 1.2354578348579075e+01 1.6800000000000001e+01 4.1493169736734421e+00 
1050 1051 2 1.0280000000000018e+00 -2.3192032258732263e+02 1.0000000000000000e+00 1.2846444352851822e+01 1.6800000000000001e+01 5.9181507204225072e+00 
1022 1023 2 1.0279999999999982e+00 -1.8125111263295855e+03 1.0000000000000000e+00 1.4890476910128218e+01 1.6800000000000001e+01 4.2830426615311472e+00 
1110 1111 2 1.0280000000000009e+00 7.3748501518299145e+03 1.0000000000000000e+00 1.6330186463219171e+01 1.6800000000000001e+01 4.8602593907330114e+00 
1361 1362 2 1.0279999999999963e+00 -4.8585382311852554e+03 1.0000000000000000e+00 1.7696411585339462e+01 1.6800000000000001e+01 4.7936413919264256e+00 
943 944 2 1.0280000000000014e+00 -1.8298197829279525e+03 1.0000000000000000e+00 1.9016443995429686e+01 1.6800000000000001e+01 4.0831898918213323e+00 
1322 1323 2 1.0280000000000022e+00 -3.8870099486878678e+02 1.0000000000000000e+00 2.1330244467140620e+01 1.6800000000000001e+01 4.8466402825724728e+00 
1357 1358 2 1.0280000000000011e+00 2.2604936667360348e+03 1.0000000000000000e+00 1.9991327232451003e+01 1.6800000000000001e+01 5.1227008329516357e+00 
1319 1320 2 1.0280000000000005e+00 1.5242804254678072e+03 1.0000000000000000e+00 2.2589965657762630e+01 1.6800000000000001e+01 4.6673876539644681e+00 
1329 1330 2 1.0280000000000020e+00 -2.5863779349582819e+03 1.0000000000000000e+00 2.3277979047750815e+01 1.6800000000000001e+01 4.9982956587539622e+00 
927 928 2 1.0280000000000009e+00 -1.4118136985478609e+03 1.0000000000000000e+00 2.6303011534329269e+01 1.6800000000000001e+01 4.7437212555130488e+00 
1261 1262 2 1.0279999999999998e+00 -1.8761643832008735e+02 1.0000000000000000e+00 2.6649337524989104e+01 1.6800000000000001e+01 5.7011251716465425e+00 
1160 1161 2 1.0280000000000022e+00 1.0498073991143539e+04 1.0000000000000000e+00 2.9418328693998408e+01 1.6800000000000001e+01 5.1959029689082303e+00 
1154 1155 2 1.0280000000000022e+00 5.3888789606309210e+03 1.0000000000000000e+00 2.9421371690823172e+01 1.6800000000000001e+01 5.1984864163864080e+00 
995 996 2 1.0279999999999874e+00 -1.4091305510384331e+02 1.0000000000000000e+00 3.0682458199426375e+01 1.6800000000000001e+01 4.1649051755150452e+00 
207 208 2 1.0280000000000002e+00 -4.9612890627005174e+02 1.0000000000000000e+00 1.0273887337724499e+01 1.0000000000000000e+01 6.1550172872224298e+00 
42 43 2 1.0280000000000005e+00 -2.7077717118285100e+03 1.0000000000000000e+00 1.0352413638776481e+01 1.0000000000000000e+01 6.0548508243343706e+00 
376 377 2 1.0280000000000029e+00 -7.0384327187125873e+03 1.0000000000000000e+00 1.0662813349849401e+01 1.0000000000000000e+01 7.8086953177302272e+00 
420 421 2 1.0279999999999936e+00 -7.6853155893558869e+02 1.0000000000000000e+00 1.1938358745999361e+01 1.0000000000000000e+01 7.1546045025670235e+00 
425 426 2 1.0279999999999980e+00 3.7602916901829067e+03 1.0000000000000000e+00 1.3638801816553503e+01 1.0000000000000000e+01 7.1399021428730434e+00 
374 375 2 1.0280000000000029e+00 3.6252940482334193e+03 1.0000000000000000e+00 1.5628512955850949e+01 1.0000000000000000e+01 7.5590883071858626e+00 
341 342 2 1.0280000000000007e+00 3.6914843598778225e+03 1.0000000000000000e+00 1.3877911146379784e+01 1.0000000000000000e+01 7.9293630549630727e+00 
440 441 2 1.0280000000000009e+00 -3.0353667851623300e+03 1.0000000000000000e+00 2.0052035360800712e+01 1.0000000000000000e+01 6.6118867251264790e+00 