LAMMPS data file via write_data, version 30 Jul 2016, timestep = 1000000

2080 atoms
8 atom types

0.0000000000000000e+00 4.0000000000000000e+01 xlo xhi
0.0000000000000000e+00 4.0000000000000000e+01 ylo yhi
0.0000000000000000e+00 1.0000000000000000e+02 zlo zhi

Masses

1 3.896
2 4.306
3 20.064
4 8.378
5 8.378
6 8.378
7 8.378
8 8.378

Atoms # meso-molecular

1 2 4 2.2559723595316457e+00 0.0000000000000000e+00 1.0000000000000000e+00 0.0000000000000000e+00 0.0000000000000000e+00 2.5000000000000000e+00 
2 2 4 2.2559723595316457e+00 0.0000000000000000e+00 1.0000000000000000e+00 0.0000000000000000e+00 2.0000000000000000e+00 2.5000000000000000e+00 
3 2 4 2.2559723595316457e+00 0.0000000000000000e+00 1.0000000000000000e+00 0.0000000000000000e+00 4.0000000000000000e+00 2.5000000000000000e+00 
4 2 4 2.2559723595316457e+00 0.0000000000000000e+00 1.0000000000000000e+00 0.0000000000000000e+00 6.0000000000000000e+00 2.5000000000000000e+00 
5 2 4 2.2559723595316457e+00 0.0000000000000000e+00 1.0000000000000000e+00 0.0000000000000000e+00 8.0000000000000000e+00 2.5000000000000000e+00 
21 2 4 2.2559723595316457e+00 0.0000000000000000e+00 1.0000000000000000e+00 2.0000000000000000e+00 0.0000000000000000e+00 2.5000000000000000e+00 
22 2 4 2.2559723595316457e+00 0.0000000000000000e+00 1.0000000000000000e+00 2.0000000000000000e+00 2.0000000000000000e+00 2.5000000000000000e+00 
23 2 4 2.2559723595316457e+00 0.0000000000000000e+00 1.0000000000000000e+00 2.0000000000000000e+00 4.0000000000000000e+00 2.5000000000000000e+00 
24 2 4 2.2559723595316457e+00 0.0000000000000000e+00 1.0000000000000000e+00 2.0000000000000000e+00 6.0000000000000000e+00 2.5000000000000000e+00 
25 2 4 2.2559723595316457e+00 0.0000000000000000e+00 1.0000000000000000e+00 2.0000000000000000e+00 8.0000000000000000e+00 2.5000000000000000e+00 
41 2 4 2.2559723595316457e+00 0.0000000000000000e+00 1.0000000000000000e+00 4.0000000000000000e+00 0.0000000000000000e+00 2.5000000000000000e+00 
42 2 4 2.2559723595316457e+00 0.0000000000000000e+00 1.0000000000000000e+00 4.0000000000000000e+00 2.0000000000000000e+00 2.5000000000000000e+00 
43 2 4 2.2559723595316457e+00 0.0000000000000000e+00 1.0000000000000000e+00 4.0000000000000000e+00 4.0000000000000000e+00 2.5000000000000000e+00 
44 2 4 2.2559723595316457e+00 -1.4993018518207640e-01 1.0000000000000000e+00 4.0000000000000000e+00 6.0000000000000000e+00 2.5000000000000000e+00 
45 2 4 2.2559723595316457e+00 -1.0140059996492476e+00 1.0000000000000000e+00 4.0000000000000000e+00 8.0000000000000000e+00 2.5000000000000000e+00 
61 2 4 2.2559723595316457e+00 0.0000000000000000e+00 1.0000000000000000e+00 6.0000000000000000e+00 0.0000000000000000e+00 2.5000000000000000e+00 
62 2 4 2.2559723595316457e+00 -6.1990394067043195e-02 1.0000000000000000e+00 6.0000000000000000e+00 2.0000000000000000e+00 2.5000000000000000e+00 
63 2 4 2.2559723595316457e+00 -2.7508245271878544e+00 1.0000000000000000e+00 6.0000000000000000e+00 4.0000000000000000e+00 2.5000000000000000e+00 
64 2 4 2.2559723595316457e+00 -1.4131466430045835e+01 1.0000000000000000e+00 6.0000000000000000e+00 6.0000000000000000e+00 2.5000000000000000e+00 
65 2 4 2.2559723595316457e+00 -3.8077398154306792e+01 1.0000000000000000e+00 6.0000000000000000e+00 8.0000000000000000e+00 2.5000000000000000e+00 
81 2 4 2.2559723595316457e+00 -6.1994086162871012e-02 1.0000000000000000e+00 8.0000000000000000e+00 0.0000000000000000e+00 2.5000000000000000e+00 
82 2 4 2.2559723595316457e+00 -5.1002713468196754e+00 1.0000000000000000e+00 8.0000000000000000e+00 2.0000000000000000e+00 2.5000000000000000e+00 
83 2 4 2.2559723595316457e+00 -3.3892437145112453e+01 1.0000000000000000e+00 8.0000000000000000e+00 4.0000000000000000e+00 2.5000000000000000e+00 
84 2 4 2.2559723595316457e+00 -1.1174469008784584e+02 1.0000000000000000e+00 8.0000000000000000e+00 6.0000000000000000e+00 2.5000000000000000e+00 
85 2 4 2.2559723595316457e+00 -2.4831872273607544e+02 1.0000000000000000e+00 8.0000000000000000e+00 8.0000000000000000e+00 2.5000000000000000e+00 
101 2 4 2.2559723595316457e+00 -2.7478811993245396e+00 1.0000000000000000e+00 1.0000000000000000e+01 0.0000000000000000e+00 2.5000000000000000e+00 
102 2 4 2.2559723595316457e+00 -3.3699820107703736e+01 1.0000000000000000e+00 1.0000000000000000e+01 2.0000000000000000e+00 2.5000000000000000e+00 
103 2 4 2.2559723595316457e+00 -1.5165709149427337e+02 1.0000000000000000e+00 1.0000000000000000e+01 4.0000000000000000e+00 2.5000000000000000e+00 
104 2 4 2.2559723595316457e+00 -4.1999705557381105e+02 1.0000000000000000e+00 1.0000000000000000e+01 6.0000000000000000e+00 2.5000000000000000e+00 
105 2 4 2.2559723595316457e+00 -8.5373098260995107e+02 1.0000000000000000e+00 1.0000000000000000e+01 8.0000000000000000e+00 2.5000000000000000e+00 
121 2 4 2.2559723595316457e+00 -1.4094806656717985e+01 1.0000000000000000e+00 1.2000000000000000e+01 0.0000000000000000e+00 2.5000000000000000e+00 
122 2 4 2.2559723595316457e+00 -1.0951625808721811e+02 1.0000000000000000e+00 1.2000000000000000e+01 2.0000000000000000e+00 2.5000000000000000e+00 
123 2 4 2.2559723595316457e+00 -4.1380484445578440e+02 1.0000000000000000e+00 1.2000000000000000e+01 4.0000000000000000e+00 2.5000000000000000e+00 
124 2 4 2.2559723595316457e+00 -1.0486172370333893e+03 1.0000000000000000e+00 1.2000000000000000e+01 6.0000000000000000e+00 2.5000000000000000e+00 
125 2 4 2.2559723595316457e+00 -2.0328663858010295e+03 1.0000000000000000e+00 1.2000000000000000e+01 8.0000000000000000e+00 2.5000000000000000e+00 
141 2 4 2.2559723595316457e+00 -3.7793963712462400e+01 1.0000000000000000e+00 1.4000000000000000e+01 0.0000000000000000e+00 2.5000000000000000e+00 
142 2 4 2.2559723595316457e+00 -2.3753213324665097e+02 1.0000000000000000e+00 1.4000000000000000e+01 2.0000000000000000e+00 2.5000000000000000e+00 
143 2 4 2.2559723595316457e+00 -8.1921820340134013e+02 1.0000000000000000e+00 1.4000000000000000e+01 4.0000000000000000e+00 2.5000000000000000e+00 
144 2 4 2.2559723595316457e+00 -1.9757699897180078e+03 1.0000000000000000e+00 1.4000000000000000e+01 6.0000000000000000e+00 2.5000000000000000e+00 
145 2 4 2.2559723595316457e+00 -3.7303457379024776e+03 1.0000000000000000e+00 1.4000000000000000e+01 8.0000000000000000e+00 2.5000000000000000e+00 
161 2 4 2.2559723595316457e+00 -6.8081157114598554e+01 1.0000000000000000e+00 1.6000000000000000e+01 0.0000000000000000e+00 2.5000000000000000e+00 
162 2 4 2.2559723595316457e+00 -3.8488897654604864e+02 1.0000000000000000e+00 1.6000000000000000e+01 2.0000000000000000e+00 2.5000000000000000e+00 
163 2 4 2.2559723595316457e+00 -1.2615505750485661e+03 1.0000000000000000e+00 1.6000000000000000e+01 4.0000000000000000e+00 2.5000000000000000e+00 
164 2 4 2.2559723595316457e+00 -2.9580408230569706e+03 1.0000000000000000e+00 1.6000000000000000e+01 6.0000000000000000e+00 2.5000000000000000e+00 
165 2 4 2.2559723595316457e+00 -5.5043381705946958e+03 1.0000000000000000e+00 1.6000000000000000e+01 8.0000000000000000e+00 2.5000000000000000e+00 
181 2 4 2.2559723595316457e+00 -9.0017420267605544e+01 1.0000000000000000e+00 1.8000000000000000e+01 0.0000000000000000e+00 2.5000000000000000e+00 
182 2 4 2.2559723595316457e+00 -4.8609989598182767e+02 1.0000000000000000e+00 1.8000000000000000e+01 2.0000000000000000e+00 2.5000000000000000e+00 
183 2 4 2.2559723595316457e+00 -1.5560942208772319e+03 1.0000000000000000e+00 1.8000000000000000e+01 4.0000000000000000e+00 2.5000000000000000e+00 
184 2 4 2.2559723595316457e+00 -3.6016042210251289e+03 1.0000000000000000e+00 1.8000000000000000e+01 6.0000000000000000e+00 2.5000000000000000e+00 
185 2 4 2.2559723595316457e+00 -6.6589874992908399e+03 1.0000000000000000e+00 1.8000000000000000e+01 8.0000000000000000e+00 2.5000000000000000e+00 
6 2 4 2.2559723595316457e+00 0.0000000000000000e+00 1.0000000000000000e+00 0.0000000000000000e+00 1.0000000000000000e+01 2.5000000000000000e+00 
7 2 4 2.2559723595316457e+00 0.0000000000000000e+00 1.0000000000000000e+00 0.0000000000000000e+00 1.2000000000000000e+01 2.5000000000000000e+00 
8 2 4 2.2559723595316457e+00 0.0000000000000000e+00 1.0000000000000000e+00 0.0000000000000000e+00 1.4000000000000000e+01 2.5000000000000000e+00 
9 2 4 2.2559723595316457e+00 0.0000000000000000e+00 1.0000000000000000e+00 0.0000000000000000e+00 1.6000000000000000e+01 2.5000000000000000e+00 
10 2 4 2.2559723595316457e+00 0.0000000000000000e+00 1.0000000000000000e+00 0.0000000000000000e+00 1.8000000000000000e+01 2.5000000000000000e+00 
26 2 4 2.2559723595316457e+00 0.0000000000000000e+00 1.0000000000000000e+00 2.0000000000000000e+00 1.0000000000000000e+01 2.5000000000000000e+00 
27 2 4 2.2559723595316457e+00 0.0000000000000000e+00 1.0000000000000000e+00 2.0000000000000000e+00 1.2000000000000000e+01 2.5000000000000000e+00 
28 2 4 2.2559723595316457e+00 0.0000000000000000e+00 1.0000000000000000e+00 2.0000000000000000e+00 1.4000000000000000e+01 2.5000000000000000e+00 
29 2 4 2.2559723595316457e+00 0.0000000000000000e+00 1.0000000000000000e+00 2.0000000000000000e+00 1.6000000000000000e+01 2.5000000000000000e+00 
30 2 4 2.2559723595316457e+00 0.0000000000000000e+00 1.0000000000000000e+00 2.0000000000000000e+00 1.8000000000000000e+01 2.5000000000000000e+00 
46 2 4 2.2559723595316457e+00 -2.4599728017830498e+00 1.0000000000000000e+00 4.0000000000000000e+00 1.0000000000000000e+01 2.5000000000000000e+00 
47 2 4 2.2559723595316457e+00 -3.6198531459399170e+00 1.0000000000000000e+00 4.0000000000000000e+00 1.2000000000000000e+01 2.5000000000000000e+00 
48 2 4 2.2559723595316457e+00 -4.0878124157070266e+00 1.0000000000000000e+00 4.0000000000000000e+00 1.4000000000000000e+01 2.5000000000000000e+00 
49 2 4 2.2559723595316457e+00 -4.2739803599393023e+00 1.0000000000000000e+00 4.0000000000000000e+00 1.6000000000000000e+01 2.5000000000000000e+00 
50 2 4 2.2559723595316457e+00 -4.3372796466119787e+00 1.0000000000000000e+00 4.0000000000000000e+00 1.8000000000000000e+01 2.5000000000000000e+00 
66 2 4 2.2559723595316457e+00 -7.0430006873671317e+01 1.0000000000000000e+00 6.0000000000000000e+00 1.0000000000000000e+01 2.5000000000000000e+00 
67 2 4 2.2559723595316457e+00 -1.0070677285285620e+02 1.0000000000000000e+00 6.0000000000000000e+00 1.2000000000000000e+01 2.5000000000000000e+00 
68 2 4 2.2559723595316457e+00 -1.2073881333255922e+02 1.0000000000000000e+00 6.0000000000000000e+00 1.4000000000000000e+01 2.5000000000000000e+00 
69 2 4 2.2559723595316457e+00 -1.3014758053948395e+02 1.0000000000000000e+00 6.0000000000000000e+00 1.6000000000000000e+01 2.5000000000000000e+00 
70 2 4 2.2559723595316457e+00 -1.3353084054589957e+02 1.0000000000000000e+00 6.0000000000000000e+00 1.8000000000000000e+01 2.5000000000000000e+00 
86 2 4 2.2559723595316457e+00 -4.2178376045684701e+02 1.0000000000000000e+00 8.0000000000000000e+00 1.0000000000000000e+01 2.5000000000000000e+00 
87 2 4 2.2559723595316457e+00 -5.8793455141011009e+02 1.0000000000000000e+00 8.0000000000000000e+00 1.2000000000000000e+01 2.5000000000000000e+00 
88 2 4 2.2559723595316457e+00 -7.0882055281120859e+02 1.0000000000000000e+00 8.0000000000000000e+00 1.4000000000000000e+01 2.5000000000000000e+00 
89 2 4 2.2559723595316457e+00 -7.7471385668486596e+02 1.0000000000000000e+00 8.0000000000000000e+00 1.6000000000000000e+01 2.5000000000000000e+00 
90 2 4 2.2559723595316457e+00 -7.9960965477471359e+02 1.0000000000000000e+00 8.0000000000000000e+00 1.8000000000000000e+01 2.5000000000000000e+00 
106 2 4 2.2559723595316457e+00 -1.3878449023826511e+03 1.0000000000000000e+00 1.0000000000000000e+01 1.0000000000000000e+01 2.5000000000000000e+00 
107 2 4 2.2559723595316457e+00 -1.9027932590670343e+03 1.0000000000000000e+00 1.0000000000000000e+01 1.2000000000000000e+01 2.5000000000000000e+00 
108 2 4 2.2559723595316457e+00 -2.2920586241935025e+03 1.0000000000000000e+00 1.0000000000000000e+01 1.4000000000000000e+01 2.5000000000000000e+00 
109 2 4 2.2559723595316457e+00 -2.5163422717055009e+03 1.0000000000000000e+00 1.0000000000000000e+01 1.6000000000000000e+01 2.5000000000000000e+00 
110 2 4 2.2559723595316457e+00 -2.6055391159441679e+03 1.0000000000000000e+00 1.0000000000000000e+01 1.8000000000000000e+01 2.5000000000000000e+00 
126 2 4 2.2559723595316457e+00 -3.2281232273931591e+03 1.0000000000000000e+00 1.2000000000000000e+01 1.0000000000000000e+01 2.5000000000000000e+00 
127 2 4 2.2559723595316457e+00 -4.3867406194815158e+03 1.0000000000000000e+00 1.2000000000000000e+01 1.2000000000000000e+01 2.5000000000000000e+00 
128 2 4 2.2559723595316457e+00 -5.2793659501385937e+03 1.0000000000000000e+00 1.2000000000000000e+01 1.4000000000000000e+01 2.5000000000000000e+00 
129 2 4 2.2559723595316457e+00 -5.8096977272821414e+03 1.0000000000000000e+00 1.2000000000000000e+01 1.6000000000000000e+01 2.5000000000000000e+00 
130 2 4 2.2559723595316457e+00 -6.0284000720064623e+03 1.0000000000000000e+00 1.2000000000000000e+01 1.8000000000000000e+01 2.5000000000000000e+00 
146 2 4 2.2559723595316457e+00 -5.8510272718945889e+03 1.0000000000000000e+00 1.4000000000000000e+01 1.0000000000000000e+01 2.5000000000000000e+00 
147 2 4 2.2559723595316457e+00 -7.9210781323767060e+03 1.0000000000000000e+00 1.4000000000000000e+01 1.2000000000000000e+01 2.5000000000000000e+00 
148 2 4 2.2559723595316457e+00 -9.5405510496749848e+03 1.0000000000000000e+00 1.4000000000000000e+01 1.4000000000000000e+01 2.5000000000000000e+00 
149 2 4 2.2559723595316457e+00 -1.0522468539545469e+04 1.0000000000000000e+00 1.4000000000000000e+01 1.6000000000000000e+01 2.5000000000000000e+00 
150 2 4 2.2559723595316457e+00 -1.0934178352336852e+04 1.0000000000000000e+00 1.4000000000000000e+01 1.8000000000000000e+01 2.5000000000000000e+00 
166 2 4 2.2559723595316457e+00 -8.5817484749457308e+03 1.0000000000000000e+00 1.6000000000000000e+01 1.0000000000000000e+01 2.5000000000000000e+00 
167 2 4 2.2559723595316457e+00 -1.1605821774044629e+04 1.0000000000000000e+00 1.6000000000000000e+01 1.2000000000000000e+01 2.5000000000000000e+00 
168 2 4 2.2559723595316457e+00 -1.3999150890733323e+04 1.0000000000000000e+00 1.6000000000000000e+01 1.4000000000000000e+01 2.5000000000000000e+00 
169 2 4 2.2559723595316457e+00 -1.5470891357271405e+04 1.0000000000000000e+00 1.6000000000000000e+01 1.6000000000000000e+01 2.5000000000000000e+00 
170 2 4 2.2559723595316457e+00 -1.6097025955075365e+04 1.0000000000000000e+00 1.6000000000000000e+01 1.8000000000000000e+01 2.5000000000000000e+00 
186 2 4 2.2559723595316457e+00 -1.0357528356750274e+04 1.0000000000000000e+00 1.8000000000000000e+01 1.0000000000000000e+01 2.5000000000000000e+00 
187 2 4 2.2559723595316457e+00 -1.4007208781842528e+04 1.0000000000000000e+00 1.8000000000000000e+01 1.2000000000000000e+01 2.5000000000000000e+00 
188 2 4 2.2559723595316457e+00 -1.6913484918492897e+04 1.0000000000000000e+00 1.8000000000000000e+01 1.4000000000000000e+01 2.5000000000000000e+00 
189 2 4 2.2559723595316457e+00 -1.8714596211585402e+04 1.0000000000000000e+00 1.8000000000000000e+01 1.6000000000000000e+01 2.5000000000000000e+00 
190 2 4 2.2559723595316457e+00 -1.9488635999152750e+04 1.0000000000000000e+00 1.8000000000000000e+01 1.8000000000000000e+01 2.5000000000000000e+00 
946 548 2 1.0282506645801426e+00 8.9754254610534263e+03 1.0000000000000000e+00 1.1712495627314505e+01 1.9357487946588169e+01 5.5099959442570537e+01 
1222 824 2 1.0279663405658914e+00 -6.6916016097172360e+03 1.0000000000000000e+00 1.2537718218783658e+01 1.9247652364359702e+01 5.5498658336290831e+01 
1279 881 2 1.0280667085784534e+00 9.1587833929629360e+03 1.0000000000000000e+00 1.0513968214395325e+01 1.8840110174794223e+01 5.5187808088318548e+01 
1260 862 2 1.0279460057390166e+00 -9.2406508543310338e+03 1.0000000000000000e+00 1.1115072636380830e+01 1.9229188519378138e+01 5.5005142991611770e+01 
465 67 2 1.0279624456391516e+00 -2.8696628527252437e+03 1.0000000000000000e+00 1.1401690855625988e+01 1.9348473373582934e+01 5.5032124826781171e+01 
1553 1155 2 1.0281082379314543e+00 7.1363589123364409e+02 1.0000000000000000e+00 1.1024076427077514e+01 1.9220752593082985e+01 5.5015440714025992e+01 
2015 1617 2 1.0280900726608782e+00 -7.6548928026832864e+03 1.0000000000000000e+00 1.0939540261550935e+01 1.8996314107655902e+01 5.5019349599903883e+01 
1620 1222 2 1.0280788763356012e+00 4.3567633586816401e+03 1.0000000000000000e+00 1.0609211967452705e+01 1.8748873097892222e+01 5.5159864577973948e+01 
1950 1552 2 1.0280736390748140e+00 5.8246035123950442e+03 1.0000000000000000e+00 1.0993829707320080e+01 1.8776197660054812e+01 5.5038215737744764e+01 
994 596 2 1.0280499702914696e+00 -4.4366099603151160e+03 1.0000000000000000e+00 1.0518213344523435e+01 1.9391155012750460e+01 5.5213857293933486e+01 
1106 708 2 1.0279357984419664e+00 9.3634949023300178e+03 1.0000000000000000e+00 1.0614703301444392e+01 1.9771452611669275e+01 5.5344222085966734e+01 
1968 1570 2 1.0281225284621929e+00 -3.2375159803794309e+03 1.0000000000000000e+00 1.0495511165313449e+01 1.8696866534275113e+01 5.5236598932419774e+01 
1936 1538 2 1.0281585781926370e+00 -1.3038977916578851e+04 1.0000000000000000e+00 1.1031155557668091e+01 1.8186651567026757e+01 5.5309043918983505e+01 
1450 1052 2 1.0281067141089391e+00 8.9755650025325904e+03 1.0000000000000000e+00 1.0835298918392995e+01 1.8595880857597976e+01 5.5124797116072699e+01 
1055 657 2 1.0278734905287694e+00 -7.5998859874868704e+03 1.0000000000000000e+00 1.1330474865403625e+01 1.9123816640624248e+01 5.4995368151988600e+01 
1201 803 2 1.0278483890034897e+00 -1.6699824401057194e+03 1.0000000000000000e+00 1.1055740640180963e+01 1.9601277805352613e+01 5.5110161701035629e+01 
1902 1504 2 1.0281346644538387e+00 8.5127181619368857e+03 1.0000000000000000e+00 1.0882320802831446e+01 1.9395795020861677e+01 5.5074730791563255e+01 
1121 723 2 1.0280912595451375e+00 7.8084377436753757e+03 1.0000000000000000e+00 1.1031526437928466e+01 1.8782254714911979e+01 5.5032095683070700e+01 
1092 694 2 1.0280530747665513e+00 -9.2411595415185366e+03 1.0000000000000000e+00 1.1031404640181739e+01 1.8828367565413046e+01 5.5022832493778004e+01 
1824 1426 2 1.0280531473502303e+00 -7.7979974722427760e+03 1.0000000000000000e+00 1.0967434314732500e+01 1.8691143659167146e+01 5.5062967079986912e+01 
1693 1295 2 1.0280991464464457e+00 8.9052971997822567e+01 1.0000000000000000e+00 1.0630831966018523e+01 1.8544238426239268e+01 5.5222833797423462e+01 
1289 891 2 1.0280352733712912e+00 7.8110528564032220e+03 1.0000000000000000e+00 1.0930743280901829e+01 1.9423520103904806e+01 5.5070123925510664e+01 
1544 1146 2 1.0280834598802118e+00 2.8174621497393451e+04 1.0000000000000000e+00 1.1279967968828201e+01 1.9785855818145162e+01 5.5196612407659366e+01 
1324 926 2 1.0280003358863565e+00 -5.3320236457357159e+03 1.0000000000000000e+00 1.0916867822503740e+01 1.9572601974801980e+01 5.5124522859258526e+01 
1221 823 2 1.0280135834822768e+00 -2.9184122538443944e+03 1.0000000000000000e+00 1.0881136666284977e+01 1.9586582457005662e+01 5.5139167413882397e+01 
902 504 2 1.0280906627287816e+00 -1.1760697888042187e+04 1.0000000000000000e+00 1.0640365598233178e+01 1.8458162554854265e+01 5.5260840896026572e+01 
1294 896 2 1.0280376580220305e+00 7.7324016041395789e+03 1.0000000000000000e+00 1.0660931393926843e+01 1.9483999441079359e+01 5.5173336109938589e+01 
438 40 2 1.0279194609417170e+00 5.8195262989975836e+03 1.0000000000000000e+00 1.0143132946176562e+01 1.9400776550746855e+01 5.5535296444702951e+01 
2012 1614 2 1.0279547614385343e+00 -1.0705388401712697e+04 1.0000000000000000e+00 1.0351802048436186e+01 1.9667402833612851e+01 5.5462494163335499e+01 
1111 713 2 1.0279718899773409e+00 9.1575451178386447e+03 1.0000000000000000e+00 1.0294575476063407e+01 1.9478663782125953e+01 5.5408096108537492e+01 
500 102 2 1.0280983834818576e+00 -1.0702840229476311e+04 1.0000000000000000e+00 1.0615895295592034e+01 1.8453834099794364e+01 5.5275690730309300e+01 
2075 1677 2 1.0279054105750247e+00 -5.9298582731563156e+03 1.0000000000000000e+00 1.0882867607038600e+01 1.8281596434897533e+01 5.5270807667085698e+01 
1706 1308 2 1.0281054093320272e+00 5.3500136365737126e+03 1.0000000000000000e+00 1.1532094111098138e+01 1.9031193272701849e+01 5.5022942991193666e+01 
987 589 2 1.0281184097026281e+00 -8.3734534394940074e+03 1.0000000000000000e+00 1.1537542236003345e+01 1.9092320744144608e+01 5.5024480944393197e+01 
1600 1202 2 1.0279554572474325e+00 -9.1368847176715281e+03 1.0000000000000000e+00 1.1118589424831729e+01 1.9322454488063396e+01 5.5020128287449779e+01 
1530 1132 2 1.0279868682425126e+00 3.8081174388288173e+03 1.0000000000000000e+00 1.1223740194579616e+01 1.9562863609684356e+01 5.5086542557026569e+01 
1775 1377 2 1.0280012734503499e+00 9.0772191563525200e+02 1.0000000000000000e+00 1.1270791669714985e+01 1.8808309235044959e+01 5.5014655693698039e+01 
1773 1375 2 1.0279904264147977e+00 -2.2480294458004055e+03 1.0000000000000000e+00 1.1197762930371326e+01 1.9136970283081151e+01 5.4994231505411477e+01 
597 199 2 1.0279722000572675e+00 -2.2472100640487838e+03 1.0000000000000000e+00 1.1213050695257554e+01 1.9092123832686436e+01 5.4991928476414770e+01 
1053 655 2 1.0280768392093751e+00 -2.7511346008446449e+03 1.0000000000000000e+00 1.0986351535173664e+01 1.8553199317814943e+01 5.5106536667090467e+01 
648 250 2 1.0279467042476758e+00 -7.7970581735211281e+03 1.0000000000000000e+00 1.1116012427696548e+01 1.9484404645275092e+01 5.5062210591839062e+01 
1559 1161 2 1.0281612294321654e+00 -7.5974375826638825e+03 1.0000000000000000e+00 1.0757624250211741e+01 1.9018976850620110e+01 5.5065105834500606e+01 
913 515 2 1.0282125263792630e+00 -7.7217912721527446e+03 1.0000000000000000e+00 1.0759473759138228e+01 1.8707105018189896e+01 5.5113720718408878e+01 
2002 1604 2 1.0279222311288712e+00 -6.3493268441738228e+03 1.0000000000000000e+00 1.0950306132694406e+01 1.9667515863761444e+01 5.5159466440235207e+01 
487 89 2 1.0280547940494134e+00 -5.7802030573822303e+03 1.0000000000000000e+00 1.0930783544003305e+01 1.8836272702463340e+01 5.5037310087822391e+01 
490 92 2 1.0280149361087054e+00 -6.3485010023028881e+03 1.0000000000000000e+00 1.0903225832578425e+01 1.8501252472011601e+01 5.5144259209109912e+01 
557 159 2 1.0279341366801962e+00 -2.7467422020994522e+03 1.0000000000000000e+00 1.0828569560101261e+01 1.9784282039753244e+01 5.5259081738939727e+01 
1389 991 2 1.0279942432686939e+00 -2.9204298704644330e+03 1.0000000000000000e+00 1.0682016817602225e+01 1.8443893974948480e+01 5.5247109143453201e+01 
493 95 2 1.0279186965917924e+00 -1.2568700622999515e+04 1.0000000000000000e+00 1.0920174467881825e+01 1.9696955969285863e+01 5.5181330541270405e+01 
1026 628 2 1.0280835798587129e+00 3.8066714338852485e+03 1.0000000000000000e+00 1.0613549302511295e+01 1.8772613071947212e+01 5.5151974679869006e+01 
1044 646 2 1.0280114126593622e+00 1.2355443153343378e+04 1.0000000000000000e+00 1.0587816419437564e+01 1.9196407973126618e+01 5.5136701422599550e+01 
865 467 2 1.0280895404820267e+00 1.0897607191881296e+04 1.0000000000000000e+00 1.0085411700936097e+01 1.9038902463429078e+01 5.5540584044178175e+01 
1548 1150 2 1.0280713030227007e+00 1.2356813391723956e+04 1.0000000000000000e+00 1.0616388773847540e+01 1.9065082758651581e+01 5.5116640092597727e+01 
437 39 2 1.0279166397990094e+00 2.1179749587730798e+03 1.0000000000000000e+00 1.0526991736138427e+01 1.9835322259017055e+01 5.5448165066600808e+01 
2005 1607 2 1.0280857311245106e+00 -1.2565023410685939e+04 1.0000000000000000e+00 1.0776310906567556e+01 1.8551522484444728e+01 5.5160248065601770e+01 
1126 728 2 1.0281312016434117e+00 7.7313172979934907e+03 1.0000000000000000e+00 1.0706030729260199e+01 1.8565522789394748e+01 5.5181191383574394e+01 
1057 659 2 1.0279953676511018e+00 4.3452997523111444e+03 1.0000000000000000e+00 1.0459998445552783e+01 1.9355861113458705e+01 5.5237572010567909e+01 
1977 1579 2 1.0280915292991504e+00 -2.8691419052376405e+03 1.0000000000000000e+00 1.0284680783342354e+01 1.8467645500518412e+01 5.5514649285380322e+01 
538 140 2 1.0279473612877963e+00 2.2696508631734367e+04 1.0000000000000000e+00 1.0237432876696927e+01 1.8954926533993618e+01 5.5371591215892806e+01 
1561 1163 2 1.0280398966361539e+00 4.3471289472486233e+03 1.0000000000000000e+00 1.0511487319368896e+01 1.8976401243581879e+01 5.5170932310369508e+01 
1470 1072 2 1.0280645579764829e+00 4.6078773270003212e+03 1.0000000000000000e+00 1.0304840217990744e+01 1.8775342904291037e+01 5.5349006374132067e+01 
1049 651 2 1.0280297152904925e+00 7.1037711571698503e+02 1.0000000000000000e+00 1.0242598341854093e+01 1.9426839470756462e+01 5.5437303975415460e+01 
1862 1464 2 1.0279818534080594e+00 -4.5687558821214152e+03 1.0000000000000000e+00 1.0143771829348005e+01 1.9343555471638258e+01 5.5514024225261423e+01 
1342 944 2 1.0279529296168943e+00 -9.0366990849466365e+03 1.0000000000000000e+00 1.0165207011784460e+01 1.9106321639911108e+01 5.5441441289776499e+01 
1381 983 2 1.0279515271986752e+00 1.5108779443271074e+04 1.0000000000000000e+00 1.0184228633760769e+01 1.9274059448963193e+01 5.5445984809226857e+01 
1274 876 2 1.0280337568495237e+00 9.3720431887952436e+03 1.0000000000000000e+00 1.1087094176426017e+01 1.8829302107213991e+01 5.5016573183392502e+01 
1520 1122 2 1.0280237324142318e+00 6.2186901779341213e+02 1.0000000000000000e+00 1.0436015487830824e+01 1.8832571934576826e+01 5.5235613773705090e+01 
1759 1361 2 1.0279891249928734e+00 -4.4205313648842457e+03 1.0000000000000000e+00 1.0272655060217215e+01 1.8957700333282656e+01 5.5340004374106357e+01 
851 453 2 1.0279625013767733e+00 -2.1945797897037114e+03 1.0000000000000000e+00 1.0986741748349502e+01 1.8748712731071880e+01 5.5043465479426217e+01 
726 328 2 1.0278982296943477e+00 8.5114546119523875e+03 1.0000000000000000e+00 1.1050961008868992e+01 1.9491773005764149e+01 5.5069924640972175e+01 
1369 971 2 1.0279305165881369e+00 -1.6580494893877794e+03 1.0000000000000000e+00 1.1358065800693787e+01 1.9598291457251054e+01 5.5104498828793730e+01 
1417 1019 2 1.0280724619241546e+00 -7.7191957969937184e+03 1.0000000000000000e+00 1.0964449162518543e+01 1.8936425188951784e+01 5.5018769361800970e+01 
1253 855 2 1.0280274972294030e+00 7.1511128773475084e+03 1.0000000000000000e+00 1.1098840862696276e+01 1.8722890646241073e+01 5.5037521493500300e+01 
1557 1159 2 1.0279587346803860e+00 -2.7506529158983899e+03 1.0000000000000000e+00 1.1017474870801781e+01 1.9671216133829031e+01 5.5149845890286819e+01 
1637 1239 2 1.0279650901179409e+00 6.6348073293122197e+03 1.0000000000000000e+00 1.0818284071760424e+01 1.9599565389453314e+01 5.5161500529914953e+01 
1603 1205 2 1.0282013535979964e+00 -8.2278989691043735e+03 1.0000000000000000e+00 1.0719210861581617e+01 1.8833532646311181e+01 5.5098204088753349e+01 
991 593 2 1.0281132399991484e+00 -3.6147462486569930e+03 1.0000000000000000e+00 1.0726271614202972e+01 1.9098797199675985e+01 5.5074793839980224e+01 
1147 749 2 1.0279374736590512e+00 8.0954228206552862e+03 1.0000000000000000e+00 1.0649079705320196e+01 1.9677454483176984e+01 5.5266783044849916e+01 
1705 1307 2 1.0280145014825808e+00 1.0898423933407857e+04 1.0000000000000000e+00 1.0373190095204059e+01 1.9186676819526145e+01 5.5263209191613576e+01 
1847 1449 2 1.0281047963191152e+00 5.5968133823627722e+03 1.0000000000000000e+00 1.0639831414631297e+01 1.9112043924373669e+01 5.5108333621248462e+01 
2028 1630 2 1.0280668511591411e+00 -6.5462341186346048e+03 1.0000000000000000e+00 1.0393390857028393e+01 1.9415254456025099e+01 5.5303236553126808e+01 
1890 1492 2 1.0280164902698525e+00 -4.6120531154321361e+03 1.0000000000000000e+00 1.0559091093186113e+01 1.9503915393298954e+01 5.5230133861184903e+01 
1460 1062 2 1.0279416673304649e+00 5.1391312602878479e+03 1.0000000000000000e+00 1.0537211935970801e+01 1.9672381318064105e+01 5.5325308751251839e+01 
1315 917 2 1.0279549785214606e+00 8.0966335152739002e+03 1.0000000000000000e+00 1.0521259022017592e+01 1.9253631238141800e+01 5.5177859141701269e+01 
714 316 2 1.0280907719089605e+00 -4.6083836199224688e+03 1.0000000000000000e+00 1.0501197185074810e+01 1.8712490412239887e+01 5.5227552241992562e+01 
956 558 2 1.0281378839719610e+00 5.1429543999058578e+03 1.0000000000000000e+00 1.0383484699691648e+01 1.8676830738530430e+01 5.5319758004277588e+01 
1347 949 2 1.0278920291776590e+00 -1.9420168328513723e+03 1.0000000000000000e+00 1.0598637328805793e+01 1.9939363925686148e+01 5.5492897179040888e+01 
966 568 2 1.0280215878917722e+00 4.6054680037761509e+03 1.0000000000000000e+00 1.0225021537402652e+01 1.9287655093510377e+01 5.5408605510544071e+01 
1795 1397 2 1.0279497688378840e+00 6.5121973688300313e+03 1.0000000000000000e+00 1.0311760688249068e+01 1.9341986087211019e+01 5.5341675003867081e+01 
1066 668 2 1.0279141502469524e+00 1.2491608726287310e+04 1.0000000000000000e+00 1.0174714760048827e+01 1.9451499686200012e+01 5.5519690375605435e+01 
1220 822 2 1.0280027421053108e+00 7.5550874917092870e+02 1.0000000000000000e+00 1.0464230585751300e+01 1.9609376959832467e+01 5.5338245039869683e+01 
505 107 2 1.0278577709238852e+00 -2.7992604227491884e+03 1.0000000000000000e+00 1.0676310636830923e+01 1.9949678458442143e+01 5.5454202013258801e+01 
1629 1231 2 1.0279189799059261e+00 5.0554042706077098e+03 1.0000000000000000e+00 1.0435190615279788e+01 1.9788923593274664e+01 5.5480505694266071e+01 
620 222 2 1.0280632932982778e+00 2.3596668956101535e+03 1.0000000000000000e+00 1.0153407161083432e+01 1.8666147012632269e+01 5.5546629709372560e+01 
1179 781 2 1.0281057301700476e+00 -1.9396749513319739e+03 1.0000000000000000e+00 1.0284959598411756e+01 1.8529832921835631e+01 5.5474770233981594e+01 
1304 906 2 1.0281026253989014e+00 7.3610799184618954e+03 1.0000000000000000e+00 1.0639053005035876e+01 1.8564075856182193e+01 5.5210242659044894e+01 
1915 1517 2 1.0277582479142966e+00 -6.7313253625553089e+03 1.0000000000000000e+00 1.0554360836744268e+01 1.8231183510909617e+01 5.5461738997204570e+01 
1724 1326 2 1.0279687899045309e+00 -2.2274173566730328e+03 1.0000000000000000e+00 1.0741765906229176e+01 1.8104535865912453e+01 5.5473452794077808e+01 
909 511 2 1.0281165036412463e+00 1.1181292561162511e+04 1.0000000000000000e+00 1.1508713776129706e+01 1.9495683923245661e+01 5.5088766846310740e+01 