LAMMPS data file via write_data, version 30 Jul 2016, timestep = 600000

2080 atoms
8 atom types

0.0000000000000000e+00 4.0000000000000000e+01 xlo xhi
0.0000000000000000e+00 4.0000000000000000e+01 ylo yhi
0.0000000000000000e+00 1.0000000000000000e+02 zlo zhi

Masses

1 3.896
2 4.306
3 20.064
4 8.378
5 8.378
6 8.378
7 8.378
8 8.378

Atoms # meso-molecular

1 2 4 2.2559723595316457e+00 0.0000000000000000e+00 1.0000000000000000e+00 0.0000000000000000e+00 0.0000000000000000e+00 2.5000000000000000e+00 
2 2 4 2.2559723595316457e+00 0.0000000000000000e+00 1.0000000000000000e+00 0.0000000000000000e+00 2.0000000000000000e+00 2.5000000000000000e+00 
3 2 4 2.2559723595316457e+00 0.0000000000000000e+00 1.0000000000000000e+00 0.0000000000000000e+00 4.0000000000000000e+00 2.5000000000000000e+00 
4 2 4 2.2559723595316457e+00 0.0000000000000000e+00 1.0000000000000000e+00 0.0000000000000000e+00 6.0000000000000000e+00 2.5000000000000000e+00 
5 2 4 2.2559723595316457e+00 0.0000000000000000e+00 1.0000000000000000e+00 0.0000000000000000e+00 8.0000000000000000e+00 2.5000000000000000e+00 
21 2 4 2.2559723595316457e+00 0.0000000000000000e+00 1.0000000000000000e+00 2.0000000000000000e+00 0.0000000000000000e+00 2.5000000000000000e+00 
22 2 4 2.2559723595316457e+00 0.0000000000000000e+00 1.0000000000000000e+00 2.0000000000000000e+00 2.0000000000000000e+00 2.5000000000000000e+00 
23 2 4 2.2559723595316457e+00 0.0000000000000000e+00 1.0000000000000000e+00 2.0000000000000000e+00 4.0000000000000000e+00 2.5000000000000000e+00 
24 2 4 2.2559723595316457e+00 0.0000000000000000e+00 1.0000000000000000e+00 2.0000000000000000e+00 6.0000000000000000e+00 2.5000000000000000e+00 
25 2 4 2.2559723595316457e+00 0.0000000000000000e+00 1.0000000000000000e+00 2.0000000000000000e+00 8.0000000000000000e+00 2.5000000000000000e+00 
41 2 4 2.2559723595316457e+00 0.0000000000000000e+00 1.0000000000000000e+00 4.0000000000000000e+00 0.0000000000000000e+00 2.5000000000000000e+00 
42 2 4 2.2559723595316457e+00 0.0000000000000000e+00 1.0000000000000000e+00 4.0000000000000000e+00 2.0000000000000000e+00 2.5000000000000000e+00 
43 2 4 2.2559723595316457e+00 0.0000000000000000e+00 1.0000000000000000e+00 4.0000000000000000e+00 4.0000000000000000e+00 2.5000000000000000e+00 
44 2 4 2.2559723595316457e+00 -1.4993018518207640e-01 1.0000000000000000e+00 4.0000000000000000e+00 6.0000000000000000e+00 2.5000000000000000e+00 
45 2 4 2.2559723595316457e+00 -1.0140059996492476e+00 1.0000000000000000e+00 4.0000000000000000e+00 8.0000000000000000e+00 2.5000000000000000e+00 
61 2 4 2.2559723595316457e+00 0.0000000000000000e+00 1.0000000000000000e+00 6.0000000000000000e+00 0.0000000000000000e+00 2.5000000000000000e+00 
62 2 4 2.2559723595316457e+00 -6.1990394067043195e-02 1.0000000000000000e+00 6.0000000000000000e+00 2.0000000000000000e+00 2.5000000000000000e+00 
63 2 4 2.2559723595316457e+00 -2.7508245271878544e+00 1.0000000000000000e+00 6.0000000000000000e+00 4.0000000000000000e+00 2.5000000000000000e+00 
64 2 4 2.2559723595316457e+00 -1.4131466430045835e+01 1.0000000000000000e+00 6.0000000000000000e+00 6.0000000000000000e+00 2.5000000000000000e+00 
65 2 4 2.2559723595316457e+00 -3.8077398154306792e+01 1.0000000000000000e+00 6.0000000000000000e+00 8.0000000000000000e+00 2.5000000000000000e+00 
81 2 4 2.2559723595316457e+00 -6.1994086162871012e-02 1.0000000000000000e+00 8.0000000000000000e+00 0.0000000000000000e+00 2.5000000000000000e+00 
82 2 4 2.2559723595316457e+00 -5.1002713468196754e+00 1.0000000000000000e+00 8.0000000000000000e+00 2.0000000000000000e+00 2.5000000000000000e+00 
83 2 4 2.2559723595316457e+00 -3.3892437145112453e+01 1.0000000000000000e+00 8.0000000000000000e+00 4.0000000000000000e+00 2.5000000000000000e+00 
84 2 4 2.2559723595316457e+00 -1.1174469008784584e+02 1.0000000000000000e+00 8.0000000000000000e+00 6.0000000000000000e+00 2.5000000000000000e+00 
85 2 4 2.2559723595316457e+00 -2.4831872273607544e+02 1.0000000000000000e+00 8.0000000000000000e+00 8.0000000000000000e+00 2.5000000000000000e+00 
101 2 4 2.2559723595316457e+00 -2.7478811993245396e+00 1.0000000000000000e+00 1.0000000000000000e+01 0.0000000000000000e+00 2.5000000000000000e+00 
102 2 4 2.2559723595316457e+00 -3.3699820107703736e+01 1.0000000000000000e+00 1.0000000000000000e+01 2.0000000000000000e+00 2.5000000000000000e+00 
103 2 4 2.2559723595316457e+00 -1.5165709149427337e+02 1.0000000000000000e+00 1.0000000000000000e+01 4.0000000000000000e+00 2.5000000000000000e+00 
104 2 4 2.2559723595316457e+00 -4.1999705557381105e+02 1.0000000000000000e+00 1.0000000000000000e+01 6.0000000000000000e+00 2.5000000000000000e+00 
105 2 4 2.2559723595316457e+00 -8.5373098260995107e+02 1.0000000000000000e+00 1.0000000000000000e+01 8.0000000000000000e+00 2.5000000000000000e+00 
121 2 4 2.2559723595316457e+00 -1.4094806656717985e+01 1.0000000000000000e+00 1.2000000000000000e+01 0.0000000000000000e+00 2.5000000000000000e+00 
122 2 4 2.2559723595316457e+00 -1.0951625808721811e+02 1.0000000000000000e+00 1.2000000000000000e+01 2.0000000000000000e+00 2.5000000000000000e+00 
123 2 4 2.2559723595316457e+00 -4.1380484445578440e+02 1.0000000000000000e+00 1.2000000000000000e+01 4.0000000000000000e+00 2.5000000000000000e+00 
124 2 4 2.2559723595316457e+00 -1.0486172370333893e+03 1.0000000000000000e+00 1.2000000000000000e+01 6.0000000000000000e+00 2.5000000000000000e+00 
125 2 4 2.2559723595316457e+00 -2.0328663858010295e+03 1.0000000000000000e+00 1.2000000000000000e+01 8.0000000000000000e+00 2.5000000000000000e+00 
141 2 4 2.2559723595316457e+00 -3.7793963712462400e+01 1.0000000000000000e+00 1.4000000000000000e+01 0.0000000000000000e+00 2.5000000000000000e+00 
142 2 4 2.2559723595316457e+00 -2.3753213324665097e+02 1.0000000000000000e+00 1.4000000000000000e+01 2.0000000000000000e+00 2.5000000000000000e+00 
143 2 4 2.2559723595316457e+00 -8.1921820340134013e+02 1.0000000000000000e+00 1.4000000000000000e+01 4.0000000000000000e+00 2.5000000000000000e+00 
144 2 4 2.2559723595316457e+00 -1.9757699897180078e+03 1.0000000000000000e+00 1.4000000000000000e+01 6.0000000000000000e+00 2.5000000000000000e+00 
145 2 4 2.2559723595316457e+00 -3.7303457379024776e+03 1.0000000000000000e+00 1.4000000000000000e+01 8.0000000000000000e+00 2.5000000000000000e+00 
161 2 4 2.2559723595316457e+00 -6.8081157114598554e+01 1.0000000000000000e+00 1.6000000000000000e+01 0.0000000000000000e+00 2.5000000000000000e+00 
162 2 4 2.2559723595316457e+00 -3.8488897654604864e+02 1.0000000000000000e+00 1.6000000000000000e+01 2.0000000000000000e+00 2.5000000000000000e+00 
163 2 4 2.2559723595316457e+00 -1.2615505750485661e+03 1.0000000000000000e+00 1.6000000000000000e+01 4.0000000000000000e+00 2.5000000000000000e+00 
164 2 4 2.2559723595316457e+00 -2.9580408230569706e+03 1.0000000000000000e+00 1.6000000000000000e+01 6.0000000000000000e+00 2.5000000000000000e+00 
165 2 4 2.2559723595316457e+00 -5.5043381705946958e+03 1.0000000000000000e+00 1.6000000000000000e+01 8.0000000000000000e+00 2.5000000000000000e+00 
181 2 4 2.2559723595316457e+00 -9.0017420267605544e+01 1.0000000000000000e+00 1.8000000000000000e+01 0.0000000000000000e+00 2.5000000000000000e+00 
182 2 4 2.2559723595316457e+00 -4.8609989598182767e+02 1.0000000000000000e+00 1.8000000000000000e+01 2.0000000000000000e+00 2.5000000000000000e+00 
183 2 4 2.2559723595316457e+00 -1.5560942208772319e+03 1.0000000000000000e+00 1.8000000000000000e+01 4.0000000000000000e+00 2.5000000000000000e+00 
184 2 4 2.2559723595316457e+00 -3.6016042210251289e+03 1.0000000000000000e+00 1.8000000000000000e+01 6.0000000000000000e+00 2.5000000000000000e+00 
185 2 4 2.2559723595316457e+00 -6.6589874992908399e+03 1.0000000000000000e+00 1.8000000000000000e+01 8.0000000000000000e+00 2.5000000000000000e+00 
6 2 4 2.2559723595316457e+00 0.0000000000000000e+00 1.0000000000000000e+00 0.0000000000000000e+00 1.0000000000000000e+01 2.5000000000000000e+00 
7 2 4 2.2559723595316457e+00 0.0000000000000000e+00 1.0000000000000000e+00 0.0000000000000000e+00 1.2000000000000000e+01 2.5000000000000000e+00 
8 2 4 2.2559723595316457e+00 0.0000000000000000e+00 1.0000000000000000e+00 0.0000000000000000e+00 1.4000000000000000e+01 2.5000000000000000e+00 
9 2 4 2.2559723595316457e+00 0.0000000000000000e+00 1.0000000000000000e+00 0.0000000000000000e+00 1.6000000000000000e+01 2.5000000000000000e+00 
10 2 4 2.2559723595316457e+00 0.0000000000000000e+00 1.0000000000000000e+00 0.0000000000000000e+00 1.8000000000000000e+01 2.5000000000000000e+00 
26 2 4 2.2559723595316457e+00 0.0000000000000000e+00 1.0000000000000000e+00 2.0000000000000000e+00 1.0000000000000000e+01 2.5000000000000000e+00 
27 2 4 2.2559723595316457e+00 0.0000000000000000e+00 1.0000000000000000e+00 2.0000000000000000e+00 1.2000000000000000e+01 2.5000000000000000e+00 
28 2 4 2.2559723595316457e+00 0.0000000000000000e+00 1.0000000000000000e+00 2.0000000000000000e+00 1.4000000000000000e+01 2.5000000000000000e+00 
29 2 4 2.2559723595316457e+00 0.0000000000000000e+00 1.0000000000000000e+00 2.0000000000000000e+00 1.6000000000000000e+01 2.5000000000000000e+00 
30 2 4 2.2559723595316457e+00 0.0000000000000000e+00 1.0000000000000000e+00 2.0000000000000000e+00 1.8000000000000000e+01 2.5000000000000000e+00 
46 2 4 2.2559723595316457e+00 -2.4599728017830498e+00 1.0000000000000000e+00 4.0000000000000000e+00 1.0000000000000000e+01 2.5000000000000000e+00 
47 2 4 2.2559723595316457e+00 -3.6198531459399170e+00 1.0000000000000000e+00 4.0000000000000000e+00 1.2000000000000000e+01 2.5000000000000000e+00 
48 2 4 2.2559723595316457e+00 -4.0878124157070266e+00 1.0000000000000000e+00 4.0000000000000000e+00 1.4000000000000000e+01 2.5000000000000000e+00 
49 2 4 2.2559723595316457e+00 -4.2739803599393023e+00 1.0000000000000000e+00 4.0000000000000000e+00 1.6000000000000000e+01 2.5000000000000000e+00 
50 2 4 2.2559723595316457e+00 -4.3372796466119787e+00 1.0000000000000000e+00 4.0000000000000000e+00 1.8000000000000000e+01 2.5000000000000000e+00 
66 2 4 2.2559723595316457e+00 -7.0430006873671317e+01 1.0000000000000000e+00 6.0000000000000000e+00 1.0000000000000000e+01 2.5000000000000000e+00 
67 2 4 2.2559723595316457e+00 -1.0070677285285620e+02 1.0000000000000000e+00 6.0000000000000000e+00 1.2000000000000000e+01 2.5000000000000000e+00 
68 2 4 2.2559723595316457e+00 -1.2073881333255922e+02 1.0000000000000000e+00 6.0000000000000000e+00 1.4000000000000000e+01 2.5000000000000000e+00 
69 2 4 2.2559723595316457e+00 -1.3014758053948395e+02 1.0000000000000000e+00 6.0000000000000000e+00 1.6000000000000000e+01 2.5000000000000000e+00 
70 2 4 2.2559723595316457e+00 -1.3353084054589957e+02 1.0000000000000000e+00 6.0000000000000000e+00 1.8000000000000000e+01 2.5000000000000000e+00 
86 2 4 2.2559723595316457e+00 -4.2178376045684701e+02 1.0000000000000000e+00 8.0000000000000000e+00 1.0000000000000000e+01 2.5000000000000000e+00 
87 2 4 2.2559723595316457e+00 -5.8793455141011009e+02 1.0000000000000000e+00 8.0000000000000000e+00 1.2000000000000000e+01 2.5000000000000000e+00 
88 2 4 2.2559723595316457e+00 -7.0882055281120859e+02 1.0000000000000000e+00 8.0000000000000000e+00 1.4000000000000000e+01 2.5000000000000000e+00 
89 2 4 2.2559723595316457e+00 -7.7471385668486596e+02 1.0000000000000000e+00 8.0000000000000000e+00 1.6000000000000000e+01 2.5000000000000000e+00 
90 2 4 2.2559723595316457e+00 -7.9960965477471359e+02 1.0000000000000000e+00 8.0000000000000000e+00 1.8000000000000000e+01 2.5000000000000000e+00 
106 2 4 2.2559723595316457e+00 -1.3878449023826511e+03 1.0000000000000000e+00 1.0000000000000000e+01 1.0000000000000000e+01 2.5000000000000000e+00 
107 2 4 2.2559723595316457e+00 -1.9027932590670343e+03 1.0000000000000000e+00 1.0000000000000000e+01 1.2000000000000000e+01 2.5000000000000000e+00 
108 2 4 2.2559723595316457e+00 -2.2920586241935025e+03 1.0000000000000000e+00 1.0000000000000000e+01 1.4000000000000000e+01 2.5000000000000000e+00 
109 2 4 2.2559723595316457e+00 -2.5163422717055009e+03 1.0000000000000000e+00 1.0000000000000000e+01 1.6000000000000000e+01 2.5000000000000000e+00 
110 2 4 2.2559723595316457e+00 -2.6055391159441679e+03 1.0000000000000000e+00 1.0000000000000000e+01 1.8000000000000000e+01 2.5000000000000000e+00 
126 2 4 2.2559723595316457e+00 -3.2281232273931591e+03 1.0000000000000000e+00 1.2000000000000000e+01 1.0000000000000000e+01 2.5000000000000000e+00 
127 2 4 2.2559723595316457e+00 -4.3867406194815158e+03 1.0000000000000000e+00 1.2000000000000000e+01 1.2000000000000000e+01 2.5000000000000000e+00 
128 2 4 2.2559723595316457e+00 -5.2793659501385937e+03 1.0000000000000000e+00 1.2000000000000000e+01 1.4000000000000000e+01 2.5000000000000000e+00 
129 2 4 2.2559723595316457e+00 -5.8096977272821414e+03 1.0000000000000000e+00 1.2000000000000000e+01 1.6000000000000000e+01 2.5000000000000000e+00 
130 2 4 2.2559723595316457e+00 -6.0284000720064623e+03 1.0000000000000000e+00 1.2000000000000000e+01 1.8000000000000000e+01 2.5000000000000000e+00 
146 2 4 2.2559723595316457e+00 -5.8510272718945889e+03 1.0000000000000000e+00 1.4000000000000000e+01 1.0000000000000000e+01 2.5000000000000000e+00 
147 2 4 2.2559723595316457e+00 -7.9210781323767060e+03 1.0000000000000000e+00 1.4000000000000000e+01 1.2000000000000000e+01 2.5000000000000000e+00 
148 2 4 2.2559723595316457e+00 -9.5405510496749848e+03 1.0000000000000000e+00 1.4000000000000000e+01 1.4000000000000000e+01 2.5000000000000000e+00 
149 2 4 2.2559723595316457e+00 -1.0522468539545469e+04 1.0000000000000000e+00 1.4000000000000000e+01 1.6000000000000000e+01 2.5000000000000000e+00 
150 2 4 2.2559723595316457e+00 -1.0934178352336852e+04 1.0000000000000000e+00 1.4000000000000000e+01 1.8000000000000000e+01 2.5000000000000000e+00 
166 2 4 2.2559723595316457e+00 -8.5817484749457308e+03 1.0000000000000000e+00 1.6000000000000000e+01 1.0000000000000000e+01 2.5000000000000000e+00 
167 2 4 2.2559723595316457e+00 -1.1605821774044629e+04 1.0000000000000000e+00 1.6000000000000000e+01 1.2000000000000000e+01 2.5000000000000000e+00 
168 2 4 2.2559723595316457e+00 -1.3999150890733323e+04 1.0000000000000000e+00 1.6000000000000000e+01 1.4000000000000000e+01 2.5000000000000000e+00 
169 2 4 2.2559723595316457e+00 -1.5470891357271405e+04 1.0000000000000000e+00 1.6000000000000000e+01 1.6000000000000000e+01 2.5000000000000000e+00 
170 2 4 2.2559723595316457e+00 -1.6097025955075365e+04 1.0000000000000000e+00 1.6000000000000000e+01 1.8000000000000000e+01 2.5000000000000000e+00 
186 2 4 2.2559723595316457e+00 -1.0357528356750274e+04 1.0000000000000000e+00 1.8000000000000000e+01 1.0000000000000000e+01 2.5000000000000000e+00 
187 2 4 2.2559723595316457e+00 -1.4007208781842528e+04 1.0000000000000000e+00 1.8000000000000000e+01 1.2000000000000000e+01 2.5000000000000000e+00 
188 2 4 2.2559723595316457e+00 -1.6913484918492897e+04 1.0000000000000000e+00 1.8000000000000000e+01 1.4000000000000000e+01 2.5000000000000000e+00 
189 2 4 2.2559723595316457e+00 -1.8714596213948465e+04 1.0000000000000000e+00 1.8000000000000000e+01 1.6000000000000000e+01 2.5000000000000000e+00 
190 2 4 2.2559723595316457e+00 -1.9488636248098970e+04 1.0000000000000000e+00 1.8000000000000000e+01 1.8000000000000000e+01 2.5000000000000000e+00 
1270 872 2 1.0270409904598266e+00 9.0616761870585360e+03 1.0000000000000000e+00 1.0209997224483431e+01 1.9049982908597197e+01 4.1565427737629456e+01 
853 455 2 1.0258841453419665e+00 6.0321938367806062e+01 1.0000000000000000e+00 1.0189398006411119e+01 1.9005689247044437e+01 4.1582791430583661e+01 
1678 1280 2 1.0279787713794284e+00 9.5043338685166891e+03 1.0000000000000000e+00 1.0290374761099097e+01 1.9384777307580141e+01 4.1443243619694869e+01 
498 100 2 1.0298202896632835e+00 -5.5446201515677394e+03 1.0000000000000000e+00 1.0294806447555372e+01 1.9263295751048165e+01 4.1456722437734911e+01 
1989 1591 2 1.0287874475106111e+00 -8.5649971794769990e+03 1.0000000000000000e+00 1.0294720955854194e+01 1.9516423863610989e+01 4.1743835519582298e+01 
1447 1049 2 1.0295257560650486e+00 7.0285417100798686e+03 1.0000000000000000e+00 1.0318331995311963e+01 1.8966011369249404e+01 4.1320441646688785e+01 
1102 704 2 1.0273302149929768e+00 9.0630678908002174e+03 1.0000000000000000e+00 1.0244072561185863e+01 1.9356110788742566e+01 4.1580655701114864e+01 
2076 1678 2 1.0267416726096377e+00 -3.8638103223627099e+03 1.0000000000000000e+00 1.0209501593958406e+01 1.9317196261312130e+01 4.1932915230705234e+01 
1676 1278 2 1.0294247905743334e+00 1.9900404450626975e+03 1.0000000000000000e+00 1.0390629733256596e+01 1.8955560781369375e+01 4.1149773526090897e+01 
838 440 2 1.0275835031811844e+00 9.5069259372848701e+03 1.0000000000000000e+00 1.0319729574068413e+01 1.8598607996401707e+01 4.1468116902322492e+01 
585 187 2 1.0282611654740770e+00 -1.3127885711427003e+04 1.0000000000000000e+00 1.0325765755677624e+01 1.9241392952570418e+01 4.1262913310086105e+01 
1606 1208 2 1.0279499882034300e+00 -1.4610879816587280e+02 1.0000000000000000e+00 1.0399686199686638e+01 1.9122143046413477e+01 4.1072831212984696e+01 
766 368 2 1.0265624370973876e+00 -1.4183610837122950e+02 1.0000000000000000e+00 1.0296101332430519e+01 1.9272503167897618e+01 4.1271428763352368e+01 
1117 719 2 1.0279499250061241e+00 7.6527091657348201e+03 1.0000000000000000e+00 1.0326820703083868e+01 1.9236886923421586e+01 4.1244307363576915e+01 
693 295 2 1.0254161625752523e+00 2.0573659956179772e+03 1.0000000000000000e+00 1.0329167011316759e+01 1.8971718906206704e+01 4.1115432395985898e+01 
592 194 2 1.0265734160167987e+00 -3.9314627140131415e+03 1.0000000000000000e+00 1.0362640875180126e+01 1.9478784451539472e+01 4.1237221266266623e+01 
564 166 2 1.0295509408487031e+00 -3.8589285995235846e+03 1.0000000000000000e+00 1.0386854951327319e+01 1.8615192570422622e+01 4.1347062227331136e+01 
590 192 2 1.0275892106227869e+00 -5.3610173167584326e+03 1.0000000000000000e+00 1.0381073348017825e+01 1.8910645550617158e+01 4.1108678145439470e+01 
1851 1453 2 1.0275471361389092e+00 5.6443210600587836e+03 1.0000000000000000e+00 1.0466583242984520e+01 1.9582678753311800e+01 4.1150645379159116e+01 
885 487 2 1.0269529110888300e+00 -5.0551532712467188e+03 1.0000000000000000e+00 1.0334005815773777e+01 1.9268277994714808e+01 4.1195396763135861e+01 
760 362 2 1.0282815525640596e+00 -9.1361658426165995e+03 1.0000000000000000e+00 1.0418106193607322e+01 1.9355662471535489e+01 4.1115952869240694e+01 
981 583 2 1.0293147414523514e+00 -9.2039043771104716e+03 1.0000000000000000e+00 1.0444522887350150e+01 1.9435632141906261e+01 4.1149394004888741e+01 
1725 1327 2 1.0292898462882289e+00 -5.0516090083465288e+03 1.0000000000000000e+00 1.0473025774348073e+01 1.8691582643204534e+01 4.1097414026467050e+01 
1761 1363 2 1.0287642051866981e+00 -1.3125962953880402e+04 1.0000000000000000e+00 1.0413000267025097e+01 1.8583031112386632e+01 4.1274124653869990e+01 
1900 1502 2 1.0289781566740348e+00 5.3084974164131791e+03 1.0000000000000000e+00 1.0320233548856999e+01 1.9145399343020859e+01 4.1285172065157951e+01 
790 392 2 1.0283005770541778e+00 1.2228195553205574e+04 1.0000000000000000e+00 1.0346748136236609e+01 1.8997043931906905e+01 4.1189136748562483e+01 
1706 1308 2 1.0281636587736105e+00 5.3498990509025380e+03 1.0000000000000000e+00 1.0531573895827087e+01 1.9374642153415230e+01 4.0947576714017352e+01 
688 290 2 1.0283901826044342e+00 -1.4822600834512193e+03 1.0000000000000000e+00 1.0382586502082649e+01 1.9422167061909352e+01 4.1229394573205482e+01 
851 453 2 1.0312631026007106e+00 -2.1946417184142360e+03 1.0000000000000000e+00 1.0560597515877550e+01 1.9120625565935637e+01 4.0941331369669690e+01 
583 185 2 1.0305516062778850e+00 -4.4213652729227342e+03 1.0000000000000000e+00 1.0466487425430095e+01 1.9523890547876153e+01 4.1219946076567339e+01 
1085 687 2 1.0286695039636820e+00 7.1504639255764614e+03 1.0000000000000000e+00 1.0490323974356603e+01 1.8894279888545185e+01 4.0973525175017322e+01 
2045 1647 2 1.0259849219470683e+00 1.1444283073490375e+04 1.0000000000000000e+00 1.0311511910338581e+01 1.9538363385567635e+01 4.1410851365833899e+01 
533 135 2 1.0270405157930615e+00 1.1445118497953719e+04 1.0000000000000000e+00 1.0328363000205043e+01 1.8707890332264199e+01 4.1295834452239866e+01 
987 589 2 1.0296682612711829e+00 -8.3735472137429224e+03 1.0000000000000000e+00 1.0668524928542672e+01 1.8604892136393051e+01 4.0899106995804125e+01 
1055 657 2 1.0288632277140126e+00 -7.6000328212327486e+03 1.0000000000000000e+00 1.0652054283340439e+01 1.9282236998770898e+01 4.0803570308620486e+01 
1630 1232 2 1.0276709230547796e+00 1.2222736816853743e+04 1.0000000000000000e+00 1.0381164179721173e+01 1.9399972003296735e+01 4.1187888792271870e+01 
2055 1657 2 1.0292108799804438e+00 1.4469559872978083e+04 1.0000000000000000e+00 1.0362416655191833e+01 1.8486597285225635e+01 4.1620407886459276e+01 
599 201 2 1.0272135678944487e+00 9.1347833078988037e+02 1.0000000000000000e+00 1.0487943753092518e+01 1.8755245494068227e+01 4.0976579817489643e+01 
1864 1466 2 1.0280277761176233e+00 -1.4811918056546413e+03 1.0000000000000000e+00 1.0389352835548490e+01 1.8712807010066530e+01 4.1193060143261832e+01 
763 365 2 1.0276718428784557e+00 -8.2296303797182391e+03 1.0000000000000000e+00 1.0547443503483416e+01 1.9189843919728329e+01 4.0865169239289600e+01 
1485 1087 2 1.0265467670984258e+00 -9.2015886864369459e+03 1.0000000000000000e+00 1.0327591885298794e+01 1.9402690096664102e+01 4.1263589645764526e+01 
726 328 2 1.0268046761444871e+00 8.5113650555708846e+03 1.0000000000000000e+00 1.0532872564769471e+01 1.9470419044555861e+01 4.0950002675407774e+01 
2069 1671 2 1.0245302729537538e+00 -2.7454418060440789e+03 1.0000000000000000e+00 1.0340873729573589e+01 1.9333285015636832e+01 4.1111866205886294e+01 
1600 1202 2 1.0268402307537059e+00 -9.1369432457351195e+03 1.0000000000000000e+00 1.0580888803426072e+01 1.8925770066392332e+01 4.0808641004171065e+01 
1369 971 2 1.0276934148962171e+00 -1.6581709725067815e+03 1.0000000000000000e+00 1.0706590728649180e+01 1.9679745560944355e+01 4.0906927810156539e+01 
2065 1667 2 1.0280835722192507e+00 -3.8831524629305733e+02 1.0000000000000000e+00 1.0430599450211977e+01 1.8719817743499913e+01 4.1111805769842142e+01 
1530 1132 2 1.0278172449500982e+00 3.8080312664911462e+03 1.0000000000000000e+00 1.0613342868029386e+01 1.9123918304369170e+01 4.0791620711350838e+01 
1000 602 2 1.0286057629065695e+00 -4.4198422583848742e+03 1.0000000000000000e+00 1.0381384623342656e+01 1.8863010001165822e+01 4.2620771627050303e+01 
1177 779 2 1.0279582427338863e+00 7.2290403727195926e+03 1.0000000000000000e+00 1.0423305377037945e+01 1.9462752820259464e+01 4.1154975923627838e+01 
1417 1019 2 1.0283405511410109e+00 -7.7192647107180783e+03 1.0000000000000000e+00 1.0598928164741453e+01 1.8592552830360709e+01 4.0947462761113307e+01 
1691 1293 2 1.0267554914618964e+00 -2.1941946702033811e+03 1.0000000000000000e+00 1.0395314650728906e+01 1.8710194054316009e+01 4.1132946343360842e+01 
1547 1149 2 1.0298689283911122e+00 3.0288916700455968e+04 1.0000000000000000e+00 1.0424075124353719e+01 1.9615416803048632e+01 4.1386627672273093e+01 
683 285 2 1.0277397788926474e+00 -5.1939773046622668e+03 1.0000000000000000e+00 1.0489887100753151e+01 1.9452529573323723e+01 4.1028926193535121e+01 
1775 1377 2 1.0297413131293305e+00 9.0767301740069865e+02 1.0000000000000000e+00 1.0642809670494092e+01 1.9230937062431529e+01 4.0823749054785779e+01 
1773 1375 2 1.0283945049290584e+00 -2.2480934192134268e+03 1.0000000000000000e+00 1.0663917267386390e+01 1.9558850580659758e+01 4.0890756848557537e+01 
1855 1457 2 1.0279192752555926e+00 1.1092743863487126e+03 1.0000000000000000e+00 1.0386125203170376e+01 1.9680252202521956e+01 4.2266869856042966e+01 
1345 947 2 1.0278919243745124e+00 7.2239589672235525e+03 1.0000000000000000e+00 1.0447943988444381e+01 1.8737027092935897e+01 4.1066774125708555e+01 
1768 1370 2 1.0309276927286608e+00 -3.9272608118849143e+03 1.0000000000000000e+00 1.0550912482263380e+01 1.8596148600208984e+01 4.1090011156357470e+01 
2016 1618 2 1.0282268700008215e+00 -1.6332435242626314e+04 1.0000000000000000e+00 1.0559568085320322e+01 1.8673819361753328e+01 4.0948551204703939e+01 
884 486 2 1.0287940985930963e+00 -2.2294281088910225e+03 1.0000000000000000e+00 1.0351183355178341e+01 1.8472335345867169e+01 4.2068317980123602e+01 
1253 855 2 1.0300801858559134e+00 7.1510663692350281e+03 1.0000000000000000e+00 1.0610097988869436e+01 1.9205405108964310e+01 4.0861842297900644e+01 
597 199 2 1.0281395062867145e+00 -2.2472697131091472e+03 1.0000000000000000e+00 1.0679835459979666e+01 1.8554335585536734e+01 4.0875248486360611e+01 
858 460 2 1.0276312775067045e+00 -3.3199642391847656e+03 1.0000000000000000e+00 1.0347625953857262e+01 1.8841171466550460e+01 4.2562014092585464e+01 
1557 1159 2 1.0271970669725750e+00 -2.7507523133654763e+03 1.0000000000000000e+00 1.0578156383260229e+01 1.9029715519444981e+01 4.0810682649336755e+01 
1828 1430 2 1.0307653426876824e+00 -2.5269145484798983e+03 1.0000000000000000e+00 1.0489840223424723e+01 1.9218747080250090e+01 4.1036854068508632e+01 
1495 1097 2 1.0277368586883409e+00 -3.6161681173833599e+03 1.0000000000000000e+00 1.0650236977494130e+01 1.9507721429995915e+01 4.0859730878573181e+01 
1053 655 2 1.0267682152213615e+00 -2.7512439916428089e+03 1.0000000000000000e+00 1.0618204969083736e+01 1.9248832058234125e+01 4.0777481059471938e+01 
1637 1239 2 1.0290226823990019e+00 6.6347615585754702e+03 1.0000000000000000e+00 1.0602984467115897e+01 1.9087749644392233e+01 4.0830847401311097e+01 
1201 803 2 1.0257580726686013e+00 -1.6700591853432984e+03 1.0000000000000000e+00 1.0660288345435282e+01 1.8677153432484385e+01 4.0774034762343796e+01 
1902 1504 2 1.0253069750710844e+00 8.5126470439416644e+03 1.0000000000000000e+00 1.0711082317011392e+01 1.8835229635418369e+01 4.0671726021413875e+01 
648 250 2 1.0288853980379375e+00 -7.7971146079766186e+03 1.0000000000000000e+00 1.0659122073349440e+01 1.8722920892782149e+01 4.0834534719224017e+01 
1121 723 2 1.0261733741922714e+00 7.8083755838719590e+03 1.0000000000000000e+00 1.0755709280157417e+01 1.9330962712368493e+01 4.0665682824539957e+01 
1805 1407 2 1.0279701501515217e+00 8.3600289921068470e+03 1.0000000000000000e+00 1.0380648905607277e+01 1.9412932551714153e+01 4.2560998251904145e+01 
2029 1631 2 1.0257667196154081e+00 -1.1822008152256096e+04 1.0000000000000000e+00 1.0499016618874908e+01 1.9120629890114301e+01 4.0863457853105992e+01 
1859 1461 2 1.0282747648158437e+00 -5.1972760549196246e+03 1.0000000000000000e+00 1.0548278582859940e+01 1.8690471004457944e+01 4.0956196845196850e+01 
1559 1161 2 1.0255153922106917e+00 -7.5974779012401323e+03 1.0000000000000000e+00 1.0730640546139471e+01 1.8767576038153372e+01 4.0678102924572336e+01 
686 288 2 1.0274244512277504e+00 -4.5669226674940610e+03 1.0000000000000000e+00 1.0435496507999922e+01 1.9561157018202010e+01 4.1186233774659641e+01 
1946 1548 2 1.0269525901714684e+00 7.5601875388637018e+03 1.0000000000000000e+00 1.0575305323172943e+01 1.8051229471674887e+01 4.2003716975909896e+01 
504 106 2 1.0299248683272171e+00 -1.6331438003236015e+04 1.0000000000000000e+00 1.0666756938208163e+01 1.9561801714731299e+01 4.0931302744156021e+01 
1574 1176 2 1.0299161655693032e+00 -1.3085303679830329e+04 1.0000000000000000e+00 1.0542179489896187e+01 1.9248343573844039e+01 4.0945143751207290e+01 
477 79 2 1.0273166134210618e+00 -8.5647543778761083e+03 1.0000000000000000e+00 1.0381840589901017e+01 1.9472751748010399e+01 4.2547960572080520e+01 
1869 1471 2 1.0301204217493718e+00 2.0530669087049746e+03 1.0000000000000000e+00 1.0481369047174184e+01 1.9569204658534840e+01 4.1212090444759170e+01 
1603 1205 2 1.0301305337504070e+00 -8.2279414184016823e+03 1.0000000000000000e+00 1.0721320057926544e+01 1.9214520437119155e+01 4.0758327140379038e+01 
553 155 2 1.0275508183678199e+00 -3.8815450480996037e+02 1.0000000000000000e+00 1.0511658270973360e+01 1.9482105677875850e+01 4.1007814175797790e+01 
1698 1300 2 1.0269028892660270e+00 -3.3244874184592177e+03 1.0000000000000000e+00 1.0354600712187302e+01 1.9508515591969111e+01 4.2453868799057339e+01 
1357 959 2 1.0275470102157656e+00 3.8088430675691638e+03 1.0000000000000000e+00 1.0681704786937050e+01 1.9559204269436062e+01 4.0850643446662190e+01 
671 273 2 1.0289518121162931e+00 5.6025645767529841e+03 1.0000000000000000e+00 1.0587801477990832e+01 1.9091430817260747e+01 4.0845263648985245e+01 
913 515 2 1.0253203114086435e+00 -7.7218373538452015e+03 1.0000000000000000e+00 1.0730350617964950e+01 1.9541709351139890e+01 4.0743259016751175e+01 
1092 694 2 1.0273844912494223e+00 -9.2412220772086494e+03 1.0000000000000000e+00 1.0913453142649924e+01 1.8654285104157012e+01 4.0631569957890427e+01 
2002 1604 2 1.0272871401149990e+00 -6.3493799508184129e+03 1.0000000000000000e+00 1.0830420762121756e+01 1.9348130695451310e+01 4.0641757621060563e+01 
991 593 2 1.0270165195712071e+00 -3.6147875593079475e+03 1.0000000000000000e+00 1.0724226419655521e+01 1.8665384970353703e+01 4.0752370382133854e+01 
1260 862 2 1.0266122515716751e+00 -9.2406964409892444e+03 1.0000000000000000e+00 1.1023586442025135e+01 1.9503132361919867e+01 4.0569967968125333e+01 
1824 1426 2 1.0270038356159297e+00 -7.7980491077462084e+03 1.0000000000000000e+00 1.0806956202472062e+01 1.9339491792047244e+01 4.0649256471475205e+01 
517 119 2 1.0269990426054483e+00 -1.1818334313479709e+04 1.0000000000000000e+00 1.0517061417110565e+01 1.8669538723489854e+01 4.0969747697775730e+01 
465 67 2 1.0294767631019524e+00 -2.8697181874968519e+03 1.0000000000000000e+00 1.1039589109936220e+01 1.8695270334998341e+01 4.0593572421047242e+01 
403 5 2 1.0227136901148122e+00 -6.7324334402768554e+03 1.0000000000000000e+00 1.0749715178516226e+01 1.9519831252737081e+01 4.0659415701682995e+01 
1666 1268 2 1.0268687314686098e+00 2.1728407597971668e+03 1.0000000000000000e+00 1.0393007110189190e+01 1.8969025700855767e+01 4.1051157169354774e+01 
487 89 2 1.0296774527914025e+00 -5.7802670923078549e+03 1.0000000000000000e+00 1.0838971303623341e+01 1.9619967197576997e+01 4.0800980164592971e+01 
516 118 2 1.0245573251511755e+00 -6.5490170195528335e+03 1.0000000000000000e+00 1.0463865716668636e+01 1.8961453304115050e+01 4.0878203087618509e+01 