LAMMPS data file via write_data, version 30 Jul 2016, timestep = 1000000

2080 atoms
8 atom types

0.0000000000000000e+00 4.0000000000000000e+01 xlo xhi
0.0000000000000000e+00 4.0000000000000000e+01 ylo yhi
0.0000000000000000e+00 1.0000000000000000e+02 zlo zhi

Masses

1 3.896
2 10.72
3 1058.08
4 8.378
5 8.378
6 8.378
7 8.378
8 8.378

Atoms # meso-molecular

1 2 4 2.2559723595316457e+00 1.1246467909208417e+00 4.2000000000000000e+03 0.0000000000000000e+00 0.0000000000000000e+00 2.5000000000000000e+00 
21 2 4 2.2559723595316457e+00 -1.5852405883797156e+01 4.2000000000000000e+03 2.0000000000000000e+00 0.0000000000000000e+00 2.5000000000000000e+00 
41 2 4 2.2559723595316457e+00 -1.6693764613103212e+02 4.2000000000000000e+03 4.0000000000000000e+00 0.0000000000000000e+00 2.5000000000000000e+00 
61 2 4 2.2559723595316457e+00 1.0000655541125676e+00 4.2000000000000000e+03 6.0000000000000000e+00 0.0000000000000000e+00 2.5000000000000000e+00 
81 2 4 2.2559723595316457e+00 -2.0377747271359332e-02 4.2000000000000000e+03 8.0000000000000000e+00 0.0000000000000000e+00 2.5000000000000000e+00 
101 2 4 2.2559723595316457e+00 6.4963312611593498e+00 4.2000000000000000e+03 1.0000000000000000e+01 0.0000000000000000e+00 2.5000000000000000e+00 
121 2 4 2.2559723595316457e+00 -1.2879781410715117e+00 4.2000000000000000e+03 1.2000000000000000e+01 0.0000000000000000e+00 2.5000000000000000e+00 
141 2 4 2.2559723595316457e+00 1.3642236607417071e-01 4.2000000000000000e+03 1.4000000000000000e+01 0.0000000000000000e+00 2.5000000000000000e+00 
161 2 4 2.2559723595316457e+00 -5.2396088249076804e+00 4.2000000000000000e+03 1.6000000000000000e+01 0.0000000000000000e+00 2.5000000000000000e+00 
181 2 4 2.2559723595316457e+00 1.0009604008561754e+00 4.2000000000000000e+03 1.8000000000000000e+01 0.0000000000000000e+00 2.5000000000000000e+00 
2 2 4 2.2559723595316457e+00 1.4590571908176719e+00 4.2000000000000000e+03 0.0000000000000000e+00 2.0000000000000000e+00 2.5000000000000000e+00 
22 2 4 2.2559723595316457e+00 -3.6309809840974832e+00 4.2000000000000000e+03 2.0000000000000000e+00 2.0000000000000000e+00 2.5000000000000000e+00 
42 2 4 2.2559723595316457e+00 5.0206599535521708e+00 4.2000000000000000e+03 4.0000000000000000e+00 2.0000000000000000e+00 2.5000000000000000e+00 
62 2 4 2.2559723595316457e+00 1.4248174175020685e+00 4.2000000000000000e+03 6.0000000000000000e+00 2.0000000000000000e+00 2.5000000000000000e+00 
82 2 4 2.2559723595316457e+00 -8.5845838343156533e+00 4.2000000000000000e+03 8.0000000000000000e+00 2.0000000000000000e+00 2.5000000000000000e+00 
102 2 4 2.2559723595316457e+00 8.5739194875280789e-01 4.2000000000000000e+03 1.0000000000000000e+01 2.0000000000000000e+00 2.5000000000000000e+00 
122 2 4 2.2559723595316457e+00 -1.6418637134653906e+00 4.2000000000000000e+03 1.2000000000000000e+01 2.0000000000000000e+00 2.5000000000000000e+00 
142 2 4 2.2559723595316457e+00 9.6703429701044152e-01 4.2000000000000000e+03 1.4000000000000000e+01 2.0000000000000000e+00 2.5000000000000000e+00 
162 2 4 2.2559723595316457e+00 1.0865797861682087e+00 4.2000000000000000e+03 1.6000000000000000e+01 2.0000000000000000e+00 2.5000000000000000e+00 
182 2 4 2.2559723595316457e+00 9.9990222391277050e-01 4.2000000000000000e+03 1.8000000000000000e+01 2.0000000000000000e+00 2.5000000000000000e+00 
3 2 4 2.2559723595316457e+00 3.8772999591597557e-01 4.2000000000000000e+03 0.0000000000000000e+00 4.0000000000000000e+00 2.5000000000000000e+00 
23 2 4 2.2559723595316457e+00 1.3005512427073289e+00 4.2000000000000000e+03 2.0000000000000000e+00 4.0000000000000000e+00 2.5000000000000000e+00 
43 2 4 2.2559723595316457e+00 9.3310525702778846e-01 4.2000000000000000e+03 4.0000000000000000e+00 4.0000000000000000e+00 2.5000000000000000e+00 
63 2 4 2.2559723595316457e+00 -1.7640200465180607e+00 4.2000000000000000e+03 6.0000000000000000e+00 4.0000000000000000e+00 2.5000000000000000e+00 
83 2 4 2.2559723595316457e+00 -3.8697355907048867e+00 4.2000000000000000e+03 8.0000000000000000e+00 4.0000000000000000e+00 2.5000000000000000e+00 
103 2 4 2.2559723595316457e+00 -8.5328933273987440e-01 4.2000000000000000e+03 1.0000000000000000e+01 4.0000000000000000e+00 2.5000000000000000e+00 
123 2 4 2.2559723595316457e+00 8.3759344068675623e-01 4.2000000000000000e+03 1.2000000000000000e+01 4.0000000000000000e+00 2.5000000000000000e+00 
143 2 4 2.2559723595316457e+00 1.6328964478313188e+00 4.2000000000000000e+03 1.4000000000000000e+01 4.0000000000000000e+00 2.5000000000000000e+00 
163 2 4 2.2559723595316457e+00 2.6527450278989306e+00 4.2000000000000000e+03 1.6000000000000000e+01 4.0000000000000000e+00 2.5000000000000000e+00 
183 2 4 2.2559723595316457e+00 1.0019042204942976e+00 4.2000000000000000e+03 1.8000000000000000e+01 4.0000000000000000e+00 2.5000000000000000e+00 
4 2 4 2.2559723595316457e+00 -2.0430176381548462e+00 4.2000000000000000e+03 0.0000000000000000e+00 6.0000000000000000e+00 2.5000000000000000e+00 
24 2 4 2.2559723595316457e+00 2.1919077072314477e+00 4.2000000000000000e+03 2.0000000000000000e+00 6.0000000000000000e+00 2.5000000000000000e+00 
44 2 4 2.2559723595316457e+00 8.9129852383902530e-01 4.2000000000000000e+03 4.0000000000000000e+00 6.0000000000000000e+00 2.5000000000000000e+00 
64 2 4 2.2559723595316457e+00 1.0000035770152644e+00 4.2000000000000000e+03 6.0000000000000000e+00 6.0000000000000000e+00 2.5000000000000000e+00 
84 2 4 2.2559723595316457e+00 6.9751446871864964e-01 4.2000000000000000e+03 8.0000000000000000e+00 6.0000000000000000e+00 2.5000000000000000e+00 
104 2 4 2.2559723595316457e+00 -1.4424921867927786e+01 4.2000000000000000e+03 1.0000000000000000e+01 6.0000000000000000e+00 2.5000000000000000e+00 
124 2 4 2.2559723595316457e+00 -4.9037520146754105e+01 4.2000000000000000e+03 1.2000000000000000e+01 6.0000000000000000e+00 2.5000000000000000e+00 
144 2 4 2.2559723595316457e+00 3.4116803418206425e+00 4.2000000000000000e+03 1.4000000000000000e+01 6.0000000000000000e+00 2.5000000000000000e+00 
164 2 4 2.2559723595316457e+00 1.2404740164165130e+01 4.2000000000000000e+03 1.6000000000000000e+01 6.0000000000000000e+00 2.5000000000000000e+00 
184 2 4 2.2559723595316457e+00 1.3110290131925293e+01 4.2000000000000000e+03 1.8000000000000000e+01 6.0000000000000000e+00 2.5000000000000000e+00 
5 2 4 2.2559723595316457e+00 -9.2768420454348877e-01 4.2000000000000000e+03 0.0000000000000000e+00 8.0000000000000000e+00 2.5000000000000000e+00 
25 2 4 2.2559723595316457e+00 -8.9349949057982525e-01 4.2000000000000000e+03 2.0000000000000000e+00 8.0000000000000000e+00 2.5000000000000000e+00 
45 2 4 2.2559723595316457e+00 8.0340694302441999e+00 4.2000000000000000e+03 4.0000000000000000e+00 8.0000000000000000e+00 2.5000000000000000e+00 
65 2 4 2.2559723595316457e+00 1.0230377325877154e+01 4.2000000000000000e+03 6.0000000000000000e+00 8.0000000000000000e+00 2.5000000000000000e+00 
85 2 4 2.2559723595316457e+00 2.5460371902319299e+00 4.2000000000000000e+03 8.0000000000000000e+00 8.0000000000000000e+00 2.5000000000000000e+00 
105 2 4 2.2559723595316457e+00 4.9565046557420054e+00 4.2000000000000000e+03 1.0000000000000000e+01 8.0000000000000000e+00 2.5000000000000000e+00 
125 2 4 2.2559723595316457e+00 2.8434035335427197e+00 4.2000000000000000e+03 1.2000000000000000e+01 8.0000000000000000e+00 2.5000000000000000e+00 
145 2 4 2.2559723595316457e+00 1.4820608110152904e+00 4.2000000000000000e+03 1.4000000000000000e+01 8.0000000000000000e+00 2.5000000000000000e+00 
165 2 4 2.2559723595316457e+00 1.2215471568039877e+01 4.2000000000000000e+03 1.6000000000000000e+01 8.0000000000000000e+00 2.5000000000000000e+00 
185 2 4 2.2559723595316457e+00 4.0445057009468774e+00 4.2000000000000000e+03 1.8000000000000000e+01 8.0000000000000000e+00 2.5000000000000000e+00 
6 2 4 2.2559723595316457e+00 4.6089657281497537e+01 4.2000000000000000e+03 0.0000000000000000e+00 1.0000000000000000e+01 2.5000000000000000e+00 
26 2 4 2.2559723595316457e+00 2.9659050974462753e+00 4.2000000000000000e+03 2.0000000000000000e+00 1.0000000000000000e+01 2.5000000000000000e+00 
46 2 4 2.2559723595316457e+00 3.7342861634236266e+00 4.2000000000000000e+03 4.0000000000000000e+00 1.0000000000000000e+01 2.5000000000000000e+00 
66 2 4 2.2559723595316457e+00 3.4466597660163734e+00 4.2000000000000000e+03 6.0000000000000000e+00 1.0000000000000000e+01 2.5000000000000000e+00 
86 2 4 2.2559723595316457e+00 1.0001135590242365e+00 4.2000000000000000e+03 8.0000000000000000e+00 1.0000000000000000e+01 2.5000000000000000e+00 
106 2 4 2.2559723595316457e+00 -1.1850474522968204e+00 4.2000000000000000e+03 1.0000000000000000e+01 1.0000000000000000e+01 2.5000000000000000e+00 
126 2 4 2.2559723595325982e+00 -1.9224386043930386e+00 4.2000000000000000e+03 1.2000000000000000e+01 1.0000000000000000e+01 2.5000000000000000e+00 
146 2 4 2.2559723595316457e+00 1.0065571170173055e+00 4.2000000000000000e+03 1.4000000000000000e+01 1.0000000000000000e+01 2.5000000000000000e+00 
166 2 4 2.2559723595316457e+00 1.0000000000000000e+00 4.2000000000000000e+03 1.6000000000000000e+01 1.0000000000000000e+01 2.5000000000000000e+00 
186 2 4 2.2559723595316457e+00 4.2401220917778399e+00 4.2000000000000000e+03 1.8000000000000000e+01 1.0000000000000000e+01 2.5000000000000000e+00 
7 2 4 2.2559723595316457e+00 -9.3543622775259505e-01 4.2000000000000000e+03 0.0000000000000000e+00 1.2000000000000000e+01 2.5000000000000000e+00 
27 2 4 2.2559723595316457e+00 2.7274680640943294e+00 4.2000000000000000e+03 2.0000000000000000e+00 1.2000000000000000e+01 2.5000000000000000e+00 
47 2 4 2.2559723595316457e+00 7.9030774007688258e+00 4.2000000000000000e+03 4.0000000000000000e+00 1.2000000000000000e+01 2.5000000000000000e+00 
67 2 4 2.2559723595316457e+00 3.5487662166126448e+00 4.2000000000000000e+03 6.0000000000000000e+00 1.2000000000000000e+01 2.5000000000000000e+00 
87 2 4 2.2559723595316457e+00 1.2067333842062808e+00 4.2000000000000000e+03 8.0000000000000000e+00 1.2000000000000000e+01 2.5000000000000000e+00 
107 2 4 2.2559723595316457e+00 1.0128223337846722e+00 4.2000000000000000e+03 1.0000000000000000e+01 1.2000000000000000e+01 2.5000000000000000e+00 
127 2 4 2.2559723595316457e+00 9.5184183429077951e-01 4.2000000000000000e+03 1.2000000000000000e+01 1.2000000000000000e+01 2.5000000000000000e+00 
147 2 4 2.2559723595316457e+00 -2.2567837376227962e+00 4.2000000000000000e+03 1.4000000000000000e+01 1.2000000000000000e+01 2.5000000000000000e+00 
167 2 4 2.2559723595316457e+00 -2.7367021236948194e+01 4.2000000000000000e+03 1.6000000000000000e+01 1.2000000000000000e+01 2.5000000000000000e+00 
187 2 4 2.2559723595316457e+00 -1.2966822362793053e+01 4.2000000000000000e+03 1.8000000000000000e+01 1.2000000000000000e+01 2.5000000000000000e+00 
8 2 4 2.2559723595316457e+00 1.2429497106108393e+01 4.2000000000000000e+03 0.0000000000000000e+00 1.4000000000000000e+01 2.5000000000000000e+00 
28 2 4 2.2559723595316457e+00 1.3213032241557663e+01 4.2000000000000000e+03 2.0000000000000000e+00 1.4000000000000000e+01 2.5000000000000000e+00 
48 2 4 2.2559723595316457e+00 6.0807787825609729e+00 4.2000000000000000e+03 4.0000000000000000e+00 1.4000000000000000e+01 2.5000000000000000e+00 
68 2 4 2.2559723595316457e+00 -3.7545393862344573e-01 4.2000000000000000e+03 6.0000000000000000e+00 1.4000000000000000e+01 2.5000000000000000e+00 
88 2 4 2.2559723595316457e+00 -6.0706080096925605e+00 4.2000000000000000e+03 8.0000000000000000e+00 1.4000000000000000e+01 2.5000000000000000e+00 
108 2 4 2.2559723595345531e+00 2.0526842484864684e+01 4.2000000000000000e+03 1.0000000000000000e+01 1.4000000000000000e+01 2.5000000000000000e+00 
128 2 4 2.2559723595316457e+00 1.5601384200676958e+00 4.2000000000000000e+03 1.2000000000000000e+01 1.4000000000000000e+01 2.5000000000000000e+00 
148 2 4 2.2559723595316457e+00 3.4619272615932273e+00 4.2000000000000000e+03 1.4000000000000000e+01 1.4000000000000000e+01 2.5000000000000000e+00 
168 2 4 2.2559723595316457e+00 3.8834198123174852e+00 4.2000000000000000e+03 1.6000000000000000e+01 1.4000000000000000e+01 2.5000000000000000e+00 
188 2 4 2.2559723595316457e+00 1.3829870293756956e+00 4.2000000000000000e+03 1.8000000000000000e+01 1.4000000000000000e+01 2.5000000000000000e+00 
9 2 4 2.2559723595316457e+00 1.2005338274327335e+00 4.2000000000000000e+03 0.0000000000000000e+00 1.6000000000000000e+01 2.5000000000000000e+00 
29 2 4 2.2559723595316457e+00 5.1333869043766200e-01 4.2000000000000000e+03 2.0000000000000000e+00 1.6000000000000000e+01 2.5000000000000000e+00 
49 2 4 2.2559723595316457e+00 7.9645127030599538e-01 4.2000000000000000e+03 4.0000000000000000e+00 1.6000000000000000e+01 2.5000000000000000e+00 
69 2 4 2.2559723595316457e+00 9.9940971004883283e-01 4.2000000000000000e+03 6.0000000000000000e+00 1.6000000000000000e+01 2.5000000000000000e+00 
89 2 4 2.2559723595316457e+00 -3.4719516168359661e+01 4.2000000000000000e+03 8.0000000000000000e+00 1.6000000000000000e+01 2.5000000000000000e+00 
109 2 4 2.2559723595316457e+00 -1.3999886559014740e+01 4.2000000000000000e+03 1.0000000000000000e+01 1.6000000000000000e+01 2.5000000000000000e+00 
129 2 4 2.2559723595316457e+00 1.9615517193463914e+00 4.2000000000000000e+03 1.2000000000000000e+01 1.6000000000000000e+01 2.5000000000000000e+00 
149 2 4 2.2559723595316457e+00 4.7529399573717317e+00 4.2000000000000000e+03 1.4000000000000000e+01 1.6000000000000000e+01 2.5000000000000000e+00 
169 2 4 2.2559723595316457e+00 -8.2649189054696599e+00 4.2000000000000000e+03 1.6000000000000000e+01 1.6000000000000000e+01 2.5000000000000000e+00 
189 2 4 2.2559723595316457e+00 8.6388957800810395e+00 4.2000000000000000e+03 1.8000000000000000e+01 1.6000000000000000e+01 2.5000000000000000e+00 
10 2 4 2.2559723595316457e+00 9.9215727147305044e-01 4.2000000000000000e+03 0.0000000000000000e+00 1.8000000000000000e+01 2.5000000000000000e+00 
30 2 4 2.2559723595316457e+00 -8.1840002730585635e+00 4.2000000000000000e+03 2.0000000000000000e+00 1.8000000000000000e+01 2.5000000000000000e+00 
50 2 4 2.2559723595316457e+00 -1.7597480085579079e+01 4.2000000000000000e+03 4.0000000000000000e+00 1.8000000000000000e+01 2.5000000000000000e+00 
70 2 4 2.2559723595316457e+00 1.2764703598671776e-01 4.2000000000000000e+03 6.0000000000000000e+00 1.8000000000000000e+01 2.5000000000000000e+00 
90 2 4 2.2559723595316457e+00 9.9991986058575688e-01 4.2000000000000000e+03 8.0000000000000000e+00 1.8000000000000000e+01 2.5000000000000000e+00 
110 2 4 2.2559723595316457e+00 -2.4204935219682207e+00 4.2000000000000000e+03 1.0000000000000000e+01 1.8000000000000000e+01 2.5000000000000000e+00 
130 2 4 2.2559723595316457e+00 1.0677512858263318e+00 4.2000000000000000e+03 1.2000000000000000e+01 1.8000000000000000e+01 2.5000000000000000e+00 
150 2 4 2.2559723595316457e+00 7.9576918135370782e+00 4.2000000000000000e+03 1.4000000000000000e+01 1.8000000000000000e+01 2.5000000000000000e+00 
170 2 4 2.2559723595316457e+00 1.8354347856316822e+00 4.2000000000000000e+03 1.6000000000000000e+01 1.8000000000000000e+01 2.5000000000000000e+00 
190 2 4 2.2559723595316457e+00 5.3117327303661011e+00 4.2000000000000000e+03 1.8000000000000000e+01 1.8000000000000000e+01 2.5000000000000000e+00 
1426 1028 2 1.0280042795192468e+00 7.5816361683925857e+02 4.2000000000000000e+03 7.0839982753636006e+00 1.1061925065417975e+00 5.3687383215597952e+00 
1571 1173 2 1.0279999997053610e+00 -3.1280668130788217e+03 4.2000000000000000e+03 1.7927503612098363e+01 9.9071265595267715e+00 5.8310809231254135e+00 
1255 857 2 1.0280042015654309e+00 -4.2218072904299897e+03 4.2000000000000000e+03 5.3244221483137588e+00 3.9233693651639401e-01 7.5799092441703282e+00 
1808 1410 2 1.0280002705514493e+00 -3.8789420093889737e+02 4.2000000000000000e+03 1.5405361881102788e+01 2.2002420160517261e-01 6.7404117621466204e+00 
1609 1211 2 1.0279958020533706e+00 2.6077742663408271e+03 4.2000000000000000e+03 7.6120505029061594e+00 2.6423671562419924e+00 5.9416645853101278e+00 
1946 1548 2 1.0279997135961647e+00 -2.8103043629430435e+03 4.2000000000000000e+03 1.3099161011104750e+01 2.2135600267231195e+00 6.7682645239944934e+00 
1437 1039 2 1.0280002872444831e+00 2.9406806932871250e+03 4.2000000000000000e+03 1.4581183404694718e+01 3.0493201903793286e+00 6.4999426536808853e+00 
1767 1369 2 1.0279988105128444e+00 -1.1011718144257065e+03 4.2000000000000000e+03 2.5676461329822606e+00 4.1480208799679197e+00 6.9537923217971702e+00 
426 28 2 1.0280000025665139e+00 -6.9702727546243764e+01 4.2000000000000000e+03 5.6990896761550145e+00 5.5342806518860961e+00 6.6652829014908894e+00 
1450 1052 2 1.0280012900307736e+00 6.4970821033174016e+03 4.2000000000000000e+03 1.9934590886092451e+00 6.2043160130429236e+00 7.0478875011270903e+00 
433 35 2 1.0280000025665139e+00 4.3122668081145512e+03 4.2000000000000000e+03 6.2068281531239888e+00 7.1622183892304916e+00 6.9079758969422000e+00 
497 99 2 1.0279999997053610e+00 4.0111214184471628e+03 4.2000000000000000e+03 1.8033522906865784e+01 8.1903324198181888e+00 5.9219508505137357e+00 
1828 1430 2 1.0280000000000384e+00 -6.5571187901679941e+03 4.2000000000000000e+03 1.0868939821792187e+01 1.1700930252214089e+01 7.2266029491357342e+00 
1812 1414 2 1.0280000000000384e+00 4.2003560368558665e+03 4.2000000000000000e+03 1.1883891109831735e+01 1.3073887316520922e+01 6.9991335388828118e+00 
1502 1104 2 1.0279999999985867e+00 -2.6504572699964765e+03 4.2000000000000000e+03 1.7411579367093580e+01 1.3162853460616386e+01 7.8337890240678094e+00 
1618 1220 2 1.0279999999996650e+00 -5.2713349580925660e+03 4.2000000000000000e+03 1.1256579663692451e+01 1.7367058446186547e+01 6.7750178635675056e+00 
1294 896 2 1.0279999999996650e+00 -3.1854341419288762e+03 4.2000000000000000e+03 9.7304839771790128e+00 1.8164825492560972e+01 6.8134788236613497e+00 
1268 870 2 1.0280011571121239e+00 1.4872803510537071e+03 4.2000000000000000e+03 3.5221582308170625e+00 4.3407748641181163e+00 8.5405884354021246e+00 
1939 1541 2 1.0279986309793023e+00 8.4686561681737282e+02 4.2000000000000000e+03 2.5361016426278309e+00 6.2766391031285593e+00 8.8273459665019232e+00 
1921 1523 2 1.0279999999987433e+00 -5.3750786738326697e+03 4.2000000000000000e+03 1.0055186544387800e+01 6.1235480560901330e+00 8.1906114295691221e+00 
1281 883 2 1.0279999999987433e+00 -4.1971221009306464e+03 4.2000000000000000e+03 1.0227624799667103e+01 7.8329677926750145e+00 8.0680195765548142e+00 
644 246 2 1.0280000071128217e+00 3.0263980897850279e+03 4.2000000000000000e+03 5.6878579887930485e+00 9.8708984648870342e+00 9.3168417399620687e+00 
831 433 2 1.0280000071128217e+00 -5.0794799364506125e+03 4.2000000000000000e+03 7.0926039828845218e+00 8.9406224663549061e+00 9.6748288155975128e+00 
556 158 2 1.0279999999985867e+00 6.9507975332218539e+03 4.2000000000000000e+03 1.9049754403881977e+01 1.3558389924165986e+01 8.1898971607097639e+00 
773 375 2 1.0280000000000840e+00 6.1551327075680308e+02 4.2000000000000000e+03 1.4782689912033165e+01 1.6129674632264443e+01 9.1913077075521308e+00 
1914 1516 2 1.0276827421713191e+00 1.2704342317268854e+03 4.2000000000000000e+03 3.0171365622976148e-01 1.9710654105035715e+01 9.7076556255728264e+00 
1605 1207 2 1.0279988394145712e+00 3.5064488721638127e+03 4.2000000000000000e+03 4.8362147065501526e+00 4.6478113682538220e+00 1.0597205815951313e+01 
458 60 2 1.0279999600398493e+00 -4.3992074157702757e+02 4.2000000000000000e+03 1.3664025235859436e+01 5.7888363024129292e+00 1.1354278060262054e+01 
737 339 2 1.0279998401823540e+00 8.5252862539441344e+02 4.2000000000000000e+03 1.5040117071358239e+01 4.8781248270463422e+00 1.0688778626924684e+01 
1259 861 2 1.0280010977995093e+00 -3.3195812011430708e+03 4.2000000000000000e+03 3.9416245599471473e+00 6.1294887731248915e+00 1.0840675461669408e+01 
410 12 2 1.0279996044319093e+00 6.5597606422260433e+03 4.2000000000000000e+03 1.0604460301831420e+01 6.3577486551095621e+00 1.1291598929219028e+01 
788 390 2 1.0280000000004073e+00 8.6380225977745056e+02 4.2000000000000000e+03 8.7220145843816983e+00 1.3803520356332305e+01 1.1400961198442136e+01 
440 42 2 1.0280000000000364e+00 -1.2087846823430136e+03 4.2000000000000000e+03 2.5404967156191476e+00 1.5290226062183997e+01 1.1186580910676170e+01 
412 14 2 1.0280000000000364e+00 -6.0588469909428804e+03 4.2000000000000000e+03 4.1650780465480040e+00 1.4720383926043871e+01 1.1132775806822735e+01 
585 187 2 1.0280000000000840e+00 -3.8869051437684948e+02 4.2000000000000000e+03 1.4355814214513471e+01 1.7260284827728441e+01 1.0418653329169574e+01 
1078 680 2 1.0280000000054130e+00 -4.9485162129798264e+03 4.2000000000000000e+03 5.2825275306341446e+00 1.8123944023119041e+01 1.0838278159034299e+01 
586 188 2 1.0280000000054130e+00 -2.8364509178096469e+03 4.2000000000000000e+03 6.9611891495353770e+00 1.8414044498537784e+01 1.1092868876593103e+01 
763 365 2 1.0279999140853855e+00 -1.0630528812086288e+03 4.2000000000000000e+03 1.4485042267609462e+01 1.9822158561667411e+00 1.2949105873516107e+01 
575 177 2 1.0280003801634892e+00 -1.8641698094118786e+02 4.2000000000000000e+03 1.3823165172708068e+01 3.5973911934841074e+00 1.2206271392234241e+01 
1154 756 2 1.0279998905208667e+00 3.1299880649795036e+03 4.2000000000000000e+03 1.6214144785514364e+01 3.9912949594912845e+00 1.3041765893416613e+01 
1086 688 2 1.0280005917685038e+00 -4.1514261349568751e+03 4.2000000000000000e+03 1.9135475297344595e+01 3.0172573943345879e+00 1.2193707388547841e+01 
1135 737 2 1.0280004534140534e+00 -6.2277676134342094e+01 4.2000000000000000e+03 1.1328504012491194e+01 4.8025992885835498e+00 1.2709441514810711e+01 
1617 1219 2 1.0280004624383212e+00 2.8016584606767083e+03 4.2000000000000000e+03 1.1048456384093399e+01 7.0109997487996898e+00 1.2927071940382771e+01 
745 347 2 1.0279999999999996e+00 3.4588067876394433e+02 4.2000000000000000e+03 1.9339218342816404e+00 8.7558459460244045e+00 1.3657144558824170e+01 
906 508 2 1.0280000074935409e+00 -1.4492292892639653e+03 4.2000000000000000e+03 1.3090901033993116e+01 9.1834453199324475e+00 1.2833424364559255e+01 
1475 1077 2 1.0280000000004073e+00 1.2852810908838168e+04 4.2000000000000000e+03 9.4538023293941862e+00 1.2400024884279000e+01 1.2080348206189706e+01 
1241 843 2 1.0279999999993834e+00 2.8714940178908719e+03 4.2000000000000000e+03 1.2033441340551633e+01 1.6608136874835047e+01 1.2679329467206696e+01 
1643 1245 2 1.0279999999997300e+00 9.6600680163790776e+02 4.2000000000000000e+03 1.6320800334128322e+01 1.9703374584270065e+01 1.2979110882677853e+01 
1578 1180 2 1.0280002866064697e+00 -1.1548036438080621e+03 4.2000000000000000e+03 1.3421633155217046e+01 9.2555863529167759e-01 1.4708567316095957e+01 
430 32 2 1.0279997189127803e+00 2.6416198534406431e+02 4.2000000000000000e+03 1.2441815046253986e+01 2.2183812088148258e+00 1.3880239507850758e+01 
1805 1407 2 1.0280000120595556e+00 -6.0935126520882875e+02 4.2000000000000000e+03 1.4550512702648623e+01 2.9815820059969416e+00 1.5265219002344592e+01 
1771 1373 2 1.0280000186448908e+00 1.4100361535351401e+03 4.2000000000000000e+03 1.7438545099928156e+01 3.3161547811212198e+00 1.4585723043095149e+01 
1079 681 2 1.0279996167544323e+00 -4.9359148309973698e+03 4.2000000000000000e+03 1.2863129328430299e+01 5.2509908878591292e+00 1.3770587139277602e+01 
1970 1572 2 1.0280005791554219e+00 -1.6360862521708827e+02 4.2000000000000000e+03 1.4978078520910655e+01 5.2141453472611534e+00 1.3853074655879213e+01 
1089 691 2 1.0279999999999996e+00 1.5692040920650693e+03 4.2000000000000000e+03 2.5760229939330372e+00 7.6513619246327949e+00 1.4812437031486080e+01 
446 48 2 1.0279999943113700e+00 -1.4842326755932681e+03 4.2000000000000000e+03 1.2481358678125957e+01 1.0163486426218860e+01 1.4112039688332670e+01 
1938 1540 2 1.0280045505606747e+00 8.6283613162820609e+02 4.2000000000000000e+03 1.5766236123170980e+01 1.1231637650652722e+01 1.5046786919244141e+01 
1109 711 2 1.0278247761385979e+00 1.6027804403933890e+03 4.2000000000000000e+03 1.0805643214695158e+00 1.3917003968019882e+01 1.4474378365644538e+01 
578 180 2 1.0279954806805158e+00 -3.7087017597038493e+03 4.2000000000000000e+03 1.4872692652610510e+01 1.2704213020780040e+01 1.5051355798630800e+01 
1750 1352 2 1.0281737095913974e+00 9.4104728423808160e+02 4.2000000000000000e+03 7.8646480543797015e-01 1.5370667814675723e+01 1.5351178019004498e+01 
1810 1412 2 1.0279999999993834e+00 -2.3183453656185975e+03 4.2000000000000000e+03 1.1095381061990254e+01 1.6474946648269089e+01 1.4117794909079505e+01 
1323 925 2 1.0279999648398572e+00 2.7082575797822155e+03 4.2000000000000000e+03 1.6606519615143945e+01 2.3417134161534583e+00 1.6003064227796262e+01 
1969 1571 2 1.0280000131815552e+00 5.1743284907879001e+02 4.2000000000000000e+03 1.5592968860544579e+01 4.2985813354025035e+00 1.6074034911928827e+01 
1763 1365 2 1.0280044309694081e+00 -3.2158942299509804e+03 4.2000000000000000e+03 1.7397788239645049e+01 1.2387251676729923e+01 1.7165458177634349e+01 
1795 1397 2 1.0279953610892492e+00 1.5452238003437703e+03 4.2000000000000000e+03 1.7235581420108105e+01 1.3931990170747600e+01 1.6420883126688381e+01 
956 558 2 1.0280000000012053e+00 -2.4476890553646895e+03 4.2000000000000000e+03 1.2398991483083185e+01 1.5367443451673601e+01 1.7378004987842306e+01 
1674 1276 2 1.0281762263622720e+00 -5.4515613559019193e+03 4.2000000000000000e+03 2.9691828938935068e+00 1.6092573548155006e+01 1.6911714558848573e+01 
526 128 2 1.0278272929094725e+00 3.1864135227381025e+03 4.2000000000000000e+03 4.5216355556629528e+00 1.6531069709856371e+01 1.6306734736683566e+01 
602 204 2 1.0279999999998644e+00 -4.2668644706516934e+03 4.2000000000000000e+03 2.2695768324752410e+00 9.7897135790351335e+00 1.9095553028059026e+01 
1582 1184 2 1.0279805426841242e+00 -2.5907196945248052e+03 4.2000000000000000e+03 9.3379557185706226e+00 9.5541429847266812e+00 1.8840312091889100e+01 
1307 909 2 1.0280000000012053e+00 1.9678690054261443e+02 4.2000000000000000e+03 1.3764625382725425e+01 1.4360344182903829e+01 1.7674104067721206e+01 
802 404 2 1.0279999999999998e+00 3.6572562293792753e+03 4.2000000000000000e+03 1.9223856787869355e+01 1.8001069521896547e+01 1.9080067901256104e+01 
1580 1182 2 1.0280000000000011e+00 -5.0125393157969086e+02 4.2000000000000000e+03 1.8042305939643459e+01 7.7296387078090634e-01 2.1496269352258377e+01 
1623 1225 2 1.0280000000000011e+00 -5.2459095867455962e+03 4.2000000000000000e+03 1.9067700027267673e+01 1.2612993940621067e+00 2.0201288683718769e+01 
972 574 2 1.0280000000000891e+00 1.6256995265717505e+03 4.2000000000000000e+03 7.9761103158684001e+00 4.6902557771718678e+00 2.0092720983078721e+01 
1123 725 2 1.0280000000000891e+00 -5.4766132267745547e+02 4.2000000000000000e+03 9.5595530943410623e+00 5.2376071399012361e+00 1.9692727229196713e+01 
448 50 2 1.0279999999998644e+00 2.3306230615042114e+03 4.2000000000000000e+03 3.4701660114974042e+00 8.8260420477197847e+00 1.9868082867659229e+01 
1794 1396 2 1.0280202868509514e+00 2.3137333235990313e+03 4.2000000000000000e+03 1.0267214909744007e+01 9.9180899560012925e+00 2.0244259881739421e+01 
1272 874 2 1.0279999999999996e+00 1.3488601919044495e+03 4.2000000000000000e+03 1.7621742636753513e+01 1.2216704067810390e+01 2.0681590337260161e+01 
1603 1205 2 1.0279999999999996e+00 -6.9029534086340300e+02 4.2000000000000000e+03 1.7155153667309555e+01 1.3874760498265001e+01 2.0686402524461815e+01 
1601 1203 2 1.0279999999999998e+00 6.9687589999798165e+03 4.2000000000000000e+03 1.9872276435765425e+01 1.6796778161939191e+01 2.0127022451692138e+01 
776 378 2 1.0280000000018144e+00 1.7530366251246738e+02 4.2000000000000000e+03 1.0030769368326869e+01 1.9902854602116211e+01 2.0757028086443892e+01 
1804 1406 2 1.0279999999999951e+00 -5.1581460720966720e+02 4.2000000000000000e+03 4.0932352301887054e-01 7.7336036450871655e+00 2.3527049234508368e+01 
772 374 2 1.0279803711793267e+00 2.4461162300148035e+03 4.2000000000000000e+03 1.1762886563282452e+01 1.1737326788956272e+01 2.3415719577885852e+01 
1951 1553 2 1.0280201153461543e+00 -1.7047969730550824e+03 4.2000000000000000e+03 1.2308551162589465e+01 1.0926763408078378e+01 2.1997168173428445e+01 
1410 1012 2 1.0279999999999951e+00 -1.1415045951810630e+03 4.2000000000000000e+03 1.8935464112706009e+00 8.3176900092960668e+00 2.4177283874664734e+01 
781 383 2 1.0280000000446230e+00 1.7566534326440315e+03 4.2000000000000000e+03 7.2426803655675274e+00 1.8609725283746140e+01 2.5229238835119890e+01 
1092 694 2 1.0280035644672221e+00 1.4233679670777485e+03 4.2000000000000000e+03 1.7872667796479227e+01 1.8156122299211560e+01 2.4669239032405503e+01 
1269 871 2 1.0279957467736855e+00 2.5989452022771798e+02 4.2000000000000000e+03 1.8602660711028836e+01 1.9526929818318145e+01 2.5414164397235925e+01 
964 566 2 1.0279999999967944e+00 -2.1303980155720528e+03 4.2000000000000000e+03 7.4973586932433962e+00 2.9432343132499819e+00 2.6983414704212993e+01 
579 181 2 1.0279999999967944e+00 -4.0904706485436341e+03 4.2000000000000000e+03 7.5993423841227505e+00 4.4754594698855685e+00 2.6203180799335634e+01 
1427 1029 2 1.0279999999903309e+00 4.0012792021031498e+02 4.2000000000000000e+03 1.1606645093341109e+01 6.4914187039034807e+00 2.7377868140615330e+01 
782 384 2 1.0279999999903309e+00 -4.8864082532664534e+03 4.2000000000000000e+03 1.2124227024080161e+01 8.1342086240161571e+00 2.7362709857156929e+01 
632 234 2 1.0280000000004861e+00 -2.0302190560864344e+02 4.2000000000000000e+03 1.4249120752194335e+01 1.3322871662663816e+01 2.6453388554679240e+01 
460 62 2 1.0280000000004861e+00 -2.0078638237710607e+02 4.2000000000000000e+03 1.5771560485750127e+01 1.3944907342190412e+01 2.5941403768570776e+01 
1460 1062 2 1.0280000000000904e+00 -2.7159864439751800e+03 4.2000000000000000e+03 5.7097083018158068e-01 1.4795537100239409e+01 2.6400492510932196e+01 
1799 1401 2 1.0280000000000904e+00 -3.3419534343827409e+03 4.2000000000000000e+03 2.6900689318914356e-01 1.6489865663309118e+01 2.6470834896772406e+01 
2044 1646 2 1.0280038370916196e+00 5.8304252227330767e+02 4.2000000000000000e+03 1.9797661833769205e+01 1.6719104815170070e+01 2.6322755722062290e+01 
789 391 2 1.0280000000446230e+00 1.9408716872269551e+03 4.2000000000000000e+03 7.8615597123477983e+00 1.8291792483920773e+01 2.6804924920182557e+01 