LAMMPS data file via write_data, version 30 Jul 2016, timestep = 50000000

180 atoms
2 atom types

0.0000000000000000e+00 2.0000000000000000e+01 xlo xhi
0.0000000000000000e+00 2.0000000000000000e+01 ylo yhi
0.0000000000000000e+00 2.0000000000000000e+01 zlo zhi

Masses

1 3.896
2 4.31

Atoms # meso-molecular

159 1 2 1.0280000034775056e+00 -1.4980196293656357e+02 1.0000000000000000e+00 6.6396110347118906e+00 3.8735836943432805e-01 1.8356075540916275e+00 
158 1 2 1.0280000034775056e+00 -1.8399680774845777e+02 1.0000000000000000e+00 6.6396110347118906e+00 3.8735836943432805e-01 1.8356075540916275e+00 
4 1 2 1.0280000034775056e+00 -2.0484106290925456e+02 1.0000000000000000e+00 6.6396110347118906e+00 3.8735836943432805e-01 1.8356075540916275e+00 
5 1 2 1.0280000034775056e+00 -2.6877088754612799e+02 1.0000000000000000e+00 6.6396110347118906e+00 3.8735836943432805e-01 1.8356075540916275e+00 
1 1 2 1.0280000034775056e+00 -2.4057443550263514e+02 1.0000000000000000e+00 6.6396110347118977e+00 3.8735836943437779e-01 1.8356075540916277e+00 
78 1 2 1.0280000034775056e+00 -2.1403704956903584e+02 1.0000000000000000e+00 6.6396110347118906e+00 3.8735836943432805e-01 1.8356075540916275e+00 
165 1 2 1.0280000034775056e+00 -1.5956508068382792e+02 1.0000000000000000e+00 6.6396110347118906e+00 3.8735836943432805e-01 1.8356075540916275e+00 
58 1 2 1.0280000030537482e+00 -2.1355326009901165e+02 1.0000000000000000e+00 3.6496302207533278e+00 3.1776105043208420e+00 5.4699834846384096e-03 
22 1 2 1.0280000030548164e+00 -2.3583204838924797e+02 1.0000000000000000e+00 3.6496175396196033e+00 3.1776349834358548e+00 5.4581385649827303e-03 
145 1 2 1.0280000030549883e+00 -2.9608789252076417e+02 1.0000000000000000e+00 3.6496139406800285e+00 3.1776220440688911e+00 5.4530708789489275e-03 
151 1 2 1.0280000030551439e+00 -3.1907679218034644e+02 1.0000000000000000e+00 3.6496128642737387e+00 3.1776345475187862e+00 5.4529589251137824e-03 
53 1 2 1.0280000030550369e+00 -2.3433321121827902e+02 1.0000000000000000e+00 3.6496134771196829e+00 3.1776244319332383e+00 5.4527658591990574e-03 
109 1 2 1.0280000030551690e+00 -3.2028723540292333e+02 1.0000000000000000e+00 3.6496122957728967e+00 3.1776313362064066e+00 5.4520584337252737e-03 
16 1 2 1.0280000030562111e+00 -2.0128361534004028e+02 1.0000000000000000e+00 3.6496002169105570e+00 3.1776588912026180e+00 5.4411279652110331e-03 
156 1 2 1.0280007951426668e+00 -2.0736540903052281e+02 1.0000000000000000e+00 3.4325234133307627e+00 4.1508729836110545e+00 6.3580547382549391e+00 
162 1 2 1.0280007951429864e+00 -2.4592168386340219e+02 1.0000000000000000e+00 3.4325377140287490e+00 4.1508947811218464e+00 6.3580681762310656e+00 
126 1 2 1.0280007951427048e+00 -2.5820114076084161e+02 1.0000000000000000e+00 3.4325376921251953e+00 4.1508947484973637e+00 6.3580681565473158e+00 
121 1 2 1.0280007951433765e+00 -2.0538368234866311e+02 1.0000000000000000e+00 3.4325368934839733e+00 4.1508935665468378e+00 6.3580674479364330e+00 
157 1 2 1.0279992049024933e+00 -2.3670991867291366e+02 1.0000000000000000e+00 3.9253998989152650e+00 3.4838372732249101e+00 6.9207573144428940e+00 
89 1 2 1.0279992048569051e+00 -2.0185000668271917e+02 1.0000000000000000e+00 3.9206926923070520e+00 3.4816771444633030e+00 6.9223094324726944e+00 
88 1 2 1.0279992048569058e+00 -2.1951948497944267e+02 1.0000000000000000e+00 3.9206926923164089e+00 3.4816771444179064e+00 6.9223094324107750e+00 
52 1 2 1.0279992048569049e+00 -1.8005732357419083e+02 1.0000000000000000e+00 3.9206926923090357e+00 3.4816771444310506e+00 6.9223094324327272e+00 
153 1 2 1.0279999999914016e+00 -1.7120607159746871e+02 1.0000000000000000e+00 5.8700053959659240e+00 1.0771450463358836e+00 1.8553293461799644e+01 
161 1 2 1.0279999999913987e+00 -2.8234937318887648e+02 1.0000000000000000e+00 5.8700055309288057e+00 1.0771451603705129e+00 1.8553293430148894e+01 
160 1 2 1.0279999999914526e+00 -2.8166269290615173e+02 1.0000000000000000e+00 5.8700007520483020e+00 1.0771411029223905e+00 1.8553294502792703e+01 
146 1 2 1.0279999997316374e+00 -1.4838374424504036e+02 1.0000000000000000e+00 5.8858691153217295e+00 1.0816559890440487e+00 1.8530449396076282e+01 
101 1 2 1.0280000007318557e+00 -2.3772245024793222e+02 1.0000000000000000e+00 6.5210501687268980e+00 2.2756390261071519e-01 1.8646146916791022e+01 
143 1 2 1.0280000007318555e+00 -2.4248586829248006e+02 1.0000000000000000e+00 6.5210501668261722e+00 2.2756390127724696e-01 1.8646146916575265e+01 
150 1 2 1.0280000007319203e+00 -2.8786732202017947e+02 1.0000000000000000e+00 6.5210621288022086e+00 2.2757229555980477e-01 1.8646148267019012e+01 
115 1 2 1.0280000007318564e+00 -2.7555826869088617e+02 1.0000000000000000e+00 6.5210501850655556e+00 2.2756391407459375e-01 1.8646146918640557e+01 
35 1 2 1.0279999967151350e+00 -1.8173871911672614e+02 1.0000000000000000e+00 5.8198658276707969e+00 4.3770827484435637e+00 1.7776377378731048e+01 
111 1 2 1.0279999967151352e+00 -1.7012622292561349e+02 1.0000000000000000e+00 5.8198658276707658e+00 4.3770827484436019e+00 1.7776377378731063e+01 
104 1 2 1.0279999967151348e+00 -2.7493928372907516e+02 1.0000000000000000e+00 5.8198658276707453e+00 4.3770827484435806e+00 1.7776377378731024e+01 
26 1 2 1.0279999967151348e+00 -2.2844356354757383e+02 1.0000000000000000e+00 5.8198658276707453e+00 4.3770827484435806e+00 1.7776377378731024e+01 
73 1 2 1.0279999967151352e+00 -2.7205073142226371e+02 1.0000000000000000e+00 5.8198658276707658e+00 4.3770827484436019e+00 1.7776377378731063e+01 
98 1 2 1.0279999967151348e+00 -1.5385023605597661e+02 1.0000000000000000e+00 5.8198658276707320e+00 4.3770827484436365e+00 1.7776377378731070e+01 
67 1 2 1.0279999967151352e+00 -2.1756869296471382e+02 1.0000000000000000e+00 5.8198658276707658e+00 4.3770827484436019e+00 1.7776377378731063e+01 
8 1 2 1.0280000253278780e+00 -3.1483423670987963e+02 1.0000000000000000e+00 5.4703609716042989e-01 1.7064213073458152e+01 8.9440288633066700e+00 
2 1 2 1.0279999826792066e+00 -1.0745059812774949e+02 1.0000000000000000e+00 4.6549581543229452e+00 1.7778311521480600e+01 8.7723672620773510e+00 
42 1 2 1.0279999826792066e+00 -1.6593663669807421e+02 1.0000000000000000e+00 4.6549581543229452e+00 1.7778311521480600e+01 8.7723672620773510e+00 
139 1 2 1.0279999826792066e+00 -2.6614181530709766e+02 1.0000000000000000e+00 4.6549581543229452e+00 1.7778311521480600e+01 8.7723672620773510e+00 
169 1 2 1.0279999826792066e+00 -2.1886427560444537e+02 1.0000000000000000e+00 4.6549581543229452e+00 1.7778311521480600e+01 8.7723672620773510e+00 
71 1 2 1.0279999826792066e+00 -1.9538420799252856e+02 1.0000000000000000e+00 4.6549581543229452e+00 1.7778311521480600e+01 8.7723672620773510e+00 
107 1 2 1.0279999826792066e+00 -1.8567532861849068e+02 1.0000000000000000e+00 4.6549581543229452e+00 1.7778311521480600e+01 8.7723672620773510e+00 
133 1 2 1.0279999826792066e+00 -2.7154184869659673e+02 1.0000000000000000e+00 4.6549581543229452e+00 1.7778311521480600e+01 8.7723672620773510e+00 
140 1 2 1.0279999999997884e+00 -1.7325396271956811e+02 1.0000000000000000e+00 8.0232702214545313e+00 6.6940431346598688e+00 3.3115055167082730e+00 
141 1 2 1.0279999999997884e+00 -1.9418533098145809e+02 1.0000000000000000e+00 8.0232702214545313e+00 6.6940431346598688e+00 3.3115055167082730e+00 
147 1 2 1.0279999999997884e+00 -1.7586227022225560e+02 1.0000000000000000e+00 8.0232702214545313e+00 6.6940431346598688e+00 3.3115055167082730e+00 
34 1 2 1.0279999999997884e+00 -2.4331633655372036e+02 1.0000000000000000e+00 8.0232702214545313e+00 6.6940431346598688e+00 3.3115055167082730e+00 
152 1 2 1.0279999999997884e+00 -1.8220656192098465e+02 1.0000000000000000e+00 8.0232702214488540e+00 6.6940431346573979e+00 3.3115055167137588e+00 
37 1 2 1.0279999999997884e+00 -2.4669008727274291e+02 1.0000000000000000e+00 8.0232702214545313e+00 6.6940431346598688e+00 3.3115055167082730e+00 
72 1 2 1.0279999999997884e+00 -2.1852433170640450e+02 1.0000000000000000e+00 8.0232702214529397e+00 6.6940431346669937e+00 3.3115055167025558e+00 
86 1 2 1.0279999999997904e+00 -2.3942016860679462e+02 1.0000000000000000e+00 9.2702772287259041e+00 8.7474577148577470e+00 5.5248226650046579e+00 
80 1 2 1.0279999999997871e+00 -2.2354998143202829e+02 1.0000000000000000e+00 9.2702772287251562e+00 8.7474577148580490e+00 5.5248226650048755e+00 
122 1 2 1.0279999999997871e+00 -2.4564633569105422e+02 1.0000000000000000e+00 9.2702772287251562e+00 8.7474577148580490e+00 5.5248226650048755e+00 
81 1 2 1.0279999999997871e+00 -2.4715963043253993e+02 1.0000000000000000e+00 9.2702772287251562e+00 8.7474577148580490e+00 5.5248226650048755e+00 
116 1 2 1.0279999999997904e+00 -2.4133241305034446e+02 1.0000000000000000e+00 9.2702772287259041e+00 8.7474577148577470e+00 5.5248226650046579e+00 
117 1 2 1.0279999999997904e+00 -2.4204715774436949e+02 1.0000000000000000e+00 9.2702772287259041e+00 8.7474577148577470e+00 5.5248226650046579e+00 
123 1 2 1.0279999999997904e+00 -2.1699603943503277e+02 1.0000000000000000e+00 9.2702772287259041e+00 8.7474577148577470e+00 5.5248226650046579e+00 
30 1 2 1.0280000109834069e+00 -1.7229757670356653e+02 1.0000000000000000e+00 8.4693430020629847e+00 1.0898663845541017e+00 7.0096890800377247e+00 
41 1 2 1.0280000109834067e+00 -2.4489213829077207e+02 1.0000000000000000e+00 8.4693430020805991e+00 1.0898663845994319e+00 7.0096890800272780e+00 
100 1 2 1.0280000109834067e+00 -1.6167781674117396e+02 1.0000000000000000e+00 8.4693430020805991e+00 1.0898663845994319e+00 7.0096890800272780e+00 
36 1 2 1.0280000109834069e+00 -2.0007977955792498e+02 1.0000000000000000e+00 8.4693430020629847e+00 1.0898663845541017e+00 7.0096890800377247e+00 
64 1 2 1.0280000109834067e+00 -1.6171137545006647e+02 1.0000000000000000e+00 8.4693430020660792e+00 1.0898663845963845e+00 7.0096890800226790e+00 
11 1 2 1.0280000109834069e+00 -1.8806880844497792e+02 1.0000000000000000e+00 8.4693430020629847e+00 1.0898663845541017e+00 7.0096890800377247e+00 
25 1 2 1.0280000109834067e+00 -1.5046726518121719e+02 1.0000000000000000e+00 8.4693430020805991e+00 1.0898663845994319e+00 7.0096890800272780e+00 
168 1 2 1.0279999715917396e+00 -1.9169031645673036e+02 1.0000000000000000e+00 7.3330680018294707e+00 2.1905120176639481e+00 9.8676205093878320e+00 
23 1 2 1.0279999715917396e+00 -2.2026272869823038e+02 1.0000000000000000e+00 7.3330680018294743e+00 2.1905120176639423e+00 9.8676205093878355e+00 
48 1 2 1.0279999715917396e+00 -2.1504847175919531e+02 1.0000000000000000e+00 7.3330680018294743e+00 2.1905120176639423e+00 9.8676205093878355e+00 
17 1 2 1.0279999715917394e+00 -2.8198355436776717e+02 1.0000000000000000e+00 7.3330680018294565e+00 2.1905120176639437e+00 9.8676205093878284e+00 
93 1 2 1.0279999715917396e+00 -1.5448074228033840e+02 1.0000000000000000e+00 7.3330680018294743e+00 2.1905120176639423e+00 9.8676205093878355e+00 
29 1 2 1.0279999715917396e+00 -2.0490877979159632e+02 1.0000000000000000e+00 7.3330680018294743e+00 2.1905120176639423e+00 9.8676205093878355e+00 
24 1 2 1.0279999715917396e+00 -1.9197473742454775e+02 1.0000000000000000e+00 7.3330680018294743e+00 2.1905120176639423e+00 9.8676205093878355e+00 
20 1 2 1.0280026743067989e+00 -1.8291740310023880e+02 1.0000000000000000e+00 1.1997012580221535e+01 1.4688175542499504e+01 8.6029113622827023e+00 
15 1 2 1.0280026743067994e+00 -1.8068147071274541e+02 1.0000000000000000e+00 1.1997012580221554e+01 1.4688175542499506e+01 8.6029113622827200e+00 
21 1 2 1.0280026743067989e+00 -2.1922298613125650e+02 1.0000000000000000e+00 1.1997012580221535e+01 1.4688175542499504e+01 8.6029113622827023e+00 
135 1 2 1.0280026743067989e+00 -2.1202427277692681e+02 1.0000000000000000e+00 1.1997012580221535e+01 1.4688175542499504e+01 8.6029113622827023e+00 
74 1 2 1.0280026743067989e+00 -1.6947428367930289e+02 1.0000000000000000e+00 1.1997012580221529e+01 1.4688175542499508e+01 8.6029113622826969e+00 
103 1 2 1.0280026743067989e+00 -2.1648333755056655e+02 1.0000000000000000e+00 1.1997012580221535e+01 1.4688175542499504e+01 8.6029113622827023e+00 
142 1 2 1.0280026743067989e+00 -1.8343730136834898e+02 1.0000000000000000e+00 1.1997012580221535e+01 1.4688175542499504e+01 8.6029113622827023e+00 
171 1 2 1.0280000220708709e+00 -2.5954274093142459e+02 1.0000000000000000e+00 7.7915247696266068e+00 1.7302154050467148e+01 7.9942050105630829e+00 
27 1 2 1.0280000220708794e+00 -2.4146166954338057e+02 1.0000000000000000e+00 7.7915247689132601e+00 1.7302154055201321e+01 7.9942050047893343e+00 
28 1 2 1.0280000220708581e+00 -2.2402415017905949e+02 1.0000000000000000e+00 7.7915247709968192e+00 1.7302154044224967e+01 7.9942050199078691e+00 
63 1 2 1.0280000220708581e+00 -2.0973548641358889e+02 1.0000000000000000e+00 7.7915247709968192e+00 1.7302154044224967e+01 7.9942050199078691e+00 
177 1 2 1.0280000220709142e+00 -2.3055953383509225e+02 1.0000000000000000e+00 7.7915247702957124e+00 1.7302154074496915e+01 7.9942049985492769e+00 
178 1 2 1.0280000220708794e+00 -2.0153562618591323e+02 1.0000000000000000e+00 7.7915247689132601e+00 1.7302154055201321e+01 7.9942050047893343e+00 
172 1 2 1.0280000220708581e+00 -1.8951944906499645e+02 1.0000000000000000e+00 7.7915247709968254e+00 1.7302154044224967e+01 7.9942050199078922e+00 
31 1 2 1.0279973266233529e+00 -1.9618091739173866e+02 1.0000000000000000e+00 9.6600001725688820e+00 1.4903268378994820e+01 1.0885889715275427e+01 
102 1 2 1.0279973266233526e+00 -2.6026915460973908e+02 1.0000000000000000e+00 9.6600001725688625e+00 1.4903268378994817e+01 1.0885889715275404e+01 
61 1 2 1.0279973266239124e+00 -2.1037727576225546e+02 1.0000000000000000e+00 9.6600000469006400e+00 1.4903268257168271e+01 1.0885889579003575e+01 
60 1 2 1.0279973266233529e+00 -1.9101676204238555e+02 1.0000000000000000e+00 9.6600001725688820e+00 1.4903268378994820e+01 1.0885889715275427e+01 
7 1 2 1.0279973266233529e+00 -2.8616394288425352e+02 1.0000000000000000e+00 9.6600001725688820e+00 1.4903268378994820e+01 1.0885889715275427e+01 
59 1 2 1.0279973266233529e+00 -2.6100457514019729e+02 1.0000000000000000e+00 9.6600001725688820e+00 1.4903268378994820e+01 1.0885889715275427e+01 
55 1 2 1.0279973266233529e+00 -2.0615350918945609e+02 1.0000000000000000e+00 9.6600001725688820e+00 1.4903268378994820e+01 1.0885889715275427e+01 
166 1 2 1.0279996374955709e+00 -3.0104409363716940e+02 1.0000000000000000e+00 1.2756110216202240e+01 1.4189937320823310e+01 1.2722109992381583e+01 
130 1 2 1.0279996374955604e+00 -2.3863959355980842e+02 1.0000000000000000e+00 1.2756110216052646e+01 1.4189937320746951e+01 1.2722109989515296e+01 
131 1 2 1.0279996374955622e+00 -3.0619287748796876e+02 1.0000000000000000e+00 1.2756110215988606e+01 1.4189937320711993e+01 1.2722109988265458e+01 
137 1 2 1.0279996374955704e+00 -2.8786507414018456e+02 1.0000000000000000e+00 1.2756110216221151e+01 1.4189937320835920e+01 1.2722109992773371e+01 
136 1 2 1.0279996374955629e+00 -2.3321535582489520e+02 1.0000000000000000e+00 1.2756110216000060e+01 1.4189937320719144e+01 1.2722109988497900e+01 
47 1 2 1.0280003118110899e+00 -2.1728449632480596e+02 1.0000000000000000e+00 1.1339000001191121e+01 1.5242904008468068e+01 1.5440130627271413e+01 
32 1 2 1.0280003118110899e+00 -2.2002496722532209e+02 1.0000000000000000e+00 1.1339000001191108e+01 1.5242904008468154e+01 1.5440130627271380e+01 
79 1 2 1.0280003118110899e+00 -2.6718155682297333e+02 1.0000000000000000e+00 1.1339000001191140e+01 1.5242904008468097e+01 1.5440130627271422e+01 
108 1 2 1.0280003118110899e+00 -2.3682270095253429e+02 1.0000000000000000e+00 1.1339000001191108e+01 1.5242904008468154e+01 1.5440130627271380e+01 
14 1 2 1.0280003118110899e+00 -3.1260876976341672e+02 1.0000000000000000e+00 1.1339000001191140e+01 1.5242904008468097e+01 1.5440130627271422e+01 
12 1 2 1.0280003118110899e+00 -2.5972242497786561e+02 1.0000000000000000e+00 1.1339000001191108e+01 1.5242904008468154e+01 1.5440130627271380e+01 
54 1 2 1.0280003118110899e+00 -2.0605458417841973e+02 1.0000000000000000e+00 1.1339000001191108e+01 1.5242904008468154e+01 1.5440130627271380e+01 
76 1 2 1.0280000000001264e+00 -1.2326551255839911e+02 1.0000000000000000e+00 1.7245082421444955e+01 5.4941293238807489e+00 7.8533864117188905e+00 
38 1 2 1.0280000000001264e+00 -1.6121365863723349e+02 1.0000000000000000e+00 1.7245082421442810e+01 5.4941293238761570e+00 7.8533864117174010e+00 
106 1 2 1.0280000000001264e+00 -1.3913082865303278e+02 1.0000000000000000e+00 1.7245082421442810e+01 5.4941293238761570e+00 7.8533864117174010e+00 
105 1 2 1.0280000000001264e+00 -1.5831247457045816e+02 1.0000000000000000e+00 1.7245082421442810e+01 5.4941293238761570e+00 7.8533864117174010e+00 
75 1 2 1.0280000000001264e+00 -1.5140367399293922e+02 1.0000000000000000e+00 1.7245082421442810e+01 5.4941293238761570e+00 7.8533864117174010e+00 
68 1 2 1.0280000000001264e+00 -2.4914252809341323e+02 1.0000000000000000e+00 1.7245082421442810e+01 5.4941293238761570e+00 7.8533864117174010e+00 
39 1 2 1.0280000000001264e+00 -1.7159035965950108e+02 1.0000000000000000e+00 1.7245082421444955e+01 5.4941293238807489e+00 7.8533864117188905e+00 
138 1 2 1.0280000000001195e+00 -1.9253456333111188e+02 1.0000000000000000e+00 1.5712222018297741e+01 5.2770951625157627e+00 1.0729763624555352e+01 
132 1 2 1.0280000000001317e+00 -2.0613736562207242e+02 1.0000000000000000e+00 1.5712222018319563e+01 5.2770951625179867e+00 1.0729763624566925e+01 
127 1 2 1.0280000000001317e+00 -1.8423117123829729e+02 1.0000000000000000e+00 1.5712222018319563e+01 5.2770951625179867e+00 1.0729763624566925e+01 
148 1 2 1.0280000000001195e+00 -1.9231921955856825e+02 1.0000000000000000e+00 1.5712222018297741e+01 5.2770951625157627e+00 1.0729763624555352e+01 
174 1 2 1.0280000000001195e+00 -1.8071305035587869e+02 1.0000000000000000e+00 1.5712222018297741e+01 5.2770951625157627e+00 1.0729763624555352e+01 
92 1 2 1.0280000000001317e+00 -2.1269680297508381e+02 1.0000000000000000e+00 1.5712222018319563e+01 5.2770951625179867e+00 1.0729763624566925e+01 
87 1 2 1.0280000000001317e+00 -2.0797698767850682e+02 1.0000000000000000e+00 1.5712222018319563e+01 5.2770951625179867e+00 1.0729763624566925e+01 
175 1 2 1.0279997726077381e+00 -1.6079661364639003e+02 1.0000000000000000e+00 1.9738886614838972e+01 1.6949622654230247e+01 7.9681038577597176e+00 
91 1 2 1.0279997726077379e+00 -1.5794180921259476e+02 1.0000000000000000e+00 1.9738886614835014e+01 1.6949622654230978e+01 7.9681038577599663e+00 
70 1 2 1.0279997726077372e+00 -1.7319078662336892e+02 1.0000000000000000e+00 1.9738886614851111e+01 1.6949622654227852e+01 7.9681038577590293e+00 
85 1 2 1.0279997726077366e+00 -1.3061476553610012e+02 1.0000000000000000e+00 1.9738886614839036e+01 1.6949622654225184e+01 7.9681038577623076e+00 
90 1 2 1.0279997726077370e+00 -1.3629755045731093e+02 1.0000000000000000e+00 1.9738886614842997e+01 1.6949622654226278e+01 7.9681038577611201e+00 
110 1 2 1.0280001624814932e+00 -1.7506529984559137e+02 1.0000000000000000e+00 1.9777607594080170e+01 1.8008899773786400e+01 9.7481698977950462e+00 
43 1 2 1.0280001624815012e+00 -2.3172321271172572e+02 1.0000000000000000e+00 1.9777607590440130e+01 1.8008899796012475e+01 9.7481698793545224e+00 
49 1 2 1.0280001624815052e+00 -2.0805772143074344e+02 1.0000000000000000e+00 1.9777607593023625e+01 1.8008899780300180e+01 9.7481698923899458e+00 
96 1 2 1.0280001624814978e+00 -2.6942705890807702e+02 1.0000000000000000e+00 1.9777607594020527e+01 1.8008899774221206e+01 9.7481698974334741e+00 
176 1 2 1.0280001624814816e+00 -1.4269707528200379e+02 1.0000000000000000e+00 1.9777607594547863e+01 1.8008899770960600e+01 9.7481699001392528e+00 
144 1 2 1.0280000148674906e+00 -2.7448523484603373e+02 1.0000000000000000e+00 1.5023787152969660e+01 1.2453459845730114e+01 1.3010297589516329e+01 
51 1 2 1.0280000148674899e+00 -1.7937006389761635e+02 1.0000000000000000e+00 1.5023787153019841e+01 1.2453459845669821e+01 1.3010297589561842e+01 
179 1 2 1.0280000148674902e+00 -2.7579398354961654e+02 1.0000000000000000e+00 1.5023787153005099e+01 1.2453459845687501e+01 1.3010297589548534e+01 
180 1 2 1.0280000148674902e+00 -2.8193601547488993e+02 1.0000000000000000e+00 1.5023787153004490e+01 1.2453459845688062e+01 1.3010297589548287e+01 
66 1 2 1.0279999714446439e+00 -1.6075938421922268e+02 1.0000000000000000e+00 1.6462785813543697e+01 1.3237807491469544e+01 1.3188556997949620e+01 
65 1 2 1.0279999714455001e+00 -1.5928843270231090e+02 1.0000000000000000e+00 1.6462755381634260e+01 1.3237822137607777e+01 1.3188500877507362e+01 
62 1 2 1.0279999714510506e+00 -2.2490140090611692e+02 1.0000000000000000e+00 1.6462555109233364e+01 1.3237919758003018e+01 1.3188132540554076e+01 
164 1 2 1.0279999409763791e+00 -2.8738857013966327e+02 1.0000000000000000e+00 1.4993019963851614e+01 1.4283347364430165e+01 1.2254441293196246e+01 
128 1 2 1.0280003239141087e+00 -2.3937064387437573e+02 1.0000000000000000e+00 1.3873994549155443e+01 1.5658886244387608e+01 1.1601862515174028e+01 
129 1 2 1.0280003239141104e+00 -1.8530364118514865e+02 1.0000000000000000e+00 1.3873994549155400e+01 1.5658886244387464e+01 1.1601862515173925e+01 
13 1 2 1.0280003239141093e+00 -1.0297574847992358e+02 1.0000000000000000e+00 1.3873994549155361e+01 1.5658886244387684e+01 1.1601862515174076e+01 
134 1 2 1.0280003239141071e+00 -2.9410938101458174e+02 1.0000000000000000e+00 1.3873994549155533e+01 1.5658886244387199e+01 1.1601862515173739e+01 
19 1 2 1.0280003239141080e+00 -1.0520607989933610e+02 1.0000000000000000e+00 1.3873994549155528e+01 1.5658886244387450e+01 1.1601862515173922e+01 
10 1 2 1.0279993482280434e+00 -2.3579885842099546e+02 1.0000000000000000e+00 1.7204411433680846e+01 1.6663358166082237e+01 1.1234091975165095e+01 
9 1 2 1.0279993482272527e+00 -2.3225068107643764e+02 1.0000000000000000e+00 1.7204411444688994e+01 1.6663358148740770e+01 1.1234091975695033e+01 
3 1 2 1.0279993482294612e+00 -2.5557663731478385e+02 1.0000000000000000e+00 1.7204411414007076e+01 1.6663358197237283e+01 1.1234091974325674e+01 
46 1 2 1.0279993482281531e+00 -2.9737181634494067e+02 1.0000000000000000e+00 1.7204411432143662e+01 1.6663358168563573e+01 1.1234091975130939e+01 
69 1 2 1.0279993482288439e+00 -1.6808038320125476e+02 1.0000000000000000e+00 1.7204411422506141e+01 1.6663358183940165e+01 1.1234091974796366e+01 
40 1 2 1.0279993482302408e+00 -2.9182896469590469e+02 1.0000000000000000e+00 1.7204411403088670e+01 1.6663358214599800e+01 1.1234091973908489e+01 
45 1 2 1.0279993482281531e+00 -2.8331693612315161e+02 1.0000000000000000e+00 1.7204411432143658e+01 1.6663358168563626e+01 1.1234091975130966e+01 
95 1 2 1.0279999891656046e+00 -2.1740538101960007e+02 1.0000000000000000e+00 1.6479614558109034e+01 1.2647216608505609e+01 1.3948915917818614e+01 
94 1 2 1.0279999884835775e+00 -2.1744525916105172e+02 1.0000000000000000e+00 1.6479340870538348e+01 1.2643709937286499e+01 1.3941140083013023e+01 
112 1 2 1.0280000884567968e+00 -1.5237368991772914e+02 1.0000000000000000e+00 1.5180526428116300e+01 1.3124014269821032e+01 1.5993746313271171e+01 
18 1 2 1.0280000884567966e+00 -1.9673806924611634e+02 1.0000000000000000e+00 1.5180526459982985e+01 1.3124014207221935e+01 1.5993746318364460e+01 
50 1 2 1.0280000884567948e+00 -2.9418315362784682e+02 1.0000000000000000e+00 1.5180526451913751e+01 1.3124014239821355e+01 1.5993746324563606e+01 
33 1 2 1.0280000884567904e+00 -2.0949753685457742e+02 1.0000000000000000e+00 1.5180526448776883e+01 1.3124014245319874e+01 1.5993746323765560e+01 
163 1 2 1.0280000884567970e+00 -1.8739838038240578e+02 1.0000000000000000e+00 1.5180526428118526e+01 1.3124014269818799e+01 1.5993746313272485e+01 
44 1 2 1.0280000884567908e+00 -2.2937203289640968e+02 1.0000000000000000e+00 1.5180526448776815e+01 1.3124014245319877e+01 1.5993746323765489e+01 
77 1 2 1.0280000529352278e+00 -1.1149872893770514e+02 1.0000000000000000e+00 1.4649562417602295e+01 1.5767450337301931e+01 1.4244142389728420e+01 
82 1 2 1.0280000529352269e+00 -9.5550903391876361e+01 1.0000000000000000e+00 1.4649562417557490e+01 1.5767450337306300e+01 1.4244142389710110e+01 
83 1 2 1.0280000529352284e+00 -9.4060664411295718e+01 1.0000000000000000e+00 1.4649562417469431e+01 1.5767450337316587e+01 1.4244142389671934e+01 
97 1 2 1.0280000529333819e+00 -2.5682090212380439e+02 1.0000000000000000e+00 1.4649549597842409e+01 1.5767452052099738e+01 1.4244136554491298e+01 
173 1 2 1.0279996549891635e+00 -2.6082151016672708e+02 1.0000000000000000e+00 1.5070651722420637e+01 1.5856982864107630e+01 1.4014676119520338e+01 
167 1 2 1.0280000967012957e+00 -2.5045913453713166e+02 1.0000000000000000e+00 1.4520536456267353e+01 1.5429046068150004e+01 1.4487626489200347e+01 
57 1 2 1.0280000124535491e+00 -2.1356509171257315e+02 1.0000000000000000e+00 1.7039322036186441e+01 1.5035264358059106e+01 1.6329890381099091e+01 
170 1 2 1.0280000124536843e+00 -2.5222564680946476e+02 1.0000000000000000e+00 1.7039333126406479e+01 1.5035261426113671e+01 1.6329887509086110e+01 
56 1 2 1.0280000124537461e+00 -2.0517387607640524e+02 1.0000000000000000e+00 1.7039338555859548e+01 1.5035259989004047e+01 1.6329886102779358e+01 
99 1 2 1.0280000124535551e+00 -1.6998893326401924e+02 1.0000000000000000e+00 1.7039322241980511e+01 1.5035264303705700e+01 1.6329890327812375e+01 
124 1 2 1.0279999160445459e+00 -2.4624822778051021e+02 1.0000000000000000e+00 1.7472510311767817e+01 1.5817580636196341e+01 1.4882927606330215e+01 
154 1 2 1.0279999160397875e+00 -2.6826697238728298e+02 1.0000000000000000e+00 1.7472508041435418e+01 1.5817576012671164e+01 1.4882922255204985e+01 
118 1 2 1.0279999160398621e+00 -2.1089624730243821e+02 1.0000000000000000e+00 1.7472508060095695e+01 1.5817576054131358e+01 1.4882922301571949e+01 
155 1 2 1.0279999160397282e+00 -2.6987695149423320e+02 1.0000000000000000e+00 1.7472508013524354e+01 1.5817575950115719e+01 1.4882922185478531e+01 
125 1 2 1.0280000548948185e+00 -1.9875019935658565e+02 1.0000000000000000e+00 1.7672785562337442e+01 1.5918029679906635e+01 1.5596341959401650e+01 
6 1 2 1.0279998521009099e+00 -2.0071946813732183e+02 1.0000000000000000e+00 1.6910154574807049e+01 1.0747967913015867e+01 1.7344230617395436e+01 
149 1 2 1.0279998521009099e+00 -1.9214116132454438e+02 1.0000000000000000e+00 1.6910154574807056e+01 1.0747967913015858e+01 1.7344230617395411e+01 
114 1 2 1.0279998521009099e+00 -3.0528130293978029e+02 1.0000000000000000e+00 1.6910154574807049e+01 1.0747967913015867e+01 1.7344230617395436e+01 
120 1 2 1.0279998521009099e+00 -2.1708438401240321e+02 1.0000000000000000e+00 1.6910154574807020e+01 1.0747967913015851e+01 1.7344230617395443e+01 
113 1 2 1.0279998521009097e+00 -2.9483082853967966e+02 1.0000000000000000e+00 1.6910154574807066e+01 1.0747967913015877e+01 1.7344230617395436e+01 
84 1 2 1.0279998521009099e+00 -2.1432273136830011e+02 1.0000000000000000e+00 1.6910154574807049e+01 1.0747967913015867e+01 1.7344230617395436e+01 
119 1 2 1.0279998521009099e+00 -2.8778287248013845e+02 1.0000000000000000e+00 1.6910154574807020e+01 1.0747967913015851e+01 1.7344230617395443e+01 

Velocities

159 3.1434712922754687e-01 -2.1246350730888613e-01 1.5831459488304004e-02
158 3.1434712922754687e-01 -2.1246350730888613e-01 1.5831459488304004e-02
4 3.1434712922754687e-01 -2.1246350730888613e-01 1.5831459488304004e-02
5 3.1434712922754687e-01 -2.1246350730888613e-01 1.5831459488304004e-02
1 3.1434712922754687e-01 -2.1246350730888613e-01 1.5831459488303959e-02
78 3.1434712922754687e-01 -2.1246350730888613e-01 1.5831459488304004e-02
165 3.1434712922754687e-01 -2.1246350730888613e-01 1.5831459488304004e-02
58 3.1435644558443526e-01 -2.1245901797085126e-01 1.5837375914868852e-02
22 3.1435644556162434e-01 -2.1245901794648814e-01 1.5837375921206695e-02
145 3.1435644555310893e-01 -2.1245901795991232e-01 1.5837375916725679e-02
151 3.1435644555226078e-01 -2.1245901794717942e-01 1.5837375920536887e-02
53 3.1435644555243020e-01 -2.1245901795749439e-01 1.5837375917426795e-02
109 3.1435644555077125e-01 -2.1245901795049585e-01 1.5837375919482682e-02
16 3.1435644552949005e-01 -2.1245901792294489e-01 1.5837375926820885e-02
156 3.1199535523588057e-01 -2.1056933403570438e-01 1.8659176940205857e-02
162 3.1199535766438352e-01 -2.1056933033498193e-01 1.8659179222415122e-02
126 3.1199535766102438e-01 -2.1056933034092959e-01 1.8659179219396773e-02
121 3.1199535752513136e-01 -2.1056933054128091e-01 1.8659179098789808e-02
157 3.1199475963994516e-01 -2.1056960911507833e-01 1.8659378571416672e-02
89 3.1199555749619901e-01 -2.1056924053528037e-01 1.8659113507326758e-02
88 3.1199555749619479e-01 -2.1056924053527346e-01 1.8659113507338433e-02
52 3.1199555749620111e-01 -2.1056924053528012e-01 1.8659113507335456e-02
153 3.1435070579123020e-01 -2.1246168682231625e-01 1.5831542500132197e-02
161 3.1435070579133312e-01 -2.1246168682232092e-01 1.5831542500206568e-02
160 3.1435070578795660e-01 -2.1246168682238240e-01 1.5831542497729761e-02
146 3.1435071348826699e-01 -2.1246169139833437e-01 1.5831546528467386e-02
101 3.1435019171819678e-01 -2.1246205709908852e-01 1.5831072332950794e-02
143 3.1435019171819778e-01 -2.1246205709908855e-01 1.5831072332950998e-02
150 3.1435019172228618e-01 -2.1246205710076996e-01 1.5831072331555344e-02
115 3.1435019171820078e-01 -2.1246205709908830e-01 1.5831072332950190e-02
35 3.1435663559151938e-01 -2.1245981539753661e-01 1.5837404556250139e-02
111 3.1435663559151938e-01 -2.1245981539753658e-01 1.5837404556250090e-02
104 3.1435663559151994e-01 -2.1245981539753639e-01 1.5837404556249969e-02
26 3.1435663559151994e-01 -2.1245981539753639e-01 1.5837404556249969e-02
73 3.1435663559151938e-01 -2.1245981539753658e-01 1.5837404556250094e-02
98 3.1435663559151938e-01 -2.1245981539753661e-01 1.5837404556250233e-02
67 3.1435663559151938e-01 -2.1245981539753658e-01 1.5837404556250094e-02
8 3.1693451815993906e-01 -2.1144999948990087e-01 -3.0348340800289764e-04
2 3.1461449795979102e-01 -2.1143466034569361e-01 4.5084411671699855e-03
42 3.1461449795979102e-01 -2.1143466034569361e-01 4.5084411671699855e-03
139 3.1461449795979102e-01 -2.1143466034569361e-01 4.5084411671699855e-03
169 3.1461449795979102e-01 -2.1143466034569361e-01 4.5084411671699855e-03