LAMMPS data file via write_data, version 30 Jul 2016, timestep = 50400000

180 atoms
2 atom types

0.0000000000000000e+00 2.0000000000000000e+01 xlo xhi
0.0000000000000000e+00 2.0000000000000000e+01 ylo yhi
0.0000000000000000e+00 2.0000000000000000e+01 zlo zhi

Masses

1 3.896
2 4.31

Atoms # meso-molecular

117 1 2 1.0280000000001641e+00 -2.4204715774436949e+02 1.0000000000000000e+00 1.4222561912983358e+00 4.7612264986029079e-01 6.1540065928805907e+00 
123 1 2 1.0280000000001641e+00 -2.1699603943503277e+02 1.0000000000000000e+00 1.4222561912983358e+00 4.7612264986029079e-01 6.1540065928805907e+00 
116 1 2 1.0280000000001641e+00 -2.4133241305034446e+02 1.0000000000000000e+00 1.4222561912983358e+00 4.7612264986029079e-01 6.1540065928805907e+00 
81 1 2 1.0280000000001639e+00 -2.4715963043253993e+02 1.0000000000000000e+00 1.4222561912975900e+00 4.7612264986057279e-01 6.1540065928807559e+00 
122 1 2 1.0280000000001639e+00 -2.4564633569105422e+02 1.0000000000000000e+00 1.4222561912975900e+00 4.7612264986057279e-01 6.1540065928807559e+00 
80 1 2 1.0280000000001639e+00 -2.2354998143202829e+02 1.0000000000000000e+00 1.4222561912975900e+00 4.7612264986057279e-01 6.1540065928807559e+00 
86 1 2 1.0280000000001641e+00 -2.3942016860679462e+02 1.0000000000000000e+00 1.4222561912983358e+00 4.7612264986029079e-01 6.1540065928805907e+00 
142 1 2 1.0280045792808390e+00 -1.8343729992340033e+02 1.0000000000000000e+00 4.6212608833863484e+00 6.1717240886254645e+00 8.6891177268984077e+00 
103 1 2 1.0280045792808390e+00 -2.1648333610561789e+02 1.0000000000000000e+00 4.6212608833863484e+00 6.1717240886254645e+00 8.6891177268984077e+00 
74 1 2 1.0280045792808390e+00 -1.6947428223435423e+02 1.0000000000000000e+00 4.6212608833863422e+00 6.1717240886254681e+00 8.6891177268984023e+00 
135 1 2 1.0280045792808390e+00 -2.1202427133197816e+02 1.0000000000000000e+00 4.6212608833863484e+00 6.1717240886254645e+00 8.6891177268984077e+00 
21 1 2 1.0280045792808390e+00 -2.1922298468630785e+02 1.0000000000000000e+00 4.6212608833863484e+00 6.1717240886254645e+00 8.6891177268984077e+00 
15 1 2 1.0280045792808388e+00 -1.8068146926779676e+02 1.0000000000000000e+00 4.6212608833863724e+00 6.1717240886254663e+00 8.6891177268984272e+00 
20 1 2 1.0280045792808390e+00 -1.8291740165529015e+02 1.0000000000000000e+00 4.6212608833863484e+00 6.1717240886254645e+00 8.6891177268984077e+00 
178 1 2 1.0280001958599649e+00 -2.0153562499535695e+02 1.0000000000000000e+00 3.7620097328481694e-01 8.8448248864318924e+00 8.1751086815603582e+00 
171 1 2 1.0280001958599643e+00 -2.5954273974049892e+02 1.0000000000000000e+00 3.7620097399233166e-01 8.8448248816866659e+00 8.1751086873295407e+00 
27 1 2 1.0280001958599649e+00 -2.4146166835282429e+02 1.0000000000000000e+00 3.7620097328481694e-01 8.8448248864318924e+00 8.1751086815603582e+00 
28 1 2 1.0280001958599632e+00 -2.2402414898850384e+02 1.0000000000000000e+00 3.7620097535521663e-01 8.8448248754298291e+00 8.1751086966710744e+00 
63 1 2 1.0280001958599632e+00 -2.0973548522303324e+02 1.0000000000000000e+00 3.7620097535521663e-01 8.8448248754298291e+00 8.1751086966710744e+00 
177 1 2 1.0280001958599632e+00 -2.3055953264453490e+02 1.0000000000000000e+00 3.7620097469562580e-01 8.8448249057720449e+00 8.1751086753691276e+00 
172 1 2 1.0280001958599634e+00 -1.8951944787444080e+02 1.0000000000000000e+00 3.7620097535522218e-01 8.8448248754298291e+00 8.1751086966710922e+00 
31 1 2 1.0279954362186614e+00 -1.9618091594395395e+02 1.0000000000000000e+00 2.2964868596382919e+00 6.3872614256652529e+00 1.0984536084356789e+01 
55 1 2 1.0279954362186614e+00 -2.0615350774167138e+02 1.0000000000000000e+00 2.2964868596382919e+00 6.3872614256652529e+00 1.0984536084356789e+01 
59 1 2 1.0279954362186614e+00 -2.6100457369255838e+02 1.0000000000000000e+00 2.2964868596382919e+00 6.3872614256652529e+00 1.0984536084356789e+01 
7 1 2 1.0279954362186614e+00 -2.8616394143661461e+02 1.0000000000000000e+00 2.2964868596382919e+00 6.3872614256652529e+00 1.0984536084356789e+01 
60 1 2 1.0279954362186614e+00 -1.9101676059460084e+02 1.0000000000000000e+00 2.2964868596382919e+00 6.3872614256652529e+00 1.0984536084356789e+01 
61 1 2 1.0279954362191643e+00 -2.1037727431447189e+02 1.0000000000000000e+00 2.2964867395660353e+00 6.3872613100549751e+00 1.0984535955427445e+01 
102 1 2 1.0279954362186623e+00 -2.6026915316210017e+02 1.0000000000000000e+00 2.2964868596382728e+00 6.3872614256652467e+00 1.0984536084356767e+01 
166 1 2 1.0279995397376065e+00 -3.0104409190521068e+02 1.0000000000000000e+00 5.4465220462303812e+00 5.7272056000400644e+00 1.2747909073345438e+01 
136 1 2 1.0279995397375952e+00 -2.3321535409321373e+02 1.0000000000000000e+00 5.4465220460259660e+00 5.7272055999408318e+00 1.2747909069481183e+01 
137 1 2 1.0279995397376038e+00 -2.8786507240822584e+02 1.0000000000000000e+00 5.4465220462494974e+00 5.7272056000521951e+00 1.2747909073735313e+01 
131 1 2 1.0279995397375936e+00 -3.0619287575601004e+02 1.0000000000000000e+00 5.4465220460143708e+00 5.7272055999339848e+00 1.2747909069249902e+01 
130 1 2 1.0279995397375994e+00 -2.3863959182812695e+02 1.0000000000000000e+00 5.4465220460791475e+00 5.7272055999673439e+00 1.2747909070493385e+01 
128 1 2 1.0280004054988743e+00 -2.3937064194387344e+02 1.0000000000000000e+00 6.5638318789301477e+00 7.1962607284578395e+00 1.1627143683578234e+01 
129 1 2 1.0280004054988743e+00 -1.8530363925464636e+02 1.0000000000000000e+00 6.5638318789301291e+00 7.1962607284576654e+00 1.1627143683578106e+01 
13 1 2 1.0280004054988752e+00 -1.0297574654944897e+02 1.0000000000000000e+00 6.5638318789300776e+00 7.1962607284579230e+00 1.1627143683578289e+01 
134 1 2 1.0280004054988743e+00 -2.9410937908393635e+02 1.0000000000000000e+00 6.5638318789302561e+00 7.1962607284573945e+00 1.1627143683577925e+01 
19 1 2 1.0280004054988743e+00 -1.0520607796886149e+02 1.0000000000000000e+00 6.5638318789302543e+00 7.1962607284576361e+00 1.1627143683578099e+01 
108 1 2 1.0280004201010826e+00 -2.3682270095253429e+02 1.0000000000000000e+00 4.0291801668501712e+00 6.7800070254097244e+00 1.5465102605213868e+01 
32 1 2 1.0280004201010826e+00 -2.2002496722532209e+02 1.0000000000000000e+00 4.0291801668501712e+00 6.7800070254097244e+00 1.5465102605213868e+01 
47 1 2 1.0280004201010824e+00 -2.1728449632480596e+02 1.0000000000000000e+00 4.0291801668501837e+00 6.7800070254096436e+00 1.5465102605213904e+01 
12 1 2 1.0280004201010826e+00 -2.5972242497786561e+02 1.0000000000000000e+00 4.0291801668501712e+00 6.7800070254097244e+00 1.5465102605213868e+01 
54 1 2 1.0280004201010826e+00 -2.0605458417841973e+02 1.0000000000000000e+00 4.0291801668501712e+00 6.7800070254097244e+00 1.5465102605213868e+01 
79 1 2 1.0280004201010826e+00 -2.6718155682297333e+02 1.0000000000000000e+00 4.0291801668502014e+00 6.7800070254096694e+00 1.5465102605213909e+01 
14 1 2 1.0280004201010826e+00 -3.1260876976341672e+02 1.0000000000000000e+00 4.0291801668502014e+00 6.7800070254096694e+00 1.5465102605213909e+01 
72 1 2 1.0280000000001643e+00 -2.1852433170640450e+02 1.0000000000000000e+00 1.7524918404702874e-01 1.8422708069659610e+01 3.9406894445844998e+00 
37 1 2 1.0280000000001643e+00 -2.4669008727274291e+02 1.0000000000000000e+00 1.7524918404862036e-01 1.8422708069652494e+01 3.9406894445902050e+00 
152 1 2 1.0280000000001643e+00 -1.8220656192098465e+02 1.0000000000000000e+00 1.7524918404294312e-01 1.8422708069650014e+01 3.9406894445957041e+00 
140 1 2 1.0280000000001643e+00 -1.7325396271956811e+02 1.0000000000000000e+00 1.7524918404862036e-01 1.8422708069652494e+01 3.9406894445902050e+00 
141 1 2 1.0280000000001643e+00 -1.9418533098145809e+02 1.0000000000000000e+00 1.7524918404862036e-01 1.8422708069652494e+01 3.9406894445902050e+00 
34 1 2 1.0280000000001643e+00 -2.4331633655372036e+02 1.0000000000000000e+00 1.7524918404862036e-01 1.8422708069652494e+01 3.9406894445902050e+00 
147 1 2 1.0280000000001643e+00 -1.7586227022225560e+02 1.0000000000000000e+00 1.7524918404862036e-01 1.8422708069652494e+01 3.9406894445902050e+00 
30 1 2 1.0280001614345926e+00 -1.7229757551316797e+02 1.0000000000000000e+00 1.0992642608783720e+00 1.2709760871760730e+01 7.7962420781530231e+00 
36 1 2 1.0280001614345926e+00 -2.0007977836752642e+02 1.0000000000000000e+00 1.0992642608783720e+00 1.2709760871760730e+01 7.7962420781530231e+00 
64 1 2 1.0280001614345928e+00 -1.6171137425966791e+02 1.0000000000000000e+00 1.0992642608815391e+00 1.2709760871803079e+01 7.7962420781380040e+00 
11 1 2 1.0280001614345926e+00 -1.8806880725457935e+02 1.0000000000000000e+00 1.0992642608783720e+00 1.2709760871760730e+01 7.7962420781530231e+00 
25 1 2 1.0280001614345939e+00 -1.5046726399081862e+02 1.0000000000000000e+00 1.0992642608960952e+00 1.2709760871806136e+01 7.7962420781426163e+00 
100 1 2 1.0280001614345939e+00 -1.6167781555077539e+02 1.0000000000000000e+00 1.0992642608960952e+00 1.2709760871806136e+01 7.7962420781426163e+00 
41 1 2 1.0280001614345939e+00 -2.4489213710037350e+02 1.0000000000000000e+00 1.0992642608960952e+00 1.2709760871806136e+01 7.7962420781426163e+00 
175 1 2 1.0279997967482106e+00 -1.6079661364639003e+02 1.0000000000000000e+00 1.2416712377263128e+01 8.4918934986703736e+00 7.9591910822206895e+00 
91 1 2 1.0279997967482093e+00 -1.5794180921259476e+02 1.0000000000000000e+00 1.2416712377259195e+01 8.4918934986710859e+00 7.9591910822209400e+00 
70 1 2 1.0279997967482100e+00 -1.7319078662336892e+02 1.0000000000000000e+00 1.2416712377275251e+01 8.4918934986679897e+00 7.9591910822199976e+00 
85 1 2 1.0279997967482093e+00 -1.3061476553610012e+02 1.0000000000000000e+00 1.2416712377263197e+01 8.4918934986653163e+00 7.9591910822232723e+00 
90 1 2 1.0279997967482100e+00 -1.3629755045731093e+02 1.0000000000000000e+00 1.2416712377267165e+01 8.4918934986664194e+00 7.9591910822220813e+00 
8 1 2 1.0280000212834211e+00 -3.1483423670987963e+02 1.0000000000000000e+00 1.3224605847017546e+01 8.6057213846506624e+00 8.9339247823953460e+00 
110 1 2 1.0280001477451879e+00 -1.7506529971829514e+02 1.0000000000000000e+00 1.2455236795629320e+01 9.5506192724652781e+00 9.7398924912071241e+00 
176 1 2 1.0280001477451854e+00 -1.4269707515470756e+02 1.0000000000000000e+00 1.2455236796098065e+01 9.5506192696356340e+00 9.7398924935582265e+00 
96 1 2 1.0280001477451866e+00 -2.6942705877563509e+02 1.0000000000000000e+00 1.2455236795569556e+01 9.5506192729006685e+00 9.7398924908444968e+00 
49 1 2 1.0280001477451781e+00 -2.0805772130344721e+02 1.0000000000000000e+00 1.2455236794570505e+01 9.5506192789878792e+00 9.7398924857861306e+00 
43 1 2 1.0280001477451581e+00 -2.3172321258442949e+02 1.0000000000000000e+00 1.2455236791981360e+01 9.5506192947215300e+00 9.7398924727122189e+00 
66 1 2 1.0279999697428350e+00 -1.6075938421650193e+02 1.0000000000000000e+00 9.1547633120175487e+00 4.7760408147477920e+00 1.3211653143817855e+01 
65 1 2 1.0279999697461928e+00 -1.5928843269958105e+02 1.0000000000000000e+00 9.1547328714197107e+00 4.7760554566417532e+00 1.3211597048709940e+01 
62 1 2 1.0279999697687701e+00 -2.2490140090332710e+02 1.0000000000000000e+00 9.1545325428484183e+00 4.7761530487701691e+00 1.3211228877906404e+01 
180 1 2 1.0280000108820224e+00 -2.8193601542941519e+02 1.0000000000000000e+00 7.7150352743964277e+00 3.9919767376726756e+00 1.3033455383931926e+01 
144 1 2 1.0280000108820220e+00 -2.7448523480055900e+02 1.0000000000000000e+00 7.7150352743615809e+00 3.9919767377147157e+00 1.3033455383899991e+01 
51 1 2 1.0280000108820218e+00 -1.7937006387487898e+02 1.0000000000000000e+00 7.7150352744118171e+00 3.9919767376544164e+00 1.3033455383945469e+01 
179 1 2 1.0280000108820218e+00 -2.7579398350414181e+02 1.0000000000000000e+00 7.7150352743970485e+00 3.9919767376720836e+00 1.3033455383932207e+01 
164 1 2 1.0279999907535500e+00 -2.8738856977017707e+02 1.0000000000000000e+00 7.6838693988087430e+00 5.8205071759865996e+00 1.2278829736180024e+01 
10 1 2 1.0279994513681501e+00 -2.3579885807413103e+02 1.0000000000000000e+00 9.8909646367858404e+00 8.2052072680702874e+00 1.1235941893237172e+01 
45 1 2 1.0279994513682180e+00 -2.8331693577920691e+02 1.0000000000000000e+00 9.8909646352515939e+00 8.2052072705260972e+00 1.1235941893213516e+01 
40 1 2 1.0279994513695081e+00 -2.9182896435196000e+02 1.0000000000000000e+00 9.8909646062491490e+00 8.2052073160851897e+00 1.1235941892197598e+01 
69 1 2 1.0279994513686426e+00 -1.6808038285439034e+02 1.0000000000000000e+00 9.8909646256317316e+00 8.2052072857434322e+00 1.1235941892946443e+01 
46 1 2 1.0279994513682180e+00 -2.9737181600099598e+02 1.0000000000000000e+00 9.8909646352515992e+00 8.2052072705260510e+00 1.1235941893213489e+01 
3 1 2 1.0279994513690218e+00 -2.5557663696791943e+02 1.0000000000000000e+00 9.8909646171476098e+00 8.2052072989018665e+00 1.1235941892537836e+01 
9 1 2 1.0279994513676562e+00 -2.3225068072957322e+02 1.0000000000000000e+00 9.8909646477743767e+00 8.2052072509084422e+00 1.1235941893688068e+01 
95 1 2 1.0279999716899508e+00 -2.1740538099686270e+02 1.0000000000000000e+00 9.1718933262161588e+00 4.1854718643956250e+00 1.3971660503219294e+01 
94 1 2 1.0279999711601131e+00 -2.1744525913831436e+02 1.0000000000000000e+00 9.1716133959575465e+00 4.1819686844691777e+00 1.3963886510637895e+01 
112 1 2 1.0280000883814362e+00 -1.5237368989499177e+02 1.0000000000000000e+00 7.8736920809849567e+00 4.6614293883655478e+00 1.6016908694624650e+01 
163 1 2 1.0280000883814358e+00 -1.8739838035966841e+02 1.0000000000000000e+00 7.8736920809872037e+00 4.6614293883633025e+00 1.6016908694625975e+01 
44 1 2 1.0280000883814400e+00 -2.2937203287367231e+02 1.0000000000000000e+00 7.8736921016876602e+00 4.6614293638453388e+00 1.6016908705109419e+01 
33 1 2 1.0280000883814406e+00 -2.0949753683184005e+02 1.0000000000000000e+00 7.8736921016877197e+00 4.6614293638453344e+00 1.6016908705109479e+01 
50 1 2 1.0280000883814422e+00 -2.9418315358237209e+02 1.0000000000000000e+00 7.8736921048307700e+00 4.6614293583423141e+00 1.6016908705905632e+01 
18 1 2 1.0280000883814482e+00 -1.9673806922337897e+02 1.0000000000000000e+00 7.8736921129134005e+00 4.6614293257143578e+00 1.6016908699696259e+01 
57 1 2 1.0280000062365990e+00 -2.1356509171257315e+02 1.0000000000000000e+00 9.7328594523344965e+00 6.5734133125133942e+00 1.6352270011918492e+01 
170 1 2 1.0280000062367853e+00 -2.5222564680946476e+02 1.0000000000000000e+00 9.7328705429243882e+00 6.5734103803007606e+00 1.6352267137781471e+01 
56 1 2 1.0280000062368824e+00 -2.0517387607640524e+02 1.0000000000000000e+00 9.7328759725577836e+00 6.5734089430599729e+00 1.6352265730434546e+01 
99 1 2 1.0280000062365995e+00 -1.6998893326401924e+02 1.0000000000000000e+00 9.7328596581352098e+00 6.5734132581551039e+00 1.6352269958592451e+01 
173 1 2 1.0279996952283612e+00 -2.6082150993642944e+02 1.0000000000000000e+00 7.7626381304468151e+00 7.3935181994745909e+00 1.4038720279630617e+01 
97 1 2 1.0280000475526743e+00 -2.5682090207832965e+02 1.0000000000000000e+00 7.3415221247130047e+00 7.3047605004277800e+00 1.4268516394628096e+01 
82 1 2 1.0280000475540498e+00 -9.5550903357770309e+01 1.0000000000000000e+00 7.3415349537645502e+00 7.3047587943816046e+00 1.4268522223291621e+01 
77 1 2 1.0280000475540496e+00 -1.1149872890359909e+02 1.0000000000000000e+00 7.3415349538093739e+00 7.3047587943772587e+00 1.4268522223309919e+01 
83 1 2 1.0280000475540498e+00 -9.4060664377189667e+01 1.0000000000000000e+00 7.3415349536764065e+00 7.3047587943918133e+00 1.4268522223253512e+01 
167 1 2 1.0280001265207850e+00 -2.5045913451439429e+02 1.0000000000000000e+00 7.2124201526173719e+00 6.9664087477228520e+00 1.4511877109384059e+01 
118 1 2 1.0279999319372761e+00 -2.1089624722704306e+02 1.0000000000000000e+00 1.0165342983883219e+01 7.3553544544324954e+00 1.4905349323641243e+01 
124 1 2 1.0279999319412607e+00 -2.4624822770511722e+02 1.0000000000000000e+00 1.0165345245717395e+01 7.3553590392650090e+00 1.4905354621038269e+01 
155 1 2 1.0279999319371866e+00 -2.6987695141154870e+02 1.0000000000000000e+00 1.0165342937091186e+01 7.3553543503606278e+00 1.4905349207707570e+01 
154 1 2 1.0279999319372366e+00 -2.6826697230459860e+02 1.0000000000000000e+00 1.0165342965134462e+01 7.3553544129497253e+00 1.4905349277337891e+01 
125 1 2 1.0280000514115957e+00 -1.9875019935658565e+02 1.0000000000000000e+00 1.0366120626820395e+01 7.4560949279242479e+00 1.5618574301774846e+01 
84 1 2 1.0279998740524194e+00 -2.1432273134556274e+02 1.0000000000000000e+00 9.6064772743588129e+00 2.2860145390630162e+00 1.7364455523337721e+01 
120 1 2 1.0279998740524194e+00 -2.1708438398966584e+02 1.0000000000000000e+00 9.6064772743587863e+00 2.2860145390629980e+00 1.7364455523337725e+01 
114 1 2 1.0279998740524194e+00 -3.0528130293978029e+02 1.0000000000000000e+00 9.6064772743588129e+00 2.2860145390630162e+00 1.7364455523337721e+01 
149 1 2 1.0279998740524197e+00 -1.9214116130180702e+02 1.0000000000000000e+00 9.6064772743588200e+00 2.2860145390630064e+00 1.7364455523337693e+01 
113 1 2 1.0279998740524197e+00 -2.9483082853967966e+02 1.0000000000000000e+00 9.6064772743588325e+00 2.2860145390630255e+00 1.7364455523337710e+01 
6 1 2 1.0279998740524194e+00 -2.0071946811458446e+02 1.0000000000000000e+00 9.6064772743588129e+00 2.2860145390630162e+00 1.7364455523337721e+01 
119 1 2 1.0279998740524194e+00 -2.8778287248013845e+02 1.0000000000000000e+00 9.6064772743587863e+00 2.2860145390629980e+00 1.7364455523337725e+01 
39 1 2 1.0280000000004186e+00 -1.7159035965950108e+02 1.0000000000000000e+00 9.5691133201519847e+00 1.7298506532645867e+01 8.4049543885807996e+00 
75 1 2 1.0280000000004186e+00 -1.5140367399293922e+02 1.0000000000000000e+00 9.5691133201498388e+00 1.7298506532641277e+01 8.4049543885793092e+00 
76 1 2 1.0280000000004186e+00 -1.2326551255839911e+02 1.0000000000000000e+00 9.5691133201519847e+00 1.7298506532645867e+01 8.4049543885807996e+00 
105 1 2 1.0280000000004186e+00 -1.5831247457045816e+02 1.0000000000000000e+00 9.5691133201498388e+00 1.7298506532641277e+01 8.4049543885793092e+00 
106 1 2 1.0280000000004186e+00 -1.3913082865303278e+02 1.0000000000000000e+00 9.5691133201498388e+00 1.7298506532641277e+01 8.4049543885793092e+00 
68 1 2 1.0280000000004186e+00 -2.4914252809341323e+02 1.0000000000000000e+00 9.5691133201498388e+00 1.7298506532641277e+01 8.4049543885793092e+00 
38 1 2 1.0280000000004186e+00 -1.6121365863723349e+02 1.0000000000000000e+00 9.5691133201498388e+00 1.7298506532641277e+01 8.4049543885793092e+00 
92 1 2 1.0280000000004152e+00 -2.1269680297508381e+02 1.0000000000000000e+00 8.0362529170349930e+00 1.7081472371314739e+01 1.1281331601430443e+01 
138 1 2 1.0280000000004237e+00 -1.9253456333111188e+02 1.0000000000000000e+00 8.0362529170118915e+00 1.7081472371311992e+01 1.1281331601417769e+01 
132 1 2 1.0280000000004152e+00 -2.0613736562207242e+02 1.0000000000000000e+00 8.0362529170349930e+00 1.7081472371314739e+01 1.1281331601430443e+01 
127 1 2 1.0280000000004152e+00 -1.8423117123829729e+02 1.0000000000000000e+00 8.0362529170349930e+00 1.7081472371314739e+01 1.1281331601430443e+01 
148 1 2 1.0280000000004237e+00 -1.9231921955856825e+02 1.0000000000000000e+00 8.0362529170118915e+00 1.7081472371311992e+01 1.1281331601417769e+01 
174 1 2 1.0280000000004237e+00 -1.8071305035587869e+02 1.0000000000000000e+00 8.0362529170118915e+00 1.7081472371311992e+01 1.1281331601417769e+01 
87 1 2 1.0280000000004152e+00 -2.0797698767850682e+02 1.0000000000000000e+00 8.0362529170349930e+00 1.7081472371314739e+01 1.1281331601430443e+01 
2 1 2 1.0279998151752929e+00 -1.0745059812774949e+02 1.0000000000000000e+00 1.7239509783671771e+01 9.3209396047051385e+00 8.9528062875117644e+00 
42 1 2 1.0279998151752929e+00 -1.6593663669807421e+02 1.0000000000000000e+00 1.7239509783671771e+01 9.3209396047051385e+00 8.9528062875117644e+00 
139 1 2 1.0279998151752929e+00 -2.6614181530709766e+02 1.0000000000000000e+00 1.7239509783671771e+01 9.3209396047051385e+00 8.9528062875117644e+00 
169 1 2 1.0279998151752929e+00 -2.1886427560444537e+02 1.0000000000000000e+00 1.7239509783671771e+01 9.3209396047051385e+00 8.9528062875117644e+00 
71 1 2 1.0279998151752929e+00 -1.9538420799252856e+02 1.0000000000000000e+00 1.7239509783671771e+01 9.3209396047051385e+00 8.9528062875117644e+00 
107 1 2 1.0279998151752929e+00 -1.8567532861849068e+02 1.0000000000000000e+00 1.7239509783671771e+01 9.3209396047051385e+00 8.9528062875117644e+00 
133 1 2 1.0279998151752929e+00 -2.7154184869659673e+02 1.0000000000000000e+00 1.7239509783671771e+01 9.3209396047051385e+00 8.9528062875117644e+00 
159 1 2 1.0280000023641773e+00 -1.4980196293656357e+02 1.0000000000000000e+00 1.9213534443674796e+01 1.1888831300412804e+01 2.4688850874011199e+00 
158 1 2 1.0280000023641773e+00 -1.8399680774845777e+02 1.0000000000000000e+00 1.9213534443674796e+01 1.1888831300412804e+01 2.4688850874011199e+00 
4 1 2 1.0280000023641773e+00 -2.0484106290925456e+02 1.0000000000000000e+00 1.9213534443674796e+01 1.1888831300412804e+01 2.4688850874011199e+00 
5 1 2 1.0280000023641773e+00 -2.6877088754612799e+02 1.0000000000000000e+00 1.9213534443674796e+01 1.1888831300412804e+01 2.4688850874011199e+00 
1 1 2 1.0280000023641771e+00 -2.4057443550263514e+02 1.0000000000000000e+00 1.9213534443674806e+01 1.1888831300412853e+01 2.4688850874011203e+00 
78 1 2 1.0280000023641773e+00 -2.1403704956903584e+02 1.0000000000000000e+00 1.9213534443674796e+01 1.1888831300412804e+01 2.4688850874011199e+00 
165 1 2 1.0280000023641773e+00 -1.5956508068382792e+02 1.0000000000000000e+00 1.9213534443674796e+01 1.1888831300412804e+01 2.4688850874011199e+00 
58 1 2 1.0280000022336040e+00 -2.1355326009901165e+02 1.0000000000000000e+00 1.6223866367932757e+01 1.4679234722074694e+01 6.3894449320060309e-01 
22 1 2 1.0280000022343228e+00 -2.3583204838924797e+02 1.0000000000000000e+00 1.6223853686031948e+01 1.4679259202027549e+01 6.3893264847443809e-01 
145 1 2 1.0280000022344513e+00 -2.9608789252076417e+02 1.0000000000000000e+00 1.6223850086800596e+01 1.4679246262199527e+01 6.3892758063663846e-01 
151 1 2 1.0280000022345530e+00 -3.1907679218034644e+02 1.0000000000000000e+00 1.6223849010368038e+01 1.4679258766086740e+01 6.3892746880742690e-01 
53 1 2 1.0280000022344828e+00 -2.3433321121827902e+02 1.0000000000000000e+00 1.6223849623217809e+01 1.4679248650146770e+01 6.3892727563950868e-01 
109 1 2 1.0280000022345650e+00 -3.2028723540292333e+02 1.0000000000000000e+00 1.6223848441816820e+01 1.4679255554660450e+01 6.3892656828022554e-01 
16 1 2 1.0280000022352664e+00 -2.0128361534004028e+02 1.0000000000000000e+00 1.6223836362239272e+01 1.4679283110604166e+01 6.3891563803919260e-01 
157 1 2 1.0279992155576372e+00 -2.3670991867291366e+02 1.0000000000000000e+00 1.6405193842684120e+01 1.5061050781803496e+01 7.6671325749352430e+00 
52 1 2 1.0279992155140723e+00 -1.8005732357419083e+02 1.0000000000000000e+00 1.6400518229052068e+01 1.5058905247074026e+01 7.6686741976518293e+00 
88 1 2 1.0279992155140736e+00 -2.1951948497944267e+02 1.0000000000000000e+00 1.6400518229059344e+01 1.5058905247060830e+01 7.6686741976298949e+00 
89 1 2 1.0279992155140678e+00 -2.0185000668271917e+02 1.0000000000000000e+00 1.6400518229050277e+01 1.5058905247106336e+01 7.6686741976917308e+00 
126 1 2 1.0280007844878596e+00 -2.5820114076084161e+02 1.0000000000000000e+00 1.5912355316183971e+01 1.5728119295420624e+01 7.1044355239220023e+00 
121 1 2 1.0280007844883987e+00 -2.0538368234866311e+02 1.0000000000000000e+00 1.5912354512137526e+01 1.5728118105472593e+01 7.1044348105162456e+00 
156 1 2 1.0280007844869894e+00 -2.0736540903052281e+02 1.0000000000000000e+00 1.5912340940749759e+01 1.5728097383214362e+01 7.1044220147966435e+00 
162 1 2 1.0280007844883932e+00 -2.4592168386340219e+02 1.0000000000000000e+00 1.5912355338243493e+01 1.5728119328270148e+01 7.1044355437391635e+00 
24 1 2 1.0279997807499222e+00 -1.9197473742454775e+02 1.0000000000000000e+00 1.9963180967059515e+01 1.3810311551087842e+01 1.0654289843805445e+01 
168 1 2 1.0279997807499222e+00 -1.9169031645673036e+02 1.0000000000000000e+00 1.9963180967059508e+01 1.3810311551087844e+01 1.0654289843805440e+01 
23 1 2 1.0279997807499222e+00 -2.2026272869823038e+02 1.0000000000000000e+00 1.9963180967059515e+01 1.3810311551087842e+01 1.0654289843805445e+01 
48 1 2 1.0279997807499222e+00 -2.1504847175919531e+02 1.0000000000000000e+00 1.9963180967059515e+01 1.3810311551087842e+01 1.0654289843805445e+01 
17 1 2 1.0279997807499222e+00 -2.8198355436776717e+02 1.0000000000000000e+00 1.9963180967059497e+01 1.3810311551087842e+01 1.0654289843805437e+01 
93 1 2 1.0279997807499222e+00 -1.5448074228033840e+02 1.0000000000000000e+00 1.9963180967059515e+01 1.3810311551087842e+01 1.0654289843805445e+01 
29 1 2 1.0279997807499222e+00 -2.0490877979159632e+02 1.0000000000000000e+00 1.9963180967059515e+01 1.3810311551087842e+01 1.0654289843805445e+01 
143 1 2 1.0280000005085290e+00 -2.4248586829248006e+02 1.0000000000000000e+00 1.9095076791743054e+01 1.1729085674225475e+01 1.9279411470787828e+01 
150 1 2 1.0280000005085626e+00 -2.8786732202017947e+02 1.0000000000000000e+00 1.9095088753856313e+01 1.1729094068450912e+01 1.9279412821184955e+01 
115 1 2 1.0280000005085295e+00 -2.7555826869088617e+02 1.0000000000000000e+00 1.9095076809982654e+01 1.1729085687022735e+01 1.9279411472853052e+01 
101 1 2 1.0280000005085290e+00 -2.3772245024793222e+02 1.0000000000000000e+00 1.9095076793643791e+01 1.1729085675558920e+01 1.9279411471003591e+01 
160 1 2 1.0279999999973337e+00 -2.8166269290615173e+02 1.0000000000000000e+00 1.8444044665247731e+01 1.2578675323289312e+01 1.9186574656046790e+01 
161 1 2 1.0279999999972977e+00 -2.8234937318887648e+02 1.0000000000000000e+00 1.8444049444241578e+01 1.2578679380739876e+01 1.9186573583485465e+01 
153 1 2 1.0279999999973002e+00 -1.7120607159746871e+02 1.0000000000000000e+00 1.8444049309275503e+01 1.2578679266705155e+01 1.9186573615133817e+01 
146 1 2 1.0279999998134226e+00 -1.4838374424504036e+02 1.0000000000000000e+00 1.8459913288697553e+01 1.2583190055796202e+01 1.9163729686352081e+01 
98 1 2 1.0279999976065379e+00 -1.5385023605597661e+02 1.0000000000000000e+00 1.8394108748886399e+01 1.5878679323535049e+01 1.8409852712693421e+01 
26 1 2 1.0279999976065384e+00 -2.2844356354757383e+02 1.0000000000000000e+00 1.8394108748886417e+01 1.5878679323534993e+01 1.8409852712693379e+01 
35 1 2 1.0279999976065379e+00 -1.8173871911672614e+02 1.0000000000000000e+00 1.8394108748886467e+01 1.5878679323534975e+01 1.8409852712693400e+01 
73 1 2 1.0279999976065382e+00 -2.7205073142226371e+02 1.0000000000000000e+00 1.8394108748886442e+01 1.5878679323535007e+01 1.8409852712693411e+01 
111 1 2 1.0279999976065382e+00 -1.7012622292561349e+02 1.0000000000000000e+00 1.8394108748886442e+01 1.5878679323535007e+01 1.8409852712693411e+01 
104 1 2 1.0279999976065384e+00 -2.7493928372907516e+02 1.0000000000000000e+00 1.8394108748886417e+01 1.5878679323534993e+01 1.8409852712693379e+01 
67 1 2 1.0279999976065382e+00 -2.1756869296471382e+02 1.0000000000000000e+00 1.8394108748886442e+01 1.5878679323535007e+01 1.8409852712693411e+01 

Velocities

117 3.0379955691377125e-01 -2.0678343301691485e-01 1.5729602487053185e-02
123 3.0379955691377125e-01 -2.0678343301691485e-01 1.5729602487053185e-02
116 3.0379955691377125e-01 -2.0678343301691485e-01 1.5729602487053185e-02
81 3.0379955691377120e-01 -2.0678343301691371e-01 1.5729602487055662e-02
122 3.0379955691377120e-01 -2.0678343301691371e-01 1.5729602487055662e-02
80 3.0379955691377120e-01 -2.0678343301691371e-01 1.5729602487055662e-02
86 3.0379955691377125e-01 -2.0678343301691485e-01 1.5729602487053185e-02
142 3.1568964261017257e-01 -2.1288825897191810e-01 2.0722931854898299e-03
103 3.1568964261017257e-01 -2.1288825897191810e-01 2.0722931854898299e-03
74 3.1568964261017246e-01 -2.1288825897191813e-01 2.0722931854897570e-03
135 3.1568964261017257e-01 -2.1288825897191810e-01 2.0722931854898299e-03
21 3.1568964261017257e-01 -2.1288825897191810e-01 2.0722931854898299e-03
15 3.1568964261017207e-01 -2.1288825897191807e-01 2.0722931854904401e-03
20 3.1568964261017257e-01 -2.1288825897191810e-01 2.0722931854898299e-03
178 3.1461901059355446e-01 -2.1143169703860751e-01 4.5381948134466336e-03
171 3.1461901059353775e-01 -2.1143169703898348e-01 4.5381948133775517e-03
27 3.1461901059355446e-01 -2.1143169703860751e-01 4.5381948134466336e-03
28 3.1461901059355074e-01 -2.1143169703948242e-01 4.5381948133952649e-03
63 3.1461901059355074e-01 -2.1143169703948242e-01 4.5381948133952649e-03
177 3.1461901059380148e-01 -2.1143169703706341e-01 4.5381948148620231e-03
172 3.1461901059355263e-01 -2.1143169703948270e-01 4.5381948133947315e-03
31 3.1599105201309563e-01 -2.1287317693695643e-01 2.3730699045375484e-03
55 3.1599105201309563e-01 -2.1287317693695643e-01 2.3730699045375484e-03
59 3.1599105201309563e-01 -2.1287317693695643e-01 2.3730699045375484e-03
7 3.1599105201309563e-01 -2.1287317693695643e-01 2.3730699045375484e-03
60 3.1599105201309563e-01 -2.1287317693695643e-01 2.3730699045375484e-03
61 3.1599105217234263e-01 -2.1287317676271794e-01 2.3730701071311010e-03
102 3.1599105201309541e-01 -2.1287317693695637e-01 2.3730699045376568e-03
166 3.1724055345494295e-01 -2.1156917712623632e-01 6.4751354475785282e-04
136 3.1724055345490304e-01 -2.1156917712608114e-01 6.4751354524358266e-04
137 3.1724055345494506e-01 -2.1156917712625276e-01 6.4751354470883051e-04
131 3.1724055345490126e-01 -2.1156917712606813e-01 6.4751354527281080e-04
130 3.1724055345491931e-01 -2.1156917712611428e-01 6.4751354511660155e-04
128 3.1723023354485896e-01 -2.1156609577966845e-01 6.4181128285093457e-04
129 3.1723023354485796e-01 -2.1156609577968163e-01 6.4181128287010337e-04
13 3.1723023354485907e-01 -2.1156609577966570e-01 6.4181128284897184e-04
134 3.1723023354485763e-01 -2.1156609577968055e-01 6.4181128286941468e-04
19 3.1723023354485902e-01 -2.1156609577966823e-01 6.4181128285103117e-04
108 3.1723664443670568e-01 -2.1157594419917458e-01 6.3060010857190303e-04
32 3.1723664443670568e-01 -2.1157594419917458e-01 6.3060010857190303e-04
47 3.1723664443670568e-01 -2.1157594419917461e-01 6.3060010857150816e-04
12 3.1723664443670568e-01 -2.1157594419917458e-01 6.3060010857190303e-04