LAMMPS data file via write_data, version 30 Jul 2016, timestep = 100400000

644 atoms
2 atom types

0.0000000000000000e+00 2.0000000000000000e+01 xlo xhi
0.0000000000000000e+00 2.0000000000000000e+01 ylo yhi
0.0000000000000000e+00 2.0000000000000000e+01 zlo zhi

Masses

1 4.31
2 3.896

Atoms # meso-molecular

177 0 1 3.9999036915027544e+00 -2.5372109703996685e+02 1.0000000000000000e+00 5.6449112124646081e+00 8.7550643177990359e+00 6.4704435976105712e+00 
543 0 1 3.9999036910745982e+00 -2.4390603701124968e+02 1.0000000000000000e+00 5.6450245940042816e+00 8.7550302700476266e+00 6.4702614145727129e+00 
11 0 1 3.9999036976990161e+00 -3.6717789146733014e+02 1.0000000000000000e+00 5.6450441826970703e+00 8.7549519899349324e+00 6.4702050106426139e+00 
282 0 1 3.9999036931201433e+00 -2.3021131678645742e+02 1.0000000000000000e+00 5.6449976769812151e+00 8.7550097147742250e+00 6.4702947856977993e+00 
523 0 1 3.9999036933390273e+00 -2.1719955871539716e+02 1.0000000000000000e+00 5.6449803074196199e+00 8.7550243578814904e+00 6.4703259420851973e+00 
363 0 1 3.9999036976889282e+00 -2.7968223518235186e+02 1.0000000000000000e+00 5.6450485090145222e+00 8.7549592707125008e+00 6.4702010187587504e+00 
274 0 1 3.9999036928613330e+00 -4.1951738399733529e+02 1.0000000000000000e+00 5.6452163070219914e+00 8.7549646927249949e+00 6.4699508362863201e+00 
466 0 1 3.9999036940196531e+00 -1.9621848396922357e+02 1.0000000000000000e+00 5.6450296577846375e+00 8.7550026124914737e+00 6.4702442759482217e+00 
536 0 1 3.9999036935280445e+00 -2.5476055366793949e+02 1.0000000000000000e+00 5.6452212265619268e+00 8.7549571652673670e+00 6.4699408598002259e+00 
327 0 1 3.9999036966700459e+00 -4.5684888911663745e+02 1.0000000000000000e+00 5.6448511678060775e+00 8.7550689329973732e+00 6.4705354946322275e+00 
254 0 1 3.9999036927312490e+00 -2.4899439517095729e+02 1.0000000000000000e+00 5.6451761262920614e+00 8.7549685439916640e+00 6.4700125004190587e+00 
163 0 1 3.9999036922022322e+00 -4.2507970369196624e+02 1.0000000000000000e+00 5.6453348733735851e+00 8.7549000515443947e+00 6.4697506158419227e+00 
570 0 1 3.9999037206692050e+00 -4.4410857652545229e+02 1.0000000000000000e+00 5.6428455485521294e+00 8.7553444927719202e+00 6.4736606405047379e+00 
534 0 1 3.9999036080126094e+00 -2.3786709193328414e+02 1.0000000000000000e+00 5.6385953857700537e+00 8.7588412558142466e+00 6.4814340500291241e+00 
597 0 1 3.9999038596624072e+00 -3.5210679004318496e+02 1.0000000000000000e+00 5.6474094401645436e+00 8.7520962137369640e+00 6.4657058969836099e+00 
621 0 1 3.9999036969379840e+00 -3.2982655882610555e+02 1.0000000000000000e+00 5.6448842016418936e+00 8.7550072169827686e+00 6.4704645195967689e+00 
585 0 1 3.9999036065201277e+00 -3.5518858046578993e+02 1.0000000000000000e+00 5.6441381624931237e+00 8.7564373206889545e+00 6.4720853638388922e+00 
169 0 1 3.9999929553954261e+00 -3.1234541265315630e+02 1.0000000000000000e+00 5.1127537382246517e+00 9.8168720415399982e+00 9.5883891516917803e+00 
40 0 1 3.9999914572126847e+00 -3.1378252681398641e+02 1.0000000000000000e+00 5.2530788792767957e+00 9.7948334628229059e+00 9.9246697766592717e+00 
527 0 1 4.0000233702832491e+00 -2.7674873510428529e+02 1.0000000000000000e+00 6.0288222247856069e+00 7.1141835175178301e+00 7.7388264784610152e+00 
58 0 1 4.0000224349280344e+00 -3.4921512556782261e+02 1.0000000000000000e+00 6.0578949337592460e+00 7.0893244758052179e+00 7.7164091776401280e+00 
346 0 1 4.0000203907484062e+00 -2.2889392386525537e+02 1.0000000000000000e+00 6.1182290364303604e+00 7.0539265430799869e+00 7.6936594496318298e+00 
81 0 1 4.0000223388050067e+00 -4.7133428431779311e+02 1.0000000000000000e+00 6.0607085542342354e+00 7.0878793357056242e+00 7.7161601583322552e+00 
355 0 1 4.0000263657674386e+00 -2.3147668338159536e+02 1.0000000000000000e+00 5.9027287086805176e+00 7.1661665193051771e+00 7.6856423045693134e+00 
637 0 1 3.9999688620595375e+00 -5.2565086072477811e+02 1.0000000000000000e+00 5.6015320579049588e+00 8.7161216230919631e+00 7.7767490761354221e+00 
410 0 1 4.0000189236816635e+00 -2.8842843321132131e+02 1.0000000000000000e+00 6.0856799800089414e+00 7.0155159833821941e+00 7.4123290669440021e+00 
139 0 1 4.0000215001791215e+00 -2.7925385321302480e+02 1.0000000000000000e+00 6.0853010380333412e+00 7.0755230308298804e+00 7.7135401277838236e+00 
559 0 1 4.0000225389056894e+00 -2.7796933495678479e+02 1.0000000000000000e+00 6.0547648500936466e+00 7.0917004881501695e+00 7.7184210060128642e+00 
285 0 1 4.0000212075272064e+00 -2.0738057778645836e+02 1.0000000000000000e+00 6.0941485739030892e+00 7.0688810404206377e+00 7.7066984698333609e+00 
224 0 1 4.0000218553716707e+00 -2.5404471023127687e+02 1.0000000000000000e+00 6.0753020678547580e+00 7.0778880783708580e+00 7.7084639458544668e+00 
4 0 1 4.0000231870500462e+00 -5.0334722146798021e+02 1.0000000000000000e+00 6.0355653400009093e+00 7.1022783323357519e+00 7.7208120239116047e+00 
52 0 1 4.0000224798094326e+00 -3.6970725831964819e+02 1.0000000000000000e+00 6.0564979364930203e+00 7.0905897860567952e+00 7.7177856101582174e+00 
589 0 1 4.0000218515822743e+00 -4.0557908026769792e+02 1.0000000000000000e+00 6.0754348705533330e+00 7.0777844917389441e+00 7.7083580182775204e+00 
366 0 1 4.0000216121175498e+00 -2.7374746856086114e+02 1.0000000000000000e+00 6.0824323416891053e+00 7.0740297021766825e+00 7.7068231206886884e+00 
75 0 1 4.0000225509664933e+00 -3.6436415962274373e+02 1.0000000000000000e+00 6.0544258929842822e+00 7.0916383474681206e+00 7.7179039839858801e+00 
153 0 1 4.0000219083223278e+00 -3.1725108353345354e+02 1.0000000000000000e+00 6.0734858772445950e+00 7.0796119082126028e+00 7.7106395599135045e+00 
395 0 1 4.0000214220813959e+00 -2.5773730814201576e+02 1.0000000000000000e+00 6.0879583855354742e+00 7.0711810505845376e+00 7.7057736495538460e+00 
207 0 1 4.0000212462137545e+00 -1.9016313981615841e+02 1.0000000000000000e+00 6.0930870028831237e+00 7.0701056063073491e+00 7.7086060481085577e+00 
478 0 1 4.0000221787525145e+00 -3.1541255135092734e+02 1.0000000000000000e+00 6.0654896550638426e+00 7.0848612081379736e+00 7.7143594961719870e+00 
501 0 1 3.9999748390268444e+00 -2.4295925957729537e+02 1.0000000000000000e+00 6.2310024335813390e+00 9.5324797555106464e+00 1.0178537788673847e+01 
237 0 1 3.9999746367646893e+00 -2.4394506226964853e+02 1.0000000000000000e+00 6.2449497757881742e+00 9.5251439348436584e+00 1.0172801729198726e+01 
299 0 1 3.9999755682211302e+00 -2.0879113872123349e+02 1.0000000000000000e+00 6.1933342251474919e+00 9.5465034587534774e+00 1.0188775470231514e+01 
193 0 1 3.9999744806504900e+00 -1.9025264526391842e+02 1.0000000000000000e+00 6.2653530004787035e+00 9.5201296041008803e+00 1.0168899116021228e+01 
452 0 1 3.9999753165960330e+00 -1.9249964376781222e+02 1.0000000000000000e+00 6.1708831008974778e+00 9.5548749447014760e+00 1.0194511766286910e+01 
601 0 1 3.9999745009101670e+00 -3.2673310470287493e+02 1.0000000000000000e+00 6.2614568713321068e+00 9.5229052768730007e+00 1.0171143029373503e+01 
195 0 1 3.9999744956399992e+00 -1.9269023882223172e+02 1.0000000000000000e+00 6.2629900440201869e+00 9.5226560608138691e+00 1.0170947549485486e+01 
491 0 1 3.9999833129399511e+00 -3.3919174112067896e+02 1.0000000000000000e+00 5.6769126914223849e+00 9.6508583630227189e+00 1.0149207837102926e+01 
164 0 1 3.9999745079158129e+00 -3.9920182800342911e+02 1.0000000000000000e+00 6.2658099029373320e+00 9.5215383346812601e+00 1.0170048781389388e+01 
33 0 1 3.9999745488011351e+00 -3.3514016399416641e+02 1.0000000000000000e+00 6.2629848769047483e+00 9.5240248895048421e+00 1.0172058295307600e+01 
391 0 1 3.9999826884964689e+00 -2.4143957567965973e+02 1.0000000000000000e+00 5.7278150447143448e+00 9.6443847281679442e+00 1.0168627178985192e+01 
156 0 1 3.9999842854378365e+00 -3.4372274632839088e+02 1.0000000000000000e+00 5.6243162913343498e+00 9.6617019006431395e+00 1.0129714069444208e+01 
283 0 1 3.9999830231922342e+00 -2.5312590388521679e+02 1.0000000000000000e+00 5.7106468200988809e+00 9.6487297917274031e+00 1.0164699010011249e+01 
59 0 1 3.9999825045354775e+00 -3.1398644783705043e+02 1.0000000000000000e+00 5.7538543653692580e+00 9.6470015429488960e+00 1.0182965570722113e+01 
77 0 1 3.9999887321431311e+00 -4.2120855952567223e+02 1.0000000000000000e+00 5.4051047201639975e+00 9.7279010865603261e+00 1.0025868289123970e+01 
130 0 1 3.9999875937912153e+00 -2.5879680461415330e+02 1.0000000000000000e+00 5.5033791582432929e+00 9.7496756224146441e+00 1.0141261524919502e+01 
549 0 1 3.9999365316632018e+00 -2.3696629727224934e+02 1.0000000000000000e+00 6.6068982544502415e+00 1.0719904402893262e+01 6.3377839383031080e+00 
126 0 1 3.9996397393485328e+00 -4.1018918229360503e+02 1.0000000000000000e+00 6.3540587614221007e+00 1.0350672800320178e+01 6.5414175017713729e+00 
376 0 1 4.0005814306030354e+00 -2.0763378953543727e+02 1.0000000000000000e+00 6.5584599092612219e+00 1.0759560043586578e+01 6.5938479216807391e+00 
541 0 1 3.9999898185920393e+00 -2.6959452156327160e+02 1.0000000000000000e+00 5.0893001581107011e+00 1.1542046430040745e+01 8.1655876782364274e+00 
245 0 1 3.9999893444210528e+00 -5.4930445212075745e+02 1.0000000000000000e+00 5.0982744380559417e+00 1.1538507608042339e+01 8.1543016826482422e+00 
384 0 1 4.0007698475728866e+00 -2.3778354192752514e+02 1.0000000000000000e+00 6.6375111040068600e+00 1.1042347361055386e+01 6.7523559032175777e+00 
230 0 1 3.9999983893932067e+00 -2.3252911842828459e+02 1.0000000000000000e+00 4.9056335012281647e+00 1.1616104010789201e+01 8.4471649728509277e+00 
247 0 1 3.9999834322416126e+00 -3.2553222538593025e+02 1.0000000000000000e+00 5.2131078486690248e+00 1.1472734021039274e+01 8.0124340374965843e+00 
63 0 1 4.0000000524821786e+00 -3.9780952669643602e+02 1.0000000000000000e+00 4.7355966132704088e+00 1.0357476968919721e+01 9.5619046440470630e+00 
298 0 1 4.0000195842873465e+00 -2.5160826660497389e+02 1.0000000000000000e+00 5.0591603511651515e+00 1.1613476725346889e+01 9.7631604698991161e+00 
339 0 1 3.9999980984689585e+00 -2.3256561478158847e+02 1.0000000000000000e+00 4.9101061182345704e+00 1.1612747685052314e+01 8.4372443372282540e+00 
620 0 1 3.9999967335969187e+00 -3.6057541385778012e+02 1.0000000000000000e+00 4.9555816979426677e+00 1.0051346822467762e+01 9.7529225972252274e+00 
616 0 1 3.9998638013121752e+00 -3.9277023925595927e+02 1.0000000000000000e+00 5.5567676502941596e+00 1.0497680377593431e+01 7.7076886022186679e+00 
125 0 1 3.9999842509240735e+00 -2.7761273796334171e+02 1.0000000000000000e+00 5.1985871997824988e+00 1.1483910113793391e+01 8.0304252609394933e+00 
160 0 1 3.9999977999995235e+00 -3.1930286339080891e+02 1.0000000000000000e+00 4.9146724312057621e+00 1.1609116901326162e+01 8.4271328634420559e+00 
73 0 1 4.0000112201743345e+00 -3.5056504149370579e+02 1.0000000000000000e+00 4.6198716456709112e+00 1.0874777946829827e+01 9.5778408632733587e+00 
270 0 1 4.0000191425080889e+00 -2.3832830536190156e+02 1.0000000000000000e+00 5.3618393674384128e+00 1.1750110529008591e+01 9.8382323255796251e+00 
102 0 1 3.9996860778533163e+00 -2.4853514170583449e+02 1.0000000000000000e+00 5.9238365272228748e+00 1.0804058108123252e+01 7.3368957088249589e+00 
190 0 1 3.9999986840744000e+00 -3.6692284541047610e+02 1.0000000000000000e+00 4.9029298899671350e+00 1.1622189161108992e+01 8.4569583156305672e+00 
357 0 1 4.0000191664849298e+00 -2.8561693634588966e+02 1.0000000000000000e+00 5.3631470780567403e+00 1.1747943023292935e+01 9.8412433823354188e+00 
55 0 1 4.0000192690543006e+00 -3.5588201734815368e+02 1.0000000000000000e+00 5.3541435880872017e+00 1.1733806754824830e+01 9.8505617570456465e+00 
172 0 1 4.0000171452285347e+00 -2.5328691865212423e+02 1.0000000000000000e+00 5.2111481007638281e+00 1.1811885980147910e+01 9.6602995445816013e+00 
640 0 1 4.0000184944666888e+00 -4.3537048755558141e+02 1.0000000000000000e+00 5.0567491138066734e+00 1.1735510490811297e+01 9.6185292996786931e+00 
604 0 1 3.9999995266295612e+00 -3.1749118746384625e+02 1.0000000000000000e+00 4.8927503263751744e+00 1.1636119803067842e+01 8.4870256509824422e+00 
25 0 1 3.9999883310977893e+00 -3.3296614873204066e+02 1.0000000000000000e+00 5.1217923098862022e+00 1.1528238120727282e+01 8.1249135316560448e+00 
137 0 1 3.9999970620112872e+00 -2.4908143555594725e+02 1.0000000000000000e+00 4.9265397222400669e+00 1.1600186604821790e+01 8.4021270388164275e+00 
625 0 1 3.9999993189942460e+00 -3.6123699967298290e+02 1.0000000000000000e+00 4.8940321396416211e+00 1.1630971070552301e+01 8.4797808273394697e+00 
575 0 1 4.0000074817891802e+00 -4.0398326995064787e+02 1.0000000000000000e+00 5.6987831920050960e+00 1.2098959422444553e+01 9.5511043119351609e+00 
462 0 1 3.9999885486928073e+00 -3.7085480013351622e+02 1.0000000000000000e+00 5.1149462759521471e+00 1.1531322558972020e+01 8.1334133498637780e+00 
334 0 1 3.9999983425494379e+00 -2.7496942529897643e+02 1.0000000000000000e+00 4.9059488297527967e+00 1.1615020452715877e+01 8.4457064129032506e+00 
628 0 1 4.0000184645286847e+00 -3.4616723057887646e+02 1.0000000000000000e+00 4.7381640404993401e+00 1.1619862763049351e+01 9.2130563504095591e+00 
252 0 1 4.0000191547107118e+00 -3.8002276507918742e+02 1.0000000000000000e+00 5.3575173564335534e+00 1.1746124949208607e+01 9.8398672866963324e+00 
166 0 1 3.9999995147704257e+00 -4.1603018730296299e+02 1.0000000000000000e+00 4.8919452443202989e+00 1.1634527034769684e+01 8.4867872689534334e+00 
398 0 1 3.9999969231296069e+00 -2.5922452255026184e+02 1.0000000000000000e+00 5.2675502724885224e+00 1.0081367056054935e+01 1.0218502747918381e+01 
388 0 1 4.0000115771008922e+00 -2.2567821486651084e+02 1.0000000000000000e+00 5.0534669209612160e+00 1.0952451276012161e+01 1.0144433110155596e+01 
401 0 1 4.0000109759050062e+00 -3.7617559126179412e+02 1.0000000000000000e+00 5.0715074327348546e+00 1.0914947785216180e+01 1.0166431001678820e+01 
296 0 1 3.9999787033354739e+00 -2.0850178574336442e+02 1.0000000000000000e+00 7.9349307399423150e+00 8.7885823785433672e+00 3.0957343868362970e+00 
583 0 1 3.9999785564606243e+00 -3.5197940171043200e+02 1.0000000000000000e+00 7.9344782708237247e+00 8.7843859428575648e+00 3.0985061801785814e+00 
433 0 1 3.9999792933897997e+00 -2.2551239993221930e+02 1.0000000000000000e+00 7.9339195550813519e+00 8.8051235528613336e+00 3.0848693790960668e+00 
573 0 1 3.9999799343894908e+00 -4.3579809625924514e+02 1.0000000000000000e+00 7.9322572599143610e+00 8.8228208860681381e+00 3.0735809118075927e+00 
498 0 1 3.9999784538512646e+00 -4.0068281063562330e+02 1.0000000000000000e+00 7.9342879578257044e+00 8.7814119626202505e+00 3.1004919125927399e+00 
239 0 1 3.9999803024601395e+00 -4.1180557541495494e+02 1.0000000000000000e+00 7.9300140700979185e+00 8.8333072455048551e+00 3.0669907966564178e+00 
345 0 1 3.9999820430497635e+00 -2.1301584534700049e+02 1.0000000000000000e+00 7.9380999251173421e+00 8.8939007365103588e+00 3.0329827313893567e+00 
241 0 1 3.9999803989684102e+00 -3.4658001150197691e+02 1.0000000000000000e+00 7.9300783772539010e+00 8.8363194652217167e+00 3.0651661163510844e+00 
436 0 1 3.9999797692101655e+00 -2.2004073293680054e+02 1.0000000000000000e+00 7.9298727553179837e+00 8.8173650540443145e+00 3.0768482394691263e+00 
529 0 1 3.9999791151874682e+00 -2.5295727291108531e+02 1.0000000000000000e+00 7.9310248131969452e+00 8.7991417215587617e+00 3.0885768206238544e+00 
538 0 1 3.9999794537505240e+00 -2.7389415358267917e+02 1.0000000000000000e+00 7.9377264146268862e+00 8.8106938174931866e+00 3.0815482105751744e+00 
608 0 1 3.9999805000723692e+00 -3.6182207549635291e+02 1.0000000000000000e+00 7.9281592987350917e+00 8.8389900147856189e+00 3.0634341696112255e+00 
435 0 1 3.9999755728263557e+00 -3.5738549431423786e+02 1.0000000000000000e+00 7.9332306615946253e+00 8.7074113169935003e+00 3.1538680345449817e+00 
273 0 1 4.0000399257218744e+00 -3.9642259058587058e+02 1.0000000000000000e+00 1.2048068611454573e+01 6.5858300875423161e+00 5.1129162204947347e+00 
88 0 1 4.0000402374803450e+00 -3.1788295870995870e+02 1.0000000000000000e+00 1.2050507770847982e+01 6.5857900557339439e+00 5.1169227184152684e+00 
555 0 1 4.0000421067493921e+00 -3.0419132910161164e+02 1.0000000000000000e+00 1.2066690053268001e+01 6.5859551158830270e+00 5.1440575761745544e+00 
441 0 1 4.0000424367839207e+00 -2.4767766980014076e+02 1.0000000000000000e+00 1.2069817636738494e+01 6.5860426674835564e+00 5.1495857315679983e+00 
48 0 1 4.0000390679534314e+00 -3.2457135971022581e+02 1.0000000000000000e+00 1.2041516967731056e+01 6.5862302288374339e+00 5.1013627210651782e+00 
505 0 1 4.0000386892946693e+00 -2.8659356515751352e+02 1.0000000000000000e+00 1.2038965230535728e+01 6.5864696398887155e+00 5.0967050177450810e+00 
68 0 1 4.0000448728532172e+00 -3.1269365016740051e+02 1.0000000000000000e+00 1.2091044915460305e+01 6.5876823679505252e+00 5.1869533499005991e+00 
129 0 1 4.0000453866469954e+00 -2.2480202718424891e+02 1.0000000000000000e+00 1.2095338997774844e+01 6.5882281904643651e+00 5.1945189824648894e+00 
186 0 1 4.0000462334146887e+00 -1.9935913636141754e+02 1.0000000000000000e+00 1.2101457019881359e+01 6.5890586333715433e+00 5.2057733979340890e+00 
515 0 1 4.0000456569143701e+00 -2.5144063424539740e+02 1.0000000000000000e+00 1.2097848950904625e+01 6.5886608587466577e+00 5.1984347699561981e+00 
272 0 1 4.0000491371008460e+00 -2.4871692970842861e+02 1.0000000000000000e+00 1.2121052206993046e+01 6.5926853893178565e+00 5.2424566825728478e+00 
227 0 1 4.0000737041055316e+00 -2.0275610217531408e+02 1.0000000000000000e+00 1.1883975536793367e+01 6.5046589294193895e+00 5.3614159525929077e+00 
414 0 1 4.0000492867275810e+00 -2.8967951029444401e+02 1.0000000000000000e+00 1.2131139603462676e+01 6.5964221599218815e+00 5.2505470376782402e+00 
289 0 1 4.0000229243409198e+00 -2.8331194929001663e+02 1.0000000000000000e+00 1.1901688972022214e+01 6.6220007558196530e+00 4.8854931393009311e+00 
467 0 1 4.0000151953695715e+00 -2.0108761513034565e+02 1.0000000000000000e+00 1.1869876874786618e+01 6.6577100073835398e+00 4.7995059014283363e+00 
171 0 1 4.0000678527408802e+00 -2.4984392131118273e+02 1.0000000000000000e+00 1.2256612599222017e+01 6.6631813590339073e+00 5.4995372263033140e+00 
470 0 1 4.0014116713359282e+00 -2.8811429926122548e+02 1.0000000000000000e+00 9.5210417870657160e+00 6.7632965830687564e+00 6.2780759212330510e+00 
375 0 1 3.9999644851783076e+00 -2.5713654896063821e+02 1.0000000000000000e+00 7.7661219024925208e+00 8.4649817375408016e+00 3.4318092917183547e+00 
168 0 1 3.9998124864505140e+00 -5.1114503478530810e+02 1.0000000000000000e+00 8.7756069636796443e+00 7.3048003309607479e+00 5.1194868328710079e+00 
263 0 1 3.9999997965713581e+00 -2.3697082950504563e+02 1.0000000000000000e+00 6.8383052680235412e+00 9.5422100931779728e+00 3.8795236302622391e+00 
340 0 1 3.9998134779500569e+00 -2.2647396001888103e+02 1.0000000000000000e+00 8.7863371015934302e+00 7.3020126112331960e+00 5.1196302865505254e+00 
167 0 1 3.9998133688062723e+00 -4.0723620337385154e+02 1.0000000000000000e+00 8.7869411051690118e+00 7.3015471743506080e+00 5.1202276121815231e+00 
275 0 1 3.9998128494286802e+00 -2.7517413010473092e+02 1.0000000000000000e+00 8.7851558413863060e+00 7.3013836970099142e+00 5.1213761413784669e+00 
584 0 1 3.9998125748577187e+00 -3.3841742168519067e+02 1.0000000000000000e+00 8.7837330600692081e+00 7.3014977554384179e+00 5.1218348720250013e+00 
211 0 1 3.9998097799782157e+00 -2.5202002529665421e+02 1.0000000000000000e+00 8.7754430900190243e+00 7.2997086513160596e+00 5.1293246392118927e+00 
286 0 1 3.9998118916234890e+00 -2.8574602881844510e+02 1.0000000000000000e+00 8.7836839680227374e+00 7.3002557465359574e+00 5.1242204901926023e+00 
330 0 1 3.9998126289289422e+00 -3.3239036419940572e+02 1.0000000000000000e+00 8.7844078075083694e+00 7.3013120193786225e+00 5.1218665135157062e+00 
221 0 1 3.9998128275769220e+00 -1.8740211343611705e+02 1.0000000000000000e+00 8.7846146421208129e+00 7.3015719224301208e+00 5.1212753730784470e+00 
521 0 1 3.9998126564514513e+00 -2.5800135984335753e+02 1.0000000000000000e+00 8.7821976187414190e+00 7.3022741139059484e+00 5.1210940067207344e+00 
502 0 1 4.0000003775167183e+00 -2.4165513121419761e+02 1.0000000000000000e+00 6.8405832726637028e+00 9.5529890819051353e+00 3.8699879038917091e+00 
337 0 1 4.0001313419999427e+00 -4.0167733160320188e+02 1.0000000000000000e+00 9.5337020451658780e+00 7.2250048990715712e+00 5.1962882991155377e+00 
471 0 1 3.9998119400691641e+00 -2.4754319694430984e+02 1.0000000000000000e+00 8.7829664717071640e+00 7.3006735534679370e+00 5.1237690707023749e+00 
248 0 1 3.9998114213377693e+00 -2.9557716944000822e+02 1.0000000000000000e+00 8.7810838564889124e+00 7.3005732780919441e+00 5.1248702798243162e+00 
132 0 1 3.9999854870354246e+00 -2.3976201124958342e+02 1.0000000000000000e+00 7.1855853215481424e+00 8.7903658736828483e+00 3.6290625307327939e+00 
18 0 1 3.9999904892009632e+00 -3.2892622854867125e+02 1.0000000000000000e+00 6.8283687204981458e+00 9.3704200251494605e+00 3.9995129483074838e+00 
251 0 1 3.9998153984982516e+00 -3.1523372084243658e+02 1.0000000000000000e+00 8.7928153812740977e+00 7.3045783253140080e+00 5.1118614188136284e+00 
476 0 1 4.0005920011174183e+00 -3.8847685532429114e+02 1.0000000000000000e+00 8.2894376973737351e+00 7.4813992909971283e+00 6.1283062353391058e+00 
328 0 1 4.0005613108959626e+00 -4.3995566877663458e+02 1.0000000000000000e+00 6.9336831399367114e+00 9.1069868768993594e+00 5.8680348545178607e+00 
373 0 1 4.0013920732879011e+00 -2.3879712691322450e+02 1.0000000000000000e+00 9.8206832183074351e+00 8.3906329194170937e+00 5.0921907760150242e+00 
294 0 1 3.9999393235770242e+00 -3.0952323032964978e+02 1.0000000000000000e+00 6.9663200725207641e+00 8.8826674348335946e+00 4.5279970963338432e+00 
178 0 1 4.0000811057020753e+00 -2.2103298512011347e+02 1.0000000000000000e+00 9.1134506563795288e+00 9.2032415240801306e+00 4.9451221065573048e+00 
280 0 1 3.9998194694523037e+00 -3.1388445011392503e+02 1.0000000000000000e+00 8.6254092675153871e+00 7.2805153425422819e+00 5.2983360157328860e+00 
569 0 1 4.0004731175948534e+00 -4.4724986213254022e+02 1.0000000000000000e+00 8.2527802851619025e+00 7.5222178226073151e+00 6.0495123766197016e+00 
577 0 1 4.0000091900324390e+00 -3.4716347555627107e+02 1.0000000000000000e+00 8.6601997493647378e+00 7.1689954020258240e+00 6.5292424382304066e+00 
517 0 1 4.0000299283224319e+00 -2.2022562001589102e+02 1.0000000000000000e+00 8.7013320695041614e+00 7.1308203570114514e+00 5.7759519007925553e+00 
550 0 1 4.0000633651505462e+00 -2.3983393384035656e+02 1.0000000000000000e+00 8.8417013986542798e+00 8.9100736177989699e+00 5.1184311496125172e+00 
234 0 1 4.0004089365439874e+00 -2.3850077586600807e+02 1.0000000000000000e+00 9.9571013103325452e+00 7.0688693184620988e+00 5.3620741248020911e+00 
629 0 1 3.9997551184040807e+00 -3.1738273583426087e+02 1.0000000000000000e+00 8.5846428467507714e+00 7.2519564205269473e+00 6.4552338860101663e+00 
353 0 1 4.0016575984663181e+00 -2.1303405970519967e+02 1.0000000000000000e+00 8.2415561904022319e+00 7.5754525385512874e+00 5.9950874827717442e+00 
259 0 1 4.0003739678877270e+00 -3.9657163592017002e+02 1.0000000000000000e+00 9.8255870800379075e+00 9.7047377921645808e+00 4.2178961303681453e+00 
488 0 1 3.9988171473755054e+00 -4.4642187150749027e+02 1.0000000000000000e+00 8.6916695583306662e+00 7.1095937594210206e+00 6.0075747010075879e+00 
149 0 1 4.0000896570321745e+00 -2.7708898552701015e+02 1.0000000000000000e+00 7.5957844180389111e+00 9.8406816978895257e+00 5.5705876744918230e+00 
430 0 1 3.9998848547269423e+00 -1.9952236921218966e+02 1.0000000000000000e+00 8.6449942887426996e+00 7.9320083491378117e+00 4.1960894031437030e+00 
418 0 1 4.0001918672879366e+00 -2.2335126475118506e+02 1.0000000000000000e+00 1.0124442046562985e+01 6.7529271244092222e+00 6.1804332298976368e+00 
161 0 1 4.0000076691907109e+00 -3.8136580402043734e+02 1.0000000000000000e+00 1.1719149169800810e+01 6.7234587761418281e+00 4.6720996033999187e+00 
317 0 1 4.0000050446997468e+00 -3.3480613907816695e+02 1.0000000000000000e+00 1.1705924431703156e+01 6.7474227020571806e+00 4.6376147996180244e+00 
503 0 1 3.9999648318395478e+00 -2.5085859051969638e+02 1.0000000000000000e+00 1.2659706807445492e+01 7.4757021859984478e+00 4.8572601275539267e+00 
594 0 1 3.9998996363857331e+00 -3.4297698506624891e+02 1.0000000000000000e+00 1.1729757128308213e+01 8.5774142962828304e+00 4.0248291921864281e+00 
580 0 1 3.9998981847597199e+00 -3.5723838895822234e+02 1.0000000000000000e+00 1.1721745538223111e+01 8.6041032535133137e+00 4.0277406947584069e+00 
520 0 1 3.9999472647794572e+00 -2.3145353865164375e+02 1.0000000000000000e+00 1.1761448610925289e+01 7.7057766614243945e+00 4.0374822618954331e+00 
513 0 1 3.9998938148198175e+00 -2.7926433034253841e+02 1.0000000000000000e+00 1.1694169633373127e+01 8.6717290010172299e+00 4.0337450997967945e+00 
218 0 1 3.9999354871729493e+00 -3.6765168203333656e+02 1.0000000000000000e+00 1.1798003998739055e+01 7.9227077190515702e+00 4.0079162583885077e+00 
196 0 1 3.9999073385102499e+00 -2.4841563538063124e+02 1.0000000000000000e+00 1.1775835259059100e+01 8.4352083924660892e+00 4.0147217152140025e+00 
607 0 1 3.9998898791220583e+00 -3.1700733589669619e+02 1.0000000000000000e+00 1.1661871165043229e+01 8.7451679959705579e+00 4.0411061493246132e+00 
258 0 1 3.9998917943007983e+00 -2.7009704869877908e+02 1.0000000000000000e+00 1.1675215047243231e+01 8.7154235028594460e+00 4.0380159165311271e+00 
360 0 1 3.9998504898550329e+00 -2.4958625633483766e+02 1.0000000000000000e+00 1.1382449910910506e+01 9.3526546368994801e+00 4.1483434470328540e+00 
419 0 1 3.9998930829294341e+00 -2.5582217620319483e+02 1.0000000000000000e+00 1.1687277153009237e+01 8.6881032780143617e+00 4.0353470284565640e+00 
157 0 1 3.9998928196895656e+00 -3.1488579178205327e+02 1.0000000000000000e+00 1.1685842171662962e+01 8.6914289060710477e+00 4.0356707241156791e+00 
146 0 1 3.9998432439874065e+00 -2.3306297777128577e+02 1.0000000000000000e+00 1.1349311376820854e+01 9.4194182119864855e+00 4.1633634362232499e+00 
464 0 1 3.9998901641190927e+00 -2.5194208586288840e+02 1.0000000000000000e+00 1.1665090127216798e+01 8.7378738136493173e+00 4.0403061527474744e+00 
397 0 1 3.9998647198091501e+00 -2.8157722554386697e+02 1.0000000000000000e+00 1.1436271497323968e+01 9.2375925647218118e+00 4.1227629720190189e+00 
393 0 1 3.9999658142583510e+00 -4.0836992833964206e+02 1.0000000000000000e+00 1.1896873326690002e+01 7.1557007816772842e+00 4.2778138376596662e+00 
352 0 1 4.0003297646403810e+00 -2.7657977522108717e+02 1.0000000000000000e+00 1.1396194291983416e+01 9.4479603457297134e+00 5.3598311613600815e+00 
560 0 1 3.9998996875016157e+00 -3.3037396897077815e+02 1.0000000000000000e+00 1.1732366275550811e+01 8.5756685871258274e+00 4.0253419761321032e+00 
405 0 1 4.0000223698825161e+00 -3.9932093955561959e+02 1.0000000000000000e+00 1.2606522191574399e+01 7.0768119231543256e+00 5.5263332916569139e+00 
612 0 1 3.9999020952144155e+00 -3.1993857369982629e+02 1.0000000000000000e+00 1.1776356033092938e+01 8.5160339111796066e+00 4.0287499347155329e+00 
553 0 1 4.0000103900916217e+00 -3.8330854462108539e+02 1.0000000000000000e+00 1.2936739323252732e+01 8.5587076685552237e+00 6.4536531544657265e+00 
411 0 1 4.0000746228404980e+00 -2.9704691621599477e+02 1.0000000000000000e+00 1.2352169359782311e+01 8.3895985218776854e+00 6.3147769401471132e+00 
638 0 1 3.9998172023604321e+00 -5.9364694181836762e+02 1.0000000000000000e+00 1.2143896468417640e+01 8.3842066003503568e+00 6.2057062942088654e+00 
9 0 1 3.9998643997142245e+00 -3.5704834455392989e+02 1.0000000000000000e+00 1.1303554354901436e+01 9.2278290403907643e+00 4.0817771738386934e+00 
314 0 1 4.0017121864936502e+00 -2.8520995379044058e+02 1.0000000000000000e+00 1.2080833581334021e+01 9.6354257384768527e+00 5.5208070055602674e+00 
257 0 1 3.9998735993994958e+00 -2.2125027493248106e+02 1.0000000000000000e+00 1.1632975012242825e+01 8.9911541664980739e+00 4.1079301237398269e+00 
511 0 1 4.0002407906351340e+00 -4.1054977772854295e+02 1.0000000000000000e+00 1.0705055865563498e+01 9.2720476356039701e+00 5.1624685317653016e+00 
209 0 1 3.9978275570614930e+00 -1.9347443979671849e+02 1.0000000000000000e+00 1.0672521334888566e+01 6.9200093542880579e+00 6.5047047171243912e+00 
256 0 1 4.0017073402173109e+00 -2.4719171048055495e+02 1.0000000000000000e+00 1.1921652068276542e+01 9.6347171590453975e+00 5.4176353937047530e+00 
343 0 1 4.0006319978857494e+00 -2.7589010960331223e+02 1.0000000000000000e+00 1.2777712382822243e+01 8.2299199134167278e+00 6.4836737012739931e+00 
191 0 1 3.9994133056723640e+00 -2.2259328073927659e+02 1.0000000000000000e+00 1.0710874416345176e+01 7.2048882843556274e+00 6.1915561838189328e+00 
463 0 1 4.0001664567665340e+00 -3.8129062382945926e+02 1.0000000000000000e+00 9.4896319017200952e+00 6.5415371041820629e+00 8.9679622657701525e+00 
249 0 1 4.0000292639975914e+00 -3.1452718862063671e+02 1.0000000000000000e+00 9.6817090153106165e+00 5.4345688435431105e+00 8.2852146848715407e+00 
199 0 1 4.0001596071437620e+00 -1.9148451292516881e+02 1.0000000000000000e+00 9.5074181519173067e+00 6.5106128637036553e+00 8.9668322603682409e+00 
535 0 1 4.0001602263101033e+00 -2.6629632885530634e+02 1.0000000000000000e+00 9.5070046329311513e+00 6.5132928259863592e+00 8.9677934124298435e+00 
595 0 1 4.0001624041834223e+00 -5.1481184633301905e+02 1.0000000000000000e+00 9.4890365231650762e+00 6.5293607584213884e+00 8.9616915183078785e+00 
108 0 1 4.0001590107667226e+00 -2.5996469906427893e+02 1.0000000000000000e+00 9.5090579398253414e+00 6.5090606669183932e+00 8.9673337011722971e+00 
490 0 1 4.0001585903644079e+00 -5.2264785424151341e+02 1.0000000000000000e+00 9.5094973024391898e+00 6.5071282394422694e+00 8.9667469143391401e+00 
49 0 1 4.0001554193906106e+00 -4.0129050390603271e+02 1.0000000000000000e+00 9.5134245207203563e+00 6.4978486539079290e+00 8.9652959289247391e+00 
448 0 1 4.0001536353476110e+00 -3.6037901489180916e+02 1.0000000000000000e+00 9.5227523626760764e+00 6.4836830214651959e+00 8.9655362685824311e+00 