LAMMPS data file via write_data, version 30 Jul 2016, timestep = 100000000

644 atoms
2 atom types

0.0000000000000000e+00 2.0000000000000000e+01 xlo xhi
0.0000000000000000e+00 2.0000000000000000e+01 ylo yhi
0.0000000000000000e+00 2.0000000000000000e+01 zlo zhi

Masses

1 4.31
2 3.896

Atoms # meso-molecular

177 0 1 4.0000300267583651e+00 -2.5372108485290624e+02 1.0000000000000000e+00 5.6393821624633160e+00 8.7551918287771855e+00 6.4626390745885942e+00 
543 0 1 4.0000300490961864e+00 -2.4390602482805400e+02 1.0000000000000000e+00 5.6395020921043271e+00 8.7551564429170980e+00 6.4624492118590959e+00 
11 0 1 4.0000300537872056e+00 -3.6717787928626643e+02 1.0000000000000000e+00 5.6395232709768486e+00 8.7550740767720541e+00 6.4623909115433547e+00 
282 0 1 4.0000300437970049e+00 -2.3021130460292045e+02 1.0000000000000000e+00 5.6394738019892667e+00 8.7551346805859893e+00 6.4624841800348030e+00 
523 0 1 4.0000300409275660e+00 -2.1719954653105563e+02 1.0000000000000000e+00 5.6394553691314178e+00 8.7551500306120378e+00 6.4625165869654957e+00 
363 0 1 4.0000300559907345e+00 -2.7968222300126712e+02 1.0000000000000000e+00 5.6395277933390879e+00 8.7550817633224618e+00 6.4623866947128246e+00 
274 0 1 4.0000300874911039e+00 -4.1951737182080097e+02 1.0000000000000000e+00 5.6397049304291418e+00 8.7550881752118030e+00 6.4621255992971882e+00 
466 0 1 4.0000300506768474e+00 -1.9621847178672689e+02 1.0000000000000000e+00 5.6395076137236799e+00 8.7551273340634435e+00 6.4624315243083812e+00 
536 0 1 4.0000300891648770e+00 -2.5476054149167462e+02 1.0000000000000000e+00 5.6397101730065762e+00 8.7550802675460773e+00 6.4621152430342512e+00 
327 0 1 4.0000300186127031e+00 -4.5684887692769638e+02 1.0000000000000000e+00 5.6393187356165786e+00 8.7551964379403362e+00 6.4627349345436391e+00 
254 0 1 4.0000300791453753e+00 -2.4899438299320812e+02 1.0000000000000000e+00 5.6396624807273259e+00 8.7550920638107979e+00 6.4621899158631253e+00 
163 0 1 4.0000301089722132e+00 -4.2507969152000692e+02 1.0000000000000000e+00 5.6398305321108948e+00 8.7550205864265696e+00 6.4619171416941592e+00 
570 0 1 4.0000296086564804e+00 -4.4410856427464495e+02 1.0000000000000000e+00 5.6371998959644420e+00 8.7554781318161474e+00 6.4659938688891154e+00 
534 0 1 4.0000287760160855e+00 -2.3786707948710793e+02 1.0000000000000000e+00 5.6326965977899057e+00 8.7591403506490941e+00 6.4740784625807954e+00 
597 0 1 4.0000304998946286e+00 -3.5210677798416998e+02 1.0000000000000000e+00 5.6420390238208524e+00 8.7520765868703823e+00 6.4577181362227929e+00 
621 0 1 4.0000300210600956e+00 -3.2982654663938581e+02 1.0000000000000000e+00 5.6393540048748108e+00 8.7551315770170870e+00 6.4626613111075919e+00 
585 0 1 4.0000298778317829e+00 -3.5518856822916217e+02 1.0000000000000000e+00 5.6385574319929814e+00 8.7566345745123311e+00 6.4643424784956851e+00 
169 0 1 3.9999982883202150e+00 -3.1234542526899753e+02 1.0000000000000000e+00 5.1160983804782347e+00 9.8214525380049089e+00 9.5925381580158149e+00 
40 0 1 4.0000043079593626e+00 -3.1378255614924223e+02 1.0000000000000000e+00 5.2609991841103909e+00 9.7974520619476611e+00 9.9304265611996474e+00 
527 0 1 4.0000277695624442e+00 -2.7674872614330320e+02 1.0000000000000000e+00 6.0302975594261223e+00 7.1263213638793301e+00 7.7376381213772421e+00 
58 0 1 4.0000296875582908e+00 -3.4921511646525039e+02 1.0000000000000000e+00 6.0572832808489174e+00 7.1035520551181257e+00 7.7165954089377458e+00 
346 0 1 4.0000325841661857e+00 -2.2889391460183788e+02 1.0000000000000000e+00 6.1134557571279329e+00 7.0710939121238141e+00 7.6956983777051908e+00 
81 0 1 4.0000298315381952e+00 -4.7133427521898409e+02 1.0000000000000000e+00 6.0599165359132661e+00 7.1022370667749826e+00 7.7163889352519410e+00 
355 0 1 4.0000211923666678e+00 -2.3147667345968875e+02 1.0000000000000000e+00 5.9104714233713853e+00 7.1731579334625550e+00 7.6860792591889933e+00 
637 0 1 3.9999497174870271e+00 -5.2565081485326380e+02 1.0000000000000000e+00 5.5970816135106070e+00 8.7064348261160820e+00 7.7837156217070431e+00 
410 0 1 4.0000292150146555e+00 -2.8842842197883010e+02 1.0000000000000000e+00 6.0790680757076947e+00 7.0329002114237564e+00 7.4267647415611009e+00 
139 0 1 4.0000310327739390e+00 -2.7925384413377373e+02 1.0000000000000000e+00 6.0829161621683792e+00 7.0909777325890602e+00 7.7141781701724206e+00 
559 0 1 4.0000295007237225e+00 -2.7796932586745652e+02 1.0000000000000000e+00 6.0543780304849202e+00 7.1057275625511087e+00 7.7184737020900416e+00 
285 0 1 4.0000314969224258e+00 -2.0738056864551501e+02 1.0000000000000000e+00 6.0910974865208392e+00 7.0848687757360844e+00 7.7077862716953138e+00 
224 0 1 4.0000306266229551e+00 -2.5404470108101941e+02 1.0000000000000000e+00 6.0734740411977262e+00 7.0930878099422552e+00 7.7092417177465489e+00 
4 0 1 4.0000284635638090e+00 -5.0334721235159122e+02 1.0000000000000000e+00 6.0363985206032291e+00 7.1153527509778263e+00 7.7205537537909921e+00 
52 0 1 4.0000295990305768e+00 -3.6970724922798229e+02 1.0000000000000000e+00 6.0559935895303703e+00 7.1047132782708760e+00 7.7178882274985430e+00 
589 0 1 4.0000306332443403e+00 -4.0557907111656999e+02 1.0000000000000000e+00 6.0735968219082208e+00 7.0929926650368822e+00 7.7091426551866649e+00 
366 0 1 4.0000309740593512e+00 -2.7374745940474065e+02 1.0000000000000000e+00 6.0801265456329761e+00 7.0895619022103906e+00 7.7077657938618529e+00 
75 0 1 4.0000294910265923e+00 -3.6436415052730433e+02 1.0000000000000000e+00 6.0540529296744490e+00 7.1056666374619857e+00 7.7179789206811780e+00 
153 0 1 4.0000305223129224e+00 -3.1725107440289156e+02 1.0000000000000000e+00 6.0718056431960994e+00 7.0946744253681686e+00 7.7112868676739570e+00 
395 0 1 4.0000312347387696e+00 -2.5773729898269897e+02 1.0000000000000000e+00 6.0852854942866230e+00 7.0869580696621632e+00 7.7068341096066604e+00 
207 0 1 4.0000314275717690e+00 -1.9016313069467012e+02 1.0000000000000000e+00 6.0901328303824158e+00 7.0860010181588740e+00 7.7095850848538827e+00 
478 0 1 4.0000300895970264e+00 -3.1541254224380782e+02 1.0000000000000000e+00 6.0643702454665958e+00 7.0994790017299634e+00 7.7147305136237616e+00 
501 0 1 4.0000334200138052e+00 -2.4295936508565120e+02 1.0000000000000000e+00 6.2321714774730825e+00 9.5369335664635120e+00 1.0178256150498402e+01 
237 0 1 4.0000339341401272e+00 -2.4394516876807742e+02 1.0000000000000000e+00 6.2457907909750841e+00 9.5294984237386338e+00 1.0172347298191818e+01 
299 0 1 4.0000318057443849e+00 -2.0879124165633451e+02 1.0000000000000000e+00 6.1954973046857891e+00 9.5512060533485279e+00 1.0188937410274463e+01 
193 0 1 4.0000345757252767e+00 -1.9025275302571623e+02 1.0000000000000000e+00 6.2656615076748148e+00 9.5243752619277213e+00 1.0168232823150879e+01 
452 0 1 4.0000306744882073e+00 -1.9249974513041386e+02 1.0000000000000000e+00 6.1736831273818700e+00 9.5597134126277084e+00 1.0194933146850941e+01 
601 0 1 4.0000344192471688e+00 -3.2673321217444999e+02 1.0000000000000000e+00 6.2618452797892701e+00 9.5271794136042942e+00 1.0170528023796804e+01 
195 0 1 4.0000344672122310e+00 -1.9269034638440198e+02 1.0000000000000000e+00 6.2633374795212253e+00 9.5269225473499990e+00 1.0170317665506625e+01 
491 0 1 4.0000172059049461e+00 -3.3919180584501737e+02 1.0000000000000000e+00 5.6928760167709669e+00 9.6529317597133435e+00 1.0155408889775599e+01 
164 0 1 4.0000345347202551e+00 -3.9920193575056931e+02 1.0000000000000000e+00 6.2660896878205277e+00 9.5257879192224255e+00 1.0169387464668667e+01 
33 0 1 4.0000343817994697e+00 -3.3514027151694341e+02 1.0000000000000000e+00 6.2633170799319409e+00 9.5282973074259480e+00 1.0171437207493552e+01 
391 0 1 4.0000186415551484e+00 -2.4143964445693686e+02 1.0000000000000000e+00 5.7435256529814875e+00 9.6469408423987044e+00 1.0174218252767806e+01 
156 0 1 4.0000158263011949e+00 -3.4372280675392125e+02 1.0000000000000000e+00 5.6402677997183535e+00 9.6633040094850369e+00 1.0136403064537712e+01 
283 0 1 4.0000182691999360e+00 -2.5312597128142954e+02 1.0000000000000000e+00 5.7264878322294033e+00 9.6511281353328542e+00 1.0170473555428117e+01 
59 0 1 4.0000194095000312e+00 -3.1398651856159114e+02 1.0000000000000000e+00 5.7693202238183172e+00 9.6498232273085307e+00 1.0188138696479317e+01 
77 0 1 4.0000090048283825e+00 -4.2120860159316777e+02 1.0000000000000000e+00 5.4175571719451803e+00 9.7289702786674024e+00 1.0033009794161783e+01 
130 0 1 4.0000122966797322e+00 -2.5879685480737561e+02 1.0000000000000000e+00 5.5185185837297404e+00 9.7506857106083142e+00 1.0147826935871208e+01 
549 0 1 3.9999912488672420e+00 -2.3696628477537595e+02 1.0000000000000000e+00 6.6005957601710419e+00 1.0718959631078954e+01 6.3349833672948561e+00 
126 0 1 4.0015467061843779e+00 -4.1018913695104754e+02 1.0000000000000000e+00 6.3497565049899585e+00 1.0353958693290226e+01 6.5265017334814610e+00 
376 0 1 3.9994347186492503e+00 -2.0763375847841675e+02 1.0000000000000000e+00 6.5477936813950306e+00 1.0769311923032888e+01 6.5873871877986483e+00 
541 0 1 3.9999983364019629e+00 -2.6959452816757425e+02 1.0000000000000000e+00 5.0929100271156624e+00 1.1540327094214913e+01 8.1619506315451140e+00 
245 0 1 3.9999984703366711e+00 -5.4930445874976465e+02 1.0000000000000000e+00 5.1018388740029010e+00 1.1536770301551311e+01 8.1506675867072591e+00 
384 0 1 4.0000111108113723e+00 -2.3778351912189819e+02 1.0000000000000000e+00 6.6204853663858483e+00 1.1046918517188841e+01 6.7555329376626316e+00 
230 0 1 3.9999959411453125e+00 -2.3252912393502476e+02 1.0000000000000000e+00 4.9103251459181312e+00 1.1614334833713789e+01 8.4428749738656528e+00 
247 0 1 4.0000003457711655e+00 -3.2553223185140871e+02 1.0000000000000000e+00 5.2161022114427977e+00 1.1471010490530894e+01 8.0089228015168601e+00 
63 0 1 3.9999899952069971e+00 -3.9780952736087352e+02 1.0000000000000000e+00 4.7418178411455107e+00 1.0358221516247538e+01 9.5608073855343605e+00 
298 0 1 3.9999956224630471e+00 -2.5160826785831082e+02 1.0000000000000000e+00 5.0619329045599422e+00 1.1612180789167068e+01 9.7588401269981624e+00 
339 0 1 3.9999959813069843e+00 -2.3256562032456344e+02 1.0000000000000000e+00 4.9147747683520686e+00 1.1610996162506774e+01 8.4329878942779697e+00 
620 0 1 3.9999958838280207e+00 -3.6057542346157459e+02 1.0000000000000000e+00 4.9609172655252323e+00 1.0054744843759204e+01 9.7548779553884213e+00 
616 0 1 4.0000044261414986e+00 -3.9277020742508483e+02 1.0000000000000000e+00 5.5549093892830932e+00 1.0509560154607904e+01 7.7039323526588657e+00 
125 0 1 4.0000001209193670e+00 -2.7761274452094102e+02 1.0000000000000000e+00 5.2016522626170811e+00 1.1482156197881533e+01 8.0268905749215822e+00 
160 0 1 3.9999960155733292e+00 -3.1930286896981579e+02 1.0000000000000000e+00 4.9193172467021133e+00 1.1607384744423410e+01 8.4229109009691658e+00 
73 0 1 3.9999876993770029e+00 -3.5056504131253752e+02 1.0000000000000000e+00 4.6254103869551946e+00 1.0872862545625003e+01 9.5742959391241964e+00 
270 0 1 3.9999983332583771e+00 -2.3832830665847604e+02 1.0000000000000000e+00 5.3649861046440570e+00 1.1749178709216586e+01 9.8351241563272609e+00 
102 0 1 3.9999734455703337e+00 -2.4853511455915319e+02 1.0000000000000000e+00 5.9207545056842719e+00 1.0811582916854489e+01 7.3353814098075851e+00 
190 0 1 3.9999959525892970e+00 -3.6692285089482817e+02 1.0000000000000000e+00 4.9076316392711732e+00 1.1620388015228839e+01 8.4526342737957361e+00 
357 0 1 3.9999982973546246e+00 -2.8561693763097912e+02 1.0000000000000000e+00 5.3663052505664535e+00 1.1746996465828257e+01 9.8381757525671105e+00 
55 0 1 3.9999980422707644e+00 -3.5588201860443695e+02 1.0000000000000000e+00 5.3573045680636664e+00 1.1732785641043307e+01 9.8475920556331538e+00 
172 0 1 3.9999985918487804e+00 -2.5328692060513140e+02 1.0000000000000000e+00 5.2139367503109524e+00 1.1811161551298731e+01 9.6552098922492924e+00 
640 0 1 3.9999966893212147e+00 -4.3537048936325510e+02 1.0000000000000000e+00 5.0596476914375614e+00 1.1734556337492922e+01 9.6130636523688864e+00 
604 0 1 3.9999958991978604e+00 -3.1749119285728318e+02 1.0000000000000000e+00 4.8974946248044784e+00 1.1634249551478360e+01 8.4826021970853969e+00 
25 0 1 3.9999989479897553e+00 -3.3296615540496799e+02 1.0000000000000000e+00 5.1252398117467504e+00 1.1526462440143813e+01 8.1212887791710031e+00 
137 0 1 3.9999961400948827e+00 -2.4908144122519437e+02 1.0000000000000000e+00 4.9311198848892870e+00 1.1598500908514575e+01 8.3979894677636668e+00 
625 0 1 3.9999958757615550e+00 -3.6123700507986240e+02 1.0000000000000000e+00 4.8987746954431524e+00 1.1629126276696690e+01 8.4753817039264607e+00 
575 0 1 4.0000087296445628e+00 -4.0398327202972047e+02 1.0000000000000000e+00 5.7019857781896075e+00 1.2098478274942295e+01 9.5465333545524658e+00 
462 0 1 3.9999988487077291e+00 -3.7085480679659082e+02 1.0000000000000000e+00 5.1184279078320980e+00 1.1529556011813494e+01 8.1297849328016909e+00 
334 0 1 3.9999959354027035e+00 -2.7496943080820506e+02 1.0000000000000000e+00 4.9106395787695334e+00 1.1613257068628148e+01 8.4414216011072600e+00 
628 0 1 3.9999931267223277e+00 -3.4616723282873699e+02 1.0000000000000000e+00 4.7429443255690060e+00 1.1618526265449212e+01 9.2073246391134695e+00 
252 0 1 3.9999982439011466e+00 -3.8002276637181967e+02 1.0000000000000000e+00 5.3606575144672597e+00 1.1745175014432133e+01 9.8367701186537229e+00 
166 0 1 3.9999958729823573e+00 -4.1603019269013254e+02 1.0000000000000000e+00 4.8966954178990898e+00 1.1632664883012222e+01 8.4823652318272860e+00 
398 0 1 4.0000041110457847e+00 -2.5922455042408978e+02 1.0000000000000000e+00 5.2775212674889422e+00 1.0081650736782654e+01 1.0221111704157867e+01 
388 0 1 3.9999931113799363e+00 -2.2567821771739619e+02 1.0000000000000000e+00 5.0590462497074675e+00 1.0947442540173137e+01 1.0144474966415507e+01 
401 0 1 3.9999933745222020e+00 -3.7617559472706210e+02 1.0000000000000000e+00 5.0774818862505526e+00 1.0909725022193143e+01 1.0166752006286357e+01 
296 0 1 4.0000376412729723e+00 -2.0850178710854436e+02 1.0000000000000000e+00 7.9319599759889572e+00 8.7943135768059282e+00 3.0994767894924067e+00 
583 0 1 4.0000378971149280e+00 -3.5197940308953849e+02 1.0000000000000000e+00 7.9314837815035384e+00 8.7902175779448939e+00 3.1022249354813987e+00 
433 0 1 4.0000365870837520e+00 -2.2551240124098413e+02 1.0000000000000000e+00 7.9310712621892545e+00 8.8104515955777227e+00 3.0887240167421859e+00 
573 0 1 4.0000354218887297e+00 -4.3579809751000386e+02 1.0000000000000000e+00 7.9295455422359886e+00 8.8277139548487007e+00 3.0775505009406006e+00 
498 0 1 4.0000380812687668e+00 -4.0068281202493353e+02 1.0000000000000000e+00 7.9312753320444234e+00 8.7873148674193189e+00 3.1041924772601144e+00 
239 0 1 4.0000347048818501e+00 -4.1180557663144964e+02 1.0000000000000000e+00 7.9273952067817541e+00 8.8379393318918655e+00 3.0710339204557782e+00 
345 0 1 4.0000308542781893e+00 -2.1301584641879131e+02 1.0000000000000000e+00 7.9358356780000570e+00 8.8971141869434831e+00 3.0371663566257157e+00 
241 0 1 4.0000345086706970e+00 -3.4658001270973057e+02 1.0000000000000000e+00 7.9274792620377532e+00 8.8408783802834563e+00 3.0692232948980180e+00 
436 0 1 4.0000357374301077e+00 -2.2004073420154890e+02 1.0000000000000000e+00 7.9271479109172116e+00 8.8223858196346665e+00 3.0808089515192325e+00 
529 0 1 4.0000369222790262e+00 -2.5295727423599863e+02 1.0000000000000000e+00 7.9281657453654670e+00 8.8046094476547214e+00 3.0924201109654463e+00 
538 0 1 4.0000362817234887e+00 -2.7389415487812732e+02 1.0000000000000000e+00 7.9348782208380815e+00 8.8158946077940215e+00 3.0854020106392444e+00 
608 0 1 4.0000343112875729e+00 -3.6182207669397309e+02 1.0000000000000000e+00 7.9255966262665574e+00 8.8434790805767225e+00 3.0675208705003110e+00 
435 0 1 4.0000427334475690e+00 -3.5738549598777013e+02 1.0000000000000000e+00 7.9297261973597468e+00 8.7150297936109542e+00 3.1570247808209797e+00 
273 0 1 4.0000020220235468e+00 -3.9642339843874481e+02 1.0000000000000000e+00 1.2036452376995868e+01 6.5926193106089830e+00 5.0923365953083515e+00 
88 0 1 4.0000020500559224e+00 -3.1788376923812638e+02 1.0000000000000000e+00 1.2039134935333273e+01 6.5926053209757134e+00 5.0963796197865596e+00 
555 0 1 4.0000019182751538e+00 -3.0419215771702159e+02 1.0000000000000000e+00 1.2056988532241350e+01 6.5929892656065681e+00 5.1238269704315718e+00 
441 0 1 4.0000019517855128e+00 -2.4767850206550244e+02 1.0000000000000000e+00 1.2060449456152270e+01 6.5931267637276916e+00 5.1294333653357480e+00 
48 0 1 4.0000019353034233e+00 -3.2457215999305674e+02 1.0000000000000000e+00 1.2029268886870774e+01 6.5929724232255555e+00 5.0806882349247866e+00 
505 0 1 4.0000019304171506e+00 -2.8659436241803041e+02 1.0000000000000000e+00 1.2026478855062967e+01 6.5931999482090466e+00 5.0759979472278918e+00 
68 0 1 4.0000024297043657e+00 -3.1269450722232466e+02 1.0000000000000000e+00 1.2084028050788847e+01 6.5952229891317389e+00 5.1674206483179663e+00 
129 0 1 4.0000025167522866e+00 -2.2480288927662099e+02 1.0000000000000000e+00 1.2088815706169880e+01 6.5958872214149613e+00 5.1751310979457203e+00 
186 0 1 4.0000026522631238e+00 -1.9936000587826143e+02 1.0000000000000000e+00 1.2095643626302394e+01 6.5968964304526736e+00 5.1866104210656570e+00 
515 0 1 4.0000025803149679e+00 -2.5144149903158564e+02 1.0000000000000000e+00 1.2091617229751582e+01 6.5963995668473014e+00 5.1791224507931242e+00 
272 0 1 4.0000030768653732e+00 -2.4871782337803748e+02 1.0000000000000000e+00 1.2117546746231563e+01 6.6012186912235524e+00 5.2240535434007054e+00 
227 0 1 4.0000074056635677e+00 -2.0275696445593900e+02 1.0000000000000000e+00 1.1849271088164949e+01 6.5056692545686223e+00 5.3476231776917356e+00 
414 0 1 4.0000031248017418e+00 -2.8968041105070949e+02 1.0000000000000000e+00 1.2128813186065782e+01 6.6054792321588183e+00 5.2322968213150123e+00 
289 0 1 3.9999983710536573e+00 -2.8331260718120387e+02 1.0000000000000000e+00 1.1880370104094679e+01 6.6287167261386077e+00 4.8673290075802411e+00 
467 0 1 3.9999957208360519e+00 -2.0108822304550586e+02 1.0000000000000000e+00 1.1848765821139303e+01 6.6644915033899821e+00 4.7832152982972493e+00 
470 0 1 3.9992815530770027e+00 -2.8811422217126608e+02 1.0000000000000000e+00 9.5292443328928140e+00 6.7358765297746821e+00 6.2506123720309015e+00 
375 0 1 4.0000546475450953e+00 -2.5713655206240071e+02 1.0000000000000000e+00 7.7629640370414226e+00 8.4767426103898149e+00 3.4340207651313261e+00 
168 0 1 4.0000385198440851e+00 -5.1114504139580254e+02 1.0000000000000000e+00 8.7808298589405069e+00 7.3035654351907580e+00 5.1317003727053567e+00 
263 0 1 4.0000165117521229e+00 -2.3697083114554661e+02 1.0000000000000000e+00 6.8381989845591775e+00 9.5372755347272058e+00 3.8831325068989622e+00 
340 0 1 4.0000371598969444e+00 -2.2647396661983424e+02 1.0000000000000000e+00 8.7919497763823919e+00 7.3003604961658528e+00 5.1318724632637425e+00 
167 0 1 4.0000368220333833e+00 -4.0723620997474853e+02 1.0000000000000000e+00 8.7925860979743771e+00 7.2998523037719112e+00 5.1325027516516721e+00 
275 0 1 4.0000365695356521e+00 -2.7517413670751404e+02 1.0000000000000000e+00 8.7907474077615362e+00 7.2997247764435000e+00 5.1337036144146531e+00 
584 0 1 4.0000365713404227e+00 -3.3841742828935548e+02 1.0000000000000000e+00 8.7892758555687731e+00 7.2998816231321726e+00 5.1341807302790832e+00 
211 0 1 4.0000359230361404e+00 -2.5202003190886111e+02 1.0000000000000000e+00 8.7807796462512417e+00 7.2982007011575609e+00 5.1420191875071790e+00 
286 0 1 4.0000357810235130e+00 -2.8574603542313605e+02 1.0000000000000000e+00 8.7892592938569294e+00 7.2985684799312240e+00 5.1366886831945981e+00 
330 0 1 4.0000364829807520e+00 -3.3239037080297572e+02 1.0000000000000000e+00 8.7899772217248842e+00 7.2996679619037854e+00 5.1342164220228721e+00 
221 0 1 4.0000366787816226e+00 -1.8740212003929418e+02 1.0000000000000000e+00 8.7901836763068673e+00 7.2999377613875227e+00 5.1335956915817196e+00 
521 0 1 4.0000370162214800e+00 -2.5800136644866706e+02 1.0000000000000000e+00 8.7876717991970814e+00 7.3007411998135145e+00 5.1333972949383497e+00 
502 0 1 4.0000158622066460e+00 -2.4165513285840032e+02 1.0000000000000000e+00 6.8404321386921216e+00 9.5480154982068886e+00 3.8735578709283764e+00 
337 0 1 3.9996836506712836e+00 -4.0167737662273692e+02 1.0000000000000000e+00 9.5586467278407010e+00 7.1910365200515205e+00 5.2107385785246567e+00 
471 0 1 4.0000360267114718e+00 -2.4754320354959447e+02 1.0000000000000000e+00 8.7885071674194606e+00 7.2990290652886269e+00 5.1362112150644448e+00 
248 0 1 4.0000359472423117e+00 -2.9557717604719170e+02 1.0000000000000000e+00 8.7865678421262992e+00 7.2989710128683294e+00 5.1373615852292387e+00 
132 0 1 4.0000290063306512e+00 -2.3976201348058541e+02 1.0000000000000000e+00 7.1895102997294433e+00 8.7933394880448326e+00 3.6323024644919100e+00 
18 0 1 4.0000261294808297e+00 -3.2892623023105665e+02 1.0000000000000000e+00 6.8290310880502227e+00 9.3661448722887588e+00 4.0036776188950780e+00 
251 0 1 4.0000409778545274e+00 -3.1523372743091522e+02 1.0000000000000000e+00 8.7985693539713719e+00 7.3029137010501044e+00 5.1237333179186981e+00 
476 0 1 3.9997680899313912e+00 -3.8847683832290471e+02 1.0000000000000000e+00 8.3416774545837171e+00 7.5072734407165322e+00 6.1042469213822228e+00 
328 0 1 3.9987348873505639e+00 -4.3995564985836921e+02 1.0000000000000000e+00 6.9578656401954504e+00 9.1235253389393005e+00 5.8662434199494085e+00 
373 0 1 4.0000203470526037e+00 -2.3879714366477796e+02 1.0000000000000000e+00 9.8442300889234833e+00 8.3846929235031897e+00 5.1395360082519703e+00 
294 0 1 4.0000870687458399e+00 -3.0952323313835581e+02 1.0000000000000000e+00 6.9691074985417352e+00 8.8814237854838929e+00 4.5364018152498282e+00 
178 0 1 4.0001127345562599e+00 -2.2103293668281245e+02 1.0000000000000000e+00 9.1180096014101402e+00 9.1915110243876441e+00 4.9617003913241637e+00 
280 0 1 4.0000735844794892e+00 -3.1388445685209604e+02 1.0000000000000000e+00 8.6299134933012009e+00 7.2820602264035994e+00 5.3155268688874635e+00 
569 0 1 3.9997764526920356e+00 -4.4724984482318553e+02 1.0000000000000000e+00 8.3001065520351034e+00 7.5467418942962219e+00 6.0340054621493806e+00 
577 0 1 4.0004427017253139e+00 -3.4716341078065346e+02 1.0000000000000000e+00 8.6852303823685872e+00 7.1851262561998546e+00 6.5183799782585004e+00 
517 0 1 3.9989355008208269e+00 -2.2022559036421669e+02 1.0000000000000000e+00 8.7144225262251336e+00 7.1263860842920144e+00 5.7883317610505305e+00 
550 0 1 4.0001243750948019e+00 -2.3983390208342158e+02 1.0000000000000000e+00 8.8539929922968561e+00 8.9088141488003671e+00 5.1263859077114038e+00 
234 0 1 3.9994091390227968e+00 -2.3850089808710217e+02 1.0000000000000000e+00 9.9501940748251965e+00 7.0295323904960441e+00 5.3742749855681611e+00 
629 0 1 4.0011188212083173e+00 -3.1738267370244341e+02 1.0000000000000000e+00 8.6630958669423226e+00 7.2834013119142780e+00 6.4230790652835008e+00 
353 0 1 3.9995916193517895e+00 -2.1303406453760365e+02 1.0000000000000000e+00 8.2827997532877067e+00 7.5962688421620159e+00 5.9865178438088344e+00 
259 0 1 4.0003996242803312e+00 -3.9657157360480596e+02 1.0000000000000000e+00 9.8154440856638043e+00 9.6988575433658930e+00 4.1888360436914338e+00 
488 0 1 3.9996318669972677e+00 -4.4642184069161448e+02 1.0000000000000000e+00 8.7096615904288921e+00 7.1079880154486670e+00 6.0103453185984046e+00 
149 0 1 4.0000248717267608e+00 -2.7708896058757819e+02 1.0000000000000000e+00 7.6045988245284564e+00 9.8335021277674990e+00 5.5707412552154194e+00 
430 0 1 4.0001428893962609e+00 -1.9952237301062493e+02 1.0000000000000000e+00 8.6477804770540612e+00 7.9365942345462539e+00 4.2040776439465590e+00 
418 0 1 4.0030352514900098e+00 -2.2335120812749594e+02 1.0000000000000000e+00 1.0105077906227008e+01 6.7344925921135150e+00 6.1308188930594847e+00 
171 0 1 4.0000115901829743e+00 -2.4984498353039373e+02 1.0000000000000000e+00 1.2268288464997379e+01 6.6816500570354824e+00 5.4859608995547919e+00 
161 0 1 3.9999900692648862e+00 -3.8136631731747076e+02 1.0000000000000000e+00 1.1693146657321408e+01 6.7282308162000586e+00 4.6618888116255723e+00 
317 0 1 3.9999883463152992e+00 -3.3480663272381810e+02 1.0000000000000000e+00 1.1680536967469399e+01 6.7517404027544430e+00 4.6282418740832147e+00 
503 0 1 4.0000011850839963e+00 -2.5085926286817030e+02 1.0000000000000000e+00 1.2655617832325927e+01 7.4865363716589277e+00 4.8638668750972807e+00 
594 0 1 3.9999468080196254e+00 -3.4297700789441370e+02 1.0000000000000000e+00 1.1719024867843416e+01 8.5836946629122917e+00 4.0155186776317890e+00 
580 0 1 3.9999478014428731e+00 -3.5723840884529977e+02 1.0000000000000000e+00 1.1710685549475883e+01 8.6106510820528666e+00 4.0184406267362771e+00 
520 0 1 3.9999522046150888e+00 -2.3145368575675678e+02 1.0000000000000000e+00 1.1752339258447208e+01 7.7042788821405068e+00 4.0293196148127723e+00 
513 0 1 3.9999489836119642e+00 -2.7926434262357810e+02 1.0000000000000000e+00 1.1681803818899338e+01 8.6790090719365836e+00 4.0243850427666654e+00 
218 0 1 3.9999468994386356e+00 -3.6765179342555626e+02 1.0000000000000000e+00 1.1789844124822546e+01 7.9252064766626127e+00 3.9988677950815279e+00 
196 0 1 3.9999449109328196e+00 -2.4841567603918060e+02 1.0000000000000000e+00 1.1766968211078600e+01 8.4405733519929989e+00 4.0056446122295810e+00 
607 0 1 3.9999516131623509e+00 -3.1700734046280854e+02 1.0000000000000000e+00 1.1647896329121780e+01 8.7533087467274893e+00 4.0317406736141530e+00 
258 0 1 3.9999502811920595e+00 -2.7009705632367553e+02 1.0000000000000000e+00 1.1661909023940799e+01 8.7232244401679626e+00 4.0286456418864489e+00 
360 0 1 3.9999757418863080e+00 -2.4958622463821825e+02 1.0000000000000000e+00 1.1355037436166837e+01 9.3618650179063607e+00 4.1409958353044463e+00 
419 0 1 3.9999496022322272e+00 -2.5582218672565853e+02 1.0000000000000000e+00 1.1674573616961093e+01 8.6955787550692651e+00 4.0259830198322009e+00 
157 0 1 3.9999498323638383e+00 -3.1488580194900300e+02 1.0000000000000000e+00 1.1673067439318450e+01 8.6989444627457004e+00 4.0263060641341202e+00 
146 0 1 3.9999817234732693e+00 -2.3306294496892522e+02 1.0000000000000000e+00 1.1320759877884418e+01 9.4288203539428572e+00 4.1568208417536336e+00 
464 0 1 3.9999514439642314e+00 -2.5194209116426623e+02 1.0000000000000000e+00 1.1651275371251796e+01 8.7459327071177917e+00 4.0309372911316581e+00 
397 0 1 3.9999711171432679e+00 -2.8157719667774126e+02 1.0000000000000000e+00 1.1411237327879922e+01 9.2471321793289274e+00 4.1146769927701623e+00 
393 0 1 3.9999698086408038e+00 -4.0837025273496278e+02 1.0000000000000000e+00 1.1890366086576600e+01 7.1548766418644227e+00 4.2724896832219637e+00 
352 0 1 3.9994315245399394e+00 -2.7657983574564207e+02 1.0000000000000000e+00 1.1383597422016173e+01 9.3890636668357779e+00 5.3866900757063831e+00 
560 0 1 3.9999467334702143e+00 -3.3037399218324578e+02 1.0000000000000000e+00 1.1721781336892199e+01 8.5819413821332624e+00 4.0160742707236610e+00 
405 0 1 4.0000348781418884e+00 -3.9932208276644008e+02 1.0000000000000000e+00 1.2614892245611559e+01 7.1106696669078993e+00 5.5226956941684318e+00 
612 0 1 3.9999454746703575e+00 -3.1993860651797752e+02 1.0000000000000000e+00 1.1767958720795118e+01 8.5219435264619356e+00 4.0200810878181024e+00 
553 0 1 4.0018611098657457e+00 -3.8330916851920961e+02 1.0000000000000000e+00 1.2830993313416053e+01 8.5875375860694483e+00 6.4086462195193930e+00 
411 0 1 3.9992541828093553e+00 -2.9704762200427245e+02 1.0000000000000000e+00 1.2321283806573591e+01 8.4050418948018564e+00 6.3176432531120073e+00 
638 0 1 3.9997739954521059e+00 -5.9364763987751360e+02 1.0000000000000000e+00 1.2112588852954081e+01 8.3630958996243674e+00 6.2327773178040866e+00 
9 0 1 3.9999753590713238e+00 -3.5704831282123439e+02 1.0000000000000000e+00 1.1272477246455152e+01 9.2364029635107414e+00 4.0740301322100789e+00 
314 0 1 3.9999047149972107e+00 -2.8521003437884372e+02 1.0000000000000000e+00 1.2093278145145288e+01 9.6848348720155144e+00 5.4984960452322165e+00 
257 0 1 3.9999582865507515e+00 -2.2125026333082494e+02 1.0000000000000000e+00 1.1618713419096240e+01 9.0011553165757991e+00 4.1006258399844970e+00 
511 0 1 3.9998847737983847e+00 -4.1054977762256061e+02 1.0000000000000000e+00 1.0707797440255064e+01 9.2224033558257794e+00 5.1897048971275002e+00 
209 0 1 4.0003075828645862e+00 -1.9347453043681989e+02 1.0000000000000000e+00 1.0657182154388131e+01 7.0128839338936446e+00 6.4076586292484796e+00 
256 0 1 4.0002138051544307e+00 -2.4719184080007614e+02 1.0000000000000000e+00 1.1960565997743995e+01 9.6820811235858848e+00 5.3758335874731857e+00 
343 0 1 4.0010644072563144e+00 -2.7589096659890458e+02 1.0000000000000000e+00 1.2770555630811417e+01 8.1800835365727735e+00 6.4590771937400087e+00 
191 0 1 4.0003781169947716e+00 -2.2259372525063432e+02 1.0000000000000000e+00 1.1140750593853017e+01 7.1515812387646633e+00 6.4794596698583504e+00 
463 0 1 3.9999287492157443e+00 -3.8129027332102771e+02 1.0000000000000000e+00 9.4734423955590508e+00 6.5745351029342602e+00 8.9927555387885665e+00 
249 0 1 3.9999213503752307e+00 -3.1452683979307562e+02 1.0000000000000000e+00 9.6297573903630465e+00 5.4405080725002852e+00 8.3236861034909282e+00 
199 0 1 3.9999310609591441e+00 -1.9148415497984081e+02 1.0000000000000000e+00 9.4910138902070074e+00 6.5436448231276687e+00 8.9922237648301273e+00 
535 0 1 3.9999313565113912e+00 -2.6629597120797888e+02 1.0000000000000000e+00 9.4906479970521413e+00 6.5463353143824090e+00 8.9931342678001656e+00 
595 0 1 3.9999294210854708e+00 -5.1481149515529125e+02 1.0000000000000000e+00 9.4725769370216302e+00 6.5623100138352726e+00 8.9867248553319268e+00 
108 0 1 3.9999311111153899e+00 -2.5996434052264124e+02 1.0000000000000000e+00 9.4926612731478706e+00 6.5421010933880313e+00 8.9927540548070404e+00 
490 0 1 3.9999313377727646e+00 -5.2264749544453935e+02 1.0000000000000000e+00 9.4930698075035362e+00 6.5401623014409997e+00 8.9922032216709855e+00 
49 0 1 3.9999310383027664e+00 -4.0129014334075487e+02 1.0000000000000000e+00 9.4968920185557302e+00 6.5308701871594277e+00 8.9909230511077958e+00 
448 0 1 3.9999314930800538e+00 -3.6037865064497004e+02 1.0000000000000000e+00 9.5061298979448789e+00 6.5167251586320720e+00 8.9914169179716996e+00 