LAMMPS data file via write_data, version 30 Jul 2016, timestep = 50400000

180 atoms
2 atom types

0.0000000000000000e+00 2.0000000000000000e+01 xlo xhi
0.0000000000000000e+00 2.0000000000000000e+01 ylo yhi
0.0000000000000000e+00 2.0000000000000000e+01 zlo zhi

Masses

1 3.896
2 4.31

Atoms # meso-molecular

83 1 2 1.0279976432603768e+00 -3.6585950734487670e+02 1.0000000000000000e+00 2.1504398939386888e+00 4.6822879443923497e+00 1.0628284715636418e+00 
156 1 2 1.0280004769669515e+00 -5.9568948172811065e+02 1.0000000000000000e+00 2.3754582518513541e+00 4.2487837521154947e+00 8.2345560080246250e-01 
38 1 2 1.0279999801949520e+00 -4.4149104272612038e+02 1.0000000000000000e+00 2.2986342003270934e+00 4.1550641195233924e+00 7.9131093787299800e-01 
179 1 2 1.0279998750644144e+00 -5.1979732482486816e+02 1.0000000000000000e+00 2.2841548493573072e+00 4.1480465919133929e+00 7.9110995017375485e-01 
2 1 2 1.0279998757449544e+00 -5.1573328867081136e+02 1.0000000000000000e+00 2.2842674279986475e+00 4.1481045934989620e+00 7.9112085780407215e-01 
59 1 2 1.0279998755131838e+00 -3.3431253280862524e+02 1.0000000000000000e+00 2.2842291987350190e+00 4.1480849164518405e+00 7.9111718881248783e-01 
69 1 2 1.0279998755595174e+00 -3.6699302954042253e+02 1.0000000000000000e+00 2.2842406607107133e+00 4.1480916214762216e+00 7.9111940519067558e-01 
50 1 2 1.0279998757550171e+00 -4.0932871997088540e+02 1.0000000000000000e+00 2.2842660326455499e+00 4.1481032303863916e+00 7.9111983100230543e-01 
67 1 2 1.0279998754326261e+00 -4.2663607048523176e+02 1.0000000000000000e+00 2.2842299196992557e+00 4.1480882415201705e+00 7.9112134914104160e-01 
53 1 2 1.0279998757468110e+00 -4.3612981414726210e+02 1.0000000000000000e+00 2.2842671821897280e+00 4.1481043508330329e+00 7.9112067340906989e-01 
161 1 2 1.0279998757497566e+00 -5.9916953439270139e+02 1.0000000000000000e+00 2.2842677063506684e+00 4.1481046280646279e+00 7.9112073395683291e-01 
62 1 2 1.0279998757439819e+00 -4.5024121746141833e+02 1.0000000000000000e+00 2.2842672640641797e+00 4.1481045082305537e+00 7.9112084085817602e-01 
17 1 2 1.0279998757566455e+00 -5.5229071762679234e+02 1.0000000000000000e+00 2.2842654991290643e+00 4.1481027871866374e+00 7.9111954639213489e-01 
40 1 2 1.0279998757510211e+00 -4.3341051020813421e+02 1.0000000000000000e+00 2.2842674613516540e+00 4.1481044059868237e+00 7.9112057757242848e-01 
41 1 2 1.0279998757545397e+00 -3.4936586782588228e+02 1.0000000000000000e+00 2.2842666563139629e+00 4.1481036999578631e+00 7.9112009651371307e-01 
20 1 2 1.0279998757514637e+00 -4.4014884016219975e+02 1.0000000000000000e+00 2.2842675829350534e+00 4.1481044791414456e+00 7.9112060386954774e-01 
6 1 2 1.0279998757509350e+00 -3.6841350382977959e+02 1.0000000000000000e+00 2.2842677879307467e+00 4.1481046462528486e+00 7.9112070881705621e-01 
25 1 2 1.0279998757592608e+00 -5.1230561804796253e+02 1.0000000000000000e+00 2.2842686006875286e+00 4.1481049462349295e+00 7.9112062283370344e-01 
34 1 2 1.0279998757616229e+00 -4.9099334362726262e+02 1.0000000000000000e+00 2.2842688137806526e+00 4.1481050190682636e+00 7.9112059223328668e-01 
52 1 2 1.0279998757438649e+00 -4.0526716327658750e+02 1.0000000000000000e+00 2.2842672384881189e+00 4.1481044938214300e+00 7.9112083668262434e-01 
143 1 2 1.0279998757578850e+00 -4.3587306270332687e+02 1.0000000000000000e+00 2.2842684333246854e+00 4.1481048739269424e+00 7.9112062594935528e-01 
3 1 2 1.0279998757510995e+00 -6.1360932431303445e+02 1.0000000000000000e+00 2.2842678641668015e+00 4.1481046961795043e+00 7.9112073092329971e-01 
18 1 2 1.0279998757475024e+00 -5.2381445760854808e+02 1.0000000000000000e+00 2.2842673355017364e+00 4.1481044380006500e+00 7.9112069953810094e-01 
26 1 2 1.0279998757477222e+00 -5.0558246861701832e+02 1.0000000000000000e+00 2.2842675328797495e+00 4.1481045732298041e+00 7.9112076503654261e-01 
81 1 2 1.0279998757495545e+00 -4.1010305860493600e+02 1.0000000000000000e+00 2.2842676581809083e+00 4.1481046004506545e+00 7.9112072543362399e-01 
80 1 2 1.0279998757504172e+00 -3.7463835676942557e+02 1.0000000000000000e+00 2.2842677698803007e+00 4.1481046516188931e+00 7.9112072738241734e-01 
170 1 2 1.0279998757503874e+00 -5.3480730725036392e+02 1.0000000000000000e+00 2.2842677621384002e+00 4.1481046469205012e+00 7.9112072565232638e-01 
22 1 2 1.0279998757483455e+00 -4.2114686066722885e+02 1.0000000000000000e+00 2.2842657170846659e+00 4.1481032334609749e+00 7.9112002992406150e-01 
37 1 2 1.0279998756976945e+00 -4.1056540146366507e+02 1.0000000000000000e+00 2.2842628595849894e+00 4.1481029222457577e+00 7.9112136169252334e-01 
153 1 2 1.0279998757481268e+00 -4.8230536210089582e+02 1.0000000000000000e+00 2.2842676556325543e+00 4.1481046484175614e+00 7.9112079342757591e-01 
135 1 2 1.0279998759348523e+00 -4.7673354657724150e+02 1.0000000000000000e+00 2.2842686025243064e+00 4.1480988393203004e+00 7.9111216500549308e-01 
45 1 2 1.0279998757542044e+00 -4.2921655204880136e+02 1.0000000000000000e+00 2.2842680499867223e+00 4.1481047231248507e+00 7.9112065360519668e-01 
180 1 2 1.0279998757567299e+00 -4.3868041247497803e+02 1.0000000000000000e+00 2.2842683785876816e+00 4.1481048736295305e+00 7.9112065930494113e-01 
10 1 2 1.0279998757508426e+00 -4.5597472155820259e+02 1.0000000000000000e+00 2.2842677869750792e+00 4.1481046487976672e+00 7.9112071293051323e-01 
136 1 2 1.0279998755654867e+00 -4.1527607283549554e+02 1.0000000000000000e+00 2.2841737404749067e+00 4.1480428796546471e+00 7.9109316026999987e-01 
48 1 2 1.0279981488484631e+00 -3.5770503055462211e+02 1.0000000000000000e+00 1.7066367157056586e+00 5.1732665890671310e+00 1.0363092256323228e+00 
109 1 2 1.0280011868031387e+00 -4.2696265236817516e+02 1.0000000000000000e+00 5.9953990308609226e+00 7.3827597832866072e+00 5.7959806739212461e+00 
75 1 2 1.0280034443189898e+00 -3.9150090628404843e+02 1.0000000000000000e+00 5.9662314921124784e+00 7.3847954878340047e+00 5.7887304725619098e+00 
134 1 2 1.0280036140996711e+00 -4.9760465716541790e+02 1.0000000000000000e+00 5.9623180982174837e+00 7.3860924509104766e+00 5.7892885569197352e+00 
73 1 2 1.0280043854287755e+00 -3.7883024336621287e+02 1.0000000000000000e+00 5.9485975002731388e+00 7.3846207496880387e+00 5.7914398425561480e+00 
141 1 2 1.0280030351913898e+00 -4.1495273071101167e+02 1.0000000000000000e+00 5.9480850261592408e+00 7.4030906752913843e+00 5.8017167607791125e+00 
33 1 2 1.0280054908304967e+00 -3.9848683606630044e+02 1.0000000000000000e+00 5.9320227379867543e+00 7.3495710475639413e+00 5.7995629208147479e+00 
124 1 2 1.0280002230039322e+00 -3.8751189308237662e+02 1.0000000000000000e+00 5.9970045674600660e+00 7.3973820007998734e+00 5.8044637675996187e+00 
1 1 2 1.0280019401371387e+00 -5.1513323277813765e+02 1.0000000000000000e+00 5.9924631933015284e+00 7.3296300192719555e+00 5.8065437823003911e+00 
167 1 2 1.0280020192759545e+00 -5.1083131442552764e+02 1.0000000000000000e+00 5.9349964162988105e+00 7.4124631079705754e+00 5.8224168752906982e+00 
103 1 2 1.0280031297173746e+00 -3.2863772497473536e+02 1.0000000000000000e+00 5.9316712259927700e+00 7.4035538967981935e+00 5.8133044639591791e+00 
162 1 2 1.0280029450891051e+00 -4.6139629750813288e+02 1.0000000000000000e+00 5.9305604669000962e+00 7.4048644656517988e+00 5.8160962243633723e+00 
147 1 2 1.0280053547682071e+00 -4.3664779056397543e+02 1.0000000000000000e+00 5.9263788204509069e+00 7.3435589572986615e+00 5.8072487248346691e+00 
29 1 2 1.0280053592219269e+00 -5.8485393735906962e+02 1.0000000000000000e+00 5.9263745212669656e+00 7.3438097040078967e+00 5.8071056272293493e+00 
128 1 2 1.0280029322679922e+00 -3.4729947546514080e+02 1.0000000000000000e+00 5.9245401690128086e+00 7.4027537760477546e+00 5.8217387397713747e+00 
93 1 2 1.0279970832958580e+00 -4.0336819163671123e+02 1.0000000000000000e+00 6.0220898617896932e+00 7.3888324934965155e+00 5.8416884835447149e+00 
177 1 2 1.0280002368109502e+00 -4.2527754572695181e+02 1.0000000000000000e+00 5.9923106358843432e+00 7.3134960615400582e+00 5.8348065137660567e+00 
21 1 2 1.0280020708199407e+00 -4.2995446853211200e+02 1.0000000000000000e+00 5.9543146784535379e+00 7.3076006361805721e+00 5.8433983210281557e+00 
64 1 2 1.0280009726017838e+00 -3.8897639639013715e+02 1.0000000000000000e+00 5.9410147676012031e+00 7.4192225989497969e+00 5.8306755194357498e+00 
171 1 2 1.0279961026663698e+00 -5.1586321746799877e+02 1.0000000000000000e+00 6.0197388119747819e+00 7.3880926632748904e+00 5.8638143925754305e+00 
104 1 2 1.0279969371111239e+00 -4.7381331214085986e+02 1.0000000000000000e+00 6.0095156941347785e+00 7.3302688233732649e+00 5.8672015102669253e+00 
30 1 2 1.0279978318217620e+00 -4.9806142698476236e+02 1.0000000000000000e+00 6.0093414559428071e+00 7.3251270350099684e+00 5.8535812179436713e+00 
79 1 2 1.0279964735671552e+00 -4.1915948742839851e+02 1.0000000000000000e+00 6.0083163280894532e+00 7.3347793406582031e+00 5.8753855408957927e+00 
60 1 2 1.0279979216039550e+00 -4.5724037046921723e+02 1.0000000000000000e+00 5.9960676411203444e+00 7.3176044774793656e+00 5.8647378277743130e+00 
86 1 2 1.0279976028276168e+00 -3.5865063571561421e+02 1.0000000000000000e+00 5.9901297238871445e+00 7.3188446112181236e+00 5.8742048577229653e+00 
166 1 2 1.0280009645162216e+00 -4.2441620145750079e+02 1.0000000000000000e+00 5.9536225725672969e+00 7.3087494745282848e+00 5.8575194719024566e+00 
163 1 2 1.0280002380408595e+00 -4.3163870243887055e+02 1.0000000000000000e+00 5.9379608609652905e+00 7.3217969064044635e+00 5.8750565771912839e+00 
149 1 2 1.0279999689707120e+00 -5.9342002293566770e+02 1.0000000000000000e+00 5.9239654266813409e+00 7.4061645207103730e+00 5.8634433586702839e+00 
154 1 2 1.0279998113490656e+00 -5.2309767308519349e+02 1.0000000000000000e+00 5.9236592153797716e+00 7.4042080872686604e+00 5.8667533409409751e+00 
84 1 2 1.0280008038154553e+00 -3.8970384669827524e+02 1.0000000000000000e+00 5.9145219491445937e+00 7.3541485307159968e+00 5.8747639791639497e+00 
96 1 2 1.0280017413945883e+00 -3.9284575644344517e+02 1.0000000000000000e+00 5.9087914051628738e+00 7.3816870330550586e+00 5.8571318296031949e+00 
42 1 2 1.0279957622419629e+00 -3.4609933347420417e+02 1.0000000000000000e+00 6.0056192844746183e+00 7.3956023944434826e+00 5.8814816342958585e+00 
65 1 2 1.0279956744784271e+00 -4.5402927516424552e+02 1.0000000000000000e+00 6.0027232442469174e+00 7.3934826643864051e+00 5.8859920957608525e+00 
85 1 2 1.0279954752050191e+00 -4.2240351204540002e+02 1.0000000000000000e+00 6.0019989964845495e+00 7.3815634604316056e+00 5.8924014805629303e+00 
113 1 2 1.0279955690331006e+00 -4.4990236180458226e+02 1.0000000000000000e+00 5.9977791332221360e+00 7.3881771080573948e+00 5.8928652347837236e+00 
106 1 2 1.0279957009303835e+00 -3.9268798209491126e+02 1.0000000000000000e+00 5.9897137667155285e+00 7.3915382200971314e+00 5.8958633354469772e+00 
111 1 2 1.0279961023902298e+00 -3.7166155129677634e+02 1.0000000000000000e+00 5.9838436907779924e+00 7.3444788103795888e+00 5.8994963795164885e+00 
72 1 2 1.0279994603388694e+00 -4.9893098535744656e+02 1.0000000000000000e+00 5.9389786429826232e+00 7.3275838101846427e+00 5.8832984934956700e+00 
76 1 2 1.0279963957562501e+00 -3.9893109109846341e+02 1.0000000000000000e+00 5.9646363873833366e+00 7.3588046261618594e+00 5.9060331950485843e+00 
175 1 2 1.0279993774049734e+00 -5.4595867243630744e+02 1.0000000000000000e+00 6.2144315772612106e+00 1.3244588828909627e+00 1.4505940917335138e+01 
47 1 2 1.0279993615677461e+00 -3.4911309409652955e+02 1.0000000000000000e+00 6.1238109835644394e+00 1.2705874190039677e+00 1.4503319938089364e+01 
58 1 2 1.0279993936957579e+00 -3.6896097262096572e+02 1.0000000000000000e+00 6.0449048444303566e+00 1.2683336140820332e+00 1.4416226753857140e+01 
94 1 2 1.0279994031247117e+00 -3.5677441916984009e+02 1.0000000000000000e+00 6.1275166275625219e+00 1.3198821964809884e+00 1.4392167426694085e+01 
115 1 2 1.0279993497980859e+00 -3.9786500642566176e+02 1.0000000000000000e+00 6.1485033763980077e+00 1.2560109399126556e+00 1.4608596022935016e+01 
27 1 2 1.0279993514141772e+00 -5.1720964914176579e+02 1.0000000000000000e+00 6.1051676421294063e+00 1.2455061219531358e+00 1.4556520768802613e+01 
39 1 2 1.0279994360707581e+00 -4.3799018486682729e+02 1.0000000000000000e+00 6.1396470267449859e+00 1.3604384620914891e+00 1.4334105741944871e+01 
70 1 2 1.0279993519723480e+00 -4.3252102757207859e+02 1.0000000000000000e+00 6.0873038702593663e+00 1.2370461420594638e+00 1.4557126538015771e+01 
92 1 2 1.0279993482544481e+00 -3.4145909206769829e+02 1.0000000000000000e+00 6.1097603654844876e+00 1.2330741691926843e+00 1.4626203268787243e+01 
12 1 2 1.0279993482219967e+00 -3.8186543707485191e+02 1.0000000000000000e+00 6.1075682970361402e+00 1.2324311343044305e+00 1.4623768523775258e+01 
120 1 2 1.0279993508555385e+00 -4.5753743212439218e+02 1.0000000000000000e+00 6.1148116240508310e+00 1.2297965924252712e+00 1.4667804049851638e+01 
110 1 2 1.0279993491680590e+00 -3.8141703988272337e+02 1.0000000000000000e+00 6.1071142641193363e+00 1.2288837011658571e+00 1.4645593381276715e+01 
105 1 2 1.0279993486448269e+00 -3.8386500135891367e+02 1.0000000000000000e+00 6.0925749885084608e+00 1.2282020498957533e+00 1.4608279174817527e+01 
44 1 2 1.0279994732780755e+00 -4.4391066527781339e+02 1.0000000000000000e+00 6.1589152147132102e+00 1.4095891275975352e+00 1.4281594134493234e+01 
117 1 2 1.0279993505146079e+00 -4.0153532923187350e+02 1.0000000000000000e+00 6.1007093807335542e+00 1.2239101375214270e+00 1.4660995314138242e+01 
160 1 2 1.0279993507496994e+00 -3.7682574200522964e+02 1.0000000000000000e+00 6.0935882363813718e+00 1.2207718689533771e+00 1.4660055443506605e+01 
173 1 2 1.0279993514390315e+00 -4.8904887651526724e+02 1.0000000000000000e+00 6.0892749007009641e+00 1.2182254210727672e+00 1.4665370590724539e+01 
122 1 2 1.0279993508966168e+00 -4.1358761266259324e+02 1.0000000000000000e+00 6.0737485921666847e+00 1.2146652681871444e+00 1.4640603079533427e+01 
95 1 2 1.0279993527539848e+00 -4.0262871886635787e+02 1.0000000000000000e+00 6.0825772970909657e+00 1.2143788071913499e+00 1.4673847689161523e+01 
158 1 2 1.0279993517159862e+00 -5.2412553721103723e+02 1.0000000000000000e+00 6.0758860383258764e+00 1.2135163783127525e+00 1.4656022010651480e+01 
112 1 2 1.0279993535142165e+00 -4.3333374911460459e+02 1.0000000000000000e+00 6.0802477451863686e+00 1.2128611460947996e+00 1.4679049111621199e+01 
101 1 2 1.0279993537361913e+00 -3.8559553900372850e+02 1.0000000000000000e+00 6.0706470081956843e+00 1.2094424713400933e+00 1.4672577053088354e+01 
14 1 2 1.0279993542924748e+00 -4.4992910563422265e+02 1.0000000000000000e+00 6.0537275749021937e+00 1.2046378245768583e+00 1.4654722468421369e+01 
9 1 2 1.0279993560674059e+00 -4.4950020102842751e+02 1.0000000000000000e+00 6.0549556634373713e+00 1.2026834594179734e+00 1.4676729536270017e+01 
91 1 2 1.0279993565717507e+00 -3.1351324175887368e+02 1.0000000000000000e+00 6.0445371222963802e+00 1.1998615318289882e+00 1.4665252472502104e+01 
31 1 2 1.0279993578850102e+00 -4.7610190392045700e+02 1.0000000000000000e+00 6.0367064265776413e+00 1.1969102737447537e+00 1.4665544982608280e+01 
19 1 2 1.0279993657862532e+00 -5.3230494619414367e+02 1.0000000000000000e+00 5.9921223908058563e+00 1.1883751484309086e+00 1.4618533238739094e+01 
68 1 2 1.0279993704330492e+00 -4.1133765476343495e+02 1.0000000000000000e+00 5.9762623407568958e+00 1.1824141181921839e+00 1.4626257763040067e+01 
77 1 2 1.0279993687461733e+00 -4.2252701043589377e+02 1.0000000000000000e+00 5.9832317393126129e+00 1.1824029592458540e+00 1.4640037800943201e+01 
16 1 2 1.0279997837251014e+00 -4.5396960940302858e+02 1.0000000000000000e+00 5.3072843805197563e+00 1.4590281204852218e+00 1.4167962104424420e+01 
121 1 2 1.0280002100308827e+00 -4.1498368126324345e+02 1.0000000000000000e+00 5.1376013234621478e+00 4.9236334365079406e+00 1.4709618811794726e+01 
13 1 2 1.0279997939807857e+00 -4.7116155245545582e+02 1.0000000000000000e+00 5.9770422187082115e+00 1.8367703129363757e+00 1.3884194559671897e+01 
148 1 2 1.0279999049916833e+00 -4.9497589537454286e+02 1.0000000000000000e+00 6.1734858911063260e+00 2.4092592022611319e+00 1.3872142843424998e+01 
108 1 2 1.0279998654492997e+00 -3.9135719648142458e+02 1.0000000000000000e+00 6.1354662900009718e+00 2.1584345296764433e+00 1.3868779493162712e+01 
102 1 2 1.0280001170435518e+00 -4.0334621469162920e+02 1.0000000000000000e+00 4.7799775056651601e+00 4.3098938015740709e+00 1.4150423971615016e+01 
49 1 2 1.0279996259060395e+00 -4.2701209483585336e+02 1.0000000000000000e+00 5.8001656919719995e+00 1.3952712000073675e+00 1.5469622585501536e+01 
66 1 2 1.0280008164876870e+00 -4.3891198576271620e+02 1.0000000000000000e+00 3.8024012193903172e+00 4.9932795578076714e+00 1.6150554973650220e+01 
78 1 2 1.0279999726535261e+00 -3.9226355081112615e+02 1.0000000000000000e+00 3.6962232971405213e+00 4.8332322190362662e+00 1.6341312379458735e+01 
164 1 2 1.0279997472376057e+00 -5.7510137581953416e+02 1.0000000000000000e+00 3.6353713780285930e+00 4.7057296763616687e+00 1.6424778092559553e+01 
151 1 2 1.0279999558212949e+00 -5.1063856574952274e+02 1.0000000000000000e+00 3.6551580883128318e+00 4.7369540907140744e+00 1.6444761573354018e+01 
56 1 2 1.0279977903098247e+00 -4.2712373763569173e+02 1.0000000000000000e+00 4.2415987031124018e+00 3.7347108671021094e+00 1.7030307756214160e+01 
51 1 2 1.0279973842263546e+00 -4.2187166754271766e+02 1.0000000000000000e+00 3.8354855020454228e+00 4.1567777314234391e+00 1.7066833959234085e+01 
126 1 2 1.0279973066060899e+00 -4.2812389166613787e+02 1.0000000000000000e+00 3.8526290242835719e+00 4.1439625536375067e+00 1.7075916840483071e+01 
99 1 2 1.0280006883921471e+00 -3.2975048716046967e+02 1.0000000000000000e+00 3.8917984334399658e+00 5.0841196485323712e+00 1.6031854707826042e+01 
90 1 2 1.0280006567653719e+00 -3.7324175035633300e+02 1.0000000000000000e+00 3.9390222765294145e+00 5.1226424706415461e+00 1.5978188714188498e+01 
8 1 2 1.0280004276530701e+00 -4.6686432920487590e+02 1.0000000000000000e+00 4.5623057926522934e+00 5.3046347683833623e+00 1.5453302255681177e+01 
119 1 2 1.0280004316119600e+00 -4.4948863366941936e+02 1.0000000000000000e+00 4.5491855530262519e+00 5.3042052322022712e+00 1.5453873198300942e+01 
144 1 2 1.0280004375613043e+00 -3.7827955902378295e+02 1.0000000000000000e+00 4.5325035232425464e+00 5.3047945836920514e+00 1.5464186708790814e+01 
142 1 2 1.0280004398427018e+00 -4.4760860677411745e+02 1.0000000000000000e+00 4.5259628746714196e+00 5.3048908074984897e+00 1.5467791249703076e+01 
87 1 2 1.0280004422975766e+00 -3.9800679678413013e+02 1.0000000000000000e+00 4.5183893937053865e+00 5.3047282555291426e+00 1.5470341758859675e+01 
130 1 2 1.0280004426157194e+00 -4.0386259663830867e+02 1.0000000000000000e+00 4.5175064290181988e+00 5.3047512198321520e+00 1.5470967823151307e+01 
116 1 2 1.0280004428635796e+00 -4.0855113793558479e+02 1.0000000000000000e+00 4.5168218914032252e+00 5.3047698664325464e+00 1.5471463350227010e+01 
32 1 2 1.0280004430869707e+00 -5.0324697876395265e+02 1.0000000000000000e+00 4.5162063710467848e+00 5.3047866296049673e+00 1.5471911926502347e+01 
139 1 2 1.0280004432305478e+00 -3.8795384549263707e+02 1.0000000000000000e+00 4.5158125167059735e+00 5.3047977867583453e+00 1.5472203611809377e+01 
54 1 2 1.0280004436911301e+00 -4.7206148428839896e+02 1.0000000000000000e+00 4.5145534321063945e+00 5.3048340506765905e+00 1.5473148445926924e+01 
63 1 2 1.0280004444325062e+00 -4.0895516791770916e+02 1.0000000000000000e+00 4.5125512358537154e+00 5.3048972014225724e+00 1.5474716618062224e+01 
36 1 2 1.0280004491591419e+00 -5.9505465239284661e+02 1.0000000000000000e+00 4.4982350774829118e+00 5.3044606975383735e+00 1.5480211421271092e+01 
176 1 2 1.0280004596140282e+00 -5.9145793640036277e+02 1.0000000000000000e+00 4.4680839523235649e+00 5.3039789195175535e+00 1.5499892482074333e+01 
131 1 2 1.0280004627940895e+00 -4.3137065376813086e+02 1.0000000000000000e+00 4.4592731202387688e+00 5.3037338990313962e+00 1.5506205091041970e+01 
125 1 2 1.0280004701727108e+00 -4.6626126792162910e+02 1.0000000000000000e+00 4.4386522842731706e+00 5.3028600681418263e+00 1.5521156033721590e+01 
82 1 2 1.0280004940572329e+00 -4.1894780790807272e+02 1.0000000000000000e+00 4.3713768848381269e+00 5.2972470590475069e+00 1.5574243616035854e+01 
129 1 2 1.0280005209930285e+00 -3.8585735092736911e+02 1.0000000000000000e+00 4.2955767950586283e+00 5.2849123611724531e+00 1.5636658675154889e+01 
57 1 2 1.0280005258854832e+00 -3.9638913449869096e+02 1.0000000000000000e+00 4.2815937066182732e+00 5.2819008638280005e+00 1.5648387895855926e+01 
35 1 2 1.0280005265547982e+00 -4.9146970617393367e+02 1.0000000000000000e+00 4.2797022488122680e+00 5.2814756783298815e+00 1.5649983322374299e+01 
71 1 2 1.0280005384405857e+00 -5.0129528930113753e+02 1.0000000000000000e+00 4.2460389835974599e+00 5.2731846505097675e+00 1.5678738539501037e+01 
23 1 2 1.0280005494316822e+00 -4.8040973770877110e+02 1.0000000000000000e+00 4.2141819181867133e+00 5.2640352509642137e+00 1.5706437929145228e+01 
100 1 2 1.0280005505893968e+00 -3.4027338803751957e+02 1.0000000000000000e+00 4.2108101754763361e+00 5.2629906870319134e+00 1.5709395106406113e+01 
43 1 2 1.0280005712682418e+00 -4.4515511181065244e+02 1.0000000000000000e+00 4.1502061409522497e+00 5.2416304327892522e+00 1.5763278074783054e+01 
145 1 2 1.0280005808067436e+00 -5.4172243443780746e+02 1.0000000000000000e+00 4.1223998787772249e+00 5.2301318716265159e+00 1.5788719889134983e+01 
61 1 2 1.0279995849186911e+00 -4.4816752594425634e+02 1.0000000000000000e+00 1.8340763548808837e+01 7.6784492203091386e+00 2.1848803448038989e+00 
150 1 2 1.0279995849186108e+00 -6.3912797597212602e+02 1.0000000000000000e+00 1.8340763544384657e+01 7.6784492219045086e+00 2.1848803281284699e+00 
107 1 2 1.0279995849186407e+00 -4.2963506905430671e+02 1.0000000000000000e+00 1.8340763545048059e+01 7.6784492176518908e+00 2.1848803406972377e+00 
4 1 2 1.0279995849185730e+00 -4.4979631851822160e+02 1.0000000000000000e+00 1.8340763529099981e+01 7.6784492075841602e+00 2.1848803202594778e+00 
140 1 2 1.0279995849186661e+00 -5.2854205016304888e+02 1.0000000000000000e+00 1.8340763547771733e+01 7.6784492212059687e+00 2.1848803395835104e+00 
89 1 2 1.0279995849187058e+00 -4.0348420935713034e+02 1.0000000000000000e+00 1.8340763553952247e+01 7.6784492242668607e+00 2.1848803496124360e+00 
46 1 2 1.0279995849186179e+00 -4.1630422004117685e+02 1.0000000000000000e+00 1.8340763544045242e+01 7.6784492197069829e+00 2.1848803326688619e+00 
118 1 2 1.0279995849186869e+00 -4.5058164067825919e+02 1.0000000000000000e+00 1.8340763553873174e+01 7.6784492292007203e+00 2.1848803370081722e+00 
15 1 2 1.0279995849187147e+00 -4.2464972387256864e+02 1.0000000000000000e+00 1.8340763552008529e+01 7.6784492230168651e+00 2.1848803471779132e+00 
172 1 2 1.0279995849186607e+00 -4.8565176711079607e+02 1.0000000000000000e+00 1.8340763546824856e+01 7.6784492195800897e+00 2.1848803409497508e+00 
155 1 2 1.0279995849186585e+00 -5.3654188887543080e+02 1.0000000000000000e+00 1.8340763546996005e+01 7.6784492197598606e+00 2.1848803409893276e+00 
74 1 2 1.0279995849185679e+00 -3.5623719307389524e+02 1.0000000000000000e+00 1.8340763532969159e+01 7.6784492129370978e+00 2.1848803179172624e+00 
137 1 2 1.0279995849186738e+00 -4.5449896016312704e+02 1.0000000000000000e+00 1.8340763550404464e+01 7.6784492249065988e+00 2.1848803378427366e+00 
157 1 2 1.0279995849186419e+00 -4.3321319987673724e+02 1.0000000000000000e+00 1.8340763548403693e+01 7.6784492234130974e+00 2.1848803358585611e+00 
88 1 2 1.0279995849186334e+00 -4.6501437184841893e+02 1.0000000000000000e+00 1.8340763544170457e+01 7.6784492173646912e+00 2.1848803389033953e+00 
168 1 2 1.0279995849186860e+00 -7.1300543998004036e+02 1.0000000000000000e+00 1.8340763550114069e+01 7.6784492229059378e+00 2.1848803420293281e+00 
11 1 2 1.0279995849189449e+00 -3.7938853900641698e+02 1.0000000000000000e+00 1.8340763501263410e+01 7.6784491213528057e+00 2.1848804568154900e+00 
7 1 2 1.0279995849194761e+00 -5.7256137210577435e+02 1.0000000000000000e+00 1.8340763687772135e+01 7.6784493159173595e+00 2.1848805030948002e+00 
178 1 2 1.0279995849186236e+00 -3.9868402286597677e+02 1.0000000000000000e+00 1.8340763545522616e+01 7.6784492218420155e+00 2.1848803315453913e+00 
5 1 2 1.0279995849186172e+00 -4.4578150068596329e+02 1.0000000000000000e+00 1.8340763544970400e+01 7.6784492196424301e+00 2.1848803354821058e+00 
132 1 2 1.0279995849186359e+00 -4.6075790509426804e+02 1.0000000000000000e+00 1.8340763549506072e+01 7.6784492260705823e+00 2.1848803323504660e+00 
152 1 2 1.0279995849186319e+00 -4.1220827914196275e+02 1.0000000000000000e+00 1.8340763543323018e+01 7.6784492153889712e+00 2.1848803414320739e+00 
159 1 2 1.0279995849186181e+00 -5.0366255405166129e+02 1.0000000000000000e+00 1.8340763546399341e+01 7.6784492223920831e+00 2.1848803326780950e+00 
97 1 2 1.0279995849186638e+00 -3.9277423445982754e+02 1.0000000000000000e+00 1.8340763547162098e+01 7.6784492200658843e+00 2.1848803406971036e+00 
24 1 2 1.0279995849186649e+00 -4.6561315745245503e+02 1.0000000000000000e+00 1.8340763547456515e+01 7.6784492206722375e+00 2.1848803400193924e+00 
55 1 2 1.0279995849186314e+00 -4.4898295372865732e+02 1.0000000000000000e+00 1.8340763549244212e+01 7.6784492258012547e+00 2.1848803322761126e+00 
165 1 2 1.0279995849186743e+00 -4.0999448441784233e+02 1.0000000000000000e+00 1.8340763548119757e+01 7.6784492214000704e+00 2.1848803400932533e+00 
123 1 2 1.0279995849186583e+00 -4.5422638696787050e+02 1.0000000000000000e+00 1.8340763546450109e+01 7.6784492190780895e+00 2.1848803411355098e+00 
169 1 2 1.0279995849186085e+00 -5.9240207663831529e+02 1.0000000000000000e+00 1.8340763546533587e+01 7.6784492233542219e+00 2.1848803306494924e+00 
133 1 2 1.0279995849186498e+00 -4.6296695996620264e+02 1.0000000000000000e+00 1.8340763545691747e+01 7.6784492184930455e+00 2.1848803404307477e+00 
146 1 2 1.0279995849186860e+00 -4.1200203499403750e+02 1.0000000000000000e+00 1.8340763549691072e+01 7.6784492225538958e+00 2.1848803417004223e+00 
28 1 2 1.0279995849186563e+00 -4.6571553972614697e+02 1.0000000000000000e+00 1.8340763546274747e+01 7.6784492189614371e+00 2.1848803409258077e+00 
138 1 2 1.0279995849186510e+00 -5.0513989503042546e+02 1.0000000000000000e+00 1.8340763545953902e+01 7.6784492190137446e+00 2.1848803398754972e+00 
174 1 2 1.0279995849186554e+00 -6.7752203549809917e+02 1.0000000000000000e+00 1.8340763546546793e+01 7.6784492192233342e+00 2.1848803410483675e+00 
127 1 2 1.0279995849186492e+00 -3.9040432996267253e+02 1.0000000000000000e+00 1.8340763545820668e+01 7.6784492188005329e+00 2.1848803400287680e+00 
114 1 2 1.0279995849185366e+00 -4.8260070554532524e+02 1.0000000000000000e+00 1.8340763548971612e+01 7.6784492377492697e+00 2.1848803015241951e+00 
98 1 2 1.0279995849186703e+00 -3.8209658417723455e+02 1.0000000000000000e+00 1.8340763551977663e+01 7.6784492272739726e+00 2.1848803364115681e+00 

Velocities

83 2.9295416039031341e-01 6.8983196660299576e-02 2.2718116362050061e-01
156 2.9330524247368389e-01 6.9061445825532961e-02 2.2756973427648844e-01
38 2.9334616822982879e-01 6.9007128448765748e-02 2.2759021992873377e-01
179 2.9334449085602293e-01 6.9002933626568230e-02 2.2759021542733102e-01
2 2.9334450298166748e-01 6.9002972086934899e-02 2.2759021529491744e-01
59 2.9334449885478275e-01 6.9002959052696766e-02 2.2759021533718360e-01
69 2.9334449960146869e-01 6.9002963912178861e-02 2.2759021513883287e-01
50 2.9334450322423727e-01 6.9002970849694575e-02 2.2759021544535046e-01
67 2.9334449713218463e-01 6.9002962787167457e-02 2.2759021465474036e-01
53 2.9334450302592863e-01 6.9002971866056181e-02 2.2759021532197285e-01
161 2.9334450307805571e-01 6.9002972053348349e-02 2.2759021531977341e-01
62 2.9334450296454484e-01 6.9002972029954382e-02 2.2759021529535109e-01
17 2.9334450326946515e-01 6.9002970468628105e-02 2.2759021548493283e-01
40 2.9334450311008620e-01 6.9002971856544609e-02 2.2759021534217147e-01
41 2.9334450320097377e-01 6.9002971237756783e-02 2.2759021541034946e-01
20 2.9334450311679944e-01 6.9002971910438374e-02 2.2759021533961843e-01
6 2.9334450310131177e-01 6.9002972053204936e-02 2.2759021532508023e-01
25 2.9334450326116918e-01 6.9002972190487483e-02 2.2759021535150373e-01
34 2.9334450330656126e-01 6.9002972219688083e-02 2.2759021535971549e-01
52 2.9334450296249409e-01 6.9002972019882203e-02 2.2759021529558793e-01
143 2.9334450323474454e-01 6.9002972149595693e-02 2.2759021534861165e-01
3 2.9334450310309712e-01 6.9002972091593159e-02 2.2759021532266413e-01
18 2.9334450303747978e-01 6.9002971927954126e-02 2.2759021531996010e-01
26 2.9334450303829590e-01 6.9002972034947346e-02 2.2759021531198065e-01
81 2.9334450307456039e-01 6.9002972033600049e-02 2.2759021532048357e-01
80 2.9334450309048615e-01 6.9002972064135651e-02 2.2759021532185958e-01
170 2.9334450309004340e-01 6.9002972060765860e-02 2.2759021532196719e-01
22 2.9334450308936844e-01 6.9002970937386415e-02 2.2759021540762600e-01
37 2.9334450207407070e-01 6.9002971332657939e-02 2.2759021514311170e-01
153 2.9334450304422771e-01 6.9002972090974515e-02 2.2759021530907569e-01
135 2.9334450698468878e-01 6.9002964978303799e-02 2.2759021676128449e-01
45 2.9334450316502114e-01 6.9002972073851448e-02 2.2759021533829021e-01
180 2.9334450321177535e-01 6.9002972164014409e-02 2.2759021534212628e-01
10 2.9334450309942367e-01 6.9002972056314754e-02 2.2759021532448362e-01
136 2.9334450108515736e-01 6.9002924200046972e-02 2.2759021850680047e-01
48 2.9289917915610647e-01 6.8689266849683239e-02 2.2716593904992072e-01
109 2.8624691070977237e-01 7.1026024739775095e-02 2.4322231656721210e-01
75 2.8624576730019802e-01 7.1012957557930398e-02 2.4322235652508048e-01
134 2.8624683091088970e-01 7.1010521334827173e-02 2.4322220130877609e-01
73 2.8625045190647641e-01 7.1002312295371808e-02 2.4322078845572948e-01
141 2.8625848324644204e-01 7.1003900046016796e-02 2.4321664432857368e-01
33 2.8624920904339551e-01 7.1012407674441835e-02 2.4322790612819414e-01
124 2.8624788061118084e-01 7.1021361738091357e-02 2.4322559257122786e-01