LAMMPS data file via write_data, version 30 Jul 2016, timestep = 50000000

180 atoms
2 atom types

0.0000000000000000e+00 2.0000000000000000e+01 xlo xhi
0.0000000000000000e+00 2.0000000000000000e+01 ylo yhi
0.0000000000000000e+00 2.0000000000000000e+01 zlo zhi

Masses

1 3.896
2 4.31

Atoms # meso-molecular

107 1 2 1.0279999347266857e+00 -4.2963507100279782e+02 1.0000000000000000e+00 6.6630439709091451e+00 4.9310109952715795e+00 1.3191576549028664e+01 
150 1 2 1.0279999347266273e+00 -6.3912797791851574e+02 1.0000000000000000e+00 6.6630439700347210e+00 4.9310109998261265e+00 1.3191576536144812e+01 
89 1 2 1.0279999347267239e+00 -4.0348421130562144e+02 1.0000000000000000e+00 6.6630439803069228e+00 4.9310110018953006e+00 1.3191576558134599e+01 
46 1 2 1.0279999347266422e+00 -4.1630422198966795e+02 1.0000000000000000e+00 6.6630439697479860e+00 4.9310109975044947e+00 1.3191576540801240e+01 
118 1 2 1.0279999347266937e+00 -4.5058164262675029e+02 1.0000000000000000e+00 6.6630439800408601e+00 4.9310110071473794e+00 1.3191576545212781e+01 
15 1 2 1.0279999347267197e+00 -4.2464972582105975e+02 1.0000000000000000e+00 6.6630439782479431e+00 4.9310110006558610e+00 1.3191576555646169e+01 
157 1 2 1.0279999347266651e+00 -4.3321320182522834e+02 1.0000000000000000e+00 6.6630439743312841e+00 4.9310110012445385e+00 1.3191576544055167e+01 
88 1 2 1.0279999347266719e+00 -4.6501437379691004e+02 1.0000000000000000e+00 6.6630439699690482e+00 4.9310109950065497e+00 1.3191576547192669e+01 
172 1 2 1.0279999347266866e+00 -4.8565176905928718e+02 1.0000000000000000e+00 6.6630439727620479e+00 4.9310109972404659e+00 1.3191576549280887e+01 
155 1 2 1.0279999347266888e+00 -5.3654189082182052e+02 1.0000000000000000e+00 6.6630439729408284e+00 4.9310109974236784e+00 1.3191576549320791e+01 
74 1 2 1.0279999347265467e+00 -3.5623719502238635e+02 1.0000000000000000e+00 6.6630439580034828e+00 4.9310109908178674e+00 1.3191576525719640e+01 
137 1 2 1.0279999347266826e+00 -4.5449896211161814e+02 1.0000000000000000e+00 6.6630439764427978e+00 4.9310110027408456e+00 1.3191576546081716e+01 
168 1 2 1.0279999347267055e+00 -7.1300544192643008e+02 1.0000000000000000e+00 6.6630439762015659e+00 4.9310110006259444e+00 1.3191576550375059e+01 
11 1 2 1.0279999347270108e+00 -3.7938854095490808e+02 1.0000000000000000e+00 6.6630439270253383e+00 4.9310108948653388e+00 1.3191576668247821e+01 
7 1 2 1.0279999347276592e+00 -5.7256137405216407e+02 1.0000000000000000e+00 6.6630441218375918e+00 4.9310110931730886e+00 1.3191576714981585e+01 
178 1 2 1.0279999347266431e+00 -3.9868402481446788e+02 1.0000000000000000e+00 6.6630439712693166e+00 4.9310109997071407e+00 1.3191576539643540e+01 
5 1 2 1.0279999347266664e+00 -4.4578150263445440e+02 1.0000000000000000e+00 6.6630439707523079e+00 4.9310109973925176e+00 1.3191576543681999e+01 
132 1 2 1.0279999347266531e+00 -4.6075790704275914e+02 1.0000000000000000e+00 6.6630439754278052e+00 4.9310110040207595e+00 1.3191576540453958e+01 
152 1 2 1.0279999347266853e+00 -4.1220828109045385e+02 1.0000000000000000e+00 6.6630439691242414e+00 4.9310109929442465e+00 1.3191576549788561e+01 
159 1 2 1.0279999347266551e+00 -5.0366255600015239e+02 1.0000000000000000e+00 6.6630439721986852e+00 4.9310110002513365e+00 1.3191576540801609e+01 
97 1 2 1.0279999347266873e+00 -3.9277423640831864e+02 1.0000000000000000e+00 6.6630439731094633e+00 4.9310109977416303e+00 1.3191576549020727e+01 
24 1 2 1.0279999347266853e+00 -4.6561315940094613e+02 1.0000000000000000e+00 6.6630439734059177e+00 4.9310109983729316e+00 1.3191576548324779e+01 
55 1 2 1.0279999347266529e+00 -4.4898295567714842e+02 1.0000000000000000e+00 6.6630439751541068e+00 4.9310110037462280e+00 1.3191576540378723e+01 
165 1 2 1.0279999347266873e+00 -4.0999448636633343e+02 1.0000000000000000e+00 6.6630439740971958e+00 4.9310109991164408e+00 1.3191576548397935e+01 
123 1 2 1.0279999347266875e+00 -4.5422638891636160e+02 1.0000000000000000e+00 6.6630439723746617e+00 4.9310109967237494e+00 1.3191576549472732e+01 
169 1 2 1.0279999347266393e+00 -5.9240207858470501e+02 1.0000000000000000e+00 6.6630439723086861e+00 4.9310110012685584e+00 1.3191576538721266e+01 
133 1 2 1.0279999347266817e+00 -4.6296696191469374e+02 1.0000000000000000e+00 6.6630439715751955e+00 4.9310109961366599e+00 1.3191576548753217e+01 
146 1 2 1.0279999347267017e+00 -4.1200203694252860e+02 1.0000000000000000e+00 6.6630439757563753e+00 4.9310110002710399e+00 1.3191576550039553e+01 
28 1 2 1.0279999347266831e+00 -4.6571554167463808e+02 1.0000000000000000e+00 6.6630439721890591e+00 4.9310109966078510e+00 1.3191576549258428e+01 
138 1 2 1.0279999347266817e+00 -5.0513989697891657e+02 1.0000000000000000e+00 6.6630439718399161e+00 4.9310109966783591e+00 1.3191576548182946e+01 
174 1 2 1.0279999347266864e+00 -6.7752203744448889e+02 1.0000000000000000e+00 6.6630439724741555e+00 4.9310109968737930e+00 1.3191576549383132e+01 
127 1 2 1.0279999347266815e+00 -3.9040433191116364e+02 1.0000000000000000e+00 6.6630439717036429e+00 4.9310109964577826e+00 1.3191576548340841e+01 
114 1 2 1.0279999347265403e+00 -4.8260070749381634e+02 1.0000000000000000e+00 6.6630439744212460e+00 4.9310110164682550e+00 1.3191576508850188e+01 
61 1 2 1.0279999347267101e+00 -4.4816752789274744e+02 1.0000000000000000e+00 6.6630439748833421e+00 4.9310109979241110e+00 1.3191576553224792e+01 
98 1 2 1.0279999347266833e+00 -3.8209658612572565e+02 1.0000000000000000e+00 6.6630439780596440e+00 4.9310110051860709e+00 1.3191576544608619e+01 
140 1 2 1.0279999347266855e+00 -5.2854205210943860e+02 1.0000000000000000e+00 6.6630439737275955e+00 4.9310109989261131e+00 1.3191576547876419e+01 
4 1 2 1.0279999347265485e+00 -4.4979632046671270e+02 1.0000000000000000e+00 6.6630439540102646e+00 4.9310109853033373e+00 1.3191576528136267e+01 
102 1 2 1.0280001364871656e+00 -4.0334621487279310e+02 1.0000000000000000e+00 1.2950681829032881e+01 1.7134334212344104e+00 5.0321583441436273e+00 
121 1 2 1.0280003414715009e+00 -4.1498368135495537e+02 1.0000000000000000e+00 1.3304967314349751e+01 2.3182399550619919e+00 5.5904832635728630e+00 
8 1 2 1.0280005893156645e+00 -4.6686433062432548e+02 1.0000000000000000e+00 1.2739090395650885e+01 2.6852407712898749e+00 6.3281056454367963e+00 
119 1 2 1.0280005937741847e+00 -4.4948863510180109e+02 1.0000000000000000e+00 1.2726218513949842e+01 2.6847247500981068e+00 6.3287071115583071e+00 
144 1 2 1.0280005972167030e+00 -3.7827956050075386e+02 1.0000000000000000e+00 1.2709877144622359e+01 2.6851322006212390e+00 6.3389205610751072e+00 
142 1 2 1.0280005984974492e+00 -4.4760860826759898e+02 1.0000000000000000e+00 1.2703469786971688e+01 2.6851624887433347e+00 6.3424919029840670e+00 
87 1 2 1.0280006002806845e+00 -3.9800679829289891e+02 1.0000000000000000e+00 1.2696047408962857e+01 2.6849384273652923e+00 6.3450271833944969e+00 
130 1 2 1.0280006004242450e+00 -4.0386259814924591e+02 1.0000000000000000e+00 1.2695182850811864e+01 2.6849515680626430e+00 6.3456467215157337e+00 
116 1 2 1.0280006005337072e+00 -4.0855113944857010e+02 1.0000000000000000e+00 1.2694512611282816e+01 2.6849625259468062e+00 6.3461370409671831e+00 
32 1 2 1.0280006006316924e+00 -5.0324698027869067e+02 1.0000000000000000e+00 1.2693909957771918e+01 2.6849723595742283e+00 6.3465808901664964e+00 
139 1 2 1.0280006006935265e+00 -3.8795384700850650e+02 1.0000000000000000e+00 1.2693524348935144e+01 2.6849790482824045e+00 6.3468694831601971e+00 
54 1 2 1.0280006008887519e+00 -4.7206148580814147e+02 1.0000000000000000e+00 1.2692291660745688e+01 2.6850009476399603e+00 6.3478042512209143e+00 
63 1 2 1.0280006011859417e+00 -4.0895516944470450e+02 1.0000000000000000e+00 1.2690331617353550e+01 2.6850407803340715e+00 6.3493554634821976e+00 
36 1 2 1.0280006042360617e+00 -5.9505465394610064e+02 1.0000000000000000e+00 1.2676304618310658e+01 2.6844885458186103e+00 6.3548111427441913e+00 
176 1 2 1.0280006077609274e+00 -5.9145793804354719e+02 1.0000000000000000e+00 1.2646785692590603e+01 2.6837108558777696e+00 6.3742920363675282e+00 
131 1 2 1.0280006087044422e+00 -4.3137065544030384e+02 1.0000000000000000e+00 1.2638161930824481e+01 2.6833786907599979e+00 6.3805379611525481e+00 
125 1 2 1.0280006099920056e+00 -4.6626126966008957e+02 1.0000000000000000e+00 1.2617980832320004e+01 2.6823067393592637e+00 6.3953303679639646e+00 
82 1 2 1.0280006084809363e+00 -4.1894780989059808e+02 1.0000000000000000e+00 1.2552160062105498e+01 2.6760817007142275e+00 6.4478442632645256e+00 
129 1 2 1.0280005980836946e+00 -3.8585735321333829e+02 1.0000000000000000e+00 1.2478008757260152e+01 2.6631669892020251e+00 6.5095963926244131e+00 
57 1 2 1.0280005946916633e+00 -3.9638913684512795e+02 1.0000000000000000e+00 1.2464329059027262e+01 2.6600619710883748e+00 6.5212038445029954e+00 
35 1 2 1.0280005942120165e+00 -4.9146970852699428e+02 1.0000000000000000e+00 1.2462478603486998e+01 2.6596244226658050e+00 6.5227827845173616e+00 
71 1 2 1.0280005848536280e+00 -5.0129529180520660e+02 1.0000000000000000e+00 1.2429542790163870e+01 2.6511246223647285e+00 6.5512447809080028e+00 
23 1 2 1.0280005740029092e+00 -4.8040974036041371e+02 1.0000000000000000e+00 1.2398368218221229e+01 2.6417984413866504e+00 6.5786701986212126e+00 
100 1 2 1.0280005727188835e+00 -3.4027339070546316e+02 1.0000000000000000e+00 1.2395068269949803e+01 2.6407363609865619e+00 6.5815986856739048e+00 
43 1 2 1.0280005451854342e+00 -4.4515511478132271e+02 1.0000000000000000e+00 1.2335734417835411e+01 2.6191004738974399e+00 6.6349819969323098e+00 
145 1 2 1.0280005295781698e+00 -5.4172243754536134e+02 1.0000000000000000e+00 1.2308495713208814e+01 2.6074973262678385e+00 6.6602038448647063e+00 
90 1 2 1.0280003726791749e+00 -3.7324175464118809e+02 1.0000000000000000e+00 1.2128466043015395e+01 2.4995163955548771e+00 6.8484147033811151e+00 
99 1 2 1.0280003115501972e+00 -3.2975049179990486e+02 1.0000000000000000e+00 1.2081915307364840e+01 2.4609307166060734e+00 6.9018760695494654e+00 
66 1 2 1.0280001719030243e+00 -4.3891199120353212e+02 1.0000000000000000e+00 1.1993430270694118e+01 2.3698883236003883e+00 7.0203702298783242e+00 
78 1 2 1.0280004785016574e+00 -3.9226355756181260e+02 1.0000000000000000e+00 1.1887033823819264e+01 2.2091351237095855e+00 7.2116513891041620e+00 
164 1 2 1.0280003933139494e+00 -5.7510138327299853e+02 1.0000000000000000e+00 1.1824292102069981e+01 2.0814973348703689e+00 7.2962380325375422e+00 
151 1 2 1.0280000251595702e+00 -5.1063857322673766e+02 1.0000000000000000e+00 1.1844792522640487e+01 2.1121855328066230e+00 7.3159841571206181e+00 
56 1 2 1.0279957868880512e+00 -4.2712374945543564e+02 1.0000000000000000e+00 1.2430217710596430e+01 1.0809449141226515e+00 7.9444551637668965e+00 
51 1 2 1.0279964939935691e+00 -4.2187168010516183e+02 1.0000000000000000e+00 1.2007109740582937e+01 1.5097410691515800e+00 7.9720973838566076e+00 
126 1 2 1.0279963726609247e+00 -4.2812390433125137e+02 1.0000000000000000e+00 1.2024922789443419e+01 1.4959290734458344e+00 7.9829320770588463e+00 
83 1 2 1.0279968478237764e+00 -3.6585952045540955e+02 1.0000000000000000e+00 1.0434773862875767e+01 1.9199239387178830e+00 1.1978173847781317e+01 
48 1 2 1.0279993632310327e+00 -3.5770504213746875e+02 1.0000000000000000e+00 9.9893493230421662e+00 2.4281420226924064e+00 1.1947192078515751e+01 
156 1 2 1.0279997927404860e+00 -5.9568948915278372e+02 1.0000000000000000e+00 1.0642849922771232e+01 1.4796712116541224e+00 1.1716778936274643e+01 
38 1 2 1.0280005532820433e+00 -4.4149104896631405e+02 1.0000000000000000e+00 1.0563200978441134e+01 1.3900262052830772e+00 1.1683371258355718e+01 
136 1 2 1.0280006433854210e+00 -4.1527607898738478e+02 1.0000000000000000e+00 1.0548813507832202e+01 1.3833237105062235e+00 1.1683177761575497e+01 
2 1 2 1.0280006428143698e+00 -5.1573329482207976e+02 1.0000000000000000e+00 1.0548907161986442e+01 1.3833820808916504e+00 1.1683205411802135e+01 
59 1 2 1.0280006429935884e+00 -3.3431253896124139e+02 1.0000000000000000e+00 1.0548869117673732e+01 1.3833633642605265e+00 1.1683201809696026e+01 
69 1 2 1.0280006429320006e+00 -3.6699303569316953e+02 1.0000000000000000e+00 1.0548880549274159e+01 1.3833697222529746e+00 1.1683204012995001e+01 
50 1 2 1.0280006428272424e+00 -4.0932872612387479e+02 1.0000000000000000e+00 1.0548905753284773e+01 1.3833808001163790e+00 1.1683204381843906e+01 
67 1 2 1.0280006429612640e+00 -4.2663607663789838e+02 1.0000000000000000e+00 1.0548869927178927e+01 1.3833664546129720e+00 1.1683205994377779e+01 
53 1 2 1.0280006428166637e+00 -4.3612982030027092e+02 1.0000000000000000e+00 1.0548906913747723e+01 1.3833818529169686e+00 1.1683205226829640e+01 
161 1 2 1.0280006428141217e+00 -5.9916954054397115e+02 1.0000000000000000e+00 1.0548907435605480e+01 1.3833821164360853e+00 1.1683205286525276e+01 
62 1 2 1.0280006428151636e+00 -4.5024122361443023e+02 1.0000000000000000e+00 1.0548906998818035e+01 1.3833819998068733e+00 1.1683205395134470e+01 
17 1 2 1.0280006428313999e+00 -5.5229072377804005e+02 1.0000000000000000e+00 1.0548905217094656e+01 1.3833803826798823e+00 1.1683204096703820e+01 
40 1 2 1.0280006428162252e+00 -4.3341051636114497e+02 1.0000000000000000e+00 1.0548907188799879e+01 1.3833819075496914e+00 1.1683205129736340e+01 
41 1 2 1.0280006428228599e+00 -3.4936587397888076e+02 1.0000000000000000e+00 1.0548906378566565e+01 1.3833812431284755e+00 1.1683204647554328e+01 
20 1 2 1.0280006428155570e+00 -4.4014884631521232e+02 1.0000000000000000e+00 1.0548907310125397e+01 1.3833819768750200e+00 1.1683205155912612e+01 
6 1 2 1.0280006428139761e+00 -3.6841350998279478e+02 1.0000000000000000e+00 1.0548907516049050e+01 1.3833821343200847e+00 1.1683205261036163e+01 
25 1 2 1.0280006428113262e+00 -5.1230562419923774e+02 1.0000000000000000e+00 1.0548908321187614e+01 1.3833824225644156e+00 1.1683205172605520e+01 
34 1 2 1.0280006428106780e+00 -4.9099334978028759e+02 1.0000000000000000e+00 1.0548908532102514e+01 1.3833824927464897e+00 1.1683205141312815e+01 
52 1 2 1.0280006428152821e+00 -4.0526716942959905e+02 1.0000000000000000e+00 1.0548906973326483e+01 1.3833819861311012e+00 1.1683205390992972e+01 
143 1 2 1.0280006428119934e+00 -4.3587306885634808e+02 1.0000000000000000e+00 1.0548908155065908e+01 1.3833823534454661e+00 1.1683205176132983e+01 
3 1 2 1.0280006428135424e+00 -6.1360933046430580e+02 1.0000000000000000e+00 1.0548907592249483e+01 1.3833821815486000e+00 1.1683205283101989e+01 
18 1 2 1.0280006428158510e+00 -5.2381446375981466e+02 1.0000000000000000e+00 1.0548907066575765e+01 1.3833819356275168e+00 1.1683205252761706e+01 
26 1 2 1.0280006428146151e+00 -5.0558247477003192e+02 1.0000000000000000e+00 1.0548907264047433e+01 1.3833820634327298e+00 1.1683205318206728e+01 
81 1 2 1.0280006428143931e+00 -4.1010306475795005e+02 1.0000000000000000e+00 1.0548907387580611e+01 1.3833820902391132e+00 1.1683205278061903e+01 
80 1 2 1.0280006428139505e+00 -3.7463836292244076e+02 1.0000000000000000e+00 1.0548907498543558e+01 1.3833821390653642e+00 1.1683205279759752e+01 
170 1 2 1.0280006428139596e+00 -5.3480731340163391e+02 1.0000000000000000e+00 1.0548907490817202e+01 1.3833821346135509e+00 1.1683205278037407e+01 
22 1 2 1.0280006428271136e+00 -4.2114686682021699e+02 1.0000000000000000e+00 1.0548905444406982e+01 1.3833807989837628e+00 1.1683204582753767e+01 
37 1 2 1.0280006428291630e+00 -4.1056540761664002e+02 1.0000000000000000e+00 1.0548902636861646e+01 1.3833804745279101e+00 1.1683205929579483e+01 
153 1 2 1.0280006428139257e+00 -4.8230536825391044e+02 1.0000000000000000e+00 1.0548907386581305e+01 1.3833821346567854e+00 1.1683205346487103e+01 
135 1 2 1.0280006428710813e+00 -4.7673355273017813e+02 1.0000000000000000e+00 1.0548908132681692e+01 1.3833767634437069e+00 1.1683196661781448e+01 
45 1 2 1.0280006428133355e+00 -4.2921655820181883e+02 1.0000000000000000e+00 1.0548907775029898e+01 1.3833822088630461e+00 1.1683205204863041e+01 
180 1 2 1.0280006428119746e+00 -4.3868041862799890e+02 1.0000000000000000e+00 1.0548908101461672e+01 1.3833823524796764e+00 1.1683205209826896e+01 
10 1 2 1.0280006428139634e+00 -4.5597472771121778e+02 1.0000000000000000e+00 1.0548907515192363e+01 1.3833821366660772e+00 1.1683205265177193e+01 
179 1 2 1.0280006433417419e+00 -5.1979733097519841e+02 1.0000000000000000e+00 1.0548795126698945e+01 1.3833269122735814e+00 1.1683194700967709e+01 
93 1 2 1.0280037762141776e+00 -4.0336819224679772e+02 1.0000000000000000e+00 1.4572548836209897e+01 4.5466379499695222e+00 1.6114227169301635e+01 
171 1 2 1.0280050242131220e+00 -5.1586321799649579e+02 1.0000000000000000e+00 1.4569317493009432e+01 4.5455169216171223e+00 1.6135808758036394e+01 
30 1 2 1.0280033683215564e+00 -4.9806142770964971e+02 1.0000000000000000e+00 1.4560088364672014e+01 4.4831301462328570e+00 1.6126491144182616e+01 
104 1 2 1.0280044713157381e+00 -4.7381331278036993e+02 1.0000000000000000e+00 1.4559505100888790e+01 4.4886815806353857e+00 1.6139547783268739e+01 
79 1 2 1.0280050133788854e+00 -4.1915948802470280e+02 1.0000000000000000e+00 1.4557998112752145e+01 4.4932863154899083e+00 1.6147307357575762e+01 
42 1 2 1.0280054053996690e+00 -3.4609933397897385e+02 1.0000000000000000e+00 1.4555337586585441e+01 4.5527968714400435e+00 1.6152997399065043e+01 
65 1 2 1.0280055293329160e+00 -4.5402927566467065e+02 1.0000000000000000e+00 1.4552446738898468e+01 4.5506816918139945e+00 1.6157351615336349e+01 
85 1 2 1.0280058577604514e+00 -4.2240351254147430e+02 1.0000000000000000e+00 1.4551547520695854e+01 4.5389488024254829e+00 1.6163397371052483e+01 
124 1 2 1.0279995311671926e+00 -3.8751189401432930e+02 1.0000000000000000e+00 1.4550159195354139e+01 4.5574894637958865e+00 1.6075603749362063e+01 
109 1 2 1.0279981894278425e+00 -4.2696265344547407e+02 1.0000000000000000e+00 1.4549477965339321e+01 4.5426109270873498e+00 1.6066003806469496e+01 
1 1 2 1.0279973498665580e+00 -5.1513323403870015e+02 1.0000000000000000e+00 1.4547308927277292e+01 4.4848055863515466e+00 1.6077463620452065e+01 
113 1 2 1.0280056989223199e+00 -4.4990236230239498e+02 1.0000000000000000e+00 1.4547541912304036e+01 4.5454482113871268e+00 1.6163977161533346e+01 
60 1 2 1.0280033929719441e+00 -4.5724037120520967e+02 1.0000000000000000e+00 1.4546880658626034e+01 4.4756201466330303e+00 1.6137736590115946e+01 
177 1 2 1.0280002160623172e+00 -4.2527754674022447e+02 1.0000000000000000e+00 1.4545049113419319e+01 4.4693456709869395e+00 1.6108209653781525e+01 
86 1 2 1.0280038241215719e+00 -3.5865063641859041e+02 1.0000000000000000e+00 1.4540767778748229e+01 4.4770817009582329e+00 1.6146970199485448e+01 
106 1 2 1.0280055207039964e+00 -3.9268798259915911e+02 1.0000000000000000e+00 1.4539763780796582e+01 4.5488084293122109e+00 1.6167068712888682e+01 
111 1 2 1.0280054486127996e+00 -3.7166155185871230e+02 1.0000000000000000e+00 1.4533984184341534e+01 4.5028468445455649e+00 1.6170697006907584e+01 
75 1 2 1.0279946419496575e+00 -3.9150090770277103e+02 1.0000000000000000e+00 1.4519404361786059e+01 4.5471683667585374e+00 1.6055354996345031e+01 
134 1 2 1.0279943673826704e+00 -4.9760465860956998e+02 1.0000000000000000e+00 1.4515001827762596e+01 4.5489463846070644e+00 1.6055732498211039e+01 
76 1 2 1.0280050110293613e+00 -3.9893109167458277e+02 1.0000000000000000e+00 1.4515311818157038e+01 4.5168178913237718e+00 1.6177596976139498e+01 
21 1 2 1.0279977016496813e+00 -4.2995446981515687e+02 1.0000000000000000e+00 1.4505750196077511e+01 4.4604603735076225e+00 1.6118643414783232e+01 
166 1 2 1.0279994975039226e+00 -4.2441620256175685e+02 1.0000000000000000e+00 1.4504759447060103e+01 4.4635025427591488e+00 1.6132958051414882e+01 
73 1 2 1.0279930814707567e+00 -3.7883024494635640e+02 1.0000000000000000e+00 1.4499187447267252e+01 4.5487009864636105e+00 1.6056966435300286e+01 
141 1 2 1.0279954215763509e+00 -4.1495273202103584e+02 1.0000000000000000e+00 1.4498338331210372e+01 4.5677314075009994e+00 1.6070728605277655e+01 
64 1 2 1.0279985720617439e+00 -3.8897639737979335e+02 1.0000000000000000e+00 1.4490754377063039e+01 4.5821480441649962e+00 1.6103496418000514e+01 
72 1 2 1.0280015912359597e+00 -4.9893098624562208e+02 1.0000000000000000e+00 1.4489483957526724e+01 4.4846648633330650e+00 1.6158334055566137e+01 
163 1 2 1.0280005769964047e+00 -4.3163870342633953e+02 1.0000000000000000e+00 1.4488238579411487e+01 4.4780769778874845e+00 1.6150779034295624e+01 
167 1 2 1.0279970979527489e+00 -5.1083131556357694e+02 1.0000000000000000e+00 1.4483826192164710e+01 4.5765596463785352e+00 1.6094549090377765e+01 
103 1 2 1.0279954011676733e+00 -3.2863772629209626e+02 1.0000000000000000e+00 1.4479503768078969e+01 4.5686705491297044e+00 1.6084073227224231e+01 
162 1 2 1.0279957089431873e+00 -4.6139629879392766e+02 1.0000000000000000e+00 1.4478347680915721e+01 4.5698111921999276e+00 1.6087344868636301e+01 
33 1 2 1.0279919955922632e+00 -3.9848683794257266e+02 1.0000000000000000e+00 1.4478450474672950e+01 4.5071615450989864e+00 1.6061813376658076e+01 
149 1 2 1.0280001747990326e+00 -5.9342002381065606e+02 1.0000000000000000e+00 1.4473092433584741e+01 4.5668707379489044e+00 1.6138208836089042e+01 
154 1 2 1.0280004073493485e+00 -5.2309767394534697e+02 1.0000000000000000e+00 1.4472883500613319e+01 4.5646290483138650e+00 1.6141569103666811e+01 
128 1 2 1.0279957950645409e+00 -3.4729947674990603e+02 1.0000000000000000e+00 1.4471483251157597e+01 4.5674619030072403e+00 1.6093884837157312e+01 
147 1 2 1.0279938142059024e+00 -4.3664779235079214e+02 1.0000000000000000e+00 1.4469801328835461e+01 4.4981442459069703e+00 1.6073128897282619e+01 
29 1 2 1.0279937449145993e+00 -5.8485393915058262e+02 1.0000000000000000e+00 1.4469399933466294e+01 4.4991219619167975e+00 1.6072954835357052e+01 
84 1 2 1.0279995907383888e+00 -3.8970384773050802e+02 1.0000000000000000e+00 1.4462829623950833e+01 4.5120170654541294e+00 1.6151423779242606e+01 
96 1 2 1.0279979716149441e+00 -3.9284575757406316e+02 1.0000000000000000e+00 1.4455288037606532e+01 4.5423235449033861e+00 1.6133391025573417e+01 
148 1 2 1.0279997527831790e+00 -4.9497589568991373e+02 1.0000000000000000e+00 1.4345691609976338e+01 1.9814992388643578e+01 4.7371087362380582e+00 
108 1 2 1.0279997017029789e+00 -3.9135719676942392e+02 1.0000000000000000e+00 1.4308229805906659e+01 1.9561694357165930e+01 4.7318416297371915e+00 
13 1 2 1.0279996326083007e+00 -4.7116155271181009e+02 1.0000000000000000e+00 1.4148830442010272e+01 1.9235818229487336e+01 4.7451282207349355e+00 
16 1 2 1.0279996277014412e+00 -4.5396960971123701e+02 1.0000000000000000e+00 1.3471041241817101e+01 1.8852420029849835e+01 5.0319276461366647e+00 
44 1 2 1.0279994230645042e+00 -4.4391066541442780e+02 1.0000000000000000e+00 1.4335891002200780e+01 1.8798947348948808e+01 5.1438765878902704e+00 
39 1 2 1.0279994254723586e+00 -4.3799018500325150e+02 1.0000000000000000e+00 1.4316502168648155e+01 1.8748367191550635e+01 5.1971265990174675e+00 
94 1 2 1.0279994387215594e+00 -3.5677441930626429e+02 1.0000000000000000e+00 1.4304349209156113e+01 1.8706549203255339e+01 5.2561721156554464e+00 
58 1 2 1.0279994512213553e+00 -3.6896097275738992e+02 1.0000000000000000e+00 1.4219977505603527e+01 1.8653684226380015e+01 5.2806572059085291e+00 
175 1 2 1.0279994323019555e+00 -5.4595867253201516e+02 1.0000000000000000e+00 1.4393474617122427e+01 1.8710890112786128e+01 5.3723163924358035e+00 
47 1 2 1.0279994630752185e+00 -3.4911309422980906e+02 1.0000000000000000e+00 1.4300886344439249e+01 1.8655596800953337e+01 5.3695402851679717e+00 
27 1 2 1.0279994653005688e+00 -5.1720964925723752e+02 1.0000000000000000e+00 1.4281919892194587e+01 1.8629742645863029e+01 5.4238907967179637e+00 
70 1 2 1.0279994665639591e+00 -4.3252102770628125e+02 1.0000000000000000e+00 1.4263640912162698e+01 1.8621079573424744e+01 5.4245040628711152e+00 
115 1 2 1.0279994459938071e+00 -3.9786500655919366e+02 1.0000000000000000e+00 1.4326327504614817e+01 1.8640416792881645e+01 5.4771542896763385e+00 
105 1 2 1.0279994546105460e+00 -3.8386500149423330e+02 1.0000000000000000e+00 1.4269106264950578e+01 1.8611912192953071e+01 5.4768046905832852e+00 
92 1 2 1.0279994470942677e+00 -3.4145909220298142e+02 1.0000000000000000e+00 1.4286713360059039e+01 1.8616874812982115e+01 5.4951409906754627e+00 
12 1 2 1.0279994482255987e+00 -3.8186543721012629e+02 1.0000000000000000e+00 1.4284467654188196e+01 1.8616219181869322e+01 5.4926501782454569e+00 
19 1 2 1.0279994371629610e+00 -5.3230494636202513e+02 1.0000000000000000e+00 1.4166294367793428e+01 1.8571263505181623e+01 5.4872709756047424e+00 
68 1 2 1.0279994306318354e+00 -4.1133765491466613e+02 1.0000000000000000e+00 1.4150071537868500e+01 1.8565195784422016e+01 5.4951662647361452e+00 
110 1 2 1.0279994394725189e+00 -3.8141704001936029e+02 1.0000000000000000e+00 1.4284024026357052e+01 1.8612560747975959e+01 5.5149697323746825e+00 
122 1 2 1.0279994421856136e+00 -4.1358761280143614e+02 1.0000000000000000e+00 1.4249870514073399e+01 1.8598014707372979e+01 5.5098538678435718e+00 
14 1 2 1.0279994347658481e+00 -4.4992910577584234e+02 1.0000000000000000e+00 1.4229389022472898e+01 1.8587752566243140e+01 5.5242858819463239e+00 
77 1 2 1.0279994278371976e+00 -4.2252701058751103e+02 1.0000000000000000e+00 1.4157217771490190e+01 1.8565146536150543e+01 5.5092532496845514e+00 
120 1 2 1.0279994292553474e+00 -4.5753743226229579e+02 1.0000000000000000e+00 1.4291917557054454e+01 1.8613480233231776e+01 5.5376870209445803e+00 
117 1 2 1.0279994332647011e+00 -4.0153532937010453e+02 1.0000000000000000e+00 1.4277482033793275e+01 1.8607454397805288e+01 5.5307183032928133e+00 
160 1 2 1.0279994339685667e+00 -3.7682574214413279e+02 1.0000000000000000e+00 1.4270193482428294e+01 1.8604242123021958e+01 5.5297542959010348e+00 
173 1 2 1.0279994317264936e+00 -4.8904887665518606e+02 1.0000000000000000e+00 1.4265782965278124e+01 1.8601632093673519e+01 5.5351881090242046e+00 
95 1 2 1.0279994278162423e+00 -4.0262871900719279e+02 1.0000000000000000e+00 1.4258934098414057e+01 1.8597691229960624e+01 5.5438542515124727e+00 
158 1 2 1.0279994357354336e+00 -5.2412553736081043e+02 1.0000000000000000e+00 1.4252071871497625e+01 1.8596822719410817e+01 5.5256227141921963e+00 
101 1 2 1.0279994280684994e+00 -3.8559553914526828e+02 1.0000000000000000e+00 1.4246722133060358e+01 1.8592644449708157e+01 5.5425500803157872e+00 
9 1 2 1.0279994252454538e+00 -4.4950020117287630e+02 1.0000000000000000e+00 1.4230663703102120e+01 1.8585736804179671e+01 5.5467898074334885e+00 
91 1 2 1.0279994292682484e+00 -3.1351324190319446e+02 1.0000000000000000e+00 1.4219990141603649e+01 1.8582866553661219e+01 5.5350501382586419e+00 
31 1 2 1.0279994282264540e+00 -4.7610190406570342e+02 1.0000000000000000e+00 1.4211974647724041e+01 1.8579856433763162e+01 5.5353463438232158e+00 
112 1 2 1.0279994253956295e+00 -4.3333374925590891e+02 1.0000000000000000e+00 1.4256553306727975e+01 1.8596136204602832e+01 5.5491721786533796e+00 
49 1 2 1.0279994456271302e+00 -4.2701209521093074e+02 1.0000000000000000e+00 1.3971745556652278e+01 1.8783936358907283e+01 6.3516311579598481e+00 

Velocities

107 2.9180266928215792e-01 6.8729840808883530e-02 2.2473046408372088e-01
150 2.9180266928770765e-01 6.8729840801552172e-02 2.2473046408954392e-01
89 2.9180266927052695e-01 6.8729840810194384e-02 2.2473046408056135e-01
46 2.9180266928630061e-01 6.8729840804395814e-02 2.2473046408733921e-01
118 2.9180266927553866e-01 6.8729840802576658e-02 2.2473046408646014e-01
15 2.9180266927328580e-01 6.8729840809582415e-02 2.2473046408146163e-01
157 2.9180266928101739e-01 6.8729840804372277e-02 2.2473046408635958e-01
88 2.9180266928370618e-01 6.8729840808164355e-02 2.2473046408444305e-01
172 2.9180266928045484e-01 6.8729840808197246e-02 2.2473046408379765e-01
155 2.9180266928028953e-01 6.8729840808139722e-02 2.2473046408379704e-01
74 2.9180266930224963e-01 6.8729840800522149e-02 2.2473046409299943e-01
137 2.9180266927839138e-01 6.8729840804668901e-02 2.2473046408566519e-01
168 2.9180266927709458e-01 6.8729840807277648e-02 2.2473046408364311e-01
11 2.9180266927640008e-01 6.8729840899754244e-02 2.2473046402428984e-01
7 2.9180266908742925e-01 6.8729840842233880e-02 2.2473046402402311e-01
178 2.9180266928534410e-01 6.8729840803084835e-02 2.2473046408806255e-01
5 2.9180266928430504e-01 6.8729840805726042e-02 2.2473046408614303e-01
132 2.9180266928140652e-01 6.8729840801708131e-02 2.2473046408812603e-01
152 2.9180266928345217e-01 6.8729840810113435e-02 2.2473046408317299e-01
159 2.9180266928412196e-01 6.8729840803342157e-02 2.2473046408761504e-01
97 2.9180266928024023e-01 6.8729840807892892e-02 2.2473046408395611e-01
24 2.9180266928022819e-01 6.8729840807351006e-02 2.2473046408430775e-01
55 2.9180266928168130e-01 6.8729840801781947e-02 2.2473046408812911e-01
165 2.9180266927958715e-01 6.8729840807098166e-02 2.2473046408435210e-01
123 2.9180266928072052e-01 6.8729840808488846e-02 2.2473046408366970e-01
169 2.9180266928476289e-01 6.8729840802080347e-02 2.2473046408859962e-01
133 2.9180266928172088e-01 6.8729840808380613e-02 2.2473046408390096e-01
146 2.9180266927759596e-01 6.8729840807282713e-02 2.2473046408375130e-01
28 2.9180266928097165e-01 6.8729840808430434e-02 2.2473046408374320e-01
138 2.9180266928167964e-01 6.8729840807938591e-02 2.2473046408419609e-01
174 2.9180266928066229e-01 6.8729840808391951e-02 2.2473046408372141e-01
127 2.9180266928173748e-01 6.8729840808092940e-02 2.2473046408411027e-01
114 2.9180266929401988e-01 6.8729840783213439e-02 2.2473046410252312e-01
61 2.9180266927716181e-01 6.8729840809604398e-02 2.2473046408220548e-01
98 2.9180266927752929e-01 6.8729840803062867e-02 2.2473046408651096e-01
140 2.9180266928010917e-01 6.8729840806951853e-02 2.2473046408455064e-01
4 2.9180266930480836e-01 6.8729840803776143e-02 2.2473046409147268e-01
102 2.9579217646812939e-01 6.4790120575610122e-02 2.2794461456201701e-01
121 2.9587632095664457e-01 6.5024122414006819e-02 2.2796817425452426e-01
8 2.9562870738082436e-01 6.5391202655516317e-02 2.2814244802328226e-01
119 2.9562213218465366e-01 6.5393364733154116e-02 2.2814179992519082e-01
144 2.9561313258661193e-01 6.5398025105113028e-02 2.2814481090411759e-01
142 2.9560961085146492e-01 6.5399708873913831e-02 2.2814582469419484e-01