LAMMPS data file via write_data, version 30 Jul 2016, timestep = 600000

2080 atoms
8 atom types

0.0000000000000000e+00 4.0000000000000000e+01 xlo xhi
0.0000000000000000e+00 4.0000000000000000e+01 ylo yhi
0.0000000000000000e+00 1.0000000000000000e+02 zlo zhi

Masses

1 3.896
2 4.306
3 20.064
4 8.378
5 8.378
6 8.378
7 8.378
8 8.378

Atoms # meso-molecular

1 2 4 2.2559723595316457e+00 0.0000000000000000e+00 1.0000000000000000e+00 0.0000000000000000e+00 0.0000000000000000e+00 2.5000000000000000e+00 
2 2 4 2.2559723595316457e+00 0.0000000000000000e+00 1.0000000000000000e+00 0.0000000000000000e+00 2.0000000000000000e+00 2.5000000000000000e+00 
3 2 4 2.2559723595316457e+00 -5.2881445890727513e-03 1.0000000000000000e+00 0.0000000000000000e+00 4.0000000000000000e+00 2.5000000000000000e+00 
4 2 4 2.2559723595316457e+00 -1.1447171738515217e-01 1.0000000000000000e+00 0.0000000000000000e+00 6.0000000000000000e+00 2.5000000000000000e+00 
5 2 4 2.2559723595316457e+00 -4.4459708080321514e-01 1.0000000000000000e+00 0.0000000000000000e+00 8.0000000000000000e+00 2.5000000000000000e+00 
6 2 4 2.2559723595316457e+00 -9.3896225329480720e-01 1.0000000000000000e+00 0.0000000000000000e+00 1.0000000000000000e+01 2.5000000000000000e+00 
7 2 4 2.2559723595316457e+00 -1.4033127168678925e+00 1.0000000000000000e+00 0.0000000000000000e+00 1.2000000000000000e+01 2.5000000000000000e+00 
8 2 4 2.2559723595316457e+00 -1.7194045647688805e+00 1.0000000000000000e+00 0.0000000000000000e+00 1.4000000000000000e+01 2.5000000000000000e+00 
9 2 4 2.2559723595316457e+00 -1.9318723671887610e+00 1.0000000000000000e+00 0.0000000000000000e+00 1.6000000000000000e+01 2.5000000000000000e+00 
10 2 4 2.2559723595316457e+00 -2.0834344931948614e+00 1.0000000000000000e+00 0.0000000000000000e+00 1.8000000000000000e+01 2.5000000000000000e+00 
21 2 4 2.2559723595316457e+00 -1.5141911904137750e-03 1.0000000000000000e+00 2.0000000000000000e+00 0.0000000000000000e+00 2.5000000000000000e+00 
22 2 4 2.2559723595316457e+00 -3.0952717689192005e-01 1.0000000000000000e+00 2.0000000000000000e+00 2.0000000000000000e+00 2.5000000000000000e+00 
23 2 4 2.2559723595316457e+00 -2.0172452234951188e+00 1.0000000000000000e+00 2.0000000000000000e+00 4.0000000000000000e+00 2.5000000000000000e+00 
24 2 4 2.2559723595316457e+00 -6.4593016756479003e+00 1.0000000000000000e+00 2.0000000000000000e+00 6.0000000000000000e+00 2.5000000000000000e+00 
25 2 4 2.2559723595316457e+00 -1.4516844977223538e+01 1.0000000000000000e+00 2.0000000000000000e+00 8.0000000000000000e+00 2.5000000000000000e+00 
26 2 4 2.2559723595316457e+00 -2.5355638629385968e+01 1.0000000000000000e+00 2.0000000000000000e+00 1.0000000000000000e+01 2.5000000000000000e+00 
27 2 4 2.2559723595316457e+00 -3.6032555047200454e+01 1.0000000000000000e+00 2.0000000000000000e+00 1.2000000000000000e+01 2.5000000000000000e+00 
28 2 4 2.2559723595316457e+00 -4.3903464226620514e+01 1.0000000000000000e+00 2.0000000000000000e+00 1.4000000000000000e+01 2.5000000000000000e+00 
29 2 4 2.2559723595316457e+00 -4.8182686569630306e+01 1.0000000000000000e+00 2.0000000000000000e+00 1.6000000000000000e+01 2.5000000000000000e+00 
30 2 4 2.2559723595316457e+00 -4.9738515724861557e+01 1.0000000000000000e+00 2.0000000000000000e+00 1.8000000000000000e+01 2.5000000000000000e+00 
41 2 4 2.2559723595316457e+00 -9.0446955030627796e-01 1.0000000000000000e+00 4.0000000000000000e+00 0.0000000000000000e+00 2.5000000000000000e+00 
42 2 4 2.2559723595316457e+00 -5.9222060660665443e+00 1.0000000000000000e+00 4.0000000000000000e+00 2.0000000000000000e+00 2.5000000000000000e+00 
43 2 4 2.2559723595316457e+00 -2.1248438545307192e+01 1.0000000000000000e+00 4.0000000000000000e+00 4.0000000000000000e+00 2.5000000000000000e+00 
44 2 4 2.2559723595316457e+00 -5.4422267676207667e+01 1.0000000000000000e+00 4.0000000000000000e+00 6.0000000000000000e+00 2.5000000000000000e+00 
45 2 4 2.2559723595316457e+00 -1.0667719732502934e+02 1.0000000000000000e+00 4.0000000000000000e+00 8.0000000000000000e+00 2.5000000000000000e+00 
46 2 4 2.2559723595316457e+00 -1.7022343951037021e+02 1.0000000000000000e+00 4.0000000000000000e+00 1.0000000000000000e+01 2.5000000000000000e+00 
47 2 4 2.2559723595316457e+00 -2.3186493570766723e+02 1.0000000000000000e+00 4.0000000000000000e+00 1.2000000000000000e+01 2.5000000000000000e+00 
48 2 4 2.2559723595316457e+00 -2.7988645228390465e+02 1.0000000000000000e+00 4.0000000000000000e+00 1.4000000000000000e+01 2.5000000000000000e+00 
49 2 4 2.2559723595316457e+00 -3.0829021877888988e+02 1.0000000000000000e+00 4.0000000000000000e+00 1.6000000000000000e+01 2.5000000000000000e+00 
50 2 4 2.2559723595316457e+00 -3.1938322328615391e+02 1.0000000000000000e+00 4.0000000000000000e+00 1.8000000000000000e+01 2.5000000000000000e+00 
61 2 4 2.2559723595316457e+00 -8.9311074512261772e+00 1.0000000000000000e+00 6.0000000000000000e+00 0.0000000000000000e+00 2.5000000000000000e+00 
62 2 4 2.2559723595316457e+00 -3.5161707149364588e+01 1.0000000000000000e+00 6.0000000000000000e+00 2.0000000000000000e+00 2.5000000000000000e+00 
63 2 4 2.2559723595316457e+00 -1.0409297296172970e+02 1.0000000000000000e+00 6.0000000000000000e+00 4.0000000000000000e+00 2.5000000000000000e+00 
64 2 4 2.2559723595316457e+00 -2.3023764189108027e+02 1.0000000000000000e+00 6.0000000000000000e+00 6.0000000000000000e+00 2.5000000000000000e+00 
65 2 4 2.2559723595316457e+00 -4.1007991411576955e+02 1.0000000000000000e+00 6.0000000000000000e+00 8.0000000000000000e+00 2.5000000000000000e+00 
66 2 4 2.2559723595316457e+00 -6.2115105142762570e+02 1.0000000000000000e+00 6.0000000000000000e+00 1.0000000000000000e+01 2.5000000000000000e+00 
67 2 4 2.2559723595316457e+00 -8.3194306777886845e+02 1.0000000000000000e+00 6.0000000000000000e+00 1.2000000000000000e+01 2.5000000000000000e+00 
68 2 4 2.2559723595316457e+00 -1.0091355489073480e+03 1.0000000000000000e+00 6.0000000000000000e+00 1.4000000000000000e+01 2.5000000000000000e+00 
69 2 4 2.2559723595316457e+00 -1.1305175539127554e+03 1.0000000000000000e+00 6.0000000000000000e+00 1.6000000000000000e+01 2.5000000000000000e+00 
70 2 4 2.2559723595316457e+00 -1.1909172217072555e+03 1.0000000000000000e+00 6.0000000000000000e+00 1.8000000000000000e+01 2.5000000000000000e+00 
81 2 4 2.2559723595316457e+00 -4.0282837704735265e+01 1.0000000000000000e+00 8.0000000000000000e+00 0.0000000000000000e+00 2.5000000000000000e+00 
82 2 4 2.2559723595316457e+00 -1.2525914216919237e+02 1.0000000000000000e+00 8.0000000000000000e+00 2.0000000000000000e+00 2.5000000000000000e+00 
83 2 4 2.2559723595316457e+00 -3.2081670361853969e+02 1.0000000000000000e+00 8.0000000000000000e+00 4.0000000000000000e+00 2.5000000000000000e+00 
84 2 4 2.2559723595316457e+00 -6.4339524279425200e+02 1.0000000000000000e+00 8.0000000000000000e+00 6.0000000000000000e+00 2.5000000000000000e+00 
85 2 4 2.2559723595316457e+00 -1.0822847713183801e+03 1.0000000000000000e+00 8.0000000000000000e+00 8.0000000000000000e+00 2.5000000000000000e+00 
86 2 4 2.2559723595316457e+00 -1.6000046207247835e+03 1.0000000000000000e+00 8.0000000000000000e+00 1.0000000000000000e+01 2.5000000000000000e+00 
87 2 4 2.2559723595316457e+00 -2.1333582578974888e+03 1.0000000000000000e+00 8.0000000000000000e+00 1.2000000000000000e+01 2.5000000000000000e+00 
88 2 4 2.2559723595316457e+00 -2.6060856938541856e+03 1.0000000000000000e+00 8.0000000000000000e+00 1.4000000000000000e+01 2.5000000000000000e+00 
89 2 4 2.2559723595316457e+00 -2.9544407390170591e+03 1.0000000000000000e+00 8.0000000000000000e+00 1.6000000000000000e+01 2.5000000000000000e+00 
90 2 4 2.2559723595316457e+00 -3.1378835618919379e+03 1.0000000000000000e+00 8.0000000000000000e+00 1.8000000000000000e+01 2.5000000000000000e+00 
101 2 4 2.2559723595316457e+00 -1.1917174406665373e+02 1.0000000000000000e+00 1.0000000000000000e+01 0.0000000000000000e+00 2.5000000000000000e+00 
102 2 4 2.2559723595316457e+00 -3.1418804902758524e+02 1.0000000000000000e+00 1.0000000000000000e+01 2.0000000000000000e+00 2.5000000000000000e+00 
103 2 4 2.2559723595316457e+00 -7.2380831531620311e+02 1.0000000000000000e+00 1.0000000000000000e+01 4.0000000000000000e+00 2.5000000000000000e+00 
104 2 4 2.2559723595316457e+00 -1.3667170886138565e+03 1.0000000000000000e+00 1.0000000000000000e+01 6.0000000000000000e+00 2.5000000000000000e+00 
105 2 4 2.2559723595316457e+00 -2.2347660768274063e+03 1.0000000000000000e+00 1.0000000000000000e+01 8.0000000000000000e+00 2.5000000000000000e+00 
106 2 4 2.2559723595316457e+00 -3.2704417190910481e+03 1.0000000000000000e+00 1.0000000000000000e+01 1.0000000000000000e+01 2.5000000000000000e+00 
107 2 4 2.2559723595316457e+00 -4.3557522194244102e+03 1.0000000000000000e+00 1.0000000000000000e+01 1.2000000000000000e+01 2.5000000000000000e+00 
108 2 4 2.2559723595316457e+00 -5.3414616640210588e+03 1.0000000000000000e+00 1.0000000000000000e+01 1.4000000000000000e+01 2.5000000000000000e+00 
109 2 4 2.2559723595316457e+00 -6.0911302685094579e+03 1.0000000000000000e+00 1.0000000000000000e+01 1.6000000000000000e+01 2.5000000000000000e+00 
110 2 4 2.2559723595316457e+00 -6.4976255707576202e+03 1.0000000000000000e+00 1.0000000000000000e+01 1.8000000000000000e+01 2.5000000000000000e+00 
121 2 4 2.2559723595316457e+00 -2.6130676341356173e+02 1.0000000000000000e+00 1.2000000000000000e+01 0.0000000000000000e+00 2.5000000000000000e+00 
122 2 4 2.2559723595316457e+00 -6.0658248251823170e+02 1.0000000000000000e+00 1.2000000000000000e+01 2.0000000000000000e+00 2.5000000000000000e+00 
123 2 4 2.2559723595316457e+00 -1.3053510508190125e+03 1.0000000000000000e+00 1.2000000000000000e+01 4.0000000000000000e+00 2.5000000000000000e+00 
124 2 4 2.2559723595316457e+00 -2.3866842853688945e+03 1.0000000000000000e+00 1.2000000000000000e+01 6.0000000000000000e+00 2.5000000000000000e+00 
125 2 4 2.2559723595316457e+00 -3.8491446846381059e+03 1.0000000000000000e+00 1.2000000000000000e+01 8.0000000000000000e+00 2.5000000000000000e+00 
126 2 4 2.2559723595316457e+00 -5.6013446718883833e+03 1.0000000000000000e+00 1.2000000000000000e+01 1.0000000000000000e+01 2.5000000000000000e+00 
127 2 4 2.2559723595316457e+00 -7.4480271262502583e+03 1.0000000000000000e+00 1.2000000000000000e+01 1.2000000000000000e+01 2.5000000000000000e+00 
128 2 4 2.2559723595316457e+00 -9.1454239150731973e+03 1.0000000000000000e+00 1.2000000000000000e+01 1.4000000000000000e+01 2.5000000000000000e+00 
129 2 4 2.2559723595316457e+00 -1.0455415942997281e+04 1.0000000000000000e+00 1.2000000000000000e+01 1.6000000000000000e+01 2.5000000000000000e+00 
130 2 4 2.2559723595316457e+00 -1.1173341154954262e+04 1.0000000000000000e+00 1.2000000000000000e+01 1.8000000000000000e+01 2.5000000000000000e+00 
141 2 4 2.2559723595316457e+00 -4.5034635126747810e+02 1.0000000000000000e+00 1.4000000000000000e+01 0.0000000000000000e+00 2.5000000000000000e+00 
142 2 4 2.2559723595316457e+00 -9.5754243885484698e+02 1.0000000000000000e+00 1.4000000000000000e+01 2.0000000000000000e+00 2.5000000000000000e+00 
143 2 4 2.2559723595316457e+00 -1.9795025612415366e+03 1.0000000000000000e+00 1.4000000000000000e+01 4.0000000000000000e+00 2.5000000000000000e+00 
144 2 4 2.2559723595316457e+00 -3.5580044877040900e+03 1.0000000000000000e+00 1.4000000000000000e+01 6.0000000000000000e+00 2.5000000000000000e+00 
145 2 4 2.2559723595316457e+00 -5.6961084338136616e+03 1.0000000000000000e+00 1.4000000000000000e+01 8.0000000000000000e+00 2.5000000000000000e+00 
146 2 4 2.2559723595316457e+00 -8.2605711946559568e+03 1.0000000000000000e+00 1.4000000000000000e+01 1.0000000000000000e+01 2.5000000000000000e+00 
147 2 4 2.2559723595316457e+00 -1.0971613448870765e+04 1.0000000000000000e+00 1.4000000000000000e+01 1.2000000000000000e+01 2.5000000000000000e+00 
148 2 4 2.2559723595316457e+00 -1.3476399764856378e+04 1.0000000000000000e+00 1.4000000000000000e+01 1.4000000000000000e+01 2.5000000000000000e+00 
149 2 4 2.2559723595316457e+00 -1.5415474612187976e+04 1.0000000000000000e+00 1.4000000000000000e+01 1.6000000000000000e+01 2.5000000000000000e+00 
150 2 4 2.2559723595316457e+00 -1.6477345006192816e+04 1.0000000000000000e+00 1.4000000000000000e+01 1.8000000000000000e+01 2.5000000000000000e+00 
161 2 4 2.2559723595316457e+00 -6.3469056933428146e+02 1.0000000000000000e+00 1.6000000000000000e+01 0.0000000000000000e+00 2.5000000000000000e+00 
162 2 4 2.2559723595316457e+00 -1.2800247420955275e+03 1.0000000000000000e+00 1.6000000000000000e+01 2.0000000000000000e+00 2.5000000000000000e+00 
163 2 4 2.2559723595316457e+00 -2.5875857185224236e+03 1.0000000000000000e+00 1.6000000000000000e+01 4.0000000000000000e+00 2.5000000000000000e+00 
164 2 4 2.2559723595316457e+00 -4.6103278299285648e+03 1.0000000000000000e+00 1.6000000000000000e+01 6.0000000000000000e+00 2.5000000000000000e+00 
165 2 4 2.2559723595316457e+00 -7.3517983756414505e+03 1.0000000000000000e+00 1.6000000000000000e+01 8.0000000000000000e+00 2.5000000000000000e+00 
166 2 4 2.2559723595316457e+00 -1.0641756223090968e+04 1.0000000000000000e+00 1.6000000000000000e+01 1.0000000000000000e+01 2.5000000000000000e+00 
167 2 4 2.2559723595316457e+00 -1.4126774417219141e+04 1.0000000000000000e+00 1.6000000000000000e+01 1.2000000000000000e+01 2.5000000000000000e+00 
168 2 4 2.2559723595316457e+00 -1.7351673963898047e+04 1.0000000000000000e+00 1.6000000000000000e+01 1.4000000000000000e+01 2.5000000000000000e+00 
169 2 4 2.2559723595316457e+00 -1.9846025880019195e+04 1.0000000000000000e+00 1.6000000000000000e+01 1.6000000000000000e+01 2.5000000000000000e+00 
170 2 4 2.2559723595316457e+00 -2.1209157207695142e+04 1.0000000000000000e+00 1.6000000000000000e+01 1.8000000000000000e+01 2.5000000000000000e+00 
181 2 4 2.2559723595316457e+00 -7.4924985210342493e+02 1.0000000000000000e+00 1.8000000000000000e+01 0.0000000000000000e+00 2.5000000000000000e+00 
182 2 4 2.2559723595316457e+00 -1.4745855508395207e+03 1.0000000000000000e+00 1.8000000000000000e+01 2.0000000000000000e+00 2.5000000000000000e+00 
183 2 4 2.2559723595316457e+00 -2.9512776454618070e+03 1.0000000000000000e+00 1.8000000000000000e+01 4.0000000000000000e+00 2.5000000000000000e+00 
184 2 4 2.2559723595316457e+00 -5.2382852964829071e+03 1.0000000000000000e+00 1.8000000000000000e+01 6.0000000000000000e+00 2.5000000000000000e+00 
185 2 4 2.2559723595316457e+00 -8.3386652950270000e+03 1.0000000000000000e+00 1.8000000000000000e+01 8.0000000000000000e+00 2.5000000000000000e+00 
186 2 4 2.2559723595316457e+00 -1.2061401537386475e+04 1.0000000000000000e+00 1.8000000000000000e+01 1.0000000000000000e+01 2.5000000000000000e+00 
187 2 4 2.2559723595316457e+00 -1.6008803339373844e+04 1.0000000000000000e+00 1.8000000000000000e+01 1.2000000000000000e+01 2.5000000000000000e+00 
188 2 4 2.2559723595316457e+00 -1.9662234568407770e+04 1.0000000000000000e+00 1.8000000000000000e+01 1.4000000000000000e+01 2.5000000000000000e+00 
189 2 4 2.2559723595316457e+00 -2.2485052346865672e+04 1.0000000000000000e+00 1.8000000000000000e+01 1.6000000000000000e+01 2.5000000000000000e+00 
190 2 4 2.2559723595316457e+00 -2.4026633847239973e+04 1.0000000000000000e+00 1.8000000000000000e+01 1.8000000000000000e+01 2.5000000000000000e+00 
863 465 2 1.0140956658944729e+00 1.3306892741415009e+04 1.0000000000000000e+00 1.8327216692180002e+01 1.7484953920815489e+01 4.2682174921172773e+01 
683 285 2 1.0266792844281276e+00 1.0360937237383474e+04 1.0000000000000000e+00 1.9872568913834947e+01 1.7331725667009966e+01 4.8644370067208875e+01 
961 563 2 1.0355157115579618e+00 2.1156211461350117e+03 1.0000000000000000e+00 1.7810251290941363e+01 1.8605714311010878e+01 4.9937051747722421e+01 
516 118 2 1.0226341707807256e+00 9.8483729549274108e+02 1.0000000000000000e+00 1.8915395107541880e+01 1.8154831549720015e+01 4.1867095624970069e+01 
788 390 2 1.0237375820625740e+00 1.2382107437543809e+03 1.0000000000000000e+00 1.8358079000392060e+01 1.6998342451825867e+01 4.7430865149145113e+01 
1366 968 2 1.0342929007146993e+00 -1.8614659073101823e+03 1.0000000000000000e+00 1.6946549968938012e+01 1.8102318989545122e+01 4.4340181851812730e+01 
1781 1383 2 1.0449091166058186e+00 2.3641735682529369e+02 1.0000000000000000e+00 1.8343236349692180e+01 1.8820583276873329e+01 4.2020435109491373e+01 
1197 799 2 1.0387723120951173e+00 5.5847540867663529e+03 1.0000000000000000e+00 1.9429285251070134e+01 1.9399187718020315e+01 4.1450077688198974e+01 
845 447 2 1.0416082392369344e+00 1.9590344066340515e+03 1.0000000000000000e+00 1.8239535784998264e+01 1.9766300351876989e+01 4.1728918407448639e+01 
830 432 2 1.0415978374633730e+00 6.9126108773656290e+02 1.0000000000000000e+00 1.9605429238187206e+01 1.9442049045977981e+01 4.1493329202092546e+01 
917 519 2 1.0249666990564119e+00 1.4171628643507161e+01 1.0000000000000000e+00 1.7784903404132535e+01 1.7455894675584588e+01 4.3569796493705283e+01 
1940 1542 2 1.0155700125023628e+00 -1.9167938157459892e+04 1.0000000000000000e+00 1.7183244724373033e+01 1.7740839838275352e+01 4.3691633623809096e+01 
1480 1082 2 1.0347950255665055e+00 1.3812059779067793e+04 1.0000000000000000e+00 1.8874958387858992e+01 1.8956933016813860e+01 4.1588704379168732e+01 
1866 1468 2 1.0461006093489649e+00 6.2081241352322068e+03 1.0000000000000000e+00 1.7782485216130389e+01 1.8600531585117277e+01 4.9385072904420397e+01 
1517 1119 2 1.0381985509086584e+00 4.2271782103882879e+03 1.0000000000000000e+00 1.7994712895772061e+01 1.8556019053921016e+01 4.2276722792221939e+01 
929 531 2 1.0451366438206080e+00 8.0519978597324198e+03 1.0000000000000000e+00 1.7818447069404090e+01 1.7541666558056892e+01 4.4098352440790102e+01 
868 470 2 1.0404537131304048e+00 1.4959126065830969e+04 1.0000000000000000e+00 1.9395846537565408e+01 1.7375391370769066e+01 4.3166339751218707e+01 
791 393 2 1.0209478992831538e+00 5.7398047978468958e+03 1.0000000000000000e+00 1.9641745581210742e+01 1.9873320176203649e+01 4.1130619906449390e+01 
1661 1263 2 1.0041828365424150e+00 1.0478670018489287e+04 1.0000000000000000e+00 1.5941808753090918e+01 1.9822096827195249e+01 4.4831862768874075e+01 
1758 1360 2 1.0351851627626054e+00 -5.8771374424713804e+03 1.0000000000000000e+00 1.7001559326476109e+01 1.8164182990302432e+01 4.4055101164630841e+01 
687 289 2 1.0070405315178845e+00 5.6605203645150723e+04 1.0000000000000000e+00 1.8458146740786074e+01 1.7881102409764463e+01 4.1985258266715292e+01 
1293 895 2 1.0251889403877303e+00 9.0314822266858027e+03 1.0000000000000000e+00 1.7280124623395956e+01 1.8424321693717413e+01 4.2833381774418065e+01 
1656 1258 2 1.0235983587711281e+00 -3.5123433111739027e+03 1.0000000000000000e+00 1.9271343132405434e+01 1.7524914148038125e+01 4.9627940592236257e+01 
1986 1588 2 1.0088294515636145e+00 3.5824590891475959e+03 1.0000000000000000e+00 1.8002751598484121e+01 1.8618463118453345e+01 4.1691102163919545e+01 
490 92 2 1.0373614552495234e+00 1.5336086521232069e+03 1.0000000000000000e+00 1.8873272126863853e+01 1.8458846412163670e+01 4.1907980257917814e+01 
518 120 2 1.0280249436801265e+00 9.7265779111559277e+03 1.0000000000000000e+00 1.9402877502061646e+01 1.7462182091884262e+01 4.9212236411154407e+01 
1155 757 2 1.0248817908725094e+00 -3.5376706286968274e+03 1.0000000000000000e+00 1.8637993806894610e+01 1.6759847257111414e+01 4.4897805512064295e+01 
1874 1476 2 1.0143027641264104e+00 1.0653256131060745e+04 1.0000000000000000e+00 1.8485115745860377e+01 1.6777418732320061e+01 4.7131211052291007e+01 
573 175 2 1.0495813645474072e+00 2.6144692333879677e+04 1.0000000000000000e+00 1.7387197009096028e+01 1.7713643938182088e+01 4.5194717531490980e+01 
1858 1460 2 1.0310044480524376e+00 1.0333369209351702e+04 1.0000000000000000e+00 1.7647144364181727e+01 1.8156913140424837e+01 4.9156095229213683e+01 
1285 887 2 1.0098931288960837e+00 9.8635542152284379e+03 1.0000000000000000e+00 1.9967604025146869e+01 1.7857191193860078e+01 4.1926112882245171e+01 
2063 1665 2 1.0188179178353669e+00 -1.5964126197601814e+04 1.0000000000000000e+00 1.8294258409113628e+01 1.8981331380665907e+01 4.1521324486949041e+01 
1724 1326 2 1.0249737495277991e+00 -2.0278833148257763e+03 1.0000000000000000e+00 1.7856460709834870e+01 1.9757915387137370e+01 4.1678857956862068e+01 
419 21 2 1.0350956185839881e+00 -1.0986666636598440e+04 1.0000000000000000e+00 1.9268803957751654e+01 1.9898310656383849e+01 4.1334946067035673e+01 
1902 1504 2 1.0159813452160349e+00 -2.1703975691488806e+04 1.0000000000000000e+00 1.6869611783493436e+01 1.8152398939115443e+01 4.3643595668540812e+01 
739 341 2 1.0329912152891694e+00 1.3758185400491464e+04 1.0000000000000000e+00 1.9411453522547433e+01 1.8864834454662208e+01 4.1540094359600346e+01 
855 457 2 1.0276473531539272e+00 1.8877169649750667e+04 1.0000000000000000e+00 1.6961731384204661e+01 1.9702905715849322e+01 4.8917940071873765e+01 
657 259 2 1.0279460132176819e+00 -1.1276368080579014e+03 1.0000000000000000e+00 1.6620488456738716e+01 1.8308916546779610e+01 4.4858925979672264e+01 
1272 874 2 1.0365696547976861e+00 -3.1346721249977336e+03 1.0000000000000000e+00 1.8412415346284803e+01 1.9905554301332970e+01 4.1557303922830990e+01 
1317 919 2 1.0258673409834991e+00 2.5296642387226125e+03 1.0000000000000000e+00 1.7387351962840192e+01 1.9821342943134944e+01 4.9909292283580051e+01 
734 336 2 1.0227628214722857e+00 -2.7619656225657611e+04 1.0000000000000000e+00 1.8449278144986199e+01 1.9191706554615340e+01 4.1442709440997533e+01 
737 339 2 1.0503417551984684e+00 1.3707527802431625e+04 1.0000000000000000e+00 1.6712458965553953e+01 1.9466664702383220e+01 4.7215603066237264e+01 
1813 1415 2 1.0366753771599353e+00 2.0373427678380918e+04 1.0000000000000000e+00 1.9785397642862371e+01 1.9235472933506909e+01 4.1489737307835433e+01 
461 63 2 1.0226529769546839e+00 -8.8132918538398608e+03 1.0000000000000000e+00 1.8708226412487495e+01 1.9772481208867926e+01 4.1245468808260689e+01 
1069 671 2 1.0311850396199884e+00 -8.5972808319495689e+03 1.0000000000000000e+00 1.6506275974127060e+01 1.9300929465141678e+01 4.7335878213123848e+01 
995 597 2 1.0336795235566283e+00 2.2077994240392054e+03 1.0000000000000000e+00 1.7780525070712287e+01 1.8751308418118473e+01 4.2225501869763342e+01 
1645 1247 2 1.0290804677782723e+00 1.4376209440719955e+04 1.0000000000000000e+00 1.6538981638715349e+01 1.8571486558330623e+01 4.6582589812801473e+01 
1287 889 2 1.0578094706661676e+00 5.2886262124990244e+03 1.0000000000000000e+00 1.8490883835614810e+01 1.9810685160218945e+01 4.1885372801260473e+01 
655 257 2 1.0079570020865909e+00 1.7726317178718604e+04 1.0000000000000000e+00 1.6721285432611598e+01 1.7945432938943224e+01 4.7222686583975118e+01 
1699 1301 2 1.0445203956564275e+00 2.1595806015849212e+04 1.0000000000000000e+00 1.8824868759757944e+01 1.7597856206244639e+01 4.2996116581360447e+01 
543 145 2 1.0315146408446338e+00 -9.4647496964877882e+03 1.0000000000000000e+00 1.9428430984177236e+01 1.6782638862093954e+01 4.4726711507262159e+01 
1361 963 2 1.0229980394776013e+00 1.6971727710120522e+04 1.0000000000000000e+00 1.6538851325047574e+01 1.9345344647162960e+01 4.7869340141357625e+01 
1815 1417 2 1.0316311264243485e+00 5.7575456884303085e+03 1.0000000000000000e+00 1.8650659763743089e+01 1.6822154725791346e+01 4.5065657443139067e+01 
634 236 2 1.0231781202926022e+00 2.4458953217210299e+04 1.0000000000000000e+00 1.7942553963123363e+01 1.7613067947197784e+01 4.3027150217879225e+01 
1322 924 2 1.0250857382853578e+00 -3.5493168708143485e+03 1.0000000000000000e+00 1.8057672334174743e+01 1.8783919214640623e+01 4.1846235905732101e+01 
1437 1039 2 1.0406491122890058e+00 9.0285863120291160e+03 1.0000000000000000e+00 1.7296333004302387e+01 1.8006013388291539e+01 4.3861127460853524e+01 
1217 819 2 1.0401999483864464e+00 -1.8535929972012948e+03 1.0000000000000000e+00 1.9234751195657235e+01 1.9051770552870522e+01 4.1584517155747157e+01 
417 19 2 1.0168214546282037e+00 -1.5661385426851948e+04 1.0000000000000000e+00 1.7239806474371907e+01 1.9205191137129479e+01 4.2195727811096660e+01 
1850 1452 2 1.0174491974361113e+00 -2.9115304068201194e+03 1.0000000000000000e+00 1.9121097717945418e+01 1.8856208107745552e+01 4.1316844028719103e+01 
722 324 2 1.0397889633265645e+00 -1.2546686569615422e+04 1.0000000000000000e+00 1.9814955915210831e+01 1.7237258969239409e+01 4.3527190324274137e+01 
1495 1097 2 1.0493249949734156e+00 1.3959511855282912e+04 1.0000000000000000e+00 1.7567048964360868e+01 1.9687633821999327e+01 4.2378939023162530e+01 
1879 1481 2 1.0385221421992339e+00 8.3733211104781185e+03 1.0000000000000000e+00 1.9411985542650854e+01 1.7288946315128424e+01 4.3284443134606065e+01 
1365 967 2 1.0380757462608119e+00 5.5845617746124844e+03 1.0000000000000000e+00 1.8837417831800867e+01 1.7763394691536913e+01 4.2597302579268259e+01 
1337 939 2 1.0349792580177082e+00 -3.1850702666121906e+03 1.0000000000000000e+00 1.9283053745586127e+01 1.9918847686667302e+01 4.1331929600976764e+01 
1799 1401 2 1.0196881713488168e+00 3.1159354514675983e+03 1.0000000000000000e+00 1.8603142058361151e+01 1.8796871659223125e+01 4.1493361227609327e+01 
975 577 2 1.0396107451347645e+00 1.4813575247005494e+03 1.0000000000000000e+00 1.7546470438236728e+01 1.8362900863779004e+01 4.2907347916963971e+01 
1999 1601 2 1.0098301495126472e+00 2.9149181386046207e+03 1.0000000000000000e+00 1.9989176748905184e+01 1.8242234653655956e+01 4.1601374120445030e+01 
1732 1334 2 1.0413651946511548e+00 -4.9730159793385965e+03 1.0000000000000000e+00 1.7779423791816697e+01 1.8147262874405211e+01 4.2922174299033578e+01 
1860 1462 2 1.0401260959092666e+00 1.2233225669322801e+04 1.0000000000000000e+00 1.7290830221500936e+01 1.7828497637125995e+01 4.7055396711536559e+01 
515 117 2 1.0277456144955648e+00 1.0429215741616521e+04 1.0000000000000000e+00 1.9968760276462685e+01 1.8702010836983419e+01 4.1603183260931452e+01 
867 469 2 1.0208381184547988e+00 1.7267864164644197e+04 1.0000000000000000e+00 1.7992920714433843e+01 1.7022088388315542e+01 4.4364097787511227e+01 
817 419 2 1.0364364999350526e+00 -1.8327464359815043e+04 1.0000000000000000e+00 1.7612322965887060e+01 1.7837413984661303e+01 4.3446234614998481e+01 
1058 660 2 1.0277671510558208e+00 5.6526347145444024e+03 1.0000000000000000e+00 1.6866769873722049e+01 1.9105051197265162e+01 4.3016157269534219e+01 
2049 1651 2 1.0415138953193477e+00 -7.9994815306866449e+03 1.0000000000000000e+00 1.9360756756363141e+01 1.9283505969833993e+01 4.1523207910879613e+01 
1163 765 2 1.0462606723351766e+00 5.4223249900351857e+03 1.0000000000000000e+00 1.9714017672097491e+01 1.7656602824396259e+01 4.2880227442789653e+01 
1182 784 2 1.0317755959419539e+00 -2.6596548834945156e+03 1.0000000000000000e+00 1.7718036258783336e+01 1.8856703849444735e+01 4.2179873502543629e+01 
1176 778 2 1.0272186414174267e+00 2.1571518883876752e+02 1.0000000000000000e+00 1.9472852186008176e+01 1.7562596290721139e+01 4.2534447396101243e+01 
673 275 2 1.0336273687222048e+00 -3.8018329446121729e+03 1.0000000000000000e+00 1.7996726847461122e+01 1.7610978252276528e+01 4.3267411776668609e+01 
953 555 2 1.0148578227425979e+00 3.8846866538237682e+03 1.0000000000000000e+00 1.8508276481802284e+01 1.9408507162735184e+01 4.1242604882172024e+01 
1173 775 2 1.0258567711099218e+00 2.0547663987664544e+02 1.0000000000000000e+00 1.9303203952350980e+01 1.9847159017701610e+01 4.1195962476006073e+01 
1440 1042 2 1.0186862198717475e+00 9.0451865124355063e+03 1.0000000000000000e+00 1.9975969694548002e+01 1.7570604502132461e+01 4.2432888298395234e+01 
1703 1305 2 1.0372391741978002e+00 1.3313757283008061e+04 1.0000000000000000e+00 1.6676399391447031e+01 1.8394774353401200e+01 4.5067491943802857e+01 
1377 979 2 1.0290811076139035e+00 5.1180733647602538e+03 1.0000000000000000e+00 1.8633925828429298e+01 1.6933937404954005e+01 4.4208481223704737e+01 
2017 1619 2 1.0612534061120025e+00 -2.3440429204428601e+03 1.0000000000000000e+00 1.7937557014081413e+01 1.7909311531717027e+01 4.3678032006409204e+01 
604 206 2 1.0116265115934202e+00 -1.4650332544846144e+03 1.0000000000000000e+00 1.8789836785649015e+01 1.9974566754533335e+01 4.1056115415755258e+01 
1162 764 2 1.0385216213082797e+00 5.4193513556803173e+03 1.0000000000000000e+00 1.8314780488023686e+01 1.7504754626108443e+01 4.3302191212159634e+01 
1274 876 2 1.0182330095230321e+00 1.4268295740172641e+03 1.0000000000000000e+00 1.8059064168371162e+01 1.9294515549530946e+01 4.1526368982776809e+01 
1778 1380 2 1.0316543711794737e+00 -2.4811945018246288e+03 1.0000000000000000e+00 1.8737652254168339e+01 1.9356882120756278e+01 4.1440327987274891e+01 
1259 861 2 1.0118631008747063e+00 -5.2130871484269210e+03 1.0000000000000000e+00 1.8797047447025186e+01 1.6592497219116236e+01 4.4754369706898323e+01 
1704 1306 2 1.0295079358109729e+00 1.5489671588461464e+04 1.0000000000000000e+00 1.9034604672878555e+01 1.6715262175672802e+01 4.5439574273080666e+01 
598 200 2 1.0299291454805339e+00 -9.0020671399818493e+03 1.0000000000000000e+00 1.9887452794965640e+01 1.7925676946174839e+01 4.2219625639387424e+01 
1486 1088 2 1.0415565574139825e+00 -2.2854920349961153e+03 1.0000000000000000e+00 1.7538945117771696e+01 1.8999229202037945e+01 4.9479990890926011e+01 
1362 964 2 1.0361369003088154e+00 4.6878246454704553e+04 1.0000000000000000e+00 1.6590802535234584e+01 1.8493829097583326e+01 4.5775376079463783e+01 
1634 1236 2 1.0250428350062222e+00 5.8511655301295832e+02 1.0000000000000000e+00 1.7120426215326745e+01 1.9120021086558463e+01 4.2550438472018861e+01 
987 589 2 1.0131031436940496e+00 -8.8600931057412563e+03 1.0000000000000000e+00 1.9654592026731589e+01 1.6985136800411777e+01 4.8344129013427739e+01 
1243 845 2 1.0332764100011327e+00 7.7121785033037986e+03 1.0000000000000000e+00 1.8738635767903702e+01 1.9859691743953821e+01 4.1394175142133690e+01 
1784 1386 2 1.0338776273368140e+00 2.2847548504167659e+02 1.0000000000000000e+00 1.6707448308736254e+01 1.9370327239821201e+01 4.3375752739669814e+01 
1817 1419 2 1.0412830099599335e+00 9.6643637078867323e+03 1.0000000000000000e+00 1.8030282246376863e+01 1.8126316002449013e+01 4.9298503471259345e+01 
1093 695 2 1.0241178356892235e+00 -7.9101605585302798e+02 1.0000000000000000e+00 1.8710889419697864e+01 1.9039392521979966e+01 4.1427622952535970e+01 