LAMMPS data file via write_data, version 30 Jul 2016, timestep = 50400000

2772 atoms
8 atom types

0.0000000000000000e+00 1.0000000000000000e+02 xlo xhi
0.0000000000000000e+00 4.0000000000000000e+01 ylo yhi
0.0000000000000000e+00 4.0000000000000000e+01 zlo zhi

Masses

1 3.896
2 5.36
3 20.064
4 8.378
5 8.378
6 8.378
7 8.378
8 8.378

Atoms # meso-molecular

669 670 2 1.0279999894805996e+00 1.2291153769449134e+03 1.0000000000000000e+00 3.0436195647257016e+01 1.3800000000000001e+01 7.0463708103972089e-01 
627 628 2 1.0279999884790498e+00 7.6471877941191497e+02 1.0000000000000000e+00 3.0435431211908586e+01 1.3800000000000001e+01 7.1032378442653532e-01 
559 560 2 1.0280000182268636e+00 6.0766055307250213e+02 1.0000000000000000e+00 3.2390806328543036e+01 1.3800000000000001e+01 9.6979550482038723e-01 
776 777 2 1.0280000064339121e+00 -9.9906372423978496e+02 1.0000000000000000e+00 3.2359009233635412e+01 1.3800000000000001e+01 1.0972686671743317e+00 
1324 1325 2 1.0280000000000011e+00 -3.3344808889857477e+03 1.0000000000000000e+00 1.1526103392608888e+00 1.7600000000000001e+01 5.5561818113335804e-01 
1196 1197 2 1.0280000000000022e+00 2.3900191456675652e+03 1.0000000000000000e+00 2.3286225223307073e+00 1.7600000000000001e+01 8.1580592732161050e-01 
1235 1236 2 1.0280000000000007e+00 -4.5849827669448623e+03 1.0000000000000000e+00 3.9575697880740628e+00 1.7600000000000001e+01 7.1300573932924693e-01 
986 987 2 1.0280000000000040e+00 -2.7370688426756469e+03 1.0000000000000000e+00 4.5646547708955874e+00 1.7600000000000001e+01 8.9525104912244899e-02 
1191 1192 2 1.0279999999999911e+00 1.6392828981965895e+03 1.0000000000000000e+00 6.6300499054023216e+00 1.7600000000000001e+01 1.2756045177213174e-01 
1365 1366 2 1.0280000000000076e+00 1.9819150670831732e+03 1.0000000000000000e+00 7.0671903252900661e+00 1.7600000000000001e+01 1.6824115009580942e-01 
1034 1035 2 1.0279999999999960e+00 -1.1320119863460322e+03 1.0000000000000000e+00 1.2178058835312061e+01 1.7600000000000001e+01 6.4719582860476910e-01 
1339 1340 2 1.0279999999999987e+00 -3.7277716063291575e+02 1.0000000000000000e+00 1.2224415092601207e+01 1.7600000000000001e+01 7.3096186444093392e-01 
1280 1281 2 1.0279999999999963e+00 -5.3732535469229811e+02 1.0000000000000000e+00 2.1092746443792487e-01 1.7600000000000001e+01 2.6566536269011789e+00 
1278 1279 2 1.0279999999999965e+00 2.9251549599541568e+02 1.0000000000000000e+00 2.0786317233137638e-01 1.7600000000000001e+01 2.6556951582759871e+00 
1267 1268 2 1.0280000000000014e+00 -1.0165877681629579e+03 1.0000000000000000e+00 1.9249568775395867e+00 1.7600000000000001e+01 3.9440256545712162e+00 
1233 1234 2 1.0280000000000020e+00 -3.8625002122383034e+03 1.0000000000000000e+00 3.1957340703489718e+00 1.7600000000000001e+01 2.4061706987380851e+00 
935 936 2 1.0280000000000002e+00 6.2107986146730109e+03 1.0000000000000000e+00 2.0798186415345659e+00 1.7600000000000001e+01 3.9221809545317941e+00 
1189 1190 2 1.0280000000000025e+00 3.0265251098150447e+03 1.0000000000000000e+00 4.0028496575558030e+00 1.7600000000000001e+01 2.6162846637572859e+00 
1238 1239 2 1.0279999999999965e+00 -1.0008177983799285e+03 1.0000000000000000e+00 5.4435155058318729e+00 1.7600000000000001e+01 3.0785357294239537e+00 
1021 1022 2 1.0280000000000009e+00 6.0373444497497201e+02 1.0000000000000000e+00 6.0742346359372235e+00 1.7600000000000001e+01 3.0486384874887102e+00 
1279 1280 2 1.0280000000000020e+00 2.5484711549428621e+03 1.0000000000000000e+00 7.7726304440817904e+00 1.7600000000000001e+01 3.2487012539154674e+00 
1281 1282 2 1.0279999999999989e+00 8.9878422648413664e+02 1.0000000000000000e+00 8.5330692883230590e+00 1.7600000000000001e+01 2.7603988543947695e+00 
1330 1331 2 1.0280000000000027e+00 8.9797783897134341e+03 1.0000000000000000e+00 9.8962643792768681e+00 1.7600000000000001e+01 2.2064331105499901e+00 
1296 1297 2 1.0279999999999994e+00 -1.0504315217383657e+03 1.0000000000000000e+00 1.0948665826168995e+01 1.7600000000000001e+01 2.4381460729676432e+00 
1037 1038 2 1.0280000000000009e+00 3.5022279240979979e+03 1.0000000000000000e+00 9.9027157505468058e+00 1.7600000000000001e+01 3.7824912492647460e+00 
927 928 2 1.0279999999999987e+00 6.8648814381774127e+02 1.0000000000000000e+00 1.1324153823823867e+01 1.7600000000000001e+01 3.7866994274850634e+00 
1347 1348 2 1.0280000000000000e+00 5.6955977107931494e+02 1.0000000000000000e+00 1.3419576577125980e+01 1.7600000000000001e+01 3.7578374194469450e+00 
1096 1097 2 1.0280000000000027e+00 9.0987165488809023e+02 1.0000000000000000e+00 3.2805555100762962e-01 1.7600000000000001e+01 5.6378123664523550e+00 
1225 1226 2 1.0279999999999994e+00 2.7911343446163655e+03 1.0000000000000000e+00 6.7583084614102962e+00 1.7600000000000001e+01 4.8024571532073104e+00 
1315 1316 2 1.0280000000000002e+00 -5.1130157813858523e+03 1.0000000000000000e+00 7.7226985840107911e+00 1.7600000000000001e+01 5.0469323152537315e+00 
1277 1278 2 1.0280000000000022e+00 -1.0133853569031194e+03 1.0000000000000000e+00 1.0361424243615870e+01 1.7600000000000001e+01 5.4187470456563389e+00 
1211 1212 2 1.0279999999999991e+00 4.0933528708976755e+03 1.0000000000000000e+00 1.1415476513834994e+01 1.7600000000000001e+01 5.8031636020057071e+00 
1140 1141 2 1.0280000000000022e+00 4.1125694503325158e+03 1.0000000000000000e+00 1.3672039595779692e+01 1.7600000000000001e+01 4.1343324677855104e+00 
1019 1020 2 1.0280000000000031e+00 -4.9293626228265407e+02 1.0000000000000000e+00 1.2403755125112614e+01 1.7600000000000001e+01 5.0468870044742147e+00 
763 764 2 1.0280000035453272e+00 2.7907909516058735e+03 1.0000000000000000e+00 3.2759137507336192e+01 1.3800000000000001e+01 6.2415373280800743e+00 
719 720 2 1.0280000010954140e+00 -7.1871022012921458e+03 1.0000000000000000e+00 3.2525257967491903e+01 1.3800000000000001e+01 6.3692545430507250e+00 
1054 1055 2 1.0279999999999987e+00 4.5690602801293528e+02 1.0000000000000000e+00 1.8706818033538503e-01 1.7600000000000001e+01 6.9724047278150527e+00 
1181 1182 2 1.0279999999999976e+00 -7.1840040724382125e+03 1.0000000000000000e+00 6.4087438650592432e+00 1.7600000000000001e+01 6.2997481671047506e+00 
1232 1233 2 1.0279999999999994e+00 3.1114971919507769e+02 1.0000000000000000e+00 6.2901466656645448e+00 1.7600000000000001e+01 7.1913207099603120e+00 
1364 1365 2 1.0280000000000027e+00 -1.9410378646560599e+02 1.0000000000000000e+00 8.3806243235935405e+00 1.7600000000000001e+01 6.4347053380447159e+00 
1360 1361 2 1.0280000000000007e+00 -8.2693878586032338e+02 1.0000000000000000e+00 9.0385423135036032e+00 1.7600000000000001e+01 7.2880812652082181e+00 
981 982 2 1.0280000000000018e+00 8.8460526077809373e+03 1.0000000000000000e+00 9.9856244768475282e+00 1.7600000000000001e+01 6.9441196695231513e+00 
728 729 2 1.0279999980644121e+00 2.5913656612702457e+03 1.0000000000000000e+00 3.1717309145929889e+01 1.3800000000000001e+01 8.0461102332964227e+00 
770 771 2 1.0279999979939174e+00 3.1135779406775811e+02 1.0000000000000000e+00 3.3266439235113886e+01 1.3800000000000001e+01 8.6624461244889179e+00 
470 471 2 1.0280000029624881e+00 3.6707635354307877e+03 1.0000000000000000e+00 3.1895278199840927e+01 1.3800000000000001e+01 8.7049904844784365e+00 
1094 1095 2 1.0279999999999994e+00 -1.2267708190858311e+03 1.0000000000000000e+00 7.9784443001717276e-01 1.7600000000000001e+01 8.6436082370331437e+00 
1010 1011 2 1.0279999999999991e+00 9.6785034993949762e+02 1.0000000000000000e+00 6.3374745631922014e-01 1.7600000000000001e+01 9.2862252383709638e+00 
1011 1012 2 1.0279999999999971e+00 5.6525424789852568e+03 1.0000000000000000e+00 3.1305803585950041e+00 1.7600000000000001e+01 9.1269880828039849e+00 
1056 1057 2 1.0280000000000031e+00 -2.1778613889463867e+02 1.0000000000000000e+00 2.6533615629658556e+00 1.7600000000000001e+01 9.1310478937581863e+00 
1190 1191 2 1.0279999999999958e+00 2.5918277880378237e+03 1.0000000000000000e+00 5.0949180563956906e+00 1.7600000000000001e+01 8.2821423403205667e+00 
932 933 2 1.0280000000000018e+00 3.6722962796575857e+03 1.0000000000000000e+00 5.5631463417881282e+00 1.7600000000000001e+01 8.6022998298046200e+00 
1098 1099 2 1.0280000000000022e+00 9.9419416802821115e+02 1.0000000000000000e+00 1.5075341995461253e+00 1.7600000000000001e+01 1.0883805514266060e+01 
1179 1180 2 1.0280000000000027e+00 -1.5601632744791859e+03 1.0000000000000000e+00 1.8762917034786999e+00 1.7600000000000001e+01 1.1431325183705102e+01 
1226 1227 2 1.0280000000000029e+00 -7.3213944823051565e+02 1.0000000000000000e+00 4.4652097629638758e+00 1.7600000000000001e+01 1.0507755804080711e+01 
1227 1228 2 1.0279999999999994e+00 -7.2280766132734552e+03 1.0000000000000000e+00 4.4545269235200999e+00 1.7600000000000001e+01 1.0512038414949476e+01 
1133 1134 2 1.0279999999999991e+00 -1.3073349837066189e+03 1.0000000000000000e+00 1.5247820449375695e+00 1.7600000000000001e+01 1.2883718648792556e+01 
1051 1052 2 1.0280000000000002e+00 1.7291345713963307e+02 1.0000000000000000e+00 1.9087892081809557e+00 1.7600000000000001e+01 1.3993727106575014e+01 
1244 1245 2 1.0280000000000007e+00 -4.5354351396167240e+03 1.0000000000000000e+00 3.3326825958437496e+01 1.7600000000000001e+01 1.3801417121040812e+01 
306 307 2 1.0279999999999350e+00 -2.5007318939604993e+03 1.0000000000000000e+00 2.8090664723849883e+01 1.0000000000000000e+01 1.5927501856437980e+01 
1049 1050 2 1.0279999999999976e+00 9.6177028149016473e+02 1.0000000000000000e+00 3.2506269722583669e-01 1.7600000000000001e+01 1.4483293099111631e+01 
931 932 2 1.0280000000000007e+00 -1.2556438784299783e+03 1.0000000000000000e+00 1.2532322019378768e+00 1.7600000000000001e+01 1.5096501003260871e+01 
933 934 2 1.0280000000000009e+00 3.2371403487041891e+02 1.0000000000000000e+00 3.2183064541889390e+00 1.7600000000000001e+01 1.5606890818260373e+01 
967 968 2 1.0279999999999998e+00 -1.7204543685290259e+03 1.0000000000000000e+00 5.5298537264833794e+00 1.7600000000000001e+01 1.4803370163331492e+01 
1093 1094 2 1.0280000000000000e+00 -4.8233973844247157e+03 1.0000000000000000e+00 5.5343854759168938e+00 1.7600000000000001e+01 1.4807436313659840e+01 
1372 1373 2 1.0280000000000002e+00 1.1490998892888972e+03 1.0000000000000000e+00 2.9211928909761475e+01 1.7600000000000001e+01 1.4786291309907586e+01 
951 952 2 1.0279999999999998e+00 -9.7833604878191306e+02 1.0000000000000000e+00 2.9216710417661261e+01 1.7600000000000001e+01 1.5239618171011360e+01 
996 997 2 1.0279999999999998e+00 -5.2191461498708013e+03 1.0000000000000000e+00 3.0738943936034229e+01 1.7600000000000001e+01 1.5003741246777340e+01 
1314 1315 2 1.0280000000000009e+00 6.1396677494545918e+02 1.0000000000000000e+00 3.1746234175924549e+01 1.7600000000000001e+01 1.4128197278987608e+01 
991 992 2 1.0279999999999918e+00 -3.2643124388980614e+03 1.0000000000000000e+00 3.2297655067345083e+01 1.7600000000000001e+01 1.5045016648150002e+01 
178 179 2 1.0279999999998863e+00 3.0034286169883421e+03 1.0000000000000000e+00 2.6787718476186534e+01 1.0000000000000000e+01 1.7892900235293180e+01 
304 305 2 1.0279999999999869e+00 -8.2701407751098532e+02 1.0000000000000000e+00 2.9075374293713747e+01 1.0000000000000000e+01 1.6003381021529183e+01 
264 265 2 1.0280000000000573e+00 1.8724711905208583e+03 1.0000000000000000e+00 2.7505740087746339e+01 1.0000000000000000e+01 1.6943663964835363e+01 
226 227 2 1.0280000000000107e+00 2.0113247494386596e+03 1.0000000000000000e+00 2.9816014564219728e+01 1.0000000000000000e+01 1.7072011163856949e+01 
269 270 2 1.0280000000002298e+00 1.9007022650633503e+03 1.0000000000000000e+00 3.1113859684012489e+01 1.0000000000000000e+01 1.7013374364459406e+01 
444 445 2 1.0279999999998493e+00 1.3130937798979232e+03 1.0000000000000000e+00 3.1548739364917171e+01 1.0000000000000000e+01 1.7827763634668425e+01 
973 974 2 1.0279999999999976e+00 4.4970574510838560e+02 1.0000000000000000e+00 1.9162824063682016e-01 1.7600000000000001e+01 1.7941768813883030e+01 
1353 1354 2 1.0280000000000009e+00 3.4153004081700749e+02 1.0000000000000000e+00 2.7307587187312889e+00 1.7600000000000001e+01 1.6569780127792423e+01 
1305 1306 2 1.0279999999999998e+00 -2.4691507483783249e+02 1.0000000000000000e+00 3.7035497336746435e+00 1.7600000000000001e+01 1.7431675993519704e+01 
928 929 2 1.0279999999999989e+00 2.5792785830487520e+02 1.0000000000000000e+00 4.4483029635291800e+00 1.7600000000000001e+01 1.6175931528081207e+01 
1272 1273 2 1.0280000000000125e+00 8.3660723629810377e+02 1.0000000000000000e+00 3.0505374338210753e+01 1.7600000000000001e+01 1.7959060413660918e+01 
936 937 2 1.0279999999999987e+00 1.2598270288401120e+03 1.0000000000000000e+00 3.2184749799683217e+01 1.7600000000000001e+01 1.7591280820357436e+01 
1274 1275 2 1.0279999999999994e+00 3.1042433817238380e+03 1.0000000000000000e+00 3.2730328102874005e+01 1.7600000000000001e+01 1.7791486419100274e+01 
312 313 2 1.0280000000000200e+00 -3.8055545542141572e+03 1.0000000000000000e+00 2.5284382912105166e+01 1.0000000000000000e+01 1.8706388399339183e+01 
316 317 2 1.0279999999999547e+00 -2.7349295535277124e+03 1.0000000000000000e+00 2.5369240676176176e+01 1.0000000000000000e+01 1.8882235549460738e+01 
438 439 2 1.0280000000001508e+00 3.1178962652304490e+03 1.0000000000000000e+00 2.7691471720084550e+01 1.0000000000000000e+01 1.9018768704910890e+01 
275 276 2 1.0279999999999614e+00 2.5479258013985554e+03 1.0000000000000000e+00 2.8346582929326622e+01 1.0000000000000000e+01 1.9794622751699240e+01 
276 277 2 1.0279999999998155e+00 2.0154047431229819e+03 1.0000000000000000e+00 3.0144728104801942e+01 1.0000000000000000e+01 1.8773949134393998e+01 
402 403 2 1.0279999999999530e+00 -1.5852407051945784e+03 1.0000000000000000e+00 3.0846562389312300e+01 1.0000000000000000e+01 1.9548838396309844e+01 
1349 1350 2 1.0279999999999996e+00 -1.4703053962189861e+03 1.0000000000000000e+00 9.0155670727961734e-01 1.7600000000000001e+01 1.8912707495525616e+01 
926 927 2 1.0279999999999965e+00 -3.2563199150250857e+03 1.0000000000000000e+00 4.3474957051493996e+00 1.7600000000000001e+01 1.9039178550183426e+01 
970 971 2 1.0279999999999994e+00 2.8978541999811472e+02 1.0000000000000000e+00 4.3443050873294684e+00 1.7600000000000001e+01 1.9040452880715620e+01 
1100 1101 2 1.0279999999999920e+00 3.9740347507470451e+03 1.0000000000000000e+00 2.7336560989902011e+01 1.7600000000000001e+01 1.8456806913737910e+01 
972 973 2 1.0279999999999994e+00 -1.7883882156602226e+02 1.0000000000000000e+00 2.7010962356395485e+01 1.7600000000000001e+01 1.8524906440226314e+01 
944 945 2 1.0279999999999945e+00 -5.1327477073990664e+01 1.0000000000000000e+00 2.8942767863824809e+01 1.7600000000000001e+01 1.9761775260044651e+01 
1273 1274 2 1.0279999999999956e+00 6.4846205222209642e+02 1.0000000000000000e+00 2.8942603711069399e+01 1.7600000000000001e+01 1.9761875170587171e+01 
1311 1312 2 1.0279999999999985e+00 2.7393961635977744e+03 1.0000000000000000e+00 3.0402055163168679e+01 1.7600000000000001e+01 1.8287083989317150e+01 
311 312 2 1.0279999999998746e+00 -4.5843388782107377e+03 1.0000000000000000e+00 2.6337145837094315e+01 1.0000000000000000e+01 2.1394269528793203e+01 
62 63 2 1.0279999999999010e+00 -2.7375716443584897e+03 1.0000000000000000e+00 2.7328259235055732e+01 1.0000000000000000e+01 2.0706764626563224e+01 
441 442 2 1.0280000000001284e+00 1.9726039870821719e+03 1.0000000000000000e+00 2.8965624129033465e+01 1.0000000000000000e+01 2.1596300882371235e+01 
267 268 2 1.0279999999998861e+00 1.6381453097284411e+03 1.0000000000000000e+00 2.9683102886338098e+01 1.0000000000000000e+01 2.1782877813382196e+01 
409 410 2 1.0279999999999163e+00 5.0457108567203829e+02 1.0000000000000000e+00 3.0400225864643172e+01 1.0000000000000000e+01 2.0670242814466299e+01 
977 978 2 1.0280000000000060e+00 -1.5772163469592149e+03 1.0000000000000000e+00 1.2303904719419319e+00 1.7600000000000001e+01 2.0853613536688766e+01 
976 977 2 1.0280000000000040e+00 1.3589568973289529e+03 1.0000000000000000e+00 1.2303798921366309e+00 1.7600000000000001e+01 2.0853624327942367e+01 
1308 1309 2 1.0280000000000038e+00 -2.3041052426728714e+02 1.0000000000000000e+00 2.6682768315001361e+01 1.7600000000000001e+01 2.0441257769753150e+01 
1184 1185 2 1.0280000000000080e+00 4.0413795614887413e+03 1.0000000000000000e+00 2.6682768221206882e+01 1.7600000000000001e+01 2.0441257722014853e+01 
265 266 2 1.0280000000000435e+00 3.0238780991097419e+03 1.0000000000000000e+00 2.6017141775989582e+01 1.0000000000000000e+01 2.2483430677797443e+01 
309 310 2 1.0279999999999001e+00 -3.8551848054619404e+03 1.0000000000000000e+00 2.6816850272015980e+01 1.0000000000000000e+01 2.3024390597565461e+01 
471 472 2 1.0280000007869978e+00 3.2074250443817232e+02 1.0000000000000000e+00 1.4956608714804476e+01 1.3800000000000001e+01 2.3596225063522073e+01 
891 892 2 1.0280000015143591e+00 3.3775038177912177e+02 1.0000000000000000e+00 1.4873289779250788e+01 1.3800000000000001e+01 2.3824862748951443e+01 
314 315 2 1.0279999999999867e+00 -1.0006378793079342e+03 1.0000000000000000e+00 2.7984105025292671e+01 1.0000000000000000e+01 2.4297590974416586e+01 
97 98 2 1.0279999999999598e+00 6.0601472855676855e+02 1.0000000000000000e+00 2.7930508058323610e+01 1.0000000000000000e+01 2.4344891526944711e+01 
843 844 2 1.0279999976547081e+00 -2.3104947119682456e+02 1.0000000000000000e+00 1.6562724314240587e+01 1.3800000000000001e+01 2.4095600606992221e+01 
594 595 2 1.0280000002460759e+00 -2.1643056968160010e+02 1.0000000000000000e+00 1.6121365760124910e+01 1.3800000000000001e+01 2.5794865829391842e+01 
549 550 2 1.0280000025710072e+00 5.6551440838987091e+03 1.0000000000000000e+00 1.6382828751845206e+01 1.3800000000000001e+01 2.5862257661116683e+01 
464 465 2 1.0280000039333292e+00 -3.2327810024004721e+03 1.0000000000000000e+00 1.7792541117735446e+01 1.3800000000000001e+01 2.4276335699163745e+01 
508 509 2 1.0279999945386413e+00 2.8110019679169460e+02 1.0000000000000000e+00 1.8639820223548060e+01 1.3800000000000001e+01 2.4690147753008794e+01 
551 552 2 1.0280000003257570e+00 1.8814996529422183e+03 1.0000000000000000e+00 1.9542674722013953e+01 1.3800000000000001e+01 2.5797857371190254e+01 
813 814 2 1.0280000035762660e+00 -7.5488173920759084e+02 1.0000000000000000e+00 2.0183186607684291e+01 1.3800000000000001e+01 2.5527344506875160e+01 
1052 1053 2 1.0280000000000096e+00 1.9776186928303578e+03 1.0000000000000000e+00 4.8870301467027633e-01 1.7600000000000001e+01 2.5822047319509700e+01 
505 506 2 1.0279999865148803e+00 -1.6941900748183782e+03 1.0000000000000000e+00 2.1620644186167187e+01 1.3800000000000001e+01 2.6470706614059459e+01 
631 632 2 1.0280000111193657e+00 -4.7978779741322905e+03 1.0000000000000000e+00 2.1984323582061602e+01 1.3800000000000001e+01 2.6672861327215291e+01 
867 868 2 1.0279999985775361e+00 4.0537317813211744e+03 1.0000000000000000e+00 2.4177335477836976e+01 1.3800000000000001e+01 2.6739337180622087e+01 
830 831 2 1.0279999983838390e+00 -6.1933407882118559e+02 1.0000000000000000e+00 2.4182850142313484e+01 1.3800000000000001e+01 2.6744840667873863e+01 
767 768 2 1.0279999989165856e+00 -4.4376617898968843e+03 1.0000000000000000e+00 2.8103971238255962e+01 1.3800000000000001e+01 2.7749885621612876e+01 
725 726 2 1.0280000011481563e+00 7.8341158960137716e+02 1.0000000000000000e+00 2.8087380020320140e+01 1.3800000000000001e+01 2.7797465075602133e+01 
512 513 2 1.0279999984748014e+00 1.4627741396570952e+03 1.0000000000000000e+00 2.9943390455546385e+01 1.3800000000000001e+01 2.7694994569023905e+01 
896 897 2 1.0279999890079325e+00 3.1037828689028220e+02 1.0000000000000000e+00 3.0420493846925588e+01 1.3800000000000001e+01 2.7912725953027511e+01 
857 858 2 1.0279999996484011e+00 5.9059518395565647e+03 1.0000000000000000e+00 3.2622031218325844e+01 1.3800000000000001e+01 2.7243075941133096e+01 
769 770 2 1.0279999974495255e+00 -1.4150216001365513e+03 1.0000000000000000e+00 3.2184759449203540e+01 1.3800000000000001e+01 2.7911133051737256e+01 
1009 1010 2 1.0279999999999958e+00 1.2715883141893264e+03 1.0000000000000000e+00 9.9612334281195558e-01 1.7600000000000001e+01 2.6432575154006976e+01 
1138 1139 2 1.0280000000000034e+00 -1.1926250713394893e+03 1.0000000000000000e+00 2.2022416495258937e-01 1.7600000000000001e+01 2.7439088374157517e+01 
845 846 2 1.0279999819565258e+00 -3.3945911270022752e+03 1.0000000000000000e+00 2.2756958752912258e+01 1.3800000000000001e+01 2.8334965575276378e+01 
842 843 2 1.0280000106430569e+00 -8.6887054551848132e+02 1.0000000000000000e+00 2.3482111481610861e+01 1.3800000000000001e+01 2.8554107055368643e+01 
622 623 2 1.0280000141371493e+00 -6.9081780126621506e+03 1.0000000000000000e+00 2.6311581499224214e+01 1.3800000000000001e+01 2.9854955939808285e+01 
623 624 2 1.0279999947679943e+00 -4.9587967513399275e+02 1.0000000000000000e+00 2.6451694552961335e+01 1.3800000000000001e+01 2.9859228530330977e+01 
816 817 2 1.0280000028846814e+00 2.9251283461637456e+02 1.0000000000000000e+00 2.8951738253675337e+01 1.3800000000000001e+01 2.9922007047473262e+01 
818 819 2 1.0280000119953554e+00 -5.3731193555793209e+02 1.0000000000000000e+00 2.8974996602427325e+01 1.3800000000000001e+01 2.9948679088147305e+01 
862 863 2 1.0279999937764184e+00 -3.3349989463666566e+03 1.0000000000000000e+00 3.0819924111586200e+01 1.3800000000000001e+01 2.9941657044505508e+01 
733 734 2 1.0280000295119278e+00 2.0329117445092606e+03 1.0000000000000000e+00 3.1963018761315922e+01 1.3800000000000001e+01 2.9603327406925711e+01 
856 857 2 1.0280000012575927e+00 4.1339150259901908e+03 1.0000000000000000e+00 2.2668895893599053e+01 1.3800000000000001e+01 3.0252389528842301e+01 
803 804 2 1.0279999852310895e+00 1.8774215067174885e+03 1.0000000000000000e+00 2.2956921939354224e+01 1.3800000000000001e+01 3.0365338484710929e+01 
712 713 2 1.0280000031786725e+00 1.2816622275176496e+03 1.0000000000000000e+00 2.5075140367497362e+01 1.3800000000000001e+01 3.1470455820874033e+01 
706 707 2 1.0279999876297599e+00 8.3033246564724068e+03 1.0000000000000000e+00 2.4505003694561236e+01 1.3800000000000001e+01 3.1955441601335597e+01 
917 918 2 1.0279999911525628e+00 3.8071482529284826e+03 1.0000000000000000e+00 2.6772013709185032e+01 1.3800000000000001e+01 3.1679393706330131e+01 
734 735 2 1.0279999897173124e+00 2.3921921736030449e+03 1.0000000000000000e+00 3.1874684076005657e+01 1.3800000000000001e+01 3.0826432956838563e+01 
836 837 2 1.0280000041464743e+00 1.8682862869900641e+03 1.0000000000000000e+00 2.4472743200552227e+01 1.3800000000000001e+01 3.3473444733638374e+01 
838 839 2 1.0279999800688016e+00 5.6583822906366859e+03 1.0000000000000000e+00 2.4961988140716230e+01 1.3800000000000001e+01 3.3966313067636975e+01 
584 585 2 1.0280000238462519e+00 1.8604284910224237e+03 1.0000000000000000e+00 2.6548786647353843e+01 1.3800000000000001e+01 3.2980163750360362e+01 
659 660 2 1.0279999999840810e+00 2.6465502193283392e+03 1.0000000000000000e+00 2.8065628551138012e+01 1.3800000000000001e+01 3.2331242849546626e+01 
617 618 2 1.0279999784317464e+00 3.7820591015983820e+02 1.0000000000000000e+00 2.8451399143631964e+01 1.3800000000000001e+01 3.3235870202904756e+01 
473 474 2 1.0280001755365291e+00 6.2172449639631077e+03 1.0000000000000000e+00 3.0433101727750330e+01 1.3800000000000001e+01 3.2299786184755305e+01 
805 806 2 1.0279999112707618e+00 -1.0104984624832628e+03 1.0000000000000000e+00 3.0441879260136815e+01 1.3800000000000001e+01 3.2360454294127500e+01 
773 774 2 1.0279999607700041e+00 -4.5851050568160445e+03 1.0000000000000000e+00 3.2656557522186766e+01 1.3800000000000001e+01 3.2328753516853773e+01 
524 525 2 1.0280000502278110e+00 -2.7382474486175647e+03 1.0000000000000000e+00 3.3178567927139831e+01 1.3800000000000001e+01 3.2463693967182998e+01 
1183 1184 2 1.0280000000000298e+00 7.6042881540913404e+03 1.0000000000000000e+00 1.7843241476510880e+00 1.7600000000000001e+01 3.3989234905597009e+01 
1319 1320 2 1.0280000000000067e+00 5.9041498379330787e+03 1.0000000000000000e+00 3.6709208496719716e+00 1.7600000000000001e+01 3.3869771312233063e+01 
1151 1152 2 1.0280000000000007e+00 1.4277554183464031e+03 1.0000000000000000e+00 1.3483735866518586e+01 1.7600000000000001e+01 3.3410335885994996e+01 
1197 1198 2 1.0279999999999976e+00 3.1779843342906051e+03 1.0000000000000000e+00 1.3647918397004641e+01 1.7600000000000001e+01 3.3723897018719988e+01 
793 794 2 1.0280000147646635e+00 -2.7326963815858096e+02 1.0000000000000000e+00 2.6659331784004038e+01 1.3800000000000001e+01 3.4575153864457882e+01 
757 758 2 1.0279999931720605e+00 2.0384866785262221e+02 1.0000000000000000e+00 2.5889108346866884e+01 1.3800000000000001e+01 3.5814382103118291e+01 
586 587 2 1.0279999899136125e+00 5.6459257721321173e+03 1.0000000000000000e+00 2.8270178185280120e+01 1.3800000000000001e+01 3.4918804649737709e+01 
889 890 2 1.0280000322403762e+00 -1.2687392755737767e+03 1.0000000000000000e+00 2.9766634629779173e+01 1.3800000000000001e+01 3.4431813903277742e+01 
847 848 2 1.0279999994153637e+00 3.5430578360836529e+02 1.0000000000000000e+00 3.0621006959197445e+01 1.3800000000000001e+01 3.5052461815805557e+01 
727 728 2 1.0280000109346601e+00 3.0233197464131426e+03 1.0000000000000000e+00 3.2264959282881513e+01 1.3800000000000001e+01 3.5579974843351025e+01 
771 772 2 1.0279999962298492e+00 -3.8551004355238738e+03 1.0000000000000000e+00 3.2520487523731248e+01 1.3800000000000001e+01 3.5882257462344981e+01 
1270 1271 2 1.0279999999999567e+00 -3.5213257788617407e+03 1.0000000000000000e+00 1.7180883351365910e+00 1.7600000000000001e+01 3.4079350537311740e+01 
1188 1189 2 1.0279999999999969e+00 1.8750158541195838e+03 1.0000000000000000e+00 3.6947989864307771e+00 1.7600000000000001e+01 3.5588954586126157e+01 
1230 1231 2 1.0279999999999956e+00 -2.5001510409111879e+03 1.0000000000000000e+00 4.3817461969897584e+00 1.7600000000000001e+01 3.4016950459310877e+01 
1228 1229 2 1.0279999999999956e+00 -8.1743451419894723e+02 1.0000000000000000e+00 6.0437060628116344e+00 1.7600000000000001e+01 3.4652441695424805e+01 
1144 1145 2 1.0280000000000056e+00 -2.7523394547675161e+03 1.0000000000000000e+00 7.3258557019830475e+00 1.7600000000000001e+01 3.4208732746746449e+01 
1150 1151 2 1.0279999999999963e+00 2.0111188438882227e+03 1.0000000000000000e+00 6.6398587767916286e+00 1.7600000000000001e+01 3.5618859303375416e+01 
1193 1194 2 1.0279999999999971e+00 1.9028317247796695e+03 1.0000000000000000e+00 7.9100090810790107e+00 1.7600000000000001e+01 3.5120617315679084e+01 
1237 1238 2 1.0279999999999969e+00 -3.3409593052229275e+03 1.0000000000000000e+00 1.1296850965626101e+01 1.7600000000000001e+01 3.5297133079632360e+01 
1154 1155 2 1.0279999999999998e+00 -1.6521538930154534e+03 1.0000000000000000e+00 1.2147184877557420e+01 1.7600000000000001e+01 3.4305721047933432e+01 
1369 1370 2 1.0280000000000045e+00 3.1009235709089708e+03 1.0000000000000000e+00 1.1879401045690919e+01 1.7600000000000001e+01 3.5744311996406061e+01 
802 803 2 1.0279999988588366e+00 -1.6682156768163959e+03 1.0000000000000000e+00 2.6470111162004773e+01 1.3800000000000001e+01 3.6164309166078880e+01 
625 626 2 1.0279999972533438e+00 -2.3666379569631289e+02 1.0000000000000000e+00 2.8640979325456538e+01 1.3800000000000001e+01 3.6071701183837050e+01 
886 887 2 1.0280000107280138e+00 8.1343547081938524e+01 1.0000000000000000e+00 2.7943189930790290e+01 1.3800000000000001e+01 3.7580926991930056e+01 
844 845 2 1.0279999897183953e+00 3.8916895851334419e+02 1.0000000000000000e+00 2.8358907751990980e+01 1.3800000000000001e+01 3.7864472185126928e+01 
804 805 2 1.0279999950676180e+00 3.4669850163318338e+03 1.0000000000000000e+00 3.0239936547490167e+01 1.3800000000000001e+01 3.6423782120549966e+01 
592 593 2 1.0279999997777793e+00 4.2633579725577380e+02 1.0000000000000000e+00 3.0697621615418267e+01 1.3800000000000001e+01 3.7813121970782191e+01 
1231 1232 2 1.0280000000000049e+00 -1.4147418518505110e+03 1.0000000000000000e+00 1.7066186221148503e+00 1.7600000000000001e+01 3.7300622208639595e+01 
1236 1237 2 1.0279999999999931e+00 -3.8057218031811080e+03 1.0000000000000000e+00 2.4267938770221851e+00 1.7600000000000001e+01 3.7411221804103512e+01 
1102 1103 2 1.0280000000000085e+00 3.0045245727196261e+03 1.0000000000000000e+00 4.3047777160563720e+00 1.7600000000000001e+01 3.6046013976709439e+01 
1362 1363 2 1.0279999999999911e+00 3.1185983062419700e+03 1.0000000000000000e+00 4.9323281274203996e+00 1.7600000000000001e+01 3.7659546276856183e+01 
1240 1241 2 1.0280000000000018e+00 -2.7343208713350323e+03 1.0000000000000000e+00 3.9968608299337296e+00 1.7600000000000001e+01 3.7934152099427131e+01 
1368 1369 2 1.0279999999999947e+00 1.3126179541787324e+03 1.0000000000000000e+00 8.5514255386646294e+00 1.7600000000000001e+01 3.6794381307648266e+01 
1200 1201 2 1.0280000000000060e+00 2.0155450362503345e+03 1.0000000000000000e+00 8.6070307384160021e+00 1.7600000000000001e+01 3.7396239506894965e+01 
1326 1327 2 1.0279999999999951e+00 -1.5856943296974359e+03 1.0000000000000000e+00 1.0015564541217465e+01 1.7600000000000001e+01 3.7757400194505664e+01 
1323 1324 2 1.0280000000000016e+00 -3.2957155539602163e+03 1.0000000000000000e+00 1.3471734427604066e+01 1.7600000000000001e+01 3.6869567100143996e+01 
1204 1205 2 1.0280000000000009e+00 1.5287997448811707e+03 1.0000000000000000e+00 1.4095954858774032e+01 1.7600000000000001e+01 3.7469704136369756e+01 
634 635 2 1.0280000130799205e+00 9.0927534008544728e+02 1.0000000000000000e+00 3.0201891847455194e+01 1.3800000000000001e+01 3.8126555480447571e+01 
1358 1359 2 1.0279999999999985e+00 3.1101387172921994e+02 1.0000000000000000e+00 6.3544440650203637e-01 1.7600000000000001e+01 3.8235327434174316e+01 
974 975 2 1.0280000000000047e+00 1.4632257214908250e+03 1.0000000000000000e+00 3.8190094170857802e-01 1.7600000000000001e+01 3.9283826539065629e+01 
1195 1196 2 1.0279999999999987e+00 2.0338483014324065e+03 1.0000000000000000e+00 1.9730376434324903e+00 1.7600000000000001e+01 3.9417918519527440e+01 
1199 1200 2 1.0280000000000067e+00 2.5475012948274998e+03 1.0000000000000000e+00 5.3369538758775352e+00 1.7600000000000001e+01 3.8973425201275141e+01 
994 995 2 1.0280000000000034e+00 8.8968641143297064e+03 1.0000000000000000e+00 9.0070373244101454e+00 1.7600000000000001e+01 3.9823307880294088e+01 