LAMMPS data file via write_data, version 30 Jul 2016, timestep = 50000000

2772 atoms
8 atom types

0.0000000000000000e+00 1.0000000000000000e+02 xlo xhi
0.0000000000000000e+00 4.0000000000000000e+01 ylo yhi
0.0000000000000000e+00 4.0000000000000000e+01 zlo zhi

Masses

1 3.896
2 5.36
3 20.064
4 8.378
5 8.378
6 8.378
7 8.378
8 8.378

Atoms # meso-molecular

669 670 2 1.0279999930119734e+00 1.2291153765035954e+03 1.0000000000000000e+00 3.0418418522596468e+01 1.3800000000000001e+01 8.6778351407012377e-01 
627 628 2 1.0279999918453941e+00 7.6471877899246488e+02 1.0000000000000000e+00 3.0417627496978881e+01 1.3800000000000001e+01 8.7348257888671621e-01 
559 560 2 1.0280000150899138e+00 6.0766055307250213e+02 1.0000000000000000e+00 3.2372344528394173e+01 1.3800000000000001e+01 1.1333999435943332e+00 
776 777 2 1.0280000031427989e+00 -9.9906372423978496e+02 1.0000000000000000e+00 3.2340845596145499e+01 1.3800000000000001e+01 1.2606589167024038e+00 
1324 1325 2 1.0280000000000018e+00 -3.3344808889857477e+03 1.0000000000000000e+00 1.1278757497788803e+00 1.7600000000000001e+01 6.6581268164655416e-01 
1196 1197 2 1.0280000000000009e+00 2.3900191456675652e+03 1.0000000000000000e+00 2.3038879326869237e+00 1.7600000000000001e+01 9.2600042770782065e-01 
1235 1236 2 1.0280000000000040e+00 -4.5849827669448623e+03 1.0000000000000000e+00 3.9328351985861580e+00 1.7600000000000001e+01 8.2320023969628686e-01 
986 987 2 1.0279999999999985e+00 -2.7370688426756469e+03 1.0000000000000000e+00 4.5399201814078802e+00 1.7600000000000001e+01 1.9971960539366743e-01 
1191 1192 2 1.0280000000000020e+00 1.6392828981965895e+03 1.0000000000000000e+00 6.6053153156550284e+00 1.7600000000000001e+01 2.3775495212638648e-01 
1365 1366 2 1.0279999999999985e+00 1.9819150670831732e+03 1.0000000000000000e+00 7.0424557357561479e+00 1.7600000000000001e+01 2.7843565045227842e-01 
1366 1367 2 1.0280000000000071e+00 2.2821143366754777e+03 1.0000000000000000e+00 8.8911076083814535e+00 1.7600000000000001e+01 1.0239381454758666e-01 
1034 1035 2 1.0279999999999940e+00 -1.1320119863460322e+03 1.0000000000000000e+00 1.2153324245464297e+01 1.7600000000000001e+01 7.5739032889178348e-01 
1339 1340 2 1.0279999999999920e+00 -3.7277716063291575e+02 1.0000000000000000e+00 1.2199680502797341e+01 1.7600000000000001e+01 8.4115636481036105e-01 
1086 1087 2 1.0279999999999943e+00 2.7677757646359873e+03 1.0000000000000000e+00 1.4106819065582869e+01 1.7600000000000001e+01 1.0206780381476717e-01 
1280 1281 2 1.0279999999999989e+00 -5.3732535469229811e+02 1.0000000000000000e+00 1.8619287497453030e-01 1.7600000000000001e+01 2.7668481271660101e+00 
1278 1279 2 1.0279999999999985e+00 2.9251549599541568e+02 1.0000000000000000e+00 1.8312858286623337e-01 1.7600000000000001e+01 2.7658896585410906e+00 
1233 1234 2 1.0279999999999998e+00 -3.8625002122383034e+03 1.0000000000000000e+00 3.1709994807576543e+00 1.7600000000000001e+01 2.5163651990182436e+00 
1189 1190 2 1.0279999999999980e+00 3.0265251098150447e+03 1.0000000000000000e+00 3.9781150680666908e+00 1.7600000000000001e+01 2.7264791640374444e+00 
1238 1239 2 1.0279999999999963e+00 -1.0008177983799285e+03 1.0000000000000000e+00 5.4187809162909577e+00 1.7600000000000001e+01 3.1887302297051097e+00 
1021 1022 2 1.0280000000000029e+00 6.0373444497497201e+02 1.0000000000000000e+00 6.0495000464325130e+00 1.7600000000000001e+01 3.1588329877743866e+00 
1279 1280 2 1.0279999999999969e+00 2.5484711549428621e+03 1.0000000000000000e+00 7.7478958545143675e+00 1.7600000000000001e+01 3.3588957543567184e+00 
1281 1282 2 1.0279999999999994e+00 8.9878422648413664e+02 1.0000000000000000e+00 8.5083346988353519e+00 1.7600000000000001e+01 2.8705933548112159e+00 
1330 1331 2 1.0279999999999985e+00 8.9797783897134341e+03 1.0000000000000000e+00 9.8715297896860292e+00 1.7600000000000001e+01 2.3166276110098316e+00 
1296 1297 2 1.0279999999999974e+00 -1.0504315217383657e+03 1.0000000000000000e+00 1.0923931236627901e+01 1.7600000000000001e+01 2.5483405734627911e+00 
1037 1038 2 1.0279999999999982e+00 3.5022279240979979e+03 1.0000000000000000e+00 9.8779811610590986e+00 1.7600000000000001e+01 3.8926857497264815e+00 
927 928 2 1.0279999999999980e+00 6.8648814381774127e+02 1.0000000000000000e+00 1.1299419234336085e+01 1.7600000000000001e+01 3.8968939279744967e+00 
1347 1348 2 1.0280000000000000e+00 5.6955977107931494e+02 1.0000000000000000e+00 1.3394841987625904e+01 1.7600000000000001e+01 3.8680319198989648e+00 
1267 1268 2 1.0279999999999985e+00 -1.0165877681629579e+03 1.0000000000000000e+00 1.9002222881385498e+00 1.7600000000000001e+01 4.0542201549027288e+00 
1096 1097 2 1.0279999999999998e+00 9.0987165488809023e+02 1.0000000000000000e+00 3.0332096152041882e-01 1.7600000000000001e+01 5.7480068667325002e+00 
935 936 2 1.0279999999999994e+00 6.2107986146730109e+03 1.0000000000000000e+00 2.0550840520590166e+00 1.7600000000000001e+01 4.0323754548933275e+00 
1225 1226 2 1.0279999999999965e+00 2.7911343446163655e+03 1.0000000000000000e+00 6.7335738719225890e+00 1.7600000000000001e+01 4.9126516534876119e+00 
1315 1316 2 1.0280000000000038e+00 -5.1130157813858523e+03 1.0000000000000000e+00 7.6979639945230840e+00 1.7600000000000001e+01 5.1571268157584012e+00 
1277 1278 2 1.0279999999999969e+00 -1.0133853569031194e+03 1.0000000000000000e+00 1.0336689654128051e+01 1.7600000000000001e+01 5.5289415461157914e+00 
1211 1212 2 1.0280000000000025e+00 4.0933528708976755e+03 1.0000000000000000e+00 1.1390741924347287e+01 1.7600000000000001e+01 5.9133581024816335e+00 
1140 1141 2 1.0279999999999991e+00 4.1125694503325158e+03 1.0000000000000000e+00 1.3647305006281060e+01 1.7600000000000001e+01 4.2445269682340383e+00 
1019 1020 2 1.0280000000000000e+00 -4.9293626228265407e+02 1.0000000000000000e+00 1.2379020535624516e+01 1.7600000000000001e+01 5.1570815049444700e+00 
763 764 2 1.0280000034047265e+00 2.7907909516058735e+03 1.0000000000000000e+00 3.2737309716850774e+01 1.3800000000000001e+01 6.4111459316317410e+00 
719 720 2 1.0280000010435697e+00 -7.1871022012921458e+03 1.0000000000000000e+00 3.2503508760852334e+01 1.3800000000000001e+01 6.5387987955652154e+00 
1054 1055 2 1.0279999999999945e+00 4.5690602801293528e+02 1.0000000000000000e+00 1.6233359085036350e-01 1.7600000000000001e+01 7.0825992280953969e+00 
1181 1182 2 1.0279999999999994e+00 -7.1840040724382125e+03 1.0000000000000000e+00 6.3840092755715361e+00 1.7600000000000001e+01 6.4099426673891360e+00 
1232 1233 2 1.0280000000000031e+00 3.1114971919507769e+02 1.0000000000000000e+00 6.2654120761782073e+00 1.7600000000000001e+01 7.3015152103261558e+00 
1364 1365 2 1.0279999999999982e+00 -1.9410378646560599e+02 1.0000000000000000e+00 8.3558897341058334e+00 1.7600000000000001e+01 6.5448998385336825e+00 
1360 1361 2 1.0280000000000000e+00 -8.2693878586032338e+02 1.0000000000000000e+00 9.0138077240158250e+00 1.7600000000000001e+01 7.3982757656878277e+00 
981 982 2 1.0280000000000036e+00 8.8460526077809373e+03 1.0000000000000000e+00 9.9608898873598211e+00 1.7600000000000001e+01 7.0543141699879248e+00 
728 729 2 1.0279999981108974e+00 2.5913656612702457e+03 1.0000000000000000e+00 3.1695389569645886e+01 1.3800000000000001e+01 8.2156337006040943e+00 
770 771 2 1.0279999980544046e+00 3.1135779402228337e+02 1.0000000000000000e+00 3.3244684951200242e+01 1.3800000000000001e+01 8.8316581918324051e+00 
470 471 2 1.0280000028806759e+00 3.6707635354307877e+03 1.0000000000000000e+00 3.1873469397495356e+01 1.3800000000000001e+01 8.8744235137603127e+00 
1094 1095 2 1.0279999999999996e+00 -1.2267708190858311e+03 1.0000000000000000e+00 7.7310984052604037e-01 1.7600000000000001e+01 8.7538027373133840e+00 
1010 1011 2 1.0279999999999978e+00 9.6785034993949762e+02 1.0000000000000000e+00 6.0901286683221012e-01 1.7600000000000001e+01 9.3964197386513302e+00 
1011 1012 2 1.0279999999999989e+00 5.6525424789852568e+03 1.0000000000000000e+00 3.1058457691069381e+00 1.7600000000000001e+01 9.2371825831206280e+00 
1056 1057 2 1.0279999999999985e+00 -2.1778613889463867e+02 1.0000000000000000e+00 2.6286269734736365e+00 1.7600000000000001e+01 9.2412423940575401e+00 
1190 1191 2 1.0279999999999898e+00 2.5918277880378237e+03 1.0000000000000000e+00 5.0701834669079835e+00 1.7600000000000001e+01 8.3923368406007253e+00 
932 933 2 1.0280000000000029e+00 3.6722962796575857e+03 1.0000000000000000e+00 5.5384117523149765e+00 1.7600000000000001e+01 8.7124943301374476e+00 
1098 1099 2 1.0279999999999991e+00 9.9419416802821115e+02 1.0000000000000000e+00 1.4827996100584939e+00 1.7600000000000001e+01 1.0994000014551625e+01 
1179 1180 2 1.0280000000000029e+00 -1.5601632744791859e+03 1.0000000000000000e+00 1.8515571139925135e+00 1.7600000000000001e+01 1.1541519683995940e+01 
1226 1227 2 1.0279999999999998e+00 -7.3213944823051565e+02 1.0000000000000000e+00 4.4404751734761687e+00 1.7600000000000001e+01 1.0617950304389293e+01 
1227 1228 2 1.0280000000000056e+00 -7.2280766132734552e+03 1.0000000000000000e+00 4.4297923340323928e+00 1.7600000000000001e+01 1.0622232915258044e+01 
1133 1134 2 1.0280000000000005e+00 -1.3073349837066189e+03 1.0000000000000000e+00 1.5000474554508931e+00 1.7600000000000001e+01 1.2993913149079978e+01 
1314 1315 2 1.0280000000000007e+00 6.1396677494545918e+02 1.0000000000000000e+00 3.1806778544731863e+01 1.7600000000000001e+01 1.3858467456865464e+01 
306 307 2 1.0279999999999463e+00 -2.5007318939604993e+03 1.0000000000000000e+00 2.8090664962249317e+01 1.0000000000000000e+01 1.5927500383282586e+01 
1051 1052 2 1.0279999999999989e+00 1.7291345713963307e+02 1.0000000000000000e+00 1.8840546186944962e+00 1.7600000000000001e+01 1.4103921606864619e+01 
1049 1050 2 1.0280000000000020e+00 9.6177028149016473e+02 1.0000000000000000e+00 3.0032810773795876e-01 1.7600000000000001e+01 1.4593487599392299e+01 
931 932 2 1.0279999999999982e+00 -1.2556438784299783e+03 1.0000000000000000e+00 1.2284976124520810e+00 1.7600000000000001e+01 1.5206695503543585e+01 
933 934 2 1.0279999999999998e+00 3.2371403487041891e+02 1.0000000000000000e+00 3.1935718647088791e+00 1.7600000000000001e+01 1.5717085318563093e+01 
967 968 2 1.0280000000000007e+00 -1.7204543685290259e+03 1.0000000000000000e+00 5.5051191371817119e+00 1.7600000000000001e+01 1.4913564663761568e+01 
1093 1094 2 1.0280000000000005e+00 -4.8233973844247157e+03 1.0000000000000000e+00 5.5096508865482914e+00 1.7600000000000001e+01 1.4917630814030373e+01 
1372 1373 2 1.0280000000000002e+00 1.1490998892888972e+03 1.0000000000000000e+00 2.9272473278568789e+01 1.7600000000000001e+01 1.4516561487785442e+01 
951 952 2 1.0279999999999996e+00 -9.7833604878191306e+02 1.0000000000000000e+00 2.9277254786468575e+01 1.7600000000000001e+01 1.4969888348889215e+01 
996 997 2 1.0280000000000000e+00 -5.2191461498708013e+03 1.0000000000000000e+00 3.0799488304841542e+01 1.7600000000000001e+01 1.4734011424655195e+01 
991 992 2 1.0279999999999987e+00 -3.2643124388980614e+03 1.0000000000000000e+00 3.2358199436152397e+01 1.7600000000000001e+01 1.4775286826027857e+01 
178 179 2 1.0279999999999017e+00 3.0034286169883421e+03 1.0000000000000000e+00 2.6787718703816836e+01 1.0000000000000000e+01 1.7892898757597838e+01 
304 305 2 1.0280000000000540e+00 -8.2701407751098532e+02 1.0000000000000000e+00 2.9075374529457090e+01 1.0000000000000000e+01 1.6003379556518464e+01 
264 265 2 1.0279999999999996e+00 1.8724711905208583e+03 1.0000000000000000e+00 2.7505740319674281e+01 1.0000000000000000e+01 1.6943662489009927e+01 
226 227 2 1.0280000000000118e+00 2.0113247494386596e+03 1.0000000000000000e+00 2.9816014794307151e+01 1.0000000000000000e+01 1.7072009707335948e+01 
269 270 2 1.0280000000001186e+00 1.9007022650633503e+03 1.0000000000000000e+00 3.1113859900737019e+01 1.0000000000000000e+01 1.7013372934363968e+01 
444 445 2 1.0279999999998390e+00 1.3130937798979232e+03 1.0000000000000000e+00 3.1548739594808243e+01 1.0000000000000000e+01 1.7827762211154131e+01 
1353 1354 2 1.0280000000000005e+00 3.4153004081700749e+02 1.0000000000000000e+00 2.7060241292463609e+00 1.7600000000000001e+01 1.6679974628072582e+01 
1305 1306 2 1.0279999999999998e+00 -2.4691507483783249e+02 1.0000000000000000e+00 3.6788151442000800e+00 1.7600000000000001e+01 1.7541870493799863e+01 
928 929 2 1.0279999999999994e+00 2.5792785830487520e+02 1.0000000000000000e+00 4.4235683740617846e+00 1.7600000000000001e+01 1.6286126028361366e+01 
1272 1273 2 1.0280000000000094e+00 8.3660723629810377e+02 1.0000000000000000e+00 3.0565918707018067e+01 1.7600000000000001e+01 1.7689330591537850e+01 
936 937 2 1.0279999999999894e+00 1.2598270288401120e+03 1.0000000000000000e+00 3.2245294168490531e+01 1.7600000000000001e+01 1.7321550998234780e+01 
1274 1275 2 1.0279999999999934e+00 3.1042433817238380e+03 1.0000000000000000e+00 3.2790872471681318e+01 1.7600000000000001e+01 1.7521756596978062e+01 
312 313 2 1.0280000000000402e+00 -3.8055545542141572e+03 1.0000000000000000e+00 2.5284383136780519e+01 1.0000000000000000e+01 1.8706386914933944e+01 
316 317 2 1.0279999999999809e+00 -2.7349295535277124e+03 1.0000000000000000e+00 2.5369240900663740e+01 1.0000000000000000e+01 1.8882234066089215e+01 
438 439 2 1.0280000000000484e+00 3.1178962652304490e+03 1.0000000000000000e+00 2.7691471945618101e+01 1.0000000000000000e+01 1.9018767228021943e+01 
275 276 2 1.0280000000000342e+00 2.5479258013985554e+03 1.0000000000000000e+00 2.8346583151622013e+01 1.0000000000000000e+01 1.9794621279791851e+01 
276 277 2 1.0279999999998122e+00 2.0154047431229819e+03 1.0000000000000000e+00 3.0144728321346946e+01 1.0000000000000000e+01 1.8773947684737923e+01 
402 403 2 1.0279999999997511e+00 -1.5852407051945784e+03 1.0000000000000000e+00 3.0846562615084174e+01 1.0000000000000000e+01 1.9548836953504701e+01 
1349 1350 2 1.0279999999999960e+00 -1.4703053962189861e+03 1.0000000000000000e+00 8.7682211779302144e-01 1.7600000000000001e+01 1.9022901995806230e+01 
973 974 2 1.0280000000000078e+00 4.4970574510838560e+02 1.0000000000000000e+00 1.6689365114924715e-01 1.7600000000000001e+01 1.8051963314164144e+01 
926 927 2 1.0279999999999998e+00 -3.2563199150250857e+03 1.0000000000000000e+00 4.3227611156747976e+00 1.7600000000000001e+01 1.9149373050463584e+01 
970 971 2 1.0279999999999994e+00 2.8978541999811472e+02 1.0000000000000000e+00 4.3195704978549090e+00 1.7600000000000001e+01 1.9150647380995778e+01 
1100 1101 2 1.0279999999999923e+00 3.9740347507470451e+03 1.0000000000000000e+00 2.7397105358709325e+01 1.7600000000000001e+01 1.8187077091614999e+01 
972 973 2 1.0280000000000040e+00 -1.7883882156602226e+02 1.0000000000000000e+00 2.7071506725202799e+01 1.7600000000000001e+01 1.8255176618103448e+01 
944 945 2 1.0280000000000087e+00 -5.1327477073990664e+01 1.0000000000000000e+00 2.9003312232632123e+01 1.7600000000000001e+01 1.9492045437921636e+01 
1273 1274 2 1.0280000000000040e+00 6.4846205222209642e+02 1.0000000000000000e+00 2.9003148079876713e+01 1.7600000000000001e+01 1.9492145348464188e+01 
1311 1312 2 1.0280000000000096e+00 2.7393961635977744e+03 1.0000000000000000e+00 3.0462599531975993e+01 1.7600000000000001e+01 1.8017354167194238e+01 
311 312 2 1.0279999999998750e+00 -4.5843388782107377e+03 1.0000000000000000e+00 2.6337146051911169e+01 1.0000000000000000e+01 2.1394268045758260e+01 
62 63 2 1.0279999999999831e+00 -2.7375716443584897e+03 1.0000000000000000e+00 2.7328259457158151e+01 1.0000000000000000e+01 2.0706763148870838e+01 
441 442 2 1.0280000000000697e+00 1.9726039870821719e+03 1.0000000000000000e+00 2.8965624346427898e+01 1.0000000000000000e+01 2.1596299420513322e+01 
267 268 2 1.0279999999999576e+00 1.6381453097284411e+03 1.0000000000000000e+00 2.9683103098448395e+01 1.0000000000000000e+01 2.1782876362001108e+01 
409 410 2 1.0279999999998664e+00 5.0457108567203829e+02 1.0000000000000000e+00 3.0400226086429768e+01 1.0000000000000000e+01 2.0670241368168252e+01 
977 978 2 1.0280000000000007e+00 -1.5772163469592149e+03 1.0000000000000000e+00 1.2056558824557226e+00 1.7600000000000001e+01 2.0963808036967972e+01 
976 977 2 1.0280000000000022e+00 1.3589568973289529e+03 1.0000000000000000e+00 1.2056453026503735e+00 1.7600000000000001e+01 2.0963818828221601e+01 
1308 1309 2 1.0280000000000007e+00 -2.3041052426728714e+02 1.0000000000000000e+00 2.6743312683808675e+01 1.7600000000000001e+01 2.0171527947630267e+01 
1184 1185 2 1.0279999999999925e+00 4.0413795614887413e+03 1.0000000000000000e+00 2.6743312590014195e+01 1.7600000000000001e+01 2.0171527899892016e+01 
265 266 2 1.0280000000000118e+00 3.0238780991097419e+03 1.0000000000000000e+00 2.6017141991677192e+01 1.0000000000000000e+01 2.2483429192947739e+01 
309 310 2 1.0280000000000318e+00 -3.8551848054619404e+03 1.0000000000000000e+00 2.6816850491215231e+01 1.0000000000000000e+01 2.3024389111843931e+01 
471 472 2 1.0280000008358603e+00 3.2074250443817232e+02 1.0000000000000000e+00 1.4938169185582735e+01 1.3800000000000001e+01 2.3755122195211882e+01 
891 892 2 1.0280000015763866e+00 3.3775038177912177e+02 1.0000000000000000e+00 1.4854895725713776e+01 1.3800000000000001e+01 2.3983715781142060e+01 
314 315 2 1.0279999999998690e+00 -1.0006378793079342e+03 1.0000000000000000e+00 2.7984105249487939e+01 1.0000000000000000e+01 2.4297589484063657e+01 
97 98 2 1.0279999999999094e+00 6.0601472855676855e+02 1.0000000000000000e+00 2.7930508282743968e+01 1.0000000000000000e+01 2.4344890036763271e+01 
843 844 2 1.0279999976059120e+00 -2.3104947121956192e+02 1.0000000000000000e+00 1.6544460445652145e+01 1.3800000000000001e+01 2.4254094680409729e+01 
594 595 2 1.0280000002171312e+00 -2.1643056968160010e+02 1.0000000000000000e+00 1.6103181016129788e+01 1.3800000000000001e+01 2.5953433021315675e+01 
464 465 2 1.0280000041459165e+00 -3.2327810024004721e+03 1.0000000000000000e+00 1.7774204560284641e+01 1.3800000000000001e+01 2.4434563854666848e+01 
508 509 2 1.0279999944284817e+00 2.8110019671796169e+02 1.0000000000000000e+00 1.8621838241468613e+01 1.3800000000000001e+01 2.4847806110426596e+01 
551 552 2 1.0280000001785137e+00 1.8814996529422183e+03 1.0000000000000000e+00 1.9525143607845767e+01 1.3800000000000001e+01 2.5955002266601589e+01 
813 814 2 1.0280000039792376e+00 -7.5488173938332329e+02 1.0000000000000000e+00 2.0165597144906680e+01 1.3800000000000001e+01 2.5684258755867113e+01 
1052 1053 2 1.0279999999999923e+00 1.9776186928303578e+03 1.0000000000000000e+00 4.6396842535412691e-01 1.7600000000000001e+01 2.5932241819760154e+01 
549 550 2 1.0280000026526441e+00 5.6551440838987091e+03 1.0000000000000000e+00 1.6364595527419556e+01 1.3800000000000001e+01 2.6020723581556762e+01 
505 506 2 1.0279999860961280e+00 -1.6941900750002771e+03 1.0000000000000000e+00 2.1604001726199535e+01 1.3800000000000001e+01 2.6626067263779341e+01 
631 632 2 1.0280000114611456e+00 -4.7978779741322905e+03 1.0000000000000000e+00 2.1967887285362554e+01 1.3800000000000001e+01 2.6828059943732310e+01 
867 868 2 1.0279999987198756e+00 4.0537317813211744e+03 1.0000000000000000e+00 2.4161452271603345e+01 1.3800000000000001e+01 2.6894047537965765e+01 
830 831 2 1.0279999985136463e+00 -6.1933407882118559e+02 1.0000000000000000e+00 2.4166972752632983e+01 1.3800000000000001e+01 2.6899549460827942e+01 
767 768 2 1.0279999986630306e+00 -4.4376617898968843e+03 1.0000000000000000e+00 2.8085814301810480e+01 1.3800000000000001e+01 2.7889143383765962e+01 
725 726 2 1.0280000011307746e+00 7.8341158932852875e+02 1.0000000000000000e+00 2.8069299798002831e+01 1.3800000000000001e+01 2.7936777572025285e+01 
512 513 2 1.0279999984393806e+00 1.4627741394751963e+03 1.0000000000000000e+00 2.9924896451135773e+01 1.3800000000000001e+01 2.7832756698111755e+01 
857 858 2 1.0280000006904311e+00 5.9059518375173220e+03 1.0000000000000000e+00 3.2602127841916655e+01 1.3800000000000001e+01 2.7376439197584794e+01 
1009 1010 2 1.0279999999999938e+00 1.2715883141893264e+03 1.0000000000000000e+00 9.7138875338911668e-01 1.7600000000000001e+01 2.6542769654148351e+01 
1138 1139 2 1.0280000000000065e+00 -1.1926250713394893e+03 1.0000000000000000e+00 1.9548957533199371e-01 1.7600000000000001e+01 2.7549282874308165e+01 
845 846 2 1.0279999817307688e+00 -3.3945911270022752e+03 1.0000000000000000e+00 2.2740656469054620e+01 1.3800000000000001e+01 2.8489473292973884e+01 
842 843 2 1.0280000102403182e+00 -8.6887054551848132e+02 1.0000000000000000e+00 2.3466416449498595e+01 1.3800000000000001e+01 2.8708442875871931e+01 
896 897 2 1.0279999883026079e+00 3.1037828661012207e+02 1.0000000000000000e+00 3.0402449239187018e+01 1.3800000000000001e+01 2.8050215293149151e+01 
769 770 2 1.0279999969649680e+00 -1.4150216011781388e+03 1.0000000000000000e+00 3.2166215094524659e+01 1.3800000000000001e+01 2.8046742841194817e+01 
733 734 2 1.0280000346358737e+00 2.0329117440418779e+03 1.0000000000000000e+00 3.1945694983429192e+01 1.3800000000000001e+01 2.9739327965005717e+01 
856 857 2 1.0280000009205892e+00 4.1339150259901908e+03 1.0000000000000000e+00 2.2653369709933166e+01 1.3800000000000001e+01 3.0406723795259374e+01 
803 804 2 1.0279999856413093e+00 1.8774215058079938e+03 1.0000000000000000e+00 2.2941762458530064e+01 1.3800000000000001e+01 3.0519794796198887e+01 
712 713 2 1.0280000024117191e+00 1.2816622271538517e+03 1.0000000000000000e+00 2.5065273135405146e+01 1.3800000000000001e+01 3.1617953717100928e+01 
623 624 2 1.0279999922817369e+00 -4.9587967571969017e+02 1.0000000000000000e+00 2.6440147210213048e+01 1.3800000000000001e+01 3.0005336093422951e+01 
622 623 2 1.0280000154944475e+00 -6.9081780126621506e+03 1.0000000000000000e+00 2.6300239441137755e+01 1.3800000000000001e+01 3.0001624644463011e+01 
917 918 2 1.0279999926844106e+00 3.8071482525646848e+03 1.0000000000000000e+00 2.6761542053095852e+01 1.3800000000000001e+01 3.1826464697921452e+01 
816 817 2 1.0280000030346679e+00 2.9251283405780617e+02 1.0000000000000000e+00 2.8934925990780570e+01 1.3800000000000001e+01 3.0061356455545631e+01 
818 819 2 1.0280000139942238e+00 -5.3731193611835067e+02 1.0000000000000000e+00 2.8958247406351980e+01 1.3800000000000001e+01 3.0087881977770529e+01 
862 863 2 1.0279999914611384e+00 -3.3349989474580502e+03 1.0000000000000000e+00 3.0803187367302467e+01 1.3800000000000001e+01 3.0079573280104828e+01 
734 735 2 1.0279999892466340e+00 2.3921921719032989e+03 1.0000000000000000e+00 3.1857466470024626e+01 1.3800000000000001e+01 3.0963082361897730e+01 
706 707 2 1.0279999874143662e+00 8.3033246550172153e+03 1.0000000000000000e+00 2.4494577608145487e+01 1.3800000000000001e+01 3.2103180089932401e+01 
836 837 2 1.0280000044360444e+00 1.8682862869900641e+03 1.0000000000000000e+00 2.4463297095641810e+01 1.3800000000000001e+01 3.3620791687193886e+01 
584 585 2 1.0280000257896815e+00 1.8604284909851383e+03 1.0000000000000000e+00 2.6539105547040275e+01 1.3800000000000001e+01 3.3127107111322921e+01 
659 660 2 1.0279999986351624e+00 2.6465502189645413e+03 1.0000000000000000e+00 2.8055664467487656e+01 1.3800000000000001e+01 3.2476516841071337e+01 
617 618 2 1.0279999782856066e+00 3.7820590970738596e+02 1.0000000000000000e+00 2.8442637008065745e+01 1.3800000000000001e+01 3.3381499353842408e+01 
473 474 2 1.0280002086944207e+00 6.2172449617803204e+03 1.0000000000000000e+00 3.0418966754228791e+01 1.3800000000000001e+01 3.2441705438331546e+01 
805 806 2 1.0279998905911993e+00 -1.0104984645054991e+03 1.0000000000000000e+00 3.0427442724878262e+01 1.3800000000000001e+01 3.2502057777828767e+01 
773 774 2 1.0279999562538544e+00 -4.5851050589805900e+03 1.0000000000000000e+00 3.2641047752529680e+01 1.3800000000000001e+01 3.2464569345315226e+01 
524 525 2 1.0280000557927154e+00 -2.7382474507671564e+03 1.0000000000000000e+00 3.3163608270104859e+01 1.3800000000000001e+01 3.2595955748451843e+01 
1319 1320 2 1.0280000000000096e+00 5.9041498379330787e+03 1.0000000000000000e+00 3.6461862601846806e+00 1.7600000000000001e+01 3.3979965812513221e+01 
1151 1152 2 1.0279999999999991e+00 1.4277554183464031e+03 1.0000000000000000e+00 1.3459001277016609e+01 1.7600000000000001e+01 3.3520530386281834e+01 
1197 1198 2 1.0280000000000018e+00 3.1779843342906051e+03 1.0000000000000000e+00 1.3623183807509756e+01 1.7600000000000001e+01 3.3834091519023929e+01 
838 839 2 1.0279999778971578e+00 5.6583822906366859e+03 1.0000000000000000e+00 2.4952838318906700e+01 1.3800000000000001e+01 3.4114210653992188e+01 
793 794 2 1.0280000175313957e+00 -2.7326963820405570e+02 1.0000000000000000e+00 2.6649954175210915e+01 1.3800000000000001e+01 3.4721603613941475e+01 
757 758 2 1.0279999918267089e+00 2.0384866775227843e+02 1.0000000000000000e+00 2.5880064583372718e+01 1.3800000000000001e+01 3.5961344594536882e+01 
586 587 2 1.0279999869979410e+00 5.6459257721321173e+03 1.0000000000000000e+00 2.8260843215239756e+01 1.3800000000000001e+01 3.5065448362330883e+01 
889 890 2 1.0280000378082910e+00 -1.2687392771377995e+03 1.0000000000000000e+00 2.9756258794236722e+01 1.3800000000000001e+01 3.4578284155515874e+01 
847 848 2 1.0280000011440957e+00 3.5430578271613086e+02 1.0000000000000000e+00 3.0609082874550118e+01 1.3800000000000001e+01 3.5199400080227768e+01 
727 728 2 1.0280000093002286e+00 3.0233197455306213e+03 1.0000000000000000e+00 3.2252561772140432e+01 1.3800000000000001e+01 3.5731559619736224e+01 
1183 1184 2 1.0280000000000293e+00 7.6042881540913404e+03 1.0000000000000000e+00 1.7595895581564835e+00 1.7600000000000001e+01 3.4099429405877167e+01 
1270 1271 2 1.0279999999999518e+00 -3.5213257788617407e+03 1.0000000000000000e+00 1.6933537456536301e+00 1.7600000000000001e+01 3.4189545037592104e+01 
1188 1189 2 1.0279999999999956e+00 1.8750158541195838e+03 1.0000000000000000e+00 3.6700643969393960e+00 1.7600000000000001e+01 3.5699149086407068e+01 
1230 1231 2 1.0279999999999920e+00 -2.5001510409111879e+03 1.0000000000000000e+00 4.3570116074999969e+00 1.7600000000000001e+01 3.4127144959591035e+01 
1228 1229 2 1.0279999999999963e+00 -8.1743451419894723e+02 1.0000000000000000e+00 6.0189714733238677e+00 1.7600000000000001e+01 3.4762636195704964e+01 
1144 1145 2 1.0280000000000082e+00 -2.7523394547675161e+03 1.0000000000000000e+00 7.3011211124953403e+00 1.7600000000000001e+01 3.4318927247038609e+01 
1150 1151 2 1.0279999999999947e+00 2.0111188438882227e+03 1.0000000000000000e+00 6.6151241872809443e+00 1.7600000000000001e+01 3.5729053803660470e+01 
1193 1194 2 1.0280000000000011e+00 1.9028317247796695e+03 1.0000000000000000e+00 7.8852744916112911e+00 1.7600000000000001e+01 3.5230811815959242e+01 
1237 1238 2 1.0280000000000011e+00 -3.3409593052229275e+03 1.0000000000000000e+00 1.1272116376109931e+01 1.7600000000000001e+01 3.5407327579912582e+01 
1154 1155 2 1.0280000000000005e+00 -1.6521538930154534e+03 1.0000000000000000e+00 1.2122450288067393e+01 1.7600000000000001e+01 3.4415915548217100e+01 
1369 1370 2 1.0280000000000047e+00 3.1009235709089708e+03 1.0000000000000000e+00 1.1854666456154701e+01 1.7600000000000001e+01 3.5854506496686220e+01 
802 803 2 1.0279999989351922e+00 -1.6682156768687339e+03 1.0000000000000000e+00 2.6461197584970122e+01 1.3800000000000001e+01 3.6311205147419138e+01 
625 626 2 1.0279999978002166e+00 -2.3666379585934533e+02 1.0000000000000000e+00 2.8631177296353329e+01 1.3800000000000001e+01 3.6218847296159623e+01 
886 887 2 1.0280000124790138e+00 8.1343547024906044e+01 1.0000000000000000e+00 2.7933409422134375e+01 1.3800000000000001e+01 3.7728485957739814e+01 
804 805 2 1.0279999919843601e+00 3.4669850157868996e+03 1.0000000000000000e+00 3.0229000873532986e+01 1.3800000000000001e+01 3.6571586375660516e+01 
592 593 2 1.0280000011430661e+00 4.2633579721029906e+02 1.0000000000000000e+00 3.0686237129244947e+01 1.3800000000000001e+01 3.7961915027452577e+01 
771 772 2 1.0280000004373295e+00 -3.8551004364362338e+03 1.0000000000000000e+00 3.2507905851111417e+01 1.3800000000000001e+01 3.6034121684033934e+01 
1231 1232 2 1.0280000000000054e+00 -1.4147418518505110e+03 1.0000000000000000e+00 1.6818840326621163e+00 1.7600000000000001e+01 3.7410816708928486e+01 
1236 1237 2 1.0279999999999949e+00 -3.8057218031811080e+03 1.0000000000000000e+00 2.4020592875382922e+00 1.7600000000000001e+01 3.7521416304383671e+01 
1102 1103 2 1.0280000000000074e+00 3.0045245727196261e+03 1.0000000000000000e+00 4.2800431265648529e+00 1.7600000000000001e+01 3.6156208476989598e+01 
1362 1363 2 1.0279999999999925e+00 3.1185983062419700e+03 1.0000000000000000e+00 4.9075935379456510e+00 1.7600000000000001e+01 3.7769740777136342e+01 
1368 1369 2 1.0279999999999980e+00 1.3126179541787324e+03 1.0000000000000000e+00 8.5266909489854488e+00 1.7600000000000001e+01 3.6904575807928424e+01 
1200 1201 2 1.0280000000000065e+00 2.0155450362503345e+03 1.0000000000000000e+00 8.5822961488681244e+00 1.7600000000000001e+01 3.7506434007175123e+01 
1326 1327 2 1.0279999999999918e+00 -1.5856943296974359e+03 1.0000000000000000e+00 9.9908299516631871e+00 1.7600000000000001e+01 3.7867594694785822e+01 
1323 1324 2 1.0279999999999969e+00 -3.2957155539602163e+03 1.0000000000000000e+00 1.3446999838091898e+01 1.7600000000000001e+01 3.6979761600424155e+01 
1204 1205 2 1.0279999999999998e+00 1.5287997448811707e+03 1.0000000000000000e+00 1.4071220269198850e+01 1.7600000000000001e+01 3.7579898636649915e+01 
844 845 2 1.0279999881713395e+00 3.8916895844551743e+02 1.0000000000000000e+00 2.8348681764962247e+01 1.3800000000000001e+01 3.8012685179610550e+01 
634 635 2 1.0280000151147093e+00 9.0927533924160286e+02 1.0000000000000000e+00 3.0190844547748299e+01 1.3800000000000001e+01 3.8274723704808537e+01 
1358 1359 2 1.0280000000000009e+00 3.1101387172921994e+02 1.0000000000000000e+00 6.1070981697841409e-01 1.7600000000000001e+01 3.8345521934454474e+01 
974 975 2 1.0280000000000040e+00 1.4632257214908250e+03 1.0000000000000000e+00 3.5716635225305282e-01 1.7600000000000001e+01 3.9394021039345787e+01 
1195 1196 2 1.0279999999999965e+00 2.0338483014324065e+03 1.0000000000000000e+00 1.9483030537807475e+00 1.7600000000000001e+01 3.9528113019807599e+01 
1240 1241 2 1.0280000000000074e+00 -2.7343208713350323e+03 1.0000000000000000e+00 3.9721262404497866e+00 1.7600000000000001e+01 3.8044346599707289e+01 
1199 1200 2 1.0280000000000020e+00 2.5475012948274998e+03 1.0000000000000000e+00 5.3122192862941722e+00 1.7600000000000001e+01 3.9083619701555300e+01 