LAMMPS data file via write_data, version 30 Jul 2016, timestep = 50400000

180 atoms
2 atom types

0.0000000000000000e+00 2.0000000000000000e+01 xlo xhi
0.0000000000000000e+00 2.0000000000000000e+01 ylo yhi
0.0000000000000000e+00 2.0000000000000000e+01 zlo zhi

Masses

1 3.896
2 4.31

Atoms # meso-molecular

53 1 2 1.0280029237166626e+00 -1.0286262068207354e+02 1.0000000000000000e+00 3.1927457873497085e+00 9.6728081246201070e-01 4.2783754067289975e-01 
93 1 2 1.0280029247686280e+00 -1.1954408193859628e+02 1.0000000000000000e+00 3.1927506754954162e+00 9.6736436665217551e-01 4.2775135705428030e-01 
90 1 2 1.0279975724265693e+00 -8.6757587439304643e+01 1.0000000000000000e+00 4.4779058862323309e+00 5.5453504472454451e-01 1.1420544001048185e+00 
71 1 2 1.0280017503287178e+00 -1.3379250476084667e+02 1.0000000000000000e+00 5.6217267506325710e+00 6.9495146619124659e-01 1.1070548953576869e+00 
27 1 2 1.0279866760576679e+00 -5.4603269853754568e+01 1.0000000000000000e+00 5.5719485625543870e+00 7.4526572641739242e-01 1.3566002233482113e+00 
11 1 2 1.0280034539035756e+00 -1.0527594513054792e+02 1.0000000000000000e+00 5.3676102637385332e+00 2.3350427826591189e+00 7.3138297745627123e-01 
10 1 2 1.0280031393412370e+00 -7.2199085803213606e+01 1.0000000000000000e+00 5.4800054319418505e+00 2.2676176284136256e+00 6.6777942179342376e-01 
16 1 2 1.0280000002736345e+00 -9.8627877320806874e+01 1.0000000000000000e+00 3.3221650728899257e+00 9.4732975285847782e+00 9.7422851699427337e-01 
21 1 2 1.0280000005825725e+00 -9.3488672082620027e+01 1.0000000000000000e+00 3.2471832438844235e+00 9.4107399869195429e+00 1.0223783412872161e+00 
15 1 2 1.0279999991700934e+00 -1.2882150703993671e+02 1.0000000000000000e+00 3.3456684647176154e+00 9.3701314735615977e+00 9.9988960079279210e-01 
60 1 2 1.0279990341795704e+00 -1.5657419092500669e+02 1.0000000000000000e+00 6.6454076384686172e+00 9.9914113155469841e-01 1.1999278502115025e+01 
143 1 2 1.0280138636631064e+00 -8.2743438054578519e+01 1.0000000000000000e+00 5.0836263309938632e+00 2.9367232752225259e+00 1.1877635162523884e+01 
178 1 2 1.0279891689404010e+00 -9.3565170028340191e+01 1.0000000000000000e+00 4.9838031690012681e+00 3.0308567204326748e+00 1.2027004297410027e+01 
179 1 2 1.0279888500383474e+00 -1.1795939645612171e+02 1.0000000000000000e+00 5.0039781797711500e+00 3.0256962366309161e+00 1.2048103253638235e+01 
5 1 2 1.0279970732493253e+00 -1.0328991281870056e+02 1.0000000000000000e+00 4.0925504076186607e+00 2.1703856318610626e+00 1.9723914062791582e+01 
4 1 2 1.0279970732472967e+00 -7.8307994421149957e+01 1.0000000000000000e+00 4.0925506933654594e+00 2.1703857823038386e+00 1.9723914086075645e+01 
177 1 2 1.0279986353680899e+00 -5.0505286260618377e+01 1.0000000000000000e+00 2.6480613694639925e+00 1.8933612729899977e+01 7.6098721843895800e-01 
175 1 2 1.0279997491605153e+00 -1.1065386018186655e+02 1.0000000000000000e+00 2.8657572978050188e+00 1.8987684971371518e+01 3.1255775392977564e-01 
176 1 2 1.0280001464550892e+00 -1.1161455385213232e+02 1.0000000000000000e+00 2.9127175133591066e+00 1.8850478011847276e+01 7.8747241690567560e-01 
18 1 2 1.0280211008129516e+00 -1.0095254137656919e+02 1.0000000000000000e+00 6.5029419793763870e+00 1.9321913029906220e+01 3.2252547412577699e+00 
52 1 2 1.0280166871129806e+00 -1.0333451687255899e+02 1.0000000000000000e+00 6.5012585784678043e+00 1.9347751806273887e+01 3.3517512656284998e+00 
102 1 2 1.0280009554079093e+00 -5.0197558390477468e+01 1.0000000000000000e+00 1.1961538394991744e+00 1.5529312035798286e+01 5.6856620865835188e+00 
136 1 2 1.0280005985440306e+00 -1.4510202185856352e+02 1.0000000000000000e+00 1.2431011052616185e+00 1.5533288120289845e+01 5.2958248901009508e+00 
43 1 2 1.0280004442060235e+00 -1.2127660914847138e+02 1.0000000000000000e+00 8.1678476384978682e-01 1.7579321044474419e+01 5.3498194178892380e+00 
79 1 2 1.0280004442060271e+00 -1.2127660914847155e+02 1.0000000000000000e+00 8.1678476384488941e-01 1.7579321044473264e+01 5.3498194178869500e+00 
23 1 2 1.0280001368095695e+00 -1.0192914023410742e+02 1.0000000000000000e+00 1.9489152538099583e+00 1.6711522014405730e+01 5.8841981340585274e+00 
17 1 2 1.0280006440805936e+00 -1.0745400110942832e+02 1.0000000000000000e+00 1.9771773801650117e+00 1.6682109929407549e+01 5.0046130206753370e+00 
162 1 2 1.0281593445750896e+00 -5.3295848319507591e+01 1.0000000000000000e+00 4.5045025744502354e+00 1.7832530931013061e+01 5.5004544752928854e+00 
138 1 2 1.0281595208671550e+00 -1.2426729530857943e+02 1.0000000000000000e+00 4.5209669092087026e+00 1.7825352062387246e+01 5.5045408047211959e+00 
174 1 2 1.0278435450352847e+00 -1.0018997483758665e+02 1.0000000000000000e+00 5.0174042332239068e+00 1.8923440870131895e+01 5.5162431347178611e+00 
168 1 2 1.0278361275834575e+00 -8.5284136077740712e+01 1.0000000000000000e+00 4.9625829266632389e+00 1.8943995908305286e+01 5.5661657205931290e+00 
66 1 2 1.0280042412203727e+00 -6.6337194399391279e+01 1.0000000000000000e+00 1.7100075282366012e+00 1.3990972315068914e+01 8.8659332350172075e+00 
57 1 2 1.0279897307685266e+00 -7.6840296838232007e+01 1.0000000000000000e+00 4.7392316512104573e+00 1.3705071684026585e+01 9.3350842030408856e+00 
88 1 2 1.0279926876720853e+00 -9.8333837867733550e+01 1.0000000000000000e+00 5.0005805770440057e+00 1.3435424335066919e+01 9.5379063007873128e+00 
124 1 2 1.0279926876720853e+00 -1.0001806635212331e+02 1.0000000000000000e+00 5.0005805770440057e+00 1.3435424335066919e+01 9.5379063007873128e+00 
157 1 2 1.0279880782688555e+00 -8.3542675879361823e+01 1.0000000000000000e+00 2.9776014773818732e-01 1.5289016069861345e+01 9.0605125405008859e+00 
152 1 2 1.0279854891393441e+00 -8.3613627917877452e+01 1.0000000000000000e+00 3.2341819430156277e-01 1.5253676395838111e+01 9.0659426389056552e+00 
158 1 2 1.0280011547774774e+00 -1.0569429212527494e+02 1.0000000000000000e+00 1.8379582289389191e+00 1.4714545908619714e+01 8.6310670079650809e+00 
100 1 2 1.0279897471531718e+00 -1.3387979617997297e+02 1.0000000000000000e+00 2.7141020219091492e+00 1.4166587847428932e+01 9.5277955016785079e+00 
101 1 2 1.0279897623446046e+00 -9.5658137935502410e+01 1.0000000000000000e+00 2.7139050455859288e+00 1.4166477345252360e+01 9.5279176300504371e+00 
149 1 2 1.0279999400796822e+00 -8.6461160280441874e+01 1.0000000000000000e+00 2.1671114925560775e+00 1.5394313081186265e+01 1.6277451012549122e+01 
94 1 2 1.0279999400796425e+00 -1.2557152408795838e+02 1.0000000000000000e+00 2.1679818595343310e+00 1.5394423900347585e+01 1.6277570656086162e+01 
156 1 2 1.0280000599202856e+00 -1.1514268045240749e+02 1.0000000000000000e+00 2.2125012710026102e+00 1.4365655407276750e+01 1.6903319112436883e+01 
150 1 2 1.0280000599203223e+00 -1.1490634031564642e+02 1.0000000000000000e+00 2.2125015756709048e+00 1.4365655920387223e+01 1.6903319934008948e+01 
148 1 2 1.0279999999999996e+00 -9.6660581485187606e+01 1.0000000000000000e+00 1.1141101388175866e+01 1.5673767672050523e+00 6.3335628722772197e-01 
147 1 2 1.0279999999999991e+00 -9.7069189884826017e+01 1.0000000000000000e+00 1.1133376539291186e+01 1.4612267073314933e+00 6.1040801242972187e-01 
34 1 2 1.0280000000000022e+00 -4.9438542914497020e+01 1.0000000000000000e+00 1.1215985021074879e+01 1.5197216392625803e+00 5.7030422840117678e-01 
70 1 2 1.0280279788668445e+00 -5.6792705388755031e+01 1.0000000000000000e+00 8.0178433139071252e+00 5.8095282944762172e-01 6.4832871436191954e+00 
19 1 2 1.0280279180128800e+00 -6.7621849101026115e+01 1.0000000000000000e+00 8.0178723941557113e+00 5.8121643835263559e-01 6.4831985836075763e+00 
107 1 2 1.0279836740070694e+00 -9.1236838911679797e+01 1.0000000000000000e+00 8.2898849445055127e+00 1.4159841219455960e+00 7.4523168295380211e+00 
108 1 2 1.0279836740070694e+00 -9.1236838911679683e+01 1.0000000000000000e+00 8.2898849445055127e+00 1.4159841219455960e+00 7.4523168295380211e+00 
87 1 2 1.0280036080925550e+00 -9.7725472243329989e+01 1.0000000000000000e+00 8.7630306520703911e+00 6.0767299087405418e+00 7.2425849131535021e+00 
81 1 2 1.0280035900311759e+00 -1.0015954175623816e+02 1.0000000000000000e+00 8.9531264737544998e+00 6.1600991464058570e+00 7.2234365248036214e+00 
134 1 2 1.0280031263979181e+00 -4.8079760918049423e+01 1.0000000000000000e+00 9.2494593705314330e+00 8.8221241829031793e+00 6.4526481057160341e+00 
128 1 2 1.0280017120628744e+00 -1.2821603118963779e+02 1.0000000000000000e+00 9.3708045324559013e+00 9.5990294209412141e+00 6.6220402515630461e+00 
127 1 2 1.0279985050038087e+00 -8.5024747442428875e+01 1.0000000000000000e+00 9.8273161478898690e+00 9.1876192005951030e+00 6.3830803982715887e+00 
8 1 2 1.0279994292117531e+00 -1.4807144456575304e+02 1.0000000000000000e+00 1.0916802128532520e+01 3.0038963953896638e+00 9.8056312618168491e+00 
2 1 2 1.0279994292117536e+00 -1.4797211884620651e+02 1.0000000000000000e+00 1.0916802128532515e+01 3.0038963953896789e+00 9.8056312618169024e+00 
112 1 2 1.0279975454998724e+00 -6.1090911709628671e+01 1.0000000000000000e+00 9.0022609619780720e+00 5.6094456082405104e+00 8.7521421205352734e+00 
118 1 2 1.0279975456652339e+00 -1.1037697054531955e+02 1.0000000000000000e+00 9.0022311140741689e+00 5.6094627761623022e+00 8.7521512116468418e+00 
40 1 2 1.0280007388576802e+00 -8.0617799188666226e+01 1.0000000000000000e+00 1.0758815305113485e+01 4.1180864606314378e+00 9.4327005306134488e+00 
76 1 2 1.0279986051361878e+00 -8.0409726671863041e+01 1.0000000000000000e+00 1.0417379158406192e+01 4.0938324406852606e+00 9.5569230284415259e+00 
51 1 2 1.0279944020742413e+00 -9.1659555015771545e+01 1.0000000000000000e+00 8.9252641083159663e+00 6.8143711962624858e+00 8.2062953840245445e+00 
56 1 2 1.0279998774030452e+00 -5.2559872987217481e+01 1.0000000000000000e+00 8.6367747928139469e+00 9.8545301561859553e+00 9.0835678528367865e+00 
123 1 2 1.0279970832708654e+00 -9.4861169006443220e+01 1.0000000000000000e+00 9.6615017493831203e+00 8.7343904038070104e+00 8.0837263165451816e+00 
117 1 2 1.0279970831649197e+00 -9.4972241751697936e+01 1.0000000000000000e+00 9.6614956234934226e+00 8.7343870635021723e+00 8.0837282911879971e+00 
9 1 2 1.0279950294943416e+00 -9.2560944889272164e+01 1.0000000000000000e+00 7.0765745822848656e+00 2.0303837304197433e-01 1.0622413617275964e+01 
45 1 2 1.0279950294943416e+00 -9.2239965622277523e+01 1.0000000000000000e+00 7.0765745822848656e+00 2.0303837304197433e-01 1.0622413617275964e+01 
47 1 2 1.0279851663537911e+00 -8.8044637390569363e+01 1.0000000000000000e+00 9.1455963146094614e+00 8.2278965420284489e-01 1.1489466997961921e+01 
75 1 2 1.0280048031908320e+00 -5.0727359385727688e+01 1.0000000000000000e+00 7.5508365830549451e+00 2.0595799075879344e+00 1.0283692946074765e+01 
111 1 2 1.0280010876605308e+00 -1.1014474089576508e+02 1.0000000000000000e+00 7.2034008891479600e+00 2.1328213138117116e+00 1.0228307953258657e+01 
110 1 2 1.0280030548941099e+00 -1.1022056782079875e+02 1.0000000000000000e+00 7.1654739470270661e+00 2.2008738509876968e+00 1.0949544616805023e+01 
170 1 2 1.0280100340460725e+00 -8.3761661604462958e+01 1.0000000000000000e+00 7.0745376595254399e+00 1.1378817141434627e-01 1.2389226859294864e+01 
164 1 2 1.0280100340460723e+00 -8.3761661604463157e+01 1.0000000000000000e+00 7.0745376595255145e+00 1.1378817141433396e-01 1.2389226859294853e+01 
48 1 2 1.0279641298686120e+00 -1.3559359169633785e+02 1.0000000000000000e+00 9.4408720779527773e+00 1.0396226936556106e+00 1.2407929532833183e+01 
12 1 2 1.0279642602324404e+00 -1.2748841071932937e+02 1.0000000000000000e+00 9.4395411581255804e+00 1.0396502901772000e+00 1.2408100317522038e+01 
35 1 2 1.0279999999964700e+00 -9.6538556519346727e+01 1.0000000000000000e+00 6.9115051294162404e+00 9.9188421157470668e+00 1.5772656488564269e+01 
36 1 2 1.0279999999964666e+00 -9.6108216466920965e+01 1.0000000000000000e+00 6.9115051294111858e+00 9.9188421157483599e+00 1.5772656488566206e+01 
172 1 2 1.0280038609477780e+00 -9.5521678140785113e+01 1.0000000000000000e+00 1.3035223343501201e+01 1.2355428060660264e+01 1.9579833794682824e+00 
166 1 2 1.0279976932098327e+00 -1.1173815996965877e+02 1.0000000000000000e+00 1.3254092408562164e+01 1.2444141581165146e+01 1.5139222658736824e+00 
130 1 2 1.0280049115714518e+00 -7.7028155718180201e+01 1.0000000000000000e+00 1.3193684771056994e+01 1.2388488985819334e+01 1.9956729417875834e+00 
165 1 2 1.0279991352652298e+00 -1.0499316397777493e+02 1.0000000000000000e+00 1.2385403245640758e+01 1.4408696519686178e+01 1.2902454559508525e+00 
159 1 2 1.0279991352652298e+00 -1.0498147495965482e+02 1.0000000000000000e+00 1.2385403245640758e+01 1.4408696519686178e+01 1.2902454559508525e+00 
161 1 2 1.0279964147303748e+00 -9.9785621052811535e+01 1.0000000000000000e+00 1.2754425963397550e+01 1.4604213048537352e+01 2.7061086383572590e+00 
167 1 2 1.0279964147303751e+00 -1.0047423760890769e+02 1.0000000000000000e+00 1.2754425963397537e+01 1.4604213048537346e+01 2.7061086383572706e+00 
50 1 2 1.0279877318982200e+00 -1.1098803573223054e+02 1.0000000000000000e+00 8.3137940203100129e+00 1.9455721260204175e+01 3.5848328257635469e+00 
54 1 2 1.0279646128046862e+00 -1.0564790116954691e+02 1.0000000000000000e+00 6.8609999122526046e+00 1.9843541098469707e+01 3.1049267085239385e+00 
85 1 2 1.0280040398258330e+00 -8.3778341446371741e+01 1.0000000000000000e+00 9.0385053554388808e+00 1.8626961030357332e+01 3.0864271263468597e+00 
122 1 2 1.0280011354886616e+00 -5.4202685532858325e+01 1.0000000000000000e+00 9.8857089464174823e+00 1.8887352190440886e+01 2.7645708624575498e+00 
180 1 2 1.0279990584113026e+00 -1.2012708861793290e+02 1.0000000000000000e+00 1.1010953670876550e+01 1.8794836616570628e+01 3.2977284045494790e+00 
173 1 2 1.0279964801394867e+00 -5.0030267182025277e+01 1.0000000000000000e+00 1.1035684466256043e+01 1.8695418733633947e+01 3.8242233050426688e+00 
32 1 2 1.0280014309390830e+00 -8.6596196612714735e+01 1.0000000000000000e+00 1.2626252571768305e+01 1.4739315224796149e+01 4.7124309449942494e+00 
67 1 2 1.0280001217682437e+00 -1.3188571176991090e+02 1.0000000000000000e+00 1.2892671554178136e+01 1.4448997732106385e+01 4.5620134423259966e+00 
68 1 2 1.0279983948400127e+00 -1.3233757591299144e+02 1.0000000000000000e+00 1.2942613746587599e+01 1.5357508489846090e+01 4.7699655030135357e+00 
121 1 2 1.0279975741510963e+00 -1.0142177584039030e+02 1.0000000000000000e+00 8.8092391057529529e+00 1.9199921493314275e+01 4.1544522392537502e+00 
58 1 2 1.0280160819157846e+00 -8.0795276995921370e+01 1.0000000000000000e+00 8.9533229229874607e+00 1.8590736930546640e+01 5.7721473788105655e+00 
144 1 2 1.0279989310712454e+00 -1.2013132623860758e+02 1.0000000000000000e+00 1.0390114865050919e+01 1.8408056303374760e+01 4.1870945042206094e+00 
146 1 2 1.0279895860904722e+00 -1.0150806905227179e+02 1.0000000000000000e+00 8.4416923232523668e+00 1.8434012442282160e+01 6.1109583749477272e+00 
153 1 2 1.0279895860904678e+00 -1.0116186339503497e+02 1.0000000000000000e+00 8.4416923232556140e+00 1.8434012442280668e+01 6.1109583749492700e+00 
14 1 2 1.0280006955950920e+00 -1.0753011345620125e+02 1.0000000000000000e+00 8.7840202003269514e+00 1.0438818876660202e+01 8.8821497885833285e+00 
20 1 2 1.0280011167342455e+00 -1.0752279078149637e+02 1.0000000000000000e+00 8.8057204733618200e+00 1.0439325571861250e+01 8.8981403396267407e+00 
171 1 2 1.0279783180157380e+00 -5.0971781910765429e+01 1.0000000000000000e+00 7.0095776506533154e+00 1.2609624699257925e+01 8.5618629834880018e+00 
59 1 2 1.0280000822927740e+00 -1.3707182911629039e+02 1.0000000000000000e+00 7.0819921243555912e+00 1.2631503118810025e+01 8.3439442293473256e+00 
129 1 2 1.0280038334395849e+00 -7.0029183979469082e+01 1.0000000000000000e+00 7.0282178527140697e+00 1.2642502398878401e+01 8.3143098610572768e+00 
96 1 2 1.0277297781084107e+00 -1.2466944146935256e+02 1.0000000000000000e+00 9.1517222921929626e+00 1.6964838051696571e+01 8.0080522862039398e+00 
89 1 2 1.0283583825831351e+00 -6.2889326848119140e+01 1.0000000000000000e+00 9.2172762918266837e+00 1.6795654429252384e+01 8.1298485449377207e+00 
83 1 2 1.0283583825831351e+00 -6.3328768885155313e+01 1.0000000000000000e+00 9.2172762918266837e+00 1.6795654429252384e+01 8.1298485449377207e+00 
49 1 2 1.0280346352937106e+00 -1.0345823565851474e+02 1.0000000000000000e+00 8.4534784203254461e+00 1.9727373740175821e+01 8.8569933551697115e+00 
13 1 2 1.0280346352937106e+00 -1.0330883083845634e+02 1.0000000000000000e+00 8.4534784203254461e+00 1.9727373740175821e+01 8.8569933551697115e+00 
106 1 2 1.0281140433628597e+00 -6.7144821564501356e+01 1.0000000000000000e+00 1.0217255506433016e+01 1.8807191510465127e+01 9.3941104342046984e+00 
105 1 2 1.0281140433628597e+00 -6.7135603464218676e+01 1.0000000000000000e+00 1.0217255506433016e+01 1.8807191510465127e+01 9.3941104342046984e+00 
7 1 2 1.0279129674549474e+00 -1.3888393578149643e+02 1.0000000000000000e+00 9.3012023557119790e+00 1.9708245228389455e+01 8.4916124527699530e+00 
113 1 2 1.0279081108160175e+00 -9.9501215679472509e+01 1.0000000000000000e+00 1.2078889223380356e+01 1.9769772631204066e+01 9.4285511016003074e+00 
119 1 2 1.0279096048786820e+00 -9.1293931672345408e+01 1.0000000000000000e+00 1.2064434312292939e+01 1.9777141172458130e+01 9.4340075815706026e+00 
46 1 2 1.0280957173321033e+00 -9.7556223272182606e+01 1.0000000000000000e+00 1.2424904726648556e+01 1.8512513625627033e+01 9.9925562044883645e+00 
82 1 2 1.0280957173340961e+00 -9.7835752274706905e+01 1.0000000000000000e+00 1.2424904736074653e+01 1.8512513638657691e+01 9.9925562386633811e+00 
160 1 2 1.0280114870931245e+00 -7.4697276172412685e+01 1.0000000000000000e+00 8.9008037561736213e+00 1.4135793064467844e+01 1.0169954029172088e+01 
154 1 2 1.0279974144042359e+00 -9.1399590895030713e+01 1.0000000000000000e+00 8.9099373344928949e+00 1.4211998464268888e+01 1.0247000704471288e+01 
155 1 2 1.0279971054870385e+00 -8.0991677180646334e+01 1.0000000000000000e+00 8.9965524519447779e+00 1.4184613748553538e+01 1.0186616333887294e+01 
1 1 2 1.0279122576355550e+00 -9.8861668396537581e+01 1.0000000000000000e+00 1.0660731763961657e+01 1.9153812813592058e+01 1.1052211228078182e+01 
151 1 2 1.0279667748299726e+00 -4.5732672167407820e+01 1.0000000000000000e+00 1.1050280079775638e+01 1.9100410678859099e+01 1.1030312250100522e+01 
37 1 2 1.0280978349048617e+00 -9.9136464892658424e+01 1.0000000000000000e+00 9.7795551586175957e+00 1.9927192523954979e+01 1.1533414100477648e+01 
42 1 2 1.0280000001427654e+00 -1.0175315094927626e+02 1.0000000000000000e+00 6.9541840659490193e+00 1.1526761295162123e+01 1.5500516818777195e+01 
6 1 2 1.0280000001427612e+00 -1.0175315094927655e+02 1.0000000000000000e+00 6.9541840659489882e+00 1.1526761295162192e+01 1.5500516818777369e+01 
31 1 2 1.0279999998288938e+00 -7.5823913306122563e+01 1.0000000000000000e+00 7.6128508500776970e+00 1.0798743516421908e+01 1.6191927362995923e+01 
41 1 2 1.0279997054552479e+00 -1.0943327991091894e+02 1.0000000000000000e+00 1.1133068168274191e+01 1.3048042226890578e+01 1.6266890629764763e+01 
77 1 2 1.0279997050658864e+00 -1.0861894055310596e+02 1.0000000000000000e+00 1.1133905300194746e+01 1.3048614199756109e+01 1.6265300201056856e+01 
133 1 2 1.0279999270727003e+00 -1.2814972056347233e+02 1.0000000000000000e+00 1.2014488352803303e+01 1.2539603978036283e+01 1.7217762370358113e+01 
169 1 2 1.0280000489401133e+00 -1.2533031175607444e+02 1.0000000000000000e+00 1.2207374348260164e+01 1.3758793678523373e+01 1.6261518021856858e+01 
139 1 2 1.0280000367589830e+00 -1.0114755124176629e+02 1.0000000000000000e+00 1.1938330997946723e+01 1.4764066587882322e+01 1.7251540260965321e+01 
163 1 2 1.0280000367513529e+00 -4.2950762047257520e+01 1.0000000000000000e+00 1.1938370849429237e+01 1.4764057207700096e+01 1.7251615499086110e+01 
103 1 2 1.0279997830274994e+00 -6.3083605953454352e+01 1.0000000000000000e+00 1.1771283713668211e+01 1.3930916723074290e+01 1.8157438970866977e+01 
64 1 2 1.0279936826838574e+00 -1.8061014956473585e+02 1.0000000000000000e+00 1.2672506105614826e+01 1.3892874307329004e+01 1.9586493015377016e+01 
69 1 2 1.0279996581416642e+00 -9.7280967205457841e+01 1.0000000000000000e+00 1.2653920149914304e+01 1.2493466661288840e+01 1.8480528216230660e+01 
33 1 2 1.0279995825307238e+00 -9.7314497018552302e+01 1.0000000000000000e+00 1.2658276880246815e+01 1.2489830073713348e+01 1.8626171106308853e+01 
145 1 2 1.0279961912562552e+00 -7.6604064745762713e+01 1.0000000000000000e+00 1.4304777560322526e+01 4.7982749451304354e+00 5.7580952326649026e-01 
3 1 2 1.0279961912562317e+00 -4.5909117811064327e+01 1.0000000000000000e+00 1.4309321430215684e+01 4.8033844670883159e+00 5.7405188230483739e-01 
84 1 2 1.0280038088380630e+00 -1.3660937478688945e+02 1.0000000000000000e+00 1.4337124639002132e+01 4.3851738489932757e+00 1.9444355555753493e+01 
78 1 2 1.0280038088380630e+00 -1.3691418884386525e+02 1.0000000000000000e+00 1.4337124639002132e+01 4.3851738489932757e+00 1.9444355555753493e+01 
62 1 2 1.0279987369772203e+00 -1.2629578299243204e+02 1.0000000000000000e+00 1.8712886358150762e+01 1.6532411046771738e+01 3.5722727781243928e+00 
120 1 2 1.0279984209545971e+00 -4.7052641274066666e+01 1.0000000000000000e+00 1.8991199151422077e+01 1.6753848764389723e+01 3.6063195814116544e+00 
104 1 2 1.0279966022399980e+00 -9.7231016662500807e+01 1.0000000000000000e+00 1.4495363168169396e+01 1.5832167842649591e+01 4.2025388476024856e+00 
140 1 2 1.0279966022399940e+00 -9.7231059045571286e+01 1.0000000000000000e+00 1.4495363168168398e+01 1.5832167842648381e+01 4.2025388476017653e+00 
115 1 2 1.0280015192071790e+00 -1.3164378386112571e+02 1.0000000000000000e+00 1.5224281338039141e+01 1.5299561201222470e+01 5.1278352409123187e+00 
99 1 2 1.0279983805686885e+00 -1.1549627912593276e+02 1.0000000000000000e+00 1.6614110851737610e+01 1.4347101780462559e+01 5.1891448081606928e+00 
80 1 2 1.0279927459359779e+00 -1.1688841597777703e+02 1.0000000000000000e+00 1.5826497749785066e+01 1.5580297919614358e+01 5.2146130854168975e+00 
116 1 2 1.0279986092019733e+00 -1.5780486883158454e+02 1.0000000000000000e+00 1.7819852160948553e+01 1.4465538983366026e+01 4.6877603222834203e+00 
92 1 2 1.0279986000994836e+00 -1.3641204720102181e+02 1.0000000000000000e+00 1.7821509841334233e+01 1.4466001811917375e+01 4.6876967090910364e+00 
30 1 2 1.0280018806202189e+00 -9.1882053072324823e+01 1.0000000000000000e+00 1.9395013137278529e+01 1.4995793724618165e+01 5.6425466450215467e+00 
24 1 2 1.0280018806202176e+00 -9.1882053072325192e+01 1.0000000000000000e+00 1.9395013137278578e+01 1.4995793724618169e+01 5.6425466450218495e+00 
25 1 2 1.0279991796704602e+00 -9.3150850887696805e+01 1.0000000000000000e+00 1.4686376006647439e+01 1.7650965574383175e+01 5.8759721845717507e+00 
26 1 2 1.0279991796704602e+00 -9.2248407923110392e+01 1.0000000000000000e+00 1.4686376006647439e+01 1.7650965574383175e+01 5.8759721845717507e+00 
44 1 2 1.0280024864769355e+00 -8.6376446131234914e+01 1.0000000000000000e+00 1.5595174279923398e+01 1.7797816044381470e+01 5.4828865424646214e+00 
109 1 2 1.0280009256433655e+00 -1.2364976122740700e+02 1.0000000000000000e+00 1.7290062270304276e+01 1.6603194650999651e+01 4.2724343858701488e+00 
73 1 2 1.0280017404340662e+00 -1.1394559114834335e+02 1.0000000000000000e+00 1.7355250299847921e+01 1.6484526979392662e+01 4.2108777702177846e+00 
114 1 2 1.0279967441270750e+00 -7.6844007651043384e+01 1.0000000000000000e+00 1.7568940389332262e+01 1.7701230247321213e+01 5.9056125933612034e+00 
137 1 2 1.0280001111749408e+00 -9.0661670311660799e+01 1.0000000000000000e+00 1.9135114578168107e+01 1.7912054490355775e+01 4.1223649367005946e+00 
63 1 2 1.0280018928965164e+00 -1.8059750496155510e+02 1.0000000000000000e+00 1.9142879491541450e+01 1.7871706546299794e+01 4.7793707397652581e+00 
29 1 2 1.0279998537759236e+00 -7.4787846057378346e+01 1.0000000000000000e+00 1.7126356302376031e+01 1.8549025901060919e+01 4.3379974132609824e+00 
22 1 2 1.0280000249328538e+00 -8.5222412922283425e+01 1.0000000000000000e+00 1.7408701122894016e+01 1.8791142899575409e+01 4.4123822532263306e+00 
28 1 2 1.0280006070371757e+00 -9.6974085812186900e+01 1.0000000000000000e+00 1.7499475013252798e+01 1.8665951104821026e+01 5.4363898886712230e+00 
126 1 2 1.0280002490387383e+00 -9.3917155349709319e+01 1.0000000000000000e+00 1.6784167699753077e+01 1.4148280597811601e+01 6.7964018073337105e+00 
132 1 2 1.0280004899505304e+00 -1.3306240864141932e+02 1.0000000000000000e+00 1.6808547676981210e+01 1.4147199858157016e+01 6.8268048988573495e+00 
61 1 2 1.0279966996334020e+00 -9.4286815200280842e+01 1.0000000000000000e+00 1.6863109552352554e+01 1.5498074220174916e+01 7.8313018954741382e+00 
97 1 2 1.0279956336799503e+00 -8.3938626153605952e+01 1.0000000000000000e+00 1.6901759173312257e+01 1.5498686794024884e+01 7.8597445922913103e+00 
86 1 2 1.0280080808826775e+00 -8.9889527668054058e+01 1.0000000000000000e+00 1.7497875938713083e+01 1.5929212831013244e+01 6.3586125877120629e+00 
98 1 2 1.0279989213124390e+00 -9.9166471647548121e+01 1.0000000000000000e+00 1.8494902315345946e+01 1.4730545691556397e+01 6.5053492979216507e+00 
141 1 2 1.0280004301010646e+00 -1.0296800740231149e+02 1.0000000000000000e+00 1.6795108097800256e+01 1.7242538610134059e+01 7.2168560006429709e+00 
39 1 2 1.0279931732932728e+00 -5.0999751502768852e+01 1.0000000000000000e+00 1.8492367426755091e+01 1.6925317271651345e+01 7.1078877557215581e+00 
142 1 2 1.0279983972386120e+00 -1.0000794124015680e+02 1.0000000000000000e+00 1.5781794169999483e+01 1.8004105931739165e+01 7.2549793150850137e+00 
135 1 2 1.0279989636973663e+00 -7.3607604006469771e+01 1.0000000000000000e+00 1.5888047717966115e+01 1.8135600890988758e+01 7.1869294703508517e+00 
55 1 2 1.0280039633948659e+00 -9.7698416733635185e+01 1.0000000000000000e+00 1.8867342084611717e+01 1.4935233252174008e+01 8.5806840640792359e+00 
91 1 2 1.0280040060690028e+00 -1.0960785847621875e+02 1.0000000000000000e+00 1.8868171357693132e+01 1.4934959787703670e+01 8.5814750658165231e+00 
38 1 2 1.0279985589720775e+00 -9.2681920180441736e+01 1.0000000000000000e+00 1.8958958993963019e+01 1.6758234186548503e+01 8.0352350472115592e+00 
74 1 2 1.0279985589720717e+00 -9.3185974859533289e+01 1.0000000000000000e+00 1.8958958993963066e+01 1.6758234186548499e+01 8.0352350472115557e+00 
131 1 2 1.0279984573806373e+00 -8.4738037183433121e+01 1.0000000000000000e+00 1.5428717692032517e+01 1.3326599289823148e+01 1.7976596464559091e+01 
72 1 2 1.0280027567713517e+00 -1.1219430305289733e+02 1.0000000000000000e+00 1.3790635289284065e+01 1.3549909669593561e+01 1.9603099950967820e+01 
65 1 2 1.0280027572386770e+00 -1.1789942609314204e+02 1.0000000000000000e+00 1.3790610685718326e+01 1.3549969966828261e+01 1.9603114957660676e+01 
95 1 2 1.0279974177501894e+00 -1.0027637617645067e+02 1.0000000000000000e+00 1.5324443715462433e+01 1.3593656765221219e+01 1.8017252109922619e+01 
125 1 2 1.0279997135489507e+00 -8.4771838405959187e+01 1.0000000000000000e+00 1.5519218404985780e+01 1.3326100982339891e+01 1.8203168035564499e+01 

Velocities

53 3.9559742808932014e-02 -1.2128110317368690e-02 -3.1598978699402078e-02
93 3.9559689891474861e-02 -1.2128060725614906e-02 -3.1599123964589401e-02
90 4.1763064577570091e-02 -1.2865365814612558e-02 -2.8685058684742602e-02
71 3.9404625542274030e-02 -1.3866517690979038e-02 -2.5097229656865495e-02
27 3.7573665355323811e-02 -1.2480163719018366e-02 -2.6649917990446685e-02
11 4.1244282195919142e-02 -1.4870750887229516e-02 -2.8838847468078289e-02
10 4.1468941468124187e-02 -1.5150852880245031e-02 -2.8942262500829905e-02
16 -1.8287380255675143e-02 -1.9961844160331782e-02 1.6283113335592337e-02
21 -1.8287376219038573e-02 -1.9961840357608292e-02 1.6283110599150608e-02
15 -1.8287374595144446e-02 -1.9961846150026677e-02 1.6283111928427213e-02
60 3.7538272054480758e-02 -2.7491085262669999e-02 1.8821242561332340e-02
143 3.6396201512013296e-02 -3.2874354065249869e-02 1.9046108416438248e-02
178 3.6521757340198996e-02 -3.2886504668361086e-02 1.9657049301279025e-02
179 3.6457024156746877e-02 -3.2869451991995147e-02 1.9575855752583485e-02
5 4.0687401993959239e-02 -1.4689116094244312e-02 -3.0638563869679739e-02
4 4.0687401503122389e-02 -1.4689116948976894e-02 -3.0638563364024974e-02
177 3.4749296312162850e-02 -1.0591941577769479e-02 -3.1935664312693859e-02
175 3.4633297355993083e-02 -1.0860093097881409e-02 -3.1699052539981266e-02
176 3.4493753912787424e-02 -1.0670145675985654e-02 -3.1820753707400215e-02
18 2.6588286693718318e-02 -7.0247600457121265e-03 9.8032120670164796e-03
52 2.6988625196390531e-02 -6.3095020102098684e-03 1.0283448026682192e-02
102 -2.0454729056208130e-02 1.0986278912021955e-02 3.2799117200791081e-04
136 -2.0490204494492424e-02 1.1009088671082091e-02 7.7682895862523100e-05
43 -2.0881135629874408e-02 1.1482610879348111e-02 3.5823097469988137e-04
79 -2.0881135629870151e-02 1.1482610879325623e-02 3.5823097469428358e-04
23 -2.1431059025772407e-02 1.1306173389271066e-02 5.9936679365236404e-04
17 -2.1437008488439536e-02 1.1312474721213923e-02 -1.8888431382970204e-05
162 -3.6196615369442686e-02 5.8845341845429659e-02 3.6341588877917316e-02
138 -3.4744494441122396e-02 5.8158564774897059e-02 3.6723509838920101e-02
174 -3.7695193097520938e-02 5.9129771212708730e-02 3.3955935177468123e-02
168 -2.5360562043888406e-02 5.5388959550965400e-02 2.5963933696520961e-02
66 -8.0259203890695116e-03 1.0782498257135587e-02 -4.0424229056934512e-03
57 -2.3112993537203709e-03 1.3491384454387209e-02 -1.4876258670067286e-02
88 -2.6610866714501164e-03 1.5728132252675730e-02 -1.7389325620927456e-02
124 -2.6610866714501164e-03 1.5728132252675730e-02 -1.7389325620927456e-02
157 -1.2500364732989376e-02 8.1395997671689091e-03 -3.9002520577524282e-03
152 -1.2674111620761574e-02 8.3084764647702748e-03 -4.1774866901685649e-03
158 -9.0445678326923299e-03 1.0788497901080383e-02 -3.3557313258535037e-03
100 -6.0386296355097570e-03 1.1057264721973107e-02 -8.5336072850749969e-03
101 -6.0369705612762737e-03 1.1058373537532142e-02 -8.5329615920818093e-03
149 3.1014067484708072e-03 2.7417371649588337e-02 3.4545906451007274e-02
94 3.1013681128885754e-03 2.7417366730720916e-02 3.4545901139796872e-02