LAMMPS data file via write_data, version 30 Jul 2016, timestep = 50000000

180 atoms
2 atom types

0.0000000000000000e+00 2.0000000000000000e+01 xlo xhi
0.0000000000000000e+00 2.0000000000000000e+01 ylo yhi
0.0000000000000000e+00 2.0000000000000000e+01 zlo zhi

Masses

1 3.896
2 4.31

Atoms # meso-molecular

53 1 2 1.0280014437583296e+00 -1.0286279403828755e+02 1.0000000000000000e+00 1.6595988764443557e+00 1.4196129217659490e+00 1.7228140751613166e+00 
93 1 2 1.0280014439321208e+00 -1.1954425527550026e+02 1.0000000000000000e+00 1.6596023429767455e+00 1.4196948621922190e+00 1.7227342399841958e+00 
5 1 2 1.0279937000366330e+00 -1.0328994724919225e+02 1.0000000000000000e+00 2.4910214314792096e+00 2.7366761307963792e+00 1.0079844179913917e+00 
4 1 2 1.0279937000342263e+00 -7.8308028851635655e+01 1.0000000000000000e+00 2.4910217481833135e+00 2.7366763228962401e+00 1.0079844263829991e+00 
10 1 2 1.0280075336454932e+00 -7.2199159595882193e+01 1.0000000000000000e+00 3.8326689142579147e+00 2.8287768690409489e+00 1.9131559770400404e+00 
11 1 2 1.0280080345104654e+00 -1.0527599762686162e+02 1.0000000000000000e+00 3.7338084998525587e+00 2.8817796440827665e+00 1.9692741446489395e+00 
90 1 2 1.0279966888637688e+00 -8.6757759624965701e+01 1.0000000000000000e+00 2.8529429467907899e+00 1.0195777734263620e+00 2.3711064924905072e+00 
71 1 2 1.0279979050375325e+00 -1.3379346813358879e+02 1.0000000000000000e+00 4.0853677601732130e+00 1.2012841859600840e+00 2.1576041914352411e+00 
27 1 2 1.0279748812630010e+00 -5.4604860802551542e+01 1.0000000000000000e+00 4.1044022689719162e+00 1.2031947777341954e+00 2.4909554002407872e+00 
54 1 2 1.0279658343974898e+00 -1.0565028793151465e+02 1.0000000000000000e+00 5.6892223879980106e+00 3.5661182149424647e-01 3.2555730447882123e+00 
19 1 2 1.0280010112379683e+00 -6.7622708119273881e+01 1.0000000000000000e+00 6.6170574093630208e+00 1.3891238139540314e+00 6.0304612813565530e+00 
70 1 2 1.0280010104055044e+00 -5.6793564549624222e+01 1.0000000000000000e+00 6.6170711896132666e+00 1.3890203394040177e+00 6.0305386386531694e+00 
45 1 2 1.0279996176811261e+00 -9.2240001541307166e+01 1.0000000000000000e+00 5.5972003225107834e+00 1.2931869892264904e+00 9.9543296359804909e+00 
9 1 2 1.0279996176811261e+00 -9.2560980808301807e+01 1.0000000000000000e+00 5.5972003225107834e+00 1.2931869892264904e+00 9.9543296359804909e+00 
75 1 2 1.0280006930797658e+00 -5.0727372048417635e+01 1.0000000000000000e+00 6.0496745635911182e+00 3.1406462311413970e+00 9.6239821660681990e+00 
111 1 2 1.0280005123027676e+00 -1.1014475293688781e+02 1.0000000000000000e+00 5.6930279437607840e+00 3.2183811145002621e+00 9.5665865129262979e+00 
170 1 2 1.0279994392633021e+00 -8.3761674301060836e+01 1.0000000000000000e+00 5.5635541996881139e+00 1.2034048780941375e+00 1.1718400746656195e+01 
164 1 2 1.0279994392633032e+00 -8.3761674301061035e+01 1.0000000000000000e+00 5.5635541996881797e+00 1.2034048780941204e+00 1.1718400746656179e+01 
60 1 2 1.0280010800516537e+00 -1.5657421989019912e+02 1.0000000000000000e+00 5.1409414831437976e+00 2.0852544615801651e+00 1.1326250978376958e+01 
110 1 2 1.0279994249382862e+00 -1.1022060617829554e+02 1.0000000000000000e+00 5.6612269433276499e+00 3.2927996643981179e+00 1.0293719652450104e+01 
178 1 2 1.0280033342974824e+00 -9.3565178610811842e+01 1.0000000000000000e+00 3.5725418513068457e+00 4.3254095311697940e+00 1.1270216859211365e+01 
179 1 2 1.0280038729816461e+00 -1.1795940540269360e+02 1.0000000000000000e+00 3.5926936982657320e+00 4.3198207975458054e+00 1.1290565481926915e+01 
143 1 2 1.0279922860694635e+00 -8.2743459957771250e+01 1.0000000000000000e+00 3.6699880556785089e+00 4.2285845194257607e+00 1.1121465299532618e+01 
21 1 2 1.0280000623795686e+00 -9.3488672082620027e+01 1.0000000000000000e+00 3.9552132059155607e+00 1.0183600857274289e+01 3.9194707832512743e-01 
15 1 2 1.0279998943225335e+00 -1.2882150703993671e+02 1.0000000000000000e+00 4.0536988035878352e+00 1.0142989302241869e+01 3.6945922807806980e-01 
16 1 2 1.0280000428448393e+00 -9.8627877320806874e+01 1.0000000000000000e+00 4.0301926563345551e+00 1.0246156829691943e+01 3.4379864718458242e-01 
175 1 2 1.0280044958489720e+00 -1.1065401598709528e+02 1.0000000000000000e+00 1.6351752682578637e+00 1.9395179322147278e+01 1.5276039385442981e+00 
177 1 2 1.0279920938378806e+00 -5.0505404421017765e+01 1.0000000000000000e+00 1.3974379105322665e+00 1.9310265980989676e+01 1.9864234360968653e+00 
162 1 2 1.0273037987409948e+00 -5.3296632536137182e+01 1.0000000000000000e+00 6.3047411000342972e+00 1.5571712053461477e+01 3.7679450635519167e+00 
138 1 2 1.0273036390164445e+00 -1.2426805400215785e+02 1.0000000000000000e+00 6.3101880895864104e+00 1.5570264364770532e+01 3.7692648719599271e+00 
174 1 2 1.0287182175411322e+00 -1.0020004597015090e+02 1.0000000000000000e+00 6.6522178715264459e+00 1.6705651924810152e+01 3.9948911816073340e+00 
176 1 2 1.0279968217548980e+00 -1.1161469734850789e+02 1.0000000000000000e+00 1.6955432711230300e+00 1.9230544657994248e+01 2.0059835542682789e+00 
18 1 2 1.0280207695754380e+00 -1.0095744107189419e+02 1.0000000000000000e+00 5.3482877771355373e+00 1.9600689543517621e+01 3.2532199377860689e+00 
52 1 2 1.0280237763188174e+00 -1.0334084703632587e+02 1.0000000000000000e+00 5.3509152076480175e+00 1.9629833910115455e+01 3.3591930455194055e+00 
30 1 2 1.0280004667225133e+00 -9.1882060681050703e+01 1.0000000000000000e+00 1.8062122205385964e-01 1.4579401350404984e+01 5.6496261762582014e+00 
24 1 2 1.0280004667225133e+00 -9.1882060681051072e+01 1.0000000000000000e+00 1.8062122205387196e-01 1.4579401350404991e+01 5.6496261762584998e+00 
102 1 2 1.0280000337945459e+00 -5.0197560671155586e+01 1.0000000000000000e+00 1.9925406219926212e+00 1.5086387285699509e+01 5.6770873480738739e+00 
136 1 2 1.0280001169445558e+00 -1.4510202406723661e+02 1.0000000000000000e+00 2.0401816716914021e+00 1.5090559813763729e+01 5.2896062978686835e+00 
43 1 2 1.0280000579398081e+00 -1.2127661129104871e+02 1.0000000000000000e+00 1.6221477184045663e+00 1.7134718353326733e+01 5.3382650627539912e+00 
79 1 2 1.0280000579398108e+00 -1.2127661129104888e+02 1.0000000000000000e+00 1.6221477183996966e+00 1.7134718353325642e+01 5.3382650627516846e+00 
17 1 2 1.0279999615748874e+00 -1.0745411389309537e+02 1.0000000000000000e+00 2.7846371814538577e+00 1.6232193205665933e+01 4.9983869918157966e+00 
23 1 2 1.0280000729449643e+00 -1.0192919735285891e+02 1.0000000000000000e+00 2.7566987486388497e+00 1.6262661600294525e+01 5.8716516944105610e+00 
168 1 2 1.0286834373569662e+00 -8.5290764730550748e+01 1.0000000000000000e+00 6.4292436317402748e+00 1.6718105959657649e+01 4.1196628495779688e+00 
66 1 2 1.0280059121722918e+00 -6.6337418534443003e+01 1.0000000000000000e+00 2.0301595465870075e+00 1.3600597263291080e+01 8.9614344930586256e+00 
101 1 2 1.0279871970280750e+00 -9.5658583928324077e+01 1.0000000000000000e+00 2.9330934631196506e+00 1.3752922522714535e+01 9.8252257406349930e+00 
100 1 2 1.0279871842736954e+00 -1.3388024225122734e+02 1.0000000000000000e+00 2.9333682766563394e+00 1.3753101684835043e+01 9.8251286602238892e+00 
57 1 2 1.0279921222228265e+00 -7.6840622852038791e+01 1.0000000000000000e+00 4.7773810280338882e+00 1.3167911889271934e+01 9.9200128804967118e+00 
157 1 2 1.0279876375943162e+00 -8.3542849022992328e+01 1.0000000000000000e+00 8.0404281972592817e-01 1.4992090798810498e+01 9.1852639602983217e+00 
158 1 2 1.0280050210552891e+00 -1.0569453461691290e+02 1.0000000000000000e+00 2.1957194439456864e+00 1.4299681846758626e+01 8.7162826804611218e+00 
152 1 2 1.0279851298361595e+00 -8.3613823867938194e+01 1.0000000000000000e+00 8.3525811941499650e-01 1.4950552689880048e+01 9.2052343464137696e+00 
88 1 2 1.0279914379408881e+00 -9.8334067292429225e+01 1.0000000000000000e+00 5.0283951771357405e+00 1.2798492649081512e+01 1.0249745966471023e+01 
124 1 2 1.0279914379408881e+00 -1.0001829577681899e+02 1.0000000000000000e+00 5.0283951771357405e+00 1.2798492649081512e+01 1.0249745966471023e+01 
150 1 2 1.0280000601361823e+00 -1.1490634031564642e+02 1.0000000000000000e+00 2.0924260669041108e+00 1.3304142219732761e+01 1.5565811907142063e+01 
156 1 2 1.0280000601361579e+00 -1.1514268045240749e+02 1.0000000000000000e+00 2.0924257627785647e+00 1.3304141707535910e+01 1.5565811087032856e+01 
149 1 2 1.0279999398673996e+00 -8.6461160280441874e+01 1.0000000000000000e+00 2.0470344649552197e+00 1.4332799353528950e+01 1.4939943052410479e+01 
94 1 2 1.0279999398673012e+00 -1.2557152408795838e+02 1.0000000000000000e+00 2.0479063853887758e+00 1.4332910370924427e+01 1.4940062909226789e+01 
148 1 2 1.0279999999999987e+00 -9.6660581485187606e+01 1.0000000000000000e+00 1.1647705595267357e+01 1.5845215835273763e+00 2.3944637774020575e-01 
147 1 2 1.0279999999999987e+00 -9.7069189884826017e+01 1.0000000000000000e+00 1.1639980746382564e+01 1.4783715236537900e+00 2.1649810294244995e-01 
34 1 2 1.0279999999999998e+00 -4.9438542914497020e+01 1.0000000000000000e+00 1.1722589228165909e+01 1.5368664555848461e+00 1.7639431891306695e-01 
7 1 2 1.0280055872254985e+00 -1.3888400212083687e+02 1.0000000000000000e+00 7.7459516366440520e+00 7.1185131150695635e-01 7.8119895523762102e+00 
107 1 2 1.0279984248595810e+00 -9.1237292878423887e+01 1.0000000000000000e+00 6.7438869202508789e+00 2.4441481256582982e+00 6.7554213997771280e+00 
108 1 2 1.0279984248595810e+00 -9.1237292878423773e+01 1.0000000000000000e+00 6.7438869202508789e+00 2.4441481256582982e+00 6.7554213997771280e+00 
134 1 2 1.0280075456810038e+00 -4.8079979793300282e+01 1.0000000000000000e+00 8.5403796717989646e+00 8.8106301540122001e+00 7.7146650519319584e+00 
128 1 2 1.0280066376097989e+00 -1.2821627346486378e+02 1.0000000000000000e+00 8.6460526844822088e+00 9.5187008604903323e+00 7.8666712817492277e+00 
127 1 2 1.0279939785571501e+00 -8.5024918685505611e+01 1.0000000000000000e+00 9.0826975183709369e+00 9.1433553821310074e+00 7.5956672789892314e+00 
49 1 2 1.0279963674389967e+00 -1.0345800438805644e+02 1.0000000000000000e+00 6.9770882498431046e+00 7.0466359313366622e-01 8.1906554029603527e+00 
13 1 2 1.0279963674389967e+00 -1.0330859956799804e+02 1.0000000000000000e+00 6.9770882498431046e+00 7.0466359313366622e-01 8.1906554029603527e+00 
151 1 2 1.0280090429362005e+00 -4.5736519431119667e+01 1.0000000000000000e+00 9.6180229209502102e+00 3.9810346311144273e-01 9.9734636738149156e+00 
113 1 2 1.0282072195227612e+00 -9.9504152168276335e+01 1.0000000000000000e+00 1.1742379298676481e+01 1.4768442949986900e+00 8.3982912805142806e+00 
82 1 2 1.0277950012329404e+00 -9.7836996197872267e+01 1.0000000000000000e+00 1.2214376069611001e+01 4.1929368384448884e-01 8.7328017888276683e+00 
46 1 2 1.0277950012328831e+00 -9.7557467195204808e+01 1.0000000000000000e+00 1.2214376089808535e+01 4.1929371986479180e-01 8.7328018744011970e+00 
119 1 2 1.0282074171455691e+00 -9.1296953378316303e+01 1.0000000000000000e+00 1.1740044667911381e+01 1.4763755280431456e+00 8.4000221773049724e+00 
112 1 2 1.0279967035728628e+00 -6.1091008103739611e+01 1.0000000000000000e+00 8.9359616403789648e+00 5.6338332528341866e+00 9.6438896101625815e+00 
118 1 2 1.0279967033814545e+00 -1.1037706693399412e+02 1.0000000000000000e+00 8.9359285552696921e+00 5.6338499434684524e+00 9.6439010173552084e+00 
87 1 2 1.0280080262315747e+00 -9.7725498874006519e+01 1.0000000000000000e+00 8.6745041158917822e+00 6.1266180593213484e+00 8.1741529748694060e+00 
81 1 2 1.0280088021210338e+00 -1.0015957421781241e+02 1.0000000000000000e+00 8.8357632453757216e+00 6.1993059016271213e+00 8.1608259493411381e+00 
51 1 2 1.0279838282255556e+00 -9.1659962141268508e+01 1.0000000000000000e+00 8.7256059378225235e+00 6.9115431396140865e+00 9.1819139201023834e+00 
123 1 2 1.0279910926974321e+00 -9.4861608008276434e+01 1.0000000000000000e+00 9.2276321497557472e+00 8.7069245889809306e+00 9.3418894366597041e+00 
117 1 2 1.0279910924430493e+00 -9.4972680754534011e+01 1.0000000000000000e+00 9.2276259534167373e+00 8.7069202567155681e+00 9.3418923078104079e+00 
37 1 2 1.0279987731474776e+00 -9.9136569680384639e+01 1.0000000000000000e+00 8.4413123118230562e+00 9.9605223074426164e-01 1.0752664633760279e+01 
47 1 2 1.0280015375611544e+00 -8.8044731302089204e+01 1.0000000000000000e+00 7.6968523556607700e+00 1.8542803831661803e+00 1.0807460796366046e+01 
1 1 2 1.0279990904924614e+00 -9.8862598892624746e+01 1.0000000000000000e+00 9.4194112487075738e+00 3.4993973091483971e-01 1.0242476423495305e+01 
48 1 2 1.0279998626416695e+00 -1.3559364569480408e+02 1.0000000000000000e+00 7.9638715011244248e+00 2.0645273787098621e+00 1.1688827559491545e+01 
12 1 2 1.0279998614140939e+00 -1.2748846461820821e+02 1.0000000000000000e+00 7.9625712576609020e+00 2.0645154437276276e+00 1.1688940653433180e+01 
8 1 2 1.0280027327666794e+00 -1.4807164281810836e+02 1.0000000000000000e+00 1.1137323358631317e+01 3.2271894911239256e+00 1.0441937639515201e+01 
2 1 2 1.0280027327666801e+00 -1.4797231709856183e+02 1.0000000000000000e+00 1.1137323358631310e+01 3.2271894911239429e+00 1.0441937639515279e+01 
76 1 2 1.0279984057795435e+00 -8.0409845900181637e+01 1.0000000000000000e+00 1.0616186360254702e+01 4.3252364576147428e+00 1.0262425450655190e+01 
40 1 2 1.0279980054374493e+00 -8.0617880965730564e+01 1.0000000000000000e+00 1.0947430132168673e+01 4.3550848165677616e+00 1.0139120454892488e+01 
56 1 2 1.0280019238524629e+00 -5.2559971330551569e+01 1.0000000000000000e+00 8.3734237147993600e+00 9.8739699156415366e+00 1.0364162518674744e+01 
35 1 2 1.0280000115583265e+00 -9.6538556519346727e+01 1.0000000000000000e+00 7.0657714469190340e+00 9.0361359803474013e+00 1.7483507947834575e+01 
36 1 2 1.0280000115583239e+00 -9.6108216466920965e+01 1.0000000000000000e+00 7.0657714469139536e+00 9.0361359803487034e+00 1.7483507947836518e+01 
31 1 2 1.0279999975950542e+00 -7.5823913306122563e+01 1.0000000000000000e+00 7.7672261501690416e+00 9.9159723500594108e+00 1.7902732840776498e+01 
122 1 2 1.0280057171946237e+00 -5.4202813722950225e+01 1.0000000000000000e+00 8.6412098444902554e+00 1.9233969139433757e+01 1.8590743731031629e+00 
85 1 2 1.0280108629237124e+00 -8.3778622612406565e+01 1.0000000000000000e+00 7.9200566939243657e+00 1.9030304803475303e+01 2.2565635651417555e+00 
121 1 2 1.0279375448288508e+00 -1.0142301046469788e+02 1.0000000000000000e+00 7.6488447926925973e+00 1.9672497367518620e+01 3.4711725253352066e+00 
50 1 2 1.0280228195431107e+00 -1.1098952827842180e+02 1.0000000000000000e+00 7.1355232305273617e+00 1.9800984605238437e+01 2.9942006143175539e+00 
180 1 2 1.0280066686786280e+00 -1.2012714576097514e+02 1.0000000000000000e+00 9.7905480719760121e+00 1.9151549687060143e+01 2.2630389594961198e+00 
144 1 2 1.0279946660718988e+00 -1.2013141828810284e+02 1.0000000000000000e+00 9.2034079239171405e+00 1.8718521302763065e+01 3.2155644963954320e+00 
173 1 2 1.0280026702092024e+00 -5.0030297696416916e+01 1.0000000000000000e+00 9.8484670930855618e+00 1.9041157244893434e+01 2.8247427598901451e+00 
58 1 2 1.0283035363295847e+00 -8.0796702791293768e+01 1.0000000000000000e+00 7.8644020313664997e+00 1.8864070622035698e+01 4.9136364119604821e+00 
146 1 2 1.0277015072985445e+00 -1.0151239819711063e+02 1.0000000000000000e+00 7.3316870083185455e+00 1.8679555205509157e+01 5.2061466959882381e+00 
153 1 2 1.0277015072985387e+00 -1.0116619253987378e+02 1.0000000000000000e+00 7.3316870083214729e+00 1.8679555205507437e+01 5.2061466959906140e+00 
96 1 2 1.0284817211752526e+00 -1.2466971859234791e+02 1.0000000000000000e+00 7.9547125083958656e+00 1.6783578500041440e+01 6.4785132364024864e+00 
89 1 2 1.0275706985854989e+00 -6.2889825729291942e+01 1.0000000000000000e+00 8.0142144466094063e+00 1.6571992018219614e+01 6.5943074619487509e+00 
83 1 2 1.0275706985854989e+00 -6.3329267766328115e+01 1.0000000000000000e+00 8.0142144466094063e+00 1.6571992018219614e+01 6.5943074619487509e+00 
171 1 2 1.0279303099274937e+00 -5.0972531539072982e+01 1.0000000000000000e+00 6.8579438151290635e+00 1.1901794927949062e+01 9.2503716671310059e+00 
59 1 2 1.0280277957153150e+00 -1.3707198481312577e+02 1.0000000000000000e+00 6.8175869153450019e+00 1.1977422003364447e+01 8.8990565798600745e+00 
129 1 2 1.0280289535328180e+00 -7.0029251046077547e+01 1.0000000000000000e+00 6.7748724585544364e+00 1.1985220844021310e+01 8.8888597577769328e+00 
154 1 2 1.0280109321796256e+00 -9.1399648989498829e+01 1.0000000000000000e+00 7.8703925114000821e+00 1.5325981419959314e+01 8.9338176975207215e+00 
160 1 2 1.0280366510649175e+00 -7.4697436603465860e+01 1.0000000000000000e+00 7.8540562951501904e+00 1.5234292902487217e+01 8.8520527104649478e+00 
155 1 2 1.0279757186198175e+00 -8.0991783120352295e+01 1.0000000000000000e+00 7.9865824234747453e+00 1.5294066017246429e+01 8.8708383482857052e+00 
106 1 2 1.0279967619046415e+00 -6.7146059222356627e+01 1.0000000000000000e+00 8.9519098203384129e+00 1.9995120309889078e+01 8.7958609003373436e+00 
105 1 2 1.0279967619046415e+00 -6.7136841122073946e+01 1.0000000000000000e+00 8.9519098203384129e+00 1.9995120309889078e+01 8.7958609003373436e+00 
14 1 2 1.0279903905718999e+00 -1.0753052837884792e+02 1.0000000000000000e+00 8.5543641591475126e+00 1.0495926265302403e+01 1.0158397799974642e+01 
20 1 2 1.0279928986275604e+00 -1.0752316545290365e+02 1.0000000000000000e+00 8.5793290599034666e+00 1.0489474747366723e+01 1.0176855545770632e+01 
42 1 2 1.0279999903287427e+00 -1.0175315094927626e+02 1.0000000000000000e+00 7.1086751912737398e+00 1.0644029761313975e+01 1.7211253611852161e+01 
6 1 2 1.0279999903287436e+00 -1.0175315094927655e+02 1.0000000000000000e+00 7.1086751912737105e+00 1.0644029761314014e+01 1.7211253611852285e+01 
41 1 2 1.0279997534892904e+00 -1.0943328185843558e+02 1.0000000000000000e+00 1.2555863292717468e+01 1.2623181401356414e+01 1.6594634648078156e+01 
77 1 2 1.0279997527074884e+00 -1.0861894249541734e+02 1.0000000000000000e+00 1.2556705401345928e+01 1.2623761570253306e+01 1.6593031828623857e+01 
103 1 2 1.0279996010556398e+00 -6.3083629044713490e+01 1.0000000000000000e+00 1.3186967608785531e+01 1.3499034100239678e+01 1.8450308113274410e+01 
145 1 2 1.0279950087208318e+00 -7.6604064745762713e+01 1.0000000000000000e+00 1.5240287547706151e+01 4.8748304707580408e+00 1.0662489396364445e+00 
3 1 2 1.0279950087202423e+00 -4.5909117811064327e+01 1.0000000000000000e+00 1.5245489210194064e+01 4.8806796727663775e+00 1.0642368562770723e+00 
84 1 2 1.0280049914320895e+00 -1.3660937478688945e+02 1.0000000000000000e+00 1.5272963378111820e+01 4.4621011738147169e+00 1.9934671638344980e+01 
78 1 2 1.0280049914320895e+00 -1.3691418884386525e+02 1.0000000000000000e+00 1.5272963378111820e+01 4.4621011738147169e+00 1.9934671638344980e+01 
166 1 2 1.0279940606075828e+00 -1.1173819177761750e+02 1.0000000000000000e+00 1.4662142076509596e+01 1.1910286023243586e+01 1.6874328720157783e+00 
165 1 2 1.0279991136850590e+00 -1.0499325976490161e+02 1.0000000000000000e+00 1.3647377067319116e+01 1.3902437544144410e+01 1.4586030031719586e+00 
159 1 2 1.0279991136850590e+00 -1.0498157074678150e+02 1.0000000000000000e+00 1.3647377067319116e+01 1.3902437544144410e+01 1.4586030031719586e+00 
172 1 2 1.0280071988889548e+00 -9.5521721062998381e+01 1.0000000000000000e+00 1.4444894555600776e+01 1.1862003110104576e+01 2.1020073317747072e+00 
130 1 2 1.0280080779550558e+00 -7.7028194252833813e+01 1.0000000000000000e+00 1.4578383430943950e+01 1.1892330102732696e+01 2.1308379955085734e+00 
161 1 2 1.0279959443476501e+00 -9.9785774317918225e+01 1.0000000000000000e+00 1.3914742687625637e+01 1.4113275500485301e+01 2.8906242812202962e+00 
167 1 2 1.0279959443476505e+00 -1.0047439087401438e+02 1.0000000000000000e+00 1.3914742687625614e+01 1.4113275500485294e+01 2.8906242812203096e+00 
62 1 2 1.0279991778769761e+00 -1.2629578499986316e+02 1.0000000000000000e+00 1.9531807510755858e+01 1.6114643415439623e+01 3.5749085406240555e+00 
120 1 2 1.0279987881305417e+00 -4.7052643240210500e+01 1.0000000000000000e+00 1.9817310096607763e+01 1.6338850715395914e+01 3.6069270740498949e+00 
99 1 2 1.0279986485260957e+00 -1.1549629718496504e+02 1.0000000000000000e+00 1.7428890783602952e+01 1.3896625915471107e+01 5.2289793571673338e+00 
67 1 2 1.0280006376277446e+00 -1.3188578875682433e+02 1.0000000000000000e+00 1.3862663896955386e+01 1.4002223748991415e+01 4.7595931752660317e+00 
32 1 2 1.0280018718638231e+00 -8.6596253279242219e+01 1.0000000000000000e+00 1.3600417756467833e+01 1.4294314952120239e+01 4.9001169829577247e+00 
68 1 2 1.0279997334085660e+00 -1.3233765348498721e+02 1.0000000000000000e+00 1.3875633657451059e+01 1.4919846820413472e+01 4.9553277527579107e+00 
104 1 2 1.0279966950982742e+00 -9.7231103408689393e+01 1.0000000000000000e+00 1.5374757643334531e+01 1.5453354699935405e+01 4.2629937511588150e+00 
140 1 2 1.0279966950982742e+00 -9.7231145791759872e+01 1.0000000000000000e+00 1.5374757643333600e+01 1.5453354699934172e+01 4.2629937511579028e+00 
115 1 2 1.0280008195358170e+00 -1.3164380289309392e+02 1.0000000000000000e+00 1.6072929507266885e+01 1.4884627330100894e+01 5.2197833211564237e+00 
80 1 2 1.0279926220438140e+00 -1.1688845139691814e+02 1.0000000000000000e+00 1.6684363616401807e+01 1.5191356072284492e+01 5.3168754961055260e+00 
116 1 2 1.0279990897091256e+00 -1.5780487988040593e+02 1.0000000000000000e+00 1.8645430387100248e+01 1.4040726133847468e+01 4.6998359193109396e+00 
92 1 2 1.0279990832895871e+00 -1.3641205825654296e+02 1.0000000000000000e+00 1.8647111746221878e+01 1.4041185503559566e+01 4.6997248142410921e+00 
25 1 2 1.0279990745891878e+00 -9.3150856378402636e+01 1.0000000000000000e+00 1.5470816685036466e+01 1.7312334021506434e+01 5.9110705362875757e+00 
26 1 2 1.0279990745891878e+00 -9.2248413413816223e+01 1.0000000000000000e+00 1.5470816685036466e+01 1.7312334021506434e+01 5.9110705362875757e+00 
44 1 2 1.0280024701751729e+00 -8.6376464671754775e+01 1.0000000000000000e+00 1.6387197354576738e+01 1.7446124613357970e+01 5.5244432681700157e+00 
73 1 2 1.0280013160893486e+00 -1.1394560403760154e+02 1.0000000000000000e+00 1.8190054793280531e+01 1.6086747606933834e+01 4.2360179360827006e+00 
109 1 2 1.0280008855956193e+00 -1.2364977612766302e+02 1.0000000000000000e+00 1.8123539011388690e+01 1.6203375220695644e+01 4.2945110198608551e+00 
114 1 2 1.0279965358799188e+00 -7.6844061610589677e+01 1.0000000000000000e+00 1.8345951628707123e+01 1.7303060264453880e+01 5.8993013478663272e+00 
137 1 2 1.0279999784208351e+00 -9.0661672159846148e+01 1.0000000000000000e+00 1.9948454509067723e+01 1.7503772433337026e+01 4.1255701294374036e+00 
63 1 2 1.0280008918203096e+00 -1.8059751007512935e+02 1.0000000000000000e+00 1.9953240670702613e+01 1.7460003279489044e+01 4.7674659539916044e+00 
29 1 2 1.0280003500380490e+00 -7.4787852690186952e+01 1.0000000000000000e+00 1.7926853695885857e+01 1.8150341298201138e+01 4.3313071069270643e+00 
28 1 2 1.0280002740915561e+00 -9.6974095235390237e+01 1.0000000000000000e+00 1.8289453326626727e+01 1.8278765380811812e+01 5.4146350783208117e+00 
22 1 2 1.0280003534947200e+00 -8.5222416985029668e+01 1.0000000000000000e+00 1.8209416627356699e+01 1.8392078336169831e+01 4.4030752544454241e+00 
126 1 2 1.0280000909375469e+00 -9.3917183776003966e+01 1.0000000000000000e+00 1.7547709626826911e+01 1.3715000432284233e+01 6.8098408565301156e+00 
132 1 2 1.0280002300221469e+00 -1.3306243673232831e+02 1.0000000000000000e+00 1.7571186450394460e+01 1.3715272447795316e+01 6.8389150742985239e+00 
61 1 2 1.0279960301565316e+00 -9.4286868735248461e+01 1.0000000000000000e+00 1.7528401928621388e+01 1.5102879306768930e+01 7.8576076853907173e+00 
97 1 2 1.0279953257666092e+00 -8.3938682703998680e+01 1.0000000000000000e+00 1.7563728235810249e+01 1.5104338077391711e+01 7.8940215063428330e+00 
98 1 2 1.0279982760518764e+00 -9.9166531410513329e+01 1.0000000000000000e+00 1.9246526163533307e+01 1.4321818560443448e+01 6.5190507508588302e+00 
86 1 2 1.0280086310762837e+00 -8.9889607922755332e+01 1.0000000000000000e+00 1.8256638978099591e+01 1.5486180451734571e+01 6.3753653148338296e+00 
142 1 2 1.0279988861470581e+00 -1.0000794892949028e+02 1.0000000000000000e+00 1.6545507850299646e+01 1.7655956920472534e+01 7.3008207148846962e+00 
135 1 2 1.0279992377882654e+00 -7.3607610913657894e+01 1.0000000000000000e+00 1.6655028044527995e+01 1.7789611546770438e+01 7.2267548191267297e+00 
141 1 2 1.0279996720473346e+00 -1.0296805626223463e+02 1.0000000000000000e+00 1.7525773245737984e+01 1.6870246859965395e+01 7.2219625275380723e+00 
39 1 2 1.0279930649861708e+00 -5.0999839156265644e+01 1.0000000000000000e+00 1.9211467451791410e+01 1.6577470998950236e+01 7.0617376489270738e+00 
55 1 2 1.0280016015904336e+00 -9.7698510953235072e+01 1.0000000000000000e+00 1.9358837167254201e+01 1.4573242852320661e+01 8.5675719938867303e+00 
91 1 2 1.0280016430022523e+00 -1.0960795254159542e+02 1.0000000000000000e+00 1.9359587952863269e+01 1.4573206449338640e+01 8.5682449071041020e+00 
38 1 2 1.0280003374486903e+00 -9.2682006467425467e+01 1.0000000000000000e+00 1.9587426768844150e+01 1.6426337727859504e+01 8.0400523507432862e+00 
74 1 2 1.0280003374486903e+00 -9.3186061146517019e+01 1.0000000000000000e+00 1.9587426768844185e+01 1.6426337727859483e+01 8.0400523507432915e+00 
133 1 2 1.0280000183943669e+00 -1.2814973200359466e+02 1.0000000000000000e+00 1.3448491667705429e+01 1.2097420117618764e+01 1.7531150707815389e+01 
169 1 2 1.0279999113788887e+00 -1.2533031455235863e+02 1.0000000000000000e+00 1.3634897735531029e+01 1.3338915450851598e+01 1.6587790119840484e+01 
163 1 2 1.0280000973670420e+00 -4.2950766663913029e+01 1.0000000000000000e+00 1.3360361703486845e+01 1.4348648315410504e+01 1.7568608405359793e+01 
139 1 2 1.0280000974157062e+00 -1.0114755585760260e+02 1.0000000000000000e+00 1.3360322131681972e+01 1.4348657411792113e+01 1.7568534510661198e+01 
33 1 2 1.0279997879707548e+00 -9.7314503067574734e+01 1.0000000000000000e+00 1.4112453071575139e+01 1.2006498183512409e+01 1.8909511173641967e+01 
69 1 2 1.0279998064662914e+00 -9.7280974465366384e+01 1.0000000000000000e+00 1.4107188547373015e+01 1.2012740099809729e+01 1.8764433386701199e+01 
64 1 2 1.0279932984538453e+00 -1.8061024346488782e+02 1.0000000000000000e+00 1.4068432882580545e+01 1.3447708988142134e+01 1.9840619231857723e+01 
72 1 2 1.0280025198131302e+00 -1.1219432421922868e+02 1.0000000000000000e+00 1.5232900261144295e+01 1.3051614186171356e+01 1.9860896188490965e+01 
65 1 2 1.0280025203820440e+00 -1.1789944726230910e+02 1.0000000000000000e+00 1.5232874345124396e+01 1.3051669947202038e+01 1.9860908830333564e+01 
125 1 2 1.0279993951296833e+00 -8.4771842141177714e+01 1.0000000000000000e+00 1.6995434772531791e+01 1.2847393530397806e+01 1.8545804728140009e+01 
131 1 2 1.0279983029354214e+00 -8.4738039569092138e+01 1.0000000000000000e+00 1.6904546594880959e+01 1.2845749556481451e+01 1.8307032978753639e+01 
95 1 2 1.0279977754189353e+00 -1.0027638037295930e+02 1.0000000000000000e+00 1.6792701874140565e+01 1.3131982898736071e+01 1.8347449492032599e+01 

Velocities

53 3.6756939157983552e-02 -1.0700446716047283e-02 -3.2736188586602467e-02
93 3.6757266419953555e-02 -1.0700426267374394e-02 -3.2736399245743675e-02
5 4.0140101910443537e-02 -1.3106369507699856e-02 -3.3617983032742355e-02
4 4.0140101148253053e-02 -1.3106370345744791e-02 -3.3617983018752094e-02
10 4.0492154271403950e-02 -1.2656555553200813e-02 -3.3689906679193277e-02
11 4.0298994986224655e-02 -1.2314684679570392e-02 -3.3509913889920313e-02
90 3.7673465662368677e-02 -1.0632249554682774e-02 -3.2981651163788463e-02
71 3.6528988079903145e-02 -1.2049765011508017e-02 -2.8682872599566589e-02
27 3.5761992882770023e-02 -1.1682417509295719e-02 -2.9990382205499870e-02
54 3.0442689160826861e-02 -1.0063075318553893e-02 -8.7903156142037520e-03
19 3.7254312756921100e-02 -2.3755307045946920e-02 1.4455868887492037e-02
70 3.7254293968315609e-02 -2.3755366475107110e-02 1.4455869033304121e-02
45 3.6995734751458419e-02 -2.6228259779898427e-02 1.5529443141511225e-02
9 3.6995734751458419e-02 -2.6228259779898427e-02 1.5529443141511225e-02
75 3.6585653894458843e-02 -2.6356086826502759e-02 1.5773784504374680e-02
111 3.6395963027382419e-02 -2.6379276757928602e-02 1.5815146848596400e-02
170 3.7013438473625128e-02 -2.6288119172782638e-02 1.5499453665827631e-02
164 3.7013438473625065e-02 -2.6288119172784799e-02 1.5499453665829794e-02
60 3.6617500610626109e-02 -2.6307787674294737e-02 1.5890715869954625e-02
110 3.6263889826915169e-02 -2.6670364306039421e-02 1.6007626616052959e-02
178 3.3641640105138357e-02 -3.1494814528129175e-02 1.8347601703553665e-02
179 3.3668136184324474e-02 -3.1487439690708059e-02 1.8403684967817992e-02
143 3.3762729640545601e-02 -3.1383756534135436e-02 1.8600270543280905e-02
21 -1.7039697817876322e-02 -1.8600052197938338e-02 1.5172178713703882e-02
15 -1.7039690379574399e-02 -1.8599142524977283e-02 1.5171869800769195e-02
16 -1.7038922108987324e-02 -1.8599715743265070e-02 1.5171782901871135e-02
175 2.5805599988703479e-02 -9.8109878796248037e-03 -2.8594841281013226e-02
177 2.6566441696756267e-02 -8.4097470435379219e-03 -2.8437068973645997e-02
162 -5.0186652125938418e-02 5.5851586307998281e-02 4.9389888714824665e-02
138 -5.0397797220972561e-02 5.5926902771529445e-02 4.9343303459931355e-02
174 -3.9298183443758489e-02 5.6798627255312366e-02 2.8997511996497482e-02
176 2.5238205020250235e-02 -8.6964103119419479e-03 -2.8109408109431244e-02
18 3.0610216974868289e-02 -7.8576293086826572e-03 -8.8576989030796742e-03
52 3.0394892544008213e-02 -7.9200898290152678e-03 -8.6423368437081004e-03
30 -1.9166934540297567e-02 1.0219182431927749e-02 -5.3768590478479945e-05
24 -1.9166934540297914e-02 1.0219182431927726e-02 -5.3768590478315790e-05
102 -1.9353085382278055e-02 1.0932483584928496e-02 2.1754973632680599e-04
136 -1.9361088654237454e-02 1.0922478071769383e-02 2.1135801828179603e-04
43 -1.9478682934053335e-02 1.0873469281075106e-02 2.8338886647664416e-04
79 -1.9478682934039725e-02 1.0873469281020226e-02 2.8338886646446108e-04
17 -1.9435771462978729e-02 1.1009198739271394e-02 2.4771886184908783e-04
23 -1.9461745080568766e-02 1.1006439854380179e-02 2.9635169087248697e-04