LAMMPS data file via write_data, version 30 Jul 2016, timestep = 50400000

644 atoms
2 atom types

0.0000000000000000e+00 2.0000000000000000e+01 xlo xhi
0.0000000000000000e+00 2.0000000000000000e+01 ylo yhi
0.0000000000000000e+00 2.0000000000000000e+01 zlo zhi

Masses

1 6
2 3.896

Atoms # meso-molecular

476 0 1 1.0325899094122892e+00 -9.4852226442780676e+00 1.0000000000000000e+00 5.8695824312787321e+00 7.8611582900979726e-01 7.9071716380563906e-01 
313 0 1 1.0243306478304834e+00 -3.7627011533606314e+01 1.0000000000000000e+00 5.7780261623238669e+00 1.0457827031054607e+00 1.1410017114189965e+00 
628 0 1 1.0218261980550802e+00 -3.2483827665892818e+01 1.0000000000000000e+00 6.0374525602211229e+00 2.2471101724151294e+00 2.3453828463403243e+00 
65 0 1 1.0061266515305338e+00 -3.6891066078300589e+01 1.0000000000000000e+00 5.6487163498838537e+00 2.9664205144508768e+00 2.0811354992863684e+00 
140 0 1 1.0442442259367932e+00 -2.5736265306925247e+01 1.0000000000000000e+00 6.0134892440282588e+00 3.1711681071986622e+00 1.5127078746647917e+00 
471 0 1 1.0346997708132823e+00 -3.1127451018513096e+01 1.0000000000000000e+00 6.1001218343095376e+00 3.8888344042137568e+00 2.0450336274655139e+00 
475 0 1 1.0058704089663821e+00 -3.3323939505472417e+01 1.0000000000000000e+00 6.1519989637885368e+00 6.9975628966051282e+00 6.1496706442799964e-01 
522 0 1 1.0276545626254465e+00 -3.5490859560682402e+01 1.0000000000000000e+00 5.6547721725317626e+00 7.0369145461261082e+00 1.3935746405259544e+00 
548 0 1 1.0201865480562780e+00 -3.0742793224947668e+01 1.0000000000000000e+00 6.1691747893771156e+00 7.0562275002006061e+00 3.1140784018426397e+00 
123 0 1 9.9182527993276881e-01 -1.8448822384059078e+01 1.0000000000000000e+00 5.5155358748641179e+00 6.8215288432141197e+00 2.0301847264553148e+00 
121 0 1 9.9876272628538221e-01 -3.3350992818549294e+01 1.0000000000000000e+00 5.9125932337899423e+00 7.7048912405408796e+00 3.1990794311219504e+00 
289 0 1 1.0401014024384849e+00 -2.2847961599671418e+01 1.0000000000000000e+00 6.1613957579749883e+00 7.1766943953958062e+00 7.7569218274965801e-01 
557 0 1 1.0085774963053928e+00 -3.1163161124835934e+01 1.0000000000000000e+00 6.5132270448095033e+00 2.3463274539761971e+00 5.4862494767233327e+00 
177 0 1 1.0217975602899922e+00 -2.5226774004291599e+01 1.0000000000000000e+00 6.4037854514121326e+00 8.0339668291549438e-01 5.7302001558716142e+00 
397 0 1 1.0217956842742701e+00 -9.4815619056550879e+00 1.0000000000000000e+00 6.5892007288606083e+00 2.2475164628743589e+00 5.5486934737974671e+00 
502 0 1 1.0092669190105157e+00 -1.0305586736200352e+01 1.0000000000000000e+00 6.3567271867268289e+00 3.9242377164504769e+00 3.5773423610102757e+00 
456 0 1 1.0172957757940322e+00 -2.1497871655397834e+01 1.0000000000000000e+00 6.4980631690314858e+00 3.5319650742959996e+00 4.4497279246312109e+00 
197 0 1 1.0120737101393178e+00 -2.0781036825802897e+01 1.0000000000000000e+00 6.5042051991034677e+00 7.8359770972650002e+00 5.1474432626909987e+00 
416 0 1 1.0169284415010984e+00 -1.6634106668481277e+01 1.0000000000000000e+00 6.4194575117239339e+00 8.1881540744520080e+00 5.2689757409645761e+00 
242 0 1 1.0750387893940305e+00 -3.8074413910869289e+01 1.0000000000000000e+00 6.4947966968839097e+00 8.0296230873086465e+00 4.7422680442236311e+00 
621 0 1 1.0356244728343631e+00 -2.9318013593616648e+01 1.0000000000000000e+00 6.6059028442138752e+00 8.9894925667694245e+00 5.5941119961720087e+00 
524 0 1 9.8264124558330002e-01 -2.9443774258070793e+01 1.0000000000000000e+00 6.4058339778375988e+00 2.4716931959121130e-01 1.0093311949679975e+01 
171 0 1 1.0623915986360815e+00 -8.5567907921336008e+00 1.0000000000000000e+00 6.1676869372215908e+00 4.2232693386136209e+00 1.2939007208135376e+01 
136 0 1 1.0117585737683128e+00 -1.6855767412505319e+01 1.0000000000000000e+00 6.0999775189019596e+00 5.8103476251935122e+00 1.2735198448016675e+01 
42 0 1 1.0331457405405551e+00 -3.2656622437433121e+01 1.0000000000000000e+00 6.0906885019724433e+00 5.0861588463719460e+00 1.2647006286582391e+01 
129 0 1 1.0430640247553342e+00 -2.1818282953543157e+01 1.0000000000000000e+00 6.5482952639395915e+00 5.8573039007659409e+00 1.3162236926325805e+01 
563 0 1 1.0133940597312818e+00 -1.1964893930569142e+01 1.0000000000000000e+00 5.7430089554472348e+00 8.4018126902723544e+00 1.0962195874778828e+01 
536 0 1 1.0121599718051952e+00 -8.4425946005584382e+00 1.0000000000000000e+00 5.7039214776609022e+00 7.8395981313910221e+00 1.1306336954551751e+01 
354 0 1 1.0145002611774347e+00 -2.4156737279056639e+01 1.0000000000000000e+00 6.1916151514693309e+00 9.2189305153560213e+00 1.1146253743852185e+01 
637 0 1 1.0301372638183799e+00 -4.4790152796501310e+01 1.0000000000000000e+00 6.0264793630050804e+00 7.3455434277679439e+00 1.1393225015207479e+01 
288 0 1 1.0094598654495293e+00 -4.4471937889842884e+01 1.0000000000000000e+00 6.2371696393941907e+00 9.5044425965076851e+00 1.2610122694230075e+01 
629 0 1 1.0430199257402473e+00 -3.2513426090303881e+01 1.0000000000000000e+00 5.4096869837064911e+00 3.7533460793072053e+00 1.5343437273194095e+01 
338 0 1 1.0401376273129117e+00 -2.2359314792030666e+01 1.0000000000000000e+00 5.1932075166400526e+00 5.1942321864333918e+00 1.3983423691959480e+01 
324 0 1 1.0504143758786677e+00 -2.0841323313295515e+01 1.0000000000000000e+00 5.2457514893927017e+00 4.1115491132539974e+00 1.4537780389776341e+01 
276 0 1 1.0247849226022852e+00 -8.3333465977162415e+00 1.0000000000000000e+00 5.0343510452356295e+00 4.7950858123461364e+00 1.3990592937441367e+01 
532 0 1 1.0151971632406804e+00 -1.8895995963649472e+01 1.0000000000000000e+00 5.9894577308372599e+00 6.6001873980716184e+00 1.6298924716718929e+01 
229 0 1 1.0081898667441969e+00 -1.6759078680516065e+01 1.0000000000000000e+00 6.5135721277567606e+00 4.4118410514122033e+00 1.6186036760135689e+01 
12 0 1 1.0803883550407825e+00 -1.8979231625743544e+01 1.0000000000000000e+00 6.6099280559727358e+00 6.0104335221418506e+00 1.6571958934188721e+01 
147 0 1 1.0439811940620205e+00 -2.5566311929866181e+01 1.0000000000000000e+00 4.5039549935374055e+00 3.8591285829984470e+00 1.6499525930844705e+01 
556 0 1 1.0002927883491297e+00 -1.3134690215163452e+01 1.0000000000000000e+00 6.5976955976751963e+00 9.9547159176321198e+00 1.4735993226555557e+01 
152 0 1 1.0143911477342156e+00 -2.6823966347148787e+01 1.0000000000000000e+00 6.0748230234506346e+00 1.7399695388963348e+00 1.7224115752272446e+01 
178 0 1 1.0718633143263012e+00 -3.6433623199352272e-01 1.0000000000000000e+00 5.3024781041293609e+00 3.2424662468270986e+00 1.8340385081560068e+01 
8 0 1 1.0337085496089355e+00 -1.4674856360851074e+01 1.0000000000000000e+00 5.2603492314403946e+00 2.3881751874231343e+00 1.8088279597539792e+01 
184 0 1 1.0151247659720566e+00 -3.6055516875012351e+01 1.0000000000000000e+00 6.0287789980682502e+00 4.6394855587624473e-01 1.8862665994781587e+01 
356 0 1 1.0195598988680084e+00 -1.7716214176427876e+01 1.0000000000000000e+00 5.6760987406862640e+00 1.3267689701044760e+00 1.9219468003025021e+01 
413 0 1 1.0308885622382620e+00 -2.4840400711472430e+01 1.0000000000000000e+00 6.1496729536327130e+00 6.2297251341043802e-01 1.8054622834540471e+01 
60 0 1 9.9677859047451445e-01 -1.1097870594951418e+01 1.0000000000000000e+00 5.2334960571396003e+00 6.5138043412154172e+00 1.6872663235088748e+01 
498 0 1 1.0061595262740632e+00 -2.8871991107858747e+01 1.0000000000000000e+00 4.2279372333094729e+00 3.9117589414729785e+00 1.7184064140290062e+01 
13 0 1 1.0581596548421972e+00 -1.3813796092751268e+01 1.0000000000000000e+00 4.3653357572435008e+00 4.1037466736663610e+00 1.7401062852960763e+01 
11 0 1 1.0419544580132902e+00 -1.8790190202579691e+01 1.0000000000000000e+00 5.1478629151082886e+00 4.3224716041401674e+00 1.8255522090941422e+01 
404 0 1 1.0360002914608377e+00 -3.4599365458772347e+01 1.0000000000000000e+00 5.0039631793727306e+00 6.0528906778841236e+00 1.7141546343209466e+01 
508 0 1 1.0288928189593938e+00 -9.3342410939263800e+00 1.0000000000000000e+00 5.6069239205070120e+00 6.5733586028452828e+00 1.7491544157641652e+01 
219 0 1 1.0114349571948320e+00 -1.5373325285449692e+01 1.0000000000000000e+00 6.6098497627983983e+00 8.8945154976577623e+00 1.8765044104450158e+01 
392 0 1 1.0602471605632762e+00 -1.7944319859303324e+01 1.0000000000000000e+00 6.5519635203813760e+00 9.3669929109981140e+00 1.6710153693013471e+01 
487 0 1 9.9501900066628779e-01 -2.2239516044052017e+01 1.0000000000000000e+00 6.5385177348021575e+00 9.9447712321163628e+00 1.9701314008970503e+01 
530 0 1 1.0349506113108544e+00 -2.8696019328746480e+01 1.0000000000000000e+00 6.4684651876219776e+00 9.7147577365103306e+00 1.7202036167503621e+01 
195 0 1 1.0363274283292607e+00 -3.3424960922285429e+01 1.0000000000000000e+00 4.4474588773875530e+00 1.1658007334279613e+01 1.3084213123459578e+00 
335 0 1 1.0268283314478861e+00 -2.8912615848999828e+01 1.0000000000000000e+00 4.3593578378869404e+00 1.2710215134435142e+01 7.6156217480931632e-01 
339 0 1 1.0512580824797757e+00 1.7831896127005194e+01 1.0000000000000000e+00 4.7409982386251119e+00 1.1196003699394787e+01 1.3480358671071317e+00 
636 0 1 9.9170401972838451e-01 -1.6806383040835559e+01 1.0000000000000000e+00 4.4383822705627320e+00 1.3098880500990809e+01 7.0971155074313064e-01 
364 0 1 1.0385533551459090e+00 -4.3202160636240514e+01 1.0000000000000000e+00 5.0766153074969580e+00 1.0819852026994761e+01 1.3445558593733105e+00 
261 0 1 1.0203157710073611e+00 -2.2827697500074066e+01 1.0000000000000000e+00 5.3342351429081658e+00 1.1525107087137126e+01 2.0909210717989355e+00 
576 0 1 1.0219385090632040e+00 -1.9912255747214537e+01 1.0000000000000000e+00 6.5310946646282728e+00 1.0263330600496394e+01 2.1665380070872655e+00 
114 0 1 1.0014079128924964e+00 -5.4798388607172072e+01 1.0000000000000000e+00 5.2541787159239037e+00 1.4945033500155965e+01 2.7206756813759401e+00 
235 0 1 1.0479756325754161e+00 -3.1626103769633211e+01 1.0000000000000000e+00 5.5310832110173846e+00 1.5477800407733588e+01 1.3482144507512468e+00 
241 0 1 1.0148519688150208e+00 -2.0490240437647280e+01 1.0000000000000000e+00 5.5116743804538473e+00 1.6249741293083265e+01 1.3303763674035907e+00 
209 0 1 1.0257391262159299e+00 -3.4357757100703800e+01 1.0000000000000000e+00 5.6589249343349293e+00 1.6708473355860594e+01 2.1157889503250047e+00 
113 0 1 1.0295307899145583e+00 -3.5667334826111770e+01 1.0000000000000000e+00 5.9560560328567700e+00 1.9357422976219006e+01 2.8517876028810072e+00 
119 0 1 1.0574246130450009e+00 -9.7465060989655716e-01 1.0000000000000000e+00 6.4435473096160099e+00 1.7029271178262590e+01 2.1944261355976735e+00 
143 0 1 1.0407555806189128e+00 -1.2632049037480181e+01 1.0000000000000000e+00 6.3464300992448273e+00 1.6846028330589469e+01 1.2702904962718925e-01 
99 0 1 1.0376149072777048e+00 -2.7462684620328528e+01 1.0000000000000000e+00 6.1761729719573868e+00 1.9909085929324071e+01 1.8966730318449778e+00 
137 0 1 1.0050182083848154e+00 -1.6504515525616572e+01 1.0000000000000000e+00 6.2880205383651635e+00 1.1611443300938410e+01 4.4957875404902987e+00 
343 0 1 1.0460287791934293e+00 -9.8279860725556638e+00 1.0000000000000000e+00 6.1419535304325752e+00 1.3203776935435675e+01 5.1169544738229060e+00 
584 0 1 9.9538948922934301e-01 -1.6308438554585457e+01 1.0000000000000000e+00 5.9840579960292155e+00 1.0875463021089180e+01 5.7725521536067435e+00 
399 0 1 1.0297436016670471e+00 -3.7987924047309335e+01 1.0000000000000000e+00 6.2353831920838365e+00 1.1835357574445865e+01 4.8213287349502707e+00 
53 0 1 1.0420765780660517e+00 -1.5556944225508211e+01 1.0000000000000000e+00 5.3198115321773844e+00 1.5069569324885315e+01 3.4037503272626060e+00 
644 0 1 1.0602330168515892e+00 -2.5935115632137194e+01 1.0000000000000000e+00 6.3733907806087835e+00 1.4044755787945276e+01 3.4963358870031969e+00 
321 0 1 9.9585706342974334e-01 -1.2800627978408974e+01 1.0000000000000000e+00 5.4659516106298938e+00 1.5659908646256705e+01 4.8309525522128061e+00 
130 0 1 1.0492269646838992e+00 -1.9851090210449154e+01 1.0000000000000000e+00 5.3315442415272676e+00 1.5903824060282128e+01 4.3574519558200224e+00 
643 0 1 1.0390876771949333e+00 -2.8409903812081492e+01 1.0000000000000000e+00 6.2975311951501602e+00 1.3988982767371326e+01 5.4974703556703792e+00 
172 0 1 1.0184816302385520e+00 -1.1301014763013820e+01 1.0000000000000000e+00 5.1180002220882974e+00 1.8389840580936813e+01 4.1832602480959356e+00 
303 0 1 1.0308646278178255e+00 -2.8420107773378259e+01 1.0000000000000000e+00 5.1661520294563159e+00 1.8318149500691565e+01 4.6600510508753086e+00 
617 0 1 1.0203981218270139e+00 -3.7061583820579216e+01 1.0000000000000000e+00 5.3050120688608260e+00 1.6787915150836760e+01 4.7996556451671077e+00 
345 0 1 1.0173645632100372e+00 -2.9278479716268428e+01 1.0000000000000000e+00 5.5065539972750654e+00 1.9438916455107289e+01 5.0785617412979747e+00 
6 0 1 1.0142666858096492e+00 -6.8064062558059861e+00 1.0000000000000000e+00 5.5171892331926360e+00 1.9327938220782020e+01 5.1844458097453874e+00 
262 0 1 1.0083006904148382e+00 -2.7526067718554462e+01 1.0000000000000000e+00 4.4749724764491523e+00 1.2239405481922624e+01 9.1736759338485072e+00 
359 0 1 9.9944382871698390e-01 -7.2079112957859399e+00 1.0000000000000000e+00 4.7603897091482814e+00 1.1598056513726354e+01 7.9710672075848175e+00 
48 0 1 1.0350753981087086e+00 -1.2488380297581864e+01 1.0000000000000000e+00 6.1132296698804378e+00 1.0408394434978442e+01 7.4898633892056656e+00 
535 0 1 1.0072953687044788e+00 -2.7220316993240598e+01 1.0000000000000000e+00 4.9241578048473826e+00 1.0872865954790818e+01 7.7037595757274060e+00 
56 0 1 1.0246039625516483e+00 -6.2925472313669118e+01 1.0000000000000000e+00 4.6165380746066491e+00 1.2805645215983162e+01 9.7084756798474121e+00 
376 0 1 1.0296501193485199e+00 -3.5025003228705458e+01 1.0000000000000000e+00 6.1352538586513585e+00 1.2459972998182177e+01 9.1090260421341434e+00 
17 0 1 1.0257266805782128e+00 -2.0313456806159000e+01 1.0000000000000000e+00 4.9408924146607722e+00 1.0915332945235976e+01 7.9647002141357763e+00 
418 0 1 1.0049579424976232e+00 -2.2632259332883962e+01 1.0000000000000000e+00 6.2388065650622666e+00 1.0477350423982177e+01 7.7624849070762565e+00 
405 0 1 1.0132328695016819e+00 -2.2896720697264676e+01 1.0000000000000000e+00 5.9675029897342977e+00 1.7097836384655988e+01 9.3551044630350724e+00 
253 0 1 1.0441136760643490e+00 -2.8524706995389089e+00 1.0000000000000000e+00 6.6563946835007872e+00 1.9761905420708050e+01 9.7904621791797943e+00 
183 0 1 9.8278890005890851e-01 -3.1914612129298579e+01 1.0000000000000000e+00 6.1082233060242457e+00 1.8892641440558297e+01 9.3735056155997558e+00 
571 0 1 1.0630008750951365e+00 -3.6229378914859062e+01 1.0000000000000000e+00 6.3519278910262971e+00 1.8078602193673980e+01 9.4593569763441536e+00 
394 0 1 1.0383102168966638e+00 -1.0080613860102682e+01 1.0000000000000000e+00 4.5466004741783523e+00 1.2470612733124305e+01 1.2658097396415842e+01 
104 0 1 1.0434814584381695e+00 -1.3429755829426732e+01 1.0000000000000000e+00 4.7088510823154586e+00 1.1642972084321771e+01 1.3138879793210924e+01 
553 0 1 9.9542466834066101e-01 -2.0729129332550226e+01 1.0000000000000000e+00 4.4003241216085209e+00 1.1732898558634416e+01 1.0879023695870211e+01 
96 0 1 1.0188509094778111e+00 -1.6091629250280953e+01 1.0000000000000000e+00 4.4062076644693313e+00 1.1702408629935508e+01 1.1573381781463739e+01 
259 0 1 1.0304329659772311e+00 -2.2473812585962534e+01 1.0000000000000000e+00 4.2815105650981060e+00 1.1967130156081160e+01 1.1955121273938783e+01 
526 0 1 1.0170268837481617e+00 -4.0143461860479057e+01 1.0000000000000000e+00 4.7010994725975372e+00 1.3267829766308699e+01 1.0409413722268793e+01 
314 0 1 1.0423060754675095e+00 -8.9561048027484116e+00 1.0000000000000000e+00 4.4920197335906895e+00 1.5396527183112386e+01 1.1966163055956601e+01 
481 0 1 1.0173401466285514e+00 -3.4686044266720451e+01 1.0000000000000000e+00 4.4348536374803240e+00 1.5449827469876203e+01 1.1575863664938732e+01 
560 0 1 1.0281915005618094e+00 -1.6410012120265911e+01 1.0000000000000000e+00 4.8672874755700235e+00 1.6611593091304371e+01 1.0946573118885413e+01 
300 0 1 1.0511622986878686e+00 -4.4725955924387812e+01 1.0000000000000000e+00 5.3780116483987843e+00 1.6300423822105156e+01 1.2767210943808127e+01 
367 0 1 1.0075503977376938e+00 -1.2346176929034620e+01 1.0000000000000000e+00 6.0003034529410817e+00 1.4974026909850780e+01 1.0736851800305704e+01 
43 0 1 9.9886553465090067e-01 -5.7819057004767330e+01 1.0000000000000000e+00 4.8937883004154727e+00 1.6597040005406974e+01 1.2141332709152422e+01 
317 0 1 1.0236596999873997e+00 -3.8431873883418901e+00 1.0000000000000000e+00 5.7952056317776366e+00 1.5266304477299212e+01 1.0540656228980708e+01 
344 0 1 1.0136778879038326e+00 -5.2937866123563797e+00 1.0000000000000000e+00 5.6377520394014740e+00 1.7102909105170159e+01 1.0130303924758421e+01 
478 0 1 1.0247025300545354e+00 -1.6337005219493840e+01 1.0000000000000000e+00 6.0380598941555892e+00 1.2187043644148774e+01 1.3670948529354050e+01 
226 0 1 1.0176857740663980e+00 -2.4315879118702515e+01 1.0000000000000000e+00 5.5952593766627023e+00 1.1652826228248633e+01 1.4070013251593757e+01 
494 0 1 1.0433338949452176e+00 -3.2041458708413863e+01 1.0000000000000000e+00 6.0897292156054128e+00 1.0799866187089878e+01 1.3654589391459941e+01 
489 0 1 1.0359720685249205e+00 -4.9926634757335995e+00 1.0000000000000000e+00 4.4558530414832456e+00 1.3325872681555897e+01 1.5628647244068524e+01 
151 0 1 1.0296629640716144e+00 -1.8059066506847820e+01 1.0000000000000000e+00 5.7466893946781772e+00 1.5628099046157208e+01 1.3711333270659177e+01 
375 0 1 9.9681628054554738e-01 -9.2582154534768417e+00 1.0000000000000000e+00 5.1215870138349651e+00 1.5005543588554048e+01 1.4426182163549578e+01 
607 0 1 1.0402781373993280e+00 -1.5079411977024263e+01 1.0000000000000000e+00 4.4270214648842261e+00 1.4069825448934234e+01 1.5400646584402068e+01 
570 0 1 1.0401400681556694e+00 -1.3601209407565561e+01 1.0000000000000000e+00 5.3388399768968906e+00 1.4861166342730172e+01 1.4283445991608696e+01 
492 0 1 1.0346259707114458e+00 -2.0462291492689793e+01 1.0000000000000000e+00 4.6951493501086592e+00 1.3831369900939894e+01 1.4163916337471628e+01 
612 0 1 1.0318988136228266e+00 -1.5743137487348417e+01 1.0000000000000000e+00 6.6327907097537171e+00 1.8571406339692377e+01 1.6203499154971151e+01 
597 0 1 1.0131888024622471e+00 -4.2089855486143811e+01 1.0000000000000000e+00 6.4540082151585647e+00 1.9446062968758749e+01 1.5872276176570496e+01 
363 0 1 1.0196323011746253e+00 -3.0010170860510588e+01 1.0000000000000000e+00 6.5787040144002491e+00 1.9681979364536147e+01 1.5519893996408120e+01 
613 0 1 1.0220231752510114e+00 1.5373240899874423e+00 1.0000000000000000e+00 5.2716851976114718e+00 1.2244071466601147e+01 1.8888535363323065e+01 
602 0 1 1.0087387339200076e+00 -3.4071252893214087e+01 1.0000000000000000e+00 4.5886665768091595e+00 1.2871985953949679e+01 1.7244512381204974e+01 
281 0 1 1.0569228080301483e+00 -2.2323613913956436e+01 1.0000000000000000e+00 5.5382695839240634e+00 1.2227180245801984e+01 1.9118969152308079e+01 
55 0 1 1.0069741172746327e+00 -3.7891115184667306e+01 1.0000000000000000e+00 4.0422805648886957e+00 1.3359424389814675e+01 1.6936666318750238e+01 
332 0 1 1.0089437711649960e+00 -1.0806397658786940e+01 1.0000000000000000e+00 4.0196997023872187e+00 1.3434535541220686e+01 1.6716756665383098e+01 
452 0 1 1.0024700547981180e+00 -7.4108775470636079e+00 1.0000000000000000e+00 4.4474211516563571e+00 1.4052659472883164e+01 1.7945241554194695e+01 
32 0 1 9.7789230004517780e-01 -2.3270533620949578e+01 1.0000000000000000e+00 4.9286133134645844e+00 1.5843322586821808e+01 1.7744080174772144e+01 
78 0 1 1.0581656581934122e+00 -1.8419706850436707e+01 1.0000000000000000e+00 5.0376379496284773e+00 1.3794419408708521e+01 1.9388394766726002e+01 
501 0 1 1.0529048837704200e+00 -3.1929152813085345e+01 1.0000000000000000e+00 5.5728964836242874e+00 1.3910063433504163e+01 1.9979395836517764e+01 
145 0 1 1.0191026267639172e+00 -3.7173748594716458e+00 1.0000000000000000e+00 5.0863401147943392e+00 1.7662029295307519e+01 1.8828076722641608e+01 
506 0 1 1.0288120085414416e+00 -2.2548103711565847e+01 1.0000000000000000e+00 5.0684392167973682e+00 1.8140008740478439e+01 1.8365639443904062e+01 
232 0 1 1.0070948830778566e+00 -4.5637260142479050e+01 1.0000000000000000e+00 4.4967437788410001e+00 1.7562103766296659e+01 1.7549393610251755e+01 
211 0 1 1.0233190885974952e+00 -1.9107541050715845e+01 1.0000000000000000e+00 4.3698475677683728e+00 1.7335697926996410e+01 1.7869259358981399e+01 
573 0 1 1.0310591074878113e+00 -3.1259580298224257e+01 1.0000000000000000e+00 4.4916941976277194e+00 1.6784303304447551e+01 1.7802534034260933e+01 
543 0 1 1.0518622682455776e+00 -3.0671912428319366e+01 1.0000000000000000e+00 9.7983654778836140e+00 2.9404743962036264e+00 1.3075061271901083e+00 
191 0 1 1.0296520970145904e+00 -2.5503212990570322e+01 1.0000000000000000e+00 9.1145899023630790e+00 9.4287017926522854e-01 1.4388520891663297e+00 
558 0 1 1.0496409124557700e+00 -2.7699882792003226e+01 1.0000000000000000e+00 8.7366765571433600e+00 3.2093751132391359e-02 6.0493551038688664e-01 
20 0 1 1.0238417242666455e+00 2.9038448407162960e+00 1.0000000000000000e+00 9.2765448205702086e+00 1.5299525148128861e+00 2.1693415432274086e+00 
601 0 1 9.8627280065463097e-01 4.3756873089157389e-01 1.0000000000000000e+00 9.7678557261558279e+00 9.8899593900009475e-01 2.5336336729584574e+00 
217 0 1 1.0416846747558959e+00 -3.7125838999664374e+01 1.0000000000000000e+00 6.7562522958333204e+00 2.8494970913189244e-01 2.9843460933724791e-01 
334 0 1 1.0628542015190110e+00 -2.1643569855459159e+01 1.0000000000000000e+00 7.0069245378772145e+00 2.9457827726825303e+00 3.2401981731211751e+00 
569 0 1 1.0282355161150027e+00 -2.9269381622529036e+01 1.0000000000000000e+00 1.0895605253034391e+01 1.7745596568628803e+00 2.2271311973852859e+00 
578 0 1 1.0475855380715100e+00 -1.6626029461584789e+01 1.0000000000000000e+00 1.2675010083593051e+01 1.5343010090411366e+00 7.0763163073912150e-01 
247 0 1 1.0137941496433218e+00 -1.0118613908261080e+01 1.0000000000000000e+00 1.0808716437720825e+01 2.5922426169380044e+00 3.5756962352860250e-01 
393 0 1 9.9301534511421197e-01 -2.2877990137214148e+01 1.0000000000000000e+00 1.0724604574828946e+01 5.0684599284491672e-01 1.5383298771939818e-01 
564 0 1 1.0278648608794658e+00 -9.3720918593529365e+00 1.0000000000000000e+00 1.2918377085156068e+01 2.9457555954631376e+00 4.7186648758152608e-02 
308 0 1 9.7900437227431136e-01 -2.0334492440591060e+01 1.0000000000000000e+00 9.6803787758391113e+00 3.8563847037245704e+00 2.2362449754423701e+00 
35 0 1 1.0607448468271492e+00 -4.0191355627346873e+01 1.0000000000000000e+00 8.2639755908246695e+00 3.8618435455385125e+00 8.0528044497975237e-01 
87 0 1 1.0178954861610647e+00 -2.3657774853967645e+01 1.0000000000000000e+00 8.3463674438138824e+00 5.3874672689961898e+00 2.2668641528273747e+00 
296 0 1 1.0154956575726259e+00 -2.8062341021316517e+01 1.0000000000000000e+00 8.5994887719502415e+00 6.2645153899126331e+00 6.4693541923375053e-01 
112 0 1 1.0228922618430609e+00 -4.3145068347300615e+01 1.0000000000000000e+00 7.0272554221821117e+00 5.1102996678288157e+00 9.3731663494842976e-01 
246 0 1 1.0187468668938828e+00 -2.5706104510330793e+01 1.0000000000000000e+00 9.0080002853627779e+00 4.7218482008488580e+00 7.6730833092427020e-01 
627 0 1 1.0195745364050763e+00 -2.3593642309479964e+01 1.0000000000000000e+00 1.0930750542608536e+01 3.5381907301466384e+00 3.2469452129442615e+00 
514 0 1 1.0319431485756736e+00 -2.8374003687757153e+01 1.0000000000000000e+00 1.2504419837317956e+01 4.3480155366874857e+00 9.1910479804513978e-01 
630 0 1 1.0249081349436919e+00 -3.4747597486456364e+01 1.0000000000000000e+00 1.2780563626346005e+01 3.5056800358976181e+00 2.7203105724554981e+00 
408 0 1 1.0326492252524833e+00 -3.0774475910811265e+01 1.0000000000000000e+00 1.3309250960424427e+01 4.9621490849454224e+00 3.0438892251231424e+00 
625 0 1 1.0310109236608436e+00 -2.1028522517534242e+01 1.0000000000000000e+00 1.2950997730333517e+01 4.4318595409738553e+00 1.7369364379571457e+00 
353 0 1 1.0451384410621223e+00 -1.8623792774466497e+00 1.0000000000000000e+00 1.2942175639290761e+01 5.4550121125406585e+00 1.7593480238613146e+00 
432 0 1 1.0310051110318958e+00 -1.9747486149259483e+01 1.0000000000000000e+00 8.4201780950303053e+00 9.3690028134640322e+00 2.1690064384562384e+00 
260 0 1 1.0117425219720892e+00 -1.8877004103225417e+01 1.0000000000000000e+00 9.6541234541958332e+00 7.0825838176130844e+00 1.3326566358340091e+00 
162 0 1 1.0219055106149273e+00 -2.1105445323762577e+01 1.0000000000000000e+00 9.7784380498202434e+00 9.0418974855710257e+00 2.3395857383709867e-01 
566 0 1 1.0138331197237778e+00 -5.6274280647020028e+01 1.0000000000000000e+00 9.6680752485146240e+00 9.6089973476765262e+00 2.4184951931765104e+00 
72 0 1 1.0632037638650820e+00 -2.1305193341278276e+01 1.0000000000000000e+00 9.3370474786282838e+00 9.6729471438730066e+00 1.1223471392682602e+00 
186 0 1 1.0118710650533036e+00 -1.6365071097278399e+01 1.0000000000000000e+00 9.7718400173024147e+00 7.0594553793149135e+00 1.3079066406747526e+00 
623 0 1 1.0388806165644866e+00 -4.9634920694909042e+01 1.0000000000000000e+00 6.8718102896754631e+00 7.3399064908404101e+00 2.7319468889593184e+00 
371 0 1 1.0200390764915173e+00 -1.3136359045815539e+01 1.0000000000000000e+00 1.0551383646586583e+01 7.6730659879938274e+00 2.8534319892396183e+00 
555 0 1 1.0029630474692530e+00 -3.6777438692149445e+01 1.0000000000000000e+00 1.2096137167212246e+01 8.7859612219105578e+00 6.0362042159703877e-01 
320 0 1 1.0336703569296015e+00 -1.2332859972359788e+01 1.0000000000000000e+00 1.2851040479030473e+01 8.0229005946697036e+00 1.3562949232957147e-01 
190 0 1 1.0425995742700755e+00 -1.0629863862527657e+01 1.0000000000000000e+00 1.3241720662669547e+01 8.2098092395597355e+00 3.0316123107121755e+00 
160 0 1 1.0597696736784943e+00 -1.9431213906574175e+01 1.0000000000000000e+00 1.3161773121435703e+01 6.8936234200745456e+00 1.6824865064550196e+00 
528 0 1 1.0240431924054991e+00 -3.3805578097399177e+01 1.0000000000000000e+00 1.3294310309288988e+01 9.4945656442707627e+00 1.8200967208239196e+00 
295 0 1 1.0645790817790288e+00 -3.0023957374516492e+01 1.0000000000000000e+00 9.7765211182492102e+00 2.5912804379329324e+00 3.7744770081610528e+00 
201 0 1 1.0119410671319229e+00 -8.5292466628919428e+00 1.0000000000000000e+00 9.8429687529858594e+00 2.0153622500293533e-01 5.4701063233562293e+00 
386 0 1 1.0359210232840104e+00 -1.0201007953990665e+01 1.0000000000000000e+00 7.9649116574632135e+00 2.8620868519287463e+00 6.6138874210300536e+00 
624 0 1 1.0530935156248309e+00 -3.0696988143334107e+01 1.0000000000000000e+00 9.5879421854462379e+00 3.2455017196782805e+00 5.4590848548236650e+00 
430 0 1 9.8286304103206867e-01 -2.1954418767529976e+01 1.0000000000000000e+00 8.9994833638032752e+00 1.0682887719011952e-01 4.7533189724104430e+00 
361 0 1 1.0691424528622726e+00 -2.7298115457542438e+00 1.0000000000000000e+00 8.9746592345878717e+00 3.1371538124561373e-02 5.2141447720845058e+00 
433 0 1 1.0367720497426269e+00 -2.4805174429439912e+01 1.0000000000000000e+00 6.7532519501817401e+00 5.4381313962764766e-01 4.9477717798133458e+00 
374 0 1 1.0288715756249696e+00 -3.1855322651223549e+01 1.0000000000000000e+00 1.0097946798195723e+01 2.0966650853684916e+00 5.3343542285955099e+00 
1 0 1 9.8319561099205954e-01 -4.6030459485107095e+01 1.0000000000000000e+00 1.2398022152051949e+01 2.3995280078385774e+00 4.1779762082833969e+00 
372 0 1 1.0412825989259396e+00 -9.2404963582948625e+00 1.0000000000000000e+00 1.0838256749327249e+01 2.4254022146896048e+00 5.5219911958862173e+00 
278 0 1 1.0300942757787672e+00 -1.4105830377182436e+01 1.0000000000000000e+00 1.3099462747046191e+01 1.5818978361055511e+00 5.8872925903956768e+00 
31 0 1 1.0185050186276323e+00 -9.5142521271300176e+00 1.0000000000000000e+00 1.0913163567976227e+01 1.3909732857512196e+00 3.9307400819098364e+00 
139 0 1 1.0406224612396477e+00 -3.7606382132196622e+01 1.0000000000000000e+00 1.3305665274175484e+01 6.6149503055109693e-01 4.4172145122651685e+00 
357 0 1 1.0332153626495755e+00 -2.4244481711197910e+01 1.0000000000000000e+00 9.0532700451910824e+00 5.7486640985235136e+00 3.5033721485626446e+00 
610 0 1 1.0506050398632418e+00 -4.4288008531639214e+01 1.0000000000000000e+00 7.2967576690461451e+00 3.5808642018270356e+00 5.3162716799274916e+00 
330 0 1 1.0426511807395147e+00 -2.8504550689982544e+01 1.0000000000000000e+00 8.4709169771351522e+00 4.8212434269281967e+00 4.8078216835402170e+00 
348 0 1 1.0063412187419265e+00 -1.4155097290094460e+01 1.0000000000000000e+00 9.9032391866381762e+00 5.7439842264303689e+00 4.9512709208624361e+00 
315 0 1 1.0490892012200850e+00 -4.1867946334626296e+01 1.0000000000000000e+00 8.2414081512461976e+00 4.5361461520874231e+00 3.4320828199979192e+00 
75 0 1 1.0351806118147517e+00 -5.4492548705243342e+00 1.0000000000000000e+00 9.0058952013727733e+00 5.3731788894210002e+00 6.6167142455585060e+00 
328 0 1 1.0073187779226864e+00 -1.3789839376154820e+01 1.0000000000000000e+00 1.2688179327984111e+01 3.8142736199381528e+00 6.2488537605881520e+00 
98 0 1 1.0440260178846597e+00 -2.9613046242337361e+01 1.0000000000000000e+00 1.2443713835121068e+01 3.9414444590593103e+00 3.6798549151021405e+00 
575 0 1 1.0146058810395144e+00 -5.5118383765464278e+00 1.0000000000000000e+00 1.2660378095981651e+01 3.8151118922635492e+00 6.2432255102154937e+00 
319 0 1 1.0134093075107184e+00 -8.1569325755089537e+00 1.0000000000000000e+00 1.0110318192452905e+01 5.1615267197251908e+00 4.5730346138281961e+00 
124 0 1 1.0178249350736557e+00 -1.6143226316826102e+01 1.0000000000000000e+00 1.2950590655439328e+01 5.0815894372652384e+00 4.5673744370913987e+00 
286 0 1 1.0385798172606602e+00 -1.7618054718593555e+01 1.0000000000000000e+00 1.1885043171744217e+01 6.1571939671642966e+00 4.0009637829153988e+00 
101 0 1 1.0270782427112115e+00 -1.8418086083744168e+01 1.0000000000000000e+00 1.3083796392753912e+01 6.3165892162276718e+00 5.1530405816021032e+00 