LAMMPS data file via write_data, version 30 Jul 2016, timestep = 50000000

644 atoms
2 atom types

0.0000000000000000e+00 2.0000000000000000e+01 xlo xhi
0.0000000000000000e+00 2.0000000000000000e+01 ylo yhi
0.0000000000000000e+00 2.0000000000000000e+01 zlo zhi

Masses

1 6
2 3.896

Atoms # meso-molecular

312 0 1 1.0001089527125477e+00 -2.0300884848201900e+01 1.0000000000000000e+00 5.3951494088767484e+00 7.9895387907067253e-02 1.8326426662396453e+00 
53 0 1 1.0727221256494344e+00 -1.5091264528338149e+01 1.0000000000000000e+00 5.6040283593607212e+00 4.4290022212380105e-02 1.0337870592016973e+00 
8 0 1 1.0399451067522139e+00 -1.4515794261839238e+01 1.0000000000000000e+00 6.3696479247326279e+00 3.2245393242187848e+00 1.5921633087799925e+00 
356 0 1 1.0213265299010326e+00 -1.8276339671349746e+01 1.0000000000000000e+00 6.2108447963961746e+00 2.9282089872628005e+00 2.5923870626240975e+00 
612 0 1 9.9822899919847075e-01 -1.5344116635701623e+01 1.0000000000000000e+00 5.9581929675382872e+00 6.0503533746281644e+00 1.4986812791218016e+00 
219 0 1 1.0279654636300903e+00 -1.4883255292958623e+01 1.0000000000000000e+00 6.1649007257969943e+00 4.3836231745073757e+00 1.2212291247060325e+00 
628 0 1 1.0261497449167591e+00 -3.2567910701414888e+01 1.0000000000000000e+00 4.7526808760521346e+00 4.2907687331389903e+00 2.7861223536884094e+00 
576 0 1 1.0585055110468520e+00 -1.9224098789482774e+01 1.0000000000000000e+00 4.2487534669030254e+00 6.3639122267207080e+00 5.2559657197243503e-01 
502 0 1 1.0477675419211199e+00 -9.8777162212235741e+00 1.0000000000000000e+00 4.7529380059550785e+00 4.3876410001869370e+00 2.9453886079251697e+00 
140 0 1 1.0248416743332738e+00 -2.5642744574115817e+01 1.0000000000000000e+00 5.1000408769752950e+00 5.3186826771505791e+00 2.9924964866066137e+00 
195 0 1 1.0236257418024302e+00 -3.4050745460229116e+01 1.0000000000000000e+00 3.9593592865387723e+00 7.3235790424688414e+00 3.0781359263494279e-01 
625 0 1 9.9528508292192230e-01 -1.9626351837262039e+01 1.0000000000000000e+00 6.0103358458466394e+00 8.7757181674642535e+00 6.7733755024087683e-01 
598 0 1 1.0030680003658945e+00 -2.1821697977725364e+01 1.0000000000000000e+00 5.8835269169970950e+00 8.1131292043692458e+00 1.4152234258515151e-01 
600 0 1 1.0147073663464417e+00 -1.0168505903257172e+01 1.0000000000000000e+00 5.5992613381027132e+00 8.1289076590611646e+00 1.0821061560615586e+00 
170 0 1 1.0502964528944996e+00 -3.2639136158865618e+01 1.0000000000000000e+00 3.9497840298528946e+00 7.0115418057958658e+00 1.6654458221635784e-01 
335 0 1 1.0284061628161949e+00 -2.9922549723118706e+01 1.0000000000000000e+00 3.9444705910242184e+00 7.2587316105053716e+00 2.8913893068848595e-01 
476 0 1 1.0353332592726421e+00 -8.0662185586239801e+00 1.0000000000000000e+00 5.9042275642076527e+00 6.6898027063355003e-01 5.9523400557402484e+00 
541 0 1 1.0442236587811786e+00 -1.6955941495245117e+01 1.0000000000000000e+00 6.0650852812469935e+00 7.0604962430555740e-01 3.6464027226670748e+00 
294 0 1 9.8819794391757076e-01 -1.4773745807892602e+01 1.0000000000000000e+00 4.9211108906412573e+00 2.4033968855634029e+00 4.4901583943258840e+00 
402 0 1 1.0265760297257187e+00 -1.9012193551996873e+01 1.0000000000000000e+00 5.9336454407883039e+00 8.2783962875091521e-01 3.5084134672908993e+00 
571 0 1 1.0037743326730271e+00 -3.6286650893585403e+01 1.0000000000000000e+00 3.6319164839586344e+00 9.3653681346458317e-01 5.6368941208484467e+00 
132 0 1 1.0282460083950646e+00 -2.1497988826967305e+01 1.0000000000000000e+00 4.3052250660627021e+00 1.1116401833802179e+00 6.2210212709778219e+00 
246 0 1 1.0219490654369074e+00 -2.6718227930556079e+01 1.0000000000000000e+00 4.3766292421889288e+00 1.7932430231789295e-01 4.4680007346445727e+00 
330 0 1 1.0090133706882958e+00 -3.0853896408853259e+01 1.0000000000000000e+00 5.6401253012018904e+00 2.5876258329238189e+00 4.2797649616691276e+00 
92 0 1 1.0042843001280146e+00 -4.3509267546750614e+01 1.0000000000000000e+00 4.6941354058164135e+00 1.9602337046829454e+00 5.6268361092102790e+00 
610 0 1 1.0379978552429263e+00 -4.4695575397683861e+01 1.0000000000000000e+00 3.6812936817251014e+00 7.6410007608448960e-01 5.4138558387005471e+00 
522 0 1 1.0290119050109932e+00 -3.6092338517915302e+01 1.0000000000000000e+00 5.1464177302604099e+00 5.1659417016515503e+00 3.7461008026780060e+00 
447 0 1 1.0323628014654020e+00 -3.1166480702731146e+01 1.0000000000000000e+00 6.0171487850109227e+00 5.1132550262307586e+00 4.4317085385514332e+00 
158 0 1 1.0560703778643379e+00 -1.8190311657543411e+01 1.0000000000000000e+00 5.8915719301889355e+00 4.3342632085557735e+00 4.6503120593995364e+00 
319 0 1 1.0119093380005022e+00 -9.0708030173734038e+00 1.0000000000000000e+00 6.6563346021868890e+00 2.1525100747753065e-01 9.9462629491904408e+00 
9 0 1 1.0303066958409191e+00 -3.6367734148451073e-03 1.0000000000000000e+00 6.5016502689685440e+00 1.1611730734881438e+00 1.1025264048609470e+01 
227 0 1 1.0131908450120859e+00 -9.8994223903982039e+00 1.0000000000000000e+00 6.6192629930062568e+00 1.6529204117569758e+00 1.0431731543350017e+01 
427 0 1 1.0316741784989172e+00 -2.8136706705193063e+01 1.0000000000000000e+00 6.5539103375829182e+00 7.7943855248070223e-02 1.1734412267906666e+01 
637 0 1 1.0500416903503647e+00 -4.4213912308721497e+01 1.0000000000000000e+00 5.3119208396632649e+00 8.5061738509190601e+00 1.3137887577979242e+01 
288 0 1 1.0340595830263513e+00 -4.4296212219576240e+01 1.0000000000000000e+00 5.2590122319559374e+00 7.9900198739802644e+00 1.2370946838779906e+01 
535 0 1 1.0129637514626564e+00 -2.6345963556220941e+01 1.0000000000000000e+00 6.4593077492774098e+00 7.5894878616074628e+00 1.1015628102669872e+01 
487 0 1 1.0252303217934973e+00 -2.2732919265756060e+01 1.0000000000000000e+00 5.3577202649717002e+00 9.0712071776008365e+00 1.1435675943720510e+01 
462 0 1 1.0305355285496816e+00 -3.2992975397438585e+01 1.0000000000000000e+00 5.2948395666209942e+00 7.8768107048251528e+00 1.2598790112681622e+01 
42 0 1 9.8886290840201918e-01 -3.2753637730665488e+01 1.0000000000000000e+00 6.2969756779252846e+00 8.1924956396194073e+00 1.0258910708443244e+01 
263 0 1 1.0125173028879448e+00 -2.2694648079193211e+01 1.0000000000000000e+00 5.7337742312237765e+00 1.6139131234152149e+00 1.5297585089663048e+01 
152 0 1 9.6983356050658009e-01 -2.6836526553125331e+01 1.0000000000000000e+00 5.4932405847281194e+00 2.7277830830127230e+00 1.4277631202543908e+01 
86 0 1 1.0252650191215573e+00 -2.8521569231631204e+01 1.0000000000000000e+00 6.1578417937529508e+00 3.0388383963115717e+00 1.3836851200772472e+01 
131 0 1 1.0286061045470007e+00 -7.9091024213423333e+00 1.0000000000000000e+00 5.3049265292833523e+00 3.4388060387354118e+00 1.5667698845262633e+01 
171 0 1 1.0307325572020825e+00 -8.8082802538626677e+00 1.0000000000000000e+00 5.1460946633778351e+00 3.5692338201571627e+00 1.5090270826456454e+01 
324 0 1 1.0229894448357393e+00 -2.1519917266287841e+01 1.0000000000000000e+00 6.3022575212811676e+00 6.2711842096916959e+00 1.3596113174858536e+01 
229 0 1 1.0357836267853997e+00 -1.6745151092265228e+01 1.0000000000000000e+00 5.7019756942205486e+00 5.3246444530215005e+00 1.4841502648385610e+01 
65 0 1 1.0489778018993454e+00 -3.5762493781601044e+01 1.0000000000000000e+00 4.9354603830712724e+00 5.2342896525861553e+00 1.5665789768551168e+01 
138 0 1 1.0268817737437355e+00 -3.5090252561754887e+01 1.0000000000000000e+00 6.3329204737457836e+00 5.4158561946965138e+00 1.4445152980201920e+01 
147 0 1 1.0407337108974777e+00 -2.4792225064898417e+01 1.0000000000000000e+00 6.1291188738064921e+00 8.2275926422317216e+00 1.4075214312451569e+01 
515 0 1 1.0168013202843755e+00 -2.9800481513105769e+01 1.0000000000000000e+00 6.2545733219447319e+00 8.7752308013273144e+00 1.4850319189916593e+01 
100 0 1 1.0357519728019489e+00 -1.7775148206807852e+01 1.0000000000000000e+00 5.4826410955082618e+00 1.0763036349902793e+00 1.6702421413055585e+01 
550 0 1 1.0555046820370622e+00 -3.3759872908984860e+01 1.0000000000000000e+00 5.2412645480446169e+00 2.1962005364836018e-01 1.7028640704386568e+01 
458 0 1 1.0378563628347159e+00 -3.6622546266462219e+00 1.0000000000000000e+00 6.3392520460839394e+00 1.5449012499733024e+00 1.8275465650268732e+01 
217 0 1 1.0330236871434040e+00 -3.7695459688196131e+01 1.0000000000000000e+00 6.0962837093686453e+00 1.2920677069860167e+00 1.8183141325729483e+01 
543 0 1 9.5478805987073223e-01 -3.0821389829290293e+01 1.0000000000000000e+00 6.3948593750585285e+00 2.6261800373407409e+00 1.7933647797800205e+01 
380 0 1 1.0360848605025805e+00 -2.0051786452644730e+01 1.0000000000000000e+00 6.3088425474190055e+00 4.6897774337613303e+00 1.8208908543280049e+01 
530 0 1 1.0243891303433250e+00 -2.8152630152744507e+01 1.0000000000000000e+00 4.4879105733667970e+00 5.9248073806143218e+00 1.9489689952467547e+01 
264 0 1 1.0360856628051676e+00 -3.0123322209961536e+01 1.0000000000000000e+00 4.9276862312479865e+00 5.7881128039935605e+00 1.6998173672228177e+01 
448 0 1 1.0451870635391924e+00 -5.6866478773686522e+00 1.0000000000000000e+00 4.6631797561431796e+00 4.5806998770741005e+00 1.6725791877360091e+01 
501 0 1 1.0303510247645211e+00 -3.0794122445257447e+01 1.0000000000000000e+00 5.1713340336145981e+00 4.8796259076495669e+00 1.8396204203555389e+01 
363 0 1 1.0364079663654926e+00 -2.8368446974465826e+01 1.0000000000000000e+00 4.8549060404777080e+00 5.2955464174589046e+00 1.8397048467588405e+01 
404 0 1 1.0598933874309713e+00 -3.4248820790529294e+01 1.0000000000000000e+00 5.0890685612340194e+00 5.7704375183032575e+00 1.6845180094302631e+01 
468 0 1 1.0183652822583533e+00 -2.3753805519337405e+01 1.0000000000000000e+00 6.1458399482226467e+00 1.2101044475156611e+01 2.7506622840262129e-01 
55 0 1 1.0300776112971870e+00 -3.8399027760843950e+01 1.0000000000000000e+00 5.1397824069810989e+00 1.4718613128763900e+01 6.0192207577129386e-01 
145 0 1 9.9532256058413759e-01 -4.0275832300378953e+00 1.0000000000000000e+00 5.2770195945069807e+00 1.5121451774486729e+01 7.5881713568530795e-01 
566 0 1 9.8770878922139949e-01 -5.5166449477837368e+01 1.0000000000000000e+00 5.6121779162408929e+00 1.5458963891098877e+01 8.9696924243099241e-01 
605 0 1 1.0129353209225727e+00 -2.7777896889145538e+01 1.0000000000000000e+00 5.1716362853004565e+00 1.4368660185105780e+01 8.9105672175794470e-01 
114 0 1 1.0212141836862392e+00 -5.5209934578668985e+01 1.0000000000000000e+00 6.5097115611035807e+00 1.8321533906792833e+01 1.7542215084107429e+00 
321 0 1 1.0132139551077328e+00 -1.3627450584851049e+01 1.0000000000000000e+00 5.2555703605865993e+00 1.9881862842742795e+01 7.3797367461225016e-01 
345 0 1 1.0332220639966867e+00 -2.8852160074608211e+01 1.0000000000000000e+00 5.1979804005391399e+00 1.9405373706989469e+01 1.2422277188206392e+00 
172 0 1 1.0308376375037471e+00 -1.1496515241630933e+01 1.0000000000000000e+00 5.5580298742595682e+00 1.8032825185867505e+01 2.6064358825829903e-01 
197 0 1 9.5429775095672065e-01 -2.0821523370456443e+01 1.0000000000000000e+00 5.7064884939600145e+00 1.1364819792593273e+01 4.7142931452376322e+00 
537 0 1 1.0089549689853479e+00 -2.0121405864534314e+01 1.0000000000000000e+00 5.9922589362207050e+00 1.1616013307847366e+01 4.2543796509937790e+00 
183 0 1 1.0571038308008347e+00 -3.1983072243545116e+01 1.0000000000000000e+00 5.2784737554086467e+00 1.2745620096893953e+01 5.5640776181652241e+00 
24 0 1 1.0515129245761503e+00 -9.5901940325708317e+00 1.0000000000000000e+00 5.6426995428175051e+00 1.2676725815501136e+01 6.4892035892387563e+00 
359 0 1 1.0243796583867955e+00 -7.0988819698866612e+00 1.0000000000000000e+00 5.7591057498426563e+00 1.4034720866054007e+01 5.2878888835305009e+00 
577 0 1 9.9028400305430297e-01 -1.7693761766279607e+01 1.0000000000000000e+00 5.5216405058643288e+00 1.4000532149661057e+01 5.5211468665388495e+00 
130 0 1 9.9055121962851023e-01 -1.9691439076799337e+01 1.0000000000000000e+00 6.3986424934299091e+00 1.6246811001899399e+01 5.6244957447763326e+00 
46 0 1 1.0353523653897243e+00 -1.8799752128839195e+01 1.0000000000000000e+00 6.4355578518084391e+00 1.8904421588980309e+01 4.2990572070099553e+00 
119 0 1 1.0160641374354584e+00 -1.4324840752824901e+00 1.0000000000000000e+00 4.2939717107555637e+00 1.9450298669044418e+01 5.5706258865336702e+00 
524 0 1 1.0367290308652650e+00 -2.8650997928797711e+01 1.0000000000000000e+00 5.7865712758148442e+00 1.7949004138659745e+01 5.6494846623202353e+00 
36 0 1 9.7367478327062917e-01 -2.5440165230183474e+01 1.0000000000000000e+00 5.0684498915488359e+00 1.9007260284876171e+01 6.5989101807303454e+00 
623 0 1 1.0204809911346544e+00 -5.0228806565649762e+01 1.0000000000000000e+00 5.8505675643043880e+00 1.2789027058883619e+01 6.8131017249658816e+00 
137 0 1 9.9174931650222620e-01 -1.8666030424344232e+01 1.0000000000000000e+00 6.1398315296829393e+00 1.4940358574779776e+01 8.6323037700870540e+00 
344 0 1 1.0062231819328975e+00 -7.0647739035105648e+00 1.0000000000000000e+00 5.0855840203806641e+00 1.6043084537344974e+01 9.5749916046128032e+00 
609 0 1 1.0496447528432513e+00 -6.5270360245651119e+01 1.0000000000000000e+00 6.1881963250676257e+00 1.6226661258908194e+01 7.5527732320163290e+00 
553 0 1 1.0345606594576884e+00 -2.0236745862268481e+01 1.0000000000000000e+00 5.4294370572126605e+00 1.5782222332057451e+01 9.2169793158357756e+00 
469 0 1 1.0542136450706330e+00 -2.5067451123650237e+01 1.0000000000000000e+00 6.6038298810151197e+00 1.4075045059430234e+01 7.2303121466521505e+00 
542 0 1 1.0557390020579303e+00 -1.1084924878881759e+01 1.0000000000000000e+00 5.6740767546836057e+00 1.8742300163909665e+01 6.6831901944635987e+00 
177 0 1 1.0094974210307828e+00 -2.5591958170203029e+01 1.0000000000000000e+00 5.8460703632891269e+00 1.7633165343789415e+01 7.3456011095475882e+00 
150 0 1 1.0489324086922232e+00 -1.8346080795938239e+01 1.0000000000000000e+00 5.5491348055818426e+00 1.0726383258206033e+01 1.3199457244285187e+01 
375 0 1 1.0254200601752719e+00 -9.9733948253843465e+00 1.0000000000000000e+00 6.1790675810821512e+00 1.0679718651665722e+01 1.1511353100098377e+01 
47 0 1 1.0300505215512543e+00 -1.9226586829224591e+01 1.0000000000000000e+00 5.7690853721756019e+00 1.0594345148756243e+01 1.1773958313393852e+01 
403 0 1 1.0288449558921695e+00 -2.3671412041232969e+01 1.0000000000000000e+00 6.2279214253741735e+00 1.2719131415810146e+01 1.2471176654899653e+01 
500 0 1 1.0390777597659426e+00 -2.1826036130320709e+01 1.0000000000000000e+00 4.8198989908587038e+00 1.3297564114384633e+01 1.3078516317695950e+01 
115 0 1 1.0599283009242335e+00 -8.5965982840712272e+00 1.0000000000000000e+00 6.5913471550536933e+00 1.0009349722592395e+01 1.1566934077465989e+01 
338 0 1 1.0024852297058100e+00 -2.0815022426070442e+01 1.0000000000000000e+00 5.7348758039260721e+00 1.5724913643151222e+01 1.2377753389224901e+01 
536 0 1 1.0306355635084850e+00 -9.0033273721017437e+00 1.0000000000000000e+00 4.6505540152391207e+00 1.6153265696584690e+01 1.1369092277709205e+01 
534 0 1 1.0262839438957676e+00 -2.5972483291420499e+01 1.0000000000000000e+00 4.3980441297040658e+00 1.5343296939426429e+01 1.1236685484380047e+01 
434 0 1 1.0047752937629864e+00 -3.4427899949760949e+01 1.0000000000000000e+00 4.7771577605738402e+00 1.4464188646443834e+01 1.3230792076862112e+01 
268 0 1 1.0371621184580917e+00 -2.0928125984505247e+01 1.0000000000000000e+00 4.8243434416909396e+00 1.5085726631746715e+01 1.0423323234407505e+01 
563 0 1 1.0407328502793949e+00 -1.2980920093060861e+01 1.0000000000000000e+00 4.5490561163103145e+00 1.5132714220554725e+01 1.1635844746125608e+01 
570 0 1 1.0147429780901334e+00 -1.3102569850629775e+01 1.0000000000000000e+00 6.4314636984787166e+00 1.3404786018570560e+01 1.2852155000574855e+01 
281 0 1 1.0526732428424130e+00 -2.2574761423121313e+01 1.0000000000000000e+00 6.6483770134291662e+00 1.7944702802286958e+01 1.2769529462285876e+01 
418 0 1 1.0122594235792584e+00 -2.2854536966993791e+01 1.0000000000000000e+00 6.2147205596234727e+00 1.8666669312102410e+01 1.2483902110246611e+01 
355 0 1 1.0597464095853575e+00 -3.0355066823079621e+01 1.0000000000000000e+00 5.4916626372632580e+00 1.1428358749102612e+01 1.3396078715133887e+01 
241 0 1 1.0523888437382296e+00 -2.0647708151610271e+01 1.0000000000000000e+00 5.1489150065394291e+00 1.2180055263605210e+01 1.5983278136165760e+01 
32 0 1 1.0006144862473774e+00 -2.2932771423153039e+01 1.0000000000000000e+00 5.8531595218699257e+00 1.0353913397525444e+01 1.5579471450642869e+01 
332 0 1 1.0549221821653041e+00 -1.0729763353067360e+01 1.0000000000000000e+00 4.9290885452682787e+00 1.1922037914417484e+01 1.4531561514758199e+01 
226 0 1 1.0338698656717014e+00 -2.3847052797754504e+01 1.0000000000000000e+00 4.5825796356293669e+00 1.3145512207836548e+01 1.5965404502983546e+01 
120 0 1 1.0350494631465679e+00 -2.8790648869956410e+01 1.0000000000000000e+00 4.3322090095971619e+00 1.3640689093744133e+01 1.5115221383689317e+01 
636 0 1 1.0010746010842406e+00 -1.7949235919507725e+01 1.0000000000000000e+00 5.1147825800796296e+00 1.4357143312971992e+01 1.4358035619771748e+01 
176 0 1 1.0352206440396252e+00 -1.9103009256364253e+01 1.0000000000000000e+00 4.2189763604700836e+00 1.3431681638100899e+01 1.4473918691388130e+01 
560 0 1 1.0273039680154323e+00 -1.6935854967067737e+01 1.0000000000000000e+00 6.1098695136850969e+00 1.5834121505257833e+01 1.6136098924543067e+01 
93 0 1 1.0328913465010456e+00 -4.4493464195802872e+01 1.0000000000000000e+00 6.1808004117503232e+00 1.7635371485915453e+01 1.5288970774904465e+01 
592 0 1 1.0045182669093315e+00 3.3427007863882015e+00 1.0000000000000000e+00 5.2643481128767968e+00 1.9496690841527368e+01 1.5361145821919347e+01 
525 0 1 1.0291074885799292e+00 -2.8395155093143774e+01 1.0000000000000000e+00 4.9163020687454022e+00 1.9155964468631424e+01 1.5919610630787240e+01 
376 0 1 1.0040696532246352e+00 -3.4334520847716654e+01 1.0000000000000000e+00 6.3160159300043448e+00 1.7774021573055052e+01 1.3436649312671991e+01 
597 0 1 1.0196656423742720e+00 -4.4075250565677436e+01 1.0000000000000000e+00 5.4445660543568648e+00 1.7994583377592036e+01 1.5225640800973144e+01 
305 0 1 1.0578747915293218e+00 -2.6410040188576094e+01 1.0000000000000000e+00 6.3876838553832620e+00 1.9372497825424443e+01 1.4311345086345890e+01 
25 0 1 1.0358693497254479e+00 -2.1749823781496968e+01 1.0000000000000000e+00 4.8441326870408918e+00 1.7682567452165429e+01 1.6589906503104668e+01 
289 0 1 1.0246657149716087e+00 -2.4976244228593423e+01 1.0000000000000000e+00 5.7877060081725000e+00 1.2108649032979148e+01 1.9266020133058650e+01 
618 0 1 1.0371229995597604e+00 -2.3305317609710350e+01 1.0000000000000000e+00 5.6137918472674242e+00 1.2768193430162892e+01 1.6762269993596558e+01 
405 0 1 1.0198242277447229e+00 -2.6032762928220635e+01 1.0000000000000000e+00 6.4469868418165719e+00 1.0542495724162734e+01 1.9466994434120938e+01 
478 0 1 1.0118882333145667e+00 -1.6077136030109205e+01 1.0000000000000000e+00 6.3592140920752467e+00 1.0782014063588118e+01 1.6868289484167562e+01 
616 0 1 1.0522643383456940e+00 -2.2551977282396354e+01 1.0000000000000000e+00 5.7206537278592053e+00 1.2585346606649514e+01 1.9838468258117842e+01 
539 0 1 1.0228830150179151e+00 -2.4513630976316385e+01 1.0000000000000000e+00 6.5976725251168338e+00 1.5426303267757277e+01 1.6853898847744517e+01 
113 0 1 1.0434518764632557e+00 -3.5467295082468198e+01 1.0000000000000000e+00 5.3146065134316824e+00 1.3664856036786986e+01 1.9312496420473217e+01 
259 0 1 1.0541400467356570e+00 -2.3120257670969941e+01 1.0000000000000000e+00 5.5225605778095144e+00 1.3948353504550619e+01 1.7298020390891640e+01 
489 0 1 9.9061389572404512e-01 -3.7260731297623058e+00 1.0000000000000000e+00 5.3371718325720732e+00 1.4745114236184161e+01 1.8212267606333899e+01 
211 0 1 1.0593626037282724e+00 -1.9193157329546398e+01 1.0000000000000000e+00 5.1931968251476954e+00 1.5494819788082937e+01 1.7384776154760367e+01 
10 0 1 1.0288115155625097e+00 -3.1270313771065986e+01 1.0000000000000000e+00 4.9735256012992934e+00 1.6171826504225251e+01 1.6861653569077649e+01 
43 0 1 1.0215476458392119e+00 -5.9155555725899262e+01 1.0000000000000000e+00 6.5227989918678881e+00 1.7857053652701982e+01 1.9509067466979769e+01 
234 0 1 1.0313661364452009e+00 -4.7684557512990153e+00 1.0000000000000000e+00 5.2079415270483445e+00 1.8416443587525357e+01 1.7882294086087249e+01 
433 0 1 9.9645566060666813e-01 -2.4763703721028744e+01 1.0000000000000000e+00 5.9194035782820436e+00 1.6847995136003412e+01 1.8978477822119697e+01 
492 0 1 1.0169034956135206e+00 -2.0349797399987423e+01 1.0000000000000000e+00 4.9803024613089111e+00 1.7322199924385618e+01 1.7952279492317569e+01 
506 0 1 1.0314470213906686e+00 -2.2346543447192317e+01 1.0000000000000000e+00 5.3273405353883367e+00 1.8513706870000203e+01 1.9499014279978510e+01 
194 0 1 1.0312138243399298e+00 -1.9211855649001337e+00 1.0000000000000000e+00 5.4286503731016733e+00 1.9909222338201147e+01 1.7606377783984868e+01 
547 0 1 1.0376783719472278e+00 -2.9730499976866067e+01 1.0000000000000000e+00 9.1369029848954639e+00 3.2796250404541083e+00 1.1776806147034589e+00 
456 0 1 1.0521837716429445e+00 -2.0295339089115512e+01 1.0000000000000000e+00 7.3530953942547983e+00 1.7989086400482062e+00 8.0911250836314608e-01 
184 0 1 1.0341557480364365e+00 -3.5633101426749057e+01 1.0000000000000000e+00 7.2539611841987686e+00 2.2027990122561327e+00 1.4917308528047635e+00 
386 0 1 1.0277025368687562e+00 -1.1170865822817802e+01 1.0000000000000000e+00 8.8226590394222288e+00 2.6574060246730205e+00 2.7948997496805652e+00 
238 0 1 1.0266037141879247e+00 -1.6981524866061250e+01 1.0000000000000000e+00 7.8675857221492587e+00 5.1835148960828226e-01 9.8674050192530491e-02 
271 0 1 1.0468654125822430e+00 -1.6833020455392312e+01 1.0000000000000000e+00 8.8564596664733504e+00 2.5882380188841309e-01 8.9728369022556864e-01 
296 0 1 1.0103272873068407e+00 -2.8030822028589931e+01 1.0000000000000000e+00 9.3649180658308229e+00 1.4037874877984222e+00 3.1037324039444689e+00 
622 0 1 1.0245238405643267e+00 -1.1985852516380861e+01 1.0000000000000000e+00 1.0301806241172912e+01 5.2997174856932439e-01 1.1988092929037470e+00 
1 0 1 1.0621187127051552e+00 -4.6320569242731800e+01 1.0000000000000000e+00 1.3080872128340278e+01 3.4771055498023656e-01 5.9883427651764609e-01 
202 0 1 1.0094280379739304e+00 -3.1210321364319110e+01 1.0000000000000000e+00 1.0824060758449397e+01 3.1616570271861382e+00 2.7409773561665065e+00 
485 0 1 1.0625985301679615e+00 -3.6952059764186110e+01 1.0000000000000000e+00 1.2521957533521322e+01 1.9953751222762295e+00 4.5610607767861761e-01 
473 0 1 1.0173588315506747e+00 -2.4971158613975167e+01 1.0000000000000000e+00 1.2291735358670428e+01 1.1637212782130024e+00 1.6712980645784086e+00 
393 0 1 1.0435192089992191e+00 -2.1130312128210551e+01 1.0000000000000000e+00 1.0163215378176774e+01 2.2178305022786313e+00 4.6517618321596031e-02 
516 0 1 1.0087541518197884e+00 -3.1431857878299155e+01 1.0000000000000000e+00 9.5481148313106488e+00 3.3605432963637907e+00 8.3924074315301933e-01 
392 0 1 1.0343381375535214e+00 -1.6094989178175318e+01 1.0000000000000000e+00 8.0219644473083616e+00 4.4971196225603167e+00 5.4859545284701672e-01 
205 0 1 1.0134029130053688e+00 -3.6816847942780164e+01 1.0000000000000000e+00 7.9867835425901372e+00 6.3848492688341620e+00 1.9744338972459108e+00 
182 0 1 1.0404134319498439e+00 -3.2222672629078176e+01 1.0000000000000000e+00 9.9648776316163818e+00 6.5390591849536763e+00 3.3022693777870593e-01 
175 0 1 1.0646500842163242e+00 -3.3982959027100890e+01 1.0000000000000000e+00 6.7056557119721232e+00 3.7924172442390960e+00 4.4511829527728347e-01 
287 0 1 1.0262555182008108e+00 -2.4274456279431035e+01 1.0000000000000000e+00 1.0396800729691044e+01 5.8748812363342582e+00 2.5758260151543126e+00 
179 0 1 9.8412730949145300e-01 -1.2555951039906743e+01 1.0000000000000000e+00 1.2890565932839367e+01 4.9392666239889191e+00 6.2574265607927104e-01 
357 0 1 1.0157763186009283e+00 -2.2557521450950254e+01 1.0000000000000000e+00 1.1192110812328039e+01 5.6043182009877563e+00 2.1912164134921821e+00 
627 0 1 1.0219927039272563e+00 -2.2396727258865706e+01 1.0000000000000000e+00 1.0873528406877861e+01 3.8886628288269280e+00 2.6553297686010850e+00 
603 0 1 9.9919375871654637e-01 -9.6227096597031139e+00 1.0000000000000000e+00 1.2807745286783863e+01 3.5562147732401423e+00 2.2774380243416057e+00 
272 0 1 1.0353258905505753e+00 -3.8923769846046348e+01 1.0000000000000000e+00 1.2997564666511700e+01 5.5060109445182341e+00 1.4019105317121485e+00 
188 0 1 1.0440242834952289e+00 -4.7964068700386491e+01 1.0000000000000000e+00 1.3230879169256800e+01 5.5741677057628207e+00 1.2339524918661968e+00 
358 0 1 1.0211324919348135e+00 -9.5351398946789665e+00 1.0000000000000000e+00 7.4288409867580167e+00 6.7277234327591078e+00 1.3930502363536552e+00 
95 0 1 1.0069461672743993e+00 -1.3504995265725064e+01 1.0000000000000000e+00 9.3604437003148462e+00 8.9255143274186803e+00 2.1792863592305918e+00 
186 0 1 1.0441148436051657e+00 -1.6403365912759874e+01 1.0000000000000000e+00 9.5332538987383053e+00 7.7225037421826963e+00 8.0372494488117729e-01 
101 0 1 1.0279938168412968e+00 -1.8009043463839447e+01 1.0000000000000000e+00 7.5467381593510012e+00 9.4965550696809622e+00 3.1934375757696851e+00 
52 0 1 1.0335739420819394e+00 3.3529729886324993e+00 1.0000000000000000e+00 7.2769717266830813e+00 7.4536226219525856e+00 1.8482077548387970e+00 
494 0 1 9.8132405365749686e-01 -3.1446205270620069e+01 1.0000000000000000e+00 6.8546619727964400e+00 9.6632279666916023e+00 2.2170824795673174e+00 
474 0 1 1.0055887416803455e+00 -2.2751531828929984e+01 1.0000000000000000e+00 1.0093179782023537e+01 8.4330840831350908e+00 2.1584211312930681e+00 
549 0 1 1.0402459618000042e+00 -8.5900420060663887e+00 1.0000000000000000e+00 1.0677738838688455e+01 7.4422443018667330e+00 2.5238710332557064e+00 
50 0 1 1.0287165042460482e+00 -1.8836899255440631e+01 1.0000000000000000e+00 1.1902010231702802e+01 7.3923555274272816e+00 1.1395090851284093e+00 
569 0 1 1.0315629029682207e+00 -2.7860397105162008e+01 1.0000000000000000e+00 1.3086341625405691e+01 7.7365710788760120e+00 4.9353833872728065e-01 
320 0 1 1.0447387784849971e+00 -1.1318167402803184e+01 1.0000000000000000e+00 1.3282508195835398e+01 9.7633961888242116e+00 1.3801459325569527e+00 
73 0 1 1.0216683647065110e+00 -2.8465248114465751e+01 1.0000000000000000e+00 9.2936164855457388e+00 2.2683771883860113e+00 4.4769990238032911e+00 
461 0 1 1.0093621344952826e+00 -1.8042199572107513e+01 1.0000000000000000e+00 7.5641435619346247e+00 2.6021058899808058e+00 6.1160239567309898e+00 
153 0 1 1.0542359475583538e+00 -3.7712788081328092e+01 1.0000000000000000e+00 8.4087654278668165e+00 1.0624088803097098e+00 6.0385806185550281e+00 
399 0 1 1.0371840880375260e+00 -3.9021346487427358e+01 1.0000000000000000e+00 8.4121553817459791e+00 3.3239895860474977e+00 4.3162694554098291e+00 
17 0 1 1.0694471684657196e+00 -2.1190977592360827e+01 1.0000000000000000e+00 8.1550700394942570e+00 2.8419855142667698e+00 6.5276992737560153e+00 
239 0 1 1.0188780344993476e+00 -1.9029838281030717e+01 1.0000000000000000e+00 7.9617841094418127e+00 2.7162711967469516e-01 4.4312980133165585e+00 
315 0 1 1.0363863667450555e+00 -4.2962476638632523e+01 1.0000000000000000e+00 9.7740306482356392e+00 6.9302258531017846e-01 6.6365462681250502e+00 
307 0 1 1.0050534479557376e+00 -4.5311801912870251e+01 1.0000000000000000e+00 7.8975734541738261e+00 1.1047893015700484e-01 4.6922218877114048e+00 
148 0 1 9.9645880012832044e-01 -3.2754132292516353e+01 1.0000000000000000e+00 1.0477749208888607e+01 2.5749763045367451e+00 4.0369078685538531e+00 
455 0 1 9.9973691013699484e-01 -2.7888278629567690e+01 1.0000000000000000e+00 1.2574682426528705e+01 7.1424834460433240e-01 5.9590548543599855e+00 
139 0 1 1.0209581241261891e+00 -3.7957872839973362e+01 1.0000000000000000e+00 1.1715497145702871e+01 9.3508339460484335e-01 5.1980661327121203e+00 
84 0 1 9.8415022178291511e-01 -3.2934394311374206e+01 1.0000000000000000e+00 1.1972104756600929e+01 2.4250270622261261e+00 6.1966328080458659e+00 
441 0 1 1.0171827894436836e+00 1.9343817252569797e+00 1.0000000000000000e+00 1.1663768289716506e+01 2.8163017571016717e+00 5.5580491149213564e+00 
408 0 1 1.0061487809814589e+00 -3.0288332620480030e+01 1.0000000000000000e+00 1.3028944591594566e+01 3.2801245139959305e+00 4.3496495770672912e+00 
77 0 1 1.0325267808155565e+00 -2.4870670766616989e+01 1.0000000000000000e+00 1.2813246844756929e+01 2.8452762747582159e+00 4.5273110227973641e+00 
75 0 1 1.0032955279627414e+00 -7.5424738645107974e+00 1.0000000000000000e+00 8.6531577182713537e+00 4.8820397677025014e+00 3.3899716469270627e+00 
442 0 1 1.0137804164305910e+00 -2.1937004945155248e+01 1.0000000000000000e+00 9.5332526673918334e+00 6.2769364656313993e+00 3.5276907769960966e+00 
372 0 1 1.0460484537531443e+00 -1.0669288907259817e+01 1.0000000000000000e+00 8.4270207791755727e+00 3.4229448146984955e+00 6.2278354518010959e+00 
247 0 1 1.0035557381803868e+00 -9.6017768619888546e+00 1.0000000000000000e+00 9.7097121720919848e+00 4.5459084479504677e+00 3.7540137041925012e+00 
4 0 1 1.0364259931625104e+00 -1.3525313913552127e+01 1.0000000000000000e+00 7.7451062441596914e+00 5.2144563108289574e+00 3.9586650540301722e+00 
69 0 1 1.0273077149799197e+00 -3.4635077792734009e+01 1.0000000000000000e+00 7.1998171504187720e+00 4.5240683664346175e+00 5.6021777026773618e+00 
416 0 1 1.0403386566260782e+00 -1.7093576941539126e+01 1.0000000000000000e+00 7.5300642743406820e+00 5.2546575751281628e+00 6.0904414710862476e+00 
295 0 1 9.8974079856647545e-01 -2.9554162499783104e+01 1.0000000000000000e+00 1.3241563855028602e+01 3.6756759877886269e+00 5.6524215331190097e+00 
279 0 1 1.0347207666493810e+00 -1.2033355313643696e+01 1.0000000000000000e+00 1.2715576971932551e+01 4.0596549969308748e+00 4.1288650854423725e+00 
329 0 1 9.9008289505764613e-01 -1.7184607135693287e+01 1.0000000000000000e+00 1.2714720506283614e+01 6.3477569651584478e+00 3.8524213682606931e+00 
215 0 1 9.9911101736168173e-01 -1.8483331474647365e+01 1.0000000000000000e+00 1.3262193471195554e+01 5.6753821832989413e+00 6.0976039726569891e+00 