LAMMPS data file via write_data, version 30 Jul 2016, timestep = 50000000

2080 atoms
8 atom types

0.0000000000000000e+00 4.0000000000000000e+01 xlo xhi
0.0000000000000000e+00 4.0000000000000000e+01 ylo yhi
0.0000000000000000e+00 1.0000000000000000e+02 zlo zhi

Masses

1 3.896
2 5.36
3 20.064
4 8.378
5 8.378
6 8.378
7 8.378
8 8.378

Atoms # meso-molecular

1 2 4 1.0280000359996750e+00 -2.5516606163640262e+02 1.0000000000000000e+00 0.0000000000000000e+00 0.0000000000000000e+00 2.5000000000000000e+00 
2 2 4 1.0280000105602372e+00 -2.3132644238728926e+02 1.0000000000000000e+00 0.0000000000000000e+00 2.0000000000000000e+00 2.5000000000000000e+00 
21 2 4 1.0280001276044080e+00 -1.9435629867361314e+02 1.0000000000000000e+00 2.0000000000000000e+00 0.0000000000000000e+00 2.5000000000000000e+00 
22 2 4 1.0279999731418141e+00 -1.0984282909752235e+02 1.0000000000000000e+00 2.0000000000000000e+00 2.0000000000000000e+00 2.5000000000000000e+00 
41 2 4 1.0279998289801271e+00 -4.3506623252488502e+01 1.0000000000000000e+00 4.0000000000000000e+00 0.0000000000000000e+00 2.5000000000000000e+00 
42 2 4 1.0280001238583967e+00 -7.4865968864910712e+01 1.0000000000000000e+00 4.0000000000000000e+00 2.0000000000000000e+00 2.5000000000000000e+00 
61 2 4 1.0280002456207238e+00 1.1963802005170578e+02 1.0000000000000000e+00 6.0000000000000000e+00 0.0000000000000000e+00 2.5000000000000000e+00 
62 2 4 1.0279998152869918e+00 -2.9344970322220497e+01 1.0000000000000000e+00 6.0000000000000000e+00 2.0000000000000000e+00 2.5000000000000000e+00 
81 2 4 1.0279997792950912e+00 -5.8991798887137193e+01 1.0000000000000000e+00 8.0000000000000000e+00 0.0000000000000000e+00 2.5000000000000000e+00 
82 2 4 1.0280001952412980e+00 -2.7197427280801193e+01 1.0000000000000000e+00 8.0000000000000000e+00 2.0000000000000000e+00 2.5000000000000000e+00 
101 2 4 1.0280002378977127e+00 -2.4941562491916633e+02 1.0000000000000000e+00 1.0000000000000000e+01 0.0000000000000000e+00 2.5000000000000000e+00 
102 2 4 1.0279998280215796e+00 -1.5603671713676255e+02 1.0000000000000000e+00 1.0000000000000000e+01 2.0000000000000000e+00 2.5000000000000000e+00 
121 2 4 1.0279998384561737e+00 -2.0641956140026849e+02 1.0000000000000000e+00 1.2000000000000000e+01 0.0000000000000000e+00 2.5000000000000000e+00 
122 2 4 1.0280001470749238e+00 -1.1523776323134051e+02 1.0000000000000000e+00 1.2000000000000000e+01 2.0000000000000000e+00 2.5000000000000000e+00 
141 2 4 1.0280000445307302e+00 -2.1183820990567779e+02 1.0000000000000000e+00 1.4000000000000000e+01 0.0000000000000000e+00 2.5000000000000000e+00 
142 2 4 1.0279999649281428e+00 -7.6812109024372276e+01 1.0000000000000000e+00 1.4000000000000000e+01 2.0000000000000000e+00 2.5000000000000000e+00 
161 2 4 1.0279999865248264e+00 -5.2496039889664239e+01 1.0000000000000000e+00 1.6000000000000000e+01 0.0000000000000000e+00 2.5000000000000000e+00 
162 2 4 1.0280000323068277e+00 1.0840385513186666e+02 1.0000000000000000e+00 1.6000000000000000e+01 2.0000000000000000e+00 2.5000000000000000e+00 
181 2 4 1.0279999778733957e+00 3.6416335321771430e+02 1.0000000000000000e+00 1.8000000000000000e+01 0.0000000000000000e+00 2.5000000000000000e+00 
182 2 4 1.0280000276195898e+00 3.8396920098906503e+02 1.0000000000000000e+00 1.8000000000000000e+01 2.0000000000000000e+00 2.5000000000000000e+00 
3 2 4 1.0280002151873189e+00 -1.9045681147470157e+02 1.0000000000000000e+00 0.0000000000000000e+00 4.0000000000000000e+00 2.5000000000000000e+00 
4 2 4 1.0279999298301725e+00 -2.5060533796244530e+02 1.0000000000000000e+00 0.0000000000000000e+00 6.0000000000000000e+00 2.5000000000000000e+00 
23 2 4 1.0279999597011322e+00 -2.0231443800667842e+02 1.0000000000000000e+00 2.0000000000000000e+00 4.0000000000000000e+00 2.5000000000000000e+00 
24 2 4 1.0280000409881629e+00 -2.5280553716096586e+02 1.0000000000000000e+00 2.0000000000000000e+00 6.0000000000000000e+00 2.5000000000000000e+00 
43 2 4 1.0279999935466964e+00 -2.6384950017991696e+02 1.0000000000000000e+00 4.0000000000000000e+00 4.0000000000000000e+00 2.5000000000000000e+00 
44 2 4 1.0279999896565188e+00 -3.2866582518416863e+02 1.0000000000000000e+00 4.0000000000000000e+00 6.0000000000000000e+00 2.5000000000000000e+00 
63 2 4 1.0280001371873650e+00 -2.3997265261197870e+02 1.0000000000000000e+00 6.0000000000000000e+00 4.0000000000000000e+00 2.5000000000000000e+00 
64 2 4 1.0279999404490343e+00 -2.3861557115342629e+02 1.0000000000000000e+00 6.0000000000000000e+00 6.0000000000000000e+00 2.5000000000000000e+00 
83 2 4 1.0279998858450023e+00 -1.8211207295188979e+02 1.0000000000000000e+00 8.0000000000000000e+00 4.0000000000000000e+00 2.5000000000000000e+00 
84 2 4 1.0280001015241993e+00 -2.1074395791187004e+02 1.0000000000000000e+00 8.0000000000000000e+00 6.0000000000000000e+00 2.5000000000000000e+00 
103 2 4 1.0280001448681959e+00 -1.4275804390710115e+02 1.0000000000000000e+00 1.0000000000000000e+01 4.0000000000000000e+00 2.5000000000000000e+00 
104 2 4 1.0279999216174196e+00 -1.2463154828111144e+02 1.0000000000000000e+00 1.0000000000000000e+01 6.0000000000000000e+00 2.5000000000000000e+00 
123 2 4 1.0279999466857976e+00 -2.7946365509067302e+01 1.0000000000000000e+00 1.2000000000000000e+01 4.0000000000000000e+00 2.5000000000000000e+00 
124 2 4 1.0280000550264401e+00 -2.7208509752433120e+01 1.0000000000000000e+00 1.2000000000000000e+01 6.0000000000000000e+00 2.5000000000000000e+00 
143 2 4 1.0280000420414046e+00 7.2199431685237101e+01 1.0000000000000000e+00 1.4000000000000000e+01 4.0000000000000000e+00 2.5000000000000000e+00 
144 2 4 1.0279999841065597e+00 -1.0947187432819538e+02 1.0000000000000000e+00 1.4000000000000000e+01 6.0000000000000000e+00 2.5000000000000000e+00 
163 2 4 1.0280000078032623e+00 1.0460595347350213e+02 1.0000000000000000e+00 1.6000000000000000e+01 4.0000000000000000e+00 2.5000000000000000e+00 
164 2 4 1.0279999556254291e+00 -8.8442876725179964e+00 1.0000000000000000e+00 1.6000000000000000e+01 6.0000000000000000e+00 2.5000000000000000e+00 
183 2 4 1.0279999968355280e+00 2.0223197546516792e+02 1.0000000000000000e+00 1.8000000000000000e+01 4.0000000000000000e+00 2.5000000000000000e+00 
184 2 4 1.0280001014598839e+00 -2.0867159250054211e+01 1.0000000000000000e+00 1.8000000000000000e+01 6.0000000000000000e+00 2.5000000000000000e+00 
5 2 4 1.0280000868879577e+00 -2.5556596172802091e+02 1.0000000000000000e+00 0.0000000000000000e+00 8.0000000000000000e+00 2.5000000000000000e+00 
25 2 4 1.0279999591720455e+00 -2.4850155846359962e+02 1.0000000000000000e+00 2.0000000000000000e+00 8.0000000000000000e+00 2.5000000000000000e+00 
45 2 4 1.0280000708842292e+00 -3.3835881684984702e+02 1.0000000000000000e+00 4.0000000000000000e+00 8.0000000000000000e+00 2.5000000000000000e+00 
65 2 4 1.0279999692973059e+00 -3.1021369292376892e+02 1.0000000000000000e+00 6.0000000000000000e+00 8.0000000000000000e+00 2.5000000000000000e+00 
85 2 4 1.0280000337007416e+00 -1.7960944910804102e+02 1.0000000000000000e+00 8.0000000000000000e+00 8.0000000000000000e+00 2.5000000000000000e+00 
105 2 4 1.0280000095822051e+00 -3.5794922904325537e+00 1.0000000000000000e+00 1.0000000000000000e+01 8.0000000000000000e+00 2.5000000000000000e+00 
125 2 4 1.0280000191766538e+00 -1.7467253608089442e+02 1.0000000000000000e+00 1.2000000000000000e+01 8.0000000000000000e+00 2.5000000000000000e+00 
145 2 4 1.0279999840361302e+00 -1.9565472612443284e+02 1.0000000000000000e+00 1.4000000000000000e+01 8.0000000000000000e+00 2.5000000000000000e+00 
165 2 4 1.0280000575023487e+00 -1.3989126591012854e+02 1.0000000000000000e+00 1.6000000000000000e+01 8.0000000000000000e+00 2.5000000000000000e+00 
185 2 4 1.0279999048685624e+00 -1.7636408780044067e+02 1.0000000000000000e+00 1.8000000000000000e+01 8.0000000000000000e+00 2.5000000000000000e+00 
6 2 4 1.0279999785083189e+00 -2.5773672633699209e+02 1.0000000000000000e+00 0.0000000000000000e+00 1.0000000000000000e+01 2.5000000000000000e+00 
7 2 4 1.0280000502486384e+00 -2.4739114039754025e+02 1.0000000000000000e+00 0.0000000000000000e+00 1.2000000000000000e+01 2.5000000000000000e+00 
26 2 4 1.0280000803634382e+00 -2.1866215946404131e+02 1.0000000000000000e+00 2.0000000000000000e+00 1.0000000000000000e+01 2.5000000000000000e+00 
27 2 4 1.0279999121222274e+00 -2.7578082000292460e+02 1.0000000000000000e+00 2.0000000000000000e+00 1.2000000000000000e+01 2.5000000000000000e+00 
46 2 4 1.0279999425350106e+00 -2.9783751737009572e+02 1.0000000000000000e+00 4.0000000000000000e+00 1.0000000000000000e+01 2.5000000000000000e+00 
47 2 4 1.0280001038842062e+00 -2.0230135000359917e+02 1.0000000000000000e+00 4.0000000000000000e+00 1.2000000000000000e+01 2.5000000000000000e+00 
66 2 4 1.0280001000877532e+00 -2.2321784715703353e+02 1.0000000000000000e+00 6.0000000000000000e+00 1.0000000000000000e+01 2.5000000000000000e+00 
67 2 4 1.0279998864525157e+00 -2.1028594077045227e+02 1.0000000000000000e+00 6.0000000000000000e+00 1.2000000000000000e+01 2.5000000000000000e+00 
86 2 4 1.0279999339674968e+00 -1.7047955954205239e+02 1.0000000000000000e+00 8.0000000000000000e+00 1.0000000000000000e+01 2.5000000000000000e+00 
87 2 4 1.0280001365011839e+00 -2.5119364441664473e+02 1.0000000000000000e+00 8.0000000000000000e+00 1.2000000000000000e+01 2.5000000000000000e+00 
106 2 4 1.0280000867910877e+00 -1.7757359522338550e+02 1.0000000000000000e+00 1.0000000000000000e+01 1.0000000000000000e+01 2.5000000000000000e+00 
107 2 4 1.0279998698549067e+00 -2.2748883894410702e+02 1.0000000000000000e+00 1.0000000000000000e+01 1.2000000000000000e+01 2.5000000000000000e+00 
126 2 4 1.0279999479552626e+00 -2.4568107695465764e+02 1.0000000000000000e+00 1.2000000000000000e+01 1.0000000000000000e+01 2.5000000000000000e+00 
127 2 4 1.0280000923148420e+00 -2.5063548846805634e+02 1.0000000000000000e+00 1.2000000000000000e+01 1.2000000000000000e+01 2.5000000000000000e+00 
146 2 4 1.0280000914681613e+00 -1.8943315380569430e+02 1.0000000000000000e+00 1.4000000000000000e+01 1.0000000000000000e+01 2.5000000000000000e+00 
147 2 4 1.0279998892563236e+00 -1.6270551613006555e+02 1.0000000000000000e+00 1.4000000000000000e+01 1.2000000000000000e+01 2.5000000000000000e+00 
166 2 4 1.0279999214206346e+00 -1.1523186166554009e+02 1.0000000000000000e+00 1.6000000000000000e+01 1.0000000000000000e+01 2.5000000000000000e+00 
167 2 4 1.0280001141830066e+00 -1.6578291326657487e+02 1.0000000000000000e+00 1.6000000000000000e+01 1.2000000000000000e+01 2.5000000000000000e+00 
186 2 4 1.0280000811367658e+00 -2.3150030823922879e+02 1.0000000000000000e+00 1.8000000000000000e+01 1.0000000000000000e+01 2.5000000000000000e+00 
187 2 4 1.0279999491995324e+00 -2.3421349554383508e+02 1.0000000000000000e+00 1.8000000000000000e+01 1.2000000000000000e+01 2.5000000000000000e+00 
8 2 4 1.0280000629137558e+00 -2.8147507085087148e+02 1.0000000000000000e+00 0.0000000000000000e+00 1.4000000000000000e+01 2.5000000000000000e+00 
9 2 4 1.0279998474468015e+00 -2.4128794097101922e+02 1.0000000000000000e+00 0.0000000000000000e+00 1.6000000000000000e+01 2.5000000000000000e+00 
28 2 4 1.0280000441203900e+00 -2.0697912332046786e+02 1.0000000000000000e+00 2.0000000000000000e+00 1.4000000000000000e+01 2.5000000000000000e+00 
29 2 4 1.0280001244625376e+00 -2.3820072960420890e+02 1.0000000000000000e+00 2.0000000000000000e+00 1.6000000000000000e+01 2.5000000000000000e+00 
48 2 4 1.0280000008756149e+00 -2.3406630666237606e+02 1.0000000000000000e+00 4.0000000000000000e+00 1.4000000000000000e+01 2.5000000000000000e+00 
49 2 4 1.0279999413772853e+00 -2.2975277007475296e+02 1.0000000000000000e+00 4.0000000000000000e+00 1.6000000000000000e+01 2.5000000000000000e+00 
68 2 4 1.0280001062753155e+00 -3.0011804371784336e+02 1.0000000000000000e+00 6.0000000000000000e+00 1.4000000000000000e+01 2.5000000000000000e+00 
69 2 4 1.0280000278615562e+00 -2.5529969294617598e+02 1.0000000000000000e+00 6.0000000000000000e+00 1.6000000000000000e+01 2.5000000000000000e+00 
88 2 4 1.0279999239384541e+00 -2.7331668953754087e+02 1.0000000000000000e+00 8.0000000000000000e+00 1.4000000000000000e+01 2.5000000000000000e+00 
89 2 4 1.0280000294197624e+00 -2.8082531857561202e+02 1.0000000000000000e+00 8.0000000000000000e+00 1.6000000000000000e+01 2.5000000000000000e+00 
108 2 4 1.0280000906781481e+00 -2.4246850458492617e+02 1.0000000000000000e+00 1.0000000000000000e+01 1.4000000000000000e+01 2.5000000000000000e+00 
109 2 4 1.0279999457959537e+00 -2.6505605410297147e+02 1.0000000000000000e+00 1.0000000000000000e+01 1.6000000000000000e+01 2.5000000000000000e+00 
128 2 4 1.0279999486870914e+00 -2.1128105450987414e+02 1.0000000000000000e+00 1.2000000000000000e+01 1.4000000000000000e+01 2.5000000000000000e+00 
129 2 4 1.0280000500499369e+00 -2.2253200841321058e+02 1.0000000000000000e+00 1.2000000000000000e+01 1.6000000000000000e+01 2.5000000000000000e+00 
148 2 4 1.0279999926759877e+00 -1.7143342793465160e+02 1.0000000000000000e+00 1.4000000000000000e+01 1.4000000000000000e+01 2.5000000000000000e+00 
149 2 4 1.0280000164497278e+00 -2.7620672257188448e+02 1.0000000000000000e+00 1.4000000000000000e+01 1.6000000000000000e+01 2.5000000000000000e+00 
168 2 4 1.0280000249264611e+00 -2.0871085619456710e+02 1.0000000000000000e+00 1.6000000000000000e+01 1.4000000000000000e+01 2.5000000000000000e+00 
169 2 4 1.0280000158384610e+00 -2.4010834802594306e+02 1.0000000000000000e+00 1.6000000000000000e+01 1.6000000000000000e+01 2.5000000000000000e+00 
188 2 4 1.0279999975883591e+00 -2.6014423072384551e+02 1.0000000000000000e+00 1.8000000000000000e+01 1.4000000000000000e+01 2.5000000000000000e+00 
189 2 4 1.0280000036637598e+00 -2.6873944192880936e+02 1.0000000000000000e+00 1.8000000000000000e+01 1.6000000000000000e+01 2.5000000000000000e+00 
10 2 4 1.0280001445926794e+00 -2.4856883748697936e+02 1.0000000000000000e+00 0.0000000000000000e+00 1.8000000000000000e+01 2.5000000000000000e+00 
30 2 4 1.0279999044792170e+00 -2.6535586141056302e+02 1.0000000000000000e+00 2.0000000000000000e+00 1.8000000000000000e+01 2.5000000000000000e+00 
50 2 4 1.0280001057448842e+00 -2.4147866291852421e+02 1.0000000000000000e+00 4.0000000000000000e+00 1.8000000000000000e+01 2.5000000000000000e+00 
70 2 4 1.0279999892468998e+00 -2.5397405280203913e+02 1.0000000000000000e+00 6.0000000000000000e+00 1.8000000000000000e+01 2.5000000000000000e+00 
90 2 4 1.0279999791426691e+00 -2.6916246192652733e+02 1.0000000000000000e+00 8.0000000000000000e+00 1.8000000000000000e+01 2.5000000000000000e+00 
110 2 4 1.0280000503544402e+00 -2.3863649017125417e+02 1.0000000000000000e+00 1.0000000000000000e+01 1.8000000000000000e+01 2.5000000000000000e+00 
130 2 4 1.0280000366175788e+00 -2.4772862164780349e+02 1.0000000000000000e+00 1.2000000000000000e+01 1.8000000000000000e+01 2.5000000000000000e+00 
150 2 4 1.0279999536272686e+00 -2.3640802232503538e+02 1.0000000000000000e+00 1.4000000000000000e+01 1.8000000000000000e+01 2.5000000000000000e+00 
170 2 4 1.0280000483665492e+00 -2.2901321489050224e+02 1.0000000000000000e+00 1.6000000000000000e+01 1.8000000000000000e+01 2.5000000000000000e+00 
190 2 4 1.0280000477265396e+00 -2.5291828387028607e+02 1.0000000000000000e+00 1.8000000000000000e+01 1.8000000000000000e+01 2.5000000000000000e+00 
482 84 2 1.0280000048539171e+00 6.8894933588687882e+03 1.0000000000000000e+00 2.3077904597407977e+00 2.6063225688155898e+00 5.0850011195650708e+00 
660 262 2 1.0280000046244882e+00 -6.7269440295425156e+03 1.0000000000000000e+00 2.3335652160847431e+00 2.6322167214175587e+00 5.0796629453492663e+00 
1823 1425 2 1.0280000021106361e+00 -2.3388109151009930e+03 1.0000000000000000e+00 1.4769844875872404e+00 9.9104788872653116e-01 5.5587396798907545e+00 
647 249 2 1.0280000101812812e+00 -2.3233662586038317e+03 1.0000000000000000e+00 1.3497432452469802e+00 5.8635082913590064e-01 5.6586923240532263e+00 
451 53 2 1.0279999860713840e+00 7.5737245128988634e+03 1.0000000000000000e+00 1.8873911601672386e+00 2.7020706040067383e-01 5.9502357390912275e+00 
751 353 2 1.0280000010527159e+00 -6.8977951741197512e+02 1.0000000000000000e+00 2.8410103383268774e+00 3.1527102131480742e+00 4.9893866209754725e+00 
1087 689 2 1.0280000055859582e+00 -4.3722371011604628e+03 1.0000000000000000e+00 6.1906843066726305e+00 2.0772257370065277e+00 5.0974913054017836e+00 
1597 1199 2 1.0280000122577893e+00 7.3749035490230945e+03 1.0000000000000000e+00 6.1527386566534856e+00 1.8971964682962157e+00 5.3440058365088587e+00 
1829 1431 2 1.0280000087887053e+00 -8.5195277966060494e+03 1.0000000000000000e+00 5.9860807481793117e+00 2.0806986081944867e+00 5.1750160721018563e+00 
1633 1235 2 1.0280000128956290e+00 8.1914070886192712e+03 1.0000000000000000e+00 5.4340963958360406e+00 1.7751992033727690e+00 5.5043352385614188e+00 
1255 857 2 1.0280000091415840e+00 -4.3819338236002786e+03 1.0000000000000000e+00 4.7006965576714661e+00 3.2337622502579927e-01 5.8309016387370809e+00 
794 396 2 1.0279999986841748e+00 -1.5192657827626922e+03 1.0000000000000000e+00 4.4860836186468243e+00 1.9382263550091507e+00 6.6429270123616977e+00 
2026 1628 2 1.0280000022947606e+00 6.2334828911848654e+03 1.0000000000000000e+00 6.6884149146784520e+00 2.6546824797545705e+00 6.1198647380784399e+00 
966 568 2 1.0280000028804359e+00 -3.6443319699605695e+02 1.0000000000000000e+00 6.7897202138137684e+00 3.0629053703454834e+00 6.2566510803643247e+00 
1288 890 2 1.0280000022956965e+00 6.4633041651956523e+02 1.0000000000000000e+00 9.4676477368108554e+00 1.7622806201381187e+00 5.9162559122958855e+00 
1160 762 2 1.0279999884033624e+00 6.1743308017887023e+02 1.0000000000000000e+00 8.8741286895655715e+00 1.0826800470384761e+00 4.8273884818247472e+00 
2024 1626 2 1.0280000070222888e+00 -1.2522182218851624e+03 1.0000000000000000e+00 8.6728824462473160e+00 1.7748853183584730e+00 5.8743083594015584e+00 
942 544 2 1.0280000048143041e+00 -1.6825338726617583e+03 1.0000000000000000e+00 9.0413274835967528e+00 1.8504530846218601e+00 5.9198952745717213e+00 
1071 673 2 1.0280000086869545e+00 -3.0274668853562116e+03 1.0000000000000000e+00 9.1787205506393761e+00 2.7219555711979573e+00 6.2206212190598480e+00 
1293 895 2 1.0280000181520690e+00 -5.2072622326420287e+02 1.0000000000000000e+00 1.0806137481304425e+01 1.5339793975487874e+00 6.0921216840306034e+00 
1120 722 2 1.0279999834497415e+00 5.7983875276859544e+02 1.0000000000000000e+00 1.2292671903825969e+01 2.1294120139719284e+00 5.2820532497963697e+00 
1376 978 2 1.0279999925359158e+00 -7.9979275443848269e+02 1.0000000000000000e+00 1.1963912224528558e+01 1.9592052590076219e+00 5.3359776010717050e+00 
762 364 2 1.0280000066254400e+00 -1.6418644048069959e+03 1.0000000000000000e+00 1.2937205309960923e+01 3.0010072251112025e+00 5.1953284005963036e+00 
1322 924 2 1.0280000063754453e+00 8.6719568209793033e+02 1.0000000000000000e+00 1.3297359354091713e+01 3.2923142650352322e+00 5.3141056589034372e+00 
1491 1093 2 1.0280000150387227e+00 -1.7315712738855409e+03 1.0000000000000000e+00 1.3017170868964813e+01 4.2081335338025561e-01 5.8877198477009420e+00 
1515 1117 2 1.0280000158744900e+00 -9.2309912462214800e+02 1.0000000000000000e+00 1.2229192861707727e+01 4.1829148610538608e-01 5.4619673081310696e+00 
1542 1144 2 1.0280000119132215e+00 -1.4115089485302078e+03 1.0000000000000000e+00 1.2061305123116018e+01 3.3317741283034275e-01 5.4946428059045784e+00 
1108 710 2 1.0280000099919260e+00 1.5058598115664120e+03 1.0000000000000000e+00 1.2039635334792571e+01 2.6188170608181827e-01 5.5437052597257823e+00 
1647 1249 2 1.0280000153930422e+00 -2.0211867806489176e+03 1.0000000000000000e+00 1.5533043143794426e+01 2.8934848768889228e+00 5.4889123601480465e+00 
2057 1659 2 1.0279999660006522e+00 2.2895498861529936e+03 1.0000000000000000e+00 1.5668342270980542e+01 2.6558689097013897e+00 5.2626586529123882e+00 
1898 1500 2 1.0280000164875516e+00 -2.8850666789809034e+03 1.0000000000000000e+00 1.5502681821438919e+01 2.9065771667304436e+00 5.4981301745465707e+00 
1063 665 2 1.0280000108334009e+00 -1.6461536070434900e+03 1.0000000000000000e+00 1.5673339556008100e+01 2.8872775520254903e+00 5.4629800198116669e+00 
1742 1344 2 1.0280000139897096e+00 -2.2580818752778387e+03 1.0000000000000000e+00 1.5518904108497868e+01 2.8367558225990184e+00 5.4704657262611187e+00 
1672 1274 2 1.0280000154637399e+00 9.3187211299551236e+03 1.0000000000000000e+00 1.5249942993713761e+01 3.0880672597113739e+00 5.5478733305076711e+00 
2043 1645 2 1.0279999975003269e+00 3.7580824866376820e+03 1.0000000000000000e+00 1.3551164850681653e+01 3.3235638579209668e+00 5.5468695622788262e+00 
673 275 2 1.0280000049927061e+00 -4.4304861826611968e+03 1.0000000000000000e+00 1.8024792573442927e+01 3.0997295254378803e+00 5.4908604424208880e+00 
1220 822 2 1.0280000049986548e+00 -1.1871405778764338e+03 1.0000000000000000e+00 1.8025595711997052e+01 3.0987554410372424e+00 5.4909573798533593e+00 
1342 944 2 1.0280000052510536e+00 -2.0009812796429983e+03 1.0000000000000000e+00 1.8054852519305872e+01 3.0061716346292342e+00 5.4921961712380183e+00 
1775 1377 2 1.0280000055442708e+00 -3.9995795114027264e+03 1.0000000000000000e+00 1.8106736459909612e+01 2.9514967989446772e+00 5.4946223669525756e+00 
1392 994 2 1.0280000062698065e+00 4.3587011582921423e+03 1.0000000000000000e+00 1.8343125982033818e+01 2.6166893272572782e+00 5.4551687695355779e+00 
617 219 2 1.0280000053937328e+00 -4.4759291638295635e+03 1.0000000000000000e+00 1.8102197430299945e+01 3.1417763608504115e+00 5.4969372278415864e+00 
1801 1403 2 1.0280000111033190e+00 -5.6331076742732239e+03 1.0000000000000000e+00 1.9458449739051888e+00 4.2681906437992669e+00 5.6327706952594641e+00 
1433 1035 2 1.0280000197598231e+00 1.8681765332902492e+03 1.0000000000000000e+00 3.2831055768894837e+00 5.1178336952001491e+00 6.0634820390804602e+00 
720 322 2 1.0279999998079752e+00 -1.4537786541459441e+03 1.0000000000000000e+00 2.4751316158482721e+00 6.4089838311212572e+00 5.3162733950039733e+00 
753 355 2 1.0280000094101045e+00 6.1290543932698074e+03 1.0000000000000000e+00 2.7790460631458811e+00 6.5157116948839002e+00 5.5240505660839236e+00 
1967 1569 2 1.0280000096001110e+00 6.3968398757019113e+03 1.0000000000000000e+00 3.0308324992381261e+00 6.5912712476123474e+00 5.6007818662746178e+00 
480 82 2 1.0280000092896209e+00 -1.0486354007766255e+04 1.0000000000000000e+00 2.8601242399075963e+00 6.5563372297305458e+00 5.5573172093750056e+00 
1782 1384 2 1.0280000095647528e+00 -3.4308301954372737e+03 1.0000000000000000e+00 3.0292636714389642e+00 6.5922727536393086e+00 5.6006666660100048e+00 
413 15 2 1.0280000094844581e+00 2.3309482068590346e+03 1.0000000000000000e+00 2.9818311786085610e+00 6.5850083633711920e+00 5.5908178768623928e+00 
622 224 2 1.0280000178784960e+00 -3.3165293412128954e+03 1.0000000000000000e+00 1.1638711612025865e-01 6.2038264300294177e+00 4.9538823148168190e+00 
1569 1171 2 1.0280000034345873e+00 -5.0479919971651871e+03 1.0000000000000000e+00 6.6018439952096797e+00 3.6823800546460173e+00 6.3127375411075386e+00 
854 456 2 1.0279999974451444e+00 -1.7889718401420137e+03 1.0000000000000000e+00 3.6464368273946066e+00 3.8462379320088069e+00 4.8839019908634835e+00 
1835 1437 2 1.0279999863798210e+00 -1.8684875273012535e+03 1.0000000000000000e+00 5.1688033017214146e+00 5.0462706376532225e+00 5.1285954886771448e+00 
1648 1250 2 1.0280000066991024e+00 8.5174074141219899e+03 1.0000000000000000e+00 6.2808408012414025e+00 5.4893400822337348e+00 5.6389612597303236e+00 
822 424 2 1.0280000061771559e+00 -1.7577162993884781e+03 1.0000000000000000e+00 6.2623962803166391e+00 5.6475898196950070e+00 5.5652576873295079e+00 
1945 1547 2 1.0280000071262694e+00 4.4594926382039212e+03 1.0000000000000000e+00 6.4623823627711579e+00 5.3719256366713930e+00 5.7360262203867247e+00 
975 577 2 1.0280000074078883e+00 -1.3342201899756897e+03 1.0000000000000000e+00 5.9801550578702978e+00 5.4408012149018194e+00 5.5708814686983983e+00 
1631 1233 2 1.0280000023477929e+00 -3.1980971848520585e+03 1.0000000000000000e+00 7.5945968486942634e+00 5.4965495581907327e+00 5.3615551594073967e+00 
782 384 2 1.0279999926907377e+00 -9.2142254074982793e+02 1.0000000000000000e+00 7.4300388868075942e+00 5.6460256476062751e+00 5.1627672380084162e+00 
2011 1613 2 1.0279999926899996e+00 6.9176414212969194e+03 1.0000000000000000e+00 9.1071476453025486e+00 3.9746011867545858e+00 5.1534110490740765e+00 
1836 1438 2 1.0280000099285731e+00 -6.8173873950741290e+03 1.0000000000000000e+00 7.7798094267935793e+00 5.3137989459766919e+00 5.5378514855681678e+00 
1048 650 2 1.0280000102941447e+00 1.7900967570453713e+03 1.0000000000000000e+00 8.1183728830576651e+00 3.9221526118655539e+00 6.4870525256629898e+00 
1200 802 2 1.0279999973276135e+00 -7.2789300349046471e+02 1.0000000000000000e+00 9.6722266343176990e+00 3.4667938618206380e+00 5.1706581304705335e+00 
1358 960 2 1.0279999975379204e+00 -6.5122243938842712e+02 1.0000000000000000e+00 9.5849939046270389e+00 3.4377098328847544e+00 5.1214901052225459e+00 
1185 787 2 1.0280000043910358e+00 -1.2376059293072415e+03 1.0000000000000000e+00 1.2529410010757719e+01 5.2436925156314835e+00 5.5360307924808003e+00 
787 389 2 1.0280000046419779e+00 -4.3042486531690349e+02 1.0000000000000000e+00 1.2556190921835798e+01 5.2411524048133211e+00 5.5301241196663744e+00 
1125 727 2 1.0280000047458622e+00 -5.9720194187400966e+02 1.0000000000000000e+00 1.2568474237441599e+01 5.2409208357394270e+00 5.5288288022776264e+00 
434 36 2 1.0280000236330287e+00 4.9893221193793734e+03 1.0000000000000000e+00 1.0955432252766613e+01 4.2309594519637512e+00 5.8427573857020860e+00 
1724 1326 2 1.0280000104794094e+00 8.7090500704598944e+03 1.0000000000000000e+00 1.1442175503369112e+01 3.9445673232573459e+00 6.1488066367579881e+00 
987 589 2 1.0279999981617325e+00 -1.8375127375098803e+03 1.0000000000000000e+00 1.0610104178097849e+01 6.5283929792065116e+00 4.7614685209997054e+00 
733 335 2 1.0279999991105941e+00 9.6400949157810260e+02 1.0000000000000000e+00 1.0520052925881584e+01 6.5927577661794423e+00 4.8061487286339695e+00 
924 526 2 1.0280000085698822e+00 2.2998453823049226e+03 1.0000000000000000e+00 1.5394278214012438e+01 6.0095233573296385e+00 5.6152331528648078e+00 
1787 1389 2 1.0280000060770056e+00 -4.3046312662992186e+03 1.0000000000000000e+00 1.5716006049235693e+01 6.3600766430399043e+00 5.6779266509608179e+00 
1561 1163 2 1.0280000070794677e+00 4.5004473939318268e+03 1.0000000000000000e+00 1.5554024141854100e+01 6.1859378573720019e+00 5.6485166889850982e+00 
2076 1678 2 1.0280000083240901e+00 1.1379186739915852e+02 1.0000000000000000e+00 1.5417570172157594e+01 6.0354703665626106e+00 5.6203122608131020e+00 
1170 772 2 1.0280000033195280e+00 1.2921700283558430e+03 1.0000000000000000e+00 1.3899699887755453e+01 6.5473301043911016e+00 5.8440262900386113e+00 
640 242 2 1.0280000148244681e+00 -7.6732210760109247e+03 1.0000000000000000e+00 1.9753910200939526e+01 3.3977895995255087e+00 5.4906824431222434e+00 
1171 773 2 1.0279999899637606e+00 1.3302682091336255e+03 1.0000000000000000e+00 1.7164404771928911e+01 6.5014624238083556e+00 4.9698227350546773e+00 
1082 684 2 1.0279999996235440e+00 -1.8918933639607535e+03 1.0000000000000000e+00 1.8476825830602110e+01 6.5361790011551184e+00 5.4203628091903351e+00 
1111 713 2 1.0280000006349073e+00 -5.3182116370926201e+02 1.0000000000000000e+00 2.8018032239030295e+00 8.7912070102424007e+00 5.8139492566251265e+00 
842 444 2 1.0280000009632386e+00 6.0142654743287108e+02 1.0000000000000000e+00 2.0194452656944368e+00 9.3606143323844631e+00 5.2450025868910739e+00 
1891 1493 2 1.0280000004663656e+00 -9.6686017221994643e+02 1.0000000000000000e+00 2.1234494283739491e+00 9.3096692973409798e+00 5.4134470578763381e+00 
1304 906 2 1.0280000012313393e+00 -1.7165798198623970e+03 1.0000000000000000e+00 2.5860977055316141e+00 9.1450289979146451e+00 5.7591807349976367e+00 
1593 1195 2 1.0280000019602336e+00 6.2208917011279818e+03 1.0000000000000000e+00 3.3532850335614510e+00 8.5684540416785637e+00 5.8859980436059862e+00 
1847 1449 2 1.0280000125932276e+00 -2.0372643129209775e+03 1.0000000000000000e+00 4.6309807413527118e+00 8.8122286364610893e+00 5.3532592507602388e+00 
978 580 2 1.0279999924390915e+00 -2.5688952897768235e+02 1.0000000000000000e+00 4.4535745821378887e+00 8.8061494559460058e+00 4.9254797726932846e+00 
1320 922 2 1.0279999837798157e+00 6.7168360171056474e+02 1.0000000000000000e+00 5.7388723155611583e+00 9.9254086093500309e+00 5.1898723024726818e+00 
827 429 2 1.0280000123614539e+00 -1.4633017153193850e+03 1.0000000000000000e+00 6.0598845994935040e+00 7.9858303356285063e+00 6.0870786183386132e+00 
971 573 2 1.0280000140895300e+00 -9.2081547818099963e+01 1.0000000000000000e+00 6.2785088059587091e+00 7.8394453394577006e+00 6.1329704816386590e+00 
1193 795 2 1.0280000031527481e+00 -1.0575617547296861e+02 1.0000000000000000e+00 7.5867950599346132e+00 9.0917537987423369e+00 5.3850389396002338e+00 
1837 1439 2 1.0280000041490764e+00 -9.0705072347076712e+03 1.0000000000000000e+00 7.5438247075387013e+00 8.7651318880258611e+00 5.3702466341257056e+00 
1918 1520 2 1.0279999992554536e+00 -7.0983659927672979e+03 1.0000000000000000e+00 7.5196849623639466e+00 8.4953489899780070e+00 5.1550940603560678e+00 
503 105 2 1.0280000242407070e+00 7.9908447705469171e+03 1.0000000000000000e+00 7.2622674527431244e+00 7.9887687274636008e+00 5.9033687539051334e+00 
1584 1186 2 1.0280000001074290e+00 1.8814238334312518e+03 1.0000000000000000e+00 7.5411030718983021e+00 8.8607282511221861e+00 5.1244739222565707e+00 
945 547 2 1.0280000021816726e+00 -6.7861315542384796e+02 1.0000000000000000e+00 7.5052875186522652e+00 9.6502212187843615e+00 5.7866198387953780e+00 
1124 726 2 1.0280000061564105e+00 7.7403407149126861e+02 1.0000000000000000e+00 1.0927689435272210e+01 6.8216915682255932e+00 6.3032991530880969e+00 
1827 1429 2 1.0280000050081539e+00 6.0324175941083809e+02 1.0000000000000000e+00 1.0572738675398055e+01 7.9322141445587890e+00 5.9793435173853604e+00 
668 270 2 1.0280000032631522e+00 -4.4144958281442341e+03 1.0000000000000000e+00 1.0794842044274585e+01 7.8540459670723406e+00 6.0723821974496843e+00 