LAMMPS data file via write_data, version 30 Jul 2016, timestep = 50400000

2080 atoms
8 atom types

0.0000000000000000e+00 4.0000000000000000e+01 xlo xhi
0.0000000000000000e+00 4.0000000000000000e+01 ylo yhi
0.0000000000000000e+00 1.0000000000000000e+02 zlo zhi

Masses

1 3.896
2 5.36
3 20.064
4 8.378
5 8.378
6 8.378
7 8.378
8 8.378

Atoms # meso-molecular

1 2 4 1.0280000359178332e+00 -2.5516606163640262e+02 1.0000000000000000e+00 0.0000000000000000e+00 0.0000000000000000e+00 2.5000000000000000e+00 
2 2 4 1.0280000106064893e+00 -2.3132644238728926e+02 1.0000000000000000e+00 0.0000000000000000e+00 2.0000000000000000e+00 2.5000000000000000e+00 
21 2 4 1.0280001276286077e+00 -1.9435629867361314e+02 1.0000000000000000e+00 2.0000000000000000e+00 0.0000000000000000e+00 2.5000000000000000e+00 
22 2 4 1.0279999731168086e+00 -1.0984282909752235e+02 1.0000000000000000e+00 2.0000000000000000e+00 2.0000000000000000e+00 2.5000000000000000e+00 
41 2 4 1.0279998290089920e+00 -4.3506623252488502e+01 1.0000000000000000e+00 4.0000000000000000e+00 0.0000000000000000e+00 2.5000000000000000e+00 
42 2 4 1.0280001237870366e+00 -7.4865968864910712e+01 1.0000000000000000e+00 4.0000000000000000e+00 2.0000000000000000e+00 2.5000000000000000e+00 
61 2 4 1.0280002455464474e+00 1.1963802002896841e+02 1.0000000000000000e+00 6.0000000000000000e+00 0.0000000000000000e+00 2.5000000000000000e+00 
62 2 4 1.0279998154240095e+00 -2.9344970322220497e+01 1.0000000000000000e+00 6.0000000000000000e+00 2.0000000000000000e+00 2.5000000000000000e+00 
81 2 4 1.0279997793933653e+00 -5.8991798898505877e+01 1.0000000000000000e+00 8.0000000000000000e+00 0.0000000000000000e+00 2.5000000000000000e+00 
82 2 4 1.0280001951455344e+00 -2.7197427292169877e+01 1.0000000000000000e+00 8.0000000000000000e+00 2.0000000000000000e+00 2.5000000000000000e+00 
101 2 4 1.0280002378732216e+00 -2.4941562494190370e+02 1.0000000000000000e+00 1.0000000000000000e+01 0.0000000000000000e+00 2.5000000000000000e+00 
102 2 4 1.0279998280118514e+00 -1.5603671713676255e+02 1.0000000000000000e+00 1.0000000000000000e+01 2.0000000000000000e+00 2.5000000000000000e+00 
121 2 4 1.0279998384344895e+00 -2.0641956140026849e+02 1.0000000000000000e+00 1.2000000000000000e+01 0.0000000000000000e+00 2.5000000000000000e+00 
122 2 4 1.0280001471445364e+00 -1.1523776324270919e+02 1.0000000000000000e+00 1.2000000000000000e+01 2.0000000000000000e+00 2.5000000000000000e+00 
141 2 4 1.0280000446524638e+00 -2.1183820990567779e+02 1.0000000000000000e+00 1.4000000000000000e+01 0.0000000000000000e+00 2.5000000000000000e+00 
142 2 4 1.0279999648051008e+00 -7.6812109024372276e+01 1.0000000000000000e+00 1.4000000000000000e+01 2.0000000000000000e+00 2.5000000000000000e+00 
161 2 4 1.0279999863350768e+00 -5.2496039889664239e+01 1.0000000000000000e+00 1.6000000000000000e+01 0.0000000000000000e+00 2.5000000000000000e+00 
162 2 4 1.0280000325227083e+00 1.0840385513186666e+02 1.0000000000000000e+00 1.6000000000000000e+01 2.0000000000000000e+00 2.5000000000000000e+00 
181 2 4 1.0279999780822717e+00 3.6416335321771430e+02 1.0000000000000000e+00 1.8000000000000000e+01 0.0000000000000000e+00 2.5000000000000000e+00 
182 2 4 1.0280000274065817e+00 3.8396920098906503e+02 1.0000000000000000e+00 1.8000000000000000e+01 2.0000000000000000e+00 2.5000000000000000e+00 
3 2 4 1.0280002149169187e+00 -1.9045681147470157e+02 1.0000000000000000e+00 0.0000000000000000e+00 4.0000000000000000e+00 2.5000000000000000e+00 
4 2 4 1.0279999298855416e+00 -2.5060533796244530e+02 1.0000000000000000e+00 0.0000000000000000e+00 6.0000000000000000e+00 2.5000000000000000e+00 
23 2 4 1.0279999597833400e+00 -2.0231443800667842e+02 1.0000000000000000e+00 2.0000000000000000e+00 4.0000000000000000e+00 2.5000000000000000e+00 
24 2 4 1.0280000410028109e+00 -2.5280553716096586e+02 1.0000000000000000e+00 2.0000000000000000e+00 6.0000000000000000e+00 2.5000000000000000e+00 
43 2 4 1.0279999936166500e+00 -2.6384950017991696e+02 1.0000000000000000e+00 4.0000000000000000e+00 4.0000000000000000e+00 2.5000000000000000e+00 
44 2 4 1.0279999895627041e+00 -3.2866582518416863e+02 1.0000000000000000e+00 4.0000000000000000e+00 6.0000000000000000e+00 2.5000000000000000e+00 
63 2 4 1.0280001370840497e+00 -2.3997265263471607e+02 1.0000000000000000e+00 6.0000000000000000e+00 4.0000000000000000e+00 2.5000000000000000e+00 
64 2 4 1.0279999405303881e+00 -2.3861557115342629e+02 1.0000000000000000e+00 6.0000000000000000e+00 6.0000000000000000e+00 2.5000000000000000e+00 
83 2 4 1.0279998859030048e+00 -1.8211207295188979e+02 1.0000000000000000e+00 8.0000000000000000e+00 4.0000000000000000e+00 2.5000000000000000e+00 
84 2 4 1.0280001014960207e+00 -2.1074395791187004e+02 1.0000000000000000e+00 8.0000000000000000e+00 6.0000000000000000e+00 2.5000000000000000e+00 
103 2 4 1.0280001449135221e+00 -1.4275804390710115e+02 1.0000000000000000e+00 1.0000000000000000e+01 4.0000000000000000e+00 2.5000000000000000e+00 
104 2 4 1.0279999215978191e+00 -1.2463154828111144e+02 1.0000000000000000e+00 1.0000000000000000e+01 6.0000000000000000e+00 2.5000000000000000e+00 
123 2 4 1.0279999465948848e+00 -2.7946365506225131e+01 1.0000000000000000e+00 1.2000000000000000e+01 4.0000000000000000e+00 2.5000000000000000e+00 
124 2 4 1.0280000550830553e+00 -2.7208509755275291e+01 1.0000000000000000e+00 1.2000000000000000e+01 6.0000000000000000e+00 2.5000000000000000e+00 
143 2 4 1.0280000421664905e+00 7.2199431685237101e+01 1.0000000000000000e+00 1.4000000000000000e+01 4.0000000000000000e+00 2.5000000000000000e+00 
144 2 4 1.0279999840208598e+00 -1.0947187432819538e+02 1.0000000000000000e+00 1.4000000000000000e+01 6.0000000000000000e+00 2.5000000000000000e+00 
163 2 4 1.0280000076327962e+00 1.0460595347350213e+02 1.0000000000000000e+00 1.6000000000000000e+01 4.0000000000000000e+00 2.5000000000000000e+00 
164 2 4 1.0279999557330501e+00 -8.8442876767812528e+00 1.0000000000000000e+00 1.6000000000000000e+01 6.0000000000000000e+00 2.5000000000000000e+00 
183 2 4 1.0279999969839733e+00 2.0223197546516792e+02 1.0000000000000000e+00 1.8000000000000000e+01 4.0000000000000000e+00 2.5000000000000000e+00 
184 2 4 1.0280001012628066e+00 -2.0867159258580724e+01 1.0000000000000000e+00 1.8000000000000000e+01 6.0000000000000000e+00 2.5000000000000000e+00 
5 2 4 1.0280000868737238e+00 -2.5556596172802091e+02 1.0000000000000000e+00 0.0000000000000000e+00 8.0000000000000000e+00 2.5000000000000000e+00 
25 2 4 1.0279999591804874e+00 -2.4850155846359962e+02 1.0000000000000000e+00 2.0000000000000000e+00 8.0000000000000000e+00 2.5000000000000000e+00 
45 2 4 1.0280000709034460e+00 -3.3835881684984702e+02 1.0000000000000000e+00 4.0000000000000000e+00 8.0000000000000000e+00 2.5000000000000000e+00 
65 2 4 1.0279999693180069e+00 -3.1021369292376892e+02 1.0000000000000000e+00 6.0000000000000000e+00 8.0000000000000000e+00 2.5000000000000000e+00 
85 2 4 1.0280000336745330e+00 -1.7960944910804102e+02 1.0000000000000000e+00 8.0000000000000000e+00 8.0000000000000000e+00 2.5000000000000000e+00 
105 2 4 1.0280000095829933e+00 -3.5794922911430964e+00 1.0000000000000000e+00 1.0000000000000000e+01 8.0000000000000000e+00 2.5000000000000000e+00 
125 2 4 1.0280000191782372e+00 -1.7467253608089442e+02 1.0000000000000000e+00 1.2000000000000000e+01 8.0000000000000000e+00 2.5000000000000000e+00 
145 2 4 1.0279999840193264e+00 -1.9565472612443284e+02 1.0000000000000000e+00 1.4000000000000000e+01 8.0000000000000000e+00 2.5000000000000000e+00 
165 2 4 1.0280000576056763e+00 -1.3989126591012854e+02 1.0000000000000000e+00 1.6000000000000000e+01 8.0000000000000000e+00 2.5000000000000000e+00 
185 2 4 1.0279999049546293e+00 -1.7636408780044067e+02 1.0000000000000000e+00 1.8000000000000000e+01 8.0000000000000000e+00 2.5000000000000000e+00 
6 2 4 1.0279999785019374e+00 -2.5773672633699209e+02 1.0000000000000000e+00 0.0000000000000000e+00 1.0000000000000000e+01 2.5000000000000000e+00 
7 2 4 1.0280000502482254e+00 -2.4739114039754025e+02 1.0000000000000000e+00 0.0000000000000000e+00 1.2000000000000000e+01 2.5000000000000000e+00 
26 2 4 1.0280000803642146e+00 -2.1866215946404131e+02 1.0000000000000000e+00 2.0000000000000000e+00 1.0000000000000000e+01 2.5000000000000000e+00 
27 2 4 1.0279999121229111e+00 -2.7578082000292460e+02 1.0000000000000000e+00 2.0000000000000000e+00 1.2000000000000000e+01 2.5000000000000000e+00 
46 2 4 1.0279999425265609e+00 -2.9783751737009572e+02 1.0000000000000000e+00 4.0000000000000000e+00 1.0000000000000000e+01 2.5000000000000000e+00 
47 2 4 1.0280001039035283e+00 -2.0230135000359917e+02 1.0000000000000000e+00 4.0000000000000000e+00 1.2000000000000000e+01 2.5000000000000000e+00 
66 2 4 1.0280001000678212e+00 -2.2321784715703353e+02 1.0000000000000000e+00 6.0000000000000000e+00 1.0000000000000000e+01 2.5000000000000000e+00 
67 2 4 1.0279998864842212e+00 -2.1028594077045227e+02 1.0000000000000000e+00 6.0000000000000000e+00 1.2000000000000000e+01 2.5000000000000000e+00 
86 2 4 1.0279999340063652e+00 -1.7047955954205239e+02 1.0000000000000000e+00 8.0000000000000000e+00 1.0000000000000000e+01 2.5000000000000000e+00 
87 2 4 1.0280001364868123e+00 -2.5119364441664473e+02 1.0000000000000000e+00 8.0000000000000000e+00 1.2000000000000000e+01 2.5000000000000000e+00 
106 2 4 1.0280000867503394e+00 -1.7757359522338550e+02 1.0000000000000000e+00 1.0000000000000000e+01 1.0000000000000000e+01 2.5000000000000000e+00 
107 2 4 1.0279998698623862e+00 -2.2748883894410702e+02 1.0000000000000000e+00 1.0000000000000000e+01 1.2000000000000000e+01 2.5000000000000000e+00 
126 2 4 1.0279999480019737e+00 -2.4568107695465764e+02 1.0000000000000000e+00 1.2000000000000000e+01 1.0000000000000000e+01 2.5000000000000000e+00 
127 2 4 1.0280000923227084e+00 -2.5063548846805634e+02 1.0000000000000000e+00 1.2000000000000000e+01 1.2000000000000000e+01 2.5000000000000000e+00 
146 2 4 1.0280000914299967e+00 -1.8943315380569430e+02 1.0000000000000000e+00 1.4000000000000000e+01 1.0000000000000000e+01 2.5000000000000000e+00 
147 2 4 1.0279998893285200e+00 -1.6270551613006555e+02 1.0000000000000000e+00 1.4000000000000000e+01 1.2000000000000000e+01 2.5000000000000000e+00 
166 2 4 1.0279999213774198e+00 -1.1523186166554009e+02 1.0000000000000000e+00 1.6000000000000000e+01 1.0000000000000000e+01 2.5000000000000000e+00 
167 2 4 1.0280001141061961e+00 -1.6578291326657487e+02 1.0000000000000000e+00 1.6000000000000000e+01 1.2000000000000000e+01 2.5000000000000000e+00 
186 2 4 1.0280000811466070e+00 -2.3150030823922879e+02 1.0000000000000000e+00 1.8000000000000000e+01 1.0000000000000000e+01 2.5000000000000000e+00 
187 2 4 1.0279999492335936e+00 -2.3421349554383508e+02 1.0000000000000000e+00 1.8000000000000000e+01 1.2000000000000000e+01 2.5000000000000000e+00 
8 2 4 1.0280000629048329e+00 -2.8147507085087148e+02 1.0000000000000000e+00 0.0000000000000000e+00 1.4000000000000000e+01 2.5000000000000000e+00 
9 2 4 1.0279998474854879e+00 -2.4128794097101922e+02 1.0000000000000000e+00 0.0000000000000000e+00 1.6000000000000000e+01 2.5000000000000000e+00 
28 2 4 1.0280000441143522e+00 -2.0697912332046786e+02 1.0000000000000000e+00 2.0000000000000000e+00 1.4000000000000000e+01 2.5000000000000000e+00 
29 2 4 1.0280001244030843e+00 -2.3820072960420890e+02 1.0000000000000000e+00 2.0000000000000000e+00 1.6000000000000000e+01 2.5000000000000000e+00 
48 2 4 1.0280000008537447e+00 -2.3406630666237606e+02 1.0000000000000000e+00 4.0000000000000000e+00 1.4000000000000000e+01 2.5000000000000000e+00 
49 2 4 1.0279999414263379e+00 -2.2975277007475296e+02 1.0000000000000000e+00 4.0000000000000000e+00 1.6000000000000000e+01 2.5000000000000000e+00 
68 2 4 1.0280001062424853e+00 -3.0011804371784336e+02 1.0000000000000000e+00 6.0000000000000000e+00 1.4000000000000000e+01 2.5000000000000000e+00 
69 2 4 1.0280000278502932e+00 -2.5529969294617598e+02 1.0000000000000000e+00 6.0000000000000000e+00 1.6000000000000000e+01 2.5000000000000000e+00 
88 2 4 1.0279999239681394e+00 -2.7331668953754087e+02 1.0000000000000000e+00 8.0000000000000000e+00 1.4000000000000000e+01 2.5000000000000000e+00 
89 2 4 1.0280000294358433e+00 -2.8082531857561202e+02 1.0000000000000000e+00 8.0000000000000000e+00 1.6000000000000000e+01 2.5000000000000000e+00 
108 2 4 1.0280000906155768e+00 -2.4246850458492617e+02 1.0000000000000000e+00 1.0000000000000000e+01 1.4000000000000000e+01 2.5000000000000000e+00 
109 2 4 1.0279999458111104e+00 -2.6505605410297147e+02 1.0000000000000000e+00 1.0000000000000000e+01 1.6000000000000000e+01 2.5000000000000000e+00 
128 2 4 1.0279999487156222e+00 -2.1128105450987414e+02 1.0000000000000000e+00 1.2000000000000000e+01 1.4000000000000000e+01 2.5000000000000000e+00 
129 2 4 1.0280000500653264e+00 -2.2253200841321058e+02 1.0000000000000000e+00 1.2000000000000000e+01 1.6000000000000000e+01 2.5000000000000000e+00 
148 2 4 1.0279999927013055e+00 -1.7143342793465160e+02 1.0000000000000000e+00 1.4000000000000000e+01 1.4000000000000000e+01 2.5000000000000000e+00 
149 2 4 1.0280000164157737e+00 -2.7620672257188448e+02 1.0000000000000000e+00 1.4000000000000000e+01 1.6000000000000000e+01 2.5000000000000000e+00 
168 2 4 1.0280000249341665e+00 -2.0871085619456710e+02 1.0000000000000000e+00 1.6000000000000000e+01 1.4000000000000000e+01 2.5000000000000000e+00 
169 2 4 1.0280000158171068e+00 -2.4010834802594306e+02 1.0000000000000000e+00 1.6000000000000000e+01 1.6000000000000000e+01 2.5000000000000000e+00 
188 2 4 1.0279999975564957e+00 -2.6014423072384551e+02 1.0000000000000000e+00 1.8000000000000000e+01 1.4000000000000000e+01 2.5000000000000000e+00 
189 2 4 1.0280000036831514e+00 -2.6873944192880936e+02 1.0000000000000000e+00 1.8000000000000000e+01 1.6000000000000000e+01 2.5000000000000000e+00 
10 2 4 1.0280001446292659e+00 -2.4856883748697936e+02 1.0000000000000000e+00 0.0000000000000000e+00 1.8000000000000000e+01 2.5000000000000000e+00 
30 2 4 1.0279999044616688e+00 -2.6535586141056302e+02 1.0000000000000000e+00 2.0000000000000000e+00 1.8000000000000000e+01 2.5000000000000000e+00 
50 2 4 1.0280001057282795e+00 -2.4147866291852421e+02 1.0000000000000000e+00 4.0000000000000000e+00 1.8000000000000000e+01 2.5000000000000000e+00 
70 2 4 1.0279999892332794e+00 -2.5397405280203913e+02 1.0000000000000000e+00 6.0000000000000000e+00 1.8000000000000000e+01 2.5000000000000000e+00 
90 2 4 1.0279999791446384e+00 -2.6916246192652733e+02 1.0000000000000000e+00 8.0000000000000000e+00 1.8000000000000000e+01 2.5000000000000000e+00 
110 2 4 1.0280000503783553e+00 -2.3863649017125417e+02 1.0000000000000000e+00 1.0000000000000000e+01 1.8000000000000000e+01 2.5000000000000000e+00 
130 2 4 1.0280000365286686e+00 -2.4772862164780349e+02 1.0000000000000000e+00 1.2000000000000000e+01 1.8000000000000000e+01 2.5000000000000000e+00 
150 2 4 1.0279999537289455e+00 -2.3640802232503538e+02 1.0000000000000000e+00 1.4000000000000000e+01 1.8000000000000000e+01 2.5000000000000000e+00 
170 2 4 1.0280000483562788e+00 -2.2901321489050224e+02 1.0000000000000000e+00 1.6000000000000000e+01 1.8000000000000000e+01 2.5000000000000000e+00 
190 2 4 1.0280000477802187e+00 -2.5291828387028607e+02 1.0000000000000000e+00 1.8000000000000000e+01 1.8000000000000000e+01 2.5000000000000000e+00 
482 84 2 1.0280000048442011e+00 6.8894933588687882e+03 1.0000000000000000e+00 2.3078904028206497e+00 2.6063491576732156e+00 5.0850615429448176e+00 
660 262 2 1.0280000046153530e+00 -6.7269440295425156e+03 1.0000000000000000e+00 2.3336650045938212e+00 2.6322408009004841e+00 5.0797185215161225e+00 
1823 1425 2 1.0280000020795077e+00 -2.3388109151009930e+03 1.0000000000000000e+00 1.4772560382354734e+00 9.9106818281285824e-01 5.5588425148390295e+00 
647 249 2 1.0280000101623112e+00 -2.3233662586038317e+03 1.0000000000000000e+00 1.3500725600843595e+00 5.8626428427542887e-01 5.6586295180245623e+00 
451 53 2 1.0279999861424955e+00 7.5737245128988634e+03 1.0000000000000000e+00 1.8876481923076063e+00 2.7003201577801256e-01 5.9501939136237905e+00 
751 353 2 1.0280000010535189e+00 -6.8977951741197512e+02 1.0000000000000000e+00 2.8410384640722213e+00 3.1526675682004042e+00 4.9893599750300064e+00 
1087 689 2 1.0280000055854532e+00 -4.3722371011604628e+03 1.0000000000000000e+00 6.1909614018343033e+00 2.0771929680066856e+00 5.0973860880136010e+00 
1597 1199 2 1.0280000122501693e+00 7.3749035490230945e+03 1.0000000000000000e+00 6.1529320799954554e+00 1.8970474132760722e+00 5.3440627304444179e+00 
1829 1431 2 1.0280000087868892e+00 -8.5195277966060494e+03 1.0000000000000000e+00 5.9862020262078754e+00 2.0806446423858360e+00 5.1749637982231125e+00 
1633 1235 2 1.0280000128850511e+00 8.1914070886192712e+03 1.0000000000000000e+00 5.4341099407733919e+00 1.7750472542934785e+00 5.5043777271842389e+00 
1255 857 2 1.0280000091459636e+00 -4.3819338236002786e+03 1.0000000000000000e+00 4.7006758786167007e+00 3.2337515642726822e-01 5.8309302983618805e+00 
794 396 2 1.0279999986907393e+00 -1.5192657827626922e+03 1.0000000000000000e+00 4.4864419352393128e+00 1.9382433484870005e+00 6.6426575211397125e+00 
2026 1628 2 1.0280000022958464e+00 6.2334828911848654e+03 1.0000000000000000e+00 6.6885188927021169e+00 2.6547029249971903e+00 6.1200166334260739e+00 
966 568 2 1.0280000028825780e+00 -3.6443319699605695e+02 1.0000000000000000e+00 6.7898122342816087e+00 3.0629098124139635e+00 6.2567904644055963e+00 
1288 890 2 1.0280000022968494e+00 6.4633041651956523e+02 1.0000000000000000e+00 9.4676708876347018e+00 1.7622590280318584e+00 5.9163217190326263e+00 
1160 762 2 1.0279999884112287e+00 6.1743308017887023e+02 1.0000000000000000e+00 8.8742330115577364e+00 1.0828137798578708e+00 4.8274076615487118e+00 
2024 1626 2 1.0280000070225646e+00 -1.2522182218851624e+03 1.0000000000000000e+00 8.6729326704536547e+00 1.7746566576270482e+00 5.8742603862853002e+00 
942 544 2 1.0280000048147506e+00 -1.6825338726617583e+03 1.0000000000000000e+00 9.0413622048325184e+00 1.8503182957972923e+00 5.9199016183034852e+00 
1071 673 2 1.0280000086873635e+00 -3.0274668853562116e+03 1.0000000000000000e+00 9.1788916263933569e+00 2.7218048877872230e+00 6.2207472448350902e+00 
1293 895 2 1.0280000181378386e+00 -5.2072622326420287e+02 1.0000000000000000e+00 1.0806083707653519e+01 1.5338758726303960e+00 6.0924080350529106e+00 
1120 722 2 1.0279999834758329e+00 5.7983875276859544e+02 1.0000000000000000e+00 1.2292589565972301e+01 2.1293183900380654e+00 5.2820495402653940e+00 
1376 978 2 1.0279999925383856e+00 -7.9979275443848269e+02 1.0000000000000000e+00 1.1963911717271172e+01 1.9591967141257765e+00 5.3358290493636300e+00 
762 364 2 1.0280000066292809e+00 -1.6418644048069959e+03 1.0000000000000000e+00 1.2937213060231056e+01 3.0009489827145535e+00 5.1953322811253502e+00 
1322 924 2 1.0280000063529779e+00 8.6719568209793033e+02 1.0000000000000000e+00 1.3297464897140445e+01 3.2924475127321848e+00 5.3142215378291873e+00 
1491 1093 2 1.0280000150404032e+00 -1.7315712738855409e+03 1.0000000000000000e+00 1.3017223516369773e+01 4.2075098983261422e-01 5.8878326286739986e+00 
1515 1117 2 1.0280000158669993e+00 -9.2309912462214800e+02 1.0000000000000000e+00 1.2229392852224974e+01 4.1850791948044241e-01 5.4619257800256857e+00 
1542 1144 2 1.0280000119043469e+00 -1.4115089485302078e+03 1.0000000000000000e+00 1.2061477320450573e+01 3.3334043161794763e-01 5.4946651946372178e+00 
1108 710 2 1.0280000099836468e+00 1.5058598115664120e+03 1.0000000000000000e+00 1.2039806229108009e+01 2.6199327014711460e-01 5.5437789183392132e+00 
1647 1249 2 1.0280000154214470e+00 -2.0211867806489176e+03 1.0000000000000000e+00 1.5533163203338205e+01 2.8934378645386127e+00 5.4888986811267708e+00 
2057 1659 2 1.0279999658966958e+00 2.2895498861529936e+03 1.0000000000000000e+00 1.5668175679278907e+01 2.6560017092034318e+00 5.2625299312649503e+00 
1898 1500 2 1.0280000165175009e+00 -2.8850666789809034e+03 1.0000000000000000e+00 1.5502792477994621e+01 2.9065459005684109e+00 5.4981319773059152e+00 
1063 665 2 1.0280000108521412e+00 -1.6461536070434900e+03 1.0000000000000000e+00 1.5673480726108473e+01 2.8872105233401664e+00 5.4629238666247266e+00 
1742 1344 2 1.0280000140134415e+00 -2.2580818752778387e+03 1.0000000000000000e+00 1.5519013787661322e+01 2.8366633917714559e+00 5.4704204388246769e+00 
1672 1274 2 1.0280000154616578e+00 9.3187211299551236e+03 1.0000000000000000e+00 1.5249931477155981e+01 3.0881898033059492e+00 5.5479020778663459e+00 
2043 1645 2 1.0279999974964051e+00 3.7580824866376820e+03 1.0000000000000000e+00 1.3551226078834659e+01 3.3236677411341482e+00 5.5469567222903002e+00 
673 275 2 1.0280000049962066e+00 -4.4304861826611968e+03 1.0000000000000000e+00 1.8024941234884835e+01 3.0997664427407106e+00 5.4908786551930540e+00 
1220 822 2 1.0280000050021993e+00 -1.1871405778764338e+03 1.0000000000000000e+00 1.8025744492745897e+01 3.0987919710996583e+00 5.4909756885290024e+00 
1342 944 2 1.0280000052525640e+00 -2.0009812796429983e+03 1.0000000000000000e+00 1.8055002429284706e+01 3.0061661917854221e+00 5.4922167597871230e+00 
1775 1377 2 1.0280000055444103e+00 -3.9995795114027264e+03 1.0000000000000000e+00 1.8106894761447105e+01 2.9514686330619804e+00 5.4946442872685983e+00 
1392 994 2 1.0280000062625856e+00 4.3587011582921423e+03 1.0000000000000000e+00 1.8343302424116658e+01 2.6165344517237203e+00 5.4551431867693276e+00 
617 219 2 1.0280000053976970e+00 -4.4759291638295635e+03 1.0000000000000000e+00 1.8102366463845851e+01 3.1418401149297144e+00 5.4969580981887747e+00 
1801 1403 2 1.0280000110996623e+00 -5.6331076742732239e+03 1.0000000000000000e+00 1.9456618205216414e+00 4.2681514627574240e+00 5.6326660842641632e+00 
1433 1035 2 1.0280000197383623e+00 1.8681765332902492e+03 1.0000000000000000e+00 3.2832883829292827e+00 5.1180889195402886e+00 6.0637845706439926e+00 
720 322 2 1.0279999997871327e+00 -1.4537786541459441e+03 1.0000000000000000e+00 2.4750639984355685e+00 6.4089253114134319e+00 5.3160186098544937e+00 
753 355 2 1.0280000094131359e+00 6.1290543932698074e+03 1.0000000000000000e+00 2.7789486928643523e+00 6.5156936197630237e+00 5.5240362978960347e+00 
1967 1569 2 1.0280000096052262e+00 6.3968398757019113e+03 1.0000000000000000e+00 3.0309150490148604e+00 6.5913103401204225e+00 5.6008630566121358e+00 
480 82 2 1.0280000092935127e+00 -1.0486354007766255e+04 1.0000000000000000e+00 2.8600781560982460e+00 6.5563474889721807e+00 5.5573422034038273e+00 
1782 1384 2 1.0280000095698660e+00 -3.4308301954372737e+03 1.0000000000000000e+00 3.0293449102460825e+00 6.5923124168542095e+00 5.6007473555136542e+00 
413 15 2 1.0280000094892916e+00 2.3309482068590346e+03 1.0000000000000000e+00 2.9818750738766506e+00 6.5850421022175789e+00 5.5908861994657268e+00 
622 224 2 1.0280000178500466e+00 -3.3165293412128954e+03 1.0000000000000000e+00 1.1636430856975920e-01 6.2040716879337880e+00 4.9538675320319694e+00 
1569 1171 2 1.0280000034373049e+00 -5.0479919971651871e+03 1.0000000000000000e+00 6.6019702622621601e+00 3.6823716954617374e+00 6.3128876350962910e+00 
854 456 2 1.0279999974530611e+00 -1.7889718401420137e+03 1.0000000000000000e+00 3.6464295272096066e+00 3.8462681682341384e+00 4.8838017270516634e+00 
1835 1437 2 1.0279999863726312e+00 -1.8684875273012535e+03 1.0000000000000000e+00 5.1690323101627245e+00 5.0462263655588186e+00 5.1284778597553071e+00 
1648 1250 2 1.0280000067061361e+00 8.5174074141219899e+03 1.0000000000000000e+00 6.2808766844176649e+00 5.4892885213279996e+00 5.6389687268508277e+00 
822 424 2 1.0280000061833283e+00 -1.7577162993884781e+03 1.0000000000000000e+00 6.2624088904988406e+00 5.6475583707669381e+00 5.5652077302401217e+00 
1945 1547 2 1.0280000071328423e+00 4.4594926382039212e+03 1.0000000000000000e+00 6.4624799099720454e+00 5.3718414820456770e+00 5.7360987025963883e+00 
975 577 2 1.0280000074160638e+00 -1.3342201899756897e+03 1.0000000000000000e+00 5.9801217935788626e+00 5.4407858587005578e+00 5.5708470190249990e+00 
1631 1233 2 1.0280000023305143e+00 -3.1980971848520585e+03 1.0000000000000000e+00 7.5948276763738054e+00 5.4964166625390414e+00 5.3615131741238669e+00 
782 384 2 1.0279999926746239e+00 -9.2142254074982793e+02 1.0000000000000000e+00 7.4301436001458727e+00 5.6458122494479097e+00 5.1627542760421532e+00 
2011 1613 2 1.0279999926946919e+00 6.9176414212969194e+03 1.0000000000000000e+00 9.1073740395226039e+00 3.9744640246107448e+00 5.1534898316832845e+00 
1836 1438 2 1.0280000099255691e+00 -6.8173873950741290e+03 1.0000000000000000e+00 7.7801265795219114e+00 5.3137517774873997e+00 5.5378530783104898e+00 
1048 650 2 1.0280000103005587e+00 1.7900967570453713e+03 1.0000000000000000e+00 8.1184726163895782e+00 3.9220992457842887e+00 6.4873505038939268e+00 
1200 802 2 1.0279999973303522e+00 -7.2789300349046471e+02 1.0000000000000000e+00 9.6722451940763339e+00 3.4668281017285256e+00 5.1706804230301833e+00 
1358 960 2 1.0279999975404976e+00 -6.5122243938842712e+02 1.0000000000000000e+00 9.5850389504598912e+00 3.4377488168031820e+00 5.1215343500800028e+00 
1185 787 2 1.0280000043947375e+00 -1.2376059293072415e+03 1.0000000000000000e+00 1.2529475779023866e+01 5.2436657817881782e+00 5.5360160310038973e+00 
787 389 2 1.0280000046460041e+00 -4.3042486531690349e+02 1.0000000000000000e+00 1.2556260481448907e+01 5.2411218227189487e+00 5.5301093795495779e+00 
1125 727 2 1.0280000047499620e+00 -5.9720194187400966e+02 1.0000000000000000e+00 1.2568545388738048e+01 5.2408883214110595e+00 5.5288141157382604e+00 
434 36 2 1.0280000236127291e+00 4.9893221193793734e+03 1.0000000000000000e+00 1.0955499916936372e+01 4.2310831269031608e+00 5.8425510331707216e+00 
1724 1326 2 1.0280000104808698e+00 8.7090500704598944e+03 1.0000000000000000e+00 1.1442459305522370e+01 3.9446217992297217e+00 6.1489079807575440e+00 
987 589 2 1.0279999981530221e+00 -1.8375127375098803e+03 1.0000000000000000e+00 1.0610177204608870e+01 6.5285096617497054e+00 4.7614366729680659e+00 
733 335 2 1.0279999991004805e+00 9.6400949157810260e+02 1.0000000000000000e+00 1.0520120136532293e+01 6.5928324592821825e+00 4.8061063240819717e+00 
924 526 2 1.0280000085676275e+00 2.2998453823049226e+03 1.0000000000000000e+00 1.5394159208865416e+01 6.0094291272231750e+00 5.6153181275072024e+00 
1787 1389 2 1.0280000060737826e+00 -4.3046312662992186e+03 1.0000000000000000e+00 1.5715908288168714e+01 6.3600117759395118e+00 5.6779810656633938e+00 
1561 1163 2 1.0280000070772013e+00 4.5004473939318268e+03 1.0000000000000000e+00 1.5553910869514638e+01 6.1858582205270887e+00 5.6485846182513342e+00 
2076 1678 2 1.0280000083219543e+00 1.1379186739915852e+02 1.0000000000000000e+00 1.5417451403749794e+01 6.0353785111059333e+00 5.6203946206686739e+00 
1170 772 2 1.0280000033179937e+00 1.2921700283558430e+03 1.0000000000000000e+00 1.3899731987542713e+01 6.5474573771855367e+00 5.8440929580363692e+00 
640 242 2 1.0280000148188266e+00 -7.6732210760109247e+03 1.0000000000000000e+00 1.9753786678657001e+01 3.3979831531382998e+00 5.4907491400851001e+00 
1171 773 2 1.0279999899614509e+00 1.3302682091336255e+03 1.0000000000000000e+00 1.7164206050066330e+01 6.5016913594661618e+00 4.9695668215936761e+00 
1082 684 2 1.0279999996533957e+00 -1.8918933639607535e+03 1.0000000000000000e+00 1.8476741980126203e+01 6.5362045065937160e+00 5.4203116891259917e+00 
1111 713 2 1.0280000006339101e+00 -5.3182116370926201e+02 1.0000000000000000e+00 2.8018881016836317e+00 8.7911954131747994e+00 5.8140062438028428e+00 
842 444 2 1.0280000009594632e+00 6.0142654743287108e+02 1.0000000000000000e+00 2.0194731487307331e+00 9.3606652176624952e+00 5.2449876357630716e+00 
1891 1493 2 1.0280000004635137e+00 -9.6686017221994643e+02 1.0000000000000000e+00 2.1234756418768024e+00 9.3096718072386864e+00 5.4134267958055444e+00 
1304 906 2 1.0280000012293462e+00 -1.7165798198623970e+03 1.0000000000000000e+00 2.5861506673341434e+00 9.1449336452937455e+00 5.7592013030344864e+00 
1593 1195 2 1.0280000019604143e+00 6.2208917011279818e+03 1.0000000000000000e+00 3.3533785770443871e+00 8.5685259445784077e+00 5.8860725907792206e+00 
1847 1449 2 1.0280000125734374e+00 -2.0372643129209775e+03 1.0000000000000000e+00 4.6311590836399876e+00 8.8122344698307078e+00 5.3531738443525754e+00 
978 580 2 1.0279999924522167e+00 -2.5688952897768235e+02 1.0000000000000000e+00 4.4537047384303978e+00 8.8060124903848447e+00 4.9254830294751848e+00 
1320 922 2 1.0279999837960982e+00 6.7168360171056474e+02 1.0000000000000000e+00 5.7390340768664636e+00 9.9255248254894148e+00 5.1899245337530724e+00 
827 429 2 1.0280000123517492e+00 -1.4633017153193850e+03 1.0000000000000000e+00 6.0597182961860021e+00 7.9856297404753791e+00 6.0870896258670681e+00 
971 573 2 1.0280000140776451e+00 -9.2081547806731280e+01 1.0000000000000000e+00 6.2783857879136811e+00 7.8391724587736542e+00 6.1330235974340557e+00 
1193 795 2 1.0280000031599941e+00 -1.0575617547296861e+02 1.0000000000000000e+00 7.5868420634201303e+00 9.0917143109271219e+00 5.3850555947291880e+00 
1837 1439 2 1.0280000041510697e+00 -9.0705072347076712e+03 1.0000000000000000e+00 7.5439078375599786e+00 8.7651215208390649e+00 5.3702188456391955e+00 
1918 1520 2 1.0279999992397342e+00 -7.0983659927672979e+03 1.0000000000000000e+00 7.5196905648012091e+00 8.4953424197657874e+00 5.1550393413588580e+00 
503 105 2 1.0280000242588669e+00 7.9908447705469171e+03 1.0000000000000000e+00 7.2626105225738424e+00 7.9885960965142306e+00 5.9034897861200086e+00 
1584 1186 2 1.0280000000992215e+00 1.8814238334312518e+03 1.0000000000000000e+00 7.5410702409607762e+00 8.8606959727245673e+00 5.1244688149501370e+00 
945 547 2 1.0280000021886666e+00 -6.7861315542384796e+02 1.0000000000000000e+00 7.5053513415920170e+00 9.6501097502932875e+00 5.7866663755165444e+00 
1124 726 2 1.0280000061589216e+00 7.7403407149126861e+02 1.0000000000000000e+00 1.0927526003685692e+01 6.8217315051722522e+00 6.3033898441719787e+00 
1827 1429 2 1.0280000050129794e+00 6.0324175941083809e+02 1.0000000000000000e+00 1.0572608674389928e+01 7.9322251313974332e+00 5.9794907362251610e+00 
668 270 2 1.0280000032659000e+00 -4.4144958281442341e+03 1.0000000000000000e+00 1.0794761040392540e+01 7.8540962008632915e+00 6.0724829831984666e+00 