LAMMPS data file via write_data, version 30 Jul 2016, timestep = 50000000

180 atoms
2 atom types

0.0000000000000000e+00 2.0000000000000000e+01 xlo xhi
0.0000000000000000e+00 2.0000000000000000e+01 ylo yhi
0.0000000000000000e+00 2.0000000000000000e+01 zlo zhi

Masses

1 3.896
2 4.31

Atoms # meso-molecular

12 1 2 4.9517579028663222e-01 -1.2961193240562466e+02 1.0000000000000000e+00 7.4327215614774476e+00 1.0464502888163606e+01 1.4999042470275434e+01 
145 1 2 4.9517579028663222e-01 -3.3953167531436588e+02 1.0000000000000000e+00 7.4327215614774769e+00 1.0464502888163613e+01 1.4999042470274906e+01 
55 1 2 4.9517579028663222e-01 -3.4412665831394156e+02 1.0000000000000000e+00 7.4327215614773818e+00 1.0464502888163620e+01 1.4999042470275610e+01 
156 1 2 4.9517579028663222e-01 -4.2922412884345351e+02 1.0000000000000000e+00 7.4327215614774991e+00 1.0464502888163624e+01 1.4999042470275457e+01 
67 1 2 4.9517579028663222e-01 -3.9331522868813363e+02 1.0000000000000000e+00 7.4327215614775497e+00 1.0464502888163599e+01 1.4999042470276040e+01 
97 1 2 4.9517579028663222e-01 -4.0757225778077031e+02 1.0000000000000000e+00 7.4327215614774751e+00 1.0464502888163606e+01 1.4999042470275198e+01 
121 1 2 4.9517579028663222e-01 -4.1139902575837749e+02 1.0000000000000000e+00 7.4327215614774413e+00 1.0464502888163599e+01 1.4999042470275464e+01 
49 1 2 4.9517579028663222e-01 -4.2184435191689840e+02 1.0000000000000000e+00 7.4327215614774254e+00 1.0464502888163613e+01 1.4999042470275944e+01 
83 1 2 4.9517579028663222e-01 -4.3564370301165036e+02 1.0000000000000000e+00 7.4327215614774165e+00 1.0464502888163603e+01 1.4999042470276301e+01 
41 1 2 4.9517579028663222e-01 -4.3460983928511865e+02 1.0000000000000000e+00 7.4327215614775204e+00 1.0464502888163596e+01 1.4999042470275580e+01 
119 1 2 4.9517579028663222e-01 -4.1963187689936296e+02 1.0000000000000000e+00 7.4327215614773960e+00 1.0464502888163617e+01 1.4999042470276834e+01 
3 1 2 4.9517579028663222e-01 -4.5278723122736028e+02 1.0000000000000000e+00 7.4327215614774262e+00 1.0464502888163613e+01 1.4999042470276125e+01 
174 1 2 4.9517579028663222e-01 -4.4711733427362458e+02 1.0000000000000000e+00 7.4327215614774884e+00 1.0464502888163613e+01 1.4999042470276118e+01 
91 1 2 4.9517579028663222e-01 -4.3061527612437749e+02 1.0000000000000000e+00 7.4327215614775195e+00 1.0464502888163596e+01 1.4999042470278001e+01 
125 1 2 4.9517579028663222e-01 -4.5747102140686377e+02 1.0000000000000000e+00 7.4327215614773969e+00 1.0464502888163592e+01 1.4999042470275095e+01 
1 1 2 4.9517579028663222e-01 -4.2848675538750604e+02 1.0000000000000000e+00 7.4327215614774049e+00 1.0464502888163617e+01 1.4999042470275469e+01 
132 1 2 4.9517579028663222e-01 -4.1882657751004331e+02 1.0000000000000000e+00 7.4327215614774538e+00 1.0464502888163617e+01 1.4999042470275320e+01 
113 1 2 4.9517579028663222e-01 -4.2177716120184084e+02 1.0000000000000000e+00 7.4327215614774111e+00 1.0464502888163628e+01 1.4999042470277125e+01 
4 1 2 4.9517579028663222e-01 -4.5545955007260204e+02 1.0000000000000000e+00 7.4327215614773969e+00 1.0464502888163613e+01 1.4999042470274834e+01 
147 1 2 4.9517579028663222e-01 -4.3818329542748404e+02 1.0000000000000000e+00 7.4327215614775115e+00 1.0464502888163603e+01 1.4999042470276315e+01 
77 1 2 4.9517579028663222e-01 -3.9318794849235883e+02 1.0000000000000000e+00 7.4327215614773756e+00 1.0464502888163596e+01 1.4999042470274899e+01 
78 1 2 4.9517579028663222e-01 -3.6804548221632172e+02 1.0000000000000000e+00 7.4327215614774040e+00 1.0464502888163613e+01 1.4999042470274802e+01 
149 1 2 4.9517579028663222e-01 -4.2561312217491036e+02 1.0000000000000000e+00 7.4327215614774067e+00 1.0464502888163620e+01 1.4999042470275727e+01 
73 1 2 4.9517579028663222e-01 -3.6401945251316806e+02 1.0000000000000000e+00 7.4327215614773943e+00 1.0464502888163599e+01 1.4999042470276725e+01 
115 1 2 4.9517579028663222e-01 -4.2065774195471590e+02 1.0000000000000000e+00 7.4327215614773960e+00 1.0464502888163624e+01 1.4999042470274963e+01 
37 1 2 4.9517579028663222e-01 -3.6912862468376863e+02 1.0000000000000000e+00 7.4327215614773898e+00 1.0464502888163606e+01 1.4999042470275018e+01 
168 1 2 4.9517579028663222e-01 -4.8032943001843125e+02 1.0000000000000000e+00 7.4327215614774866e+00 1.0464502888163603e+01 1.4999042470274926e+01 
138 1 2 4.9517579028663222e-01 -4.1323373800835719e+02 1.0000000000000000e+00 7.4327215614775186e+00 1.0464502888163628e+01 1.4999042470274787e+01 
126 1 2 4.9517579028663222e-01 -4.2838348354271034e+02 1.0000000000000000e+00 7.4327215614774600e+00 1.0464502888163606e+01 1.4999042470275421e+01 
48 1 2 4.9517579028663222e-01 -4.0363846091772859e+02 1.0000000000000000e+00 7.4327215614775497e+00 1.0464502888163628e+01 1.4999042470274384e+01 
19 1 2 4.9517579028663222e-01 -4.6898513747379582e+02 1.0000000000000000e+00 7.4327215614774049e+00 1.0464502888163617e+01 1.4999042470274137e+01 
42 1 2 4.9517579028663222e-01 -3.7446674149867169e+02 1.0000000000000000e+00 7.4327215614774493e+00 1.0464502888163610e+01 1.4999042470275510e+01 
71 1 2 4.9517579028663222e-01 -4.0783618787215403e+02 1.0000000000000000e+00 7.4327215614774502e+00 1.0464502888163610e+01 1.4999042470275258e+01 
25 1 2 4.9517579028663222e-01 -4.5393198605606489e+02 1.0000000000000000e+00 7.4327215614775337e+00 1.0464502888163620e+01 1.4999042470275683e+01 
43 1 2 4.9517579028663222e-01 -3.4852779171104726e+02 1.0000000000000000e+00 7.4327215614774760e+00 1.0464502888163599e+01 1.4999042470276487e+01 
13 1 2 4.9517579028663222e-01 -4.6230493169075083e+02 1.0000000000000000e+00 7.4327215614774458e+00 1.0464502888163603e+01 1.4999042470275677e+01 
88 1 2 4.9517579028663222e-01 -4.8603221540130778e+02 1.0000000000000000e+00 7.4327215614774946e+00 1.0464502888163613e+01 1.4999042470275066e+01 
20 1 2 4.9517579028663222e-01 -5.0341182735682935e+02 1.0000000000000000e+00 7.4327215614774120e+00 1.0464502888163610e+01 1.4999042470275768e+01 
128 1 2 4.9517579028663222e-01 -4.7582861940300825e+02 1.0000000000000000e+00 7.4327215614774280e+00 1.0464502888163610e+01 1.4999042470276203e+01 
143 1 2 4.9517579028663222e-01 -4.1292294085240405e+02 1.0000000000000000e+00 7.4327215614774262e+00 1.0464502888163638e+01 1.4999042470276246e+01 
52 1 2 4.9517579028663222e-01 -4.9524827554720230e+02 1.0000000000000000e+00 7.4327215614774209e+00 1.0464502888163606e+01 1.4999042470274736e+01 
167 1 2 4.9517579028663222e-01 -5.2378410573727479e+02 1.0000000000000000e+00 7.4327215614774262e+00 1.0464502888163606e+01 1.4999042470274382e+01 
16 1 2 4.9517579028663222e-01 -5.2450884858295592e+02 1.0000000000000000e+00 7.4327215614774476e+00 1.0464502888163620e+01 1.4999042470276709e+01 
72 1 2 4.9517579028663222e-01 -3.9651111920987262e+02 1.0000000000000000e+00 7.4327215614775186e+00 1.0464502888163588e+01 1.4999042470276930e+01 
50 1 2 4.9517579028663222e-01 -4.6897280465995971e+02 1.0000000000000000e+00 7.4327215614775239e+00 1.0464502888163603e+01 1.4999042470274834e+01 
124 1 2 4.9517579028663222e-01 -4.9991517559855851e+02 1.0000000000000000e+00 7.4327215614774156e+00 1.0464502888163620e+01 1.4999042470274789e+01 
111 1 2 4.9517579028663222e-01 -4.4487096140573914e+02 1.0000000000000000e+00 7.4327215614774866e+00 1.0464502888163599e+01 1.4999042470274917e+01 
110 1 2 4.9517579028663222e-01 -4.3702949817459239e+02 1.0000000000000000e+00 7.4327215614774245e+00 1.0464502888163620e+01 1.4999042470275194e+01 
9 1 2 4.9517579028663222e-01 -5.1419525663898241e+02 1.0000000000000000e+00 7.4327215614775035e+00 1.0464502888163592e+01 1.4999042470276196e+01 
177 1 2 4.9517579028663222e-01 -4.6453192031380672e+02 1.0000000000000000e+00 7.4327215614775035e+00 1.0464502888163610e+01 1.4999042470271544e+01 
70 1 2 4.9517579028663222e-01 -4.2849235144801162e+02 1.0000000000000000e+00 7.4327215614774680e+00 1.0464502888163606e+01 1.4999042470275855e+01 
152 1 2 4.9517579028663222e-01 -4.9205800571231600e+02 1.0000000000000000e+00 7.4327215614775470e+00 1.0464502888163613e+01 1.4999042470274844e+01 
154 1 2 4.9517579028663222e-01 -5.1941917210322936e+02 1.0000000000000000e+00 7.4327215614773907e+00 1.0464502888163610e+01 1.4999042470275871e+01 
8 1 2 4.9517579028663222e-01 -4.9137232740148443e+02 1.0000000000000000e+00 7.4327215614773907e+00 1.0464502888163610e+01 1.4999042470273967e+01 
38 1 2 4.9517579028663222e-01 -4.3505149879273523e+02 1.0000000000000000e+00 7.4327215614773960e+00 1.0464502888163606e+01 1.4999042470275173e+01 
160 1 2 4.9517579028663222e-01 -5.2179377075982177e+02 1.0000000000000000e+00 7.4327215614775239e+00 1.0464502888163606e+01 1.4999042470274853e+01 
117 1 2 4.9517579028663222e-01 -4.6887867992375118e+02 1.0000000000000000e+00 7.4327215614774467e+00 1.0464502888163610e+01 1.4999042470276789e+01 
46 1 2 4.9517579028663222e-01 -4.8269463878351479e+02 1.0000000000000000e+00 7.4327215614773898e+00 1.0464502888163596e+01 1.4999042470274855e+01 
74 1 2 4.9517579028663222e-01 -3.9413921321703191e+02 1.0000000000000000e+00 7.4327215614775515e+00 1.0464502888163613e+01 1.4999042470275793e+01 
151 1 2 4.9517579028663222e-01 -3.3372992373751254e+02 1.0000000000000000e+00 7.4327215614774733e+00 1.0464502888163624e+01 1.4999042470276379e+01 
89 1 2 4.9517579028663222e-01 -4.6553000890667840e+02 1.0000000000000000e+00 7.4327215614774440e+00 1.0464502888163599e+01 1.4999042470277304e+01 
142 1 2 4.9517579028663222e-01 -4.3486990324763065e+02 1.0000000000000000e+00 7.4327215614774289e+00 1.0464502888163620e+01 1.4999042470274651e+01 
166 1 2 4.9517579028663222e-01 -5.3115396167627557e+02 1.0000000000000000e+00 7.4327215614773978e+00 1.0464502888163620e+01 1.4999042470275667e+01 
39 1 2 4.9517579028663222e-01 -4.4086573353279232e+02 1.0000000000000000e+00 7.4327215614774733e+00 1.0464502888163613e+01 1.4999042470275180e+01 
65 1 2 4.9517579028663222e-01 -4.8343917043354224e+02 1.0000000000000000e+00 7.4327215614775506e+00 1.0464502888163617e+01 1.4999042470274484e+01 
173 1 2 4.9517579028663222e-01 -5.0415104752471086e+02 1.0000000000000000e+00 7.4327215614773863e+00 1.0464502888163599e+01 1.4999042470275139e+01 
179 1 2 4.9517579028663222e-01 -4.5237383008760685e+02 1.0000000000000000e+00 7.4327215614774271e+00 1.0464502888163599e+01 1.4999042470275590e+01 
101 1 2 4.9517579028663222e-01 -4.3719620258414307e+02 1.0000000000000000e+00 7.4327215614774245e+00 1.0464502888163620e+01 1.4999042470275489e+01 
28 1 2 4.9517579028663222e-01 -5.0274577497122067e+02 1.0000000000000000e+00 7.4327215614774769e+00 1.0464502888163610e+01 1.4999042470274315e+01 
176 1 2 4.9517579028663222e-01 -4.9144637358607827e+02 1.0000000000000000e+00 7.4327215614775453e+00 1.0464502888163620e+01 1.4999042470274434e+01 
100 1 2 4.9517579028663222e-01 -4.6309179485448874e+02 1.0000000000000000e+00 7.4327215614774556e+00 1.0464502888163599e+01 1.4999042470275331e+01 
122 1 2 4.9517579028663222e-01 -4.8066364025248174e+02 1.0000000000000000e+00 7.4327215614774742e+00 1.0464502888163606e+01 1.4999042470275530e+01 
136 1 2 4.9517579028663222e-01 -4.7669584970476762e+02 1.0000000000000000e+00 7.4327215614774529e+00 1.0464502888163610e+01 1.4999042470275894e+01 
68 1 2 4.9517579028663222e-01 -4.5230808895424116e+02 1.0000000000000000e+00 7.4327215614774271e+00 1.0464502888163610e+01 1.4999042470275324e+01 
104 1 2 4.9517579028663222e-01 -4.1391264244985848e+02 1.0000000000000000e+00 7.4327215614774182e+00 1.0464502888163613e+01 1.4999042470274841e+01 
32 1 2 4.9517579028663222e-01 -4.8087727227321045e+02 1.0000000000000000e+00 7.4327215614775177e+00 1.0464502888163599e+01 1.4999042470275691e+01 
22 1 2 4.9517579028663222e-01 -5.2524832557158334e+02 1.0000000000000000e+00 7.4327215614773969e+00 1.0464502888163599e+01 1.4999042470274780e+01 
17 1 2 4.9517579028663222e-01 -5.0571719353319975e+02 1.0000000000000000e+00 7.4327215614774227e+00 1.0464502888163610e+01 1.4999042470275262e+01 
130 1 2 4.9517579028663222e-01 -5.1242995495232037e+02 1.0000000000000000e+00 7.4327215614774262e+00 1.0464502888163596e+01 1.4999042470276477e+01 
58 1 2 4.9517579028663222e-01 -5.0889491000855548e+02 1.0000000000000000e+00 7.4327215614773881e+00 1.0464502888163596e+01 1.4999042470274802e+01 
40 1 2 4.9517579028663222e-01 -4.4200016658085883e+02 1.0000000000000000e+00 7.4327215614774902e+00 1.0464502888163624e+01 1.4999042470276301e+01 
45 1 2 4.9517579028663222e-01 -4.8635436753154505e+02 1.0000000000000000e+00 7.4327215614774493e+00 1.0464502888163613e+01 1.4999042470275620e+01 
23 1 2 4.9517579028663222e-01 -4.9239775942614017e+02 1.0000000000000000e+00 7.4327215614774538e+00 1.0464502888163596e+01 1.4999042470275834e+01 
35 1 2 4.9517579028663222e-01 -4.7117160394619259e+02 1.0000000000000000e+00 7.4327215614774431e+00 1.0464502888163603e+01 1.4999042470275072e+01 
34 1 2 4.9517579028663222e-01 -4.8319602407867615e+02 1.0000000000000000e+00 7.4327215614774991e+00 1.0464502888163592e+01 1.4999042470276480e+01 
87 1 2 4.9517579028663222e-01 -4.8844381807981460e+02 1.0000000000000000e+00 7.4327215614774005e+00 1.0464502888163606e+01 1.4999042470274199e+01 
14 1 2 4.9517579028663222e-01 -5.0169714138549477e+02 1.0000000000000000e+00 7.4327215614774191e+00 1.0464502888163610e+01 1.4999042470275658e+01 
172 1 2 4.9517579028663222e-01 -5.1460677998374297e+02 1.0000000000000000e+00 7.4327215614774920e+00 1.0464502888163596e+01 1.4999042470275672e+01 
92 1 2 4.9517579028663222e-01 -4.6837241580375451e+02 1.0000000000000000e+00 7.4327215614773783e+00 1.0464502888163606e+01 1.4999042470275143e+01 
94 1 2 4.9517579028663222e-01 -4.9248229744853734e+02 1.0000000000000000e+00 7.4327215614773801e+00 1.0464502888163588e+01 1.4999042470275304e+01 
81 1 2 4.9517579028663222e-01 -4.5752654481045238e+02 1.0000000000000000e+00 7.4327215614774786e+00 1.0464502888163624e+01 1.4999042470275919e+01 
11 1 2 4.9517579028663222e-01 -4.9331019214355513e+02 1.0000000000000000e+00 7.4327215614775008e+00 1.0464502888163603e+01 1.4999042470275242e+01 
155 1 2 4.9517579028663222e-01 -4.7741499880368451e+02 1.0000000000000000e+00 7.4327215614773801e+00 1.0464502888163606e+01 1.4999042470276263e+01 
137 1 2 4.9517579028663222e-01 -4.7077847975523446e+02 1.0000000000000000e+00 7.4327215614774369e+00 1.0464502888163606e+01 1.4999042470274778e+01 
64 1 2 4.9517579028663222e-01 -4.8591290369995602e+02 1.0000000000000000e+00 7.4327215614774644e+00 1.0464502888163610e+01 1.4999042470275532e+01 
47 1 2 4.9517579028663222e-01 -4.6581822908777679e+02 1.0000000000000000e+00 7.4327215614773925e+00 1.0464502888163606e+01 1.4999042470274937e+01 
29 1 2 4.9517579028663222e-01 -5.0639493512903846e+02 1.0000000000000000e+00 7.4327215614774680e+00 1.0464502888163599e+01 1.4999042470275716e+01 
75 1 2 4.9517579028663222e-01 -4.1560567366933412e+02 1.0000000000000000e+00 7.4327215614775097e+00 1.0464502888163599e+01 1.4999042470275002e+01 
15 1 2 4.9517579028663222e-01 -5.3116659249592863e+02 1.0000000000000000e+00 7.4327215614773818e+00 1.0464502888163596e+01 1.4999042470276629e+01 
159 1 2 4.9517579028663222e-01 -5.3455471287418106e+02 1.0000000000000000e+00 7.4327215614774547e+00 1.0464502888163599e+01 1.4999042470275629e+01 
82 1 2 4.9517579028663222e-01 -4.4730767372146727e+02 1.0000000000000000e+00 7.4327215614774031e+00 1.0464502888163620e+01 1.4999042470274668e+01 
158 1 2 4.9517579028663222e-01 -5.1422625993343536e+02 1.0000000000000000e+00 7.4327215614775231e+00 1.0464502888163599e+01 1.4999042470275622e+01 
169 1 2 4.9517579028663222e-01 -4.8433472044860594e+02 1.0000000000000000e+00 7.4327215614774591e+00 1.0464502888163606e+01 1.4999042470276459e+01 
131 1 2 4.9517579028663222e-01 -4.7969839902085090e+02 1.0000000000000000e+00 7.4327215614774600e+00 1.0464502888163571e+01 1.4999042470275047e+01 
180 1 2 4.9517579028663222e-01 -4.3751485288919525e+02 1.0000000000000000e+00 7.4327215614775390e+00 1.0464502888163592e+01 1.4999042470275418e+01 
178 1 2 4.9517579028663222e-01 -4.3525907250137669e+02 1.0000000000000000e+00 7.4327215614774111e+00 1.0464502888163596e+01 1.4999042470274267e+01 
144 1 2 4.9517579028663222e-01 -4.0607711617014866e+02 1.0000000000000000e+00 7.4327215614774484e+00 1.0464502888163603e+01 1.4999042470275311e+01 
146 1 2 4.9517579028663222e-01 -4.7473226566968015e+02 1.0000000000000000e+00 7.4327215614773969e+00 1.0464502888163613e+01 1.4999042470274908e+01 
161 1 2 4.9517579028663222e-01 -5.0686516473814811e+02 1.0000000000000000e+00 7.4327215614775008e+00 1.0464502888163617e+01 1.4999042470276532e+01 
153 1 2 4.9517579028663222e-01 -5.2788313623368708e+02 1.0000000000000000e+00 7.4327215614774058e+00 1.0464502888163620e+01 1.4999042470275796e+01 
106 1 2 4.9517579028663222e-01 -4.0995444101732062e+02 1.0000000000000000e+00 7.4327215614774582e+00 1.0464502888163613e+01 1.4999042470274780e+01 
129 1 2 4.9517579028663222e-01 -5.0810184896208784e+02 1.0000000000000000e+00 7.4327215614774156e+00 1.0464502888163606e+01 1.4999042470276924e+01 
123 1 2 4.9517579028663222e-01 -5.0892465363733339e+02 1.0000000000000000e+00 7.4327215614774893e+00 1.0464502888163613e+01 1.4999042470276256e+01 
95 1 2 4.9517579028663222e-01 -4.5713650253444985e+02 1.0000000000000000e+00 7.4327215614773889e+00 1.0464502888163603e+01 1.4999042470275260e+01 
61 1 2 4.9517579028663222e-01 -4.4439753934037037e+02 1.0000000000000000e+00 7.4327215614774218e+00 1.0464502888163603e+01 1.4999042470275191e+01 
21 1 2 4.9517579028663222e-01 -5.2796620168520030e+02 1.0000000000000000e+00 7.4327215614774778e+00 1.0464502888163603e+01 1.4999042470274754e+01 
134 1 2 4.9517579028663222e-01 -4.7230880409369763e+02 1.0000000000000000e+00 7.4327215614774360e+00 1.0464502888163588e+01 1.4999042470276384e+01 
135 1 2 4.9517579028663222e-01 -4.8839711428665379e+02 1.0000000000000000e+00 7.4327215614774591e+00 1.0464502888163613e+01 1.4999042470274933e+01 
99 1 2 4.9517579028663222e-01 -4.7416424825997592e+02 1.0000000000000000e+00 7.4327215614774209e+00 1.0464502888163592e+01 1.4999042470275363e+01 
98 1 2 4.9517579028663222e-01 -4.5944203559079654e+02 1.0000000000000000e+00 7.4327215614774351e+00 1.0464502888163635e+01 1.4999042470274997e+01 
105 1 2 4.9517579028663222e-01 -4.4069916284245096e+02 1.0000000000000000e+00 7.4327215614774280e+00 1.0464502888163581e+01 1.4999042470275695e+01 
27 1 2 4.9517579028663222e-01 -5.1691340434748963e+02 1.0000000000000000e+00 7.4327215614774689e+00 1.0464502888163613e+01 1.4999042470275171e+01 
63 1 2 4.9517579028663222e-01 -4.9426795423097906e+02 1.0000000000000000e+00 7.4327215614774440e+00 1.0464502888163613e+01 1.4999042470275421e+01 
59 1 2 4.9517579028663222e-01 -4.7675881800015111e+02 1.0000000000000000e+00 7.4327215614775044e+00 1.0464502888163631e+01 1.4999042470276606e+01 
56 1 2 4.9517579028663222e-01 -4.9048089368716319e+02 1.0000000000000000e+00 7.4327215614773845e+00 1.0464502888163606e+01 1.4999042470275263e+01 
51 1 2 4.9517579028663222e-01 -5.0754116520202558e+02 1.0000000000000000e+00 7.4327215614774103e+00 1.0464502888163610e+01 1.4999042470277336e+01 
93 1 2 4.9517579028663222e-01 -4.9431285150653383e+02 1.0000000000000000e+00 7.4327215614774369e+00 1.0464502888163624e+01 1.4999042470276793e+01 
36 1 2 4.9517579028663222e-01 -4.5544391180651195e+02 1.0000000000000000e+00 7.4327215614775062e+00 1.0464502888163606e+01 1.4999042470275624e+01 
33 1 2 4.9517579028663222e-01 -4.9038593989966938e+02 1.0000000000000000e+00 7.4327215614774964e+00 1.0464502888163588e+01 1.4999042470275214e+01 
69 1 2 4.9517579028663222e-01 -4.4816911824903127e+02 1.0000000000000000e+00 7.4327215614774484e+00 1.0464502888163596e+01 1.4999042470275700e+01 
2 1 2 4.9517579028663222e-01 -4.6674726961027017e+02 1.0000000000000000e+00 7.4327215614775506e+00 1.0464502888163606e+01 1.4999042470274969e+01 
164 1 2 4.9517579028663222e-01 -5.1216866708058558e+02 1.0000000000000000e+00 7.4327215614773854e+00 1.0464502888163617e+01 1.4999042470276976e+01 
62 1 2 4.9517579028663222e-01 -4.7407504468655611e+02 1.0000000000000000e+00 7.4327215614775293e+00 1.0464502888163624e+01 1.4999042470276173e+01 
54 1 2 4.9517579028663222e-01 -4.4420044340540204e+02 1.0000000000000000e+00 7.4327215614774271e+00 1.0464502888163606e+01 1.4999042470275226e+01 
57 1 2 4.9517579028663222e-01 -4.9653343695196986e+02 1.0000000000000000e+00 7.4327215614774147e+00 1.0464502888163606e+01 1.4999042470276096e+01 
171 1 2 4.9517579028663222e-01 -5.2543362856529177e+02 1.0000000000000000e+00 7.4327215614773721e+00 1.0464502888163599e+01 1.4999042470274709e+01 
26 1 2 4.9517579028663222e-01 -5.1343182368747330e+02 1.0000000000000000e+00 7.4327215614774014e+00 1.0464502888163606e+01 1.4999042470275766e+01 
148 1 2 4.9517579028663222e-01 -4.5807347964252119e+02 1.0000000000000000e+00 7.4327215614774333e+00 1.0464502888163599e+01 1.4999042470275388e+01 
112 1 2 4.9517579028663222e-01 -4.3125568724781203e+02 1.0000000000000000e+00 7.4327215614775337e+00 1.0464502888163603e+01 1.4999042470274285e+01 
170 1 2 4.9517579028663222e-01 -5.0745687085630846e+02 1.0000000000000000e+00 7.4327215614774582e+00 1.0464502888163610e+01 1.4999042470275290e+01 
108 1 2 4.9517579028663222e-01 -3.8227591842190873e+02 1.0000000000000000e+00 7.4327215614774405e+00 1.0464502888163599e+01 1.4999042470275317e+01 
165 1 2 4.9517579028663222e-01 -5.3342772405178994e+02 1.0000000000000000e+00 7.4327215614774476e+00 1.0464502888163599e+01 1.4999042470275471e+01 
10 1 2 4.9517579028663222e-01 -5.1956379454479486e+02 1.0000000000000000e+00 7.4327215614773969e+00 1.0464502888163610e+01 1.4999042470275585e+01 
133 1 2 4.9517579028663222e-01 -4.6400218530863503e+02 1.0000000000000000e+00 7.4327215614774742e+00 1.0464502888163617e+01 1.4999042470275651e+01 
53 1 2 4.9517579028663222e-01 -4.6625854410261388e+02 1.0000000000000000e+00 7.4327215614774484e+00 1.0464502888163610e+01 1.4999042470274052e+01 
175 1 2 4.9517579028663222e-01 -4.7325510122356195e+02 1.0000000000000000e+00 7.4327215614775293e+00 1.0464502888163599e+01 1.4999042470275594e+01 
103 1 2 4.9517579028663222e-01 -3.7434013817047401e+02 1.0000000000000000e+00 7.4327215614773978e+00 1.0464502888163617e+01 1.4999042470277230e+01 
140 1 2 4.9517579028663222e-01 -4.3453952255215779e+02 1.0000000000000000e+00 7.4327215614773863e+00 1.0464502888163606e+01 1.4999042470275143e+01 
118 1 2 4.9517579028663222e-01 -4.6953657338788764e+02 1.0000000000000000e+00 7.4327215614773969e+00 1.0464502888163624e+01 1.4999042470275681e+01 
139 1 2 4.9517579028663222e-01 -3.9605239982809303e+02 1.0000000000000000e+00 7.4327215614773987e+00 1.0464502888163613e+01 1.4999042470275242e+01 
107 1 2 4.9517579028663222e-01 -3.7802739761231408e+02 1.0000000000000000e+00 7.4327215614775408e+00 1.0464502888163613e+01 1.4999042470274494e+01 
127 1 2 4.9517579028663222e-01 -4.4344557869081842e+02 1.0000000000000000e+00 7.4327215614774991e+00 1.0464502888163613e+01 1.4999042470271293e+01 
76 1 2 4.9517579028663222e-01 -4.0816576332432362e+02 1.0000000000000000e+00 7.4327215614773925e+00 1.0464502888163599e+01 1.4999042470271704e+01 
60 1 2 4.9517579028663222e-01 -3.9821126683233763e+02 1.0000000000000000e+00 7.4327215614773969e+00 1.0464502888163613e+01 1.4999042470274816e+01 
150 1 2 4.9517579028663222e-01 -4.1528824525593541e+02 1.0000000000000000e+00 7.4327215614774254e+00 1.0464502888163606e+01 1.4999042470274583e+01 
163 1 2 4.9517579028663222e-01 -4.8068130649526950e+02 1.0000000000000000e+00 7.4327215614775461e+00 1.0464502888163610e+01 1.4999042470274937e+01 
31 1 2 4.9517579028663222e-01 -4.2150682331883399e+02 1.0000000000000000e+00 7.4327215614774262e+00 1.0464502888163628e+01 1.4999042470276098e+01 
141 1 2 4.9517579028663222e-01 -4.1649208775561192e+02 1.0000000000000000e+00 7.4327215614774458e+00 1.0464502888163617e+01 1.4999042470275858e+01 
6 1 2 4.9517579028663222e-01 -4.5283550157303841e+02 1.0000000000000000e+00 7.4327215614773943e+00 1.0464502888163596e+01 1.4999042470274684e+01 
7 1 2 4.9517579028663222e-01 -4.5219307246162134e+02 1.0000000000000000e+00 7.4327215614774653e+00 1.0464502888163624e+01 1.4999042470275334e+01 
44 1 2 4.9517579028663222e-01 -4.5118263952607174e+02 1.0000000000000000e+00 7.4327215614774094e+00 1.0464502888163606e+01 1.4999042470275313e+01 
80 1 2 4.9517579028663222e-01 -4.2307021240714221e+02 1.0000000000000000e+00 7.4327215614774769e+00 1.0464502888163585e+01 1.4999042470275681e+01 
5 1 2 4.9517579028663222e-01 -4.5604024299835930e+02 1.0000000000000000e+00 7.4327215614773854e+00 1.0464502888163620e+01 1.4999042470276450e+01 
86 1 2 4.9517579028663222e-01 -4.5170152089717340e+02 1.0000000000000000e+00 7.4327215614774369e+00 1.0464502888163620e+01 1.4999042470275365e+01 
157 1 2 4.9517579028663222e-01 -4.6660079078634726e+02 1.0000000000000000e+00 7.4327215614774360e+00 1.0464502888163606e+01 1.4999042470275933e+01 
162 1 2 4.9517579028663222e-01 -4.7635920709366832e+02 1.0000000000000000e+00 7.4327215614774911e+00 1.0464502888163617e+01 1.4999042470275411e+01 
96 1 2 4.9517579028663222e-01 -4.3034548676543034e+02 1.0000000000000000e+00 7.4327215614773969e+00 1.0464502888163599e+01 1.4999042470274317e+01 
102 1 2 4.9517579028663222e-01 -3.9285918421611262e+02 1.0000000000000000e+00 7.4327215614775515e+00 1.0464502888163613e+01 1.4999042470276191e+01 
84 1 2 4.9517579028663222e-01 -3.9917008458541426e+02 1.0000000000000000e+00 7.4327215614774911e+00 1.0464502888163624e+01 1.4999042470276809e+01 
116 1 2 4.9517579028663222e-01 -4.4746002581518735e+02 1.0000000000000000e+00 7.4327215614774911e+00 1.0464502888163617e+01 1.4999042470275658e+01 
109 1 2 4.9517579028663222e-01 -2.9020105762047979e+02 1.0000000000000000e+00 7.4327215614774360e+00 1.0464502888163610e+01 1.4999042470276592e+01 
24 1 2 4.9517579028663222e-01 -4.5067844154120394e+02 1.0000000000000000e+00 7.4327215614774884e+00 1.0464502888163613e+01 1.4999042470276231e+01 
30 1 2 4.9517579028663222e-01 -4.5937968727289228e+02 1.0000000000000000e+00 7.4327215614774129e+00 1.0464502888163624e+01 1.4999042470275041e+01 
114 1 2 4.9517579028663222e-01 -3.9138093208006524e+02 1.0000000000000000e+00 7.4327215614774556e+00 1.0464502888163606e+01 1.4999042470274334e+01 
79 1 2 4.9517579028663222e-01 -3.9328915366796070e+02 1.0000000000000000e+00 7.4327215614774307e+00 1.0464502888163606e+01 1.4999042470275494e+01 
66 1 2 4.9517579028663222e-01 -4.1165356676389496e+02 1.0000000000000000e+00 7.4327215614774200e+00 1.0464502888163620e+01 1.4999042470275139e+01 
90 1 2 4.9517579028663222e-01 -3.9420330237477339e+02 1.0000000000000000e+00 7.4327215614775080e+00 1.0464502888163610e+01 1.4999042470275858e+01 
85 1 2 4.9517579028663222e-01 -3.5618663055957802e+02 1.0000000000000000e+00 7.4327215614774484e+00 1.0464502888163574e+01 1.4999042470274967e+01 
18 1 2 4.9517579028663222e-01 -7.4728276931755275e+01 1.0000000000000000e+00 7.4327215614774493e+00 1.0464502888163620e+01 1.4999042470275436e+01 
120 1 2 4.9517579028663222e-01 1.7437812388772642e+02 1.0000000000000000e+00 7.4327215614773756e+00 1.0464502888163606e+01 1.4999042470275031e+01 

Velocities

12 -9.1867210662693898e-04 -4.2502260429588823e-03 3.7859171116451773e-01
145 -9.1867210801938634e-04 -4.2502260430913076e-03 3.7859171116477397e-01
55 -9.1867210342889223e-04 -4.2502260434355505e-03 3.7859171116480911e-01
156 -9.1867210913336753e-04 -4.2502260436084183e-03 3.7859171116387835e-01
67 -9.1867211156316804e-04 -4.2502260426715826e-03 3.7859171116429913e-01
97 -9.1867210796666137e-04 -4.2502260429880881e-03 3.7859171116465212e-01
121 -9.1867210632442110e-04 -4.2502260426715826e-03 3.7859171116869716e-01
49 -9.1867210551280925e-04 -4.2502260430902971e-03 3.7859171116445178e-01
83 -9.1867210511434934e-04 -4.2502260428444504e-03 3.7859171117272405e-01
41 -9.1867211013688002e-04 -4.2502260425002839e-03 3.7859171116720197e-01
119 -9.1867210408665319e-04 -4.2502260432626827e-03 3.7859171116715312e-01
3 -9.1867210555602599e-04 -4.2502260430913067e-03 3.7859171116314355e-01
174 -9.1867210858120538e-04 -4.2502260430902798e-03 3.7859171116612472e-01
91 -9.1867211012750384e-04 -4.2502260425002830e-03 3.7859171116195267e-01
125 -9.1867210412987003e-04 -4.2502260423274169e-03 3.7859171116471335e-01
1 -9.1867210455253031e-04 -4.2502260432626835e-03 3.7859171116506785e-01
132 -9.1867210692900476e-04 -4.2502260432626835e-03 3.7859171116734286e-01
113 -9.1867210482133969e-04 -4.2502260437809096e-03 3.7859171116412133e-01
4 -9.1867210412987013e-04 -4.2502260430910899e-03 3.7859171116360490e-01
147 -9.1867210973855216e-04 -4.2502260428444495e-03 3.7859171116540768e-01
77 -9.1867210312637435e-04 -4.2502260425002830e-03 3.7859171116797724e-01
78 -9.1867210450931346e-04 -4.2502260430911376e-03 3.7859171117010948e-01
149 -9.1867210463896409e-04 -4.2502260434355496e-03 3.7859171116647183e-01
73 -9.1867210400021950e-04 -4.2502260426715817e-03 3.7859171116469342e-01
115 -9.1867210408665329e-04 -4.2502260436084183e-03 3.7859171116530482e-01
37 -9.1867210378413530e-04 -4.2502260430004072e-03 3.7859171116479395e-01
168 -9.1867210849419945e-04 -4.2502260428444495e-03 3.7859171116747775e-01
138 -9.1867211008413825e-04 -4.2502260437806737e-03 3.7859171116742885e-01
126 -9.1867210719821888e-04 -4.2502260429903693e-03 3.7859171116658696e-01
48 -9.1867211159642453e-04 -4.2502260437809088e-03 3.7859171116332713e-01
19 -9.1867210451878028e-04 -4.2502260432626827e-03 3.7859171116334683e-01
42 -9.1867210671337267e-04 -4.2502260429265089e-03 3.7859171116364226e-01
71 -9.1867210675644097e-04 -4.2502260429545316e-03 3.7859171116738499e-01
25 -9.1867211078519931e-04 -4.2502260434355505e-03 3.7859171116735046e-01
43 -9.1867210800987832e-04 -4.2502260426715835e-03 3.7859171117058066e-01
13 -9.1867210654050530e-04 -4.2502260428444495e-03 3.7859171116474050e-01
88 -9.1867210888308271e-04 -4.2502260430907777e-03 3.7859171116378265e-01
20 -9.1867210489826514e-04 -4.2502260429828414e-03 3.7859171116810336e-01
128 -9.1867210564245978e-04 -4.2502260430131097e-03 3.7859171116577789e-01
143 -9.1867210558928259e-04 -4.2502260442986292e-03 3.7859171116425033e-01
52 -9.1867210533043365e-04 -4.2502260430041499e-03 3.7859171116311124e-01
167 -9.1867210555602609e-04 -4.2502260430138800e-03 3.7859171116333618e-01