LAMMPS data file via write_data, version 30 Jul 2016, timestep = 50400000

180 atoms
2 atom types

0.0000000000000000e+00 2.0000000000000000e+01 xlo xhi
0.0000000000000000e+00 2.0000000000000000e+01 ylo yhi
0.0000000000000000e+00 2.0000000000000000e+01 zlo zhi

Masses

1 3.896
2 4.31

Atoms # meso-molecular

12 1 2 4.9517579028663222e-01 -1.2961193240562466e+02 1.0000000000000000e+00 7.3959746771864419e+00 1.0294493846652285e+01 1.0142710916822796e+01 
145 1 2 4.9517579028663222e-01 -3.3953167531436588e+02 1.0000000000000000e+00 7.3959746771864712e+00 1.0294493846652292e+01 1.0142710916822038e+01 
55 1 2 4.9517579028663222e-01 -3.4412665831394156e+02 1.0000000000000000e+00 7.3959746771863761e+00 1.0294493846652299e+01 1.0142710916822899e+01 
156 1 2 4.9517579028663222e-01 -4.2922412884345351e+02 1.0000000000000000e+00 7.3959746771864934e+00 1.0294493846652303e+01 1.0142710916821548e+01 
67 1 2 4.9517579028663222e-01 -3.9331522868813363e+02 1.0000000000000000e+00 7.3959746771865440e+00 1.0294493846652278e+01 1.0142710916823305e+01 
97 1 2 4.9517579028663222e-01 -4.0757225778077031e+02 1.0000000000000000e+00 7.3959746771864694e+00 1.0294493846652285e+01 1.0142710916820016e+01 
121 1 2 4.9517579028663222e-01 -4.1139902575837749e+02 1.0000000000000000e+00 7.3959746771864356e+00 1.0294493846652278e+01 1.0142710916819262e+01 
49 1 2 4.9517579028663222e-01 -4.2184435191689840e+02 1.0000000000000000e+00 7.3959746771864197e+00 1.0294493846652292e+01 1.0142710916822475e+01 
83 1 2 4.9517579028663222e-01 -4.3564370301165036e+02 1.0000000000000000e+00 7.3959746771864108e+00 1.0294493846652282e+01 1.0142710916824836e+01 
41 1 2 4.9517579028663222e-01 -4.3460983928511865e+02 1.0000000000000000e+00 7.3959746771865147e+00 1.0294493846652275e+01 1.0142710916821603e+01 
119 1 2 4.9517579028663222e-01 -4.1963187689936296e+02 1.0000000000000000e+00 7.3959746771863903e+00 1.0294493846652296e+01 1.0142710916824871e+01 
3 1 2 4.9517579028663222e-01 -4.5278723122736028e+02 1.0000000000000000e+00 7.3959746771864205e+00 1.0294493846652292e+01 1.0142710916822216e+01 
174 1 2 4.9517579028663222e-01 -4.4711733427362458e+02 1.0000000000000000e+00 7.3959746771864827e+00 1.0294493846652292e+01 1.0142710916823608e+01 
91 1 2 4.9517579028663222e-01 -4.3061527612437749e+02 1.0000000000000000e+00 7.3959746771865138e+00 1.0294493846652275e+01 1.0142710916820258e+01 
125 1 2 4.9517579028663222e-01 -4.5747102140686377e+02 1.0000000000000000e+00 7.3959746771863912e+00 1.0294493846652271e+01 1.0142710916821400e+01 
1 1 2 4.9517579028663222e-01 -4.2848675538750604e+02 1.0000000000000000e+00 7.3959746771863992e+00 1.0294493846652296e+01 1.0142710916823560e+01 
132 1 2 4.9517579028663222e-01 -4.1882657751004331e+02 1.0000000000000000e+00 7.3959746771864481e+00 1.0294493846652296e+01 1.0142710916822756e+01 
113 1 2 4.9517579028663222e-01 -4.2177716120184084e+02 1.0000000000000000e+00 7.3959746771864054e+00 1.0294493846652307e+01 1.0142710916824104e+01 
4 1 2 4.9517579028663222e-01 -4.5545955007260204e+02 1.0000000000000000e+00 7.3959746771863912e+00 1.0294493846652292e+01 1.0142710916823033e+01 
147 1 2 4.9517579028663222e-01 -4.3818329542748404e+02 1.0000000000000000e+00 7.3959746771865058e+00 1.0294493846652282e+01 1.0142710916824333e+01 
77 1 2 4.9517579028663222e-01 -3.9318794849235883e+02 1.0000000000000000e+00 7.3959746771863699e+00 1.0294493846652275e+01 1.0142710916820896e+01 
78 1 2 4.9517579028663222e-01 -3.6804548221632172e+02 1.0000000000000000e+00 7.3959746771863983e+00 1.0294493846652292e+01 1.0142710916821658e+01 
149 1 2 4.9517579028663222e-01 -4.2561312217491036e+02 1.0000000000000000e+00 7.3959746771864010e+00 1.0294493846652299e+01 1.0142710916819777e+01 
73 1 2 4.9517579028663222e-01 -3.6401945251316806e+02 1.0000000000000000e+00 7.3959746771863886e+00 1.0294493846652278e+01 1.0142710916822860e+01 
115 1 2 4.9517579028663222e-01 -4.2065774195471590e+02 1.0000000000000000e+00 7.3959746771863903e+00 1.0294493846652303e+01 1.0142710916822288e+01 
37 1 2 4.9517579028663222e-01 -3.6912862468376863e+02 1.0000000000000000e+00 7.3959746771863841e+00 1.0294493846652285e+01 1.0142710916820930e+01 
168 1 2 4.9517579028663222e-01 -4.8032943001843125e+02 1.0000000000000000e+00 7.3959746771864809e+00 1.0294493846652282e+01 1.0142710916825177e+01 
138 1 2 4.9517579028663222e-01 -4.1323373800835719e+02 1.0000000000000000e+00 7.3959746771865129e+00 1.0294493846652307e+01 1.0142710916823431e+01 
126 1 2 4.9517579028663222e-01 -4.2838348354271034e+02 1.0000000000000000e+00 7.3959746771864543e+00 1.0294493846652285e+01 1.0142710916819725e+01 
48 1 2 4.9517579028663222e-01 -4.0363846091772859e+02 1.0000000000000000e+00 7.3959746771865440e+00 1.0294493846652307e+01 1.0142710916821756e+01 
19 1 2 4.9517579028663222e-01 -4.6898513747379582e+02 1.0000000000000000e+00 7.3959746771863992e+00 1.0294493846652296e+01 1.0142710916820555e+01 
42 1 2 4.9517579028663222e-01 -3.7446674149867169e+02 1.0000000000000000e+00 7.3959746771864436e+00 1.0294493846652289e+01 1.0142710916821132e+01 
71 1 2 4.9517579028663222e-01 -4.0783618787215403e+02 1.0000000000000000e+00 7.3959746771864445e+00 1.0294493846652289e+01 1.0142710916820015e+01 
25 1 2 4.9517579028663222e-01 -4.5393198605606489e+02 1.0000000000000000e+00 7.3959746771865280e+00 1.0294493846652299e+01 1.0142710916822072e+01 
43 1 2 4.9517579028663222e-01 -3.4852779171104726e+02 1.0000000000000000e+00 7.3959746771864703e+00 1.0294493846652278e+01 1.0142710916821294e+01 
13 1 2 4.9517579028663222e-01 -4.6230493169075083e+02 1.0000000000000000e+00 7.3959746771864401e+00 1.0294493846652282e+01 1.0142710916819325e+01 
88 1 2 4.9517579028663222e-01 -4.8603221540130778e+02 1.0000000000000000e+00 7.3959746771864889e+00 1.0294493846652292e+01 1.0142710916821470e+01 
20 1 2 4.9517579028663222e-01 -5.0341182735682935e+02 1.0000000000000000e+00 7.3959746771864063e+00 1.0294493846652289e+01 1.0142710916820816e+01 
128 1 2 4.9517579028663222e-01 -4.7582861940300825e+02 1.0000000000000000e+00 7.3959746771864223e+00 1.0294493846652289e+01 1.0142710916823157e+01 
143 1 2 4.9517579028663222e-01 -4.1292294085240405e+02 1.0000000000000000e+00 7.3959746771864205e+00 1.0294493846652317e+01 1.0142710916822343e+01 
52 1 2 4.9517579028663222e-01 -4.9524827554720230e+02 1.0000000000000000e+00 7.3959746771864152e+00 1.0294493846652285e+01 1.0142710916821544e+01 
167 1 2 4.9517579028663222e-01 -5.2378410573727479e+02 1.0000000000000000e+00 7.3959746771864205e+00 1.0294493846652285e+01 1.0142710916819246e+01 
16 1 2 4.9517579028663222e-01 -5.2450884858295592e+02 1.0000000000000000e+00 7.3959746771864419e+00 1.0294493846652299e+01 1.0142710916820654e+01 
72 1 2 4.9517579028663222e-01 -3.9651111920987262e+02 1.0000000000000000e+00 7.3959746771865129e+00 1.0294493846652268e+01 1.0142710916822850e+01 
50 1 2 4.9517579028663222e-01 -4.6897280465995971e+02 1.0000000000000000e+00 7.3959746771865182e+00 1.0294493846652282e+01 1.0142710916821068e+01 
124 1 2 4.9517579028663222e-01 -4.9991517559855851e+02 1.0000000000000000e+00 7.3959746771864099e+00 1.0294493846652299e+01 1.0142710916819784e+01 
111 1 2 4.9517579028663222e-01 -4.4487096140573914e+02 1.0000000000000000e+00 7.3959746771864809e+00 1.0294493846652278e+01 1.0142710916820377e+01 
110 1 2 4.9517579028663222e-01 -4.3702949817459239e+02 1.0000000000000000e+00 7.3959746771864188e+00 1.0294493846652299e+01 1.0142710916823427e+01 
9 1 2 4.9517579028663222e-01 -5.1419525663898241e+02 1.0000000000000000e+00 7.3959746771864978e+00 1.0294493846652271e+01 1.0142710916823942e+01 
177 1 2 4.9517579028663222e-01 -4.6453192031380672e+02 1.0000000000000000e+00 7.3959746771864978e+00 1.0294493846652289e+01 1.0142710916829133e+01 
70 1 2 4.9517579028663222e-01 -4.2849235144801162e+02 1.0000000000000000e+00 7.3959746771864623e+00 1.0294493846652285e+01 1.0142710916820169e+01 
152 1 2 4.9517579028663222e-01 -4.9205800571231600e+02 1.0000000000000000e+00 7.3959746771865413e+00 1.0294493846652292e+01 1.0142710916819977e+01 
154 1 2 4.9517579028663222e-01 -5.1941917210322936e+02 1.0000000000000000e+00 7.3959746771863850e+00 1.0294493846652289e+01 1.0142710916821640e+01 
8 1 2 4.9517579028663222e-01 -4.9137232740148443e+02 1.0000000000000000e+00 7.3959746771863850e+00 1.0294493846652289e+01 1.0142710916821086e+01 
38 1 2 4.9517579028663222e-01 -4.3505149879273523e+02 1.0000000000000000e+00 7.3959746771863903e+00 1.0294493846652285e+01 1.0142710916822850e+01 
160 1 2 4.9517579028663222e-01 -5.2179377075982177e+02 1.0000000000000000e+00 7.3959746771865182e+00 1.0294493846652285e+01 1.0142710916823001e+01 
117 1 2 4.9517579028663222e-01 -4.6887867992375118e+02 1.0000000000000000e+00 7.3959746771864410e+00 1.0294493846652289e+01 1.0142710916820450e+01 
46 1 2 4.9517579028663222e-01 -4.8269463878351479e+02 1.0000000000000000e+00 7.3959746771863841e+00 1.0294493846652275e+01 1.0142710916820317e+01 
74 1 2 4.9517579028663222e-01 -3.9413921321703191e+02 1.0000000000000000e+00 7.3959746771865458e+00 1.0294493846652292e+01 1.0142710916820915e+01 
151 1 2 4.9517579028663222e-01 -3.3372992373751254e+02 1.0000000000000000e+00 7.3959746771864676e+00 1.0294493846652303e+01 1.0142710916825992e+01 
89 1 2 4.9517579028663222e-01 -4.6553000890667840e+02 1.0000000000000000e+00 7.3959746771864383e+00 1.0294493846652278e+01 1.0142710916820972e+01 
142 1 2 4.9517579028663222e-01 -4.3486990324763065e+02 1.0000000000000000e+00 7.3959746771864232e+00 1.0294493846652299e+01 1.0142710916821466e+01 
166 1 2 4.9517579028663222e-01 -5.3115396167627557e+02 1.0000000000000000e+00 7.3959746771863921e+00 1.0294493846652299e+01 1.0142710916819805e+01 
39 1 2 4.9517579028663222e-01 -4.4086573353279232e+02 1.0000000000000000e+00 7.3959746771864676e+00 1.0294493846652292e+01 1.0142710916820125e+01 
65 1 2 4.9517579028663222e-01 -4.8343917043354224e+02 1.0000000000000000e+00 7.3959746771865449e+00 1.0294493846652296e+01 1.0142710916823445e+01 
173 1 2 4.9517579028663222e-01 -5.0415104752471086e+02 1.0000000000000000e+00 7.3959746771863806e+00 1.0294493846652278e+01 1.0142710916821040e+01 
179 1 2 4.9517579028663222e-01 -4.5237383008760685e+02 1.0000000000000000e+00 7.3959746771864214e+00 1.0294493846652278e+01 1.0142710916821351e+01 
101 1 2 4.9517579028663222e-01 -4.3719620258414307e+02 1.0000000000000000e+00 7.3959746771864188e+00 1.0294493846652299e+01 1.0142710916824676e+01 
28 1 2 4.9517579028663222e-01 -5.0274577497122067e+02 1.0000000000000000e+00 7.3959746771864712e+00 1.0294493846652289e+01 1.0142710916821356e+01 
176 1 2 4.9517579028663222e-01 -4.9144637358607827e+02 1.0000000000000000e+00 7.3959746771865396e+00 1.0294493846652299e+01 1.0142710916821875e+01 
100 1 2 4.9517579028663222e-01 -4.6309179485448874e+02 1.0000000000000000e+00 7.3959746771864499e+00 1.0294493846652278e+01 1.0142710916822008e+01 
122 1 2 4.9517579028663222e-01 -4.8066364025248174e+02 1.0000000000000000e+00 7.3959746771864685e+00 1.0294493846652285e+01 1.0142710916821331e+01 
136 1 2 4.9517579028663222e-01 -4.7669584970476762e+02 1.0000000000000000e+00 7.3959746771864472e+00 1.0294493846652289e+01 1.0142710916821933e+01 
68 1 2 4.9517579028663222e-01 -4.5230808895424116e+02 1.0000000000000000e+00 7.3959746771864214e+00 1.0294493846652289e+01 1.0142710916825258e+01 
104 1 2 4.9517579028663222e-01 -4.1391264244985848e+02 1.0000000000000000e+00 7.3959746771864125e+00 1.0294493846652292e+01 1.0142710916824063e+01 
32 1 2 4.9517579028663222e-01 -4.8087727227321045e+02 1.0000000000000000e+00 7.3959746771865120e+00 1.0294493846652278e+01 1.0142710916820352e+01 
22 1 2 4.9517579028663222e-01 -5.2524832557158334e+02 1.0000000000000000e+00 7.3959746771863912e+00 1.0294493846652278e+01 1.0142710916820516e+01 
17 1 2 4.9517579028663222e-01 -5.0571719353319975e+02 1.0000000000000000e+00 7.3959746771864170e+00 1.0294493846652289e+01 1.0142710916819548e+01 
130 1 2 4.9517579028663222e-01 -5.1242995495232037e+02 1.0000000000000000e+00 7.3959746771864205e+00 1.0294493846652275e+01 1.0142710916820514e+01 
58 1 2 4.9517579028663222e-01 -5.0889491000855548e+02 1.0000000000000000e+00 7.3959746771863824e+00 1.0294493846652275e+01 1.0142710916821658e+01 
40 1 2 4.9517579028663222e-01 -4.4200016658085883e+02 1.0000000000000000e+00 7.3959746771864845e+00 1.0294493846652303e+01 1.0142710916821590e+01 
45 1 2 4.9517579028663222e-01 -4.8635436753154505e+02 1.0000000000000000e+00 7.3959746771864436e+00 1.0294493846652292e+01 1.0142710916824107e+01 
23 1 2 4.9517579028663222e-01 -4.9239775942614017e+02 1.0000000000000000e+00 7.3959746771864481e+00 1.0294493846652275e+01 1.0142710916822375e+01 
35 1 2 4.9517579028663222e-01 -4.7117160394619259e+02 1.0000000000000000e+00 7.3959746771864374e+00 1.0294493846652282e+01 1.0142710916822525e+01 
34 1 2 4.9517579028663222e-01 -4.8319602407867615e+02 1.0000000000000000e+00 7.3959746771864934e+00 1.0294493846652271e+01 1.0142710916819452e+01 
87 1 2 4.9517579028663222e-01 -4.8844381807981460e+02 1.0000000000000000e+00 7.3959746771863948e+00 1.0294493846652285e+01 1.0142710916823402e+01 
14 1 2 4.9517579028663222e-01 -5.0169714138549477e+02 1.0000000000000000e+00 7.3959746771864134e+00 1.0294493846652289e+01 1.0142710916819517e+01 
172 1 2 4.9517579028663222e-01 -5.1460677998374297e+02 1.0000000000000000e+00 7.3959746771864863e+00 1.0294493846652275e+01 1.0142710916820622e+01 
92 1 2 4.9517579028663222e-01 -4.6837241580375451e+02 1.0000000000000000e+00 7.3959746771863726e+00 1.0294493846652285e+01 1.0142710916824077e+01 
94 1 2 4.9517579028663222e-01 -4.9248229744853734e+02 1.0000000000000000e+00 7.3959746771863744e+00 1.0294493846652268e+01 1.0142710916825097e+01 
81 1 2 4.9517579028663222e-01 -4.5752654481045238e+02 1.0000000000000000e+00 7.3959746771864729e+00 1.0294493846652303e+01 1.0142710916821228e+01 
11 1 2 4.9517579028663222e-01 -4.9331019214355513e+02 1.0000000000000000e+00 7.3959746771864951e+00 1.0294493846652282e+01 1.0142710916820969e+01 
155 1 2 4.9517579028663222e-01 -4.7741499880368451e+02 1.0000000000000000e+00 7.3959746771863744e+00 1.0294493846652285e+01 1.0142710916820544e+01 
137 1 2 4.9517579028663222e-01 -4.7077847975523446e+02 1.0000000000000000e+00 7.3959746771864312e+00 1.0294493846652285e+01 1.0142710916819125e+01 
64 1 2 4.9517579028663222e-01 -4.8591290369995602e+02 1.0000000000000000e+00 7.3959746771864587e+00 1.0294493846652289e+01 1.0142710916821407e+01 
47 1 2 4.9517579028663222e-01 -4.6581822908777679e+02 1.0000000000000000e+00 7.3959746771863868e+00 1.0294493846652285e+01 1.0142710916820942e+01 
29 1 2 4.9517579028663222e-01 -5.0639493512903846e+02 1.0000000000000000e+00 7.3959746771864623e+00 1.0294493846652278e+01 1.0142710916821619e+01 
75 1 2 4.9517579028663222e-01 -4.1560567366933412e+02 1.0000000000000000e+00 7.3959746771865040e+00 1.0294493846652278e+01 1.0142710916821141e+01 
15 1 2 4.9517579028663222e-01 -5.3116659249592863e+02 1.0000000000000000e+00 7.3959746771863761e+00 1.0294493846652275e+01 1.0142710916823805e+01 
159 1 2 4.9517579028663222e-01 -5.3455471287418106e+02 1.0000000000000000e+00 7.3959746771864490e+00 1.0294493846652278e+01 1.0142710916823592e+01 
82 1 2 4.9517579028663222e-01 -4.4730767372146727e+02 1.0000000000000000e+00 7.3959746771863975e+00 1.0294493846652299e+01 1.0142710916821471e+01 
158 1 2 4.9517579028663222e-01 -5.1422625993343536e+02 1.0000000000000000e+00 7.3959746771865174e+00 1.0294493846652278e+01 1.0142710916825052e+01 
169 1 2 4.9517579028663222e-01 -4.8433472044860594e+02 1.0000000000000000e+00 7.3959746771864534e+00 1.0294493846652285e+01 1.0142710916820851e+01 
131 1 2 4.9517579028663222e-01 -4.7969839902085090e+02 1.0000000000000000e+00 7.3959746771864543e+00 1.0294493846652250e+01 1.0142710916822665e+01 
180 1 2 4.9517579028663222e-01 -4.3751485288919525e+02 1.0000000000000000e+00 7.3959746771865333e+00 1.0294493846652271e+01 1.0142710916820539e+01 
178 1 2 4.9517579028663222e-01 -4.3525907250137669e+02 1.0000000000000000e+00 7.3959746771864054e+00 1.0294493846652275e+01 1.0142710916823633e+01 
144 1 2 4.9517579028663222e-01 -4.0607711617014866e+02 1.0000000000000000e+00 7.3959746771864427e+00 1.0294493846652282e+01 1.0142710916823294e+01 
146 1 2 4.9517579028663222e-01 -4.7473226566968015e+02 1.0000000000000000e+00 7.3959746771863912e+00 1.0294493846652292e+01 1.0142710916821390e+01 
161 1 2 4.9517579028663222e-01 -5.0686516473814811e+02 1.0000000000000000e+00 7.3959746771864951e+00 1.0294493846652296e+01 1.0142710916820795e+01 
153 1 2 4.9517579028663222e-01 -5.2788313623368708e+02 1.0000000000000000e+00 7.3959746771864001e+00 1.0294493846652299e+01 1.0142710916821628e+01 
106 1 2 4.9517579028663222e-01 -4.0995444101732062e+02 1.0000000000000000e+00 7.3959746771864525e+00 1.0294493846652292e+01 1.0142710916820702e+01 
129 1 2 4.9517579028663222e-01 -5.0810184896208784e+02 1.0000000000000000e+00 7.3959746771864099e+00 1.0294493846652285e+01 1.0142710916821896e+01 
123 1 2 4.9517579028663222e-01 -5.0892465363733339e+02 1.0000000000000000e+00 7.3959746771864836e+00 1.0294493846652292e+01 1.0142710916821397e+01 
95 1 2 4.9517579028663222e-01 -4.5713650253444985e+02 1.0000000000000000e+00 7.3959746771863832e+00 1.0294493846652282e+01 1.0142710916820954e+01 
61 1 2 4.9517579028663222e-01 -4.4439753934037037e+02 1.0000000000000000e+00 7.3959746771864161e+00 1.0294493846652282e+01 1.0142710916821395e+01 
21 1 2 4.9517579028663222e-01 -5.2796620168520030e+02 1.0000000000000000e+00 7.3959746771864721e+00 1.0294493846652282e+01 1.0142710916821981e+01 
134 1 2 4.9517579028663222e-01 -4.7230880409369763e+02 1.0000000000000000e+00 7.3959746771864303e+00 1.0294493846652268e+01 1.0142710916823676e+01 
135 1 2 4.9517579028663222e-01 -4.8839711428665379e+02 1.0000000000000000e+00 7.3959746771864534e+00 1.0294493846652292e+01 1.0142710916822599e+01 
99 1 2 4.9517579028663222e-01 -4.7416424825997592e+02 1.0000000000000000e+00 7.3959746771864152e+00 1.0294493846652271e+01 1.0142710916822214e+01 
98 1 2 4.9517579028663222e-01 -4.5944203559079654e+02 1.0000000000000000e+00 7.3959746771864294e+00 1.0294493846652314e+01 1.0142710916823571e+01 
105 1 2 4.9517579028663222e-01 -4.4069916284245096e+02 1.0000000000000000e+00 7.3959746771864223e+00 1.0294493846652260e+01 1.0142710916822260e+01 
27 1 2 4.9517579028663222e-01 -5.1691340434748963e+02 1.0000000000000000e+00 7.3959746771864632e+00 1.0294493846652292e+01 1.0142710916821024e+01 
63 1 2 4.9517579028663222e-01 -4.9426795423097906e+02 1.0000000000000000e+00 7.3959746771864383e+00 1.0294493846652292e+01 1.0142710916822331e+01 
59 1 2 4.9517579028663222e-01 -4.7675881800015111e+02 1.0000000000000000e+00 7.3959746771864987e+00 1.0294493846652310e+01 1.0142710916824816e+01 
56 1 2 4.9517579028663222e-01 -4.9048089368716319e+02 1.0000000000000000e+00 7.3959746771863788e+00 1.0294493846652285e+01 1.0142710916823876e+01 
51 1 2 4.9517579028663222e-01 -5.0754116520202558e+02 1.0000000000000000e+00 7.3959746771864046e+00 1.0294493846652289e+01 1.0142710916820263e+01 
93 1 2 4.9517579028663222e-01 -4.9431285150653383e+02 1.0000000000000000e+00 7.3959746771864312e+00 1.0294493846652303e+01 1.0142710916823878e+01 
36 1 2 4.9517579028663222e-01 -4.5544391180651195e+02 1.0000000000000000e+00 7.3959746771865005e+00 1.0294493846652285e+01 1.0142710916820196e+01 
33 1 2 4.9517579028663222e-01 -4.9038593989966938e+02 1.0000000000000000e+00 7.3959746771864907e+00 1.0294493846652268e+01 1.0142710916824811e+01 
69 1 2 4.9517579028663222e-01 -4.4816911824903127e+02 1.0000000000000000e+00 7.3959746771864427e+00 1.0294493846652275e+01 1.0142710916822388e+01 
2 1 2 4.9517579028663222e-01 -4.6674726961027017e+02 1.0000000000000000e+00 7.3959746771865449e+00 1.0294493846652285e+01 1.0142710916820542e+01 
164 1 2 4.9517579028663222e-01 -5.1216866708058558e+02 1.0000000000000000e+00 7.3959746771863797e+00 1.0294493846652296e+01 1.0142710916821889e+01 
62 1 2 4.9517579028663222e-01 -4.7407504468655611e+02 1.0000000000000000e+00 7.3959746771865236e+00 1.0294493846652303e+01 1.0142710916823697e+01 
54 1 2 4.9517579028663222e-01 -4.4420044340540204e+02 1.0000000000000000e+00 7.3959746771864214e+00 1.0294493846652285e+01 1.0142710916822628e+01 
57 1 2 4.9517579028663222e-01 -4.9653343695196986e+02 1.0000000000000000e+00 7.3959746771864090e+00 1.0294493846652285e+01 1.0142710916822439e+01 
171 1 2 4.9517579028663222e-01 -5.2543362856529177e+02 1.0000000000000000e+00 7.3959746771863664e+00 1.0294493846652278e+01 1.0142710916822043e+01 
26 1 2 4.9517579028663222e-01 -5.1343182368747330e+02 1.0000000000000000e+00 7.3959746771863957e+00 1.0294493846652285e+01 1.0142710916821072e+01 
148 1 2 4.9517579028663222e-01 -4.5807347964252119e+02 1.0000000000000000e+00 7.3959746771864276e+00 1.0294493846652278e+01 1.0142710916821288e+01 
112 1 2 4.9517579028663222e-01 -4.3125568724781203e+02 1.0000000000000000e+00 7.3959746771865280e+00 1.0294493846652282e+01 1.0142710916824104e+01 
170 1 2 4.9517579028663222e-01 -5.0745687085630846e+02 1.0000000000000000e+00 7.3959746771864525e+00 1.0294493846652289e+01 1.0142710916823228e+01 
108 1 2 4.9517579028663222e-01 -3.8227591842190873e+02 1.0000000000000000e+00 7.3959746771864348e+00 1.0294493846652278e+01 1.0142710916823823e+01 
165 1 2 4.9517579028663222e-01 -5.3342772405178994e+02 1.0000000000000000e+00 7.3959746771864419e+00 1.0294493846652278e+01 1.0142710916821587e+01 
10 1 2 4.9517579028663222e-01 -5.1956379454479486e+02 1.0000000000000000e+00 7.3959746771863912e+00 1.0294493846652289e+01 1.0142710916820082e+01 
133 1 2 4.9517579028663222e-01 -4.6400218530863503e+02 1.0000000000000000e+00 7.3959746771864685e+00 1.0294493846652296e+01 1.0142710916824552e+01 
53 1 2 4.9517579028663222e-01 -4.6625854410261388e+02 1.0000000000000000e+00 7.3959746771864427e+00 1.0294493846652289e+01 1.0142710916820407e+01 
175 1 2 4.9517579028663222e-01 -4.7325510122356195e+02 1.0000000000000000e+00 7.3959746771865236e+00 1.0294493846652278e+01 1.0142710916821068e+01 
103 1 2 4.9517579028663222e-01 -3.7434013817047401e+02 1.0000000000000000e+00 7.3959746771863921e+00 1.0294493846652296e+01 1.0142710916824408e+01 
140 1 2 4.9517579028663222e-01 -4.3453952255215779e+02 1.0000000000000000e+00 7.3959746771863806e+00 1.0294493846652285e+01 1.0142710916820421e+01 
118 1 2 4.9517579028663222e-01 -4.6953657338788764e+02 1.0000000000000000e+00 7.3959746771863912e+00 1.0294493846652303e+01 1.0142710916822182e+01 
139 1 2 4.9517579028663222e-01 -3.9605239982809303e+02 1.0000000000000000e+00 7.3959746771863930e+00 1.0294493846652292e+01 1.0142710916821303e+01 
107 1 2 4.9517579028663222e-01 -3.7802739761231408e+02 1.0000000000000000e+00 7.3959746771865351e+00 1.0294493846652292e+01 1.0142710916822605e+01 
127 1 2 4.9517579028663222e-01 -4.4344557869081842e+02 1.0000000000000000e+00 7.3959746771864934e+00 1.0294493846652292e+01 1.0142710916829410e+01 
76 1 2 4.9517579028663222e-01 -4.0816576332432362e+02 1.0000000000000000e+00 7.3959746771863868e+00 1.0294493846652278e+01 1.0142710916827763e+01 
60 1 2 4.9517579028663222e-01 -3.9821126683233763e+02 1.0000000000000000e+00 7.3959746771863912e+00 1.0294493846652292e+01 1.0142710916820969e+01 
150 1 2 4.9517579028663222e-01 -4.1528824525593541e+02 1.0000000000000000e+00 7.3959746771864197e+00 1.0294493846652285e+01 1.0142710916823058e+01 
163 1 2 4.9517579028663222e-01 -4.8068130649526950e+02 1.0000000000000000e+00 7.3959746771865404e+00 1.0294493846652289e+01 1.0142710916820073e+01 
31 1 2 4.9517579028663222e-01 -4.2150682331883399e+02 1.0000000000000000e+00 7.3959746771864205e+00 1.0294493846652307e+01 1.0142710916820517e+01 
141 1 2 4.9517579028663222e-01 -4.1649208775561192e+02 1.0000000000000000e+00 7.3959746771864401e+00 1.0294493846652296e+01 1.0142710916819711e+01 
6 1 2 4.9517579028663222e-01 -4.5283550157303841e+02 1.0000000000000000e+00 7.3959746771863886e+00 1.0294493846652275e+01 1.0142710916821436e+01 
7 1 2 4.9517579028663222e-01 -4.5219307246162134e+02 1.0000000000000000e+00 7.3959746771864596e+00 1.0294493846652303e+01 1.0142710916823473e+01 
44 1 2 4.9517579028663222e-01 -4.5118263952607174e+02 1.0000000000000000e+00 7.3959746771864037e+00 1.0294493846652285e+01 1.0142710916821928e+01 
80 1 2 4.9517579028663222e-01 -4.2307021240714221e+02 1.0000000000000000e+00 7.3959746771864712e+00 1.0294493846652264e+01 1.0142710916820123e+01 
5 1 2 4.9517579028663222e-01 -4.5604024299835930e+02 1.0000000000000000e+00 7.3959746771863797e+00 1.0294493846652299e+01 1.0142710916821555e+01 
86 1 2 4.9517579028663222e-01 -4.5170152089717340e+02 1.0000000000000000e+00 7.3959746771864312e+00 1.0294493846652299e+01 1.0142710916820581e+01 
157 1 2 4.9517579028663222e-01 -4.6660079078634726e+02 1.0000000000000000e+00 7.3959746771864303e+00 1.0294493846652285e+01 1.0142710916822997e+01 
162 1 2 4.9517579028663222e-01 -4.7635920709366832e+02 1.0000000000000000e+00 7.3959746771864854e+00 1.0294493846652296e+01 1.0142710916822761e+01 
96 1 2 4.9517579028663222e-01 -4.3034548676543034e+02 1.0000000000000000e+00 7.3959746771863912e+00 1.0294493846652278e+01 1.0142710916820384e+01 
102 1 2 4.9517579028663222e-01 -3.9285918421611262e+02 1.0000000000000000e+00 7.3959746771865458e+00 1.0294493846652292e+01 1.0142710916826733e+01 
84 1 2 4.9517579028663222e-01 -3.9917008458541426e+02 1.0000000000000000e+00 7.3959746771864854e+00 1.0294493846652303e+01 1.0142710916822846e+01 
116 1 2 4.9517579028663222e-01 -4.4746002581518735e+02 1.0000000000000000e+00 7.3959746771864854e+00 1.0294493846652296e+01 1.0142710916825196e+01 
109 1 2 4.9517579028663222e-01 -2.9020105762047979e+02 1.0000000000000000e+00 7.3959746771864303e+00 1.0294493846652289e+01 1.0142710916822915e+01 
24 1 2 4.9517579028663222e-01 -4.5067844154120394e+02 1.0000000000000000e+00 7.3959746771864827e+00 1.0294493846652292e+01 1.0142710916821663e+01 
30 1 2 4.9517579028663222e-01 -4.5937968727289228e+02 1.0000000000000000e+00 7.3959746771864072e+00 1.0294493846652303e+01 1.0142710916820592e+01 
114 1 2 4.9517579028663222e-01 -3.9138093208006524e+02 1.0000000000000000e+00 7.3959746771864499e+00 1.0294493846652285e+01 1.0142710916822271e+01 
79 1 2 4.9517579028663222e-01 -3.9328915366796070e+02 1.0000000000000000e+00 7.3959746771864250e+00 1.0294493846652285e+01 1.0142710916822141e+01 
66 1 2 4.9517579028663222e-01 -4.1165356676389496e+02 1.0000000000000000e+00 7.3959746771864143e+00 1.0294493846652299e+01 1.0142710916819262e+01 
90 1 2 4.9517579028663222e-01 -3.9420330237477339e+02 1.0000000000000000e+00 7.3959746771865023e+00 1.0294493846652289e+01 1.0142710916826806e+01 
85 1 2 4.9517579028663222e-01 -3.5618663055957802e+02 1.0000000000000000e+00 7.3959746771864427e+00 1.0294493846652253e+01 1.0142710916819745e+01 
18 1 2 4.9517579028663222e-01 -7.4728276931755275e+01 1.0000000000000000e+00 7.3959746771864436e+00 1.0294493846652299e+01 1.0142710916821592e+01 
120 1 2 4.9517579028663222e-01 1.7437812388772642e+02 1.0000000000000000e+00 7.3959746771863699e+00 1.0294493846652285e+01 1.0142710916820810e+01 

Velocities

12 -9.1867210662693898e-04 -4.2502260429588823e-03 3.7859171116273282e-01
145 -9.1867210801938634e-04 -4.2502260430913076e-03 3.7859171116705559e-01
55 -9.1867210342889223e-04 -4.2502260434355505e-03 3.7859171116623275e-01
156 -9.1867210913336753e-04 -4.2502260436084183e-03 3.7859171116555285e-01
67 -9.1867211156316804e-04 -4.2502260426715826e-03 3.7859171116561047e-01
97 -9.1867210796666126e-04 -4.2502260429880881e-03 3.7859171116540014e-01
121 -9.1867210632442110e-04 -4.2502260426715826e-03 3.7859171116326795e-01
49 -9.1867210551280925e-04 -4.2502260430902971e-03 3.7859171116542045e-01
83 -9.1867210511434934e-04 -4.2502260428444504e-03 3.7859171117996010e-01
41 -9.1867211013688002e-04 -4.2502260425002830e-03 3.7859171116223383e-01
119 -9.1867210408665319e-04 -4.2502260432626827e-03 3.7859171116608065e-01
3 -9.1867210555602599e-04 -4.2502260430913067e-03 3.7859171116696616e-01
174 -9.1867210858120538e-04 -4.2502260430902798e-03 3.7859171116446549e-01
91 -9.1867211012750373e-04 -4.2502260425002830e-03 3.7859171117332036e-01
125 -9.1867210412987003e-04 -4.2502260423274161e-03 3.7859171116526597e-01
1 -9.1867210455253031e-04 -4.2502260432626835e-03 3.7859171116456292e-01
132 -9.1867210692900476e-04 -4.2502260432626835e-03 3.7859171116633378e-01
113 -9.1867210482133969e-04 -4.2502260437809096e-03 3.7859171116344154e-01
4 -9.1867210412987013e-04 -4.2502260430910899e-03 3.7859171116457341e-01
147 -9.1867210973855206e-04 -4.2502260428444495e-03 3.7859171116901558e-01
77 -9.1867210312637435e-04 -4.2502260425002830e-03 3.7859171116360119e-01
78 -9.1867210450931346e-04 -4.2502260430911376e-03 3.7859171116424323e-01
149 -9.1867210463896399e-04 -4.2502260434355496e-03 3.7859171117466034e-01
73 -9.1867210400021950e-04 -4.2502260426715817e-03 3.7859171116455526e-01
115 -9.1867210408665329e-04 -4.2502260436084183e-03 3.7859171116552165e-01
37 -9.1867210378413530e-04 -4.2502260430004072e-03 3.7859171116513313e-01
168 -9.1867210849419945e-04 -4.2502260428444495e-03 3.7859171116436563e-01
138 -9.1867211008413825e-04 -4.2502260437806737e-03 3.7859171117287072e-01
126 -9.1867210719821888e-04 -4.2502260429903693e-03 3.7859171117438273e-01
48 -9.1867211159642453e-04 -4.2502260437809088e-03 3.7859171116721824e-01
19 -9.1867210451878028e-04 -4.2502260432626827e-03 3.7859171116477702e-01
42 -9.1867210671337267e-04 -4.2502260429265089e-03 3.7859171116386781e-01
71 -9.1867210675644097e-04 -4.2502260429545316e-03 3.7859171116482959e-01
25 -9.1867211078519931e-04 -4.2502260434355505e-03 3.7859171116563145e-01
43 -9.1867210800987821e-04 -4.2502260426715835e-03 3.7859171116754814e-01
13 -9.1867210654050530e-04 -4.2502260428444495e-03 3.7859171116388268e-01
88 -9.1867210888308271e-04 -4.2502260430907777e-03 3.7859171116424589e-01
20 -9.1867210489826514e-04 -4.2502260429828414e-03 3.7859171116692397e-01
128 -9.1867210564245978e-04 -4.2502260430131097e-03 3.7859171116589185e-01
143 -9.1867210558928259e-04 -4.2502260442986292e-03 3.7859171116708357e-01
52 -9.1867210533043355e-04 -4.2502260430041499e-03 3.7859171116301099e-01
167 -9.1867210555602609e-04 -4.2502260430138800e-03 3.7859171116336088e-01