LAMMPS data file via write_data, version 30 Jul 2016, timestep = 50400000

3696 atoms
8 atom types

0.0000000000000000e+00 1.0000000000000000e+02 xlo xhi
0.0000000000000000e+00 4.0000000000000000e+01 ylo yhi
0.0000000000000000e+00 4.0000000000000000e+01 zlo zhi

Masses

1 3.896
2 5.36
3 20.064
4 8.378
5 8.378
6 8.378
7 8.378
8 8.378

Atoms # meso-molecular

388 389 2 1.0279999993660109e+00 1.1637760522636330e+02 1.0000000000000000e+00 1.2301031675102629e+00 1.0000000000000000e+01 1.2047928646946965e-01 
3 4 2 1.0279999991629403e+00 -3.1632869841789970e+03 1.0000000000000000e+00 3.1740789289687150e+00 1.0000000000000000e+01 1.4514498740604658e+00 
10 11 2 1.0280000010228039e+00 -2.0916606854042775e+03 1.0000000000000000e+00 4.8737315628109981e+00 1.0000000000000000e+01 1.2682769982697624e+00 
349 350 2 1.0280000006961534e+00 1.3146781919450857e+03 1.0000000000000000e+00 5.7341927697023873e+00 1.0000000000000000e+01 1.4448077797825815e-01 
350 351 2 1.0279999973740905e+00 -5.2789295066712043e+02 1.0000000000000000e+00 7.4154395942639457e+00 1.0000000000000000e+01 6.6491253580580423e-01 
18 19 2 1.0279999999118721e+00 -1.2585549435681437e+03 1.0000000000000000e+00 9.4081289331779328e+00 1.0000000000000000e+01 5.9272325496735823e-01 
16 17 2 1.0279999997637241e+00 -4.3724124960089046e+02 1.0000000000000000e+00 1.0382324311454084e+01 1.0000000000000000e+01 1.0554076997672199e+00 
395 396 2 1.0279999986113419e+00 2.4212633027001164e+02 1.0000000000000000e+00 1.4899150656834596e+01 1.0000000000000000e+01 3.4273188902019303e-01 
45 46 2 1.0280000018489686e+00 -6.2340246163559561e+02 1.0000000000000000e+00 1.5062347503459330e+01 1.0000000000000000e+01 1.6273337980907987e+00 
48 49 2 1.0280000005539744e+00 5.0208905555610659e+02 1.0000000000000000e+00 1.6531091647139327e+01 1.0000000000000000e+01 1.5898886079864865e+00 
306 307 2 1.0280000003370273e+00 -5.0148646271847874e-01 1.0000000000000000e+00 1.7940020654084325e+01 1.0000000000000000e+01 1.0606970228929617e+00 
220 221 2 1.0280000018807844e+00 -1.5543132495401996e+03 1.0000000000000000e+00 1.9332212575520060e+01 1.0000000000000000e+01 4.4965550492087974e-02 
89 90 2 1.0280000003119241e+00 1.6667190424548908e+03 1.0000000000000000e+00 2.0650516183477258e+01 1.0000000000000000e+01 1.6587643198285653e+00 
4 5 2 1.0280000003332619e+00 -1.7180305154713046e+03 1.0000000000000000e+00 2.2628171294874171e+01 1.0000000000000000e+01 1.0598899516650873e+00 
102 103 2 1.0280000003899170e+00 4.4656255337967468e+02 1.0000000000000000e+00 2.4123242031062425e+01 1.0000000000000000e+01 6.6992427413175804e-01 
185 186 2 1.0279999999451719e+00 8.0303700727986097e+02 1.0000000000000000e+00 2.5425156310511635e+01 1.0000000000000000e+01 7.8495618910429998e-01 
118 119 2 1.0279999999995935e+00 -2.4718801049376316e+03 1.0000000000000000e+00 2.7116909436638707e+01 1.0000000000000000e+01 2.8157452591706705e-01 
606 607 2 1.0279999999989768e+00 -9.8020934366358097e+02 1.0000000000000000e+00 1.2257089975169155e+00 1.2600000000000000e+01 1.5787056110215505e+00 
607 608 2 1.0280000000014853e+00 -7.7016243932809857e+01 1.0000000000000000e+00 1.7090761419788587e+00 1.2600000000000000e+01 2.1578089515480156e-01 
689 690 2 1.0280000000072700e+00 -1.0779891826493208e+03 1.0000000000000000e+00 2.9482076165125721e+00 1.2600000000000000e+01 6.3699664717011761e-01 
524 525 2 1.0279999999976961e+00 2.5694099182915638e+03 1.0000000000000000e+00 4.4327219371452404e+00 1.2600000000000000e+01 1.3595055974279822e+00 
816 817 2 1.0280000000085241e+00 3.8849286507384272e+02 1.0000000000000000e+00 5.8752236590038427e+00 1.2600000000000000e+01 1.0013898855087300e-01 
688 689 2 1.0280000000092946e+00 -1.3040310699908337e+03 1.0000000000000000e+00 7.1468140938548341e+00 1.2600000000000000e+01 1.1491820141438289e+00 
600 601 2 1.0280000000026057e+00 -4.4388802061580350e+01 1.0000000000000000e+00 8.5140092519358124e+00 1.2600000000000000e+01 1.4312191500526776e+00 
679 680 2 1.0279999999959661e+00 -1.9199119254544937e+03 1.0000000000000000e+00 9.1178037227567543e+00 1.2600000000000000e+01 1.9140756329525888e-01 
589 590 2 1.0279999999931939e+00 -7.9107037199418869e+02 1.0000000000000000e+00 1.1160402723518555e+01 1.2600000000000000e+01 1.9049389667863090e-01 
673 674 2 1.0280000000015730e+00 -3.7156097909164623e+03 1.0000000000000000e+00 1.1227361177748580e+01 1.2600000000000000e+01 1.3685096519721753e+00 
509 510 2 1.0279999999824645e+00 -6.0380310489705016e+02 1.0000000000000000e+00 1.4604164182912424e+01 1.2600000000000000e+01 1.3004055614881300e+00 
666 667 2 1.0279999999880032e+00 4.9628900702177623e+02 1.0000000000000000e+00 1.5884951639033549e+01 1.2600000000000000e+01 2.4414088457212382e-01 
665 666 2 1.0280000000306533e+00 3.7152778898177576e+02 1.0000000000000000e+00 1.6703684466588928e+01 1.2600000000000000e+01 1.5055520981177499e+00 
578 579 2 1.0279999999637432e+00 7.0751219797525433e+00 1.0000000000000000e+00 1.8465212110451475e+01 1.2600000000000000e+01 5.7271595187740454e-01 
615 616 2 1.0279999999903444e+00 -3.8623470144310136e+02 1.0000000000000000e+00 2.0957668826434567e+01 1.2600000000000000e+01 9.0160652038224109e-01 
517 518 2 1.0280000000102365e+00 3.8908919324040589e+03 1.0000000000000000e+00 2.1942557267378209e+01 1.2600000000000000e+01 4.1998523432482399e-01 
518 519 2 1.0279999999813894e+00 3.4967763182684405e+02 1.0000000000000000e+00 2.3502641238224765e+01 1.2600000000000000e+01 1.7858540465222577e+00 
1232 1233 2 1.0280000012578712e+00 -1.1854151177894892e+03 1.0000000000000000e+00 1.7633886449589317e-01 1.5199999999999999e+01 1.5519904268163356e-01 
1189 1190 2 1.0279999968675591e+00 3.8717112021715145e+01 1.0000000000000000e+00 7.0525592475200072e-01 1.5199999999999999e+01 1.5619275774880312e+00 
1015 1016 2 1.0280000038055070e+00 -2.9240537390565930e+02 1.0000000000000000e+00 2.1859655363365156e+00 1.5199999999999999e+01 1.1023349259459745e+00 
1270 1271 2 1.0280000015233661e+00 -5.9042031449849986e+01 1.0000000000000000e+00 3.9558339409026293e+00 1.5199999999999999e+01 4.0543670116798858e-01 
1275 1276 2 1.0279999985352881e+00 1.8129693524440549e+03 1.0000000000000000e+00 5.6773892719117809e+00 1.5199999999999999e+01 1.4683164331379442e-01 
1273 1274 2 1.0280000003708636e+00 1.3160882080841393e+03 1.0000000000000000e+00 7.2869364565689114e+00 1.5199999999999999e+01 6.5586912122002280e-02 
1184 1185 2 1.0279999995793234e+00 5.5717694551732018e+02 1.0000000000000000e+00 9.3188119044184177e+00 1.5199999999999999e+01 3.0403076515891803e-01 
1185 1186 2 1.0280000003222571e+00 2.4175658011293099e+03 1.0000000000000000e+00 9.1429640480386318e+00 1.5199999999999999e+01 1.6225157104521386e+00 
943 944 2 1.0279999999572040e+00 6.2087857691897998e+03 1.0000000000000000e+00 1.0775242226929800e+01 1.5199999999999999e+01 1.6873408145496877e-01 
1070 1071 2 1.0279999996251761e+00 7.4625959586604063e+02 1.0000000000000000e+00 1.1354924498719956e+01 1.5199999999999999e+01 1.7933474192520014e+00 
969 970 2 1.0279999999799145e+00 -6.2132889121243943e+02 1.0000000000000000e+00 1.3248201540766933e+01 1.5199999999999999e+01 1.1417511809929139e-01 
1028 1029 2 1.0279999998724785e+00 -7.3277677422154898e+02 1.0000000000000000e+00 1.2881821162538433e+01 1.5199999999999999e+01 1.4140854785716992e+00 
972 973 2 1.0280000008313555e+00 5.0000976137684745e+02 1.0000000000000000e+00 1.4745644731003416e+01 1.5199999999999999e+01 1.7038111293903959e+00 
1188 1189 2 1.0279999986685462e+00 -3.5827461906717656e+02 1.0000000000000000e+00 1.5996907359036499e+01 1.5199999999999999e+01 1.7354977354615941e+00 
1064 1065 2 1.0280000007538861e+00 -1.1855549642043561e+03 1.0000000000000000e+00 1.8318948208252603e+01 1.5199999999999999e+01 1.2132231277187668e+00 
1615 1616 2 1.0280000000053422e+00 -2.1835051537189802e+03 1.0000000000000000e+00 5.1240220665898129e-01 1.7800000000000001e+01 1.6228438661262687e+00 
1566 1567 2 1.0279999999881417e+00 -4.0089518442222993e+02 1.0000000000000000e+00 2.0073829284354727e+00 1.7800000000000001e+01 9.4631769238694885e-01 
1610 1611 2 1.0279999999938063e+00 -2.3512374868349962e+03 1.0000000000000000e+00 4.9856852004760164e+00 1.7800000000000001e+01 7.7563214911270317e-01 
1612 1613 2 1.0280000000026184e+00 -1.3047746151386395e+03 1.0000000000000000e+00 3.7235807768531144e+00 1.7800000000000001e+01 1.2739942828486517e+00 
1740 1741 2 1.0279999999917457e+00 3.8897554498625902e+02 1.0000000000000000e+00 6.7765496667690872e+00 1.7800000000000001e+01 1.3966478428199316e+00 
1611 1612 2 1.0280000000048839e+00 -1.7278800296144937e+03 1.0000000000000000e+00 7.2535415190838988e+00 1.7800000000000001e+01 1.3132260353868150e-01 
1394 1395 2 1.0280000000022325e+00 1.8650817088354120e+03 1.0000000000000000e+00 8.8183680146699182e+00 1.7800000000000001e+01 1.2260361837443785e+00 
1519 1520 2 1.0279999999928993e+00 -7.1921997781272285e+02 1.0000000000000000e+00 9.9567655948496920e+00 1.7800000000000001e+01 6.6649729737963248e-01 
1530 1531 2 1.0280000000106140e+00 -9.7960126872269825e+02 1.0000000000000000e+00 1.2090568203730596e+01 1.7800000000000001e+01 7.6455628449067536e-01 
1406 1407 2 1.0279999999877416e+00 1.0190365002738861e+03 1.0000000000000000e+00 1.2691906303862272e+01 1.7800000000000001e+01 1.7709635264530166e+00 
1448 1449 2 1.0280000000017171e+00 2.5682477611091081e+03 1.0000000000000000e+00 1.5625831135564820e+01 1.7800000000000001e+01 1.3405325585210242e+00 
1523 1524 2 1.0280000000041731e+00 -1.9396773585753219e+03 1.0000000000000000e+00 1.6309817196983367e+01 1.7800000000000001e+01 2.1086912080234260e-01 
1435 1436 2 1.0279999999986060e+00 -8.5254997935076187e+02 1.0000000000000000e+00 1.8120211666462364e+01 1.7800000000000001e+01 3.7821688461582986e-01 
1431 1432 2 1.0280000000027241e+00 -6.2284348897805557e+02 1.0000000000000000e+00 1.9084209089082872e+01 1.7800000000000001e+01 1.6429582855533817e+00 
1434 1435 2 1.0279999999980838e+00 4.9902900246680258e+02 1.0000000000000000e+00 2.0194988607473533e+01 1.7800000000000001e+01 9.3035815345457973e-01 
1521 1522 2 1.0279999999956830e+00 -3.2391363259549498e+03 1.0000000000000000e+00 2.3215523921017375e+01 1.7800000000000001e+01 2.1146051967879395e-01 
1488 1489 2 1.0280000000082565e+00 4.4617136974428604e+02 1.0000000000000000e+00 2.3964498404017316e+01 1.7800000000000001e+01 1.5512922331992818e+00 
1400 1401 2 1.0279999999951452e+00 -4.2496186562304240e+02 1.0000000000000000e+00 2.5017489496143419e+01 1.7800000000000001e+01 1.7218590440525666e-01 
1525 1526 2 1.0280000000042140e+00 1.5097925083955846e+02 1.0000000000000000e+00 2.5958606902962277e+01 1.7800000000000001e+01 1.5555842074471418e+00 
1782 1783 2 1.0279999999982095e+00 4.0880086592578016e+02 1.0000000000000000e+00 2.7076455442230390e+01 1.7800000000000001e+01 2.9485987330436669e-01 
91 92 2 1.0280000002037379e+00 -2.9487393914815868e+02 1.0000000000000000e+00 1.4917221137136691e+00 1.0000000000000000e+01 1.8483617578044957e+00 
428 429 2 1.0279999991949462e+00 1.7758895675480262e+03 1.0000000000000000e+00 1.6085142646258876e+00 1.0000000000000000e+01 3.3175374827352928e+00 
52 53 2 1.0280000005587246e+00 2.8094352074883250e+02 1.0000000000000000e+00 3.4244905139593422e+00 1.0000000000000000e+01 2.8234059079573184e+00 
98 99 2 1.0280000011913186e+00 -6.4295482107434805e+02 1.0000000000000000e+00 5.2155338928582218e+00 1.0000000000000000e+01 3.3457376273667947e+00 
12 13 2 1.0279999986826067e+00 9.0359433767760765e+02 1.0000000000000000e+00 6.0423457664558260e+00 1.0000000000000000e+01 2.2598460249108934e+00 
392 393 2 1.0280000017926914e+00 5.8110325068837696e+01 1.0000000000000000e+00 8.0327968603958020e+00 1.0000000000000000e+01 2.0436057210009051e+00 
177 178 2 1.0279999998131630e+00 2.3450037407839263e+03 1.0000000000000000e+00 7.3018502755301844e+00 1.0000000000000000e+01 3.6356489020917686e+00 
391 392 2 1.0279999980056540e+00 3.7639984402891923e+03 1.0000000000000000e+00 9.0012169530703545e+00 1.0000000000000000e+01 3.1164234738450025e+00 
273 274 2 1.0279999991674538e+00 2.4602058087914480e+02 1.0000000000000000e+00 1.0655405079638852e+01 1.0000000000000000e+01 2.7682205446120509e+00 
282 283 2 1.0280000039831090e+00 1.0911499518178051e+02 1.0000000000000000e+00 1.3451636636467404e+01 1.0000000000000000e+01 2.8515285177134513e+00 
264 265 2 1.0280000001149896e+00 -3.5711341408566375e+02 1.0000000000000000e+00 1.8345953624616513e+01 1.0000000000000000e+01 2.4562159073679126e+00 
49 50 2 1.0280000001216245e+00 -8.5511717254229552e+02 1.0000000000000000e+00 1.9635159153715176e+01 1.0000000000000000e+01 2.6382461610169865e+00 
46 47 2 1.0280000001032850e+00 -1.0954600386717730e+03 1.0000000000000000e+00 2.2078167838520859e+01 1.0000000000000000e+01 2.1465965791454664e+00 
482 483 2 1.0280000000046254e+00 1.0159747675967906e+03 1.0000000000000000e+00 1.5414542975232848e+00 1.2600000000000000e+01 2.9057737892526134e+00 
650 651 2 1.0279999999866070e+00 -6.0885314519612010e+01 1.0000000000000000e+00 3.4196625139086936e+00 1.2600000000000000e+01 2.9139562541954529e+00 
651 652 2 1.0280000000140961e+00 -9.6121036817654364e+00 1.0000000000000000e+00 4.9160327989003543e+00 1.2600000000000000e+01 2.7437917868686359e+00 
567 568 2 1.0279999999868707e+00 1.6871533937826443e+03 1.0000000000000000e+00 6.7623823710578881e+00 1.2600000000000000e+01 2.6493742398439299e+00 
479 480 2 1.0280000000170721e+00 -3.2564874248358828e+03 1.0000000000000000e+00 9.0718046635480185e+00 1.2600000000000000e+01 3.3374564778000204e+00 
675 676 2 1.0279999999907954e+00 3.2894134061734567e+03 1.0000000000000000e+00 1.1620855210434765e+01 1.2600000000000000e+01 2.8818569349057843e+00 
593 594 2 1.0280000000017202e+00 1.1270482274803683e+03 1.0000000000000000e+00 1.5117091889487810e+01 1.2600000000000000e+01 2.8581177775422097e+00 
591 592 2 1.0279999999913354e+00 -5.8221781933136555e+01 1.0000000000000000e+00 1.4107834279884621e+01 1.2600000000000000e+01 3.6324488435019768e+00 
581 582 2 1.0280000000087097e+00 2.6105050477112727e+03 1.0000000000000000e+00 1.7172409922372850e+01 1.2600000000000000e+01 2.7288003566830508e+00 
660 661 2 1.0280000000219192e+00 -1.0328041127385728e+02 1.0000000000000000e+00 1.8625766165567082e+01 1.2600000000000000e+01 3.5008872374066122e+00 
597 598 2 1.0279999999497336e+00 -3.2387726601603190e+03 1.0000000000000000e+00 1.9765504294979372e+01 1.2600000000000000e+01 2.3550220417600203e+00 
596 597 2 1.0280000000039164e+00 -7.7787638124135447e+02 1.0000000000000000e+00 2.0299777521005225e+01 1.2600000000000000e+01 3.4595976660032468e+00 
565 566 2 1.0280000000349163e+00 2.4216714003134821e+03 1.0000000000000000e+00 2.2404733140926190e+01 1.2600000000000000e+01 2.1054606276166408e+00 
822 823 2 1.0280000000477709e+00 2.4661998727648252e+03 1.0000000000000000e+00 2.5067939992594702e+01 1.2600000000000000e+01 2.3318286526839782e+00 
486 487 2 1.0279999999588825e+00 5.6725145719537977e+03 1.0000000000000000e+00 2.6260795165411359e+01 1.2600000000000000e+01 2.4107553302316127e+00 
1190 1191 2 1.0279999988123070e+00 1.5264325646124221e+03 1.0000000000000000e+00 1.8792492194127632e+00 1.5199999999999999e+01 2.9087492706313269e+00 
1352 1353 2 1.0279999986901507e+00 1.7774507416786382e+03 1.0000000000000000e+00 3.1216760850289043e+00 1.5199999999999999e+01 3.4751866775464739e+00 
927 928 2 1.0280000001879646e+00 -3.1628860005848310e+03 1.0000000000000000e+00 4.4930281705827078e+00 1.5199999999999999e+01 2.6892420250768634e+00 
934 935 2 1.0279999982580466e+00 -2.0912877374523682e+03 1.0000000000000000e+00 5.4612627021501554e+00 1.5199999999999999e+01 1.8753825602111325e+00 
1316 1317 2 1.0279999980900896e+00 5.9153432964187409e+01 1.0000000000000000e+00 6.8632826837080616e+00 1.5199999999999999e+01 2.9137098223721494e+00 
1276 1277 2 1.0280000008354040e+00 5.3336268548655619e+02 1.0000000000000000e+00 8.7441713251018029e+00 1.5199999999999999e+01 2.9700832490135691e+00 
997 998 2 1.0280000006339898e+00 2.9764666430379557e+03 1.0000000000000000e+00 1.0900997740478937e+01 1.5199999999999999e+01 3.0433784513839237e+00 
1372 1373 2 1.0279999989790898e+00 -3.3277425942113928e+02 1.0000000000000000e+00 1.3781537765043579e+01 1.5199999999999999e+01 2.9988337945056118e+00 
973 974 2 1.0280000014834203e+00 -8.5559780396031715e+02 1.0000000000000000e+00 1.6501550251772098e+01 1.5199999999999999e+01 3.2539431761427582e+00 
1013 1014 2 1.0280000000564529e+00 1.6667412191844746e+03 1.0000000000000000e+00 1.7715016291006446e+01 1.5199999999999999e+01 2.3987988536960572e+00 
945 946 2 1.0279999990803381e+00 -5.2890946624488806e+03 1.0000000000000000e+00 2.0249098371528362e+01 1.5199999999999999e+01 2.2109420852664874e+00 
977 978 2 1.0280000008636538e+00 2.2027453057596240e+03 1.0000000000000000e+00 2.0881614910888906e+01 1.5199999999999999e+01 2.9328743419146823e+00 
1613 1614 2 1.0280000000069962e+00 -1.0776448318316175e+03 1.0000000000000000e+00 1.8179580108123621e+00 1.7800000000000001e+01 2.6077719526405141e+00 
1734 1735 2 1.0280000000043994e+00 -1.1107321603849789e+02 1.0000000000000000e+00 3.3171238439651050e+00 1.7800000000000001e+01 3.3054737725518821e+00 
1654 1655 2 1.0279999999930467e+00 1.9028909886830456e+03 1.0000000000000000e+00 4.5596013386459910e+00 1.7800000000000001e+01 2.5742257039866656e+00 
1574 1575 2 1.0280000000067249e+00 -5.9144287526293468e+01 1.0000000000000000e+00 6.3341498451296028e+00 1.7800000000000001e+01 2.8035115366132581e+00 
1658 1659 2 1.0279999999951390e+00 1.5123335924107968e+02 1.0000000000000000e+00 9.2704346987426405e+00 1.7800000000000001e+01 2.7334455681369865e+00 
1826 1827 2 1.0280000000037721e+00 1.4487712912530133e+03 1.0000000000000000e+00 1.1124449362851269e+01 1.7800000000000001e+01 2.3039729592818849e+00 
1698 1699 2 1.0279999999934015e+00 -1.5843013475158914e+03 1.0000000000000000e+00 1.1681411225783338e+01 1.7800000000000001e+01 3.5084841478510760e+00 
1403 1404 2 1.0279999999962866e+00 -3.2569622767938854e+03 1.0000000000000000e+00 1.7396320436789445e+01 1.7800000000000001e+01 2.0531961596374981e+00 
1491 1492 2 1.0280000000025138e+00 1.6868854436632487e+03 1.0000000000000000e+00 1.6293976096816767e+01 1.7800000000000001e+01 2.6459017290529383e+00 
1571 1572 2 1.0279999999943694e+00 8.0277250529608204e+02 1.0000000000000000e+00 2.5003470125557044e+01 1.7800000000000001e+01 2.4718068467111780e+00 
266 267 2 1.0279999997895977e+00 1.5281205774639636e+03 1.0000000000000000e+00 9.2015583972704063e-01 1.0000000000000000e+01 4.5512255442102019e+00 
430 431 2 1.0279999993780056e+00 -2.0958691469826827e+03 1.0000000000000000e+00 3.3818034306672526e+00 1.0000000000000000e+01 4.3586813252214407e+00 
340 341 2 1.0279999990655340e+00 2.3915707577428520e+03 1.0000000000000000e+00 4.7745976793964404e+00 1.0000000000000000e+01 4.8953315085896865e+00 
100 101 2 1.0280000007641108e+00 4.1967793132897827e+02 1.0000000000000000e+00 6.5058872449445255e+00 1.0000000000000000e+01 4.7421020496138455e+00 
176 177 2 1.0280000012748269e+00 5.1107331437755994e+02 1.0000000000000000e+00 8.6612436462181677e+00 1.0000000000000000e+01 4.9497462351420634e+00 
261 262 2 1.0280000007913188e+00 2.4198114863581509e+03 1.0000000000000000e+00 1.0078518584070638e+01 1.0000000000000000e+01 4.4959660690900529e+00 
187 188 2 1.0280000015249158e+00 5.8801787218989421e+02 1.0000000000000000e+00 1.1637394339887624e+01 1.0000000000000000e+01 3.6781195543172669e+00 
27 28 2 1.0279999982201946e+00 -4.5272987450742949e+02 1.0000000000000000e+00 1.1533656399246199e+01 1.0000000000000000e+01 5.3250269900209082e+00 
281 282 2 1.0279999971362250e+00 1.2414225809243953e+03 1.0000000000000000e+00 1.3610319533000448e+01 1.0000000000000000e+01 3.8600813209217817e+00 
902 903 2 1.0279999999952434e+00 1.4465146737298328e+03 1.0000000000000000e+00 1.3300886240983523e+00 1.2600000000000000e+01 4.3262999371001261e+00 
734 735 2 1.0280000000022684e+00 1.5084017346653187e+02 1.0000000000000000e+00 1.1116658926338073e-01 1.2600000000000000e+01 5.1066462497823819e+00 
729 730 2 1.0280000000092600e+00 4.9338449514468812e+02 1.0000000000000000e+00 3.3184871323158727e+00 1.2600000000000000e+01 4.3042664963116524e+00 
860 861 2 1.0279999999845866e+00 2.1223935660852417e+03 1.0000000000000000e+00 5.2884157461580248e+00 1.2600000000000000e+01 4.4831750586631696e+00 
774 775 2 1.0280000000161715e+00 -1.5815382139099174e+03 1.0000000000000000e+00 6.7145906081251665e+00 1.2600000000000000e+01 3.9446203293702409e+00 
480 481 2 1.0279999999830776e+00 -1.2584116213179495e+03 1.0000000000000000e+00 9.0450294408524012e+00 1.2600000000000000e+01 4.4643178561495898e+00 
470 471 2 1.0280000000068319e+00 1.8633548850455636e+03 1.0000000000000000e+00 1.0758513401337872e+01 1.2600000000000000e+01 3.6845791396457472e+00 
507 508 2 1.0280000000089531e+00 -6.2122905641803163e+02 1.0000000000000000e+00 1.2017572434273713e+01 1.2600000000000000e+01 5.3653893950987390e+00 
632 633 2 1.0279999999894307e+00 1.2322604229537433e+03 1.0000000000000000e+00 1.3323939641045921e+01 1.2600000000000000e+01 4.9815848250102057e+00 
633 634 2 1.0280000000068568e+00 6.0665478071498001e+02 1.0000000000000000e+00 1.4967596297452122e+01 1.2600000000000000e+01 5.2754801334414454e+00 
508 509 2 1.0280000000075340e+00 -1.0950332935355914e+03 1.0000000000000000e+00 1.6269910159189120e+01 1.2600000000000000e+01 4.2887318283184941e+00 
476 477 2 1.0279999999759948e+00 -4.1991291946986701e+02 1.0000000000000000e+00 1.7571690873090358e+01 1.2600000000000000e+01 4.6536177211041023e+00 
528 529 2 1.0279999999598581e+00 -3.8718912612548088e+01 1.0000000000000000e+00 2.0438331041748590e+01 1.2600000000000000e+01 5.2311713612511701e+00 
864 865 2 1.0280000000458667e+00 9.4395795148851946e+01 1.0000000000000000e+00 2.5867082530328830e+01 1.2600000000000000e+01 4.0235093198207039e+00 
473 474 2 1.0279999999895402e+00 -2.6851094159502454e+03 1.0000000000000000e+00 2.7571047096154043e+01 1.2600000000000000e+01 3.7409300306393667e+00 
483 484 2 1.0279999999968938e+00 -5.2832182624514371e+03 1.0000000000000000e+00 2.6467061514747119e+01 1.2600000000000000e+01 5.2229159367890077e+00 
475 476 2 1.0280000000133223e+00 2.3435316664477527e+03 1.0000000000000000e+00 2.8205402173234056e+01 1.2600000000000000e+01 4.8128502960806232e+00 
1143 1144 2 1.0280000019282189e+00 8.1482958673310395e+02 1.0000000000000000e+00 1.1533370596561041e+00 1.5199999999999999e+01 4.3371518149039696e+00 
1308 1309 2 1.0279999992390847e+00 5.1088812036970103e+02 1.0000000000000000e+00 2.9495494575150616e+00 1.5199999999999999e+01 5.4033030487804448e+00 
1354 1355 2 1.0279999995552929e+00 -2.0974087170168468e+03 1.0000000000000000e+00 4.3605239379085718e+00 1.5199999999999999e+01 4.7420138471136557e+00 
936 937 2 1.0280000020878473e+00 9.0343323198780627e+02 1.0000000000000000e+00 6.0495530165201092e+00 1.5199999999999999e+01 3.7884513163978433e+00 
1315 1316 2 1.0279999986592159e+00 3.7643281523460892e+03 1.0000000000000000e+00 8.2427605901609553e+00 1.5199999999999999e+01 4.3105881885495014e+00 
1100 1101 2 1.0280000015036899e+00 5.1311364323817349e+02 1.0000000000000000e+00 9.8897220681174858e+00 1.5199999999999999e+01 4.7040631603334884e+00 
1212 1213 2 1.0279999983265662e+00 3.9068961686468219e+02 1.0000000000000000e+00 1.1406380863685634e+01 1.5199999999999999e+01 4.5616363451064306e+00 
949 950 2 1.0280000010546178e+00 -5.9806390130277180e+02 1.0000000000000000e+00 1.2586575470537582e+01 1.5199999999999999e+01 3.7265562234524676e+00 
1102 1103 2 1.0280000001422827e+00 6.4067026719663295e+02 1.0000000000000000e+00 1.4930616118352463e+01 1.5199999999999999e+01 4.2765303207763150e+00 
1061 1062 2 1.0279999989031106e+00 -1.9439798524855246e+03 1.0000000000000000e+00 1.6012550741858139e+01 1.5199999999999999e+01 4.7635759706943377e+00 
1077 1078 2 1.0279999995752633e+00 -3.8668298336056887e+02 1.0000000000000000e+00 1.8780686808997206e+01 1.5199999999999999e+01 4.9812131567178994e+00 
935 936 2 1.0279999998988900e+00 -2.6846767727248625e+03 1.0000000000000000e+00 2.0557558338963656e+01 1.5199999999999999e+01 5.3047983015271631e+00 
981 982 2 1.0280000003672929e+00 1.3337071348365939e+03 1.0000000000000000e+00 2.2068855287249747e+01 1.5199999999999999e+01 4.7616460764154347e+00 
1531 1532 2 1.0279999999884046e+00 -7.8842349834169966e+01 1.0000000000000000e+00 1.3974066060538679e+00 1.7800000000000001e+01 4.0722080779300294e+00 
1690 1691 2 1.0280000000116634e+00 -1.3760051426806731e+03 1.0000000000000000e+00 1.9220419951944423e+00 1.7800000000000001e+01 5.4165443401892341e+00 
1780 1781 2 1.0279999999988874e+00 1.2854820337087435e+03 1.0000000000000000e+00 4.2092848384785411e+00 1.7800000000000001e+01 4.5722287108717827e+00 
1823 1824 2 1.0279999999879574e+00 -3.2661700315858234e+03 1.0000000000000000e+00 6.9319087124611274e+00 1.7800000000000001e+01 4.0334527270470319e+00 
1818 1819 2 1.0280000000049974e+00 8.5498538358649034e+02 1.0000000000000000e+00 5.6946384302947832e+00 1.7800000000000001e+01 5.0070735616845141e+00 
1575 1576 2 1.0279999999967435e+00 -1.1984949670665355e+01 1.0000000000000000e+00 8.9694455286671158e+00 1.7800000000000001e+01 3.9469699605332274e+00 
1653 1654 2 1.0279999999979406e+00 4.9263184851991991e+02 1.0000000000000000e+00 9.5076094663303756e+00 1.7800000000000001e+01 5.3607784207710152e+00 
1616 1617 2 1.0280000000048637e+00 -3.1261284531815591e+03 1.0000000000000000e+00 1.2941637600836520e+01 1.7800000000000001e+01 4.2245149665191759e+00 
265 266 2 1.0279999984694108e+00 3.8440093211102223e+01 1.0000000000000000e+00 9.8210642680729532e-01 1.0000000000000000e+01 6.0565157569744423e+00 
384 385 2 1.0280000024830864e+00 5.1110408950842475e+02 1.0000000000000000e+00 2.6068766886611385e+00 1.0000000000000000e+01 5.7604759277275512e+00 
305 306 2 1.0279999973908953e+00 -1.9062515852556103e+03 1.0000000000000000e+00 2.7739556871380371e+00 1.0000000000000000e+01 7.1384535707836703e+00 
262 263 2 1.0280000017025384e+00 6.7926475972397770e+02 1.0000000000000000e+00 4.3719542289571134e+00 1.0000000000000000e+01 6.9961160855283957e+00 
339 340 2 1.0279999991353597e+00 7.5383452597929750e+02 1.0000000000000000e+00 5.7483203436104100e+00 1.0000000000000000e+01 6.2717654145470867e+00 
96 97 2 1.0279999989187139e+00 -1.1443931547967796e+02 1.0000000000000000e+00 8.6317825765287246e+00 1.0000000000000000e+01 6.3977015790132246e+00 
97 98 2 1.0280000010127817e+00 1.3140833368279809e+03 1.0000000000000000e+00 7.3403251909440952e+00 1.0000000000000000e+01 6.5189106270153099e+00 
352 353 2 1.0280000010411408e+00 5.3212001607334969e+02 1.0000000000000000e+00 1.0595907499064507e+01 1.0000000000000000e+01 7.0206102114991191e+00 
263 264 2 1.0279999992667535e+00 4.2578055134407236e+02 1.0000000000000000e+00 1.1949618586533733e+01 1.0000000000000000e+01 7.2061485353905752e+00 
146 147 2 1.0280000007031429e+00 7.4987629526627200e+02 1.0000000000000000e+00 1.2888029824021132e+01 1.0000000000000000e+01 5.7655847575742456e+00 
22 23 2 1.0279999989568434e+00 -5.2561951493280967e+03 1.0000000000000000e+00 1.4077539004433726e+01 1.0000000000000000e+01 6.6678596596541571e+00 
773 774 2 1.0280000000105860e+00 -4.3631454022443415e+02 1.0000000000000000e+00 1.4685254489287813e+00 1.2600000000000000e+01 6.1537218798276747e+00 
819 820 2 1.0279999999832417e+00 1.9976015296930104e+03 1.0000000000000000e+00 2.9442989939127888e+00 1.2600000000000000e+01 5.7275327664635327e+00 
818 819 2 1.0280000000129512e+00 -1.7410797137807699e+03 1.0000000000000000e+00 4.7318619944755271e+00 1.2600000000000000e+01 5.7511910470640339e+00 
722 723 2 1.0279999999931175e+00 5.5254263077428652e+02 1.0000000000000000e+00 6.4319360713748530e+00 1.2600000000000000e+01 6.4414713081507227e+00 
478 479 2 1.0280000000057472e+00 -4.3763183469813453e+02 1.0000000000000000e+00 7.6518992520415008e+00 1.2600000000000000e+01 5.5802580315625825e+00 
692 693 2 1.0280000000114065e+00 -3.1278086501615835e+03 1.0000000000000000e+00 8.3093775969387984e+00 1.2600000000000000e+01 6.8545571362110378e+00 
529 530 2 1.0279999999772302e+00 7.0852543392999473e+02 1.0000000000000000e+00 1.0931707304569681e+01 1.2600000000000000e+01 6.2060301921807168e+00 
799 800 2 1.0279999999965495e+00 -1.3100824588369351e+03 1.0000000000000000e+00 1.5782991502162840e+01 1.2600000000000000e+01 6.4160266522159226e+00 
631 632 2 1.0280000000074316e+00 -4.9683891039842871e+02 1.0000000000000000e+00 1.7148827955760364e+01 1.2600000000000000e+01 6.5270043898954055e+00 
555 556 2 1.0279999999941978e+00 -2.5187517854286070e+03 1.0000000000000000e+00 1.8791632519364196e+01 1.2600000000000000e+01 7.2514387772019946e+00 
858 859 2 1.0280000000208536e+00 4.1226585670562218e+02 1.0000000000000000e+00 1.9296039517290982e+01 1.2600000000000000e+01 5.5456925042236440e+00 
536 537 2 1.0280000000080871e+00 2.2698508644032240e+03 1.0000000000000000e+00 2.1492124268493839e+01 1.2600000000000000e+01 6.6976074295412671e+00 
771 772 2 1.0280000000291911e+00 2.1765813469321536e+01 1.0000000000000000e+00 2.6176597678545356e+01 1.2600000000000000e+01 6.8250722798196160e+00 
525 526 2 1.0279999999979716e+00 1.1525778410850226e+03 1.0000000000000000e+00 2.9611562147410467e+01 1.2600000000000000e+01 5.6568295687533352e+00 
871 872 2 1.0280000000003484e+00 3.0097777653249850e+03 1.0000000000000000e+00 2.8799176349468461e+01 1.2600000000000000e+01 7.0081852760299999e+00 
779 780 2 1.0280000000012384e+00 9.2608894418221666e+02 1.0000000000000000e+00 3.0135704859714735e+01 1.2600000000000000e+01 6.9202429657028253e+00 
1178 1179 2 1.0279999988181392e+00 1.3822656175973593e+03 1.0000000000000000e+00 7.8470021950026558e-01 1.5199999999999999e+01 5.5244605678445167e+00 
1301 1302 2 1.0279999999782612e+00 6.1633349058711542e+02 1.0000000000000000e+00 2.9294745410382901e+00 1.5199999999999999e+01 6.8854451703376496e+00 
1265 1266 2 1.0280000013835151e+00 1.6189159721619271e+03 1.0000000000000000e+00 4.3955704015169399e+00 1.5199999999999999e+01 6.2103399155025265e+00 
976 977 2 1.0279999978593051e+00 2.7993534373177516e+02 1.0000000000000000e+00 6.0709360230292901e+00 1.5199999999999999e+01 5.6349294793035609e+00 