LAMMPS data file via write_data, version 30 Jul 2016, timestep = 50000000

180 atoms
2 atom types

0.0000000000000000e+00 2.0000000000000000e+01 xlo xhi
0.0000000000000000e+00 2.0000000000000000e+01 ylo yhi
0.0000000000000000e+00 2.0000000000000000e+01 zlo zhi

Masses

1 3.896
2 4.31

Atoms # meso-molecular

103 1 2 1.0279999999995582e+00 -5.2790499968759627e+02 1.0000000000000000e+00 8.9169232249498958e+00 1.9581749011665950e-01 4.7730089770078834e+00 
67 1 2 1.0279999999997769e+00 -6.7639485075616426e+02 1.0000000000000000e+00 8.9131900044168724e+00 1.9569973150502062e-01 4.7723403213597360e+00 
98 1 2 1.0280000000004279e+00 -4.7437529614836092e+02 1.0000000000000000e+00 8.9148451861314335e+00 1.9561596163562459e-01 4.7726741197790101e+00 
31 1 2 1.0280000000000873e+00 -9.1099183635662803e+02 1.0000000000000000e+00 8.9123797431246778e+00 1.9554368207501996e-01 4.7722354032788434e+00 
62 1 2 1.0279999999999119e+00 -5.6152065820543874e+02 1.0000000000000000e+00 8.9132972143171898e+00 1.9550943931013798e-01 4.7724155400093062e+00 
104 1 2 1.0279999999995422e+00 -4.4190793909799009e+02 1.0000000000000000e+00 8.9146553791807257e+00 1.9549523692221105e-01 4.7726735400797002e+00 
97 1 2 1.0279999999998835e+00 -4.8624381207963910e+02 1.0000000000000000e+00 8.9194323116534964e+00 1.9548380540654212e-01 4.7735881864988823e+00 
61 1 2 1.0280000000008114e+00 -7.4923651309783531e+02 1.0000000000000000e+00 8.9126772507312388e+00 1.9542579663337845e-01 4.7723247331675740e+00 
68 1 2 1.0279999999999951e+00 -4.8121518142362680e+02 1.0000000000000000e+00 8.9105410049029636e+00 1.9475106203961337e-01 4.7721281167430929e+00 
8 1 2 1.0280001372110763e+00 -4.5120757643035813e+02 1.0000000000000000e+00 1.0761261578573285e+01 8.6212087553425896e+00 2.7630400584871597e+00 
49 1 2 1.0279999960604089e+00 -4.9414611955037617e+02 1.0000000000000000e+00 1.0534884936518978e+01 9.0532424423080986e+00 3.1822617518295360e+00 
85 1 2 1.0279999960614101e+00 -3.7959039483416291e+02 1.0000000000000000e+00 1.0534931518742338e+01 9.0532511176578456e+00 3.1821874193312407e+00 
92 1 2 1.0279999960612300e+00 -4.6718883583344558e+02 1.0000000000000000e+00 1.0535354486284197e+01 9.0533231090758761e+00 3.1822432180623310e+00 
55 1 2 1.0279999960609925e+00 -5.4046960678216328e+02 1.0000000000000000e+00 1.0535682643910555e+01 9.0533786425151206e+00 3.1822886888041233e+00 
56 1 2 1.0279999960609500e+00 -5.4883010371774230e+02 1.0000000000000000e+00 1.0535714475765412e+01 9.0533840128020238e+00 3.1822933783660603e+00 
25 1 2 1.0279999960606820e+00 -5.8644428596701994e+02 1.0000000000000000e+00 1.0535731476127834e+01 9.0533868807021705e+00 3.1822957931223774e+00 
26 1 2 1.0279999960609247e+00 -5.1413040496823430e+02 1.0000000000000000e+00 1.0535749090856061e+01 9.0533898488063613e+00 3.1822985894920746e+00 
19 1 2 1.0279999960606463e+00 -5.1943346688184283e+02 1.0000000000000000e+00 1.0535805456673486e+01 9.0533993331955216e+00 3.1823084348966395e+00 
20 1 2 1.0279999960605961e+00 -4.9994985883052158e+02 1.0000000000000000e+00 1.0535809860777887e+01 9.0534000755828696e+00 3.1823090225668014e+00 
14 1 2 1.0279999960606492e+00 -6.6992514522440854e+02 1.0000000000000000e+00 1.0535833057633253e+01 9.0534039765099266e+00 3.1823130478210211e+00 
91 1 2 1.0279999960485460e+00 -4.1670190466708152e+02 1.0000000000000000e+00 1.0533417157859109e+01 9.0529793401480614e+00 3.1830676787358190e+00 
50 1 2 1.0279999960379604e+00 -5.1275316907589274e+02 1.0000000000000000e+00 1.0533783033763429e+01 9.0530330728701003e+00 3.1839333302666173e+00 
13 1 2 1.0279999952579060e+00 -5.8965437504115664e+02 1.0000000000000000e+00 1.0673580741838858e+01 8.1666166792009740e+00 3.2078812300009871e+00 
43 1 2 1.0279999952567502e+00 -5.6605826972525324e+02 1.0000000000000000e+00 1.0674483670596857e+01 8.1667797240955871e+00 3.2083996337359415e+00 
37 1 2 1.0279999952517385e+00 -5.8396022888293408e+02 1.0000000000000000e+00 1.0674164291165145e+01 8.1667646074329419e+00 3.2088451155380859e+00 
73 1 2 1.0279999952473942e+00 -5.0010155564226739e+02 1.0000000000000000e+00 1.0673804796450385e+01 8.1667375346303324e+00 3.2091906018078440e+00 
79 1 2 1.0279999952432013e+00 -4.8428676250844001e+02 1.0000000000000000e+00 1.0673908879788156e+01 8.1667888633416563e+00 3.2097112183092236e+00 
7 1 2 1.0279999952445740e+00 -5.9276270000301406e+02 1.0000000000000000e+00 1.0673936593924623e+01 8.1667824689754251e+00 3.2095652588140573e+00 
74 1 2 1.0279999952411594e+00 -5.2073661577338635e+02 1.0000000000000000e+00 1.0673529305713602e+01 8.1667395367080466e+00 3.2097717602595206e+00 
1 1 2 1.0279999952419145e+00 -7.3478058657690121e+02 1.0000000000000000e+00 1.0674022104636020e+01 8.1668177610783879e+00 3.2098917333640853e+00 
86 1 2 1.0279999952400964e+00 -3.4635688609525033e+02 1.0000000000000000e+00 1.0674664097469817e+01 8.1669445821680853e+00 3.2103808582780733e+00 
80 1 2 1.0279999952301366e+00 -5.1062491526008591e+02 1.0000000000000000e+00 1.0673248823374095e+01 8.1667847676687160e+00 3.2109409616212505e+00 
38 1 2 1.0279999952282715e+00 -6.1505434578555639e+02 1.0000000000000000e+00 1.0673417038100620e+01 8.1668295083829445e+00 3.2112260947394988e+00 
44 1 2 1.0279999952258658e+00 -5.0427914009834717e+02 1.0000000000000000e+00 1.0673844072250654e+01 8.1669234191172198e+00 3.2116750845168287e+00 
39 1 2 1.0280000000002143e+00 -5.1086795628205641e+02 1.0000000000000000e+00 8.5130222618816944e+00 1.3171327784341584e+00 6.0184266867692422e+00 
76 1 2 1.0280000000003140e+00 -4.2901095185252234e+02 1.0000000000000000e+00 8.5398347602062259e+00 1.3158086415526509e+00 6.0361581616701585e+00 
75 1 2 1.0280000000003739e+00 -5.2194986527763024e+02 1.0000000000000000e+00 8.5371652161952785e+00 1.3154878675461161e+00 6.0355423090796680e+00 
40 1 2 1.0280000000002718e+00 -5.3425898631599557e+02 1.0000000000000000e+00 8.5347485132929499e+00 1.3153053301170170e+00 6.0347236419096877e+00 
4 1 2 1.0280000000002047e+00 -6.4517507894719574e+02 1.0000000000000000e+00 8.4449273594588021e+00 1.2970571659547190e+00 6.0169497870790050e+00 
2 1 2 1.0280000000000578e+00 -5.8230941367477294e+02 1.0000000000000000e+00 8.4177116653820807e+00 1.2941775841303338e+00 5.9997914737353186e+00 
3 1 2 1.0280000000001208e+00 -5.2948247235632391e+02 1.0000000000000000e+00 8.4268998751976252e+00 1.2939813877111266e+00 6.0087183843417815e+00 
32 1 2 1.0280000000000293e+00 -5.5758321290452568e+02 1.0000000000000000e+00 8.2818742305935409e+00 1.2629571411927645e+00 5.8992248520167108e+00 
33 1 2 1.0280000000006118e+00 -5.9942052199997499e+02 1.0000000000000000e+00 8.3610755452033629e+00 1.2601369138955207e+00 6.0207813582319378e+00 
69 1 2 1.0280000000002618e+00 -5.9733649934154403e+02 1.0000000000000000e+00 8.3516167782350692e+00 1.2480803409399803e+00 6.0362272313607619e+00 
34 1 2 1.0280000000004970e+00 -7.8117488941991746e+02 1.0000000000000000e+00 8.3217272199871406e+00 1.2154969757239238e+00 6.0674704520846818e+00 
41 1 2 3.4387207658793811e-01 -4.3009410151655425e+02 1.0000000000000000e+00 6.9710262195136226e+00 2.8590266831100766e+00 1.5785450239135196e+01 
48 1 2 3.4387207658793811e-01 -3.0514142779060597e+02 1.0000000000000000e+00 6.9710262195136083e+00 2.8590266831100810e+00 1.5785450239135196e+01 
42 1 2 3.4387207658793811e-01 -4.5385421026574863e+02 1.0000000000000000e+00 6.9710262195136226e+00 2.8590266831100775e+00 1.5785450239135182e+01 
47 1 2 3.4387207658793811e-01 -4.6951473963768228e+02 1.0000000000000000e+00 6.9710262195136083e+00 2.8590266831100766e+00 1.5785450239135196e+01 
5 1 2 3.4387207658793811e-01 -5.4590856605623719e+02 1.0000000000000000e+00 6.9710262195136226e+00 2.8590266831100766e+00 1.5785450239135182e+01 
6 1 2 3.4387207658793811e-01 -6.0653148664596199e+02 1.0000000000000000e+00 6.9710262195136181e+00 2.8590266831100766e+00 1.5785450239135182e+01 
11 1 2 3.4387207658793811e-01 -5.5402761292116304e+02 1.0000000000000000e+00 6.9710262195136226e+00 2.8590266831100766e+00 1.5785450239135196e+01 
12 1 2 3.4387207658793811e-01 -4.9935631283151849e+02 1.0000000000000000e+00 6.9710262195136226e+00 2.8590266831100766e+00 1.5785450239135182e+01 
94 1 2 1.0279999997809910e+00 -3.7008900031691991e+02 1.0000000000000000e+00 7.6815007017373347e+00 9.2853661053517911e+00 1.5314251238432798e+01 
88 1 2 1.0279999996932967e+00 -4.2545914799164251e+02 1.0000000000000000e+00 7.4815653517876299e+00 9.1057962814408011e+00 1.5379076647285165e+01 
58 1 2 1.0279999996930631e+00 -4.4583148780588340e+02 1.0000000000000000e+00 7.4833715042296713e+00 9.1048097449500638e+00 1.5379458110956058e+01 
57 1 2 1.0279999996930032e+00 -4.7682062641067478e+02 1.0000000000000000e+00 7.4830953757733578e+00 9.1043274135833094e+00 1.5379704462097783e+01 
22 1 2 1.0279999996925973e+00 -5.0004721284117494e+02 1.0000000000000000e+00 7.4862641739238356e+00 9.1024696776679832e+00 1.5380445212072873e+01 
21 1 2 1.0279999996925320e+00 -5.7630333282854758e+02 1.0000000000000000e+00 7.4855934904520920e+00 9.1018772533763403e+00 1.5380764284916257e+01 
87 1 2 1.0279999996919542e+00 -4.7955708602487016e+02 1.0000000000000000e+00 7.4799011897294445e+00 9.1022649116597254e+00 1.5380867818437958e+01 
16 1 2 1.0279999996876741e+00 -6.1748295355801383e+02 1.0000000000000000e+00 7.4799280164468991e+00 9.0903866921149525e+00 1.5386684558711496e+01 
52 1 2 1.0279999996867715e+00 -5.0648852980761558e+02 1.0000000000000000e+00 7.4770555561218526e+00 9.0888471796212755e+00 1.5387606933477651e+01 
51 1 2 1.0279999996666140e+00 -4.8303469821428479e+02 1.0000000000000000e+00 7.4551940197505067e+00 9.0399019502221254e+00 1.5414629902572811e+01 
15 1 2 1.0279999996369877e+00 -5.6012826488826113e+02 1.0000000000000000e+00 7.4167231216659886e+00 8.9664868666571369e+00 1.5461607424088454e+01 
10 1 2 1.0279999996321214e+00 -6.0109383824236590e+02 1.0000000000000000e+00 7.4103055847855552e+00 8.9537765355248684e+00 1.5470516116015649e+01 
45 1 2 1.0279999996313474e+00 -4.6015389423711270e+02 1.0000000000000000e+00 7.4099301053863149e+00 8.9514624076157325e+00 1.5472065935894536e+01 
9 1 2 1.0279999996177509e+00 -5.4095158774903018e+02 1.0000000000000000e+00 7.3919994678462455e+00 8.9145485083887337e+00 1.5499388922635527e+01 
46 1 2 1.0279999996144391e+00 -4.7170338636539782e+02 1.0000000000000000e+00 7.3891796584285085e+00 8.9041379553077231e+00 1.5507157597968497e+01 
95 1 2 1.0280000023781981e+00 -5.2712058415059334e+02 1.0000000000000000e+00 7.3204817537975924e+00 9.0497161367039158e+00 1.8123325474550807e+01 
18 1 2 1.0280000023781857e+00 -6.0535618041881105e+02 1.0000000000000000e+00 7.3204817518734702e+00 9.0497161314825512e+00 1.8123325470518939e+01 
24 1 2 1.0280000023782012e+00 -6.0906733829258815e+02 1.0000000000000000e+00 7.3204817594364373e+00 9.0497161748885979e+00 1.8123325502278945e+01 
17 1 2 1.0280000023781957e+00 -6.5229213208900615e+02 1.0000000000000000e+00 7.3204817566211249e+00 9.0497161600259197e+00 1.8123325491356944e+01 
23 1 2 1.0280000023782065e+00 -5.0862184747445565e+02 1.0000000000000000e+00 7.3204817591553253e+00 9.0497161735445104e+00 1.8123325501285677e+01 
59 1 2 1.0280000023781810e+00 -5.1755904295913342e+02 1.0000000000000000e+00 7.3204817585228499e+00 9.0497161681129441e+00 1.8123325497376957e+01 
53 1 2 1.0280000023781866e+00 -5.7942621762075873e+02 1.0000000000000000e+00 7.3204817553429384e+00 9.0497161488945412e+00 1.8123325483350051e+01 
60 1 2 1.0280000023781855e+00 -6.1510634247265841e+02 1.0000000000000000e+00 7.3204817532308777e+00 9.0497161355797555e+00 1.8123325473651001e+01 
89 1 2 1.0280000023782010e+00 -5.4374127909889580e+02 1.0000000000000000e+00 7.3204817497376515e+00 9.0497161149598533e+00 1.8123325458584176e+01 
54 1 2 1.0280000023781828e+00 -5.7159082229789203e+02 1.0000000000000000e+00 7.3204817485093923e+00 9.0497161104758099e+00 1.8123325455210104e+01 
96 1 2 1.0280000023781888e+00 -4.7435804644902862e+02 1.0000000000000000e+00 7.3204817508645990e+00 9.0497161198853728e+00 1.8123325462244232e+01 
90 1 2 1.0280000023781788e+00 -4.2834232165830940e+02 1.0000000000000000e+00 7.3204817435142573e+00 9.0497160808086203e+00 1.8123325433539001e+01 
106 1 2 1.0280000000000358e+00 -4.0777179327074657e+02 1.0000000000000000e+00 9.4789852918602602e+00 1.9977891498685562e+01 5.9016164039338141e+00 
27 1 2 1.0279999999998659e+00 -6.6161675263068662e+02 1.0000000000000000e+00 8.5594213291995160e+00 1.9868276045395838e+01 6.3270211766004172e+00 
70 1 2 1.0280000000000546e+00 -6.0746116521603551e+02 1.0000000000000000e+00 8.8616967845393635e+00 1.9841257899623141e+01 6.3201843738659047e+00 
64 1 2 1.0280000000001710e+00 -5.4674102753504587e+02 1.0000000000000000e+00 9.0077993122630478e+00 1.9676012059574433e+01 6.0567140056217585e+00 
105 1 2 1.0280000000003626e+00 -4.9926956677336881e+02 1.0000000000000000e+00 8.9707110568164108e+00 1.9560823231780841e+01 5.6755656926445042e+00 
99 1 2 1.0280000000003091e+00 -5.0950849716412381e+02 1.0000000000000000e+00 9.0964016923356183e+00 1.9680488113127279e+01 5.9951092681912073e+00 
63 1 2 1.0280000000001543e+00 -6.3248824234410256e+02 1.0000000000000000e+00 8.7453947225222617e+00 1.9800125229812561e+01 6.2897116386868870e+00 
100 1 2 1.0279999999991491e+00 -4.6262087840479762e+02 1.0000000000000000e+00 9.0851233970220395e+00 1.9679978549729235e+01 6.0048830801077004e+00 
28 1 2 1.0280000000004694e+00 -6.0996582019608388e+02 1.0000000000000000e+00 8.6959207827687770e+00 1.9751693359875535e+01 6.2325884389846458e+00 
36 1 2 1.0279999987736221e+00 -6.1488262466605124e+02 1.0000000000000000e+00 7.9275655020817242e+00 1.1561416358312464e+01 1.7244125073019923e+01 
65 1 2 1.0279999987736106e+00 -5.0123045642114585e+02 1.0000000000000000e+00 7.9275655020816505e+00 1.1561416358312556e+01 1.7244125073019728e+01 
29 1 2 1.0279999987736106e+00 -5.8735972438735791e+02 1.0000000000000000e+00 7.9275655020816505e+00 1.1561416358312556e+01 1.7244125073019728e+01 
30 1 2 1.0279999987736106e+00 -5.4724250829604409e+02 1.0000000000000000e+00 7.9275655020816505e+00 1.1561416358312556e+01 1.7244125073019728e+01 
66 1 2 1.0279999987736106e+00 -5.9765066698518240e+02 1.0000000000000000e+00 7.9275655020816505e+00 1.1561416358312556e+01 1.7244125073019728e+01 
143 1 2 1.0279999987736106e+00 -6.0976312200603866e+02 1.0000000000000000e+00 7.9275655020816505e+00 1.1561416358312556e+01 1.7244125073019728e+01 
101 1 2 1.0279999987736210e+00 -5.4534322614820792e+02 1.0000000000000000e+00 7.9275655020818050e+00 1.1561416358312467e+01 1.7244125073019831e+01 
107 1 2 1.0279999987736133e+00 -5.1752060954175545e+02 1.0000000000000000e+00 7.9275655020817215e+00 1.1561416358312531e+01 1.7244125073019731e+01 
102 1 2 1.0279999987736133e+00 -5.5058357352576115e+02 1.0000000000000000e+00 7.9275655020817215e+00 1.1561416358312531e+01 1.7244125073019731e+01 
144 1 2 1.0279999987736133e+00 -6.5557527877024370e+02 1.0000000000000000e+00 7.9275655020817215e+00 1.1561416358312531e+01 1.7244125073019731e+01 
72 1 2 1.0279999987736133e+00 -6.0026821573298560e+02 1.0000000000000000e+00 7.9275655020817215e+00 1.1561416358312531e+01 1.7244125073019731e+01 
108 1 2 1.0279999987736133e+00 -5.9535813216972429e+02 1.0000000000000000e+00 7.9275655020817215e+00 1.1561416358312531e+01 1.7244125073019731e+01 
71 1 2 1.0279999987736133e+00 -5.7229648447743432e+02 1.0000000000000000e+00 7.9275655020817215e+00 1.1561416358312531e+01 1.7244125073019731e+01 
93 1 2 1.0279999988047857e+00 -4.2827793246960647e+02 1.0000000000000000e+00 7.9317469883053864e+00 1.1571036908957412e+01 1.7176472761764249e+01 
35 1 2 1.0279999987736166e+00 -6.0399168649112892e+02 1.0000000000000000e+00 7.9275655020817508e+00 1.1561416358312480e+01 1.7244125073019919e+01 
109 1 2 4.7282410530841484e-01 -4.7289034274584787e+02 1.0000000000000000e+00 1.5171686750773526e+01 3.8068523256726134e+00 2.9603686261539122e+00 
110 1 2 4.7282410530841484e-01 -4.7558125733698728e+02 1.0000000000000000e+00 1.5171686750773533e+01 3.8068523256726299e+00 2.9603686261539095e+00 
115 1 2 4.7282410530841484e-01 -4.8041856752954391e+02 1.0000000000000000e+00 1.5171686750773546e+01 3.8068523256726250e+00 2.9603686261539104e+00 
116 1 2 4.7282410530841484e-01 -4.2001433511685320e+02 1.0000000000000000e+00 1.5171686750773510e+01 3.8068523256726250e+00 2.9603686261539099e+00 
145 1 2 4.7282410530841484e-01 -4.9007843191163363e+02 1.0000000000000000e+00 1.5171686750773526e+01 3.8068523256726330e+00 2.9603686261539113e+00 
146 1 2 4.7282410530841484e-01 -4.6002346840485507e+02 1.0000000000000000e+00 1.5171686750773491e+01 3.8068523256726325e+00 2.9603686261539095e+00 
151 1 2 4.7282410530841484e-01 -5.5644450649691873e+02 1.0000000000000000e+00 1.5171686750773533e+01 3.8068523256726299e+00 2.9603686261539104e+00 
152 1 2 4.7282410530841484e-01 -5.2803683736618700e+02 1.0000000000000000e+00 1.5171686750773572e+01 3.8068523256726299e+00 2.9603686261539091e+00 
158 1 2 4.7282410530841484e-01 -4.6339693095442408e+02 1.0000000000000000e+00 1.5171686750773510e+01 3.8068523256726139e+00 2.9603686261539091e+00 
121 1 2 4.7282410530841484e-01 -3.2776718198549241e+02 1.0000000000000000e+00 1.5171686750773510e+01 3.8068523256726139e+00 2.9603686261539099e+00 
122 1 2 4.7282410530841484e-01 -3.1956270846461615e+02 1.0000000000000000e+00 1.5171686750773546e+01 3.8068523256726250e+00 2.9603686261539099e+00 
78 1 2 1.0279999999999885e+00 -4.0036037539772906e+02 1.0000000000000000e+00 1.8679235894330727e+01 7.4239257878116085e+00 8.7148049985707647e+00 
83 1 2 1.0280000000000233e+00 -3.9768688210798854e+02 1.0000000000000000e+00 1.8679235897050372e+01 7.4239257885614087e+00 8.7148049998614816e+00 
77 1 2 1.0280000000000096e+00 -4.5095753023028743e+02 1.0000000000000000e+00 1.8679235891294656e+01 7.4239258173447746e+00 8.7148049888840156e+00 
84 1 2 1.0279999999999736e+00 -4.0113667072342480e+02 1.0000000000000000e+00 1.8679235902988111e+01 7.4239257870963486e+00 8.7148050035210982e+00 
114 1 2 1.0280000000000142e+00 -5.9760682464070419e+02 1.0000000000000000e+00 1.8679235898639405e+01 7.4239258215160362e+00 8.7148049917865169e+00 
113 1 2 1.0279999999999769e+00 -4.7763101777816701e+02 1.0000000000000000e+00 1.8679235899419268e+01 7.4239258261199694e+00 8.7148049909646943e+00 
149 1 2 1.0279999999999920e+00 -4.9521185219172344e+02 1.0000000000000000e+00 1.8679235896710136e+01 7.4239258326081270e+00 8.7148049877147518e+00 
119 1 2 1.0279999999999743e+00 -4.6100352818222211e+02 1.0000000000000000e+00 1.8679235902744498e+01 7.4239258220776136e+00 8.7148049938890875e+00 
150 1 2 1.0280000000000085e+00 -6.7337577335818435e+02 1.0000000000000000e+00 1.8679235905450891e+01 7.4239258295643493e+00 8.7148049933432947e+00 
120 1 2 1.0279999999999816e+00 -5.7447337331498807e+02 1.0000000000000000e+00 1.8679235908064751e+01 7.4239258225733566e+00 8.7148049966773673e+00 
155 1 2 1.0279999999999720e+00 -5.4200486732931336e+02 1.0000000000000000e+00 1.8679235915939429e+01 7.4239258260123595e+00 8.7148050000697523e+00 
156 1 2 1.0280000000000082e+00 -6.2220542071451757e+02 1.0000000000000000e+00 1.8679236005925468e+01 7.4239258046467702e+00 8.7148050553077976e+00 
125 1 2 1.0280000000000205e+00 -4.5241406066968432e+02 1.0000000000000000e+00 1.8679236156426491e+01 7.4239257492574238e+00 8.7148051530297401e+00 
126 1 2 1.0280000000000338e+00 -5.5682963049103910e+02 1.0000000000000000e+00 1.8679236283135449e+01 7.4239257034340742e+00 8.7148052350834266e+00 
161 1 2 1.0280000000000198e+00 -4.2779551108107944e+02 1.0000000000000000e+00 1.8679236427237239e+01 7.4239256450571087e+00 8.7148053301008979e+00 
162 1 2 1.0280000000000171e+00 -5.3722123870387895e+02 1.0000000000000000e+00 1.8679236524951417e+01 7.4239256071979778e+00 8.7148053940628927e+00 
112 1 2 1.0279999999999860e+00 -4.0453866710752504e+02 1.0000000000000000e+00 1.7111204568978394e+01 7.6167096529900498e+00 9.3567719667004337e+00 
165 1 2 1.0279999999999940e+00 -4.7472161051584942e+02 1.0000000000000000e+00 1.7564639165553338e+01 8.0262934108176296e+00 1.0930750288997118e+01 
159 1 2 1.0280000000000191e+00 -4.8932910210843932e+02 1.0000000000000000e+00 1.7574316240375008e+01 8.0209430381328222e+00 1.0936561093266350e+01 
123 1 2 1.0279999999999769e+00 -5.1450519800517236e+02 1.0000000000000000e+00 1.7576367997475366e+01 8.0190887410590026e+00 1.0937957420210720e+01 
166 1 2 1.0280000000000216e+00 -5.8230747589459520e+02 1.0000000000000000e+00 1.7568491461950611e+01 8.0243301380039895e+00 1.0933041473547021e+01 
117 1 2 1.0280000000000078e+00 -5.0309286884947028e+02 1.0000000000000000e+00 1.7575420428631158e+01 8.0194998626489422e+00 1.0937430965775357e+01 
160 1 2 1.0279999999999716e+00 -5.2616332340800113e+02 1.0000000000000000e+00 1.7574823257714936e+01 8.0206901005309987e+00 1.0936853061555704e+01 
81 1 2 1.0280000000000091e+00 -4.9038281333212723e+02 1.0000000000000000e+00 1.7575479106501714e+01 8.0189259476519865e+00 1.0937607301625297e+01 
154 1 2 1.0279999999999860e+00 -6.6899710596907846e+02 1.0000000000000000e+00 1.7575522438654776e+01 8.0195717476710673e+00 1.0937457244540944e+01 
124 1 2 1.0279999999999769e+00 -4.6765860720245286e+02 1.0000000000000000e+00 1.7576491544757491e+01 8.0191045685000741e+00 1.0938007772413268e+01 
130 1 2 1.0280000000000262e+00 -4.1400868911754372e+02 1.0000000000000000e+00 1.7569547341708681e+01 8.0231610637476862e+00 1.0933833739381067e+01 
118 1 2 1.0280000000000067e+00 -5.1254975932423486e+02 1.0000000000000000e+00 1.7574991146588030e+01 8.0197100095740144e+00 1.0937185646838937e+01 
153 1 2 1.0279999999999738e+00 -4.8881471477762312e+02 1.0000000000000000e+00 1.7574734420882876e+01 8.0199794884019333e+00 1.0937000946244741e+01 
82 1 2 1.0280000000000271e+00 -4.7530414556780875e+02 1.0000000000000000e+00 1.7575573690573432e+01 8.0189248026176436e+00 1.0937649442472825e+01 
147 1 2 1.0279999999999723e+00 -4.4702343789940005e+02 1.0000000000000000e+00 1.7580449637266405e+01 8.0175233469727551e+00 1.0940153236042034e+01 
148 1 2 1.0279999999999987e+00 -4.6104488310569525e+02 1.0000000000000000e+00 1.7584000929406553e+01 8.0164372034004518e+00 1.0941969252211482e+01 
111 1 2 1.0280000000000162e+00 -4.5962098222076906e+02 1.0000000000000000e+00 1.7473333666530188e+01 8.0857651617029251e+00 1.0862391500373757e+01 
136 1 2 6.8774415317587612e-01 -4.6365228298072219e+02 1.0000000000000000e+00 1.5458479217876953e+01 1.4486230727634888e+01 5.4742411592477023e+00 
172 1 2 6.8774415317587612e-01 -6.6024548758533956e+02 1.0000000000000000e+00 1.5458479217877029e+01 1.4486230727634917e+01 5.4742411592476961e+00 
170 1 2 6.8774415317587612e-01 -5.7466416395618273e+02 1.0000000000000000e+00 1.5458479217877029e+01 1.4486230727634839e+01 5.4742411592476952e+00 
134 1 2 6.8774415317587612e-01 -5.5437417710825594e+02 1.0000000000000000e+00 1.5458479217877022e+01 1.4486230727634849e+01 5.4742411592476952e+00 
140 1 2 6.8774415317587612e-01 -4.8088919462104366e+02 1.0000000000000000e+00 1.5458479217877029e+01 1.4486230727634887e+01 5.4742411592477005e+00 
164 1 2 6.8774415317587612e-01 -6.8893387960595862e+02 1.0000000000000000e+00 1.5458479217876953e+01 1.4486230727634887e+01 5.4742411592477040e+00 
142 1 2 6.8774415317587612e-01 -5.4798349878276088e+02 1.0000000000000000e+00 1.5458479217877015e+01 1.4486230727634888e+01 5.4742411592476907e+00 
178 1 2 6.8774415317587612e-01 -5.8340854889388265e+02 1.0000000000000000e+00 1.5458479217877024e+01 1.4486230727634888e+01 5.4742411592477023e+00 
128 1 2 6.8774415317587612e-01 -6.3446758239248243e+02 1.0000000000000000e+00 1.5458479217877009e+01 1.4486230727634867e+01 5.4742411592477040e+00 
179 1 2 6.8774415317587612e-01 -7.4280606599129351e+02 1.0000000000000000e+00 1.5458479217877002e+01 1.4486230727634888e+01 5.4742411592476801e+00 
129 1 2 6.8774415317587612e-01 -5.2086456050003301e+02 1.0000000000000000e+00 1.5458479217876974e+01 1.4486230727634887e+01 5.4742411592476792e+00 
171 1 2 6.8774415317587612e-01 -7.2407718663814808e+02 1.0000000000000000e+00 1.5458479217877031e+01 1.4486230727634902e+01 5.4742411592476978e+00 
176 1 2 6.8774415317587612e-01 -5.3797596138670713e+02 1.0000000000000000e+00 1.5458479217877022e+01 1.4486230727634867e+01 5.4742411592477005e+00 
141 1 2 6.8774415317587612e-01 -5.3484117563236020e+02 1.0000000000000000e+00 1.5458479217877029e+01 1.4486230727634872e+01 5.4742411592476987e+00 
135 1 2 6.8774415317587612e-01 -5.5914514176503440e+02 1.0000000000000000e+00 1.5458479217877029e+01 1.4486230727634888e+01 5.4742411592476774e+00 
177 1 2 6.8774415317587612e-01 -5.9225667605747424e+02 1.0000000000000000e+00 1.5458479217876974e+01 1.4486230727634888e+01 5.4742411592477014e+00 
168 1 2 6.8774415317587612e-01 -5.4882026812155277e+02 1.0000000000000000e+00 1.5969580642824718e+01 1.2011679215308304e+01 1.9488013657648715e+01 
157 1 2 6.8774415317587612e-01 -6.8797033830881492e+02 1.0000000000000000e+00 1.5969580642824718e+01 1.2011679215308304e+01 1.9488013657648736e+01 
173 1 2 6.8774415317587612e-01 -7.2246277665787852e+02 1.0000000000000000e+00 1.5969580642824718e+01 1.2011679215308297e+01 1.9488013657648857e+01 
137 1 2 6.8774415317587612e-01 -5.4089288952685524e+02 1.0000000000000000e+00 1.5969580642824718e+01 1.2011679215308289e+01 1.9488013657648661e+01 
132 1 2 6.8774415317587612e-01 -5.5779258641409388e+02 1.0000000000000000e+00 1.5969580642824718e+01 1.2011679215308289e+01 1.9488013657648853e+01 
138 1 2 6.8774415317587612e-01 -6.2349690806596891e+02 1.0000000000000000e+00 1.5969580642824718e+01 1.2011679215308295e+01 1.9488013657648775e+01 
174 1 2 6.8774415317587612e-01 -8.0413227998975515e+02 1.0000000000000000e+00 1.5969580642824718e+01 1.2011679215308291e+01 1.9488013657648839e+01 
127 1 2 6.8774415317587612e-01 -6.4864409141869169e+02 1.0000000000000000e+00 1.5969580642824718e+01 1.2011679215308297e+01 1.9488013657648754e+01 
163 1 2 6.8774415317587612e-01 -6.1264968802693340e+02 1.0000000000000000e+00 1.5969580642824718e+01 1.2011679215308289e+01 1.9488013657648690e+01 
131 1 2 6.8774415317587612e-01 -4.4497218204235901e+02 1.0000000000000000e+00 1.5969580642824718e+01 1.2011679215308304e+01 1.9488013657648715e+01 
167 1 2 6.8774415317587612e-01 -5.2114573755698632e+02 1.0000000000000000e+00 1.5969580642824718e+01 1.2011679215308291e+01 1.9488013657648739e+01 
180 1 2 6.8774415317587612e-01 -7.4176226048618889e+02 1.0000000000000000e+00 1.5969580642824718e+01 1.2011679215308295e+01 1.9488013657648690e+01 
169 1 2 6.8774415317587612e-01 -5.5622102270736207e+02 1.0000000000000000e+00 1.5969580642824718e+01 1.2011679215308297e+01 1.9488013657648775e+01 
175 1 2 6.8774415317587612e-01 -7.2453401638747732e+02 1.0000000000000000e+00 1.5969580642824718e+01 1.2011679215308348e+01 1.9488013657648672e+01 
133 1 2 6.8774415317587612e-01 -4.9471257703048826e+02 1.0000000000000000e+00 1.5969580642824718e+01 1.2011679215308297e+01 1.9488013657648843e+01 
139 1 2 6.8774415317587612e-01 -4.7294557412776663e+02 1.0000000000000000e+00 1.5969580642824718e+01 1.2011679215308297e+01 1.9488013657648718e+01 

Velocities

103 -1.2497354424214144e-04 3.9927931792690195e-03 -1.1098367325309956e-03
67 -1.2497354416200694e-04 3.9927931791583033e-03 -1.1098367329356598e-03
98 -1.2497354404982072e-04 3.9927931789843574e-03 -1.1098367335699362e-03
31 -1.2497354542212016e-04 3.9927931811071550e-03 -1.1098367258216624e-03
62 -1.2497354422893436e-04 3.9927931792616287e-03 -1.1098367325620903e-03
104 -1.2497354424835440e-04 3.9927931792859686e-03 -1.1098367324702315e-03
97 -1.2497354454978844e-04 3.9927931797111588e-03 -1.1098367309202823e-03
61 -1.2497354374543009e-04 3.9927931785168642e-03 -1.1098367352752132e-03
68 -1.2497354494574468e-04 3.9927931804005232e-03 -1.1098367284254394e-03
8 1.2758546861992590e-03 -1.8183680738418193e-03 -4.4005162422720810e-03
49 1.2719777454879148e-03 -1.8189064523607876e-03 -4.3907126333630510e-03
85 1.2719776979588562e-03 -1.8189063761847920e-03 -4.3907125749849162e-03
92 1.2719774053557530e-03 -1.8189063291579020e-03 -4.3907126153153305e-03
55 1.2719771784438082e-03 -1.8189062929672446e-03 -4.3907126475183061e-03
56 1.2719771562926900e-03 -1.8189062885832444e-03 -4.3907126508089993e-03
25 1.2719771443450770e-03 -1.8189062855488336e-03 -4.3907126524902456e-03
26 1.2719771322526646e-03 -1.8189062840445261e-03 -4.3907126544720891e-03
19 1.2719770936163960e-03 -1.8189062793859724e-03 -4.3907126614875207e-03
20 1.2719770904887021e-03 -1.8189062784170070e-03 -4.3907126618888482e-03
14 1.2719770746917609e-03 -1.8189062771173600e-03 -4.3907126647561275e-03
91 1.2719789547983673e-03 -1.8189074906368829e-03 -4.3907132749995024e-03
50 1.2719788557328008e-03 -1.8189081654729569e-03 -4.3907139491162882e-03
13 1.2719092117912669e-03 -1.8184595420237739e-03 -4.3907284023530753e-03
43 1.2719083874353717e-03 -1.8184595562466348e-03 -4.3907288909299340e-03
37 1.2719086186143275e-03 -1.8184590447539672e-03 -4.3907293687573982e-03
73 1.2719088948040772e-03 -1.8184585953133707e-03 -4.3907297460450022e-03
79 1.2719087555036420e-03 -1.8184582278084449e-03 -4.3907302815871805e-03
7 1.2719087455471201e-03 -1.8184583579289651e-03 -4.3907301283101332e-03
74 1.2719090770441524e-03 -1.8184579975840586e-03 -4.3907303648621715e-03
1 1.2719086405909060e-03 -1.8184581371440539e-03 -4.3907304634388739e-03
86 1.2719080402003573e-03 -1.8184580548422052e-03 -4.3907309383963561e-03
80 1.2719092094251477e-03 -1.8184569315117132e-03 -4.3907315998373596e-03
38 1.2719090369639550e-03 -1.8184567850091284e-03 -4.3907318890328518e-03
44 1.2719086246293285e-03 -1.8184566325656953e-03 -4.3907323359375829e-03
39 -1.2497354530936798e-04 3.9927931845249775e-03 -1.1098367309797480e-03
76 -1.2497354521374168e-04 3.9927931852333605e-03 -1.1098367305091626e-03
75 -1.2497354459681823e-04 3.9927931819644180e-03 -1.1098367319605277e-03
40 -1.2497354440218334e-04 3.9927931809344069e-03 -1.1098367324186959e-03
4 -1.2497354572906828e-04 3.9927931838205340e-03 -1.1098367312174569e-03
2 -1.2497354627227257e-04 3.9927931846208044e-03 -1.1098367310201931e-03
3 -1.2497354522201685e-04 3.9927931820703550e-03 -1.1098367320011352e-03
32 -1.2497354796666416e-04 3.9927931850128277e-03 -1.1098367317352088e-03