LAMMPS data file via write_data, version 30 Jul 2016, timestep = 50400000

100 atoms
2 atom types

0.0000000000000000e+00 2.0000000000000000e+01 xlo xhi
0.0000000000000000e+00 2.0000000000000000e+01 ylo yhi
0.0000000000000000e+00 2.0000000000000000e+01 zlo zhi

Masses

1 3.896
2 4.31

Atoms # meso-molecular

28 1 2 1.0279999999874261e+00 -1.3967211626856749e+01 1.0000000000000000e+00 9.7173296818574215e+00 1.5285990708019076e+01 2.4317921610320017e+00 
88 1 2 1.0279999999874236e+00 -9.6232638004939076e+01 1.0000000000000000e+00 9.7174495338153069e+00 1.5286007105769103e+01 2.4317970194491978e+00 
3 1 2 1.0279999999874259e+00 -7.3177496699346364e+01 1.0000000000000000e+00 9.7173652209702048e+00 1.5285993592446893e+01 2.4318039067500834e+00 
4 1 2 1.0279999999874259e+00 -1.0504131091453013e+02 1.0000000000000000e+00 9.7173806422252653e+00 1.5285995309379190e+01 2.4318065795291237e+00 
13 1 2 1.0279999999874259e+00 1.6209603953649741e+02 1.0000000000000000e+00 9.7173707282029245e+00 1.5285992349963262e+01 2.4318145409121921e+00 
68 1 2 1.0279999999874254e+00 6.6180820015650042e+01 1.0000000000000000e+00 9.7173828099389414e+00 1.5285993909339201e+01 2.4318155176526908e+00 
81 1 2 1.0279999999874256e+00 -2.4314206098440940e+02 1.0000000000000000e+00 9.7173715421259566e+00 1.5285991891408774e+01 2.4318175468273791e+00 
54 1 2 1.0279999999874261e+00 1.2256891931315326e+02 1.0000000000000000e+00 9.7173876855575063e+00 1.5285993727095011e+01 2.4318201456724502e+00 
96 1 2 1.0279999999874259e+00 -8.1489013574804630e+01 1.0000000000000000e+00 9.7173931057857477e+00 1.5285990010723982e+01 2.4318436229065483e+00 
9 1 2 1.0279999999875133e+00 -7.6049424780550936e+01 1.0000000000000000e+00 9.7172074678531093e+00 1.5285628237518612e+01 2.4336003565028417e+00 
12 1 2 1.0279999999992029e+00 1.3932385064898284e+02 1.0000000000000000e+00 9.7069672639287532e+00 1.5285996708171407e+01 2.8145344620022246e+00 
45 1 2 1.0280000000301310e+00 2.8631981812267327e+01 1.0000000000000000e+00 9.0874174502689016e+00 1.6670417158660413e+01 1.3612383055206236e+00 
97 1 2 1.0280000000101290e+00 -4.8317157881065782e+00 1.0000000000000000e+00 8.8815594564365803e+00 1.7000616058548793e+01 1.8625909508652623e+00 
47 1 2 1.0280000000062928e+00 6.4764142277443440e+01 1.0000000000000000e+00 8.9046014753165501e+00 1.7190823653742108e+01 1.9777761390170072e+00 
52 1 2 1.0280000000081420e+00 -7.7043228612776716e+01 1.0000000000000000e+00 8.9942499134591465e+00 1.7250744235512542e+01 1.7276535177244177e+00 
86 1 2 1.0279999999756888e+00 -1.3869772084544991e+02 1.0000000000000000e+00 1.1997687483477042e+01 1.9512780278236004e+01 5.4181431883549280e-01 
83 1 2 1.0279999999787548e+00 -4.8679475890408924e+01 1.0000000000000000e+00 1.1998449306532182e+01 1.9526392459988561e+01 5.4969560399968465e-01 
51 1 2 1.0279999999754104e+00 4.0791592803342258e+00 1.0000000000000000e+00 1.2007887488022712e+01 1.9505742788899902e+01 5.4685370895154006e-01 
49 1 2 1.0279999999759672e+00 2.2514468666898242e+02 1.0000000000000000e+00 1.2013273503442575e+01 1.9504715017235224e+01 5.5102452209885822e-01 
80 1 2 1.0279999999747049e+00 9.7851917728277940e+00 1.0000000000000000e+00 1.2014979286024966e+01 1.9497918193370264e+01 5.4926922610020457e-01 
92 1 2 1.0279999999748091e+00 -2.1911875243343424e+01 1.0000000000000000e+00 1.2018372372896660e+01 1.9496280611455884e+01 5.5152168939528123e-01 
22 1 2 1.0279999999768288e+00 2.4067901458845699e+02 1.0000000000000000e+00 1.2024136553545949e+01 1.9501935974679885e+01 5.5945357607616075e-01 
6 1 2 1.0279999999748652e+00 4.4552210754097977e+01 1.0000000000000000e+00 1.2032719053768581e+01 1.9486997672039671e+01 5.6058033594986911e-01 
43 1 2 1.0279999999746821e+00 -4.7924126358793444e+00 1.0000000000000000e+00 1.2036807876577504e+01 1.9483120742987474e+01 5.6282662158598151e-01 
25 1 2 1.0279999999840057e+00 -1.9853407843217377e+02 1.0000000000000000e+00 1.2017449906010425e+01 1.9539992071080874e+01 5.7432773958672678e-01 
14 1 2 1.0279999999983502e+00 1.8060603735679436e+02 1.0000000000000000e+00 1.2057145865892622e+01 1.9585599368800391e+01 6.5126453670534490e-01 
8 1 2 1.0280000000164797e+00 4.7403558393529863e+01 1.0000000000000000e+00 1.1909497516993756e+01 1.9788595914638073e+01 8.4758303275274438e-01 
78 1 2 1.0280000000344747e+00 9.7875986143587198e+01 1.0000000000000000e+00 1.1115778322663225e+01 1.8860212268459282e+01 2.2740130821510780e+00 
69 1 2 1.0280000000308152e+00 6.0554807295344766e+00 1.0000000000000000e+00 1.1092411726092795e+01 1.8848799129026784e+01 2.3015981519011990e+00 
65 1 2 1.0280000000158009e+00 5.3377316396635287e+01 1.0000000000000000e+00 1.0991711154228163e+01 1.8806663461344620e+01 2.4317712197697463e+00 
75 1 2 1.0279999999914855e+00 -2.7967696305691618e+01 1.0000000000000000e+00 1.0700732719950604e+01 1.8683281888312749e+01 3.1043194360584314e+00 
1 1 2 1.0279999999909781e+00 1.0141857916064745e+02 1.0000000000000000e+00 1.0696588437332974e+01 1.8636271068484490e+01 3.2536332828737016e+00 
72 1 2 1.0280000000048788e+00 -8.8061420138687481e+01 1.0000000000000000e+00 9.2787390876691962e+00 1.7685884424271226e+01 4.7672658559019032e+00 
32 1 2 1.0280000000032501e+00 4.2666022607714304e+01 1.0000000000000000e+00 9.3997773704913854e+00 1.7801996630814905e+01 4.8295155162854959e+00 
57 1 2 1.0279999999973028e+00 -1.3777731738591353e+02 1.0000000000000000e+00 9.5740862141926257e+00 1.8093132187889204e+01 4.8147943802225388e+00 
93 1 2 1.0280000000023704e+00 -5.5316140778321611e+01 1.0000000000000000e+00 9.4405910827269288e+00 1.7850837167938010e+01 4.8414285379620692e+00 
77 1 2 1.0280000000002072e+00 4.9767428034084084e+01 1.0000000000000000e+00 9.5446263142692871e+00 1.7948160159591808e+01 4.8600748187856508e+00 
19 1 2 1.0280000000010043e+00 4.7576982804825967e+01 1.0000000000000000e+00 9.5815983827111921e+00 1.7890814226395722e+01 4.8850572128863812e+00 
53 1 2 1.0280000000023461e+00 -1.1813573111627434e+02 1.0000000000000000e+00 9.5884926287598873e+00 1.7807313853130040e+01 4.8999498486114472e+00 
94 1 2 1.0280000000016480e+00 -8.3905649304284708e+01 1.0000000000000000e+00 9.6483162128502737e+00 1.7825685464206121e+01 4.9095267542327985e+00 
27 1 2 1.0280000000014573e+00 6.9210929873035440e+01 1.0000000000000000e+00 9.6530784814296666e+00 1.7834909591608838e+01 4.9090985768579296e+00 
35 1 2 1.0280000000026475e+00 -6.4605035911612248e+01 1.0000000000000000e+00 9.6646510634359135e+00 1.7751284395773610e+01 4.9179644448196429e+00 
46 1 2 1.0279999999924432e+00 -8.8431591475058383e+01 1.0000000000000000e+00 1.0279050320689484e+01 1.8191967802961717e+01 4.6158206109198936e+00 
20 1 2 1.0279999999895146e+00 -4.5731785139410874e+01 1.0000000000000000e+00 1.0353519334362728e+01 1.8702220253929948e+01 3.6625452530987443e+00 
23 1 2 1.0280000000080343e+00 -5.2414429848373445e+01 1.0000000000000000e+00 1.0783741372155427e+01 1.3068743007057996e+01 1.8594634969068331e+01 
74 1 2 1.0280000000080349e+00 3.9726444445026559e+00 1.0000000000000000e+00 1.0783741204853873e+01 1.3068743763156734e+01 1.8594636845084487e+01 
18 1 2 1.0280000000080354e+00 -4.9032021654722470e+01 1.0000000000000000e+00 1.0783738558818943e+01 1.3068743940414928e+01 1.8594631860840082e+01 
29 1 2 1.0280000000080343e+00 -1.6864340384418387e+02 1.0000000000000000e+00 1.0783738359452377e+01 1.3068744058344214e+01 1.8594631792910420e+01 
56 1 2 1.0280000000080354e+00 1.4870661631231897e+02 1.0000000000000000e+00 1.0783742580368417e+01 1.3068742399106858e+01 1.8594635694636079e+01 
61 1 2 1.0280000000080345e+00 -6.7926173272844238e+01 1.0000000000000000e+00 1.0783744677623824e+01 1.3068741489483612e+01 1.8594637382567598e+01 
7 1 2 1.0280000000080336e+00 -6.7107230913281995e+01 1.0000000000000000e+00 1.0783737100590042e+01 1.3068744580867438e+01 1.8594630710564619e+01 
2 1 2 1.0280000000080343e+00 -3.0162752211926396e+01 1.0000000000000000e+00 1.0783737324872483e+01 1.3068744479098722e+01 1.8594630877882679e+01 
73 1 2 1.0280000000080343e+00 8.9300829850265615e+01 1.0000000000000000e+00 1.0783730473187328e+01 1.3068747173895252e+01 1.8594624547626388e+01 
33 1 2 1.0280000000080314e+00 -2.1765598023915505e+01 1.0000000000000000e+00 1.0783701657750585e+01 1.3068759106613586e+01 1.8594599679432431e+01 
62 1 2 1.0280000000080316e+00 -1.6572460713649610e+02 1.0000000000000000e+00 1.0783701608010521e+01 1.3068759313816976e+01 1.8594600185563330e+01 
98 1 2 1.0280000000080323e+00 9.3211210191661479e+01 1.0000000000000000e+00 1.0783708767231246e+01 1.3068755985147844e+01 1.8594605294540287e+01 
15 1 2 1.0280000000080269e+00 1.1202721620453737e+01 1.0000000000000000e+00 1.0783649952274571e+01 1.3068781126275264e+01 1.8594556809074223e+01 
76 1 2 1.0280000000092244e+00 1.3639127864044420e+02 1.0000000000000000e+00 1.2152288502126051e+01 1.5930909720195485e+01 1.6730991721614821e+01 
71 1 2 1.0280000000089820e+00 3.7885442870590644e+01 1.0000000000000000e+00 1.2140169888114199e+01 1.5914611262575839e+01 1.6732877120025954e+01 
66 1 2 1.0280000000088239e+00 -1.4102478503416489e+01 1.0000000000000000e+00 1.2091706116208718e+01 1.5926245079368687e+01 1.6814593017762373e+01 
26 1 2 1.0280000000088210e+00 6.0716296296802511e+01 1.0000000000000000e+00 1.2065013781963568e+01 1.5960166785427147e+01 1.6896250431454792e+01 
34 1 2 1.0279999999875409e+00 8.0604701148321624e+01 1.0000000000000000e+00 1.2614654596448188e+01 1.5579529911180357e+01 1.8440954475179971e+01 
67 1 2 1.0279999999884120e+00 -5.3396326917590386e+01 1.0000000000000000e+00 1.1865191954175836e+01 1.5938334091280455e+01 1.7438710549403293e+01 
16 1 2 1.0280000000080891e+00 2.5202804159397253e+01 1.0000000000000000e+00 1.2027703541563758e+01 1.5921969349410316e+01 1.6915439429186630e+01 
21 1 2 1.0279999999504625e+00 -3.0244574070521668e+02 1.0000000000000000e+00 1.2431699286777546e+01 1.5962461730853551e+01 1.8174833659814997e+01 
11 1 2 1.0280000000075384e+00 7.5973421139218203e+01 1.0000000000000000e+00 1.2805170169867488e+01 1.6545127189122752e+01 1.6988679774840737e+01 
41 1 2 1.0280000000029466e+00 1.4127020881177422e+01 1.0000000000000000e+00 1.3302278557431132e+01 1.5453281722472953e+01 1.8388416340860843e+01 
55 1 2 1.0280000000115219e+00 -8.4126771114427356e+01 1.0000000000000000e+00 8.1501731393628916e+00 1.7585018847174926e+01 1.9008404396098147e+01 
38 1 2 1.0280000000428289e+00 9.9762154983038783e+01 1.0000000000000000e+00 8.7239187180971474e+00 1.7673872926951791e+01 1.8656631626657159e+01 
31 1 2 1.0280000000372116e+00 1.8906119894890645e+02 1.0000000000000000e+00 8.6846476579964058e+00 1.7717036920540615e+01 1.8628813279877509e+01 
82 1 2 1.0280000000471781e+00 -2.6056446861745698e+01 1.0000000000000000e+00 8.8209885651868181e+00 1.7685875168726074e+01 1.8683678862073947e+01 
89 1 2 1.0280000000009384e+00 1.4571332410020932e+02 1.0000000000000000e+00 8.0651312650460572e+00 1.7851662783067724e+01 1.9299108977685805e+01 
100 1 2 1.0279999999935643e+00 3.7760640550421130e+00 1.0000000000000000e+00 8.0584480842709141e+00 1.7964564837492194e+01 1.9079946444737775e+01 
30 1 2 1.0279999999880818e+00 -5.7913756235757361e+01 1.0000000000000000e+00 8.1578390087655510e+00 1.8106813316782603e+01 1.9367593342909512e+01 
59 1 2 1.0280000000014116e+00 3.5649990768830497e+02 1.0000000000000000e+00 8.3738438926695711e+00 1.7937101089363129e+01 1.8621694549689781e+01 
50 1 2 1.0279999999656386e+00 2.7722692188360973e+01 1.0000000000000000e+00 8.5176624813983519e+00 1.8382897194626057e+01 1.9456660777522924e+01 
87 1 2 1.0280000000257803e+00 -1.1872864755558834e+02 1.0000000000000000e+00 8.6579995424134832e+00 1.7830324428179399e+01 1.8595257781031926e+01 
85 1 2 1.0279999999861062e+00 -1.9143044722476344e+02 1.0000000000000000e+00 8.3057860647573385e+00 1.8099691909093256e+01 1.8710871199375241e+01 
17 1 2 1.0279999999797023e+00 -7.6771542579549930e+01 1.0000000000000000e+00 8.4426989002750741e+00 1.8213273596392519e+01 1.8727405875462857e+01 
99 1 2 1.0279999999772382e+00 6.4206200101137455e+01 1.0000000000000000e+00 8.6362872224741487e+00 1.8264857538816589e+01 1.8747433339554767e+01 
79 1 2 1.0280000000295306e+00 -2.7023685417670031e+01 1.0000000000000000e+00 8.7441442754377618e+00 1.7831318193850553e+01 1.8613315449448677e+01 
24 1 2 1.0279999999890705e+00 1.8529009176509277e+01 1.0000000000000000e+00 1.4591608716793777e+01 1.3600510645555040e+01 1.6307613011865040e+01 
84 1 2 1.0279999999887786e+00 -1.6516927320823561e+02 1.0000000000000000e+00 1.4564492905977811e+01 1.3579267526698274e+01 1.6323710804506785e+01 
5 1 2 1.0279999999887814e+00 2.1298739050738607e+02 1.0000000000000000e+00 1.4554125685709497e+01 1.3572396422761317e+01 1.6327747547812159e+01 
63 1 2 1.0279999999887233e+00 5.8870319316517623e+01 1.0000000000000000e+00 1.4572780668749147e+01 1.3579203137098245e+01 1.6335897558704648e+01 
40 1 2 1.0279999999886673e+00 -9.1851817439766776e+00 1.0000000000000000e+00 1.4562208571484366e+01 1.3567721851637742e+01 1.6352985445721668e+01 
95 1 2 1.0279999999886371e+00 -7.0190459611815754e+01 1.0000000000000000e+00 1.4530984690244026e+01 1.3551169139775176e+01 1.6356316293400681e+01 
60 1 2 1.0279999999885252e+00 2.4493153760951589e+01 1.0000000000000000e+00 1.4557301203555269e+01 1.3556583289601768e+01 1.6380791623181651e+01 
58 1 2 1.0279999999884921e+00 -1.6851318108647902e+01 1.0000000000000000e+00 1.4557224555274802e+01 1.3555879206233474e+01 1.6383107175583611e+01 
64 1 2 1.0279999999885427e+00 1.5076583237905720e+02 1.0000000000000000e+00 1.4554432602231039e+01 1.3549550599981835e+01 1.6401129052348907e+01 
10 1 2 1.0279999999884397e+00 7.7841466167655753e+01 1.0000000000000000e+00 1.4577786830870490e+01 1.3557620036797152e+01 1.6418063070481949e+01 
37 1 2 1.0279999999885476e+00 -1.2787871443669118e+02 1.0000000000000000e+00 1.4560278022373168e+01 1.3540095370131038e+01 1.6457779684731833e+01 
39 1 2 1.0280000000146188e+00 -1.2738597324653878e+02 1.0000000000000000e+00 1.4315927997086963e+01 1.5813108035233933e+01 1.6182815583693433e+01 
90 1 2 1.0280000000147316e+00 8.1125063329620531e+01 1.0000000000000000e+00 1.4312753369927878e+01 1.5815986099136891e+01 1.6182992845975569e+01 
48 1 2 1.0280000000148737e+00 6.8706795836471812e+01 1.0000000000000000e+00 1.4307492397183221e+01 1.5827238775886729e+01 1.6190642586208583e+01 
91 1 2 1.0280000000174478e+00 -1.1951433556805098e+02 1.0000000000000000e+00 1.3859468221788100e+01 1.6352117079453652e+01 1.6596918841696436e+01 
36 1 2 1.0280000000157898e+00 -4.1635530599919861e+01 1.0000000000000000e+00 1.4152908074174809e+01 1.6230260439187301e+01 1.6752733417159163e+01 
70 1 2 1.0280000000036014e+00 -4.9827517449597650e+01 1.0000000000000000e+00 1.3380094023151878e+01 1.5431634233377865e+01 1.8369902027316286e+01 
42 1 2 1.0279999999873934e+00 -5.7455970508806075e+01 1.0000000000000000e+00 1.3388757174255161e+01 1.6173589010842537e+01 1.7999216808093074e+01 
44 1 2 1.0280000000025509e+00 9.2267208374674638e+01 1.0000000000000000e+00 1.3384926430201750e+01 1.5527693357145706e+01 1.8342720879081966e+01 

Velocities

28 3.1632484022796148e-08 8.6047064107921007e-08 -4.7444030912650923e-08
88 3.1632041580640640e-08 8.6047035782182051e-08 -4.7443967349371144e-08
3 3.1632377415334069e-08 8.6047103486566872e-08 -4.7444078818560871e-08
4 3.1632324872423917e-08 8.6047113416630217e-08 -4.7444083213578274e-08
13 3.1632382132602456e-08 8.6047148742979288e-08 -4.7444143631656358e-08
68 3.1632337768760538e-08 8.6047155698547684e-08 -4.7444139099916972e-08
81 3.1632386113581618e-08 8.6047163205858876e-08 -4.7444162311439731e-08
54 3.1632331740905878e-08 8.6047163670619131e-08 -4.7444167148941388e-08
96 3.1632365934899125e-08 8.6047280686616897e-08 -4.7444313167118828e-08
9 3.1637220105216459e-08 8.6055794979733980e-08 -4.7455779311786082e-08
12 3.2438504604003291e-08 8.6874178140926349e-08 -4.9239412712626494e-08
45 3.0482572946755868e-08 8.3447544515846659e-08 -4.9869075012621342e-08
97 3.1404965549068443e-08 8.5594048108548153e-08 -4.9640803049906521e-08
47 3.1862827845170229e-08 8.6017067129672975e-08 -4.9859293896963840e-08
52 3.1690801950348509e-08 8.5808394065761226e-08 -4.9849852481722988e-08
86 3.1346863680264073e-08 8.6532291160274006e-08 -5.2325662370437352e-08
83 3.1473986181258853e-08 8.6586181459004348e-08 -5.2505442244892268e-08
51 3.1274038355010995e-08 8.6559994733734754e-08 -5.2339754677564318e-08
49 3.1263443933423425e-08 8.6583907993519086e-08 -5.2383370257657092e-08
80 3.1195705760930240e-08 8.6573442899005465e-08 -5.2317288808974285e-08
92 3.1179736076149315e-08 8.6586352955090778e-08 -5.2334103338254429e-08
22 3.1240141338444676e-08 8.6631700710136609e-08 -5.2466190616142859e-08
6 3.1094065127102665e-08 8.6638510300567638e-08 -5.2384630759702524e-08
43 3.1058446816576795e-08 8.6651926597598894e-08 -5.2387204131383383e-08
25 3.1606582971184583e-08 8.6746528761998116e-08 -5.2848803374194221e-08
14 3.2147035413099501e-08 8.7285498476119202e-08 -5.3666854903186354e-08
8 3.3218984698823956e-08 8.8697313900659252e-08 -5.4504053894897922e-08
78 3.5642248340501218e-08 9.1055433712009741e-08 -5.3747872411437219e-08
69 3.5501760163280092e-08 9.0960076133859991e-08 -5.3824825889880884e-08
65 3.4943968545427201e-08 9.0488769133922519e-08 -5.4070793435005673e-08
75 3.3983906753914862e-08 8.9265155530989383e-08 -5.3888802224353183e-08
1 3.3858060355504708e-08 8.9247414054229893e-08 -5.3807271907241595e-08
72 3.3923404533778083e-08 9.0059822128798377e-08 -5.2251050454096704e-08
32 3.4135328534523661e-08 9.0227070409172348e-08 -5.2421472674303218e-08
57 3.4413577897478584e-08 9.0243720912526634e-08 -5.2944613209606629e-08
93 3.4206165057813683e-08 9.0271334087566381e-08 -5.2507822903341678e-08
77 3.4328303192654807e-08 9.0311390707283488e-08 -5.2712878526125010e-08
19 3.4312255833926365e-08 9.0302979381677547e-08 -5.2644511685471814e-08
53 3.4279441400194868e-08 9.0257751412588607e-08 -5.2514202406462796e-08
94 3.4316425512398282e-08 9.0271249222936271e-08 -5.2585522938679250e-08
27 3.4320827771632034e-08 9.0276697362395087e-08 -5.2603959054856741e-08
35 3.4305173020181606e-08 9.0211212974297134e-08 -5.2480937877236483e-08
46 3.3787661440138449e-08 8.9887137188097189e-08 -5.3343721119265116e-08
20 3.4032506339725393e-08 8.9047023381306182e-08 -5.3471787751435603e-08
23 -4.2958692966134801e-08 -1.1638694774263209e-07 6.8725680130528829e-08
74 -4.2958698762012522e-08 -1.1638694750947552e-07 6.8725682704715928e-08
18 -4.2958694167524796e-08 -1.1638694162646768e-07 6.8725672994855580e-08
29 -4.2958691001620339e-08 -1.1638693627087242e-07 6.8725671107629499e-08
56 -4.2958690150122576e-08 -1.1638694951504748e-07 6.8725682043437557e-08
61 -4.2958687779602968e-08 -1.1638695440073939e-07 6.8725686566652484e-08
7 -4.2958696241895725e-08 -1.1638693871598862e-07 6.8725670041649229e-08
2 -4.2958696940850267e-08 -1.1638694056526654e-07 6.8725670937720103e-08
73 -4.2958696786904841e-08 -1.1638691699370020e-07 6.8725652518052932e-08
33 -4.2958721305697514e-08 -1.1638684522296623e-07 6.8725586473035988e-08
62 -4.2958722449691372e-08 -1.1638684456487158e-07 6.8725586972254629e-08
98 -4.2958712748399463e-08 -1.1638686147108035e-07 6.8725601546158015e-08
15 -4.2958766043191460e-08 -1.1638671105843265e-07 6.8725468766294831e-08
76 -4.3514048651403929e-08 -1.1604728649095098e-07 6.8124499445748381e-08
71 -4.3498363173399473e-08 -1.1604658268329620e-07 6.8109961891674730e-08
66 -4.3239747733160231e-08 -1.1544599407636308e-07 6.7862346567024581e-08
26 -4.2976151444402664e-08 -1.1482238657629709e-07 6.7622846484961388e-08
34 -4.1663614134219773e-08 -1.1572938304339921e-07 6.6394410406167515e-08
67 -3.8995947502450045e-08 -1.1147854394232671e-07 6.5337892793486652e-08
16 -4.2843765679276290e-08 -1.1471198323456549e-07 6.7541135569864413e-08
21 -3.8707379662764968e-08 -1.1480262548379542e-07 6.1100535186541424e-08
11 -4.3346645895148681e-08 -1.1633057713599981e-07 6.9563304278050281e-08
41 -4.3182189528733609e-08 -1.1871791406844529e-07 7.0606102883907312e-08
55 2.7256530873430183e-08 7.9674955449152137e-08 -4.9055291853466376e-08
38 2.8015570349196012e-08 7.5340215192931259e-08 -4.9709105099728590e-08
31 2.7854814858739420e-08 7.6144965761485588e-08 -4.9735508495797578e-08
82 2.8536976221669027e-08 7.4768669992089367e-08 -4.9470316063543644e-08
89 2.8236109360680129e-08 8.1207876233319588e-08 -4.8987197200054876e-08
100 2.8658463823800934e-08 8.1017272492681066e-08 -4.9082164380917819e-08
30 2.9431398391891101e-08 8.1171668055651925e-08 -4.9403949197762298e-08
59 2.7897329581421369e-08 7.9706924254023436e-08 -4.8874328876290898e-08
50 3.0598859642599295e-08 7.9710065708809255e-08 -5.0078997706866025e-08
87 2.7854804374500802e-08 7.7520930230981670e-08 -4.9462169744063169e-08
85 2.8719149229183642e-08 8.0136666675450387e-08 -4.8354097489391502e-08
17 2.8854768238168934e-08 7.9657183506911710e-08 -4.7936685478027395e-08
99 2.8613361744999523e-08 7.9103886801847156e-08 -4.7505269081865394e-08
79 2.8147537516710883e-08 7.7022612798641898e-08 -4.9336546851045668e-08
24 -4.6561632623032489e-08 -1.2223233774050149e-07 7.4337227406325121e-08
84 -4.6491473971111956e-08 -1.2213181781629031e-07 7.4291451061976602e-08
5 -4.6461674262583117e-08 -1.2210085073067397e-07 7.4278397397402166e-08
63 -4.6521339740945428e-08 -1.2212683361607231e-07 7.4257227763652868e-08
40 -4.6495382284184500e-08 -1.2207133656896493e-07 7.4205307371323836e-08
95 -4.6397613401659267e-08 -1.2200309858102693e-07 7.4188227619583364e-08
60 -4.6487197152018450e-08 -1.2201568422536883e-07 7.4119270612667524e-08
58 -4.6487413449631307e-08 -1.2201209077445189e-07 7.4112038558623431e-08
64 -4.6481406887352564e-08 -1.2198135300868653e-07 7.4054765154222721e-08
10 -4.6556930438147832e-08 -1.2201025376435182e-07 7.4005439462520644e-08
37 -4.6501980877784156e-08 -1.2193304558332670e-07 7.3874348578377650e-08
39 -4.2752713080480866e-08 -1.2077881710953846e-07 7.0516884155936355e-08
90 -4.2754011271360041e-08 -1.2076558244049740e-07 7.0509865516202340e-08
48 -4.2743935107657773e-08 -1.2071644467858563e-07 7.0505806018489889e-08
91 -4.2862460365140192e-08 -1.1816316953473045e-07 7.0506711692376981e-08
36 -4.2415511675515718e-08 -1.1898418890270369e-07 7.1321993448743030e-08
70 -4.3237747413834796e-08 -1.1900514845484941e-07 7.0832938965003471e-08
42 -4.3391202786194759e-08 -1.1787491145751125e-07 6.7966676671704557e-08
44 -4.3244660928940013e-08 -1.1878853414010066e-07 7.0608936366215118e-08
