LAMMPS data file via write_data, version 30 Jul 2016, timestep = 50000000

100 atoms
2 atom types

0.0000000000000000e+00 2.0000000000000000e+01 xlo xhi
0.0000000000000000e+00 2.0000000000000000e+01 ylo yhi
0.0000000000000000e+00 2.0000000000000000e+01 zlo zhi

Masses

1 3.896
2 4.31

Atoms # meso-molecular

28 1 2 1.0279999999861222e+00 -1.3967211626856749e+01 1.0000000000000000e+00 9.7173283520048628e+00 1.5285987095411981e+01 2.4317941493682413e+00 
88 1 2 1.0279999999861225e+00 -9.6232638004939076e+01 1.0000000000000000e+00 9.7174482039812489e+00 1.5286003493163266e+01 2.4317990077827862e+00 
3 1 2 1.0279999999861222e+00 -7.3177496699346364e+01 1.0000000000000000e+00 9.7173638911221172e+00 1.5285989979838101e+01 2.4318058950883334e+00 
4 1 2 1.0279999999861240e+00 -1.0504131091453013e+02 1.0000000000000000e+00 9.7173793123793537e+00 1.5285991696770152e+01 2.4318085678675954e+00 
13 1 2 1.0279999999861242e+00 1.6209603953649741e+02 1.0000000000000000e+00 9.7173693983546521e+00 1.5285988737352444e+01 2.4318165292531355e+00 
68 1 2 1.0279999999861236e+00 6.6180820015650042e+01 1.0000000000000000e+00 9.7173814800924934e+00 1.5285990296728411e+01 2.4318175059935032e+00 
81 1 2 1.0279999999861236e+00 -2.4314206098440940e+02 1.0000000000000000e+00 9.7173702122775314e+00 1.5285988278797367e+01 2.4318195351691094e+00 
54 1 2 1.0279999999861233e+00 1.2256891931315326e+02 1.0000000000000000e+00 9.7173863557113691e+00 1.5285990114483379e+01 2.4318221340143560e+00 
96 1 2 1.0279999999861249e+00 -8.1489013574804630e+01 1.0000000000000000e+00 9.7173917759381450e+00 1.5285986398107745e+01 2.4318456112546336e+00 
9 1 2 1.0279999999861607e+00 -7.6049424780550936e+01 1.0000000000000000e+00 9.7172061378010532e+00 1.5285624624546928e+01 2.4336023453325351e+00 
12 1 2 1.0279999999991269e+00 1.3932385064898284e+02 1.0000000000000000e+00 9.7069659001841586e+00 1.5285993061010867e+01 2.8145365256419552e+00 
45 1 2 1.0280000000332279e+00 2.8631981812267327e+01 1.0000000000000000e+00 9.0874161685983257e+00 1.6670413655326964e+01 1.3612403955829546e+00 
97 1 2 1.0280000000112575e+00 -4.8317157881065782e+00 1.0000000000000000e+00 8.8815581360701294e+00 1.7000612465139266e+01 1.8625930313589660e+00 
47 1 2 1.0280000000069096e+00 6.4764142277443440e+01 1.0000000000000000e+00 8.9046001357260351e+00 1.7190820042580132e+01 1.9777782286816470e+00 
52 1 2 1.0280000000090055e+00 -7.7043228612776716e+01 1.0000000000000000e+00 8.9942485810632622e+00 1.7250740633114344e+01 1.7276556069963145e+00 
86 1 2 1.0279999999731901e+00 -1.3869772084544991e+02 1.0000000000000000e+00 1.1997686165663369e+01 1.9512776645547977e+01 5.4181651206985415e-01 
83 1 2 1.0279999999764999e+00 -4.8679475890408924e+01 1.0000000000000000e+00 1.1998447983374245e+01 1.9526388825039270e+01 5.4969780478811991e-01 
51 1 2 1.0279999999729179e+00 4.0791592803342258e+00 1.0000000000000000e+00 1.2007886173271576e+01 1.9505739155046992e+01 5.4685590277836249e-01 
49 1 2 1.0279999999734175e+00 2.2514468666898242e+02 1.0000000000000000e+00 1.2013272189138249e+01 1.9504711382378307e+01 5.5102671775858780e-01 
80 1 2 1.0279999999720812e+00 9.7851917728277940e+00 1.0000000000000000e+00 1.2014977974568385e+01 1.9497914558951241e+01 5.4927141898346865e-01 
92 1 2 1.0279999999721732e+00 -2.1911875243343424e+01 1.0000000000000000e+00 1.2018371062111679e+01 1.9496276976494819e+01 5.5152388298537780e-01 
22 1 2 1.0279999999744851e+00 2.4067901458845699e+02 1.0000000000000000e+00 1.2024135240222948e+01 1.9501932337814250e+01 5.5945577521556300e-01 
6 1 2 1.0279999999723159e+00 4.4552210754097977e+01 1.0000000000000000e+00 1.2032717746588112e+01 1.9486994034885356e+01 5.6058253166302763e-01 
43 1 2 1.0279999999720535e+00 -4.7924126358793444e+00 1.0000000000000000e+00 1.2036806570895253e+01 1.9483117105269702e+01 5.6282881740762181e-01 
25 1 2 1.0279999999823415e+00 -1.9853407843217377e+02 1.0000000000000000e+00 1.2017448577280581e+01 1.9539988429397805e+01 5.7432995480187465e-01 
14 1 2 1.0279999999981668e+00 1.8060603735679436e+02 1.0000000000000000e+00 1.2057144514450329e+01 1.9585595704481683e+01 6.5126678629061363e-01 
8 1 2 1.0280000000182707e+00 4.7403558393529863e+01 1.0000000000000000e+00 1.1909496120472651e+01 1.9788592190997072e+01 8.4758531750333710e-01 
78 1 2 1.0280000000380856e+00 9.7875986143587198e+01 1.0000000000000000e+00 1.1115776824271080e+01 1.8860208445724570e+01 2.2740153350882064e+00 
69 1 2 1.0280000000340841e+00 6.0554807295344766e+00 1.0000000000000000e+00 1.1092410233602683e+01 1.8848795310297518e+01 2.3016004080690013e+00 
65 1 2 1.0280000000174565e+00 5.3377316396635287e+01 1.0000000000000000e+00 1.0991709685176000e+01 1.8806659662417445e+01 2.4317734862623821e+00 
75 1 2 1.0279999999906397e+00 -2.7967696305691618e+01 1.0000000000000000e+00 1.0700731291251497e+01 1.8683278140834602e+01 3.1043216948577554e+00 
1 1 2 1.0279999999900908e+00 1.0141857916064745e+02 1.0000000000000000e+00 1.0696587013920702e+01 1.8636267321760197e+01 3.2536355382361970e+00 
72 1 2 1.0280000000053444e+00 -8.8061420138687481e+01 1.0000000000000000e+00 9.2787376614887496e+00 1.7685880643462809e+01 4.7672680458739700e+00 
32 1 2 1.0280000000035510e+00 4.2666022607714304e+01 1.0000000000000000e+00 9.3997759354087798e+00 1.7801992842991744e+01 4.8295177134211054e+00 
57 1 2 1.0279999999970040e+00 -1.3777731738591353e+02 1.0000000000000000e+00 9.5740847674322698e+00 1.8093128399393152e+01 4.8147965993246977e+00 
93 1 2 1.0280000000025866e+00 -5.5316140778321611e+01 1.0000000000000000e+00 9.4405896446706326e+00 1.7850833378260571e+01 4.8414307387252435e+00 
77 1 2 1.0280000000001772e+00 4.9767428034084084e+01 1.0000000000000000e+00 9.5446248710876507e+00 1.7948156368241861e+01 4.8600770281635564e+00 
19 1 2 1.0280000000010516e+00 4.7576982804825967e+01 1.0000000000000000e+00 9.5815969402063725e+00 1.7890810435394787e+01 4.8850594193982015e+00 
53 1 2 1.0280000000025564e+00 -1.1813573111627434e+02 1.0000000000000000e+00 9.5884911876345758e+00 1.7807310064020374e+01 4.8999520496534466e+00 
94 1 2 1.0280000000017737e+00 -8.3905649304284708e+01 1.0000000000000000e+00 9.6483147701764835e+00 1.7825681674532390e+01 4.9095289582722748e+00 
27 1 2 1.0280000000015905e+00 6.9210929873035440e+01 1.0000000000000000e+00 9.6530770385716309e+00 1.7834905801707187e+01 4.9091007816719898e+00 
35 1 2 1.0280000000029030e+00 -6.4605035911612248e+01 1.0000000000000000e+00 9.6646496212368209e+00 1.7751280608614319e+01 4.9179666444695513e+00 
46 1 2 1.0279999999916267e+00 -8.8431591475058383e+01 1.0000000000000000e+00 1.0279048900262472e+01 1.8191964029437198e+01 4.6158228467620255e+00 
20 1 2 1.0279999999885738e+00 -4.5731785139410874e+01 1.0000000000000000e+00 1.0353517903632886e+01 1.8702216515647194e+01 3.6625474943329608e+00 
23 1 2 1.0280000000088048e+00 -5.2414429848373445e+01 1.0000000000000000e+00 1.0783743178085661e+01 1.3068747893071716e+01 1.8594632088491654e+01 
74 1 2 1.0280000000088052e+00 3.9726444445026559e+00 1.0000000000000000e+00 1.0783743010784367e+01 1.3068748649170464e+01 1.8594633964507707e+01 
18 1 2 1.0280000000088039e+00 -4.9032021654722470e+01 1.0000000000000000e+00 1.0783740364749180e+01 1.3068748826428314e+01 1.8594628980263710e+01 
29 1 2 1.0280000000088048e+00 -1.6864340384418387e+02 1.0000000000000000e+00 1.0783740165382630e+01 1.3068748944357587e+01 1.8594628912334045e+01 
56 1 2 1.0280000000088043e+00 1.4870661631231897e+02 1.0000000000000000e+00 1.0783744386298585e+01 1.3068747285120693e+01 1.8594632814059306e+01 
61 1 2 1.0280000000088048e+00 -6.7926173272844238e+01 1.0000000000000000e+00 1.0783746483553902e+01 1.3068746375497676e+01 1.8594634501990608e+01 
7 1 2 1.0280000000088039e+00 -6.7107230913281995e+01 1.0000000000000000e+00 1.0783738906520346e+01 1.3068749466880675e+01 1.8594627829988390e+01 
2 1 2 1.0280000000088028e+00 -3.0162752211926396e+01 1.0000000000000000e+00 1.0783739130802777e+01 1.3068749365111978e+01 1.8594627997306443e+01 
73 1 2 1.0280000000088043e+00 8.9300829850265615e+01 1.0000000000000000e+00 1.0783732279117785e+01 1.3068752059907760e+01 1.8594621667050838e+01 
33 1 2 1.0280000000088010e+00 -2.1765598023915505e+01 1.0000000000000000e+00 1.0783703463681968e+01 1.3068763992622950e+01 1.8594596798859691e+01 
62 1 2 1.0280000000088014e+00 -1.6572460713649610e+02 1.0000000000000000e+00 1.0783703413941971e+01 1.3068764199826347e+01 1.8594597304990558e+01 
98 1 2 1.0280000000088021e+00 9.3211210191661479e+01 1.0000000000000000e+00 1.0783710573162328e+01 1.3068760871157988e+01 1.8594602413966893e+01 
15 1 2 1.0280000000087977e+00 1.1202721620453737e+01 1.0000000000000000e+00 1.0783651758207817e+01 1.3068786012279011e+01 1.8594553928506375e+01 
76 1 2 1.0280000000101233e+00 1.3639127864044420e+02 1.0000000000000000e+00 1.2152290331599957e+01 1.5930914592122503e+01 1.6730988866407568e+01 
71 1 2 1.0280000000099467e+00 3.7885442870590644e+01 1.0000000000000000e+00 1.2140171716928213e+01 1.5914616134476747e+01 1.6732874265425828e+01 
66 1 2 1.0280000000098626e+00 -1.4102478503416489e+01 1.0000000000000000e+00 1.2091707934177279e+01 1.5926249926038462e+01 1.6814590173540584e+01 
26 1 2 1.0280000000096932e+00 6.0716296296802511e+01 1.0000000000000000e+00 1.2065015588874040e+01 1.5960171605895704e+01 1.6896247597264249e+01 
34 1 2 1.0279999999862364e+00 8.0604701148321624e+01 1.0000000000000000e+00 1.2614656348150580e+01 1.5579534769826656e+01 1.8440951692458210e+01 
67 1 2 1.0279999999873632e+00 -5.3396326917590386e+01 1.0000000000000000e+00 1.1865193594074153e+01 1.5938338771207382e+01 1.7438707810855622e+01 
16 1 2 1.0280000000089518e+00 2.5202804159397253e+01 1.0000000000000000e+00 1.2027705342924417e+01 1.5921974165244896e+01 1.6915436598420282e+01 
21 1 2 1.0279999999452574e+00 -3.0244574070521668e+02 1.0000000000000000e+00 1.2431700914225090e+01 1.5962466550688376e+01 1.8174831099287776e+01 
11 1 2 1.0280000000081955e+00 7.5973421139218203e+01 1.0000000000000000e+00 1.2805171992233555e+01 1.6545132073003813e+01 1.6988676859206937e+01 
41 1 2 1.0280000000033924e+00 1.4127020881177422e+01 1.0000000000000000e+00 1.3302280372937956e+01 1.5453286706562723e+01 1.8388413381414132e+01 
55 1 2 1.0280000000126637e+00 -8.4126771114427356e+01 1.0000000000000000e+00 8.1501719931960359e+00 1.7585015502155887e+01 1.9008406452109480e+01 
38 1 2 1.0280000000470759e+00 9.9762154983038783e+01 1.0000000000000000e+00 8.7239175401892339e+00 1.7673869763967200e+01 1.8656633710318307e+01 
31 1 2 1.0280000000409517e+00 1.8906119894890645e+02 1.0000000000000000e+00 8.6846464868332394e+00 1.7717033723763922e+01 1.8628815364632334e+01 
82 1 2 1.0280000000521345e+00 -2.6056446861745698e+01 1.0000000000000000e+00 8.8209873653916517e+00 1.7685872029734224e+01 1.8683680935734522e+01 
89 1 2 1.0280000000009659e+00 1.4571332410020932e+02 1.0000000000000000e+00 8.0651300776784023e+00 1.7851659373728850e+01 1.9299111030856054e+01 
100 1 2 1.0279999999929230e+00 3.7760640550421130e+00 1.0000000000000000e+00 8.0584468792063060e+00 1.7964561436166569e+01 1.9079948501872828e+01 
30 1 2 1.0279999999868588e+00 -5.7913756235757361e+01 1.0000000000000000e+00 8.1578377712195120e+00 1.8106809909015173e+01 1.9367595413587200e+01 
59 1 2 1.0280000000015250e+00 3.5649990768830497e+02 1.0000000000000000e+00 8.3738427196728225e+00 1.7937097743030069e+01 1.8621696598155768e+01 
50 1 2 1.0279999999620701e+00 2.7722692188360973e+01 1.0000000000000000e+00 8.5176611948708150e+00 1.8382893848272353e+01 1.9456662876538182e+01 
87 1 2 1.0280000000283789e+00 -1.1872864755558834e+02 1.0000000000000000e+00 8.6579983712402537e+00 1.7830321173623414e+01 1.8595259854290369e+01 
85 1 2 1.0279999999846889e+00 -1.9143044722476344e+02 1.0000000000000000e+00 8.3057848572315702e+00 1.8099688544725126e+01 1.8710873225961993e+01 
17 1 2 1.0279999999776592e+00 -7.6771542579549930e+01 1.0000000000000000e+00 8.4426976870579757e+00 1.8213270252155194e+01 1.8727407884531065e+01 
99 1 2 1.0279999999749876e+00 6.4206200101137455e+01 1.0000000000000000e+00 8.6362860194007354e+00 1.8264854217808157e+01 1.8747435330526002e+01 
79 1 2 1.0280000000326095e+00 -2.7023685417670031e+01 1.0000000000000000e+00 8.7441430919777297e+00 1.7831314960214911e+01 1.8613317517454504e+01 
24 1 2 1.0279999999879277e+00 1.8529009176509277e+01 1.0000000000000000e+00 1.4591610674310152e+01 1.3600515777182528e+01 1.6307609896067653e+01 
84 1 2 1.0279999999877185e+00 -1.6516927320823561e+02 1.0000000000000000e+00 1.4564494860548185e+01 1.3579272654106118e+01 1.6323707690631569e+01 
5 1 2 1.0279999999876241e+00 2.1298739050738607e+02 1.0000000000000000e+00 1.4554127639028383e+01 1.3572401548869834e+01 1.6327744434484213e+01 
63 1 2 1.0279999999876348e+00 5.8870319316517623e+01 1.0000000000000000e+00 1.4572782624572470e+01 1.3579208264298181e+01 1.6335894446266849e+01 
40 1 2 1.0279999999874863e+00 -9.1851817439766776e+00 1.0000000000000000e+00 1.4562210526217832e+01 1.3567726976508276e+01 1.6352982335462915e+01 
95 1 2 1.0279999999875107e+00 -7.0190459611815754e+01 1.0000000000000000e+00 1.4530986640872813e+01 1.3551174261780028e+01 1.6356313183857711e+01 
60 1 2 1.0279999999873937e+00 2.4493153760951589e+01 1.0000000000000000e+00 1.4557303157943679e+01 1.3556588412137543e+01 1.6380788516534931e+01 
58 1 2 1.0279999999873761e+00 -1.6851318108647902e+01 1.0000000000000000e+00 1.4557226509672191e+01 1.3555884328618607e+01 1.6383104069240755e+01 
64 1 2 1.0279999999873377e+00 1.5076583237905720e+02 1.0000000000000000e+00 1.4554434556375645e+01 1.3549555721078061e+01 1.6401125948409888e+01 
10 1 2 1.0279999999873295e+00 7.7841466167655753e+01 1.0000000000000000e+00 1.4577788788184815e+01 1.3557625159108204e+01 1.6418059968615861e+01 
37 1 2 1.0279999999874558e+00 -1.2787871443669118e+02 1.0000000000000000e+00 1.4560279977379096e+01 1.3540100489202809e+01 1.6457776588367697e+01 
39 1 2 1.0280000000161602e+00 -1.2738597324653878e+02 1.0000000000000000e+00 1.4315929794649142e+01 1.5813113105887615e+01 1.6182812628178635e+01 
90 1 2 1.0280000000162146e+00 8.1125063329620531e+01 1.0000000000000000e+00 1.4312755167543273e+01 1.5815991169234108e+01 1.6182989890756446e+01 
48 1 2 1.0280000000162983e+00 6.8706795836471812e+01 1.0000000000000000e+00 1.4307494194377162e+01 1.5827243843924171e+01 1.6190639631156390e+01 
91 1 2 1.0280000000191805e+00 -1.1951433556805098e+02 1.0000000000000000e+00 1.3859470023915573e+01 1.6352122040310885e+01 1.6596915886579094e+01 
36 1 2 1.0280000000174412e+00 -4.1635530599919861e+01 1.0000000000000000e+00 1.4152909857554825e+01 1.6230265434500396e+01 1.6752730427836998e+01 
70 1 2 1.0280000000038989e+00 -4.9827517449597650e+01 1.0000000000000000e+00 1.3380095840999809e+01 1.5431639229531836e+01 1.8369899058376113e+01 
42 1 2 1.0279999999860379e+00 -5.7455970508806075e+01 1.0000000000000000e+00 1.3388758998551120e+01 1.6173593959670825e+01 1.7999213959561327e+01 
44 1 2 1.0280000000030367e+00 9.2267208374674638e+01 1.0000000000000000e+00 1.3384928248335365e+01 1.5527698344202845e+01 1.8342717919543343e+01 

Velocities

28 3.4914181913061831e-08 9.4722234439692878e-08 -5.2043516174338522e-08
88 3.4913694371474378e-08 9.4722196514360204e-08 -5.2043447545033989e-08
3 3.4914063814637981e-08 9.4722281162213248e-08 -5.2043568353204474e-08
4 3.4914006991188154e-08 9.4722282519113204e-08 -5.2043574829924552e-08
13 3.4914069486781764e-08 9.4722327093519506e-08 -5.2043640323265668e-08
68 3.4914021161287131e-08 9.4722329522758700e-08 -5.2043636238088483e-08
81 3.4914073466558126e-08 9.4722346370871289e-08 -5.2043660306332976e-08
54 3.4914013653099015e-08 9.4722345193140810e-08 -5.2043665936163883e-08
96 3.4914051630535525e-08 9.4722471931481226e-08 -5.2043826935329842e-08
9 3.4919420157988822e-08 9.4731744575002124e-08 -5.2056457782309886e-08
12 3.5804145823590964e-08 9.5623841050732710e-08 -5.4016093898348366e-08
45 3.3653237206034018e-08 9.1853661534934722e-08 -5.4708660298692287e-08
97 3.4667075181368577e-08 9.4214346733799025e-08 -5.4458101436059363e-08
47 3.5171123013851921e-08 9.4679647622025343e-08 -5.4698499961780026e-08
52 3.4983182970787711e-08 9.4449824849828578e-08 -5.4688322820949987e-08
86 3.4597308322509490e-08 9.5241362560599176e-08 -5.7414631807450449e-08
83 3.4737617402845776e-08 9.5300650446227321e-08 -5.7612839213857488e-08
51 3.4516843498252080e-08 9.5271936330951827e-08 -5.7430168288322769e-08
49 3.4505102356159173e-08 9.5298290465374887e-08 -5.7478255783946845e-08
80 3.4430322573921627e-08 9.5286820692360675e-08 -5.7405406422380464e-08
92 3.4412672569670791e-08 9.5301063624415527e-08 -5.7423954370105617e-08
22 3.4479284450397824e-08 9.5350972161569545e-08 -5.7569576726226874e-08
6 3.4317970108902775e-08 9.5358621884320293e-08 -5.7479683426170907e-08
43 3.4278623938322103e-08 9.5373450828992437e-08 -5.7482540277889889e-08
25 3.4883814790522115e-08 9.5477240236072158e-08 -5.7991381898977493e-08
14 3.5479910796197314e-08 9.6070930308493196e-08 -5.8893196143235071e-08
8 3.6663730511260488e-08 9.7627550662280266e-08 -5.9815629347237903e-08
78 3.9338152693393982e-08 1.0022809584719536e-07 -5.8979799722323077e-08
69 3.9183283754591419e-08 1.0012300571699063e-07 -5.9064512939195680e-08
65 3.8568283626389599e-08 9.9603470736726764e-08 -5.9335162972009152e-08
75 3.7509092657747710e-08 9.8252518628534576e-08 -5.9132103670374921e-08
1 3.7370339097710163e-08 9.8232473602512572e-08 -5.9041658482298605e-08
72 3.7443595203445039e-08 9.9125580699536859e-08 -5.7325781108517083e-08
32 3.7677095144892736e-08 9.9309321197075429e-08 -5.7513800217445087e-08
57 3.7983179373367316e-08 9.9326317951895756e-08 -5.8089824958930714e-08
93 3.7755079369768996e-08 9.9357853595841282e-08 -5.7608980699344465e-08
77 3.7889370869262706e-08 9.9401461236469135e-08 -5.7835005801636163e-08
19 3.7871552724968921e-08 9.9392420555761540e-08 -5.7759959473842069e-08
53 3.7835346637554081e-08 9.9342989461233598e-08 -5.7616568581301480e-08
94 3.7875844644888142e-08 9.9357752387843134e-08 -5.7695238617054527e-08
27 3.7880678172548787e-08 9.9363704448949856e-08 -5.7715564062798902e-08
35 3.7863352580826439e-08 9.9291971611908540e-08 -5.7580171950531772e-08
46 3.7291297007182699e-08 9.8933712784200604e-08 -5.8528388309753435e-08
20 3.7562097186385024e-08 9.8010497132493905e-08 -5.8670083498899387e-08
23 -4.7411024925145771e-08 -1.2810105547165672e-07 7.5406220679027110e-08
74 -4.7411030992063626e-08 -1.2810105482140541e-07 7.5406223381197446e-08
18 -4.7411022281711512e-08 -1.2810104347200679e-07 7.5406211134299620e-08
29 -4.7411022175740312e-08 -1.2810104211799673e-07 7.5406210534348393e-08
56 -4.7411019463797108e-08 -1.2810105422165201e-07 7.5406221735971894e-08
61 -4.7411019637970078e-08 -1.2810106328716556e-07 7.5406227898644250e-08
7 -4.7411023992670837e-08 -1.2810103953424970e-07 7.5406207655369988e-08
2 -4.7411021425503828e-08 -1.2810103708588535e-07 7.5406207182549050e-08
73 -4.7411028530669036e-08 -1.2810102105455690e-07 7.5406190181173460e-08
33 -4.7411056245933665e-08 -1.2810094367983613e-07 7.5406118221308955e-08
62 -4.7411059003392727e-08 -1.2810094497317661e-07 7.5406119425601527e-08
98 -4.7411047474197531e-08 -1.2810096226744264e-07 7.5406134990622704e-08
15 -4.7411100553667684e-08 -1.2810079056530515e-07 7.5405987264586662e-08
76 -4.8034098014704449e-08 -1.2773611810735423e-07 7.4737728777461456e-08
71 -4.8016900853443948e-08 -1.2773542637018221e-07 7.4721786668023271e-08
66 -4.7732782855091544e-08 -1.2707351826502815e-07 7.4450218406469318e-08
26 -4.7443075983570474e-08 -1.2638600766764180e-07 7.4187764546169815e-08
34 -4.5992832878675087e-08 -1.2738962803035227e-07 7.2840955309653334e-08
67 -4.3066392259478898e-08 -1.2269713976559293e-07 7.1687441148434792e-08
16 -4.7297783793964339e-08 -1.2626453391030948e-07 7.4098168302437012e-08
21 -4.2731402914507734e-08 -1.2637430818772359e-07 6.7016895575015741e-08
11 -4.7845728604656782e-08 -1.2805099992814401e-07 7.6322618662214453e-08
41 -4.7667096817158635e-08 -1.3067805966581891e-07 7.7472030040528697e-08
55 3.0098823318338384e-08 8.7704573886791367e-08 -5.3818727378466665e-08
38 3.0927806424194472e-08 8.2930580644323022e-08 -5.4548691593323529e-08
31 3.0751090118337296e-08 8.3816705130360585e-08 -5.4576998443917453e-08
82 3.1501571333718162e-08 8.2301558143732574e-08 -5.4287034641963590e-08
89 3.1181045817914725e-08 8.9390052004677288e-08 -5.3744724020829877e-08
100 3.1644136690863146e-08 8.9179639401214079e-08 -5.3848016134913951e-08
30 3.2496608776011184e-08 8.9347506381308791e-08 -5.4204006338083952e-08
59 3.0800423205673553e-08 8.7738292113431425e-08 -5.3622159128596088e-08
50 3.3779969299165911e-08 8.7735985924177489e-08 -5.4946935788210497e-08
87 3.0751627213429175e-08 8.5331931918351388e-08 -5.4275049932084022e-08
85 3.1706491152874618e-08 8.8210922830832069e-08 -5.3047488655035012e-08
17 3.1855637261771612e-08 8.7683036582803458e-08 -5.2588256676673965e-08
99 3.1589398239819631e-08 8.7074013984505584e-08 -5.2114216139322238e-08
79 3.1073686663450960e-08 8.4783447611053611e-08 -5.4137933900804610e-08
24 -5.1393731146048578e-08 -1.3454611229063522e-07 8.1564112852051668e-08
84 -5.1316462008081226e-08 -1.3443549891910831e-07 8.1513751406410241e-08
5 -5.1283640350331671e-08 -1.3440143316507859e-07 8.1499390664072818e-08
63 -5.1349310521062129e-08 -1.3443006580565948e-07 8.1476047683689413e-08
40 -5.1320714716690619e-08 -1.3436900859897665e-07 8.1418908536377837e-08
95 -5.1213083544328809e-08 -1.3429388911772328e-07 8.1400165175855346e-08
60 -5.1311647808630928e-08 -1.3430784724084902e-07 8.1324196297644867e-08
58 -5.1311894728768019e-08 -1.3430387701728790e-07 8.1316242369528727e-08
64 -5.1305227972174341e-08 -1.3427013888884124e-07 8.1253191596894653e-08
10 -5.1388330079212982e-08 -1.3430200250558204e-07 8.1198862155414453e-08
37 -5.1327774155641876e-08 -1.3421713933553317e-07 8.1054622435811420e-08
39 -4.7198802209409918e-08 -1.3294880018231344e-07 7.7364477077307824e-08
90 -4.7200104767576611e-08 -1.3293411336500484e-07 7.7356646138647272e-08
48 -4.7188998315252308e-08 -1.3288006225193719e-07 7.7352214334246439e-08
91 -4.7317309530996142e-08 -1.3007028789798921e-07 7.7354682747784500e-08
36 -4.6826248839121214e-08 -1.3097347818779311e-07 7.8250935934480622e-08
70 -4.7728510502165375e-08 -1.3099437719021454e-07 7.7720653240119663e-08
42 -4.7897842149932083e-08 -1.2975684480600903e-07 7.4561414103334997e-08
44 -4.7735978029920543e-08 -1.3075587119833665e-07 7.7473904561312288e-08
