LAMMPS data file via write_data, version 30 Jul 2016, timestep = 600000

2080 atoms
8 atom types

0.0000000000000000e+00 4.0000000000000000e+01 xlo xhi
0.0000000000000000e+00 4.0000000000000000e+01 ylo yhi
0.0000000000000000e+00 1.0000000000000000e+02 zlo zhi

Masses

1 3.896
2 10.72
3 1058.08
4 8.378
5 8.378
6 8.378
7 8.378
8 8.378

Atoms # meso-molecular

1 2 4 2.2559723595316457e+00 9.9839104683711022e-01 4.2000000000000000e+03 0.0000000000000000e+00 0.0000000000000000e+00 2.5000000000000000e+00 
2 2 4 2.2559723595316457e+00 9.9821227247765520e-01 4.2000000000000000e+03 0.0000000000000000e+00 2.0000000000000000e+00 2.5000000000000000e+00 
21 2 4 2.2559723595460719e+00 1.0019949739502594e+00 4.2000000000000000e+03 2.0000000000000000e+00 0.0000000000000000e+00 2.5000000000000000e+00 
22 2 4 2.2559723595316457e+00 9.9980464902204025e-01 4.2000000000000000e+03 2.0000000000000000e+00 2.0000000000000000e+00 2.5000000000000000e+00 
41 2 4 2.2559723595316457e+00 9.8733511467472912e-01 4.2000000000000000e+03 4.0000000000000000e+00 0.0000000000000000e+00 2.5000000000000000e+00 
42 2 4 2.2559723595316457e+00 9.9999501596771723e-01 4.2000000000000000e+03 4.0000000000000000e+00 2.0000000000000000e+00 2.5000000000000000e+00 
61 2 4 2.2559723595316457e+00 9.9958090106568787e-01 4.2000000000000000e+03 6.0000000000000000e+00 0.0000000000000000e+00 2.5000000000000000e+00 
62 2 4 2.2559723595400976e+00 9.9995854570866394e-01 4.2000000000000000e+03 6.0000000000000000e+00 2.0000000000000000e+00 2.5000000000000000e+00 
81 2 4 2.2559723595316457e+00 1.0000107478662379e+00 4.2000000000000000e+03 8.0000000000000000e+00 0.0000000000000000e+00 2.5000000000000000e+00 
82 2 4 2.2559723595593257e+00 9.9920452789809999e-01 4.2000000000000000e+03 8.0000000000000000e+00 2.0000000000000000e+00 2.5000000000000000e+00 
101 2 4 2.2559723595316457e+00 9.8812490866041702e-01 4.2000000000000000e+03 1.0000000000000000e+01 0.0000000000000000e+00 2.5000000000000000e+00 
102 2 4 2.2559723596729726e+00 9.9888129191883901e-01 4.2000000000000000e+03 1.0000000000000000e+01 2.0000000000000000e+00 2.5000000000000000e+00 
121 2 4 2.2559723595316457e+00 9.9592200796104824e-01 4.2000000000000000e+03 1.2000000000000000e+01 0.0000000000000000e+00 2.5000000000000000e+00 
122 2 4 2.2559723595316457e+00 9.9831442566540440e-01 4.2000000000000000e+03 1.2000000000000000e+01 2.0000000000000000e+00 2.5000000000000000e+00 
141 2 4 2.2559723599244856e+00 1.0043116224819266e+00 4.2000000000000000e+03 1.4000000000000000e+01 0.0000000000000000e+00 2.5000000000000000e+00 
142 2 4 2.2559723595316457e+00 9.7825058507279816e-01 4.2000000000000000e+03 1.4000000000000000e+01 2.0000000000000000e+00 2.5000000000000000e+00 
161 2 4 2.2559723595316457e+00 9.9552618339933940e-01 4.2000000000000000e+03 1.6000000000000000e+01 0.0000000000000000e+00 2.5000000000000000e+00 
162 2 4 2.2559723595316457e+00 9.8703638535183069e-01 4.2000000000000000e+03 1.6000000000000000e+01 2.0000000000000000e+00 2.5000000000000000e+00 
181 2 4 2.2559723596895314e+00 1.0047653255397182e+00 4.2000000000000000e+03 1.8000000000000000e+01 0.0000000000000000e+00 2.5000000000000000e+00 
182 2 4 2.2559723595316457e+00 1.0000261435924558e+00 4.2000000000000000e+03 1.8000000000000000e+01 2.0000000000000000e+00 2.5000000000000000e+00 
3 2 4 2.2559723595316465e+00 1.0000066155619394e+00 4.2000000000000000e+03 0.0000000000000000e+00 4.0000000000000000e+00 2.5000000000000000e+00 
4 2 4 2.2559723595316457e+00 1.0000000000000000e+00 4.2000000000000000e+03 0.0000000000000000e+00 6.0000000000000000e+00 2.5000000000000000e+00 
23 2 4 2.2559723595316501e+00 1.0000123198404942e+00 4.2000000000000000e+03 2.0000000000000000e+00 4.0000000000000000e+00 2.5000000000000000e+00 
24 2 4 2.2559723595316457e+00 1.0000397583760092e+00 4.2000000000000000e+03 2.0000000000000000e+00 6.0000000000000000e+00 2.5000000000000000e+00 
43 2 4 2.2559723595316457e+00 1.0000009495215818e+00 4.2000000000000000e+03 4.0000000000000000e+00 4.0000000000000000e+00 2.5000000000000000e+00 
44 2 4 2.2559723595316457e+00 1.0000000000000000e+00 4.2000000000000000e+03 4.0000000000000000e+00 6.0000000000000000e+00 2.5000000000000000e+00 
63 2 4 2.2559723595328163e+00 1.0002278050246931e+00 4.2000000000000000e+03 6.0000000000000000e+00 4.0000000000000000e+00 2.5000000000000000e+00 
64 2 4 2.2559723595316457e+00 9.9998663581285285e-01 4.2000000000000000e+03 6.0000000000000000e+00 6.0000000000000000e+00 2.5000000000000000e+00 
83 2 4 2.2559723595316457e+00 1.0042939915758089e+00 4.2000000000000000e+03 8.0000000000000000e+00 4.0000000000000000e+00 2.5000000000000000e+00 
84 2 4 2.2559723595316457e+00 1.0000291134022614e+00 4.2000000000000000e+03 8.0000000000000000e+00 6.0000000000000000e+00 2.5000000000000000e+00 
103 2 4 2.2559723595316457e+00 1.0000110060499807e+00 4.2000000000000000e+03 1.0000000000000000e+01 4.0000000000000000e+00 2.5000000000000000e+00 
104 2 4 2.2559723595316457e+00 1.0000459377971578e+00 4.2000000000000000e+03 1.0000000000000000e+01 6.0000000000000000e+00 2.5000000000000000e+00 
123 2 4 2.2559723595316457e+00 9.8876041929123881e-01 4.2000000000000000e+03 1.2000000000000000e+01 4.0000000000000000e+00 2.5000000000000000e+00 
124 2 4 2.2559723595686934e+00 1.0015945799522341e+00 4.2000000000000000e+03 1.2000000000000000e+01 6.0000000000000000e+00 2.5000000000000000e+00 
143 2 4 2.2559723595316457e+00 9.7753423955274232e-01 4.2000000000000000e+03 1.4000000000000000e+01 4.0000000000000000e+00 2.5000000000000000e+00 
144 2 4 2.2559723595316457e+00 1.0000148998485641e+00 4.2000000000000000e+03 1.4000000000000000e+01 6.0000000000000000e+00 2.5000000000000000e+00 
163 2 4 2.2559723599522563e+00 1.0082112005627610e+00 4.2000000000000000e+03 1.6000000000000000e+01 4.0000000000000000e+00 2.5000000000000000e+00 
164 2 4 2.2559723595316457e+00 1.0000010031537463e+00 4.2000000000000000e+03 1.6000000000000000e+01 6.0000000000000000e+00 2.5000000000000000e+00 
183 2 4 2.2559723595316457e+00 9.9997184246184800e-01 4.2000000000000000e+03 1.8000000000000000e+01 4.0000000000000000e+00 2.5000000000000000e+00 
184 2 4 2.2559723595316457e+00 1.0000101840739948e+00 4.2000000000000000e+03 1.8000000000000000e+01 6.0000000000000000e+00 2.5000000000000000e+00 
5 2 4 2.2559723595316457e+00 1.0000094675568227e+00 4.2000000000000000e+03 0.0000000000000000e+00 8.0000000000000000e+00 2.5000000000000000e+00 
6 2 4 2.2559723595401384e+00 1.0004102975968818e+00 4.2000000000000000e+03 0.0000000000000000e+00 1.0000000000000000e+01 2.5000000000000000e+00 
25 2 4 2.2559723595353169e+00 1.0002127142038870e+00 4.2000000000000000e+03 2.0000000000000000e+00 8.0000000000000000e+00 2.5000000000000000e+00 
26 2 4 2.2559723595316492e+00 1.0000007985386399e+00 4.2000000000000000e+03 2.0000000000000000e+00 1.0000000000000000e+01 2.5000000000000000e+00 
45 2 4 2.2559723595316457e+00 9.9999871354956915e-01 4.2000000000000000e+03 4.0000000000000000e+00 8.0000000000000000e+00 2.5000000000000000e+00 
46 2 4 2.2559723595316457e+00 1.0000000000000000e+00 4.2000000000000000e+03 4.0000000000000000e+00 1.0000000000000000e+01 2.5000000000000000e+00 
65 2 4 2.2559723595316457e+00 1.0000071341411250e+00 4.2000000000000000e+03 6.0000000000000000e+00 8.0000000000000000e+00 2.5000000000000000e+00 
66 2 4 2.2559723595320622e+00 1.0000427438900326e+00 4.2000000000000000e+03 6.0000000000000000e+00 1.0000000000000000e+01 2.5000000000000000e+00 
85 2 4 2.2559723595316457e+00 1.0000022302654119e+00 4.2000000000000000e+03 8.0000000000000000e+00 8.0000000000000000e+00 2.5000000000000000e+00 
86 2 4 2.2559723595316457e+00 1.0000002486704076e+00 4.2000000000000000e+03 8.0000000000000000e+00 1.0000000000000000e+01 2.5000000000000000e+00 
105 2 4 2.2559723595987551e+00 1.0024867295492956e+00 4.2000000000000000e+03 1.0000000000000000e+01 8.0000000000000000e+00 2.5000000000000000e+00 
106 2 4 2.2559723595316457e+00 1.0000000000000000e+00 4.2000000000000000e+03 1.0000000000000000e+01 1.0000000000000000e+01 2.5000000000000000e+00 
125 2 4 2.2559723595316457e+00 1.0000069947162493e+00 4.2000000000000000e+03 1.2000000000000000e+01 8.0000000000000000e+00 2.5000000000000000e+00 
126 2 4 2.2559723595623047e+00 1.0010660774725322e+00 4.2000000000000000e+03 1.2000000000000000e+01 1.0000000000000000e+01 2.5000000000000000e+00 
145 2 4 2.2559723595316457e+00 -1.5415033837521705e+02 4.2000000000000000e+03 1.4000000000000000e+01 8.0000000000000000e+00 2.5000000000000000e+00 
146 2 4 2.2559723596327306e+00 -7.3101550660205874e+02 4.2000000000000000e+03 1.4000000000000000e+01 1.0000000000000000e+01 2.5000000000000000e+00 
165 2 4 2.2559723595316457e+00 -7.3001538603900315e+02 4.2000000000000000e+03 1.6000000000000000e+01 8.0000000000000000e+00 2.5000000000000000e+00 
166 2 4 2.2559723595316457e+00 -2.8126640939144986e+03 4.2000000000000000e+03 1.6000000000000000e+01 1.0000000000000000e+01 2.5000000000000000e+00 
185 2 4 2.2559723596428189e+00 -9.0775187162833402e+02 4.2000000000000000e+03 1.8000000000000000e+01 8.0000000000000000e+00 2.5000000000000000e+00 
186 2 4 2.2559723595316457e+00 -3.6340449815093639e+03 4.2000000000000000e+03 1.8000000000000000e+01 1.0000000000000000e+01 2.5000000000000000e+00 
7 2 4 2.2559723595316457e+00 1.0000000000000000e+00 4.2000000000000000e+03 0.0000000000000000e+00 1.2000000000000000e+01 2.5000000000000000e+00 
8 2 4 2.2559723595316457e+00 9.9995519818735001e-01 4.2000000000000000e+03 0.0000000000000000e+00 1.4000000000000000e+01 2.5000000000000000e+00 
27 2 4 2.2559723595316457e+00 1.0000000000000000e+00 4.2000000000000000e+03 2.0000000000000000e+00 1.2000000000000000e+01 2.5000000000000000e+00 
28 2 4 2.2559723595316457e+00 1.0000537216019598e+00 4.2000000000000000e+03 2.0000000000000000e+00 1.4000000000000000e+01 2.5000000000000000e+00 
47 2 4 2.2559723595316457e+00 1.0000000000000000e+00 4.2000000000000000e+03 4.0000000000000000e+00 1.2000000000000000e+01 2.5000000000000000e+00 
48 2 4 2.2559723595316457e+00 1.0000000000000000e+00 4.2000000000000000e+03 4.0000000000000000e+00 1.4000000000000000e+01 2.5000000000000000e+00 
67 2 4 2.2559723595316457e+00 1.0000000000000000e+00 4.2000000000000000e+03 6.0000000000000000e+00 1.2000000000000000e+01 2.5000000000000000e+00 
68 2 4 2.2559723595316457e+00 1.0000000000000000e+00 4.2000000000000000e+03 6.0000000000000000e+00 1.4000000000000000e+01 2.5000000000000000e+00 
87 2 4 2.2559723595316457e+00 1.0000000000000000e+00 4.2000000000000000e+03 8.0000000000000000e+00 1.2000000000000000e+01 2.5000000000000000e+00 
88 2 4 2.2559723595316457e+00 1.0000000000000000e+00 4.2000000000000000e+03 8.0000000000000000e+00 1.4000000000000000e+01 2.5000000000000000e+00 
107 2 4 2.2559723595316457e+00 1.0000000000000000e+00 4.2000000000000000e+03 1.0000000000000000e+01 1.2000000000000000e+01 2.5000000000000000e+00 
108 2 4 2.2559723595316457e+00 1.0000000000000000e+00 4.2000000000000000e+03 1.0000000000000000e+01 1.4000000000000000e+01 2.5000000000000000e+00 
127 2 4 2.2559723595322376e+00 1.0000505949592504e+00 4.2000000000000000e+03 1.2000000000000000e+01 1.2000000000000000e+01 2.5000000000000000e+00 
128 2 4 2.2559723595316457e+00 1.0000002978500886e+00 4.2000000000000000e+03 1.2000000000000000e+01 1.4000000000000000e+01 2.5000000000000000e+00 
147 2 4 2.2559723595316457e+00 -9.0859102273033659e+02 4.2000000000000000e+03 1.4000000000000000e+01 1.2000000000000000e+01 2.5000000000000000e+00 
148 2 4 2.2559723595316457e+00 -9.1494996384930084e+02 4.2000000000000000e+03 1.4000000000000000e+01 1.4000000000000000e+01 2.5000000000000000e+00 
167 2 4 2.2559723595316457e+00 -3.6341692154664570e+03 4.2000000000000000e+03 1.6000000000000000e+01 1.2000000000000000e+01 2.5000000000000000e+00 
168 2 4 2.2559723595316474e+00 -3.6587374707376193e+03 4.2000000000000000e+03 1.6000000000000000e+01 1.4000000000000000e+01 2.5000000000000000e+00 
187 2 4 2.2559723595316457e+00 -4.6514778262344089e+03 4.2000000000000000e+03 1.8000000000000000e+01 1.2000000000000000e+01 2.5000000000000000e+00 
188 2 4 2.2559723595354866e+00 -4.6725768488366475e+03 4.2000000000000000e+03 1.8000000000000000e+01 1.4000000000000000e+01 2.5000000000000000e+00 
9 2 4 2.2559723595316457e+00 1.0001107204014970e+00 4.2000000000000000e+03 0.0000000000000000e+00 1.6000000000000000e+01 2.5000000000000000e+00 
10 2 4 2.2559723595316457e+00 1.0000078730470467e+00 4.2000000000000000e+03 0.0000000000000000e+00 1.8000000000000000e+01 2.5000000000000000e+00 
29 2 4 2.2559723595316457e+00 1.0000000000000000e+00 4.2000000000000000e+03 2.0000000000000000e+00 1.6000000000000000e+01 2.5000000000000000e+00 
30 2 4 2.2559723595316457e+00 9.9746160996535860e-01 4.2000000000000000e+03 2.0000000000000000e+00 1.8000000000000000e+01 2.5000000000000000e+00 
49 2 4 2.2559723595316457e+00 1.0000000000000000e+00 4.2000000000000000e+03 4.0000000000000000e+00 1.6000000000000000e+01 2.5000000000000000e+00 
50 2 4 2.2559723595316457e+00 9.9901126498645532e-01 4.2000000000000000e+03 4.0000000000000000e+00 1.8000000000000000e+01 2.5000000000000000e+00 
69 2 4 2.2559723595316457e+00 1.0000000000000000e+00 4.2000000000000000e+03 6.0000000000000000e+00 1.6000000000000000e+01 2.5000000000000000e+00 
70 2 4 2.2559723595316457e+00 9.9806953473508586e-01 4.2000000000000000e+03 6.0000000000000000e+00 1.8000000000000000e+01 2.5000000000000000e+00 
89 2 4 2.2559723595316457e+00 1.0000000000000000e+00 4.2000000000000000e+03 8.0000000000000000e+00 1.6000000000000000e+01 2.5000000000000000e+00 
90 2 4 2.2559723595316457e+00 9.9999341067804282e-01 4.2000000000000000e+03 8.0000000000000000e+00 1.8000000000000000e+01 2.5000000000000000e+00 
109 2 4 2.2559723595316457e+00 1.0000000000000000e+00 4.2000000000000000e+03 1.0000000000000000e+01 1.6000000000000000e+01 2.5000000000000000e+00 
110 2 4 2.2559723595316457e+00 1.0000000000000000e+00 4.2000000000000000e+03 1.0000000000000000e+01 1.8000000000000000e+01 2.5000000000000000e+00 
129 2 4 2.2559723595362375e+00 1.0003066196962946e+00 4.2000000000000000e+03 1.2000000000000000e+01 1.6000000000000000e+01 2.5000000000000000e+00 
130 2 4 2.2559723595316457e+00 9.9999955965051768e-01 4.2000000000000000e+03 1.2000000000000000e+01 1.8000000000000000e+01 2.5000000000000000e+00 
149 2 4 2.2559723595316457e+00 -9.1577084128668503e+02 4.2000000000000000e+03 1.4000000000000000e+01 1.6000000000000000e+01 2.5000000000000000e+00 
150 2 4 2.2559723595404351e+00 -9.1572028238765563e+02 4.2000000000000000e+03 1.4000000000000000e+01 1.8000000000000000e+01 2.5000000000000000e+00 
169 2 4 2.2559723595316457e+00 -3.6602766781369419e+03 4.2000000000000000e+03 1.6000000000000000e+01 1.6000000000000000e+01 2.5000000000000000e+00 
170 2 4 2.2559723595316457e+00 -3.6594404654267109e+03 4.2000000000000000e+03 1.6000000000000000e+01 1.8000000000000000e+01 2.5000000000000000e+00 
189 2 4 2.2559723595316457e+00 -4.6727440288071475e+03 4.2000000000000000e+03 1.8000000000000000e+01 1.6000000000000000e+01 2.5000000000000000e+00 
190 2 4 2.2559723595316457e+00 -4.6736898231602845e+03 4.2000000000000000e+03 1.8000000000000000e+01 1.8000000000000000e+01 2.5000000000000000e+00 
1863 1465 2 1.0280010419475314e+00 -4.3291715263163660e+03 4.2000000000000000e+03 1.6744357247398913e+01 9.4436030156090789e-01 7.0685494144324863e+01 
706 308 2 1.0280011148739072e+00 -3.3850685574530339e+03 4.2000000000000000e+03 1.6341596011339416e+01 3.7822295049397531e-01 7.0584527388715372e+01 
651 253 2 1.0280001091259117e+00 -7.2022268255481060e+02 4.2000000000000000e+03 1.9079800063384148e+01 1.3445524938182771e+00 7.0178058766728952e+01 
650 252 2 1.0280000608332258e+00 -7.2022269894588192e+02 4.2000000000000000e+03 1.8918449713293416e+01 1.3444866488296803e+00 7.0178193523911162e+01 
958 560 2 1.0279991311227201e+00 -4.9082977336872918e+03 4.2000000000000000e+03 1.9001289051652208e+01 9.6572323143822691e-01 6.9820254646957565e+01 
959 561 2 1.0279991299634055e+00 -4.9082977271353511e+03 4.2000000000000000e+03 1.8997152749911493e+01 9.6572245348630037e-01 6.9820257920391740e+01 
874 476 2 1.0279946107426745e+00 -3.8532946616541249e+03 4.2000000000000000e+03 1.5714397074866426e+01 4.0895869264243639e-01 7.4313655332001261e+01 
639 241 2 1.0280025796347199e+00 -2.1356861815764373e+03 4.2000000000000000e+03 1.7726626803428278e+01 1.6472986640395832e+00 7.1230622866432611e+01 
653 255 2 1.0280005580653579e+00 1.3537691329873692e+03 4.2000000000000000e+03 1.6150007517342129e+01 8.3048409687554503e-01 7.1604796286085701e+01 
599 201 2 1.0280069756476755e+00 -2.9940249529309799e+03 4.2000000000000000e+03 1.7296301368478186e+01 1.0995635564150563e+00 7.3846050971549857e+01 
1065 667 2 1.0280070371831556e+00 4.7444400207327080e+03 4.2000000000000000e+03 1.7086251223919263e+01 1.1177146242545961e+00 7.3848672950647000e+01 
575 177 2 1.0280066436596604e+00 1.4096750453370043e+03 4.2000000000000000e+03 1.7121412051691756e+01 1.0902800126831051e+00 7.3916103809961569e+01 
604 206 2 1.0280054467157971e+00 -8.1077808211170918e+02 4.2000000000000000e+03 1.6924180758449662e+01 1.0301860900523854e+00 7.4107729759269873e+01 
764 366 2 1.0280148230630495e+00 3.2178549741390434e+03 4.2000000000000000e+03 1.5738002776917854e+01 5.9178163213609725e-01 7.6540197258642905e+01 
1235 837 2 1.0280029714271965e+00 -2.1941623265341082e+03 4.2000000000000000e+03 1.6513494229551149e+01 7.2168507812292415e-01 7.5230981445100227e+01 
714 316 2 1.0280353262465824e+00 -1.0319435350734193e+03 4.2000000000000000e+03 1.6030501133614003e+01 1.2625433832217754e+00 7.7728616016741753e+01 
2048 1650 2 1.0280344013393006e+00 2.8504266441656723e+03 4.2000000000000000e+03 1.6240426870291088e+01 8.5137748554130155e-01 7.6805792340190564e+01 
489 91 2 1.0279631043175199e+00 1.6601177444778380e+03 4.2000000000000000e+03 1.9085764310400872e+01 4.1707996601766589e-01 7.8970894208480146e+01 
492 94 2 1.0279638384752534e+00 1.6601171727757101e+03 4.2000000000000000e+03 1.8910563931768422e+01 4.1599709294264492e-01 7.8969376805822762e+01 
504 106 2 1.0280176063261950e+00 2.5696770044074688e+03 4.2000000000000000e+03 1.6915775161065152e+01 2.7381381022582745e+00 7.9063292542395814e+01 
1458 1060 2 1.0280165084235944e+00 -3.9117091131558377e+03 4.2000000000000000e+03 1.5428620707312476e+01 1.5206700106765829e+00 8.0186751548572943e+01 
785 387 2 1.0280135213624730e+00 9.7510157142461514e+02 4.2000000000000000e+03 1.5793416471393641e+01 2.1168764010211967e+00 8.0164323333768579e+01 
904 506 2 1.0280413400497221e+00 2.4040517024167348e+03 4.2000000000000000e+03 1.5282007988008354e+01 1.7794072182518068e+00 8.2908670112217251e+01 
1797 1399 2 1.0280265252264504e+00 5.5261374156919578e+02 4.2000000000000000e+03 1.5149293154082738e+01 1.7354231582184461e+00 8.3020300715528975e+01 
516 118 2 1.0280061984113229e+00 2.4763243515730919e+03 4.2000000000000000e+03 1.8930133596927590e+01 3.8016982737285367e+00 7.9286679542533435e+01 
513 115 2 1.0280062754104635e+00 2.4763244903747168e+03 4.2000000000000000e+03 1.9061592778959231e+01 3.8017069842936673e+00 7.9286416374897343e+01 
1900 1502 2 1.0280149314356755e+00 -1.3118811886192721e+03 4.2000000000000000e+03 1.6172519774197188e+01 2.3822817088941015e+00 7.9480528254433452e+01 
647 249 2 1.0279165431163784e+00 -1.9402612770011497e+03 4.2000000000000000e+03 1.8507087512665567e+01 2.6570174179998490e-01 7.9662134105000561e+01 
646 248 2 1.0279153070604599e+00 -1.9402570470683984e+03 4.2000000000000000e+03 1.9484443818440493e+01 2.7643437269256876e-01 7.9656779769232656e+01 
735 337 2 1.0280132478352104e+00 -1.0188299855595772e+03 4.2000000000000000e+03 1.6396159162916145e+01 2.8239227229058774e+00 8.1026058174860509e+01 
663 265 2 1.0280304625804901e+00 -1.0836476894445536e+03 4.2000000000000000e+03 1.9013468509308485e+01 3.4960802397998503e+00 8.1527233644462896e+01 
662 264 2 1.0280304405786109e+00 -1.0836477676201753e+03 4.2000000000000000e+03 1.8975554792031414e+01 3.4959307177218282e+00 8.1527325117946290e+01 
2075 1677 2 1.0280010370034889e+00 1.0233328577409334e+03 4.2000000000000000e+03 1.9925833282480895e+01 4.0186584574947304e+00 8.0079297748289747e+01 
2074 1676 2 1.0280004420397855e+00 1.0233303950489989e+03 4.2000000000000000e+03 1.8064402855040861e+01 4.0165962478173700e+00 8.0085486556850398e+01 
2034 1636 2 1.0280085567418562e+00 4.8182320703317610e+03 4.2000000000000000e+03 1.9208482807282046e+01 4.0421641902844536e+00 8.0913266859186280e+01 
2035 1637 2 1.0280085558715455e+00 4.8182313830369958e+03 4.2000000000000000e+03 1.8781106776962023e+01 4.0410000798971319e+00 8.0914668514004660e+01 
1807 1409 2 1.0279954164367509e+00 -3.3258220824533157e+02 4.2000000000000000e+03 1.4597617892509833e+01 1.6374816562274583e+00 8.3679523462584456e+01 
642 244 2 1.0279831904648422e+00 -3.2229991492797967e+03 4.2000000000000000e+03 1.4086812381533937e+01 1.7870733328303718e+00 8.4924449578308781e+01 
895 497 2 1.0280013284183211e+00 -5.6238566558787470e+03 4.2000000000000000e+03 1.4253572367519288e+01 3.9271354688218505e+00 8.5536252447063546e+01 
652 254 2 1.0279996462137972e+00 1.3588344918067473e+03 4.2000000000000000e+03 1.4158792589545365e+01 2.4424173397945883e+00 8.6315236123274317e+01 
773 375 2 1.0280486388037220e+00 1.8416480378483027e+03 4.2000000000000000e+03 1.6119179537729011e+01 2.5601590757259585e+00 8.3742184321217977e+01 
586 188 2 1.0280485211050328e+00 1.8853252648088187e+03 4.2000000000000000e+03 1.6124383648503912e+01 2.5710895989687308e+00 8.3761367703190501e+01 
480 82 2 1.0279611627983356e+00 3.0195482391262084e+02 4.2000000000000000e+03 1.7389735300809456e+01 2.3485340787233952e-02 8.4262102822806114e+01 
509 111 2 1.0279269746380222e+00 3.6887294914020881e+03 4.2000000000000000e+03 1.7826973028187265e+01 2.9136594360853230e+00 8.7147589264143249e+01 
658 260 2 1.0279901501233129e+00 -1.1005253089133189e+03 4.2000000000000000e+03 1.7556149738513103e+01 1.3727922585325431e-01 8.6174442479843492e+01 
2043 1645 2 1.0280038941519865e+00 4.4160273110873750e+03 4.2000000000000000e+03 1.4413058903587826e+01 4.0104009500682540e+00 8.5173446384485970e+01 
1740 1342 2 1.0280023948207899e+00 3.2726332664446008e+03 4.2000000000000000e+03 1.4342724717956704e+01 4.0601797109834799e+00 8.5401501362825968e+01 
419 21 2 1.0280031346092271e+00 2.3484458836984691e+03 4.2000000000000000e+03 1.4432599193079884e+01 4.1741550454817604e+00 8.5332045451220935e+01 
1905 1507 2 1.0279998979739691e+00 1.9892257081257355e+02 4.2000000000000000e+03 1.5048638669935293e+01 4.4996468052630112e+00 8.5055459538748082e+01 
679 281 2 1.0280297262806954e+00 6.2829843985212483e+02 4.2000000000000000e+03 1.4836176524613439e+01 4.7624302267948107e+00 8.7381875037321066e+01 
1870 1472 2 1.0280278287134759e+00 -2.2132602631395534e+03 4.2000000000000000e+03 1.4478340928511406e+01 6.4890999430393421e+00 8.6970095467072596e+01 
606 208 2 1.0280253412537146e+00 -2.0642451560583090e+03 4.2000000000000000e+03 1.4466134069180866e+01 6.5332062912551416e+00 8.6949440754019008e+01 
1945 1547 2 1.0280150350577713e+00 -1.4136863601671653e+03 4.2000000000000000e+03 1.8456970329445092e+01 5.8345286747816552e+00 8.5721395030530701e+01 
1948 1550 2 1.0280174949103096e+00 -1.4136884185538006e+03 4.2000000000000000e+03 1.9559359307300088e+01 5.8280155889829519e+00 8.5726097968843447e+01 
525 127 2 1.0280230088946314e+00 2.8684557147639107e+03 4.2000000000000000e+03 1.8719406099894425e+01 5.8618230736330839e+00 8.5739152844095386e+01 
528 130 2 1.0280244503080129e+00 2.8684547406285837e+03 4.2000000000000000e+03 1.9298108748208985e+01 5.8580420366499517e+00 8.5741838277298868e+01 
559 161 2 1.0280258309836721e+00 2.7390512609209804e+03 4.2000000000000000e+03 1.8943894593939259e+01 5.8909886821048296e+00 8.5769704933023732e+01 
558 160 2 1.0280261703958555e+00 2.7390510865785259e+03 4.2000000000000000e+03 1.9074168917130088e+01 5.8900310628082728e+00 8.5770328694078955e+01 
725 327 2 1.0280033504124979e+00 -6.0945164162424057e+01 4.2000000000000000e+03 1.8248421043301466e+01 5.9328781939838011e+00 8.5848031534743228e+01 
728 330 2 1.0280064183263182e+00 -6.0948137834652719e+01 4.2000000000000000e+03 1.9766834183151289e+01 5.9193854102520600e+00 8.5853531878929033e+01 
613 215 2 1.0279972019492336e+00 8.3409321909644814e+02 4.2000000000000000e+03 1.4414615324080721e+01 8.1354232672990232e+00 8.6743757110968801e+01 
1752 1354 2 1.0279881445216967e+00 -1.4559410483968638e+03 4.2000000000000000e+03 1.5133553636229962e+01 8.1426979995950681e+00 8.7132926454883247e+01 
1634 1236 2 1.0279979561793304e+00 -8.3697503642952358e+02 4.2000000000000000e+03 1.4335830708855084e+01 8.5504396983920792e+00 8.6856447871622223e+01 
412 14 2 1.0280000879497160e+00 -2.3848863617168996e+02 4.2000000000000000e+03 1.4212186799825840e+01 8.6854734192905063e+00 8.6889098657704182e+01 
1768 1370 2 1.0280067055408018e+00 3.6012409027363765e+03 4.2000000000000000e+03 1.4011117457045643e+01 9.2250670734665636e+00 8.7178587556401183e+01 
870 472 2 1.0280112059738169e+00 -2.0023549346167833e+03 4.2000000000000000e+03 1.3119160572767729e+01 9.2178755872641531e+00 8.7426939513934201e+01 
821 423 2 1.0280068848675286e+00 7.2451493374800543e+02 4.2000000000000000e+03 7.9962928763700392e-01 3.0147113171315318e+00 9.0967888029263378e+01 
1927 1529 2 1.0280110161170792e+00 4.7051886129351878e+03 4.2000000000000000e+03 1.7671795103760584e+00 2.5789829097692385e+00 9.1172255143677347e+01 
1466 1068 2 1.0280095815075996e+00 -5.0477781985362681e+03 4.2000000000000000e+03 1.9602535708753575e+00 2.2540007931311545e+00 9.1199873328652785e+01 
762 364 2 1.0280113400200674e+00 -2.8856927033919133e+03 4.2000000000000000e+03 2.5226264233882287e+00 1.5987541840678439e+00 9.1188171176770567e+01 
1982 1584 2 1.0279995565488897e+00 3.9021802496866521e+03 4.2000000000000000e+03 6.2584151149762235e+00 2.5001204918051836e+00 8.9477511077604873e+01 
1746 1348 2 1.0280037851494499e+00 -3.0302690539523514e+03 4.2000000000000000e+03 5.0156297883138699e+00 3.9970781183301916e+00 8.9691913446846172e+01 
767 369 2 1.0279958358412586e+00 -3.7891060125955200e+03 4.2000000000000000e+03 6.0390237050797904e+00 1.4658206329138239e+00 8.9984683894389391e+01 
1796 1398 2 1.0279922591724033e+00 5.9256518767156058e+02 4.2000000000000000e+03 6.2539181225996003e+00 1.1991489985823427e+00 9.0075781116257616e+01 
2006 1608 2 1.0280023212291232e+00 2.9134037092415720e+03 4.2000000000000000e+03 4.6001058702405109e+00 2.2411731909064945e+00 9.0071132467492390e+01 
1310 912 2 1.0280101517368478e+00 -4.1548987922312635e+03 4.2000000000000000e+03 4.5367805006259276e+00 3.2778186580013319e-01 9.1405493641095660e+01 
585 187 2 1.0279780631084801e+00 7.9328153628783111e+03 4.2000000000000000e+03 6.2632669661300593e+00 3.6405547976138175e-01 9.0478189898642313e+01 
1718 1320 2 1.0279931699164648e+00 -1.8723518117175236e+03 4.2000000000000000e+03 1.0250887880051950e+01 1.4022030139357220e+00 9.0251483601787484e+01 
1474 1076 2 1.0280014748855251e+00 -3.8218739495606837e+03 4.2000000000000000e+03 9.8327071922175460e+00 1.7810585544714603e+00 9.0398868006843088e+01 
1813 1415 2 1.0280096099622666e+00 4.0750535099150998e+03 4.2000000000000000e+03 9.2236929336810327e+00 3.6735408418484883e+00 9.0788260699571069e+01 
1703 1305 2 1.0280244575881219e+00 -3.4651530394868355e+03 4.2000000000000000e+03 9.3274044494345745e+00 2.4906082068162463e+00 9.0529911664101249e+01 
1442 1044 2 1.0280190009283579e+00 -3.4290434896399511e+03 4.2000000000000000e+03 9.1547585050521008e+00 3.1526694333548630e+00 9.0567107147505610e+01 
1892 1494 2 1.0279978078466891e+00 8.3601494089011351e+02 4.2000000000000000e+03 1.1216608952059858e+01 1.2175727138776862e+00 9.0116266440581683e+01 
801 403 2 1.0280329412351974e+00 1.1942659647402295e+03 4.2000000000000000e+03 1.5366021069801379e+01 1.3342693628880284e+00 8.8806371459147073e+01 
682 284 2 1.0279910388760671e+00 5.0756562741731869e+02 4.2000000000000000e+03 1.5914350788571760e+01 1.4534344061356883e+00 8.8817118872650411e+01 
994 596 2 1.0280998710612919e+00 -4.7072325663933279e+03 4.2000000000000000e+03 1.4927988042985337e+01 3.1843575185051298e+00 8.8959410569832002e+01 
1961 1563 2 1.0279550756218185e+00 1.5201411191691880e+03 4.2000000000000000e+03 1.3715022944447812e+01 3.9847843902638265e+00 9.0960423697724309e+01 
924 526 2 1.0280135670549067e+00 1.1822577528910829e+03 4.2000000000000000e+03 1.2620578679289917e+01 1.9125799920203790e+00 9.0303285448415494e+01 
685 287 2 1.0279690167708890e+00 1.4327494048279402e+03 4.2000000000000000e+03 1.2085217716211522e+01 2.6418868717015762e+00 9.1639654820933032e+01 
797 399 2 1.0280603168204188e+00 6.9039226750608782e+02 4.2000000000000000e+03 1.2882216289491259e+01 5.6999777638988625e-01 9.0101195491085903e+01 
455 57 2 1.0279702818990946e+00 3.5907158376346165e+03 4.2000000000000000e+03 1.6829488431232278e+01 2.0433257846169006e+00 8.7573598009672693e+01 
593 195 2 1.0279581746860773e+00 1.4382737783378036e+03 4.2000000000000000e+03 1.7618104189955609e+01 3.2612457101829331e+00 8.8650679306671890e+01 
1969 1571 2 1.0281664610280938e+00 2.8307153178839330e+03 4.2000000000000000e+03 1.7672994781036390e+01 2.8863698468815677e+00 8.8905325334881070e+01 
1979 1581 2 1.0279857893831132e+00 4.9045218981169546e+03 4.2000000000000000e+03 1.6499989127864072e+01 1.4597231707756482e+00 9.0667544980903656e+01 
1237 839 2 1.0279887710600817e+00 4.6582912142672421e+02 4.2000000000000000e+03 1.7652454574831264e+01 3.1816870516561453e+00 9.1421256707983900e+01 
1069 671 2 1.0279793777975079e+00 1.5674823719404772e+03 4.2000000000000000e+03 1.7534548575711451e+01 1.6084376593930727e+00 9.1575714633749499e+01 
937 539 2 1.0280015401041773e+00 4.3195398794745131e+02 4.2000000000000000e+03 8.2691763064225488e-01 7.0985717951686462e+00 9.1107394968374152e+01 
1461 1063 2 1.0280212993633673e+00 -2.5849937783770378e+02 4.2000000000000000e+03 1.6122454653221907e+00 4.9289779035191152e+00 9.1184699899427770e+01 
456 58 2 1.0280038270528424e+00 3.5323858101025126e+03 4.2000000000000000e+03 5.3297166261377184e-02 4.3467276990343819e+00 9.0370141467737696e+01 