LAMMPS data file via write_data, version 30 Jul 2016, timestep = 50000000

384 atoms
2 atom types

0.0000000000000000e+00 2.0000000000000000e+01 xlo xhi
0.0000000000000000e+00 2.0000000000000000e+01 ylo yhi
0.0000000000000000e+00 2.0000000000000000e+01 zlo zhi

Masses

1 3.89
2 8.38

Atoms # meso-molecular

157 1 2 2.0000000000000098e+00 -6.7087090010375846e+01 1.0000000000000000e+00 6.2416399460905838e+00 7.4678349082588120e+00 1.4971827514082458e+01 
166 1 2 1.9999999999999740e+00 2.0944893196885687e+01 1.0000000000000000e+00 6.5463924326682017e+00 8.6254921743055544e+00 1.6127845358399430e+01 
278 1 2 2.0000000000000115e+00 -8.6858865294671290e+01 1.0000000000000000e+00 6.1904746415697112e+00 7.5860338546580772e+00 1.4864269145083577e+01 
140 1 2 1.9999999999999973e+00 1.2459858664182715e+02 1.0000000000000000e+00 6.2056728183874963e+00 7.5297152043866582e+00 1.4552122689183996e+01 
33 1 2 2.0000000000000200e+00 -1.6050130555834045e+02 1.0000000000000000e+00 6.4827014479095491e+00 7.7530771638722538e+00 1.5670412129701301e+01 
229 1 2 2.0000000000000142e+00 2.4721519692354285e+01 1.0000000000000000e+00 6.5229680658989597e+00 7.3559843679184711e+00 1.5355257282460355e+01 
107 1 2 2.0000000000000275e+00 7.4297721753694191e+01 1.0000000000000000e+00 6.5446261466525861e+00 7.8468137071760209e+00 1.5779971928763674e+01 
280 1 2 1.9999999999999771e+00 -1.1175985136376252e+02 1.0000000000000000e+00 6.6418020888126046e+00 1.0878103157673451e+01 1.1947853447099885e+01 
119 1 2 1.9999999999999760e+00 -2.1885641747621513e+01 1.0000000000000000e+00 6.6610579987163980e+00 1.1172900476214862e+01 1.1854408548739391e+01 
98 1 2 1.9999999999999696e+00 7.0711510373507437e+01 1.0000000000000000e+00 6.6626064255928377e+00 1.0881031742812178e+01 1.2061006255982369e+01 
31 1 2 1.9999999999999685e+00 -2.2851731149937159e+01 1.0000000000000000e+00 6.6657989713790897e+00 1.0783053376143659e+01 1.2066699018180980e+01 
363 1 2 1.9999999999999925e+00 -4.4493887430475752e+01 1.0000000000000000e+00 8.5285891655601915e+00 9.7823683264983092e+00 6.1297563626530343e+00 
177 1 2 1.9999999999999807e+00 -2.2104586179483434e+02 1.0000000000000000e+00 8.5670296002104145e+00 9.8676116028129641e+00 6.1268761700200454e+00 
362 1 2 2.0000000000000071e+00 -1.9921608304722258e+02 1.0000000000000000e+00 8.3552777287695008e+00 9.3952581081511592e+00 6.1607519042648784e+00 
85 1 2 1.9999999999999991e+00 9.1197198027069390e+01 1.0000000000000000e+00 8.2747687355082071e+00 9.1021859588601028e+00 6.1900055286970561e+00 
7 1 2 2.0000000000000213e+00 1.1114134700615026e+02 1.0000000000000000e+00 8.1480246599827968e+00 8.7313285772068454e+00 6.2610531182286255e+00 
243 1 2 2.0000000000000115e+00 2.0247818434830695e+01 1.0000000000000000e+00 8.0912651698402041e+00 8.0540624052048635e+00 6.4531276157721633e+00 
271 1 2 2.0000000000000266e+00 -2.3653777581003999e+02 1.0000000000000000e+00 8.0227103612724573e+00 7.8764642931001658e+00 6.5460336444129510e+00 
101 1 2 2.0000000000000560e+00 -5.2703539246705688e+01 1.0000000000000000e+00 8.4730263541878212e+00 1.3945459095996351e+00 8.9847374020595492e+00 
289 1 2 2.0000000000000275e+00 -5.0283445279725122e+01 1.0000000000000000e+00 8.3760300343963561e+00 1.6524597638681742e+00 9.0413835555152406e+00 
118 1 2 2.0000000000000657e+00 -7.7862552796101028e+01 1.0000000000000000e+00 8.4550592028978837e+00 1.3414145273714984e+00 8.9874911437170706e+00 
273 1 2 1.9999999999999560e+00 -9.7287935855407383e+01 1.0000000000000000e+00 8.5704572532172669e+00 8.7240214871302146e-01 8.9457052583718948e+00 
219 1 2 2.0000000000000626e+00 -9.0358918684377585e+01 1.0000000000000000e+00 8.4229600311889730e+00 1.4493156969054672e+00 9.0061371388373406e+00 
78 1 2 1.9999999999999667e+00 2.0540456883145517e+01 1.0000000000000000e+00 8.7156679505619916e+00 6.3711380853556843e-01 8.9093031952837265e+00 
108 1 2 1.9999999999999982e+00 6.2872473425101688e+01 1.0000000000000000e+00 8.9486444104982521e+00 9.5779759680777166e-01 8.8887392889377423e+00 
375 1 2 1.9999999999999865e+00 -1.8827380967007207e+02 1.0000000000000000e+00 8.0824955012749857e+00 3.2033205894944570e+00 9.3040498811163470e+00 
335 1 2 1.9999999999999947e+00 1.9268082635707742e+02 1.0000000000000000e+00 8.7154759971772808e+00 4.4355473317903921e-01 8.9448506671012797e+00 
150 1 2 1.9999999999999898e+00 -1.0287270093115906e+02 1.0000000000000000e+00 8.9529805729443268e+00 1.0595962957831022e-01 8.9256276527262539e+00 
70 1 2 2.0000000000000768e+00 1.8559382365297381e+02 1.0000000000000000e+00 8.0477584635222481e+00 3.4089182049006439e+00 9.3006709055042478e+00 
174 1 2 2.0000000000000768e+00 2.8835327545346922e+02 1.0000000000000000e+00 7.9917942632424639e+00 3.7137801534448553e+00 9.2601404310045474e+00 
249 1 2 1.9999999999999656e+00 -5.9739653072441584e+01 1.0000000000000000e+00 7.7865583996545134e+00 4.0644179494581678e+00 9.1839544305514966e+00 
308 1 2 1.9999999999999853e+00 -1.5280308035018383e+01 1.0000000000000000e+00 7.9253013203959473e+00 4.3119090662037038e+00 9.0214524047077678e+00 
110 1 2 2.0000000000000195e+00 -4.3295181259288498e+01 1.0000000000000000e+00 7.8827575732143940e+00 5.3688496516263884e+00 8.2482807763870216e+00 
58 1 2 2.0000000000000018e+00 1.4560627044553297e+02 1.0000000000000000e+00 7.8632816909263097e+00 5.9311240790870086e+00 7.8883455026362590e+00 
281 1 2 2.0000000000000036e+00 -1.6715871623403791e+02 1.0000000000000000e+00 7.8444054713968692e+00 5.5691404828866071e+00 8.1221514390321445e+00 
143 1 2 2.0000000000000187e+00 -9.6848494637637472e+00 1.0000000000000000e+00 7.8673776824413952e+00 5.7180521668970510e+00 8.0213856988634333e+00 
92 1 2 2.0000000000000111e+00 1.5144707547304057e+02 1.0000000000000000e+00 7.8843677083195161e+00 5.6733925596182440e+00 8.0465706632140783e+00 
67 1 2 2.0000000000000213e+00 -1.4541532975595081e+02 1.0000000000000000e+00 8.2545825286541028e+00 4.7349214949900800e+00 8.9107378607426284e+00 
163 1 2 1.9999999999999840e+00 8.9276713181738955e+01 1.0000000000000000e+00 7.5355046737815616e+00 4.4872270348304992e+00 9.1379765645302449e+00 
322 1 2 2.0000000000000684e+00 2.8785366942557613e+02 1.0000000000000000e+00 8.6088410896402401e+00 5.8687107209970248e+00 9.8898309473746941e+00 
180 1 2 2.0000000000000209e+00 2.2092897828238556e+01 1.0000000000000000e+00 7.9932066900963514e+00 6.9901967312409035e+00 7.1177157321305460e+00 
28 1 2 2.0000000000000284e+00 5.8775417526920492e+01 1.0000000000000000e+00 8.0298965995028269e+00 7.4531814284039983e+00 6.7796998389784680e+00 
252 1 2 2.0000000000000249e+00 5.5077916255774269e+01 1.0000000000000000e+00 7.9993135914927702e+00 7.5663298569490340e+00 6.7169198921734106e+00 
20 1 2 2.0000000000000226e+00 5.3429654526716178e+01 1.0000000000000000e+00 7.9794740424818826e+00 7.5693545950893348e+00 6.7210797883556666e+00 
187 1 2 2.0000000000000262e+00 4.3666055570392047e+01 1.0000000000000000e+00 7.9166675700812306e+00 7.6842218657737069e+00 6.6807057206369143e+00 
72 1 2 1.9999999999999998e+00 1.6995194963937297e+02 1.0000000000000000e+00 7.9263608318449155e+00 7.8600480474709125e+00 8.9351079162468583e+00 
6 1 2 1.9999999999998781e+00 1.9491255820641498e+00 1.0000000000000000e+00 8.6062055525310139e+00 8.2199013774991876e+00 9.2908454236098397e+00 
348 1 2 1.9999999999999456e+00 2.7323903709016285e+01 1.0000000000000000e+00 8.6418029926008479e+00 8.3978659601047561e+00 9.2761772400281437e+00 
91 1 2 2.0000000000000004e+00 1.7598039199946004e+02 1.0000000000000000e+00 8.4227651181513608e+00 9.0854095303375999e+00 8.9775547544082013e+00 
300 1 2 1.9999999999999174e+00 1.2899702705337918e+02 1.0000000000000000e+00 8.3981450452572979e+00 9.9587201013235820e+00 8.4694440805502893e+00 
210 1 2 1.9999999999999925e+00 -5.8311684814736772e+01 1.0000000000000000e+00 8.7472664420888702e+00 8.6630805228476024e+00 9.3108755220660360e+00 
134 1 2 1.9999999999999225e+00 2.3632530082661564e+01 1.0000000000000000e+00 8.4359039747438569e+00 7.6365959332495663e+00 9.4564554104130867e+00 
245 1 2 1.9999999999999625e+00 8.1810254548285229e+01 1.0000000000000000e+00 1.1442847438921749e+01 9.7495687449182746e+00 9.7462723065182875e+00 
350 1 2 1.9999999999999214e+00 -5.2498049412582937e+01 1.0000000000000000e+00 1.1096341519573224e+01 9.6421657969613630e+00 9.7640769716154043e+00 
266 1 2 1.9999999999999858e+00 -1.2882246243638724e+02 1.0000000000000000e+00 8.9144550968297054e+00 1.1086788292082339e+00 1.1555734153364158e+01 
77 1 2 1.9999999999999123e+00 -8.8880354110613325e+01 1.0000000000000000e+00 8.9140771352621311e+00 1.7372959633509328e+00 1.1729138648014661e+01 
288 1 2 1.9999999999999556e+00 -8.6077646132413633e+01 1.0000000000000000e+00 9.0886199731187638e+00 9.4176804869057384e-01 1.1385406853389293e+01 
295 1 2 1.9999999999999696e+00 8.4825409807870855e+01 1.0000000000000000e+00 9.2485800136578895e+00 7.3819345965955752e-01 1.1219126115614749e+01 
159 1 2 2.0000000000000471e+00 4.4806206445831009e+01 1.0000000000000000e+00 9.4954308810316945e+00 1.1948611675510750e+00 1.0881453011504155e+01 
125 1 2 2.0000000000000209e+00 -8.8667615838095870e+01 1.0000000000000000e+00 8.0808155969329754e+00 1.8022895350527564e+00 1.2254641179370381e+01 
80 1 2 2.0000000000000147e+00 1.5723014333935527e+02 1.0000000000000000e+00 7.9240137503156864e+00 1.8548640042407725e+00 1.2286651900741045e+01 
368 1 2 2.0000000000000027e+00 7.6978033138573011e+01 1.0000000000000000e+00 7.3908053553306052e+00 2.2564512248556077e+00 1.2312836134753251e+01 
24 1 2 1.9999999999999640e+00 -1.6574565338931478e+02 1.0000000000000000e+00 9.5259660272259996e+00 3.1843843068782907e-01 1.0954820269483346e+01 
57 1 2 1.9999999999999929e+00 6.0171898978562496e+01 1.0000000000000000e+00 7.2520876299478276e+00 2.8486977408823639e+00 1.2486667645832727e+01 
373 1 2 2.0000000000000266e+00 -1.8882981719505943e+02 1.0000000000000000e+00 7.6033009689700588e+00 2.3203743919685698e+00 1.2500474758362719e+01 
64 1 2 1.9999999999999842e+00 -1.3321889324454155e+01 1.0000000000000000e+00 7.2974762124823043e+00 2.7894549620269200e+00 1.2509735405914444e+01 
86 1 2 1.9999999999999376e+00 -1.0605440369419046e+02 1.0000000000000000e+00 7.2814047783068361e+00 2.9744427342216353e+00 1.2543589817707087e+01 
241 1 2 1.9999999999999865e+00 1.4868800160007252e+01 1.0000000000000000e+00 7.3090597323965927e+00 2.8637115891814373e+00 1.2540179960216156e+01 
379 1 2 1.9999999999999798e+00 -2.3061546683279667e+02 1.0000000000000000e+00 7.3320826790542997e+00 2.8081592591320734e+00 1.2542630652859989e+01 
326 1 2 1.9999999999999540e+00 9.7020918032775000e+01 1.0000000000000000e+00 7.2781888504420094e+00 3.1673058234024740e+00 1.2569340958247368e+01 
365 1 2 1.9999999999999434e+00 -1.6096348045265944e+02 1.0000000000000000e+00 7.2519533073007505e+00 3.7861456574262964e+00 1.2541540291987300e+01 
45 1 2 1.9999999999999500e+00 4.6092395624202837e+01 1.0000000000000000e+00 7.2590296253727535e+00 3.8152848439319786e+00 1.2543703015326683e+01 
164 1 2 2.0000000000000124e+00 1.9754019197355554e+01 1.0000000000000000e+00 7.4516058101504070e+00 5.7132721374184809e+00 1.1914840681122209e+01 
264 1 2 1.9999999999999287e+00 3.6920959902413713e+01 1.0000000000000000e+00 7.1810270201235271e+00 5.0778617415588618e+00 1.0159672187633625e+01 
341 1 2 2.0000000000000386e+00 -6.2651749104662727e+01 1.0000000000000000e+00 7.7113440198278118e+00 6.1277088998107159e+00 1.0839208780052994e+01 
259 1 2 1.9999999999999891e+00 -1.0148241256448046e+02 1.0000000000000000e+00 7.2677079380888001e+00 5.3900842643579256e+00 1.0593546999270787e+01 
136 1 2 2.0000000000000009e+00 -1.1199180718704508e+02 1.0000000000000000e+00 7.3915877388271829e+00 5.8585709364365206e+00 1.2349564301904826e+01 
370 1 2 2.0000000000000724e+00 4.5949886903157136e+01 1.0000000000000000e+00 7.7833915282926940e+00 6.1258180087774612e+00 1.1203328705901704e+01 
340 1 2 2.0000000000000884e+00 -2.9608364468832960e+01 1.0000000000000000e+00 7.9758320414344004e+00 6.4549692025088028e+00 1.1636426736684047e+01 
43 1 2 1.9999999999999947e+00 -1.5539878346345691e+02 1.0000000000000000e+00 7.9187893367294500e+00 5.6452612209232669e+00 1.2564438556961687e+01 
52 1 2 2.0000000000000031e+00 -1.4877278230020096e+02 1.0000000000000000e+00 7.1015761561132384e+00 9.5614131552659849e+00 1.2516929197603345e+01 
178 1 2 1.9999999999999878e+00 -4.3200862171791762e+01 1.0000000000000000e+00 8.8676271070054771e+00 7.0049942181914986e+00 1.2499413116620165e+01 
1 1 2 2.0000000000000511e+00 2.1084703036448610e+02 1.0000000000000000e+00 9.3399215950475494e+00 7.4550576328122178e+00 1.2485211707613404e+01 
301 1 2 2.0000000000000546e+00 -5.5868989663406452e+01 1.0000000000000000e+00 9.5112812969314753e+00 7.5411676455199919e+00 1.2654470846663141e+01 
349 1 2 2.0000000000000755e+00 -6.9523399494631462e+01 1.0000000000000000e+00 9.7957662674255879e+00 8.5977421892273487e+00 1.0984850332740479e+01 
331 1 2 2.0000000000001465e+00 -7.4674413259594914e+00 1.0000000000000000e+00 9.7980966748655796e+00 9.8122686830329542e+00 1.2814191142012270e+01 
22 1 2 2.0000000000000138e+00 -1.1201920341015744e+02 1.0000000000000000e+00 6.7858887119276119e+00 8.5871150745337328e+00 1.3291025607873715e+01 
127 1 2 1.9999999999998683e+00 -5.9265511672733979e+01 1.0000000000000000e+00 1.0317911075926142e+01 8.4584387575213125e+00 1.1426915742414424e+01 
152 1 2 1.9999999999999800e+00 -7.7198080416801353e+00 1.0000000000000000e+00 1.0692759165489885e+01 8.7133164914786931e+00 1.1093676613712503e+01 
367 1 2 1.9999999999999434e+00 2.0480898956264824e+00 1.0000000000000000e+00 1.0609132191545271e+01 8.6744735995234237e+00 1.1137003172996081e+01 
23 1 2 1.9999999999999347e+00 8.1168210269142406e+01 1.0000000000000000e+00 1.0779489929701363e+01 9.0516282478262511e+00 1.0504890021234011e+01 
148 1 2 2.0000000000000977e+00 1.2065368729680367e+02 1.0000000000000000e+00 1.1442955258904597e+01 9.4204903007917835e+00 1.0773602747040909e+01 
186 1 2 1.9999999999999634e+00 -2.5964662901397769e+01 1.0000000000000000e+00 1.2595226202117047e+01 7.1066917310079738e+00 1.2513767127712459e+01 
352 1 2 1.9999999999999913e+00 -1.4882771524070762e+02 1.0000000000000000e+00 1.1724891587319203e+01 9.6013764334080296e+00 1.0136239677712215e+01 
184 1 2 2.0000000000000018e+00 1.1841720204798929e+02 1.0000000000000000e+00 1.2952866574205123e+01 7.4432201390064678e+00 1.2146633449437678e+01 
17 1 2 1.9999999999999860e+00 -7.7162385282677368e+00 1.0000000000000000e+00 1.3071370928739576e+01 7.2246762715511128e+00 1.2338687695162275e+01 
314 1 2 1.9999999999999707e+00 -9.9897050592746780e+01 1.0000000000000000e+00 6.7913801353864098e+00 6.6582145385715323e+00 1.4416931066491514e+01 
201 1 2 1.9999999999999383e+00 2.0174098674015761e+02 1.0000000000000000e+00 6.8632505833177628e+00 6.5350104458157618e+00 1.4176349177514757e+01 
358 1 2 1.9999999999999434e+00 3.8352319615917246e+01 1.0000000000000000e+00 6.8347372488628046e+00 6.5906160022256035e+00 1.4295094397134443e+01 
10 1 2 1.9999999999999429e+00 2.1277878770258150e+02 1.0000000000000000e+00 6.8511785698857519e+00 6.6143694610243076e+00 1.4383991993738174e+01 
212 1 2 1.9999999999999905e+00 1.6293098782253267e+01 1.0000000000000000e+00 7.9265322141699732e+00 6.2546948829278861e+00 1.3587963887156786e+01 
90 1 2 2.0000000000000098e+00 -8.8119008772565230e+00 1.0000000000000000e+00 1.1983935002047826e+01 6.6123726435242265e+00 1.4151725714465616e+01 
236 1 2 2.0000000000000053e+00 9.1433967763534554e+00 1.0000000000000000e+00 7.3553143091639930e+00 7.1478222891427246e+00 1.5139696276063850e+01 
12 1 2 2.0000000000000107e+00 -1.1063249579198728e+02 1.0000000000000000e+00 6.8088747752442806e+00 8.9307133482037493e+00 1.3462766942291651e+01 
41 1 2 1.9999999999999640e+00 2.4200964912980805e+00 1.0000000000000000e+00 9.2150205321976077e+00 7.6280259877264394e+00 1.3777486574997814e+01 
235 1 2 1.9999999999999898e+00 -6.5937954043339204e+01 1.0000000000000000e+00 9.4130678382935589e+00 7.5964008709157333e+00 1.3529227799298164e+01 
42 1 2 2.0000000000000395e+00 -7.1286782015881329e+01 1.0000000000000000e+00 6.7295489395445376e+00 8.9612426471433348e+00 1.6443551059307016e+01 
383 1 2 2.0000000000000195e+00 4.2866316820553841e+01 1.0000000000000000e+00 6.7367879648976858e+00 9.0342648245019479e+00 1.6471367812054602e+01 
190 1 2 1.9999999999998932e+00 9.4745092845620206e+01 1.0000000000000000e+00 9.9216973475531383e+00 9.8625679087123110e+00 1.5053474496250441e+01 
321 1 2 2.0000000000000249e+00 -2.3977286273700251e+01 1.0000000000000000e+00 6.8118409793480978e+00 9.2602861703454344e+00 1.6649100808944731e+01 
290 1 2 2.0000000000000058e+00 -5.6417710749888826e+01 1.0000000000000000e+00 6.8160846455735333e+00 9.2685556368270738e+00 1.6659969513142858e+01 
327 1 2 2.0000000000000067e+00 -3.7460337539861300e+01 1.0000000000000000e+00 1.1222786733896994e+01 7.0974250091957662e+00 1.3813614328144217e+01 
203 1 2 1.9999999999999962e+00 6.6419716376763773e+01 1.0000000000000000e+00 1.1987223429831722e+01 7.4887934538537326e+00 1.5457289249597602e+01 
142 1 2 1.9999999999999702e+00 -1.0528003450405720e+02 1.0000000000000000e+00 1.2503766629588620e+01 7.4751544215769856e+00 1.5638306024989305e+01 
255 1 2 2.0000000000000293e+00 -1.1314690647299324e+02 1.0000000000000000e+00 1.2191850951087739e+01 7.2210122808034871e+00 1.5467603522624717e+01 
79 1 2 1.9999999999999869e+00 1.4920514664141319e+02 1.0000000000000000e+00 1.0767412419679184e+01 7.4343853191096070e+00 1.3870920004789212e+01 
146 1 2 2.0000000000000142e+00 5.7470310922470318e+01 1.0000000000000000e+00 1.1768002810198499e+01 6.8324819046159693e+00 1.4677319372408421e+01 
355 1 2 2.0000000000000169e+00 2.4171225109792253e+01 1.0000000000000000e+00 1.1580901009901837e+01 7.0263000898373749e+00 1.4751738996531081e+01 
222 1 2 1.9999999999999598e+00 -2.8295957483457656e+01 1.0000000000000000e+00 1.2581508403523445e+01 8.3952921388092374e+00 1.5333521676384542e+01 
247 1 2 2.0000000000000040e+00 6.2799278897980519e+00 1.0000000000000000e+00 1.2035323455337585e+01 8.9705950588028571e+00 1.5281259223682198e+01 
376 1 2 1.9999999999999865e+00 -1.6928205345334578e+02 1.0000000000000000e+00 1.2928643240280147e+01 7.2884225200704780e+00 1.5733884971295542e+01 
360 1 2 1.9999999999998621e+00 6.7265676733716373e-01 1.0000000000000000e+00 6.8936660923310997e+00 9.6486150051200692e+00 1.7091172339920988e+01 
75 1 2 2.0000000000000067e+00 -3.3596311321439245e+01 1.0000000000000000e+00 8.3559076959210046e+00 1.2343568907326022e+01 1.8718159299160384e+00 
170 1 2 2.0000000000000075e+00 -3.0918145989905369e+01 1.0000000000000000e+00 8.3257860109370174e+00 1.2378398039382157e+01 1.3722737738956545e+00 
366 1 2 2.0000000000000071e+00 -1.5431605861992244e+02 1.0000000000000000e+00 8.3204139028605688e+00 1.2378701542409670e+01 1.3697784909956765e+00 
132 1 2 2.0000000000000195e+00 4.1278203525283544e+01 1.0000000000000000e+00 8.6941214587202076e+00 1.2200433519498022e+01 2.4507412105830442e+00 
272 1 2 2.0000000000000075e+00 -1.1044709209500701e+02 1.0000000000000000e+00 8.2354335496422895e+00 1.2369222641866035e+01 1.2229304836974961e+00 
292 1 2 2.0000000000000084e+00 1.0689047391777255e+02 1.0000000000000000e+00 8.1803807700572388e+00 1.2356942191605196e+01 1.1277283547643964e+00 
220 1 2 2.0000000000000093e+00 -2.0068203728022155e+01 1.0000000000000000e+00 8.1634567849036728e+00 1.2345734051582829e+01 1.0170750874339942e+00 
126 1 2 2.0000000000000262e+00 -4.2907524424228939e+01 1.0000000000000000e+00 8.0554763500387008e+00 1.2194494805317984e+01 1.3926879724103947e+00 
65 1 2 2.0000000000000049e+00 9.9983365765487321e+01 1.0000000000000000e+00 8.1048473490747135e+00 1.2289317547930644e+01 6.9078649166559436e-01 
384 1 2 2.0000000000000013e+00 -1.3732581058038483e+02 1.0000000000000000e+00 7.9648386417073347e+00 1.2149759931352966e+01 2.0827332001089399e-01 
282 1 2 2.0000000000000018e+00 1.5994106120803929e+02 1.0000000000000000e+00 7.9361322838479449e+00 1.2125436970650254e+01 1.4371616753618666e-01 
218 1 2 1.9999999999999563e+00 -4.3171244218337435e+01 1.0000000000000000e+00 9.6556136425407040e+00 1.2588983749279564e+01 4.3679590904851935e+00 
268 1 2 1.9999999999999296e+00 -8.6170119114724031e+01 1.0000000000000000e+00 9.5539566223123504e+00 1.2517137755228234e+01 4.1974338518755081e+00 
55 1 2 1.9999999999999818e+00 -1.4139313162752668e+01 1.0000000000000000e+00 9.5472254711754463e+00 1.2480890977862273e+01 4.1443062703858331e+00 
175 1 2 1.9999999999995495e+00 7.6806656893389146e+01 1.0000000000000000e+00 9.9242318813873638e+00 1.2794131513153499e+01 5.8949506170944375e+00 
9 1 2 1.9999999999999640e+00 5.1486774621349866e+01 1.0000000000000000e+00 9.0187600439125344e+00 1.2178761994804004e+01 3.3700235441499715e+00 
144 1 2 1.9999999999999851e+00 -1.1073207408099253e+02 1.0000000000000000e+00 8.9443687142898618e+00 1.1982477874413513e+01 3.4850482356436183e+00 
46 1 2 1.9999999999999734e+00 -7.2618485128672404e+01 1.0000000000000000e+00 8.9719167098127652e+00 1.1810083912344854e+01 3.8599745576555011e+00 
111 1 2 2.0000000000000409e+00 -4.8587040686063176e+01 1.0000000000000000e+00 9.0082723487231924e+00 1.1697002417982514e+01 4.0957860514375284e+00 
343 1 2 2.0000000000000924e+00 -6.7847938218803336e+01 1.0000000000000000e+00 9.0366132960255108e+00 1.1630682189849011e+01 4.2262295455471639e+00 
59 1 2 2.0000000000001039e+00 -2.4097782545380490e+01 1.0000000000000000e+00 9.5575810972656150e+00 1.1353885902969036e+01 5.4411097572852745e+00 
68 1 2 2.0000000000001408e+00 -3.3329474310992111e+01 1.0000000000000000e+00 9.0605032697808703e+00 1.1317818108645541e+01 4.9696540783718230e+00 
103 1 2 1.9999999999999321e+00 2.9629644826746095e+01 1.0000000000000000e+00 9.0800215937340649e+00 1.1053529490860171e+01 5.6895132188301423e+00 
344 1 2 1.9999999999998757e+00 -2.4302085185448746e+01 1.0000000000000000e+00 8.4439295841236355e+00 1.0343686473121943e+01 6.6523231426018290e+00 
104 1 2 2.0000000000001119e+00 1.2635904893546544e+02 1.0000000000000000e+00 1.0161618106552652e+01 1.2456220640636909e+01 5.0696126966556552e+00 
275 1 2 2.0000000000004632e+00 7.3886419972864275e+01 1.0000000000000000e+00 1.0632010032025756e+01 1.3482307181420845e+01 6.0946928159634357e+00 
361 1 2 1.9999999999997831e+00 3.5486084307127243e+01 1.0000000000000000e+00 1.0625512922636714e+01 1.3932958693100442e+01 6.0276535890156655e+00 
369 1 2 1.9999999999999025e+00 -6.0471847472150504e+00 1.0000000000000000e+00 1.0963839754762738e+01 1.4046747033042861e+01 5.5427305242488751e+00 
73 1 2 1.9999999999999944e+00 -2.5079100063397256e+01 1.0000000000000000e+00 1.1477551566623880e+01 1.4318765126749369e+01 5.3066309345398812e+00 
4 1 2 1.9999999999999549e+00 -5.3159024854876250e+01 1.0000000000000000e+00 1.1614759479535216e+01 1.4592687915537422e+01 5.1548050083377630e+00 
319 1 2 1.9999999999999825e+00 2.7370008884398400e+00 1.0000000000000000e+00 1.2111568187313736e+01 1.4672751402248995e+01 5.0397459878932072e+00 
160 1 2 1.9999999999998930e+00 9.6254136514224683e+01 1.0000000000000000e+00 1.2773528053730166e+01 1.4807776522311590e+01 5.2328611129453213e+00 
53 1 2 1.9999999999999885e+00 -1.2024267634262753e+02 1.0000000000000000e+00 1.2784882587260496e+01 1.5201403486912222e+01 4.6032617692388760e+00 
189 1 2 1.9999999999999309e+00 3.8787058721564641e+01 1.0000000000000000e+00 1.2934998298842229e+01 1.5278369643578786e+01 4.5511499113699889e+00 
356 1 2 1.9999999999999902e+00 7.4827127190345792e+01 1.0000000000000000e+00 1.2617873196882314e+01 1.5798107567916967e+01 4.5127789281142086e+00 
115 1 2 1.9999999999999911e+00 2.3583988663047853e+02 1.0000000000000000e+00 1.2687673671127438e+01 1.5755220768996669e+01 4.4711643045661162e+00 
48 1 2 1.9999999999999878e+00 1.1670599989889318e+01 1.0000000000000000e+00 1.3149244630315769e+01 1.5447096597536389e+01 4.4503237704159888e+00 
18 1 2 2.0000000000000462e+00 -1.4652782218820806e+02 1.0000000000000000e+00 1.2322889853929052e+01 1.6302779513181253e+01 6.4549692297526562e+00 
359 1 2 2.0000000000001750e+00 9.3428264790336641e+01 1.0000000000000000e+00 1.2126491930444551e+01 1.6363518775902225e+01 6.6408747556501080e+00 
131 1 2 2.0000000000003295e+00 1.0920394692315332e+02 1.0000000000000000e+00 1.0846163302797136e+01 1.3462029865523125e+01 6.6189783163653777e+00 
216 1 2 1.9999999999998759e+00 1.9821455519174685e+02 1.0000000000000000e+00 9.5591050546348999e+00 1.1122853804718927e+01 8.5415691182576925e+00 
94 1 2 2.0000000000000173e+00 4.8459264588199069e+01 1.0000000000000000e+00 8.3932655226753088e+00 1.2276777183759151e+01 9.5568687364019436e+00 
169 1 2 2.0000000000003522e+00 -6.3126926873565480e+01 1.0000000000000000e+00 9.5934860370589927e+00 1.0512990813967074e+01 8.3403834434742432e+00 
269 1 2 2.0000000000001328e+00 6.8354313271829113e+01 1.0000000000000000e+00 8.8481972965014695e+00 1.0621473485106073e+01 7.7992514691083707e+00 
299 1 2 1.9999999999999776e+00 1.6250355602971598e+02 1.0000000000000000e+00 8.0913080204451120e+00 1.1949979469136341e+01 9.7616195296008907e+00 
263 1 2 1.9999999999998290e+00 -1.0236313953325208e+02 1.0000000000000000e+00 8.4919423326180254e+00 1.2963092447437916e+01 9.7520675807108397e+00 
230 1 2 1.9999999999999598e+00 2.9283122940331971e+01 1.0000000000000000e+00 8.2323232807702400e+00 1.0145058227621153e+01 7.4513103039223285e+00 
167 1 2 1.9999999999998876e+00 2.6660481766973149e+01 1.0000000000000000e+00 1.0239299218700658e+01 1.3206335237742326e+01 7.9856735610585652e+00 
8 1 2 1.9999999999999287e+00 -1.7636625476233189e+02 1.0000000000000000e+00 1.2722600608998162e+01 1.2693882849054296e+01 8.8705112150175420e+00 
88 1 2 2.0000000000000071e+00 2.2367832950739742e+02 1.0000000000000000e+00 1.2112707222303570e+01 1.0228591916686355e+01 9.3052706375312972e+00 
155 1 2 2.0000000000001750e+00 -1.0709059962588243e+02 1.0000000000000000e+00 1.0414859375994606e+01 1.1787067602647637e+01 8.4539694202243361e+00 
270 1 2 2.0000000000000147e+00 -1.3919512003434562e+02 1.0000000000000000e+00 1.2803358900845648e+01 1.0280345860188962e+01 9.6885230119020473e+00 
197 1 2 1.9999999999999634e+00 6.3322243624456405e+01 1.0000000000000000e+00 1.1074672489891167e+01 1.0335162942801944e+01 9.1516945132982297e+00 
267 1 2 2.0000000000001501e+00 -6.0279293260377763e+01 1.0000000000000000e+00 1.3002121249960124e+01 1.2641323891239242e+01 9.0731564582919990e+00 
47 1 2 1.9999999999998412e+00 8.3983092107453956e+01 1.0000000000000000e+00 1.3140034678685462e+01 1.2341345408898549e+01 8.7740152019634561e+00 
262 1 2 1.9999999999998688e+00 9.5879409667255487e+01 1.0000000000000000e+00 1.3150990336129050e+01 1.2444442183290604e+01 8.8764616533874872e+00 
100 1 2 1.9999999999999503e+00 5.6059220504493766e+01 1.0000000000000000e+00 1.3299225039820676e+01 1.2205757470150211e+01 8.8110863639696255e+00 
128 1 2 2.0000000000000160e+00 8.0842126930304090e+01 1.0000000000000000e+00 1.3311302197411264e+01 1.2024253490809187e+01 8.7533171454758527e+00 
123 1 2 1.9999999999997933e+00 3.0385772078838897e+01 1.0000000000000000e+00 9.9594499871777913e+00 1.3336250690308338e+01 8.3343114429704297e+00 
347 1 2 1.9999999999999432e+00 1.0674117281063275e+02 1.0000000000000000e+00 9.5381905481300606e+00 1.3867501750742754e+01 9.1169189810961395e+00 
277 1 2 1.9999999999999158e+00 -1.8512494735426117e+01 1.0000000000000000e+00 9.1625479825016587e+00 1.4006669370002172e+01 9.8395970661919776e+00 
324 1 2 1.9999999999998204e+00 -1.9318791043838871e+02 1.0000000000000000e+00 1.0497220713331915e+01 1.4392756904381166e+01 7.2596577351590108e+00 
38 1 2 2.0000000000000488e+00 -2.9149403132725382e+01 1.0000000000000000e+00 1.1713098641712008e+01 1.3961805538018210e+01 7.7948862517509747e+00 
71 1 2 1.9999999999997744e+00 1.6920851880592554e+02 1.0000000000000000e+00 1.0301331802335383e+01 1.4592596785326469e+01 8.1574437861869953e+00 
325 1 2 1.9999999999999845e+00 -6.9729762106961601e+01 1.0000000000000000e+00 1.1264325728528979e+01 1.5164316449261504e+01 8.9464755792774842e+00 
165 1 2 2.0000000000000178e+00 -1.0308581778824703e+02 1.0000000000000000e+00 1.1427485403313817e+01 1.6250485949947024e+01 9.1903085782140241e+00 
211 1 2 2.0000000000002225e+00 -1.7826299377571343e+02 1.0000000000000000e+00 1.2002387986618080e+01 1.6418103949221702e+01 6.7735043871643601e+00 
378 1 2 1.9999999999999389e+00 -1.3540587924796105e+02 1.0000000000000000e+00 1.1859633202509293e+01 1.6492122318435172e+01 6.8732107352379241e+00 
364 1 2 2.0000000000000764e+00 -2.7686804838359666e+02 1.0000000000000000e+00 1.0613615864928065e+01 1.5920835515745377e+01 9.8043949194821050e+00 
233 1 2 2.0000000000002074e+00 -2.5373865685376131e+01 1.0000000000000000e+00 1.0678508340599135e+01 1.5403011036724113e+01 9.7113820357489207e+00 
304 1 2 1.9999999999998890e+00 -2.1136170961997880e+01 1.0000000000000000e+00 9.0931198381849114e+00 1.9421001517610094e+01 9.3251064282773335e+00 
171 1 2 2.0000000000001967e+00 7.2554873780612553e+01 1.0000000000000000e+00 9.6165467198494312e+00 1.9012201354833277e+01 9.1303235227203707e+00 
209 1 2 2.0000000000002141e+00 -4.3890687124956770e+01 1.0000000000000000e+00 9.9571608178078908e+00 1.8544404254438472e+01 9.0768440755408992e+00 
16 1 2 1.9999999999999167e+00 -3.5712295185588985e+01 1.0000000000000000e+00 1.1510994435553691e+01 1.7189074492995811e+01 8.1022033918303844e+00 
11 1 2 1.9999999999998324e+00 -1.2033668175877466e+02 1.0000000000000000e+00 1.1183872246498382e+01 1.6737835108056892e+01 7.2246244425339299e+00 
195 1 2 1.9999999999999549e+00 -6.2980866164255556e+00 1.0000000000000000e+00 1.1725720216686133e+01 1.6726198454034922e+01 8.3404214784156174e+00 
202 1 2 2.0000000000000422e+00 -7.3773204191889032e+00 1.0000000000000000e+00 1.0180950473617168e+01 1.7919077520898846e+01 8.7135875567355079e+00 
330 1 2 1.9999999999998077e+00 1.4867418688897078e+02 1.0000000000000000e+00 1.1025882100977910e+01 1.7395735414424546e+01 7.9107705643889581e+00 
246 1 2 2.0000000000000027e+00 -2.9317681613817896e+01 1.0000000000000000e+00 1.0213985085995853e+01 1.7770467854160305e+01 8.5986232968256271e+00 