LAMMPS data file via write_data, version 30 Jul 2016, timestep = 100000000

79 atoms
2 atom types

0.0000000000000000e+00 2.0000000000000000e+01 xlo xhi
0.0000000000000000e+00 2.0000000000000000e+01 ylo yhi
0.0000000000000000e+00 2.0000000000000000e+01 zlo zhi

Masses

1 4.31
2 3.896

Atoms # meso-molecular

250 0 1 6.8774415317587634e-01 -3.2874196117527198e+01 1.0000000000000000e+00 2.0099593865744692e+00 1.6390392260613500e-02 1.2672211986172583e+00 
134 0 1 6.8774415317587634e-01 -3.2360036637638487e+01 1.0000000000000000e+00 2.0099593865745269e+00 1.6390392260615335e-02 1.2672211986171649e+00 
87 0 1 1.0278552401485432e+00 -1.0757298039098626e+02 1.0000000000000000e+00 2.9202126320146484e+00 7.3989369128983784e-01 5.1299777429857318e+00 
469 0 1 1.0283584175515357e+00 -3.7756859534453170e+01 1.0000000000000000e+00 2.9420973653048872e+00 6.7633884270647393e-01 5.2111099353664345e+00 
121 0 1 1.0279842111721995e+00 -5.6521214491282812e+01 1.0000000000000000e+00 2.8522221353314352e+00 7.2152269808540137e-01 5.2227086216543777e+00 
363 0 1 6.8774415317587634e-01 -8.0469839127781995e+01 1.0000000000000000e+00 1.2524150165993286e+00 6.3300086209062236e+00 5.7372930828309734e+00 
319 0 1 6.8774415317587634e-01 -6.8408642617237660e+01 1.0000000000000000e+00 1.2524150166553423e+00 6.3300086207493331e+00 5.7372930829572155e+00 
523 0 1 1.0281012245823997e+00 -8.7359911314039110e+01 1.0000000000000000e+00 2.1683815746675386e+00 1.4815906549461997e+00 1.5362363651823308e+01 
442 0 1 1.0282930337579874e+00 -3.9868282676739796e+01 1.0000000000000000e+00 2.1752471033036436e+00 1.4927359994353855e+00 1.5457737475754433e+01 
281 0 1 1.0276063814994953e+00 -7.4292614662522169e+01 1.0000000000000000e+00 2.0884566497832915e+00 1.5492386603243722e+00 1.5415405617117093e+01 
402 0 1 1.0279390811519853e+00 -9.5178299901675288e+01 1.0000000000000000e+00 6.5535775598201722e+00 4.9599271726483130e+00 1.5641663288395458e+01 
465 0 1 1.0281462407861115e+00 -4.7755294401473677e+01 1.0000000000000000e+00 6.1933214554531295e+00 4.7927770612031999e+00 1.5863839212265050e+01 
78 0 1 1.0280001591851964e+00 -7.5412603276995299e+01 1.0000000000000000e+00 2.3366774832453241e+00 1.3933674757603862e+00 1.9130560340976814e+01 
282 0 1 1.0280001591885688e+00 -3.3225867961081711e+01 1.0000000000000000e+00 2.3987511435118782e+00 1.4578742720327591e+00 1.9068597909681493e+01 
166 0 1 1.0280001591936645e+00 -6.7219930989675404e+01 1.0000000000000000e+00 2.4451706951822869e+00 1.3876370395191500e+00 1.9137630983582024e+01 
379 0 1 1.0280968404117474e+00 -5.1549556915184660e+01 1.0000000000000000e+00 1.8265798722972377e+00 7.5807702919451874e+00 1.8411583179120733e+01 
227 0 1 1.0282102768828771e+00 -4.3111119388595817e+01 1.0000000000000000e+00 1.8755295691621738e+00 7.6449671916717845e+00 1.8354586222892923e+01 
558 0 1 1.0276711386178301e+00 -5.4973695107100397e+01 1.0000000000000000e+00 1.8994169128032716e+00 7.6534282101388502e+00 1.8463762656016019e+01 
423 0 1 1.0281718794441776e+00 -4.0377554187657921e+01 1.0000000000000000e+00 4.4339104933055156e+00 1.1236566760125893e+01 1.8990446269216805e+00 
177 0 1 1.0279497612856605e+00 -7.6835462945569518e+01 1.0000000000000000e+00 4.4600254876392391e+00 1.1333221894312512e+01 1.8169516797900833e+00 
458 0 1 1.0280458053172425e+00 -7.3392084513215352e+01 1.0000000000000000e+00 5.5970184938239163e+00 1.0961956246278167e+01 1.7795677661692244e+00 
265 0 1 1.0279726684804025e+00 -5.1165473414671901e+01 1.0000000000000000e+00 5.5957219389957995e+00 1.0951531789342944e+01 1.9099234387727857e+00 
69 0 1 1.0277287918704732e+00 -1.0630748495799804e+02 1.0000000000000000e+00 2.1732548339415128e+00 1.9180947015047373e+01 6.6988683357947520e-01 
399 0 1 1.0275694031255940e+00 -9.7115856990516150e+01 1.0000000000000000e+00 2.0659023801606651e+00 1.9140291193463760e+01 7.0085473248773400e-01 
59 0 1 1.0279928108072305e+00 -1.4838545975495384e+02 1.0000000000000000e+00 2.1571143111497637e+00 1.9134650883676308e+01 7.6449313215000081e-01 
54 0 1 1.0280765201922599e+00 -6.5471599058589689e+01 1.0000000000000000e+00 4.8537855664355476e+00 1.7889170898236568e+01 6.3097149651713522e+00 
405 0 1 1.0279850848851897e+00 -7.2444651010475070e+01 1.0000000000000000e+00 4.2299239098624817e+00 1.8155922128887898e+01 7.3604687962469182e+00 
258 0 1 1.0280905660806698e+00 -9.6277647589505023e+01 1.0000000000000000e+00 5.0473215591512250e+00 1.8015105253347162e+01 7.6829662562338878e+00 
167 0 1 1.0279154648642661e+00 -1.1689003249708963e+02 1.0000000000000000e+00 5.3191277693662329e+00 1.8840291824673145e+01 7.2541803152781350e+00 
551 0 1 1.0279807496466240e+00 -4.3893929463364572e+01 1.0000000000000000e+00 4.8720369452364860e+00 1.8618479461227832e+01 6.2389357204090583e+00 
467 0 1 6.8774415317587634e-01 -6.4059025917182609e+01 1.0000000000000000e+00 7.2070960608247581e-01 1.5899927488451487e+01 1.8932780817408442e+01 
50 0 1 6.8774415317587634e-01 -7.0822795510732178e+01 1.0000000000000000e+00 7.2070960607424428e-01 1.5899927488505218e+01 1.8932780817409125e+01 
120 0 1 6.8774415048550608e-01 -1.4266600797850529e+02 1.0000000000000000e+00 6.0375689137101229e+00 1.5517280719075265e+01 1.9625558489600888e+01 
42 0 1 6.8774415048550608e-01 -1.5365502828011682e+02 1.0000000000000000e+00 6.0374397227695837e+00 1.5517253443656976e+01 1.9625545429919491e+01 
179 0 1 1.0279677008404868e+00 -3.6129845200523121e+01 1.0000000000000000e+00 8.6910539941140126e+00 4.1969524897995578e+00 2.2153803822135640e+00 
449 0 1 1.0279874704064971e+00 -5.9149420112919721e+01 1.0000000000000000e+00 8.0252820778949587e+00 4.4402602022901059e+00 2.5798913726608035e+00 
607 0 1 1.0279559145088191e+00 -8.8417619770277383e+01 1.0000000000000000e+00 8.5074354827120686e+00 4.4714498952350441e+00 3.5031590734667026e+00 
392 0 1 1.0280886378336040e+00 -8.3163035854060851e+01 1.0000000000000000e+00 9.0087719115880205e+00 5.3988880296565860e+00 2.8668528263174773e+00 
183 0 1 1.0281411914171026e+00 -2.9585510348131859e+01 1.0000000000000000e+00 9.5104833377446241e+00 4.8334928520374163e+00 2.9475296197090621e+00 
514 0 1 1.0273008920243101e+00 -6.1416581628420040e+01 1.0000000000000000e+00 9.9015569507441938e+00 5.2600827333180344e+00 6.6443035505719905e+00 
354 0 1 1.0278883230459332e+00 -2.9478477230800408e+01 1.0000000000000000e+00 9.8986950463153569e+00 5.2724053765035652e+00 6.5230176671724163e+00 
203 0 1 1.0281070781560131e+00 -1.1510035369895702e+02 1.0000000000000000e+00 9.8218556074973673e+00 5.2295972769487928e+00 6.5658775409518926e+00 
408 0 1 1.0280685408340948e+00 -9.6933304404513223e+01 1.0000000000000000e+00 7.0026326350280605e+00 4.2151361451424583e+00 1.6387152344042395e+01 
610 0 1 1.0279281667724935e+00 -1.0731420460402846e+02 1.0000000000000000e+00 7.0689738631889014e+00 4.6214148785176157e+00 1.6581916608816478e+01 
481 0 1 1.0280109602560599e+00 -4.8898302354925320e+01 1.0000000000000000e+00 8.2843801596906523e+00 1.6755536166668485e+01 3.6995736628405744e+00 
24 0 1 1.0280677392056126e+00 -8.1679523276291476e+01 1.0000000000000000e+00 8.7088348018653168e+00 1.6639448063362487e+01 3.5592198583071029e+00 
297 0 1 1.0280950607290473e+00 -6.6826887916259892e+01 1.0000000000000000e+00 8.7664062983258422e+00 1.6097450338965366e+01 4.5221779444660539e+00 
115 0 1 1.0279436237431439e+00 -3.4717096014178161e+01 1.0000000000000000e+00 8.6636463006771525e+00 1.6507136652205489e+01 4.7094625208394900e+00 
248 0 1 1.0285568532129306e+00 -8.6479072117868810e+01 1.0000000000000000e+00 1.0371576125527822e+01 1.4176673627236028e+01 1.5409156643742246e+01 
207 0 1 1.0280200369345169e+00 -3.3669787679198500e+01 1.0000000000000000e+00 1.0369493664816796e+01 1.4094073664791532e+01 1.5465201266819268e+01 
437 0 1 1.0280024945560129e+00 -4.9881253572267937e+01 1.0000000000000000e+00 1.0457843270536531e+01 1.4126877548487981e+01 1.5396440526487735e+01 
367 0 1 3.4387207658793817e-01 -4.4713736458194248e+01 1.0000000000000000e+00 1.2930201599798993e+01 1.1629727802835918e+01 1.7958555574918009e+01 
95 0 1 1.0281236607356496e+00 -5.9206740782662408e+01 1.0000000000000000e+00 1.3649495021426365e+01 2.4393245888583990e+00 1.5185418278345362e+00 
382 0 1 1.0279258555459243e+00 -3.5364270426989343e+01 1.0000000000000000e+00 1.3649075279365412e+01 2.4387610578709156e+00 1.5185769755423681e+00 
2 0 1 1.0280377962320577e+00 -7.5934543883093383e+01 1.0000000000000000e+00 1.4822544356353845e+01 2.5536166054519773e+00 1.7676242215159890e+00 
130 0 1 1.0280116376782669e+00 -4.7697885470990514e+01 1.0000000000000000e+00 1.4822531286791424e+01 2.5544893951856333e+00 1.7675743325411173e+00 
25 0 1 1.0281048900931780e+00 -2.2078938587443446e+02 1.0000000000000000e+00 1.6865240311346540e+01 6.5210874771149490e+00 1.2334583337927629e+01 
560 0 1 1.0280034010372248e+00 -8.8759101139286301e+01 1.0000000000000000e+00 1.6512520019261363e+01 7.1470012973530848e+00 1.3298618970326713e+01 
143 0 1 1.0280543182752002e+00 -6.4928757518027822e+01 1.0000000000000000e+00 1.7382953734454041e+01 7.5406012417990986e+00 1.2321869015472462e+01 
128 0 1 1.0279527048339392e+00 -5.2555332880102156e+01 1.0000000000000000e+00 1.7009800990257524e+01 6.4730941886601689e+00 1.3416669727419826e+01 
213 0 1 1.0279389339231182e+00 -6.8248253482613649e+01 1.0000000000000000e+00 1.7819266915091411e+01 7.3432198918127414e+00 1.2867755185071475e+01 
58 0 1 1.0280530298510819e+00 -4.9226640069603960e+01 1.0000000000000000e+00 1.5349889539619253e+01 1.5197841670201891e+01 5.8021353751350730e+00 
93 0 1 1.0279836810533052e+00 -1.0570553137431332e+02 1.0000000000000000e+00 1.3877463426513282e+01 1.5027745340810643e+01 5.1301489541476810e+00 
588 0 1 1.0279242455079329e+00 -1.0694668115481282e+02 1.0000000000000000e+00 1.5283731572319747e+01 1.5029713528250863e+01 5.8669694484631840e+00 
326 0 1 1.0279398756017322e+00 -5.1085969471468367e+01 1.0000000000000000e+00 1.4054212526693142e+01 1.5667778020208781e+01 5.5979310268272364e+00 
464 0 1 1.0280031845927073e+00 -5.2688493774027506e+01 1.0000000000000000e+00 1.4545810296589911e+01 1.5113404308661401e+01 4.6696904151346912e+00 
545 0 1 1.0279975945543811e+00 -3.2416919653135984e+01 1.0000000000000000e+00 1.4564707590904991e+01 1.8325337162011110e+01 1.1842888871875768e+01 
246 0 1 1.0280031767856430e+00 -6.9437950268169573e+01 1.0000000000000000e+00 1.5174556190085875e+01 1.9208971419304202e+01 1.1888019408477033e+01 
439 0 1 1.0279462544378293e+00 -3.6262924726480541e+01 1.0000000000000000e+00 1.3599460172354220e+01 1.2882117479768500e+01 1.2557341521303989e+01 
180 0 1 1.0282213810066694e+00 -6.0421516206535628e+01 1.0000000000000000e+00 1.3657623506526674e+01 1.2943928134092918e+01 1.2614728251522417e+01 
528 0 1 1.0277542531003869e+00 -3.3455857877452047e+01 1.0000000000000000e+00 1.3688328208791027e+01 1.2840056253339450e+01 1.2619781269012032e+01 
263 0 1 1.0275720813768534e+00 -3.1174881339628385e+01 1.0000000000000000e+00 1.7983470957772479e+01 1.5355487968010138e+01 1.3243236020711979e+01 
314 0 1 1.0276893200677319e+00 -7.6698753930398539e+01 1.0000000000000000e+00 1.8005106784032666e+01 1.5366613888248892e+01 1.3131805400529373e+01 
47 0 1 1.0276128277753622e+00 -7.9803736910828491e+01 1.0000000000000000e+00 1.7987632266682532e+01 1.5262978555742679e+01 1.3172978301245495e+01 
516 0 1 1.0278391823239885e+00 -3.2695388718792152e+01 1.0000000000000000e+00 1.4408015477018662e+01 1.9185304894899559e+01 1.2140383125959568e+01 
547 0 1 1.0280068278075218e+00 -1.0558580371339117e+02 1.0000000000000000e+00 1.5139060531202867e+01 1.8440464966997915e+01 1.2397895512170514e+01 
364 0 1 1.0275990139778410e+00 -9.0865255374756813e+01 1.0000000000000000e+00 1.4174812565157001e+01 1.7630988911651745e+01 1.8632740778966184e+01 
161 0 1 1.0277950245342238e+00 -1.2555050677563054e+02 1.0000000000000000e+00 1.4153222149482222e+01 1.7667831419109405e+01 1.8524617062516931e+01 
40 0 1 1.0278993264295377e+00 -6.2701446119028020e+01 1.0000000000000000e+00 1.4241599271857767e+01 1.7702090564251261e+01 1.8575182760901285e+01 

Velocities

250 1.2352258507910171e-12 1.7687913934468159e-14 -9.6550787504964818e-13
134 -1.2352258507910171e-12 -1.7687913934468159e-14 9.6550787504964818e-13
87 -1.3472524577406411e-03 2.7870001690039169e-06 1.2514788153271989e-03
469 2.1776842204078569e-03 -1.3723027377423940e-03 1.6228010590010395e-04
121 -8.3043176266628751e-04 1.3695157375736872e-03 -1.4137589212252449e-03
363 -1.3173723084356641e-10 3.8469162704893371e-10 -2.9793314487392007e-10
319 1.3173723084356641e-10 -3.8469162704893371e-10 2.9793314487392007e-10
523 -1.2933006969458353e-03 1.4689857249269454e-03 3.0644486920131378e-03
442 -1.0142244221239074e-03 3.1555333864844061e-04 -2.5263219261248662e-03
281 2.3075251190700914e-03 -1.7845390635752229e-03 -5.3812676589041466e-04
402 8.9071887227446553e-04 2.1320974106107428e-03 2.3984374033277807e-03
465 -6.0301684727135567e-04 -2.8090640961531839e-03 -1.6816418145474495e-03
78 -1.0662941810872595e-06 -3.6739048586272897e-07 3.4310746078973753e-07
282 9.7762859689080405e-08 8.4238452443328674e-07 -8.1895114134885446e-07
166 9.6853132139835105e-07 -4.7499403857069970e-07 4.7584368055923446e-07
379 -1.5198466546155311e-03 -1.3385487731704436e-03 -2.1525228224951640e-03
227 -1.0752086321049114e-03 -9.2225921426641075e-04 -1.6707112903855043e-03
558 2.5950552867201934e-03 2.2608079874369843e-03 3.8232341128808713e-03
423 1.5833638861159205e-05 -1.4311863472757854e-04 9.0026716271651046e-04
177 -4.5023419920741411e-04 2.9851771254661485e-04 -1.0061749135101196e-03
458 -4.3421891399242097e-04 6.8284389952847149e-04 1.1732075901871065e-03
265 8.6861947433888192e-04 -8.3824297734641181e-04 -1.0672998393948272e-03
69 4.5950729090873699e-04 1.0196439836753801e-03 -2.0254687932814712e-03
399 -6.9723727446253730e-04 -9.6828198346095965e-06 -3.6827315496106965e-04
59 2.3772998355219417e-04 -1.0099611638395437e-03 2.3937419482411388e-03
54 1.6340877488094189e-04 7.4253163711152895e-04 -5.5390697720698618e-04
405 -5.2624238446064605e-04 -7.5810648325837454e-04 3.3828053487783272e-04
258 -4.9424271592961929e-04 2.8369675184057109e-04 4.7128103749130535e-04
167 1.0449593673454527e-03 2.9361945561287274e-04 -2.3920878866006895e-04
551 -1.8788304183620905e-04 -5.6174136130408554e-04 -1.6445806504274171e-05
467 1.7171428803458192e-11 -1.2798742321863915e-10 3.6775754738510243e-12
50 -1.7171428803458192e-11 1.2798742321863915e-10 -3.6775754738510243e-12
120 -3.4253287459036818e-05 -7.2317350659264636e-06 -3.4626499564087650e-06
42 3.4253287459036818e-05 7.2317350659264636e-06 3.4626499564087650e-06
179 2.9862063775534546e-05 -4.4051153635765157e-05 -5.9009969065050506e-04
449 3.8185549344175649e-04 -2.1327809375450992e-04 6.0307457797446418e-04
607 -4.6227022968702312e-04 6.5563487865571187e-04 -2.5285007799765190e-04
392 -6.6081569447123617e-05 -5.2940488720237030e-04 5.0875158869167103e-04
183 1.1663424191782426e-04 1.3109925593792764e-04 -2.6887639801774038e-04
514 -1.4771479075324572e-03 -9.0269279833422888e-04 1.5281582986281688e-03
354 1.5761139441568051e-03 1.2283372256531565e-03 -3.9718552669229254e-03
203 -9.8966036622578194e-05 -3.2564442731555321e-04 2.4436969682963727e-03
408 -2.8892787314900481e-03 -1.6805377320611731e-04 1.1779747840030403e-03
610 2.6015767064893622e-03 8.4502045874665344e-04 -1.8947703727920046e-03
481 4.7895440776630913e-04 -2.5546873968319016e-05 -4.2476595844281363e-04
24 -5.0423737820634563e-04 -8.3292167536967726e-05 -3.7010660620361127e-04
297 3.0118479146740061e-05 3.3078376099829907e-04 -5.2268281766923875e-04
115 -4.8355087058967447e-06 -2.2194471949041469e-04 1.3175553823158463e-03
248 2.1970884151416548e-03 7.3694775799042732e-04 -1.6575240838216836e-03
207 3.4541240648381013e-03 -6.7540859135044155e-04 -1.3860468341389100e-03
437 -5.6512124799806464e-03 -6.1539166639162343e-05 3.0435709179613153e-03
367 2.4447270023439362e-36 1.3934612375794941e-35 -5.3496606033969534e-36
95 -6.5968400136532171e-04 -6.4862737497829533e-05 -1.3966007909747247e-04
382 2.3348882043542986e-04 2.3890615890516392e-05 4.9114071708947290e-05
2 1.0289954268861460e-03 9.5949731649628902e-05 2.1886084896626461e-04
130 -6.0280024595680919e-04 -5.4977610042210749e-05 -1.2831484157752255e-04
25 1.0093191065853115e-04 7.7407629233832288e-05 -1.2354314501948231e-04
560 -3.5995643929261816e-04 -1.2359750198849350e-04 -1.6441100271930842e-04
143 2.7276414701994797e-04 2.1543753292337659e-04 5.4602544973616617e-04
128 4.7487747961847516e-04 4.5138067231108612e-04 2.3670691526200721e-04
213 -4.8861709800499485e-04 -6.2062833247891682e-04 -4.9477821725898746e-04
58 4.0231383979994124e-06 -2.1646335148083674e-03 -4.8249927083861559e-04
93 1.7578139952459162e-04 -5.1708382116478796e-04 -7.4957633669352674e-04
588 6.5177059098813319e-04 1.9305833490860761e-03 8.4753213304340303e-04
326 -2.5568249980562893e-04 4.8959009557545514e-04 2.2357491694070125e-04
464 -5.7589262910444307e-04 2.6154389131261002e-04 1.6096855754747823e-04
545 6.1582616656106505e-04 1.4543595340381296e-03 -6.9710766989998561e-04
246 5.3757596524308033e-04 -6.2886820466368843e-04 -1.4659160938958458e-03
439 -9.2950090424762617e-05 3.3390595674629136e-03 5.4477546413231228e-04
180 -1.6855462593060645e-03 -3.8388508991798820e-03 -2.0414773853232367e-03
528 1.7766945394311353e-03 4.9877808821919363e-04 1.4964559303292861e-03
263 3.6975279860696858e-04 -2.8785859490446514e-03 -3.4844451377641470e-03
314 5.1779025310747625e-05 1.5723986965527426e-03 5.3428973143123922e-04
47 -4.1973001361786242e-04 1.3072004959911137e-03 2.9504013971943643e-03
516 -5.6940265436896135e-04 -1.0611600646254140e-03 1.1184108170781671e-03
547 -5.8399947743424739e-04 2.3566873524818844e-04 1.0446129467172405e-03
364 1.2295028931329738e-03 1.2169088755247730e-03 -8.6466603565004893e-04
161 1.9811798886851788e-03 8.3754572228426710e-04 9.8623025428600419e-04
40 -3.2106827818173863e-03 -2.0544545978094125e-03 -1.2156421863657888e-04
