LAMMPS data file via write_data, version 30 Jul 2016, timestep = 50000000

2772 atoms
8 atom types

0.0000000000000000e+00 1.0000000000000000e+02 xlo xhi
0.0000000000000000e+00 4.0000000000000000e+01 ylo yhi
0.0000000000000000e+00 4.0000000000000000e+01 zlo zhi

Masses

1 3.896
2 5.36
3 20.064
4 8.378
5 8.378
6 8.378
7 8.378
8 8.378

Atoms # meso-molecular

2194 2195 2 1.0280000000012524e+00 5.5235179201398278e+03 1.0000000000000000e+00 1.7020962642271662e+00 5.3246908942676869e+00 2.8021085472654171e+01 
1706 1707 2 1.0280000000000447e+00 6.5421763258878564e+03 1.0000000000000000e+00 1.2548374474263275e+00 5.5289039391579990e+00 2.8283988964676819e+01 
517 518 2 1.0280000000008724e+00 1.8686344171228307e+03 1.0000000000000000e+00 1.5900013526430297e+00 4.9971049619343653e+00 2.8407098202037574e+01 
2737 2738 2 1.0279999999994067e+00 -5.2734828512411168e+03 1.0000000000000000e+00 3.3312919812874555e+00 5.3629553603622124e+00 2.8167750011681655e+01 
2749 2750 2 1.0279999999994054e+00 -5.2485195867309176e+03 1.0000000000000000e+00 9.3600278965579531e-01 6.4218015030962556e+00 2.8477426584493518e+01 
606 607 2 1.0279999999980205e+00 7.9239425119796661e+03 1.0000000000000000e+00 3.4984576913856325e+00 6.0450117332389866e+00 2.7878863562509338e+01 
443 444 2 1.0279999999981206e+00 -6.3686380854245890e+03 1.0000000000000000e+00 3.4433605407749321e+00 6.2805938723813695e+00 2.7869683997301976e+01 
1717 1718 2 1.0279999999988148e+00 1.6099255837001490e+02 1.0000000000000000e+00 3.3823562061319929e+00 6.6453446645741634e+00 2.8014937276940543e+01 
808 809 2 1.0280000000002354e+00 5.5492101586718691e+03 1.0000000000000000e+00 5.7975413701882159e+00 6.4012395714411756e+00 2.8364199535547712e+01 
290 291 2 1.0279999999974345e+00 9.5329766434193132e+01 1.0000000000000000e+00 6.5208175263776402e+00 6.0259251197296440e+00 2.8251149160645905e+01 
351 352 2 1.0279999999977296e+00 -2.8213972506569944e+03 1.0000000000000000e+00 7.1916316712238393e+00 6.6249087564780291e+00 2.8382109853175805e+01 
719 720 2 1.0279999999984200e+00 -6.4503721897377109e+03 1.0000000000000000e+00 1.3882803472747677e+01 6.5550044037785087e+00 2.7972123402030110e+01 
720 721 2 1.0279999999983753e+00 -9.8004322942770341e+03 1.0000000000000000e+00 1.4053284856515873e+01 6.6823154798907556e+00 2.7927594903087755e+01 
352 353 2 1.0279999999986706e+00 4.1639330153365313e+02 1.0000000000000000e+00 1.4696048808265383e+01 6.7692809588791585e+00 2.8012965531234382e+01 
2662 2663 2 1.0280000000113563e+00 3.9029444982620373e+02 1.0000000000000000e+00 2.6928344598563957e+01 1.4563231190814803e+00 3.0852418617380057e+01 
2023 2024 2 1.0280000000218503e+00 -9.4606113107453439e+03 1.0000000000000000e+00 2.6763511026074180e+01 1.5610316187542721e+00 3.0943923672909392e+01 
1561 1562 2 1.0279999999918630e+00 -1.0082175302926003e+04 1.0000000000000000e+00 2.8094602339460270e+01 1.4679208454062154e+00 3.0580143593387422e+01 
2753 2754 2 1.0279999999905003e+00 -6.4055486723470149e+03 1.0000000000000000e+00 2.8157319907905364e+01 1.1834394984676953e+00 3.0739441833338986e+01 
2184 2185 2 1.0279999999933453e+00 -7.6211517040737290e+03 1.0000000000000000e+00 2.8145434331368879e+01 1.0670328565608191e+00 3.0879284376867265e+01 
2606 2607 2 1.0279999999984322e+00 -3.4066265984366555e+03 1.0000000000000000e+00 3.3016584656650508e+01 2.6024337508901012e+00 2.8872787613444235e+01 
424 425 2 1.0280000000026650e+00 -6.9644107051149495e+03 1.0000000000000000e+00 3.2524551299711320e+01 2.7436884354449509e+00 2.8908301052057375e+01 
562 563 2 1.0280000000006602e+00 1.5136703829997991e+03 1.0000000000000000e+00 3.2663569844016649e+01 2.7645390759796888e+00 2.8866858905723852e+01 
2607 2608 2 1.0279999999983591e+00 -6.1187112080544512e+02 1.0000000000000000e+00 3.2899646715241246e+01 2.6229172876797309e+00 2.8860934375983508e+01 
1011 1012 2 1.0279999999896137e+00 4.2911611607310979e+03 1.0000000000000000e+00 1.3074865411698828e+00 4.7703479214006608e+00 2.9568318795967642e+01 
2449 2450 2 1.0279999999998348e+00 7.5134313293352416e+03 1.0000000000000000e+00 2.2071107822351106e+00 4.9040964946638690e+00 3.0646470892258979e+01 
1566 1567 2 1.0280000000000644e+00 3.1785234030507010e+04 1.0000000000000000e+00 2.2402454464155523e+00 4.8919320406788414e+00 3.0641076933121866e+01 
2485 2486 2 1.0280000000001983e+00 -8.5634509590754824e+03 1.0000000000000000e+00 2.2547299146160165e+00 4.8767408522675284e+00 3.0622370161860708e+01 
2240 2241 2 1.0279999999984433e+00 1.7877458074338915e+03 1.0000000000000000e+00 4.9405638779117638e+00 4.4701373768312376e+00 3.0774574160881691e+01 
2241 2242 2 1.0279999999983271e+00 3.8443505312277566e+03 1.0000000000000000e+00 4.5841472206060692e+00 4.4853250153424415e+00 3.0778206022941902e+01 
1697 1698 2 1.0279999999993248e+00 6.3883845081084855e+03 1.0000000000000000e+00 5.1718909055201960e+00 4.8105915367207297e+00 2.9579761134667464e+01 
268 269 2 1.0279999999984490e+00 2.0810250013390327e+04 1.0000000000000000e+00 5.3712895080868863e+00 4.4898448322637003e+00 3.0756023750211394e+01 
1902 1903 2 1.0280000000020084e+00 3.2276370106453714e+03 1.0000000000000000e+00 7.3959398204023943e+00 5.0857728749217115e+00 2.9766309507745525e+01 
1379 1380 2 1.0280000000039116e+00 2.9154277094680252e+04 1.0000000000000000e+00 6.9949044286674011e+00 5.1344204356386216e+00 3.0534822392794226e+01 
2376 2377 2 1.0279999999969214e+00 3.0643577770182742e+03 1.0000000000000000e+00 7.2572894113429918e+00 5.5682921466567645e+00 2.8589089298728503e+01 
127 128 2 1.0280000000047880e+00 -8.4776808425166055e+03 1.0000000000000000e+00 1.0805897288369213e+01 3.8498343333266631e+00 3.0943800861957410e+01 
2658 2659 2 1.0280000000001011e+00 3.0235256555300812e+03 1.0000000000000000e+00 9.6207703570132406e+00 5.3206236937558904e+00 3.0053490865805671e+01 
2413 2414 2 1.0280000000035061e+00 1.2883482996568905e+03 1.0000000000000000e+00 9.7744755955855140e+00 5.0536939898262663e+00 3.1212039205109875e+01 
2718 2719 2 1.0280000000035223e+00 1.5906232055653099e+03 1.0000000000000000e+00 9.7800054681163662e+00 5.0340700624364159e+00 3.1214471550468051e+01 
1674 1675 2 1.0280000000034810e+00 -1.0164712220517576e+04 1.0000000000000000e+00 9.7810966097735044e+00 5.0355080058032193e+00 3.1215924402504498e+01 
141 142 2 1.0280000000011693e+00 9.0673103124724548e+03 1.0000000000000000e+00 1.2409644189491621e+01 3.1131361255048851e+00 3.0550122265041924e+01 
2186 2187 2 1.0280000000015261e+00 8.8513998791949434e+03 1.0000000000000000e+00 1.2134278380614280e+01 3.1479771483965577e+00 3.0552723005821729e+01 
959 960 2 1.0280000000039062e+00 2.9141665694845480e+04 1.0000000000000000e+00 1.3163988801444477e+01 3.2820831152611394e+00 3.0497797401562138e+01 
1521 1522 2 1.0279999999940432e+00 1.5012935792556422e+04 1.0000000000000000e+00 1.2937213361536775e+01 3.6429235247737370e+00 2.9469422532701348e+01 
2388 2389 2 1.0279999999924359e+00 3.6349278130645398e+03 1.0000000000000000e+00 1.2781883269060684e+01 4.1298398613923935e+00 2.9347302454487540e+01 
2303 2304 2 1.0279999999918261e+00 3.2755642907226036e+04 1.0000000000000000e+00 1.2767043313076410e+01 4.3790086880252490e+00 2.9350203110342367e+01 
585 586 2 1.0280000000179206e+00 1.2878655222324087e+03 1.0000000000000000e+00 1.2799640724283032e+01 4.6099641534340696e+00 3.1034001282442695e+01 
66 67 2 1.0279999999898903e+00 3.0599774979689273e+03 1.0000000000000000e+00 1.4352813392092420e+01 5.1714392907324829e+00 2.9101164052372106e+01 
1836 1837 2 1.0279999999964202e+00 -6.7258185981629922e+03 1.0000000000000000e+00 1.6003307499914545e+01 4.9077074095359583e+00 2.9891703216717065e+01 
146 147 2 1.0280000000312386e+00 7.0762737589266017e+03 1.0000000000000000e+00 1.5150431498884751e+01 4.3954355190094567e+00 3.0948024311760058e+01 
142 143 2 1.0280000000084126e+00 7.3756392101755664e+03 1.0000000000000000e+00 1.5450434048336477e+01 4.5682955791344595e+00 3.1259381156187473e+01 
844 845 2 1.0280000000059906e+00 -3.0833170582707044e+03 1.0000000000000000e+00 1.5525193286621269e+01 4.5688129427561135e+00 3.1320504603952347e+01 
2614 2615 2 1.0280000000033500e+00 1.0212613750194920e+04 1.0000000000000000e+00 1.7400939780093989e+01 3.8077664834674465e+00 3.0076906897575505e+01 
2740 2741 2 1.0280000000007183e+00 -6.1726790693491675e+03 1.0000000000000000e+00 1.7279290053198856e+01 3.9210424583142180e+00 2.9977395572104697e+01 
1957 1958 2 1.0280000000429184e+00 2.7314409191855384e+03 1.0000000000000000e+00 1.7930372811873902e+01 3.8999938143895547e+00 3.0421585520960093e+01 
2617 2618 2 1.0280000000349907e+00 7.5122144280257507e+03 1.0000000000000000e+00 1.7901971068154793e+01 3.9107041809833221e+00 3.0361491368401172e+01 
2410 2411 2 1.0279999999900458e+00 5.5056102769782410e+02 1.0000000000000000e+00 2.0826877251733023e+01 2.9562659941900891e+00 3.0486606326621054e+01 
1991 1992 2 1.0280000000042304e+00 5.8460243205813131e+03 1.0000000000000000e+00 2.1543638101182111e+01 3.1774121978572611e+00 3.0505092080496240e+01 
2107 2108 2 1.0280000000269729e+00 -9.4235480003557059e+03 1.0000000000000000e+00 1.9987905541529589e+01 3.4458281734035983e+00 3.0603709897538611e+01 
1937 1938 2 1.0280000000241396e+00 -1.5145963100181766e+03 1.0000000000000000e+00 2.0043950152252215e+01 3.4924830535179465e+00 3.0514945321602035e+01 
2320 2321 2 1.0280000000031335e+00 -6.1453755389526395e+03 1.0000000000000000e+00 2.0435681223873868e+01 3.9077771403827577e+00 3.0718391573717987e+01 
367 368 2 1.0280000000024196e+00 3.0890097666231654e+03 1.0000000000000000e+00 3.0344489724701944e+01 4.1837244933309368e+00 3.0894251830970475e+01 
852 853 2 1.0280000000010900e+00 3.1859708866134661e+03 1.0000000000000000e+00 3.0442429952301353e+01 4.3269239275890037e+00 3.1035153279741696e+01 
72 73 2 1.0280000000165794e+00 1.5413975541431701e+03 1.0000000000000000e+00 3.0713478546334049e+01 3.6000040810384704e+00 3.0201847065291730e+01 
456 457 2 1.0280000000110765e+00 -5.3345670648866308e+03 1.0000000000000000e+00 3.1400368199766220e+01 3.7818597526139710e+00 2.9681747372453820e+01 
468 469 2 1.0279999999938156e+00 2.9507056125669051e+03 1.0000000000000000e+00 3.2852313305471078e+01 3.9031977920121896e+00 2.9814704265231025e+01 
1229 1230 2 1.0279999999936380e+00 8.6235399914711816e+03 1.0000000000000000e+00 3.2635926743530405e+01 4.5044662108798939e+00 3.1095510618813538e+01 
2437 2438 2 1.0280000000013483e+00 -8.4779622881956093e+03 1.0000000000000000e+00 3.1485023597360776e+01 4.7100733007006372e+00 3.1347565651911744e+01 
2491 2492 2 1.0279999999987768e+00 4.3042217697323722e+03 1.0000000000000000e+00 1.2731349422616303e+00 8.2874811995343087e+00 2.9660776377240914e+01 
91 92 2 1.0279999999980440e+00 6.5501772248186116e+03 1.0000000000000000e+00 1.9734200836771731e+00 8.0727668402224442e+00 2.9712217096644853e+01 
1296 1297 2 1.0279999999980165e+00 4.2348054389518475e+03 1.0000000000000000e+00 2.0254165409702600e+00 8.0415770810243501e+00 2.9675342171085386e+01 
139 140 2 1.0280000000023988e+00 7.5159247823681308e+03 1.0000000000000000e+00 1.0849669304528891e+00 7.6523258741561833e+00 3.0882505866646905e+01 
138 139 2 1.0280000000044294e+00 8.3454150061599867e+03 1.0000000000000000e+00 1.8794402671953794e+00 6.6003958327736321e+00 3.1132394267870865e+01 
1355 1356 2 1.0279999999996852e+00 -7.8487550495714067e+03 1.0000000000000000e+00 3.2557858123736988e-01 6.2791226118360974e+00 3.1164934915810427e+01 
855 856 2 1.0279999999995069e+00 3.8546912972305117e+03 1.0000000000000000e+00 5.6331116362130645e-02 7.8356272275445997e+00 2.9906994741415154e+01 
1772 1773 2 1.0280000000003371e+00 4.7514309211345872e+03 1.0000000000000000e+00 3.0129549947881871e+00 7.4066114216247403e+00 2.9449884902840296e+01 
1672 1673 2 1.0280000000050451e+00 3.3026787714591228e+03 1.0000000000000000e+00 4.4632515829738626e+00 6.8572794205265657e+00 2.9234368557629001e+01 
1480 1481 2 1.0280000000001950e+00 5.7477890698257015e+03 1.0000000000000000e+00 5.0405545396661946e+00 6.6298375106046219e+00 3.1274909981914860e+01 
605 606 2 1.0280000000016700e+00 5.8372349811995064e+03 1.0000000000000000e+00 6.7398077969552261e+00 5.9032881924639788e+00 3.0982072553158964e+01 
584 585 2 1.0279999999988720e+00 -1.4906018951794204e+03 1.0000000000000000e+00 6.1684878253860429e+00 6.7074232193243324e+00 3.0828709460623770e+01 
430 431 2 1.0280000000052834e+00 -6.1755732895682067e+03 1.0000000000000000e+00 8.1067762308100590e+00 6.7891647085490741e+00 2.9077886321898436e+01 
137 138 2 1.0280000000041010e+00 1.3115405666041341e+04 1.0000000000000000e+00 7.9045200457347224e+00 6.9242404116118417e+00 2.9354597116906699e+01 
516 517 2 1.0280000000003562e+00 3.2211866339336093e+03 1.0000000000000000e+00 5.9918441775637108e+00 7.1347637263368950e+00 2.9410170921585259e+01 
836 837 2 1.0279999999951452e+00 -1.4917557193036059e+03 1.0000000000000000e+00 1.0689666928199349e+01 6.7336081530983165e+00 2.9066123260365448e+01 
1421 1422 2 1.0280000000030087e+00 2.9146074265738564e+04 1.0000000000000000e+00 1.0036593188095310e+01 7.1725170190125676e+00 2.9386717911054074e+01 
800 801 2 1.0280000000013207e+00 8.8574830754121558e+03 1.0000000000000000e+00 1.0360133398145321e+01 7.3296006158060880e+00 2.9377758259704496e+01 
2451 2452 2 1.0280000000013192e+00 9.0658081798281091e+03 1.0000000000000000e+00 1.0360659895250606e+01 7.3298094574218133e+00 2.9377744177817885e+01 
721 722 2 1.0280000000054399e+00 -9.4242700450595912e+03 1.0000000000000000e+00 1.3398286836149698e+01 7.0937533525186236e+00 2.9736085828860176e+01 
1227 1228 2 1.0279999999963778e+00 1.4985429076523305e+04 1.0000000000000000e+00 1.1637749253064992e+01 7.2008587535885518e+00 2.9914587686924005e+01 
857 858 2 1.0280000000097171e+00 3.0355095748294834e+03 1.0000000000000000e+00 1.2284244527638336e+01 7.3224784889032106e+00 2.9448964431680182e+01 
2505 2506 2 1.0280000000093286e+00 2.0845718250856200e+04 1.0000000000000000e+00 1.2655925070349799e+01 7.3334361264713737e+00 2.9434979833123347e+01 
1676 1677 2 1.0280000000026344e+00 -6.4859815198035212e+03 1.0000000000000000e+00 1.5207105868816754e+01 6.6794656659314224e+00 2.8884112112447220e+01 
798 799 2 1.0280000000016341e+00 -7.6139997844829595e+03 1.0000000000000000e+00 1.5156572111685708e+01 6.8119263944636259e+00 2.8630819170832385e+01 
1302 1303 2 1.0280000000033975e+00 -1.0906138060029156e+02 1.0000000000000000e+00 1.4503045937194594e+01 7.1626885676758878e+00 2.9483138161601840e+01 
2226 2227 2 1.0279999999990326e+00 -9.7286607758860055e+02 1.0000000000000000e+00 3.7192713394146288e+00 2.0176541564548129e+00 3.3570995487671553e+01 
552 553 2 1.0280000000004530e+00 4.6670438197906860e+03 1.0000000000000000e+00 3.4184945194890410e+00 2.0457350635545803e+00 3.3636537598578379e+01 
762 763 2 1.0280000000007887e+00 -3.5990879263695424e+03 1.0000000000000000e+00 3.1564767050568490e+00 2.0910876238089737e+00 3.3721493081572696e+01 
2219 2220 2 1.0279999999994633e+00 3.8782590834764633e+03 1.0000000000000000e+00 3.8853808584187117e+00 1.5848401566215080e+00 3.4004436842643095e+01 
1357 1358 2 1.0279999999958325e+00 -6.8931030412195669e+03 1.0000000000000000e+00 5.6911761489645416e+00 2.2081418813077449e+00 3.3966868376996779e+01 
2145 2146 2 1.0279999999942988e+00 5.8638729734065555e+02 1.0000000000000000e+00 8.4227385986100600e+00 2.5187537037695993e+00 3.4128619115776040e+01 
891 892 2 1.0279999999991318e+00 -6.5421979888569167e+03 1.0000000000000000e+00 8.4760296652880740e+00 2.7985557084035073e+00 3.4133720850284305e+01 
1388 1389 2 1.0279999999946283e+00 -6.4583937419774088e+02 1.0000000000000000e+00 8.5198897569720007e+00 2.4986647247299429e+00 3.4129004398072098e+01 
2150 2151 2 1.0280000000028888e+00 1.3527669581681143e+04 1.0000000000000000e+00 1.3754401460496588e+01 1.2894466110929905e+00 3.4281279528658175e+01 
2468 2469 2 1.0280000000023664e+00 1.3145082049618428e+04 1.0000000000000000e+00 1.4108240267753452e+01 1.2649894444145857e+00 3.4232380171790084e+01 
1301 1302 2 1.0280000000048257e+00 -5.1757346041535789e+02 1.0000000000000000e+00 1.4508320582206279e+01 1.7852984894747206e+00 3.4119025896240586e+01 
926 927 2 1.0280000000043183e+00 -6.5013308640543096e+02 1.0000000000000000e+00 1.4907559417043201e+01 1.6579588429421850e+00 3.4238038604003435e+01 
2603 2604 2 1.0280000000018592e+00 2.2140674615369530e+03 1.0000000000000000e+00 1.4970600809219949e+01 1.6119547088286175e+00 3.4254728864021352e+01 
623 624 2 1.0280000000171576e+00 1.3665898250014699e+04 1.0000000000000000e+00 1.8828669127387396e+01 1.0816004814157345e+00 3.3690984221042356e+01 
1595 1596 2 1.0280000000092309e+00 3.8552546462622313e+03 1.0000000000000000e+00 1.9006289025427868e+01 1.6368956718370884e+00 3.4147215573636579e+01 
791 792 2 1.0280000000015541e+00 1.3633689108312232e+04 1.0000000000000000e+00 1.9924058294654028e+01 7.6284384407111872e-01 3.3268731045621031e+01 
1505 1506 2 1.0279999999976046e+00 6.5300168379726547e+03 1.0000000000000000e+00 2.0315463023224627e+01 7.1047667022591432e-01 3.3174127871094655e+01 
425 426 2 1.0279999999981417e+00 -6.6298209847116668e+03 1.0000000000000000e+00 2.0435639152774613e+01 6.9154818062300039e-01 3.3162145853576448e+01 
373 374 2 1.0279999999990690e+00 5.0174184587893751e+03 1.0000000000000000e+00 2.0676432328185069e+01 6.8164924483907907e-01 3.3146997051057468e+01 
121 122 2 1.0280000000254359e+00 4.9901149640984358e+03 1.0000000000000000e+00 2.2465238507168632e+01 7.2586672134202279e-01 3.3250680593081434e+01 
2183 2184 2 1.0279999999626577e+00 -1.1542007299602983e+03 1.0000000000000000e+00 2.3252609545327129e+01 6.7149982543759734e-01 3.3115297454893629e+01 
1757 1758 2 1.0280000000155489e+00 6.4954254693236162e+03 1.0000000000000000e+00 2.2677537671719346e+01 6.8483970755988188e-01 3.3249696744211512e+01 
758 759 2 1.0279999999919165e+00 -1.1485161382373276e+03 1.0000000000000000e+00 2.4141772581596570e+01 5.6546652337321723e-01 3.3160258210174995e+01 
797 798 2 1.0279999999966327e+00 -1.1553861472715598e+03 1.0000000000000000e+00 2.3644612317858524e+01 5.2978059913090769e-01 3.3250975042810353e+01 
2144 2145 2 1.0280000000074598e+00 -1.1480807416184039e+03 1.0000000000000000e+00 2.5200816176001329e+01 5.9098524827002119e-01 3.3400835338016797e+01 
1987 1988 2 1.0279999999956868e+00 8.3424152414648579e+03 1.0000000000000000e+00 2.5832567191431448e+01 2.5245562140352265e+00 3.2036927761870636e+01 
2439 2440 2 1.0280000000462204e+00 -6.0453157275800550e+02 1.0000000000000000e+00 2.5942687384622747e+01 2.4988024248323244e+00 3.1777789948068772e+01 
2333 2334 2 1.0280000000466059e+00 -6.4296289206620513e+03 1.0000000000000000e+00 2.7341726606216085e+01 2.0783281141578653e+00 3.1927163767842195e+01 
2481 2482 2 1.0279999999853691e+00 -7.0494764761654023e+03 1.0000000000000000e+00 2.6161206289848813e+01 1.4940060360552165e+00 3.4168742007672002e+01 
171 172 2 1.0279999999868850e+00 -7.0464952546326713e+03 1.0000000000000000e+00 2.6341672322501857e+01 1.4052655636792317e+00 3.4211677483052839e+01 
1588 1589 2 1.0280000000031091e+00 3.3264755558957213e+03 1.0000000000000000e+00 2.9733671272996347e+01 2.6989746490565616e+00 3.1784961529369617e+01 
2274 2275 2 1.0280000000108778e+00 2.9957392185575227e+03 1.0000000000000000e+00 3.0324087033895939e+01 7.5472951042875325e-01 3.2805820402399611e+01 
1691 1692 2 1.0280000000343643e+00 8.6235316907083470e+03 1.0000000000000000e+00 2.9203249250375823e+01 1.2532949262444097e+00 3.1569515986973489e+01 
2022 2023 2 1.0280000000087191e+00 -9.7681478662944810e+03 1.0000000000000000e+00 3.0646148177898013e+01 8.8329658971091651e-01 3.3164958032370862e+01 
2021 2022 2 1.0280000000122611e+00 -6.3923442933356910e+03 1.0000000000000000e+00 3.0760389172415948e+01 6.8416351641306239e-01 3.3182852567742231e+01 
2456 2457 2 1.0279999999758080e+00 7.0718197792838491e+03 1.0000000000000000e+00 3.0902728628368404e+01 2.0748271705403187e+00 3.2587410209635749e+01 
2621 2622 2 1.0280000000393368e+00 6.5036492553010812e+03 1.0000000000000000e+00 3.2334658666533969e+01 5.5674043913168370e-01 3.1918845048186270e+01 
1971 1972 2 1.0279999999982115e+00 1.2756109343210126e+03 1.0000000000000000e+00 3.3101299761140822e+01 1.6758275550111701e+00 3.3868364794077969e+01 
1021 1022 2 1.0280000000132590e+00 1.4219439135862567e+03 1.0000000000000000e+00 3.1211945643005404e+01 8.8632039824173586e-02 3.2603567469941140e+01 
2438 2439 2 1.0280000000044687e+00 -3.3982118751968474e+03 1.0000000000000000e+00 3.2951346082223615e+01 2.6310914366997813e+00 3.4246978163715973e+01 
2120 2121 2 1.0279999999968386e+00 -1.0436973886762229e+04 1.0000000000000000e+00 5.8272243183132302e+00 3.1194274506619171e+00 3.4158229519714574e+01 
893 894 2 1.0280000000017790e+00 -8.6275456188097342e+03 1.0000000000000000e+00 1.1130156743398567e+01 4.9891315513062322e+00 3.1572238505014223e+01 
144 145 2 1.0280000000033103e+00 7.8258298719087952e+03 1.0000000000000000e+00 1.1419752508814422e+01 4.9244167223054234e+00 3.1505932936616979e+01 
103 104 2 1.0279999999902403e+00 1.3143568511970675e+03 1.0000000000000000e+00 1.6542599508354609e+01 4.5673432633762783e+00 3.1627694571999900e+01 
1022 1023 2 1.0279999999906946e+00 5.7117996556390062e+03 1.0000000000000000e+00 1.6842089289973174e+01 4.5104228422524262e+00 3.1567189913595222e+01 
1985 1986 2 1.0279999999777090e+00 7.1222828280369067e+03 1.0000000000000000e+00 2.1100074703595688e+01 3.4536811300023720e+00 3.1626166831889151e+01 
1484 1485 2 1.0280000000391443e+00 5.7103834536549330e+03 1.0000000000000000e+00 2.2105024186997081e+01 3.4975662096495888e+00 3.1551610691953567e+01 
2200 2201 2 1.0279999999911120e+00 1.5329096210858906e+03 1.0000000000000000e+00 2.2401484178624163e+01 3.1111916570221143e+00 3.1716417525783328e+01 
814 815 2 1.0280000000244607e+00 1.5457485175048901e+03 1.0000000000000000e+00 2.4379314846937550e+01 2.9723282082133471e+00 3.1726049380700804e+01 
2230 2231 2 1.0279999999940679e+00 -3.0792119120847328e+03 1.0000000000000000e+00 2.4425775230566405e+01 2.9932995366993018e+00 3.1942239424140599e+01 
4 5 2 1.0280000000247478e+00 -6.9566340160265208e+03 1.0000000000000000e+00 2.4246580003736661e+01 2.9954117562423614e+00 3.1715010649473850e+01 
599 600 2 1.0280000000331346e+00 7.1159928640388298e+03 1.0000000000000000e+00 2.3561844467212893e+01 3.0244675606942062e+00 3.1606877361077999e+01 
2239 2240 2 1.0280000000040814e+00 1.8735481817414843e+03 1.0000000000000000e+00 2.9824444031419816e+01 2.8584567695414869e+00 3.1741166577279134e+01 
10 11 2 1.0280000000086145e+00 -6.1590081473001665e+03 1.0000000000000000e+00 3.1105466002645535e+01 4.0080489246059772e+00 3.2092580574914756e+01 
85 86 2 1.0280000000000549e+00 -5.7136152675719477e+03 1.0000000000000000e+00 3.3267104603203379e+01 4.3782048312007866e+00 3.2475767311286695e+01 
635 636 2 1.0280000000001852e+00 -6.4060060469233304e+03 1.0000000000000000e+00 3.3051554145960253e+01 3.7934976293017089e+00 3.3833064738335125e+01 
385 386 2 1.0280000000001086e+00 3.8032318974119653e+03 1.0000000000000000e+00 3.8149464779923763e+00 6.0122949362298153e+00 3.1618387120977669e+01 
132 133 2 1.0280000000002054e+00 2.4739443744220506e+02 1.0000000000000000e+00 3.7074460164438880e+00 6.0222957421963592e+00 3.1584514078334468e+01 
414 415 2 1.0280000000005451e+00 3.6633562468704122e+03 1.0000000000000000e+00 4.7727565766055760e+00 6.1828374978453722e+00 3.1686148938354286e+01 
951 952 2 1.0279999999924665e+00 -6.5169928012689297e+02 1.0000000000000000e+00 8.4950440055370813e-01 2.7356403264245204e+00 3.4511966038986913e+01 
1042 1043 2 1.0279999999956999e+00 4.3464612414181311e+03 1.0000000000000000e+00 1.9594646259321427e+00 2.4671956100029226e+00 3.4437625815581370e+01 
1339 1340 2 1.0279999999981708e+00 5.6201760908034139e+03 1.0000000000000000e+00 2.7302911967982793e+00 2.6792701431487727e+00 3.4843111710730732e+01 
1300 1301 2 1.0279999999968883e+00 4.3809795869278096e+03 1.0000000000000000e+00 5.6721311694140732e+00 1.9355425397577495e+00 3.4302022406343490e+01 
2044 2045 2 1.0280000000123770e+00 -7.1774130353868677e+03 1.0000000000000000e+00 7.8750062866046795e+00 2.6604746497368530e+00 3.4347484165934134e+01 
2038 2039 2 1.0280000000025737e+00 -3.8974588843424144e+03 1.0000000000000000e+00 9.6857358093087953e+00 2.7787127809877838e+00 3.4683937692059231e+01 
2036 2037 2 1.0280000000051768e+00 -1.0438641676544594e+04 1.0000000000000000e+00 9.8413836726770612e+00 2.6542258957716331e+00 3.4837299044872566e+01 
2256 2257 2 1.0279999999992908e+00 1.8990938614148172e+03 1.0000000000000000e+00 1.0561687690255006e+01 2.4388537960910748e+00 3.5019708274103678e+01 
173 174 2 1.0279999999996514e+00 -1.2666138811511710e+01 1.0000000000000000e+00 1.1271980047684377e+01 2.3481583011260163e+00 3.5384034351433264e+01 
1571 1572 2 1.0280000000066682e+00 -3.0310801730623230e+03 1.0000000000000000e+00 1.2369901592299335e+01 2.2761626487260629e+00 3.5411991918170564e+01 
149 150 2 1.0280000000059395e+00 7.2297601864860790e+03 1.0000000000000000e+00 1.2310989533038198e+01 2.2822087471466466e+00 3.5424855923297670e+01 
870 871 2 1.0280000000037921e+00 1.9154233637486336e+03 1.0000000000000000e+00 1.2073962644922176e+01 2.3123908902154064e+00 3.5461792846766890e+01 
1504 1505 2 1.0280000000063874e+00 4.3269099674189511e+03 1.0000000000000000e+00 1.2590797836270113e+01 1.7309381578152627e+00 3.4472598825935357e+01 
2277 2278 2 1.0280000000138436e+00 -6.5507324072242354e+03 1.0000000000000000e+00 1.6627843826590951e+01 1.3696300069719065e+00 3.4420263611958752e+01 
652 653 2 1.0280000000132659e+00 -3.9090016266522516e+03 1.0000000000000000e+00 1.6732317689855268e+01 1.3499038773486856e+00 3.4381525989902748e+01 
2232 2233 2 1.0280000000131773e+00 3.8009717860195315e+03 1.0000000000000000e+00 1.8772305700321123e+01 1.1710133859677752e+00 3.5209417693528110e+01 
846 847 2 1.0279999999885863e+00 3.7720151413804970e+03 1.0000000000000000e+00 1.7536141850081513e+01 1.1852255538731820e+00 3.5357553200719330e+01 
1085 1086 2 1.0279999999892671e+00 9.9950900720032187e+03 1.0000000000000000e+00 1.7612335851808364e+01 1.1792360099447408e+00 3.5366912412303570e+01 
1253 1254 2 1.0279999999894203e+00 9.9514054490360686e+03 1.0000000000000000e+00 1.7630061568049236e+01 1.1737029699510579e+00 3.5367882821227582e+01 
1508 1509 2 1.0279999999847049e+00 -2.3041147473767460e+03 1.0000000000000000e+00 2.1005458436107453e+01 1.0810958251197169e+00 3.5437615594094027e+01 
24 25 2 1.0279999999952851e+00 -5.0335606770197028e+03 1.0000000000000000e+00 2.1144345420715712e+01 7.7257554178749888e-01 3.5846437481246973e+01 
1688 1689 2 1.0279999999995764e+00 9.8637411916532401e+03 1.0000000000000000e+00 2.1230711007026091e+01 7.5409828531853995e-01 3.5964564134440344e+01 
389 390 2 1.0280000000070262e+00 1.6875561274071638e+03 1.0000000000000000e+00 2.1680844550958355e+01 5.1633743578817426e-01 3.6391576220267503e+01 
931 932 2 1.0280000000066511e+00 -6.5856273606417108e+03 1.0000000000000000e+00 2.1782282740271608e+01 4.6032136373383936e-01 3.6424926849674264e+01 
869 870 2 1.0279999999964344e+00 1.6831482075109088e+03 1.0000000000000000e+00 2.4924995771377443e+01 1.5322630014304652e+00 3.5546970013686952e+01 
1015 1016 2 1.0280000000054170e+00 4.4920393724132409e+03 1.0000000000000000e+00 2.3619159030712453e+01 7.9594275450137220e-01 3.5317597323054372e+01 
1393 1394 2 1.0280000000041252e+00 -6.6076056645590052e+03 1.0000000000000000e+00 2.3315869228847045e+01 2.6795231918603568e-01 3.6556132625921769e+01 
1967 1968 2 1.0280000000017475e+00 3.9388931257729537e+03 1.0000000000000000e+00 2.4791859816647150e+01 2.3007286596805268e-01 3.6056547826005932e+01 
151 152 2 1.0279999999998908e+00 7.9108115164081373e+03 1.0000000000000000e+00 2.2949995743649907e+01 1.2519087956072243e+00 3.7123279796652284e+01 
1046 1047 2 1.0280000000677043e+00 -2.3460153771433124e+03 1.0000000000000000e+00 2.6941006352385976e+01 5.9529886888364925e-01 3.6030245882658669e+01 
5 6 2 1.0279999999589933e+00 -6.6910388251898421e+03 1.0000000000000000e+00 2.7371991357077004e+01 4.7604770211180841e-01 3.5541428063563345e+01 
208 209 2 1.0279999999963840e+00 -7.0282649680776703e+03 1.0000000000000000e+00 2.6589720730712290e+01 4.3575090656666027e-01 3.4427432771176527e+01 
2518 2519 2 1.0280000000005591e+00 -7.0306406045717340e+03 1.0000000000000000e+00 2.6403958207232801e+01 3.9002757039095104e-01 3.4300553797171737e+01 
1226 1227 2 1.0280000000117686e+00 9.8771114845775373e+03 1.0000000000000000e+00 2.5827156410151655e+01 5.9821171102972526e-01 3.6990770614968419e+01 
581 582 2 1.0280000000225911e+00 3.9452434121216388e+03 1.0000000000000000e+00 2.8702861515977013e+01 3.2753123993558070e-01 3.6126931079209768e+01 
1715 1716 2 1.0280000000492899e+00 9.9714320089908269e+03 1.0000000000000000e+00 2.9554478794758477e+01 1.3519490108210852e-01 3.6352777625325260e+01 
2699 2700 2 1.0279999999865803e+00 1.6531526972788593e+03 1.0000000000000000e+00 2.9228334652305424e+01 1.2971195455137413e-01 3.6471034303312393e+01 
1547 1548 2 1.0279999999862668e+00 9.9549702007034539e+03 1.0000000000000000e+00 2.9232828735669464e+01 1.2436206943524825e-01 3.6469576717551234e+01 
937 938 2 1.0279999999973075e+00 -6.9997085462967734e+03 1.0000000000000000e+00 2.9514957317684303e+01 1.1531451712530894e-01 3.6400895816368667e+01 
2588 2589 2 1.0279999999910212e+00 8.5838349638813293e+02 1.0000000000000000e+00 3.1893212550283671e+01 2.8897609190556828e-01 3.6986728057360047e+01 
1399 1400 2 1.0279999999918616e+00 -6.9700774836462424e+03 1.0000000000000000e+00 3.2369602819942664e+01 3.8369237828664421e-01 3.7103090540195502e+01 
158 159 2 1.0280000000008982e+00 1.3152626375714353e+04 1.0000000000000000e+00 8.4659983285916940e-01 2.9807434461118261e+00 3.4874022949210747e+01 
1762 1763 2 1.0280000000016429e+00 4.3916966391561091e+03 1.0000000000000000e+00 5.4127443918475926e-01 3.1016398470713442e+00 3.4804892640913359e+01 
30 31 2 1.0280000000028013e+00 -8.2555682237346882e+03 1.0000000000000000e+00 9.8053830943418435e-02 2.9753591219953583e+00 3.5098768574655814e+01 