LAMMPS data file via write_data, version 30 Jul 2016, timestep = 50400000

2772 atoms
8 atom types

0.0000000000000000e+00 1.0000000000000000e+02 xlo xhi
0.0000000000000000e+00 4.0000000000000000e+01 ylo yhi
0.0000000000000000e+00 4.0000000000000000e+01 zlo zhi

Masses

1 3.896
2 5.36
3 20.064
4 8.378
5 8.378
6 8.378
7 8.378
8 8.378

Atoms # meso-molecular

2194 2195 2 1.0280000000013623e+00 5.5235179201398278e+03 1.0000000000000000e+00 1.7021226011494213e+00 5.3246698008658111e+00 2.8021037353070753e+01 
1706 1707 2 1.0280000000002527e+00 6.5421763258878564e+03 1.0000000000000000e+00 1.2548637119572874e+00 5.5288828494296371e+00 2.8283941160528659e+01 
517 518 2 1.0280000000010296e+00 1.8686344171228307e+03 1.0000000000000000e+00 1.5900276239442075e+00 4.9970839066961306e+00 2.8407050215923949e+01 
2737 2738 2 1.0280000000000686e+00 -5.2734828512411168e+03 1.0000000000000000e+00 3.3313183780728033e+00 5.3629344341045107e+00 2.8167701421009166e+01 
2749 2750 2 1.0279999999994758e+00 -5.2485195867309176e+03 1.0000000000000000e+00 9.3602899678041296e-01 6.4217802052404611e+00 2.8477379049051208e+01 
606 607 2 1.0279999999987550e+00 7.9239425119796661e+03 1.0000000000000000e+00 3.4984840601463540e+00 6.0449907510383190e+00 2.7878814979973264e+01 
443 444 2 1.0279999999987925e+00 -6.3686380854245890e+03 1.0000000000000000e+00 3.4433869125418544e+00 6.2805728308333357e+00 2.7869635419390129e+01 
1717 1718 2 1.0279999999992782e+00 1.6099255837001490e+02 1.0000000000000000e+00 3.3823825777291217e+00 6.6453235647038174e+00 2.8014888649426233e+01 
808 809 2 1.0279999999999629e+00 5.5492101586718691e+03 1.0000000000000000e+00 5.7975679209680564e+00 6.4012192306248350e+00 2.8364149810220628e+01 
290 291 2 1.0279999999979517e+00 9.5329766434193132e+01 1.0000000000000000e+00 6.5208440200940299e+00 6.0259050151131275e+00 2.8251099477675034e+01 
351 352 2 1.0279999999982374e+00 -2.8213972506569944e+03 1.0000000000000000e+00 7.1916580152199057e+00 6.6248887737280038e+00 2.8382060005411198e+01 
719 720 2 1.0279999999987512e+00 -6.4503721897377109e+03 1.0000000000000000e+00 1.3882829009797543e+01 6.5549873939580339e+00 2.7972075382454612e+01 
720 721 2 1.0279999999986282e+00 -9.8004322942770341e+03 1.0000000000000000e+00 1.4053310392464262e+01 6.6822984906389102e+00 2.7927546892013609e+01 
352 353 2 1.0279999999987850e+00 4.1639330153365313e+02 1.0000000000000000e+00 1.4696074224330390e+01 6.7692640718741126e+00 2.8012917589992743e+01 
2662 2663 2 1.0280000000097231e+00 3.9029444982620373e+02 1.0000000000000000e+00 2.6928357305403711e+01 1.4563170005537338e+00 3.0852403916903352e+01 
2023 2024 2 1.0280000000183478e+00 -9.4606113107453439e+03 1.0000000000000000e+00 2.6763523468501202e+01 1.5610253831586218e+00 3.0943908519961422e+01 
1561 1562 2 1.0279999999931742e+00 -1.0082175302926003e+04 1.0000000000000000e+00 2.8094614428363627e+01 1.4679161470101301e+00 3.0580131368191058e+01 
2753 2754 2 1.0279999999916010e+00 -6.4055486723470149e+03 1.0000000000000000e+00 2.8157331816939628e+01 1.1834349612514741e+00 3.0739429736778195e+01 
2184 2185 2 1.0279999999938580e+00 -7.6211517040737290e+03 1.0000000000000000e+00 2.8145446242009946e+01 1.0670282491264702e+00 3.0879272203695336e+01 
2606 2607 2 1.0279999999983775e+00 -3.4066265984366555e+03 1.0000000000000000e+00 3.3016587044377616e+01 2.6024352139832545e+00 2.8872785506748908e+01 
424 425 2 1.0280000000021208e+00 -6.9644107051149495e+03 1.0000000000000000e+00 3.2524553971179095e+01 2.7436897911224598e+00 2.8908298547559266e+01 
562 563 2 1.0280000000004244e+00 1.5136703829997991e+03 1.0000000000000000e+00 3.2663572495793993e+01 2.7645404625670622e+00 2.8866856521534260e+01 
2607 2608 2 1.0279999999983858e+00 -6.1187112080544512e+02 1.0000000000000000e+00 3.2899649199617052e+01 2.6229187234517495e+00 2.8860932212488184e+01 
1011 1012 2 1.0279999999914329e+00 4.2911611607310979e+03 1.0000000000000000e+00 1.3075127560620818e+00 4.7703277970771207e+00 2.9568271134520941e+01 
2449 2450 2 1.0280000000002156e+00 7.5134313293352416e+03 1.0000000000000000e+00 2.2071370126171641e+00 4.9040755032701080e+00 3.0646422384260482e+01 
1566 1567 2 1.0280000000004070e+00 3.1785234030507010e+04 1.0000000000000000e+00 2.2402716846809652e+00 4.8919110412058542e+00 3.0641028414629911e+01 
2485 2486 2 1.0280000000005123e+00 -8.5634509590754824e+03 1.0000000000000000e+00 2.2547561552844813e+00 4.8767198494091017e+00 3.0622321640415553e+01 
2240 2241 2 1.0279999999987328e+00 1.7877458074338915e+03 1.0000000000000000e+00 4.9405904925836053e+00 4.4701168762982828e+00 3.0774524715694234e+01 
2241 2242 2 1.0279999999986842e+00 3.8443505312277566e+03 1.0000000000000000e+00 4.5841738738591760e+00 4.4853044736827954e+00 3.0778156642274450e+01 
1697 1698 2 1.0279999999995288e+00 6.3883845081084855e+03 1.0000000000000000e+00 5.1719174902296396e+00 4.8105710306254652e+00 2.9579711672355856e+01 
268 269 2 1.0279999999987735e+00 2.0810250013390327e+04 1.0000000000000000e+00 5.3713160569580598e+00 4.4898243819169883e+00 3.0755974240984504e+01 
1902 1903 2 1.0280000000015608e+00 3.2276370106453714e+03 1.0000000000000000e+00 7.3959661723401258e+00 5.0857528142341266e+00 2.9766259684753827e+01 
1379 1380 2 1.0280000000030076e+00 2.9154277094680252e+04 1.0000000000000000e+00 6.9949308987962580e+00 5.1344001271447324e+00 3.0534772881831710e+01 
2376 2377 2 1.0279999999976708e+00 3.0643577770182742e+03 1.0000000000000000e+00 7.2573157165871560e+00 5.5682723455456147e+00 2.8589039512382001e+01 
127 128 2 1.0280000000035976e+00 -8.4776808425166055e+03 1.0000000000000000e+00 1.0805922036172614e+01 3.8498162196221370e+00 3.0943752248285371e+01 
2658 2659 2 1.0279999999998257e+00 3.0235256555300812e+03 1.0000000000000000e+00 9.6207958561079678e+00 5.3206055283058378e+00 3.0053441552197242e+01 
2413 2414 2 1.0280000000025522e+00 1.2883482996568905e+03 1.0000000000000000e+00 9.7745006297801584e+00 5.0536760101301379e+00 3.1211990490133896e+01 
2718 2719 2 1.0280000000025569e+00 1.5906232055653099e+03 1.0000000000000000e+00 9.7800304974407499e+00 5.0340520763351515e+00 3.1214422839203017e+01 
1674 1675 2 1.0280000000025300e+00 -1.0164712220517576e+04 1.0000000000000000e+00 9.7811216402693439e+00 5.0354900213533851e+00 3.1215875691176286e+01 
141 142 2 1.0280000000009442e+00 9.0673103124724548e+03 1.0000000000000000e+00 1.2409668826986588e+01 3.1131186690168575e+00 3.0550073853821008e+01 
2186 2187 2 1.0280000000012917e+00 8.8513998791949434e+03 1.0000000000000000e+00 1.2134303099184402e+01 3.1479595949574821e+00 3.0552674515696928e+01 
959 960 2 1.0280000000025185e+00 2.9141665694845480e+04 1.0000000000000000e+00 1.3164013105032401e+01 3.2820658282283639e+00 3.0497749425358897e+01 
1521 1522 2 1.0279999999953700e+00 1.5012935792556422e+04 1.0000000000000000e+00 1.2937237787756942e+01 3.6429069049107099e+00 2.9469374604068179e+01 
2388 2389 2 1.0279999999943747e+00 3.6349278130645398e+03 1.0000000000000000e+00 1.2781907956297303e+01 4.1298230244143550e+00 2.9347254629633799e+01 
2303 2304 2 1.0279999999940959e+00 3.2755642907226036e+04 1.0000000000000000e+00 1.2767068073766252e+01 4.3789917359223134e+00 2.9350155272006710e+01 
585 586 2 1.0280000000140441e+00 1.2878655222324087e+03 1.0000000000000000e+00 1.2799665517474477e+01 4.6099477726124451e+00 3.1033954458775067e+01 
66 67 2 1.0279999999921290e+00 3.0599774979689273e+03 1.0000000000000000e+00 1.4352837438329979e+01 5.1714233902228486e+00 2.9101116992601089e+01 
1836 1837 2 1.0279999999966842e+00 -6.7258185981629922e+03 1.0000000000000000e+00 1.6003329043316942e+01 4.9076935522849299e+00 2.9891659690197930e+01 
146 147 2 1.0280000000223655e+00 7.0762737589266017e+03 1.0000000000000000e+00 1.5150452444149682e+01 4.3954208291154719e+00 3.0947981695549945e+01 
142 143 2 1.0280000000065102e+00 7.3756392101755664e+03 1.0000000000000000e+00 1.5450455370918451e+01 4.5682817431757998e+00 3.1259339205282380e+01 
844 845 2 1.0280000000048053e+00 -3.0833170582707044e+03 1.0000000000000000e+00 1.5525214639359422e+01 4.5687991679232534e+00 3.1320462776980953e+01 
2614 2615 2 1.0280000000029621e+00 1.0212613750194920e+04 1.0000000000000000e+00 1.7400960024667562e+01 3.8077530862261537e+00 3.0076865980837262e+01 
2740 2741 2 1.0280000000009148e+00 -6.1726790693491675e+03 1.0000000000000000e+00 1.7279310256665660e+01 3.9210292230493509e+00 2.9977354382584082e+01 
1957 1958 2 1.0280000000336120e+00 2.7314409191855384e+03 1.0000000000000000e+00 1.7930394588919018e+01 3.8999805661793809e+00 3.0421546072398215e+01 
2617 2618 2 1.0280000000273062e+00 7.5122144280257507e+03 1.0000000000000000e+00 1.7901992593254953e+01 3.9106910333552221e+00 3.0361451584171324e+01 
2410 2411 2 1.0279999999927620e+00 5.5056102769782410e+02 1.0000000000000000e+00 2.0826897314808004e+01 2.9562562320502428e+00 3.0486578868128603e+01 
1991 1992 2 1.0280000000038383e+00 5.8460243205813131e+03 1.0000000000000000e+00 2.1543657115365921e+01 3.1774028768541034e+00 3.0505065134935410e+01 
2107 2108 2 1.0280000000193059e+00 -9.4235480003557059e+03 1.0000000000000000e+00 1.9987925859470611e+01 3.4458173916427155e+00 3.0603679746401060e+01 
1937 1938 2 1.0280000000175684e+00 -1.5145963100181766e+03 1.0000000000000000e+00 2.0043970631804637e+01 3.4924724979689867e+00 3.0514914925849961e+01 
2320 2321 2 1.0280000000028098e+00 -6.1453755389526395e+03 1.0000000000000000e+00 2.0435701883853817e+01 3.9077675932555107e+00 3.0718362801093047e+01 
367 368 2 1.0280000000023499e+00 3.0890097666231654e+03 1.0000000000000000e+00 3.0344493441227534e+01 4.1837262214093913e+00 3.0894248920496636e+01 
852 853 2 1.0280000000012819e+00 3.1859708866134661e+03 1.0000000000000000e+00 3.0442433704106907e+01 4.3269256999007020e+00 3.1035150574662428e+01 
72 73 2 1.0280000000142180e+00 1.5413975541431701e+03 1.0000000000000000e+00 3.0713481573328803e+01 3.6000053218514574e+00 3.0201843069226069e+01 
456 457 2 1.0280000000092142e+00 -5.3345670648866308e+03 1.0000000000000000e+00 3.1400371260894904e+01 3.7818615990180664e+00 2.9681743798255390e+01 
468 469 2 1.0279999999944782e+00 2.9507056125669051e+03 1.0000000000000000e+00 3.2852315757072418e+01 3.9031992293000717e+00 2.9814702276091641e+01 
1229 1230 2 1.0279999999943867e+00 8.6235399914711816e+03 1.0000000000000000e+00 3.2635929114203321e+01 4.5044679577992666e+00 3.1095509180030973e+01 
2437 2438 2 1.0280000000011014e+00 -8.4779622881956093e+03 1.0000000000000000e+00 3.1485027039830985e+01 4.7100753672152695e+00 3.1347563679648324e+01 
2491 2492 2 1.0279999999992990e+00 4.3042217697323722e+03 1.0000000000000000e+00 1.2731610925824322e+00 8.2874595152514949e+00 2.9660728575532701e+01 
91 92 2 1.0279999999985854e+00 6.5501772248186116e+03 1.0000000000000000e+00 1.9734461945263764e+00 8.0727452570197062e+00 2.9712169036356876e+01 
1296 1297 2 1.0279999999985088e+00 4.2348054389518475e+03 1.0000000000000000e+00 2.0254426495937503e+00 8.0415555090958524e+00 2.9675294098429454e+01 
139 140 2 1.0280000000024028e+00 7.5159247823681308e+03 1.0000000000000000e+00 1.0849929388724560e+00 7.6523045267111076e+00 3.0882458317602534e+01 
138 139 2 1.0280000000039342e+00 8.3454150061599867e+03 1.0000000000000000e+00 1.8794664444933014e+00 6.6003746640085765e+00 3.1132346452863541e+01 
1355 1356 2 1.0280000000001976e+00 -7.8487550495714067e+03 1.0000000000000000e+00 3.2560413627894608e-01 6.2791014504839442e+00 3.1164888112352777e+01 
855 856 2 1.0279999999999774e+00 3.8546912972305117e+03 1.0000000000000000e+00 5.6357108525869094e-02 7.8356054682795078e+00 2.9906947540347360e+01 
1772 1773 2 1.0280000000004008e+00 4.7514309211345872e+03 1.0000000000000000e+00 3.0129812775867344e+00 7.4065902747593038e+00 2.9449836362011869e+01 
1672 1673 2 1.0280000000039620e+00 3.3026787714591228e+03 1.0000000000000000e+00 4.4632781281944203e+00 6.8572589265916921e+00 2.9234319247635135e+01 
1480 1481 2 1.0280000000002512e+00 5.7477890698257015e+03 1.0000000000000000e+00 5.0405812325102888e+00 6.6298168937041169e+00 3.1274860599289816e+01 
605 606 2 1.0280000000014071e+00 5.8372349811995064e+03 1.0000000000000000e+00 6.7398343037506558e+00 5.9032680164122660e+00 3.0982023080078427e+01 
584 585 2 1.0279999999991907e+00 -1.4906018951794204e+03 1.0000000000000000e+00 6.1685143751572173e+00 6.7074028350427248e+00 3.0828659821368927e+01 
430 431 2 1.0280000000039082e+00 -6.1755732895682067e+03 1.0000000000000000e+00 8.1068025505764076e+00 6.7891455740873141e+00 2.9077836312167086e+01 
137 138 2 1.0280000000031939e+00 1.3115405666041341e+04 1.0000000000000000e+00 7.9045463447932018e+00 6.9242212355557351e+00 2.9354547259954177e+01 
516 517 2 1.0280000000002514e+00 3.2211866339336093e+03 1.0000000000000000e+00 5.9918707256340831e+00 7.1347435263841517e+00 2.9410121175490584e+01 
836 837 2 1.0279999999961520e+00 -1.4917557193036059e+03 1.0000000000000000e+00 1.0689692386106211e+01 6.7335905211138805e+00 2.9066074245327478e+01 
1421 1422 2 1.0280000000023886e+00 2.9146074265738564e+04 1.0000000000000000e+00 1.0036618738531741e+01 7.1724993127943142e+00 2.9386668491627940e+01 
800 801 2 1.0280000000010374e+00 8.8574830754121558e+03 1.0000000000000000e+00 1.0360158906055307e+01 7.3295830026335524e+00 2.9377708930518736e+01 
2451 2452 2 1.0280000000010356e+00 9.0658081798281091e+03 1.0000000000000000e+00 1.0360685403075941e+01 7.3297918443624761e+00 2.9377694848766527e+01 
721 722 2 1.0280000000046241e+00 -9.4242700450595912e+03 1.0000000000000000e+00 1.3398312350463776e+01 7.0937367080413383e+00 2.9736037939617454e+01 
1227 1228 2 1.0279999999972542e+00 1.4985429076523305e+04 1.0000000000000000e+00 1.1637774418911347e+01 7.2008413940274378e+00 2.9914538758163747e+01 
857 858 2 1.0280000000073131e+00 3.0355095748294834e+03 1.0000000000000000e+00 1.2284269798163981e+01 7.3224617650491099e+00 2.9448915809388950e+01 
2505 2506 2 1.0280000000073171e+00 2.0845718250856200e+04 1.0000000000000000e+00 1.2655950452722550e+01 7.3334195247379972e+00 2.9434931391672166e+01 
1676 1677 2 1.0280000000020404e+00 -6.4859815198035212e+03 1.0000000000000000e+00 1.5207131247674473e+01 6.6794491554970268e+00 2.8884064417336756e+01 
798 799 2 1.0280000000013059e+00 -7.6139997844829595e+03 1.0000000000000000e+00 1.5156597563139186e+01 6.8119097595884632e+00 2.8630771292197910e+01 
1302 1303 2 1.0280000000028471e+00 -1.0906138060029156e+02 1.0000000000000000e+00 1.4503071533618536e+01 7.1626721678752219e+00 2.9483090453863493e+01 
2226 2227 2 1.0279999999998295e+00 -9.7286607758860055e+02 1.0000000000000000e+00 3.7192903499981833e+00 2.0176339113582915e+00 3.3570968664442823e+01 
552 553 2 1.0280000000003697e+00 4.6670438197906860e+03 1.0000000000000000e+00 3.4185134962202839e+00 2.0457147675554759e+00 3.3636510720463626e+01 
762 763 2 1.0279999999998659e+00 -3.5990879263695424e+03 1.0000000000000000e+00 3.1564956466952405e+00 2.0910672875478249e+00 3.3721466172480056e+01 
2219 2220 2 1.0279999999997802e+00 3.8782590834764633e+03 1.0000000000000000e+00 3.8853998695802776e+00 1.5848199805291103e+00 3.4004409984659041e+01 
1357 1358 2 1.0279999999972416e+00 -6.8931030412195669e+03 1.0000000000000000e+00 5.6911949629910579e+00 2.2081220806883519e+00 3.3966841910552006e+01 
2145 2146 2 1.0279999999953033e+00 5.8638729734065555e+02 1.0000000000000000e+00 8.4227577427851443e+00 2.5187352405854724e+00 3.4128593748638266e+01 
891 892 2 1.0279999999993630e+00 -6.5421979888569167e+03 1.0000000000000000e+00 8.4760488004540946e+00 2.7985371815863318e+00 3.4133695378286980e+01 
1388 1389 2 1.0279999999956229e+00 -6.4583937419774088e+02 1.0000000000000000e+00 8.5199088681865938e+00 2.4986463085214390e+00 3.4128979067603716e+01 
2150 2151 2 1.0280000000017049e+00 1.3527669581681143e+04 1.0000000000000000e+00 1.3754420076007198e+01 1.2894309554857062e+00 3.4281257245848394e+01 
2468 2469 2 1.0280000000013563e+00 1.3145082049618428e+04 1.0000000000000000e+00 1.4108258916022217e+01 1.2649740099048135e+00 3.4232358084132443e+01 
1301 1302 2 1.0280000000035434e+00 -5.1757346041535789e+02 1.0000000000000000e+00 1.4508339320938125e+01 1.7852836997395594e+00 3.4119003910716813e+01 
926 927 2 1.0280000000030720e+00 -6.5013308640543096e+02 1.0000000000000000e+00 1.4907578238815994e+01 1.6579442179063915e+00 3.4238017061762100e+01 
2603 2604 2 1.0280000000009519e+00 2.2140674615369530e+03 1.0000000000000000e+00 1.4970619606612495e+01 1.6119400771723820e+00 3.4254707420194109e+01 
623 624 2 1.0280000000150511e+00 1.3665898250014699e+04 1.0000000000000000e+00 1.8828686969036539e+01 1.0815892099808633e+00 3.3690965326698667e+01 
1595 1596 2 1.0280000000088423e+00 3.8552546462622313e+03 1.0000000000000000e+00 1.9006307307871218e+01 1.6368852347047635e+00 3.4147197696876169e+01 
791 792 2 1.0280000000017280e+00 1.3633689108312232e+04 1.0000000000000000e+00 1.9924076382574547e+01 7.6283321622987943e-01 3.3268713209028981e+01 
1505 1506 2 1.0279999999978933e+00 6.5300168379726547e+03 1.0000000000000000e+00 2.0315481044216781e+01 7.1046631532799576e-01 3.3174110313523606e+01 
425 426 2 1.0279999999981699e+00 -6.6298209847116668e+03 1.0000000000000000e+00 2.0435657119846319e+01 6.9153787965213886e-01 3.3162128338088955e+01 
373 374 2 1.0279999999991167e+00 5.0174184587893751e+03 1.0000000000000000e+00 2.0676450185416908e+01 6.8163904823271892e-01 3.3146979614103564e+01 
121 122 2 1.0280000000205007e+00 4.9901149640984358e+03 1.0000000000000000e+00 2.2465255319324712e+01 7.2585719763921819e-01 3.3250664190699958e+01 
2183 2184 2 1.0279999999714493e+00 -1.1542007299602983e+03 1.0000000000000000e+00 2.3252626338077800e+01 6.7149173954896613e-01 3.3115282761920369e+01 
1757 1758 2 1.0280000000128620e+00 6.4954254693236162e+03 1.0000000000000000e+00 2.2677554554733902e+01 6.8483031859929677e-01 3.3249680683120303e+01 
758 759 2 1.0279999999935472e+00 -1.1485161382373276e+03 1.0000000000000000e+00 2.4141788220214057e+01 5.6545837192956117e-01 3.3160244006400148e+01 
797 798 2 1.0279999999971758e+00 -1.1553861472715598e+03 1.0000000000000000e+00 2.3644628574889158e+01 5.2977209691571259e-01 3.3250960178175710e+01 
2144 2145 2 1.0280000000051985e+00 -1.1480807416184039e+03 1.0000000000000000e+00 2.5200830654486037e+01 5.9097693980175336e-01 3.3400822085520154e+01 
1987 1988 2 1.0279999999966327e+00 8.3424152414648579e+03 1.0000000000000000e+00 2.5832581297269289e+01 2.5245506318298672e+00 3.2036913850255907e+01 
2439 2440 2 1.0280000000364744e+00 -6.0453157275800550e+02 1.0000000000000000e+00 2.5942701902446245e+01 2.4987986662421289e+00 3.1777775298787322e+01 
2333 2334 2 1.0280000000390437e+00 -6.4296289206620513e+03 1.0000000000000000e+00 2.7341740293796505e+01 2.0783249531830297e+00 3.1927153528623268e+01 
2481 2482 2 1.0279999999893488e+00 -7.0494764761654023e+03 1.0000000000000000e+00 2.6161219623852766e+01 1.4939977621198910e+00 3.4168729810083114e+01 
171 172 2 1.0279999999905807e+00 -7.0464952546326713e+03 1.0000000000000000e+00 2.6341685458483912e+01 1.4052574949066770e+00 3.4211665372718862e+01 
1588 1589 2 1.0280000000022775e+00 3.3264755558957213e+03 1.0000000000000000e+00 2.9733677932324603e+01 2.6989746953520881e+00 3.1784956720530214e+01 
2274 2275 2 1.0280000000086236e+00 2.9957392185575227e+03 1.0000000000000000e+00 3.0324091646150844e+01 7.5472933458133773e-01 3.2805818001426196e+01 
1691 1692 2 1.0280000000230614e+00 8.6235316907083470e+03 1.0000000000000000e+00 2.9203258404015244e+01 1.2532913877741632e+00 3.1569507642967942e+01 
2022 2023 2 1.0280000000076399e+00 -9.7681478662944810e+03 1.0000000000000000e+00 3.0646152751027333e+01 8.8329712164330343e-01 3.3164956477319372e+01 
2021 2022 2 1.0280000000100666e+00 -6.3923442933356910e+03 1.0000000000000000e+00 3.0760393565281714e+01 6.8416380041205516e-01 3.3182851258664726e+01 
2456 2457 2 1.0279999999819571e+00 7.0718197792838491e+03 1.0000000000000000e+00 3.0902733593522949e+01 2.0748278458873530e+00 3.2587407440807659e+01 
2621 2622 2 1.0280000000320477e+00 6.5036492553010812e+03 1.0000000000000000e+00 3.2334662180694316e+01 5.5674210326818496e-01 3.1918842496631157e+01 
1971 1972 2 1.0279999999967779e+00 1.2756109343210126e+03 1.0000000000000000e+00 3.3101302092950625e+01 1.6758293350103588e+00 3.3868364564190102e+01 
1021 1022 2 1.0280000000100611e+00 1.4219439135862567e+03 1.0000000000000000e+00 3.1211949373745750e+01 8.8631559794717957e-02 3.2603565758116702e+01 
2438 2439 2 1.0280000000040403e+00 -3.3982118751968474e+03 1.0000000000000000e+00 3.2951347098134427e+01 2.6310929105568226e+00 3.4246978188680202e+01 
2120 2121 2 1.0279999999978704e+00 -1.0436973886762229e+04 1.0000000000000000e+00 5.8272431937674751e+00 3.1194074769793891e+00 3.4158202923305147e+01 
893 894 2 1.0280000000015659e+00 -8.6275456188097342e+03 1.0000000000000000e+00 1.1130181785487878e+01 4.9891140860254275e+00 3.1572190226673957e+01 
144 145 2 1.0280000000027831e+00 7.8258298719087952e+03 1.0000000000000000e+00 1.1419777592915954e+01 4.9243993458936020e+00 3.1505884789275985e+01 
103 104 2 1.0279999999930429e+00 1.3143568511970675e+03 1.0000000000000000e+00 1.6542620389489255e+01 4.5673299263827820e+00 3.1627653277032518e+01 
1022 1023 2 1.0279999999934155e+00 5.7117996556390062e+03 1.0000000000000000e+00 1.6842109855107505e+01 4.5104096692530344e+00 3.1567149000834014e+01 
1985 1986 2 1.0279999999825704e+00 7.1222828280369067e+03 1.0000000000000000e+00 2.1100093770500528e+01 3.4536715426942042e+00 3.1626140080941816e+01 
1484 1485 2 1.0280000000299867e+00 5.7103834536549330e+03 1.0000000000000000e+00 2.2105041874684332e+01 3.4975594633455631e+00 3.1551587712303366e+01 
2200 2201 2 1.0279999999912330e+00 1.5329096210858906e+03 1.0000000000000000e+00 2.2401500843268373e+01 3.1111836366263361e+00 3.1716394977912341e+01 
814 815 2 1.0280000000191891e+00 1.5457485175048901e+03 1.0000000000000000e+00 2.4379330269872892e+01 2.9723230036991266e+00 3.1726031621650549e+01 
2230 2231 2 1.0279999999954368e+00 -3.0792119120847328e+03 1.0000000000000000e+00 2.4425790430927098e+01 2.9932935155980287e+00 3.1942222522548462e+01 
4 5 2 1.0280000000195768e+00 -6.9566340160265208e+03 1.0000000000000000e+00 2.4246595400829701e+01 2.9954064835827472e+00 3.1714992609841516e+01 
599 600 2 1.0280000000257987e+00 7.1159928640388298e+03 1.0000000000000000e+00 2.3561859917384709e+01 3.0244615636825172e+00 3.1606857377574300e+01 
2239 2240 2 1.0280000000034730e+00 1.8735481817414843e+03 1.0000000000000000e+00 2.9824450316541839e+01 2.8584570374222449e+00 3.1741162100438146e+01 
10 11 2 1.0280000000060023e+00 -6.1590081473001665e+03 1.0000000000000000e+00 3.1105469509842521e+01 4.0080506210476523e+00 3.2092579075940201e+01 
85 86 2 1.0279999999992024e+00 -5.7136152675719477e+03 1.0000000000000000e+00 3.3267106016402394e+01 4.3782069896855598e+00 3.2475766989142691e+01 
635 636 2 1.0279999999998961e+00 -6.4060060469233304e+03 1.0000000000000000e+00 3.3051555146734465e+01 3.7934994150310049e+00 3.3833064563056240e+01 
385 386 2 1.0280000000002807e+00 3.8032318974119653e+03 1.0000000000000000e+00 3.8149731627125050e+00 6.0122740611979424e+00 3.1618338008173364e+01 
132 133 2 1.0280000000003584e+00 2.4739443744220506e+02 1.0000000000000000e+00 3.7074726860406497e+00 6.0222748517680627e+00 3.1584465003917533e+01 
414 415 2 1.0280000000005756e+00 3.6633562468704122e+03 1.0000000000000000e+00 4.7727832903403344e+00 6.1828167976516291e+00 3.1686099628184945e+01 
951 952 2 1.0279999999930023e+00 -6.5169928012689297e+02 1.0000000000000000e+00 8.4952318256690118e-01 2.7356195632746054e+00 3.4511939115480111e+01 
1042 1043 2 1.0279999999962590e+00 4.3464612414181311e+03 1.0000000000000000e+00 1.9594835058758679e+00 2.4671750573157230e+00 3.4437598789410622e+01 
1339 1340 2 1.0279999999998566e+00 5.6201760908034139e+03 1.0000000000000000e+00 2.7303100734522645e+00 2.6792496419036103e+00 3.4843084641131135e+01 
1300 1301 2 1.0279999999973406e+00 4.3809795869278096e+03 1.0000000000000000e+00 5.6721500017303335e+00 1.9355227751638373e+00 3.4301995775546956e+01 
2044 2045 2 1.0280000000109826e+00 -7.1774130353868677e+03 1.0000000000000000e+00 7.8750252777639664e+00 2.6604558635544504e+00 3.4347458435398025e+01 
2038 2039 2 1.0280000000024077e+00 -3.8974588843424144e+03 1.0000000000000000e+00 9.6857546125391991e+00 2.7786950744358210e+00 3.4683912974778664e+01 
2036 2037 2 1.0280000000046181e+00 -1.0438641676544594e+04 1.0000000000000000e+00 9.8414024095504580e+00 2.6542082925469970e+00 3.4837274540937308e+01 
2256 2257 2 1.0279999999986429e+00 1.8990938614148172e+03 1.0000000000000000e+00 1.0561706216893342e+01 2.4388366098192171e+00 3.5019684265933996e+01 
173 174 2 1.0279999999994778e+00 -1.2666138811511710e+01 1.0000000000000000e+00 1.1271998456182821e+01 2.3481415986991792e+00 3.5384011006587244e+01 
1571 1572 2 1.0280000000049749e+00 -3.0310801730623230e+03 1.0000000000000000e+00 1.2369920272648105e+01 2.2761465798614520e+00 3.5411969450641472e+01 
149 150 2 1.0280000000047034e+00 7.2297601864860790e+03 1.0000000000000000e+00 1.2311008177173136e+01 2.2821926448365555e+00 3.5424833420235970e+01 
870 871 2 1.0280000000029350e+00 1.9154233637486336e+03 1.0000000000000000e+00 1.2073981171563627e+01 2.3123746598383419e+00 3.5461770175231074e+01 
1504 1505 2 1.0280000000044136e+00 4.3269099674189511e+03 1.0000000000000000e+00 1.2590816301446793e+01 1.7309219099014086e+00 3.4472575743701434e+01 
2277 2278 2 1.0280000000107672e+00 -6.5507324072242354e+03 1.0000000000000000e+00 1.6627862280542494e+01 1.3696169847934236e+00 3.4420244052253587e+01 
652 653 2 1.0280000000107101e+00 -3.9090016266522516e+03 1.0000000000000000e+00 1.6732336148416966e+01 1.3498909145919202e+00 3.4381506446322341e+01 
2232 2233 2 1.0280000000105913e+00 3.8009717860195315e+03 1.0000000000000000e+00 1.8772323809607467e+01 1.1710019650105878e+00 3.5209400978210745e+01 
846 847 2 1.0279999999908600e+00 3.7720151413804970e+03 1.0000000000000000e+00 1.7536160284889561e+01 1.1852133426803579e+00 3.5357534507529550e+01 
1085 1086 2 1.0279999999915270e+00 9.9950900720032187e+03 1.0000000000000000e+00 1.7612354203316901e+01 1.1792238394500343e+00 3.5366893785518045e+01 
1253 1254 2 1.0279999999916485e+00 9.9514054490360686e+03 1.0000000000000000e+00 1.7630079900817865e+01 1.1736908140887778e+00 3.5367864212962331e+01 
1508 1509 2 1.0279999999867224e+00 -2.3041147473767460e+03 1.0000000000000000e+00 2.1005475073641723e+01 1.0810856686037240e+00 3.5437599714772730e+01 
24 25 2 1.0279999999960565e+00 -5.0335606770197028e+03 1.0000000000000000e+00 2.1144361511713274e+01 7.7256606538414785e-01 3.5846421926919803e+01 
1688 1689 2 1.0279999999996925e+00 9.8637411916532401e+03 1.0000000000000000e+00 2.1230726860233219e+01 7.5408888201357549e-01 3.5964548752026921e+01 
389 390 2 1.0280000000060332e+00 1.6875561274071638e+03 1.0000000000000000e+00 2.1680859743538960e+01 5.1632814254446202e-01 3.6391561545149656e+01 
931 932 2 1.0280000000056810e+00 -6.5856273606417108e+03 1.0000000000000000e+00 2.1782297909103146e+01 4.6031205881449189e-01 3.6424912257257468e+01 
869 870 2 1.0279999999973535e+00 1.6831482075109088e+03 1.0000000000000000e+00 2.4925009758123064e+01 1.5322551008981744e+00 3.5546956875130824e+01 
1015 1016 2 1.0280000000045306e+00 4.4920393724132409e+03 1.0000000000000000e+00 2.3619174098393664e+01 7.9593439536491351e-01 3.5317583098442206e+01 
1393 1394 2 1.0280000000040246e+00 -6.6076056645590052e+03 1.0000000000000000e+00 2.3315883901440788e+01 2.6794358213883956e-01 3.6556119111402580e+01 
1967 1968 2 1.0280000000011051e+00 3.9388931257729537e+03 1.0000000000000000e+00 2.4791873575723045e+01 2.3006485697822882e-01 3.6056534861744204e+01 
151 152 2 1.0279999999999689e+00 7.9108115164081373e+03 1.0000000000000000e+00 2.2950010448783132e+01 1.2519005092309643e+00 3.7123266372250313e+01 
1046 1047 2 1.0280000000566683e+00 -2.3460153771433124e+03 1.0000000000000000e+00 2.6941020399590947e+01 5.9529157731816196e-01 3.6030236071743857e+01 
5 6 2 1.0279999999633915e+00 -6.6910388251898421e+03 1.0000000000000000e+00 2.7372003525204651e+01 4.7604146805028325e-01 3.5541416862795629e+01 
208 209 2 1.0279999999958065e+00 -7.0282649680776703e+03 1.0000000000000000e+00 2.6589734007980326e+01 4.3574380976331167e-01 3.4427420444243332e+01 
2518 2519 2 1.0280000000001641e+00 -7.0306406045717340e+03 1.0000000000000000e+00 2.6403971719040165e+01 3.9002023712257555e-01 3.4300541290825066e+01 
1226 1227 2 1.0280000000092908e+00 9.8771114845775373e+03 1.0000000000000000e+00 2.5827170063416766e+01 5.9820372540312583e-01 3.6990759418388642e+01 
581 582 2 1.0280000000176159e+00 3.9452434121216388e+03 1.0000000000000000e+00 2.8702873220756121e+01 3.2752600586536612e-01 3.6126923043443902e+01 
1715 1716 2 1.0280000000393679e+00 9.9714320089908269e+03 1.0000000000000000e+00 2.9554490988427329e+01 1.3518988750294175e-01 3.6352771372420207e+01 
2699 2700 2 1.0279999999889540e+00 1.6531526972788593e+03 1.0000000000000000e+00 2.9228346487679008e+01 1.2970686687356983e-01 3.6471027385321051e+01 
1547 1548 2 1.0279999999888625e+00 9.9549702007034539e+03 1.0000000000000000e+00 2.9232840566764960e+01 1.2435698870034263e-01 3.6469569806891279e+01 
937 938 2 1.0279999999967151e+00 -6.9997085462967734e+03 1.0000000000000000e+00 2.9514969043472817e+01 1.1530955524797497e-01 3.6400889427509284e+01 
2588 2589 2 1.0279999999920435e+00 8.5838349638813293e+02 1.0000000000000000e+00 3.1893225070561229e+01 2.8897283802063423e-01 3.6986726010301467e+01 
1399 1400 2 1.0279999999922791e+00 -6.9700774836462424e+03 1.0000000000000000e+00 3.2369615017732585e+01 3.8368922676179612e-01 3.7103088791274232e+01 
158 159 2 1.0280000000012131e+00 1.3152626375714353e+04 1.0000000000000000e+00 8.4661862178898495e-01 2.9807226036509413e+00 3.4873995793583667e+01 
1762 1763 2 1.0280000000013740e+00 4.3916966391561091e+03 1.0000000000000000e+00 5.4129320052160601e-01 3.1016189945381805e+00 3.4804865487321415e+01 
30 31 2 1.0280000000025371e+00 -8.2555682237346882e+03 1.0000000000000000e+00 9.8072524750897908e-02 2.9753382799721799e+00 3.5098741468560696e+01 