LAMMPS data file via write_data, version 30 Jul 2016, timestep = 3700000

3753 atoms
8 atom types

8.5150716452705680e+01 1.1484928354738709e+02 xlo xhi
8.5150716452705680e+01 1.1484928354738709e+02 ylo yhi
2.4945214935806800e+02 3.4454785064217646e+02 zlo zhi

Masses

1 3.72
2 3.72
3 3.72
4 3.72
5 3.72
6 3.72
7 3.72
8 3.72

Atoms # meso-molecular

10842 200 5 3.6731925540845602e+00 0.0000000000000000e+00 1.0000000000000000e+00 8.7115797189362809e+01 8.5650716000000003e+01 2.5545214899999999e+02 
10843 200 5 3.3948624274412160e+00 0.0000000000000000e+00 1.0000000000000000e+00 8.7115797189362809e+01 8.6150716000000003e+01 2.5545214899999999e+02 
10002 200 5 3.6731925523974014e+00 0.0000000000000000e+00 1.0000000000000000e+00 8.9095701284044225e+01 8.5650716000000003e+01 2.5545214899999999e+02 
10003 200 5 3.3948624274729222e+00 0.0000000000000000e+00 1.0000000000000000e+00 8.9095701284044225e+01 8.6150716000000003e+01 2.5545214899999999e+02 
10062 200 5 3.6731925523686972e+00 0.0000000000000000e+00 1.0000000000000000e+00 9.1075605284044229e+01 8.5650716000000003e+01 2.5545214899999999e+02 
10063 200 5 3.3948624274457058e+00 0.0000000000000000e+00 1.0000000000000000e+00 9.1075605284044229e+01 8.6150716000000003e+01 2.5545214899999999e+02 
10122 200 5 3.6731925523686972e+00 0.0000000000000000e+00 1.0000000000000000e+00 9.3055510284044232e+01 8.5650716000000003e+01 2.5545214899999999e+02 
10123 200 5 3.3948624274442749e+00 0.0000000000000000e+00 1.0000000000000000e+00 9.3055510284044232e+01 8.6150716000000003e+01 2.5545214899999999e+02 
10182 200 5 3.6731925523686972e+00 0.0000000000000000e+00 1.0000000000000000e+00 9.5035414284044222e+01 8.5650716000000003e+01 2.5545214899999999e+02 
10183 200 5 3.3948624274442185e+00 0.0000000000000000e+00 1.0000000000000000e+00 9.5035414284044222e+01 8.6150716000000003e+01 2.5545214899999999e+02 
10242 200 5 3.6731925523686972e+00 0.0000000000000000e+00 1.0000000000000000e+00 9.7015319284044224e+01 8.5650716000000003e+01 2.5545214899999999e+02 
10243 200 5 3.3948624274442181e+00 0.0000000000000000e+00 1.0000000000000000e+00 9.7015319284044224e+01 8.6150716000000003e+01 2.5545214899999999e+02 
10302 200 5 3.6731925523693931e+00 0.0000000000000000e+00 1.0000000000000000e+00 9.8995223284044215e+01 8.5650716000000003e+01 2.5545214899999999e+02 
10303 200 5 3.3948624274442185e+00 0.0000000000000000e+00 1.0000000000000000e+00 9.8995223284044215e+01 8.6150716000000003e+01 2.5545214899999999e+02 
10362 200 5 3.6731925523738251e+00 0.0000000000000000e+00 1.0000000000000000e+00 1.0097512828404422e+02 8.5650716000000003e+01 2.5545214899999999e+02 
10363 200 5 3.3948624274442181e+00 0.0000000000000000e+00 1.0000000000000000e+00 1.0097512828404422e+02 8.6150716000000003e+01 2.5545214899999999e+02 
10422 200 5 3.6731925523686972e+00 0.0000000000000000e+00 1.0000000000000000e+00 1.0295503228404422e+02 8.5650716000000003e+01 2.5545214899999999e+02 
10423 200 5 3.3948624274442185e+00 0.0000000000000000e+00 1.0000000000000000e+00 1.0295503228404422e+02 8.6150716000000003e+01 2.5545214899999999e+02 
10482 200 5 3.6731925523686972e+00 0.0000000000000000e+00 1.0000000000000000e+00 1.0493493728404422e+02 8.5650716000000003e+01 2.5545214899999999e+02 
10483 200 5 3.3948624274442181e+00 0.0000000000000000e+00 1.0000000000000000e+00 1.0493493728404422e+02 8.6150716000000003e+01 2.5545214899999999e+02 
10542 200 5 3.6731925523686972e+00 0.0000000000000000e+00 1.0000000000000000e+00 1.0691484128404423e+02 8.5650716000000003e+01 2.5545214899999999e+02 
10543 200 5 3.3948624274442185e+00 0.0000000000000000e+00 1.0000000000000000e+00 1.0691484128404423e+02 8.6150716000000003e+01 2.5545214899999999e+02 
10602 200 5 3.6731925523686972e+00 0.0000000000000000e+00 1.0000000000000000e+00 1.0889474628404423e+02 8.5650716000000003e+01 2.5545214899999999e+02 
10603 200 5 3.3948624274442181e+00 0.0000000000000000e+00 1.0000000000000000e+00 1.0889474628404423e+02 8.6150716000000003e+01 2.5545214899999999e+02 
10662 200 5 3.6731925523686972e+00 0.0000000000000000e+00 1.0000000000000000e+00 1.1087465028404422e+02 8.5650716000000003e+01 2.5545214899999999e+02 
10663 200 5 3.3948624274442185e+00 0.0000000000000000e+00 1.0000000000000000e+00 1.1087465028404422e+02 8.6150716000000003e+01 2.5545214899999999e+02 
10722 200 5 3.6731925523686972e+00 0.0000000000000000e+00 1.0000000000000000e+00 1.1285455528404422e+02 8.5650716000000003e+01 2.5545214899999999e+02 
10723 200 5 3.3948624274442181e+00 0.0000000000000000e+00 1.0000000000000000e+00 1.1285455528404422e+02 8.6150716000000003e+01 2.5545214899999999e+02 
10782 200 5 3.6731925523686977e+00 0.0000000000000000e+00 1.0000000000000000e+00 1.1483445928404423e+02 8.5650716000000003e+01 2.5545214899999999e+02 
10783 200 5 3.3948624274442185e+00 0.0000000000000000e+00 1.0000000000000000e+00 1.1483445928404423e+02 8.6150716000000003e+01 2.5545214899999999e+02 
10844 200 5 3.2625997711890049e+00 0.0000000000000000e+00 1.0000000000000000e+00 8.7115797189362809e+01 8.6650716000000003e+01 2.5545214899999999e+02 
10845 200 5 3.2565548166825145e+00 0.0000000000000000e+00 1.0000000000000000e+00 8.7115797189362809e+01 8.7150716000000003e+01 2.5545214899999999e+02 
10846 200 5 3.2565548166825145e+00 0.0000000000000000e+00 1.0000000000000000e+00 8.7115797189362809e+01 8.7650716000000003e+01 2.5545214899999999e+02 
10004 200 5 3.2625997712207111e+00 0.0000000000000000e+00 1.0000000000000000e+00 8.9095701284044225e+01 8.6650716000000003e+01 2.5545214899999999e+02 
10005 200 5 3.2565548167142206e+00 0.0000000000000000e+00 1.0000000000000000e+00 8.9095701284044225e+01 8.7150716000000003e+01 2.5545214899999999e+02 
10006 200 5 3.2565548167142206e+00 0.0000000000000000e+00 1.0000000000000000e+00 8.9095701284044225e+01 8.7650716000000003e+01 2.5545214899999999e+02 
10064 200 5 3.2625997711942771e+00 0.0000000000000000e+00 1.0000000000000000e+00 9.1075605284044229e+01 8.6650716000000003e+01 2.5545214899999999e+02 
10065 200 5 3.2565548166855165e+00 0.0000000000000000e+00 1.0000000000000000e+00 9.1075605284044229e+01 8.7150716000000003e+01 2.5545214899999999e+02 
10066 200 5 3.2565548166855165e+00 0.0000000000000000e+00 1.0000000000000000e+00 9.1075605284044229e+01 8.7650716000000003e+01 2.5545214899999999e+02 
10124 200 5 3.2625997778904581e+00 0.0000000000000000e+00 1.0000000000000000e+00 9.3055510284044232e+01 8.6650716000000003e+01 2.5545214899999999e+02 
10125 200 5 3.2565548170233871e+00 0.0000000000000000e+00 1.0000000000000000e+00 9.3055510284044232e+01 8.7150716000000003e+01 2.5545214899999999e+02 
10126 200 5 3.2565548166855165e+00 0.0000000000000000e+00 1.0000000000000000e+00 9.3055510284044232e+01 8.7650716000000003e+01 2.5545214899999999e+02 
10184 200 5 3.2625997717860011e+00 0.0000000000000000e+00 1.0000000000000000e+00 9.5035414284044222e+01 8.6650716000000003e+01 2.5545214899999999e+02 
10185 200 5 3.2565548166855174e+00 0.0000000000000000e+00 1.0000000000000000e+00 9.5035414284044222e+01 8.7150716000000003e+01 2.5545214899999999e+02 
10186 200 5 3.2565548166855165e+00 0.0000000000000000e+00 1.0000000000000000e+00 9.5035414284044222e+01 8.7650716000000003e+01 2.5545214899999999e+02 
10244 200 5 3.2625997711920069e+00 0.0000000000000000e+00 1.0000000000000000e+00 9.7015319284044224e+01 8.6650716000000003e+01 2.5545214899999999e+02 
10245 200 5 3.2565548166855165e+00 0.0000000000000000e+00 1.0000000000000000e+00 9.7015319284044224e+01 8.7150716000000003e+01 2.5545214899999999e+02 
10246 200 5 3.2565548166855165e+00 0.0000000000000000e+00 1.0000000000000000e+00 9.7015319284044224e+01 8.7650716000000003e+01 2.5545214899999999e+02 
10304 200 5 3.2625997711920069e+00 0.0000000000000000e+00 1.0000000000000000e+00 9.8995223284044215e+01 8.6650716000000003e+01 2.5545214899999999e+02 
10305 200 5 3.2565548166855165e+00 0.0000000000000000e+00 1.0000000000000000e+00 9.8995223284044215e+01 8.7150716000000003e+01 2.5545214899999999e+02 
10306 200 5 3.2565548166966569e+00 0.0000000000000000e+00 1.0000000000000000e+00 9.8995223284044215e+01 8.7650716000000003e+01 2.5545214899999999e+02 
10364 200 5 3.2625997711926189e+00 0.0000000000000000e+00 1.0000000000000000e+00 1.0097512828404422e+02 8.6650716000000003e+01 2.5545214899999999e+02 
10365 200 5 3.2565548166859197e+00 0.0000000000000000e+00 1.0000000000000000e+00 1.0097512828404422e+02 8.7150716000000003e+01 2.5545214899999999e+02 
10366 200 5 3.2565548166855165e+00 0.0000000000000000e+00 1.0000000000000000e+00 1.0097512828404422e+02 8.7650716000000003e+01 2.5545214899999999e+02 
10424 200 5 3.2625997711920069e+00 0.0000000000000000e+00 1.0000000000000000e+00 1.0295503228404422e+02 8.6650716000000003e+01 2.5545214899999999e+02 
10425 200 5 3.2565548166855165e+00 0.0000000000000000e+00 1.0000000000000000e+00 1.0295503228404422e+02 8.7150716000000003e+01 2.5545214899999999e+02 
10426 200 5 3.2565548166864788e+00 0.0000000000000000e+00 1.0000000000000000e+00 1.0295503228404422e+02 8.7650716000000003e+01 2.5545214899999999e+02 
10484 200 5 3.2625997712404655e+00 0.0000000000000000e+00 1.0000000000000000e+00 1.0493493728404422e+02 8.6650716000000003e+01 2.5545214899999999e+02 
10485 200 5 3.2565548166855165e+00 0.0000000000000000e+00 1.0000000000000000e+00 1.0493493728404422e+02 8.7150716000000003e+01 2.5545214899999999e+02 
10486 200 5 3.2565548167764180e+00 0.0000000000000000e+00 1.0000000000000000e+00 1.0493493728404422e+02 8.7650716000000003e+01 2.5545214899999999e+02 
10544 200 5 3.2625997711920069e+00 0.0000000000000000e+00 1.0000000000000000e+00 1.0691484128404423e+02 8.6650716000000003e+01 2.5545214899999999e+02 
10545 200 5 3.2565548166855165e+00 0.0000000000000000e+00 1.0000000000000000e+00 1.0691484128404423e+02 8.7150716000000003e+01 2.5545214899999999e+02 
10546 200 5 3.2565548166855165e+00 0.0000000000000000e+00 1.0000000000000000e+00 1.0691484128404423e+02 8.7650716000000003e+01 2.5545214899999999e+02 
10604 200 5 3.2625997711920069e+00 0.0000000000000000e+00 1.0000000000000000e+00 1.0889474628404423e+02 8.6650716000000003e+01 2.5545214899999999e+02 
10605 200 5 3.2565548242647369e+00 0.0000000000000000e+00 1.0000000000000000e+00 1.0889474628404423e+02 8.7150716000000003e+01 2.5545214899999999e+02 
10606 200 5 3.2565548199587471e+00 0.0000000000000000e+00 1.0000000000000000e+00 1.0889474628404423e+02 8.7650716000000003e+01 2.5545214899999999e+02 
10664 200 5 3.2625997711920069e+00 0.0000000000000000e+00 1.0000000000000000e+00 1.1087465028404422e+02 8.6650716000000003e+01 2.5545214899999999e+02 
10665 200 5 3.2565548166855165e+00 0.0000000000000000e+00 1.0000000000000000e+00 1.1087465028404422e+02 8.7150716000000003e+01 2.5545214899999999e+02 
10666 200 5 3.2565548211393462e+00 0.0000000000000000e+00 1.0000000000000000e+00 1.1087465028404422e+02 8.7650716000000003e+01 2.5545214899999999e+02 
10724 200 5 3.2625997711968977e+00 0.0000000000000000e+00 1.0000000000000000e+00 1.1285455528404422e+02 8.6650716000000003e+01 2.5545214899999999e+02 
10725 200 5 3.2565548166855165e+00 0.0000000000000000e+00 1.0000000000000000e+00 1.1285455528404422e+02 8.7150716000000003e+01 2.5545214899999999e+02 
10726 200 5 3.2565548166855165e+00 0.0000000000000000e+00 1.0000000000000000e+00 1.1285455528404422e+02 8.7650716000000003e+01 2.5545214899999999e+02 
10784 200 5 3.2625997711920069e+00 0.0000000000000000e+00 1.0000000000000000e+00 1.1483445928404423e+02 8.6650716000000003e+01 2.5545214899999999e+02 
10785 200 5 3.2565548166855165e+00 0.0000000000000000e+00 1.0000000000000000e+00 1.1483445928404423e+02 8.7150716000000003e+01 2.5545214899999999e+02 
10786 200 5 3.2565548166855165e+00 0.0000000000000000e+00 1.0000000000000000e+00 1.1483445928404423e+02 8.7650716000000003e+01 2.5545214899999999e+02 
10847 200 5 3.2565548398942190e+00 0.0000000000000000e+00 1.0000000000000000e+00 8.7115797189362809e+01 8.8150716000000003e+01 2.5545214899999999e+02 
10848 200 5 3.2565548166825145e+00 0.0000000000000000e+00 1.0000000000000000e+00 8.7115797189362809e+01 8.8650716000000003e+01 2.5545214899999999e+02 
10849 200 5 3.2565548166825145e+00 0.0000000000000000e+00 1.0000000000000000e+00 8.7115797189362809e+01 8.9150716000000003e+01 2.5545214899999999e+02 
10007 200 5 3.2565548167142206e+00 0.0000000000000000e+00 1.0000000000000000e+00 8.9095701284044225e+01 8.8150716000000003e+01 2.5545214899999999e+02 
10008 200 5 3.2565548167142206e+00 0.0000000000000000e+00 1.0000000000000000e+00 8.9095701284044225e+01 8.8650716000000003e+01 2.5545214899999999e+02 
10009 200 5 3.2565548167142206e+00 0.0000000000000000e+00 1.0000000000000000e+00 8.9095701284044225e+01 8.9150716000000003e+01 2.5545214899999999e+02 
10067 200 5 3.2565548166855165e+00 0.0000000000000000e+00 1.0000000000000000e+00 9.1075605284044229e+01 8.8150716000000003e+01 2.5545214899999999e+02 
10068 200 5 3.2565548166855165e+00 0.0000000000000000e+00 1.0000000000000000e+00 9.1075605284044229e+01 8.8650716000000003e+01 2.5545214899999999e+02 
10069 200 5 3.2565548166949387e+00 0.0000000000000000e+00 1.0000000000000000e+00 9.1075605284044229e+01 8.9150716000000003e+01 2.5545214899999999e+02 
10127 200 5 3.2565548166855165e+00 0.0000000000000000e+00 1.0000000000000000e+00 9.3055510284044232e+01 8.8150716000000003e+01 2.5545214899999999e+02 
10128 200 5 3.2565548166855165e+00 0.0000000000000000e+00 1.0000000000000000e+00 9.3055510284044232e+01 8.8650716000000003e+01 2.5545214899999999e+02 
10129 200 5 3.2565548166899498e+00 0.0000000000000000e+00 1.0000000000000000e+00 9.3055510284044232e+01 8.9150716000000003e+01 2.5545214899999999e+02 
10187 200 5 3.2565548166855165e+00 0.0000000000000000e+00 1.0000000000000000e+00 9.5035414284044222e+01 8.8150716000000003e+01 2.5545214899999999e+02 
10188 200 5 3.2565548166855165e+00 0.0000000000000000e+00 1.0000000000000000e+00 9.5035414284044222e+01 8.8650716000000003e+01 2.5545214899999999e+02 
10189 200 5 3.2565548166855165e+00 0.0000000000000000e+00 1.0000000000000000e+00 9.5035414284044222e+01 8.9150716000000003e+01 2.5545214899999999e+02 
10247 200 5 3.2565548166855165e+00 0.0000000000000000e+00 1.0000000000000000e+00 9.7015319284044224e+01 8.8150716000000003e+01 2.5545214899999999e+02 
10248 200 5 3.2565548167391514e+00 0.0000000000000000e+00 1.0000000000000000e+00 9.7015319284044224e+01 8.8650716000000003e+01 2.5545214899999999e+02 
10249 200 5 3.2565548166855165e+00 0.0000000000000000e+00 1.0000000000000000e+00 9.7015319284044224e+01 8.9150716000000003e+01 2.5545214899999999e+02 
10307 200 5 3.2565548166855165e+00 0.0000000000000000e+00 1.0000000000000000e+00 9.8995223284044215e+01 8.8150716000000003e+01 2.5545214899999999e+02 
10308 200 5 3.2565548166855165e+00 0.0000000000000000e+00 1.0000000000000000e+00 9.8995223284044215e+01 8.8650716000000003e+01 2.5545214899999999e+02 
10309 200 5 3.2565548166855165e+00 0.0000000000000000e+00 1.0000000000000000e+00 9.8995223284044215e+01 8.9150716000000003e+01 2.5545214899999999e+02 
10367 200 5 3.2565548166855165e+00 0.0000000000000000e+00 1.0000000000000000e+00 1.0097512828404422e+02 8.8150716000000003e+01 2.5545214899999999e+02 
10368 200 5 3.2565548166858393e+00 0.0000000000000000e+00 1.0000000000000000e+00 1.0097512828404422e+02 8.8650716000000003e+01 2.5545214899999999e+02 
10369 200 5 3.2565548166855165e+00 0.0000000000000000e+00 1.0000000000000000e+00 1.0097512828404422e+02 8.9150716000000003e+01 2.5545214899999999e+02 
10427 200 5 3.2565548166855165e+00 0.0000000000000000e+00 1.0000000000000000e+00 1.0295503228404422e+02 8.8150716000000003e+01 2.5545214899999999e+02 
10428 200 5 3.2565548166857607e+00 0.0000000000000000e+00 1.0000000000000000e+00 1.0295503228404422e+02 8.8650716000000003e+01 2.5545214899999999e+02 
10429 200 5 3.2565548166855165e+00 0.0000000000000000e+00 1.0000000000000000e+00 1.0295503228404422e+02 8.9150716000000003e+01 2.5545214899999999e+02 
10487 200 5 3.2565548166855165e+00 0.0000000000000000e+00 1.0000000000000000e+00 1.0493493728404422e+02 8.8150716000000003e+01 2.5545214899999999e+02 
10488 200 5 3.2565548166855165e+00 0.0000000000000000e+00 1.0000000000000000e+00 1.0493493728404422e+02 8.8650716000000003e+01 2.5545214899999999e+02 
10489 200 5 3.2565548169047061e+00 0.0000000000000000e+00 1.0000000000000000e+00 1.0493493728404422e+02 8.9150716000000003e+01 2.5545214899999999e+02 
10547 200 5 3.2565548166855165e+00 0.0000000000000000e+00 1.0000000000000000e+00 1.0691484128404423e+02 8.8150716000000003e+01 2.5545214899999999e+02 
10548 200 5 3.2565548166855165e+00 0.0000000000000000e+00 1.0000000000000000e+00 1.0691484128404423e+02 8.8650716000000003e+01 2.5545214899999999e+02 
10549 200 5 3.2565548168308980e+00 0.0000000000000000e+00 1.0000000000000000e+00 1.0691484128404423e+02 8.9150716000000003e+01 2.5545214899999999e+02 
10607 200 5 3.2565548166855165e+00 0.0000000000000000e+00 1.0000000000000000e+00 1.0889474628404423e+02 8.8150716000000003e+01 2.5545214899999999e+02 
10608 200 5 3.2565548166855165e+00 0.0000000000000000e+00 1.0000000000000000e+00 1.0889474628404423e+02 8.8650716000000003e+01 2.5545214899999999e+02 
10609 200 5 3.2565548166855165e+00 0.0000000000000000e+00 1.0000000000000000e+00 1.0889474628404423e+02 8.9150716000000003e+01 2.5545214899999999e+02 
10667 200 5 3.2565548166855165e+00 0.0000000000000000e+00 1.0000000000000000e+00 1.1087465028404422e+02 8.8150716000000003e+01 2.5545214899999999e+02 
10668 200 5 3.2565548166855165e+00 0.0000000000000000e+00 1.0000000000000000e+00 1.1087465028404422e+02 8.8650716000000003e+01 2.5545214899999999e+02 
10669 200 5 3.2565548166855165e+00 0.0000000000000000e+00 1.0000000000000000e+00 1.1087465028404422e+02 8.9150716000000003e+01 2.5545214899999999e+02 
10727 200 5 3.2565548166855165e+00 0.0000000000000000e+00 1.0000000000000000e+00 1.1285455528404422e+02 8.8150716000000003e+01 2.5545214899999999e+02 
10728 200 5 3.2565548166855165e+00 0.0000000000000000e+00 1.0000000000000000e+00 1.1285455528404422e+02 8.8650716000000003e+01 2.5545214899999999e+02 
10729 200 5 3.2565548166855165e+00 0.0000000000000000e+00 1.0000000000000000e+00 1.1285455528404422e+02 8.9150716000000003e+01 2.5545214899999999e+02 
10787 200 5 3.2565548166861591e+00 0.0000000000000000e+00 1.0000000000000000e+00 1.1483445928404423e+02 8.8150716000000003e+01 2.5545214899999999e+02 
10788 200 5 3.2565548166855165e+00 0.0000000000000000e+00 1.0000000000000000e+00 1.1483445928404423e+02 8.8650716000000003e+01 2.5545214899999999e+02 
10789 200 5 3.2565548166855165e+00 0.0000000000000000e+00 1.0000000000000000e+00 1.1483445928404423e+02 8.9150716000000003e+01 2.5545214899999999e+02 
10850 200 5 3.2565548166825145e+00 0.0000000000000000e+00 1.0000000000000000e+00 8.7115797189362809e+01 8.9650716000000003e+01 2.5545214899999999e+02 
10851 200 5 3.2565548166835634e+00 0.0000000000000000e+00 1.0000000000000000e+00 8.7115797189362809e+01 9.0150716000000003e+01 2.5545214899999999e+02 
10010 200 5 3.2565548167142913e+00 0.0000000000000000e+00 1.0000000000000000e+00 8.9095701284044225e+01 8.9650716000000003e+01 2.5545214899999999e+02 
10011 200 5 3.2565548167142753e+00 0.0000000000000000e+00 1.0000000000000000e+00 8.9095701284044225e+01 9.0150716000000003e+01 2.5545214899999999e+02 
10070 200 5 3.2565548166868723e+00 0.0000000000000000e+00 1.0000000000000000e+00 9.1075605284044229e+01 8.9650716000000003e+01 2.5545214899999999e+02 
10071 200 5 3.2565548166855716e+00 0.0000000000000000e+00 1.0000000000000000e+00 9.1075605284044229e+01 9.0150716000000003e+01 2.5545214899999999e+02 
10130 200 5 3.2565548166855165e+00 0.0000000000000000e+00 1.0000000000000000e+00 9.3055510284044232e+01 8.9650716000000003e+01 2.5545214899999999e+02 
10131 200 5 3.2565548166960987e+00 0.0000000000000000e+00 1.0000000000000000e+00 9.3055510284044232e+01 9.0150716000000003e+01 2.5545214899999999e+02 
10190 200 5 3.2565548166855165e+00 0.0000000000000000e+00 1.0000000000000000e+00 9.5035414284044222e+01 8.9650716000000003e+01 2.5545214899999999e+02 
10191 200 5 3.2565548166929648e+00 0.0000000000000000e+00 1.0000000000000000e+00 9.5035414284044222e+01 9.0150716000000003e+01 2.5545214899999999e+02 
10250 200 5 3.2565548166855165e+00 0.0000000000000000e+00 1.0000000000000000e+00 9.7015319284044224e+01 8.9650716000000003e+01 2.5545214899999999e+02 
10251 200 5 3.2565548166878941e+00 0.0000000000000000e+00 1.0000000000000000e+00 9.7015319284044224e+01 9.0150716000000003e+01 2.5545214899999999e+02 
10310 200 5 3.2565548166859020e+00 0.0000000000000000e+00 1.0000000000000000e+00 9.8995223284044215e+01 8.9650716000000003e+01 2.5545214899999999e+02 
10311 200 5 3.2565548166855165e+00 0.0000000000000000e+00 1.0000000000000000e+00 9.8995223284044215e+01 9.0150716000000003e+01 2.5545214899999999e+02 
10370 200 5 3.2565548166858020e+00 0.0000000000000000e+00 1.0000000000000000e+00 1.0097512828404422e+02 8.9650716000000003e+01 2.5545214899999999e+02 
10371 200 5 3.2565548166855165e+00 0.0000000000000000e+00 1.0000000000000000e+00 1.0097512828404422e+02 9.0150716000000003e+01 2.5545214899999999e+02 
10430 200 5 3.2565548166868123e+00 0.0000000000000000e+00 1.0000000000000000e+00 1.0295503228404422e+02 8.9650716000000003e+01 2.5545214899999999e+02 
10431 200 5 3.2565548166855165e+00 0.0000000000000000e+00 1.0000000000000000e+00 1.0295503228404422e+02 9.0150716000000003e+01 2.5545214899999999e+02 
10490 200 5 3.2565548166855165e+00 0.0000000000000000e+00 1.0000000000000000e+00 1.0493493728404422e+02 8.9650716000000003e+01 2.5545214899999999e+02 
10491 200 5 3.2565548166855165e+00 0.0000000000000000e+00 1.0000000000000000e+00 1.0493493728404422e+02 9.0150716000000003e+01 2.5545214899999999e+02 
10550 200 5 3.2565548166855165e+00 0.0000000000000000e+00 1.0000000000000000e+00 1.0691484128404423e+02 8.9650716000000003e+01 2.5545214899999999e+02 
10551 200 5 3.2565548166855165e+00 0.0000000000000000e+00 1.0000000000000000e+00 1.0691484128404423e+02 9.0150716000000003e+01 2.5545214899999999e+02 
10610 200 5 3.2565548166855165e+00 0.0000000000000000e+00 1.0000000000000000e+00 1.0889474628404423e+02 8.9650716000000003e+01 2.5545214899999999e+02 
10611 200 5 3.2565548166855165e+00 0.0000000000000000e+00 1.0000000000000000e+00 1.0889474628404423e+02 9.0150716000000003e+01 2.5545214899999999e+02 
10670 200 5 3.2565548166861022e+00 0.0000000000000000e+00 1.0000000000000000e+00 1.1087465028404422e+02 8.9650716000000003e+01 2.5545214899999999e+02 
10671 200 5 3.2565548166855165e+00 0.0000000000000000e+00 1.0000000000000000e+00 1.1087465028404422e+02 9.0150716000000003e+01 2.5545214899999999e+02 
10730 200 5 3.2565548166857647e+00 0.0000000000000000e+00 1.0000000000000000e+00 1.1285455528404422e+02 8.9650716000000003e+01 2.5545214899999999e+02 
10731 200 5 3.2565548166855165e+00 0.0000000000000000e+00 1.0000000000000000e+00 1.1285455528404422e+02 9.0150716000000003e+01 2.5545214899999999e+02 
10790 200 5 3.2565548166855165e+00 0.0000000000000000e+00 1.0000000000000000e+00 1.1483445928404423e+02 8.9650716000000003e+01 2.5545214899999999e+02 
10791 200 5 3.2565548166862506e+00 0.0000000000000000e+00 1.0000000000000000e+00 1.1483445928404423e+02 9.0150716000000003e+01 2.5545214899999999e+02 
10852 200 5 3.2565548166825145e+00 0.0000000000000000e+00 1.0000000000000000e+00 8.7115797189362809e+01 9.0650716000000003e+01 2.5545214899999999e+02 
10853 200 5 3.2565548166825145e+00 0.0000000000000000e+00 1.0000000000000000e+00 8.7115797189362809e+01 9.1150716000000003e+01 2.5545214899999999e+02 
10854 200 5 3.2565548166829754e+00 0.0000000000000000e+00 1.0000000000000000e+00 8.7115797189362809e+01 9.1650716000000003e+01 2.5545214899999999e+02 
10012 200 5 3.2565548167142206e+00 0.0000000000000000e+00 1.0000000000000000e+00 8.9095701284044225e+01 9.0650716000000003e+01 2.5545214899999999e+02 
10013 200 5 3.2565548167142206e+00 0.0000000000000000e+00 1.0000000000000000e+00 8.9095701284044225e+01 9.1150716000000003e+01 2.5545214899999999e+02 
10014 200 5 3.2565548167142571e+00 0.0000000000000000e+00 1.0000000000000000e+00 8.9095701284044225e+01 9.1650716000000003e+01 2.5545214899999999e+02 
10072 200 5 3.2565548166855165e+00 0.0000000000000000e+00 1.0000000000000000e+00 9.1075605284044229e+01 9.0650716000000003e+01 2.5545214899999999e+02 
10073 200 5 3.2565548166864917e+00 0.0000000000000000e+00 1.0000000000000000e+00 9.1075605284044229e+01 9.1150716000000003e+01 2.5545214899999999e+02 
10074 200 5 3.2565548166855165e+00 0.0000000000000000e+00 1.0000000000000000e+00 9.1075605284044229e+01 9.1650716000000003e+01 2.5545214899999999e+02 
10132 200 5 3.2565548166855165e+00 0.0000000000000000e+00 1.0000000000000000e+00 9.3055510284044232e+01 9.0650716000000003e+01 2.5545214899999999e+02 
10133 200 5 3.2565548166855165e+00 0.0000000000000000e+00 1.0000000000000000e+00 9.3055510284044232e+01 9.1150716000000003e+01 2.5545214899999999e+02 
10134 200 5 3.2565548166855165e+00 0.0000000000000000e+00 1.0000000000000000e+00 9.3055510284044232e+01 9.1650716000000003e+01 2.5545214899999999e+02 
10192 200 5 3.2565548166855165e+00 0.0000000000000000e+00 1.0000000000000000e+00 9.5035414284044222e+01 9.0650716000000003e+01 2.5545214899999999e+02 
10193 200 5 3.2565548166855165e+00 0.0000000000000000e+00 1.0000000000000000e+00 9.5035414284044222e+01 9.1150716000000003e+01 2.5545214899999999e+02 
10194 200 5 3.2565548166855165e+00 0.0000000000000000e+00 1.0000000000000000e+00 9.5035414284044222e+01 9.1650716000000003e+01 2.5545214899999999e+02 
10252 200 5 3.2565548166855165e+00 0.0000000000000000e+00 1.0000000000000000e+00 9.7015319284044224e+01 9.0650716000000003e+01 2.5545214899999999e+02 
10253 200 5 3.2565548166855165e+00 0.0000000000000000e+00 1.0000000000000000e+00 9.7015319284044224e+01 9.1150716000000003e+01 2.5545214899999999e+02 
10254 200 5 3.2565548166949005e+00 0.0000000000000000e+00 1.0000000000000000e+00 9.7015319284044224e+01 9.1650716000000003e+01 2.5545214899999999e+02 
10312 200 5 3.2565548166855165e+00 0.0000000000000000e+00 1.0000000000000000e+00 9.8995223284044215e+01 9.0650716000000003e+01 2.5545214899999999e+02 
10313 200 5 3.2565548166855165e+00 0.0000000000000000e+00 1.0000000000000000e+00 9.8995223284044215e+01 9.1150716000000003e+01 2.5545214899999999e+02 
10314 200 5 3.2565548166927840e+00 0.0000000000000000e+00 1.0000000000000000e+00 9.8995223284044215e+01 9.1650716000000003e+01 2.5545214899999999e+02 
10372 200 5 3.2565548166861196e+00 0.0000000000000000e+00 1.0000000000000000e+00 1.0097512828404422e+02 9.0650716000000003e+01 2.5545214899999999e+02 
10373 200 5 3.2565548166855165e+00 0.0000000000000000e+00 1.0000000000000000e+00 1.0097512828404422e+02 9.1150716000000003e+01 2.5545214899999999e+02 
10374 200 5 3.2565548166855165e+00 0.0000000000000000e+00 1.0000000000000000e+00 1.0097512828404422e+02 9.1650716000000003e+01 2.5545214899999999e+02 
10432 200 5 3.2565548166858087e+00 0.0000000000000000e+00 1.0000000000000000e+00 1.0295503228404422e+02 9.0650716000000003e+01 2.5545214899999999e+02 
10433 200 5 3.2565548166855165e+00 0.0000000000000000e+00 1.0000000000000000e+00 1.0295503228404422e+02 9.1150716000000003e+01 2.5545214899999999e+02 
10434 200 5 3.2565548166855165e+00 0.0000000000000000e+00 1.0000000000000000e+00 1.0295503228404422e+02 9.1650716000000003e+01 2.5545214899999999e+02 
10492 200 5 3.2565548166912999e+00 0.0000000000000000e+00 1.0000000000000000e+00 1.0493493728404422e+02 9.0650716000000003e+01 2.5545214899999999e+02 
10493 200 5 3.2565548166855165e+00 0.0000000000000000e+00 1.0000000000000000e+00 1.0493493728404422e+02 9.1150716000000003e+01 2.5545214899999999e+02 
10494 200 5 3.2565548166855165e+00 0.0000000000000000e+00 1.0000000000000000e+00 1.0493493728404422e+02 9.1650716000000003e+01 2.5545214899999999e+02 
10552 200 5 3.2565548166855165e+00 0.0000000000000000e+00 1.0000000000000000e+00 1.0691484128404423e+02 9.0650716000000003e+01 2.5545214899999999e+02 
10553 200 5 3.2565548166855165e+00 0.0000000000000000e+00 1.0000000000000000e+00 1.0691484128404423e+02 9.1150716000000003e+01 2.5545214899999999e+02 
10554 200 5 3.2565548167356444e+00 0.0000000000000000e+00 1.0000000000000000e+00 1.0691484128404423e+02 9.1650716000000003e+01 2.5545214899999999e+02 
10612 200 5 3.2565548166855165e+00 0.0000000000000000e+00 1.0000000000000000e+00 1.0889474628404423e+02 9.0650716000000003e+01 2.5545214899999999e+02 
10613 200 5 3.2565548166855165e+00 0.0000000000000000e+00 1.0000000000000000e+00 1.0889474628404423e+02 9.1150716000000003e+01 2.5545214899999999e+02 
10614 200 5 3.2565548166894955e+00 0.0000000000000000e+00 1.0000000000000000e+00 1.0889474628404423e+02 9.1650716000000003e+01 2.5545214899999999e+02 
10672 200 5 3.2565548166855165e+00 0.0000000000000000e+00 1.0000000000000000e+00 1.1087465028404422e+02 9.0650716000000003e+01 2.5545214899999999e+02 
10673 200 5 3.2565548166855165e+00 0.0000000000000000e+00 1.0000000000000000e+00 1.1087465028404422e+02 9.1150716000000003e+01 2.5545214899999999e+02 
10674 200 5 3.2565548166855165e+00 0.0000000000000000e+00 1.0000000000000000e+00 1.1087465028404422e+02 9.1650716000000003e+01 2.5545214899999999e+02 
10732 200 5 3.2565548166855165e+00 0.0000000000000000e+00 1.0000000000000000e+00 1.1285455528404422e+02 9.0650716000000003e+01 2.5545214899999999e+02 
10733 200 5 3.2565548166863492e+00 0.0000000000000000e+00 1.0000000000000000e+00 1.1285455528404422e+02 9.1150716000000003e+01 2.5545214899999999e+02 
10734 200 5 3.2565548166855165e+00 0.0000000000000000e+00 1.0000000000000000e+00 1.1285455528404422e+02 9.1650716000000003e+01 2.5545214899999999e+02 
10792 200 5 3.2565548166855165e+00 0.0000000000000000e+00 1.0000000000000000e+00 1.1483445928404423e+02 9.0650716000000003e+01 2.5545214899999999e+02 
10793 200 5 3.2565548166855165e+00 0.0000000000000000e+00 1.0000000000000000e+00 1.1483445928404423e+02 9.1150716000000003e+01 2.5545214899999999e+02 
10794 200 5 3.2565548166855165e+00 0.0000000000000000e+00 1.0000000000000000e+00 1.1483445928404423e+02 9.1650716000000003e+01 2.5545214899999999e+02 
10855 200 5 3.2565548166825145e+00 0.0000000000000000e+00 1.0000000000000000e+00 8.7115797189362809e+01 9.2150716000000003e+01 2.5545214899999999e+02 