LAMMPS data file via write_data, version 30 Jul 2016, timestep = 50000000

1520 atoms
8 atom types

0.0000000000000000e+00 4.0000000000000000e+01 xlo xhi
0.0000000000000000e+00 4.0000000000000000e+01 ylo yhi
0.0000000000000000e+00 1.0000000000000000e+02 zlo zhi

Masses

1 3.896
2 5.36
3 20.064
4 8.378
5 8.378
6 8.378
7 8.378
8 8.378

Atoms # meso-molecular

401 402 2 1.0280000000000034e+00 -4.2305590676236479e+03 1.0000000000000000e+00 1.9893877973903439e+01 1.7023781523644846e+01 1.3654758255689805e+00 
1443 1444 2 1.0279999999999956e+00 1.1696578760042528e+03 1.0000000000000000e+00 1.9708786902180428e+01 1.8702997301799694e+01 1.5729689331657062e+00 
75 76 2 1.0280000000000034e+00 1.1704292644840100e+03 1.0000000000000000e+00 1.9996607147566721e+01 1.6785875754632141e+01 3.5611549573210732e+00 
992 993 2 1.0279999999999940e+00 7.4792508346593399e+02 1.0000000000000000e+00 1.9809659624134920e+01 1.6693236765719359e+01 4.9345589339485487e+00 
223 224 2 1.0280000000000034e+00 -6.3700366447086708e+02 1.0000000000000000e+00 1.9739487730939103e+01 1.6556673837459478e+01 5.3865476824745162e+00 
34 35 2 1.0280000000000031e+00 1.1009185927141241e+03 1.0000000000000000e+00 1.9682921422489926e+01 1.5512871523060676e+01 8.2840173397586998e+00 
1081 1082 2 1.0280000000000002e+00 -3.0048570693066590e+03 1.0000000000000000e+00 1.9504833264737190e+01 1.5776281042355988e+01 8.2866261692235970e+00 
231 232 2 1.0280000000000000e+00 2.8139865810258370e+03 1.0000000000000000e+00 1.9503771815838029e+01 1.5763253559259734e+01 8.3405250769259727e+00 
692 693 2 1.0279999999999991e+00 -2.6619555324098419e+03 1.0000000000000000e+00 1.9238749889810169e+01 1.6438496396031415e+01 9.7965377583462612e+00 
1210 1211 2 1.0280000000000045e+00 1.2708704208615438e+03 1.0000000000000000e+00 1.9762379752598665e+01 1.5347880319552251e+01 1.0438720756944006e+01 
536 537 2 1.0279999999999996e+00 7.2510762073172066e+02 1.0000000000000000e+00 1.9479203674903385e+01 1.7194307787239307e+01 1.0911325388550502e+01 
1295 1296 2 1.0280000000000009e+00 2.8021538345197664e+03 1.0000000000000000e+00 1.9398800142484252e+01 1.6998548255152603e+01 1.1676978951351016e+01 
1257 1258 2 1.0280000000000016e+00 5.3430066503780617e+03 1.0000000000000000e+00 1.9064820455168231e+01 1.5892089242988899e+01 1.5558762979464875e+01 
300 301 2 1.0280000000000011e+00 2.0491422991851773e+03 1.0000000000000000e+00 1.8597069177525977e+01 1.5274230378965663e+01 1.5771703339075088e+01 
1364 1365 2 1.0280000000000011e+00 2.0492905476307496e+03 1.0000000000000000e+00 1.8596218067990005e+01 1.5278573450200474e+01 1.5774342147327566e+01 
321 322 2 1.0279999999999920e+00 -2.9997388814027299e+03 1.0000000000000000e+00 1.8969224926199942e+01 1.5856526760532004e+01 1.5923374909924481e+01 
193 194 2 1.0280000000000000e+00 5.3342934938719654e+03 1.0000000000000000e+00 1.9060841722244643e+01 1.4053328796771115e+01 1.7265018846434650e+01 
617 618 2 1.0280000000000173e+00 -1.0766382135924023e+03 1.0000000000000000e+00 1.8657927426866078e+01 1.3373675319824718e+01 1.9201584690420212e+01 
943 944 2 1.0279999999999909e+00 3.4472987021777517e+03 1.0000000000000000e+00 1.8369861942923279e+01 1.3613305957888411e+01 1.9396867250323872e+01 
13 14 2 1.0279999999999989e+00 3.8664386661971748e+03 1.0000000000000000e+00 1.8438961279225115e+01 1.4968901348851958e+01 1.7757609578339945e+01 
1381 1382 2 1.0279999999999991e+00 3.8659840546458217e+03 1.0000000000000000e+00 1.8433559530320981e+01 1.4955193207555277e+01 1.7780021109441741e+01 
487 488 2 1.0279999999999991e+00 3.4543185399883741e+03 1.0000000000000000e+00 1.8580360377133431e+01 1.4927680785773660e+01 1.8081858621867909e+01 
1234 1235 2 1.0280000000000025e+00 -2.6533917002816511e+03 1.0000000000000000e+00 1.9656710495787195e+01 1.0089328292789075e+01 2.1214534351896120e+01 
1235 1236 2 1.0279999999999916e+00 -2.6489812332684105e+03 1.0000000000000000e+00 1.9687656613707070e+01 9.9620378139383057e+00 2.1249367006155726e+01 
519 520 2 1.0279999999999974e+00 6.2811931570396937e+03 1.0000000000000000e+00 1.9766376865459016e+01 9.2917977220750672e+00 2.1691488957767234e+01 
518 519 2 1.0279999999999991e+00 6.2761218033140940e+03 1.0000000000000000e+00 1.9512924244662472e+01 9.1922798938689105e+00 2.1796065992005140e+01 
179 180 2 1.0279999999999923e+00 -3.3887053747250247e+03 1.0000000000000000e+00 1.8622342847850664e+01 1.3424566045171735e+01 1.9491705532831268e+01 
1089 1090 2 1.0279999999999987e+00 1.8535452480446570e+03 1.0000000000000000e+00 1.8814893177826615e+01 1.3773346559988209e+01 1.9535722214284476e+01 
502 503 2 1.0279999999999994e+00 2.3492987405376925e+03 1.0000000000000000e+00 1.8291117051832945e+01 1.2672180156018676e+01 2.0777180325792955e+01 
120 121 2 1.0279999999999985e+00 3.8570385896584803e+03 1.0000000000000000e+00 1.9177924803242941e+01 1.1688370443296835e+01 2.1122780165025166e+01 
1076 1077 2 1.0280000000000002e+00 -1.7608417957872680e+03 1.0000000000000000e+00 1.7838469535373889e+01 1.2327476189526429e+01 2.1816012762430621e+01 
312 313 2 1.0280000000000005e+00 6.3137656991156273e+03 1.0000000000000000e+00 1.7795838176856492e+01 1.2312464590183602e+01 2.1951881468901124e+01 
769 770 2 1.0279999999999969e+00 -1.0571305064286644e+03 1.0000000000000000e+00 1.7852257154833129e+01 1.5960187716699059e+01 2.1879614508966625e+01 
1243 1244 2 1.0280000000000018e+00 -3.3841709419159670e+03 1.0000000000000000e+00 1.7843384232383961e+01 1.5944894791963625e+01 2.1883291170011827e+01 
329 330 2 1.0279999999999996e+00 1.8110438649777379e+03 1.0000000000000000e+00 1.7892831642608044e+01 1.5701999757536592e+01 2.1898887595031603e+01 
516 517 2 1.0279999999999969e+00 -2.7175092874091442e+03 1.0000000000000000e+00 1.8785079666534305e+01 1.7004629085178674e+01 2.2218054246210958e+01 
164 165 2 1.0280000000000002e+00 6.3880706176377753e+03 1.0000000000000000e+00 1.6720718594907677e+01 1.1271939257445210e+01 2.4136742681207959e+01 
296 297 2 1.0279999999999998e+00 6.3876602353836697e+03 1.0000000000000000e+00 1.6691321551775331e+01 1.1234762724293603e+01 2.4257383613016852e+01 
1464 1465 2 1.0279999999999987e+00 -2.7639670807447294e+02 1.0000000000000000e+00 1.8565137231240318e+01 9.7172291956266630e+00 2.2988989739581370e+01 
1428 1429 2 1.0279999999999991e+00 -2.7683429510656356e+02 1.0000000000000000e+00 1.8590038699898933e+01 9.6955845383937582e+00 2.2993422295651374e+01 
82 83 2 1.0279999999999989e+00 1.0198986769135141e+02 1.0000000000000000e+00 1.7231753435803938e+01 1.0719458671616255e+01 2.4429906010916337e+01 
491 492 2 1.0280000000000011e+00 2.6320812988001317e+03 1.0000000000000000e+00 1.8788074503168662e+01 1.1374379804995145e+01 2.4967575878429329e+01 
815 816 2 1.0280000000000014e+00 -3.6842990001812768e+03 1.0000000000000000e+00 1.7121263227877936e+01 1.1870124534428493e+01 2.3353259447029085e+01 
895 896 2 1.0280000000000009e+00 7.6625923225649512e+02 1.0000000000000000e+00 1.7664047031739248e+01 1.2239081142519103e+01 2.2317713442487850e+01 
1476 1477 2 1.0279999999999978e+00 2.8840385957046637e+03 1.0000000000000000e+00 1.9521486898751693e+01 1.2219070802284115e+01 2.2577322903217180e+01 
743 744 2 1.0280000000000102e+00 7.6546956525640599e+02 1.0000000000000000e+00 1.6781902190387083e+01 1.6075873214626146e+01 2.3456884156095750e+01 
1072 1073 2 1.0279999999999883e+00 6.3205058834339889e+03 1.0000000000000000e+00 1.6917550478792794e+01 1.6526500995210196e+01 2.3730916700687050e+01 
316 317 2 1.0279999999999963e+00 -1.7515205465455174e+03 1.0000000000000000e+00 1.7047875610811598e+01 1.6634598564438644e+01 2.3899017637372257e+01 
76 77 2 1.0280000000000045e+00 -2.7876929539174316e+03 1.0000000000000000e+00 1.7972981614482908e+01 1.4833699474083613e+01 2.2922463010820998e+01 
19 20 2 1.0279999999999936e+00 -2.7064180582256854e+03 1.0000000000000000e+00 1.9091288032439611e+01 1.4755692998863262e+01 2.3275230113237519e+01 
77 78 2 1.0279999999999998e+00 -2.8767190044898143e+03 1.0000000000000000e+00 1.9867442023410142e+01 1.4755809708361589e+01 2.3403745666019134e+01 
958 959 2 1.0279999999999980e+00 2.3654461320319319e+03 1.0000000000000000e+00 1.7487383524637938e+01 1.6844388957646188e+01 2.4050691372017571e+01 
358 359 2 1.0280000000000271e+00 -1.0236118976072428e+03 1.0000000000000000e+00 1.9984650582792707e+01 1.7786252712794319e+01 2.4366741991921248e+01 
1350 1351 2 1.0280000000000002e+00 -2.6370596234303985e+03 1.0000000000000000e+00 1.9493805270720610e+01 8.3582736129019466e+00 2.6221696923517968e+01 
1351 1352 2 1.0280000000000000e+00 -2.6395271659914961e+03 1.0000000000000000e+00 1.9492522185972515e+01 8.3551512708239510e+00 2.6222302271995815e+01 
48 49 2 1.0279999999999998e+00 2.7956385264269848e+03 1.0000000000000000e+00 1.9462971143154000e+01 8.3613021710370852e+00 2.6265271481514752e+01 
45 46 2 1.0279999999999998e+00 2.7968738949177859e+03 1.0000000000000000e+00 1.9463124941113605e+01 8.3803979379204314e+00 2.6272280030927980e+01 
609 610 2 1.0279999999999989e+00 -5.1553163190734540e+03 1.0000000000000000e+00 1.9458114583551456e+01 7.6992223769950137e+00 2.7420846996818938e+01 
612 613 2 1.0280000000000042e+00 -5.1556013603966039e+03 1.0000000000000000e+00 1.9771797510125822e+01 7.6257317594627327e+00 2.7479459229588311e+01 
859 860 2 1.0279999999999991e+00 -3.6841927165095731e+03 1.0000000000000000e+00 1.6408643364141518e+01 1.1323043453500913e+01 2.5623784159644345e+01 
1220 1221 2 1.0280000000000031e+00 2.3877410994142190e+02 1.0000000000000000e+00 1.9794393142412439e+01 1.0799004786619996e+01 2.7112324724154213e+01 
746 747 2 1.0280000000000000e+00 2.3306289405099756e+02 1.0000000000000000e+00 1.4097531695925817e+01 1.2828228974459847e+01 2.7519085603996867e+01 
898 899 2 1.0280000000000007e+00 2.3308789087687512e+02 1.0000000000000000e+00 1.4098139194956675e+01 1.3853367358425027e+01 2.7536256284983637e+01 
823 824 2 1.0279999999999978e+00 -1.5714734439306321e+03 1.0000000000000000e+00 1.6568828847503383e+01 1.2736750534138499e+01 2.5542541149680680e+01 
515 516 2 1.0280000000000087e+00 5.6046690646209499e+03 1.0000000000000000e+00 1.6933052317016550e+01 1.3147727556635617e+01 2.6310567239980006e+01 
142 143 2 1.0279999999999987e+00 -2.0084261504511817e+03 1.0000000000000000e+00 1.4765986846949284e+01 1.3295018898399215e+01 2.6695116650190194e+01 
1444 1445 2 1.0279999999999978e+00 -2.7831428067718562e+03 1.0000000000000000e+00 1.7035120273724807e+01 1.1851947517692626e+01 2.6775983661917184e+01 
1510 1511 2 1.0279999999999996e+00 -2.0084394531629987e+03 1.0000000000000000e+00 1.4867354235304157e+01 1.3883482099847882e+01 2.6804325088004010e+01 
779 780 2 1.0279999999999967e+00 7.6811527566401946e+02 1.0000000000000000e+00 1.6559065834993511e+01 1.1830163167247537e+01 2.6954389940270342e+01 
827 828 2 1.0280000000000020e+00 -2.7132537872229732e+03 1.0000000000000000e+00 1.8761387852211797e+01 1.1549705739597552e+01 2.5046259795404797e+01 
956 957 2 1.0279999999999985e+00 -4.2160035360595430e+03 1.0000000000000000e+00 1.8447122925167061e+01 1.1992074259517409e+01 2.6267687299205889e+01 
606 607 2 1.0279999999999971e+00 -2.5687484656709630e+03 1.0000000000000000e+00 1.9471815839686062e+01 1.3623219507686727e+01 2.7307146549961313e+01 
1062 1063 2 1.0279999999999996e+00 -2.5674626543860850e+03 1.0000000000000000e+00 1.9569081761379465e+01 1.3594825981068194e+01 2.7454850779938909e+01 
671 672 2 1.0279999999999989e+00 -1.5727949200592516e+03 1.0000000000000000e+00 1.7060989268707758e+01 1.5274033189212007e+01 2.5851380636292703e+01 
663 664 2 1.0279999999999976e+00 -3.6845926394115650e+03 1.0000000000000000e+00 1.7007117336855156e+01 1.5697278417929338e+01 2.5997407923961912e+01 
971 972 2 1.0280000000000009e+00 5.6024293365800550e+03 1.0000000000000000e+00 1.6978455539537844e+01 1.4887144971802906e+01 2.6214462177669123e+01 
947 948 2 1.0280000000000002e+00 2.6298639102918032e+03 1.0000000000000000e+00 1.8273485288039492e+01 1.5874698449088330e+01 2.5000049518484488e+01 
500 501 2 1.0280000000000022e+00 -4.2189774590530087e+03 1.0000000000000000e+00 1.8686675831292050e+01 1.5422900758024170e+01 2.6669747183185077e+01 
675 676 2 1.0280000000000029e+00 -2.7154205244308214e+03 1.0000000000000000e+00 1.8964566451107348e+01 1.5420154310855420e+01 2.6823915556452551e+01 
171 172 2 1.0280000000000020e+00 -2.6470227391214953e+03 1.0000000000000000e+00 1.9989434609612882e+01 1.8199214786641225e+01 2.6050947053382426e+01 
654 655 2 1.0279999999999974e+00 -2.7256820968251041e+03 1.0000000000000000e+00 1.9898022270245580e+01 1.9101222213681975e+01 2.6741989921269351e+01 
655 656 2 1.0279999999999974e+00 -2.7237239194263511e+03 1.0000000000000000e+00 1.9829464500799222e+01 1.9135318032185239e+01 2.6761599969581642e+01 
975 976 2 1.0279999999999945e+00 6.2512519930468243e+03 1.0000000000000000e+00 1.9159372715178499e+01 1.8728964433645825e+01 2.7434339765853693e+01 
1433 1434 2 1.0280000000000011e+00 -7.5146784489667334e+02 1.0000000000000000e+00 1.8858946794431453e+01 7.3657933155740141e+00 2.9544072476641055e+01 
1091 1092 2 1.0279999999999980e+00 4.2363402681139860e+02 1.0000000000000000e+00 1.8856660538006068e+01 7.1235436208091034e+00 2.9733916082562001e+01 
1131 1132 2 1.0280000000000031e+00 2.0629094062412719e+03 1.0000000000000000e+00 1.8879992113755705e+01 7.1044994196629201e+00 3.0023546926288198e+01 
1386 1387 2 1.0279999999999998e+00 -2.6940609632674291e+03 1.0000000000000000e+00 1.9475010411723940e+01 1.1358949968990895e+01 2.9605788393509147e+01 
1503 1504 2 1.0279999999999998e+00 -2.8560263701947651e+03 1.0000000000000000e+00 1.8445643885017425e+01 1.1016352200742006e+01 3.0306165814484388e+01 
774 775 2 1.0279999999999996e+00 2.3308744283815170e+02 1.0000000000000000e+00 1.4216784693660950e+01 1.3694843117005494e+01 2.8836585262707818e+01 
447 448 2 1.0279999999999965e+00 -3.9730132559612830e+03 1.0000000000000000e+00 1.5469400142523860e+01 1.1878770684959552e+01 2.7864863580918350e+01 
315 316 2 1.0279999999999987e+00 -3.9730797192554983e+03 1.0000000000000000e+00 1.5511851697899321e+01 1.1927079512960065e+01 2.8113177191686749e+01 
622 623 2 1.0280000000000009e+00 2.3305200291480787e+02 1.0000000000000000e+00 1.4301722942626171e+01 1.2715095594090720e+01 2.8800272396573099e+01 
10 11 2 1.0279999999999991e+00 -2.0084739544937215e+03 1.0000000000000000e+00 1.5366593057914523e+01 1.2789798150670574e+01 2.9548890535874023e+01 
1378 1379 2 1.0279999999999994e+00 -2.0084782516386260e+03 1.0000000000000000e+00 1.5296702329550314e+01 1.3207175638106660e+01 2.9660764520807330e+01 
1007 1008 2 1.0279999999999996e+00 5.6063878875121954e+03 1.0000000000000000e+00 1.7110605689384101e+01 1.3794531386972837e+01 3.0005008544676684e+01 
699 700 2 1.0279999999999994e+00 -1.5718303278852704e+03 1.0000000000000000e+00 1.7089862822871545e+01 1.3812473425350698e+01 3.0012568275198678e+01 
607 608 2 1.0279999999999994e+00 -2.5393031288679113e+03 1.0000000000000000e+00 1.9475399716608322e+01 1.2314061862333419e+01 2.9551346361919748e+01 
1063 1064 2 1.0279999999999991e+00 -2.5371836969009610e+03 1.0000000000000000e+00 1.9524786226609390e+01 1.2279461200983318e+01 2.9580255255317670e+01 
851 852 2 1.0280000000000007e+00 -1.5631464365241382e+03 1.0000000000000000e+00 1.7283583943523027e+01 1.1641093767457182e+01 3.0365367759207928e+01 
551 552 2 1.0280000000000002e+00 5.6141530673123343e+03 1.0000000000000000e+00 1.7277268637713483e+01 1.1644257951006018e+01 3.0368547146761717e+01 
1207 1208 2 1.0280000000000016e+00 -3.9726145114511164e+03 1.0000000000000000e+00 1.5222545177717368e+01 1.5157142065120082e+01 2.7886849433136280e+01 
1228 1229 2 1.0279999999999871e+00 6.3853357560338172e+03 1.0000000000000000e+00 1.6866167367118322e+01 1.6315602293834523e+01 2.7961949493792186e+01 
1360 1361 2 1.0280000000000089e+00 6.3848698668965189e+03 1.0000000000000000e+00 1.6882169749359061e+01 1.6316938790301421e+01 2.8077621621076116e+01 
707 708 2 1.0280000000000060e+00 -3.6847657138985605e+03 1.0000000000000000e+00 1.6316395030697610e+01 1.6109595133371254e+01 2.8158541721928366e+01 
1075 1076 2 1.0279999999999998e+00 -3.9726384971181124e+03 1.0000000000000000e+00 1.5165676561548578e+01 1.5114113785345877e+01 2.8362650709755233e+01 
627 628 2 1.0280000000000027e+00 7.6752513151567973e+02 1.0000000000000000e+00 1.6436741145684490e+01 1.5162784535681148e+01 2.9593020493926968e+01 
733 734 2 1.0280000000000009e+00 -2.8695743133862334e+03 1.0000000000000000e+00 1.7046455542302471e+01 1.4887083644699695e+01 2.9753224161882805e+01 
96 97 2 1.0280000000000284e+00 -2.7250244709443371e+02 1.0000000000000000e+00 1.9100892131010625e+01 1.7014831677888967e+01 2.8595575578871035e+01 
60 61 2 1.0279999999999792e+00 -2.7293169799278860e+02 1.0000000000000000e+00 1.9109738147687299e+01 1.7041263587428396e+01 2.8599901780138488e+01 
1450 1451 2 1.0279999999999994e+00 1.3873712826421718e+02 1.0000000000000000e+00 1.7892766678381133e+01 1.5372076827001703e+01 2.9213728766615191e+01 
105 106 2 1.0279999999999985e+00 2.8736036179458906e+03 1.0000000000000000e+00 1.9509064594293996e+01 1.5551426393678822e+01 3.0339343940317463e+01 
1113 1114 2 1.0279999999999998e+00 -4.8516880367970180e+03 1.0000000000000000e+00 1.9851568935212526e+01 7.2680476601275590e+00 3.1056589461625240e+01 
1116 1117 2 1.0279999999999978e+00 -4.8515618141790637e+03 1.0000000000000000e+00 1.9503381570817208e+01 7.3561691089714714e+00 3.1282400437806849e+01 
1354 1355 2 1.0279999999999982e+00 3.1093229741779578e+03 1.0000000000000000e+00 1.9664990269564953e+01 8.1115660957350801e+00 3.2953740287603893e+01 
1230 1231 2 1.0279999999999982e+00 3.1094355619429402e+03 1.0000000000000000e+00 1.9644969132200892e+01 8.1445290562521873e+00 3.2958434876009385e+01 
1355 1356 2 1.0279999999999978e+00 3.1090430448396019e+03 1.0000000000000000e+00 1.9477268638628182e+01 8.0929866323691044e+00 3.2988221445415263e+01 
1231 1232 2 1.0279999999999980e+00 3.1092350569076266e+03 1.0000000000000000e+00 1.9475945449278647e+01 8.1137373786040428e+00 3.3005772302006278e+01 
885 886 2 1.0279999999999949e+00 -2.9259183047683150e+03 1.0000000000000000e+00 1.8748626082987624e+01 1.0858723455032568e+01 3.1409450199131459e+01 
452 453 2 1.0280000000000031e+00 6.3642201596333380e+03 1.0000000000000000e+00 1.7297550621185270e+01 1.1070299637488906e+01 3.1968816959757966e+01 
1208 1209 2 1.0280000000000022e+00 -1.6159613187902710e+03 1.0000000000000000e+00 1.8540197247903318e+01 1.1365299859374538e+01 3.2831118183361838e+01 
1224 1225 2 1.0280000000000014e+00 2.1016005229554235e+03 1.0000000000000000e+00 1.6437019033954684e+01 1.2278901729703557e+01 3.2124254877337066e+01 
160 161 2 1.0280000000000007e+00 2.1023889411248520e+03 1.0000000000000000e+00 1.6430645468951344e+01 1.2324229740135761e+01 3.2195202004096807e+01 
135 136 2 1.0279999999999945e+00 -2.8807929080404128e+03 1.0000000000000000e+00 1.8927650157414156e+01 1.3203900289219559e+01 3.0560661539442496e+01 
901 902 2 1.0279999999999994e+00 -1.1339725054349587e+03 1.0000000000000000e+00 1.9430799226672889e+01 1.4042433054565942e+01 3.2674771524571675e+01 
1212 1213 2 1.0279999999999949e+00 6.3297569317372945e+03 1.0000000000000000e+00 1.6584150382140621e+01 1.4636805910744116e+01 3.3002163429330473e+01 
448 449 2 1.0279999999999943e+00 -1.6385972362368361e+03 1.0000000000000000e+00 1.6707264637740042e+01 1.5177729115471513e+01 3.3020078575892462e+01 
1488 1489 2 1.0280000000000002e+00 3.8558887063421298e+03 1.0000000000000000e+00 1.9962445382469483e+01 1.6170183303811502e+01 3.0623971418810243e+01 
108 109 2 1.0280000000000016e+00 2.8745253684312756e+03 1.0000000000000000e+00 1.9296624878685858e+01 1.4810419844244530e+01 3.1341264817956851e+01 
511 512 2 1.0280000000000031e+00 4.2365039933656099e+03 1.0000000000000000e+00 1.9552505042130182e+01 8.0311287481635674e+00 3.4206517435667699e+01 
738 739 2 1.0280000000000025e+00 -7.1540503443476655e+02 1.0000000000000000e+00 1.9214390849410130e+01 8.4653239961855569e+00 3.6069877091063297e+01 
33 34 2 1.0280000000000058e+00 3.8638248007352986e+03 1.0000000000000000e+00 1.9618100939149169e+01 8.6160813301045920e+00 3.5029167664313071e+01 
137 138 2 1.0280000000000002e+00 3.8924762711751046e+03 1.0000000000000000e+00 1.6739255700490329e+01 1.2537800882463442e+01 3.3457044378741543e+01 
1505 1506 2 1.0280000000000007e+00 3.8929336178533313e+03 1.0000000000000000e+00 1.6759653868267240e+01 1.2566643065198692e+01 3.3477989894573810e+01 
1343 1344 2 1.0279999999999971e+00 -3.3814590097824394e+03 1.0000000000000000e+00 1.6329936301755350e+01 1.4149828554513245e+01 3.3992768986859666e+01 
749 750 2 1.0280000000000022e+00 -1.0936040034387179e+03 1.0000000000000000e+00 1.8656518350164607e+01 1.1784637441412309e+01 3.3350140044497152e+01 
279 280 2 1.0279999999999989e+00 -3.3474308856781508e+03 1.0000000000000000e+00 1.7422716279726817e+01 1.1583846628071218e+01 3.3473469209187350e+01 
752 753 2 1.0279999999999998e+00 -1.0940371646243730e+03 1.0000000000000000e+00 1.9648906962959419e+01 1.2402796351966513e+01 3.4282603678340188e+01 
562 563 2 1.0279999999999982e+00 2.3801097508374805e+03 1.0000000000000000e+00 1.8778870001354584e+01 1.1592312739395251e+01 3.5183519679009905e+01 
227 228 2 1.0280000000000000e+00 2.8054558998636967e+03 1.0000000000000000e+00 1.8985366404638537e+01 1.1786809204840610e+01 3.6091359970701177e+01 
1018 1019 2 1.0279999999999974e+00 2.4258553944987598e+03 1.0000000000000000e+00 1.6497167082152831e+01 1.5938443121070378e+01 3.3502356821359662e+01 
633 634 2 1.0279999999999980e+00 -2.8039807612214017e+03 1.0000000000000000e+00 1.6479962610278797e+01 1.5944034048783884e+01 3.3517236772145466e+01 
1291 1292 2 1.0279999999999985e+00 2.8620646662374588e+03 1.0000000000000000e+00 1.6441165621896484e+01 1.6047269900990106e+01 3.3686227851532237e+01 
680 681 2 1.0279999999999967e+00 -2.6547947276191726e+03 1.0000000000000000e+00 1.6508374210333297e+01 1.4805116546539558e+01 3.5295105914337988e+01 
532 533 2 1.0279999999999967e+00 7.6310492955977770e+02 1.0000000000000000e+00 1.6870315339783666e+01 1.4962884817084671e+01 3.5503937030943028e+01 
703 704 2 1.0280000000000005e+00 -2.2371708719825540e+02 1.0000000000000000e+00 1.9706324042627557e+01 1.5938569328764139e+01 3.4263961904260434e+01 
437 438 2 1.0279999999999991e+00 -2.9924721868497581e+03 1.0000000000000000e+00 1.8618248764803617e+01 1.5471212371884151e+01 3.4731106060222963e+01 
702 703 2 1.0280000000000047e+00 -2.2435288003865486e+02 1.0000000000000000e+00 1.9379571812118318e+01 1.6554048693604329e+01 3.4762422858601226e+01 
1325 1326 2 1.0280000000000011e+00 5.3671326518940896e+03 1.0000000000000000e+00 1.7391834749640466e+01 1.6310744012674419e+01 3.5629022179933180e+01 
1015 1016 2 1.0279999999999991e+00 5.3945350917872256e+03 1.0000000000000000e+00 1.9530324353418528e+01 1.7055486358675250e+01 3.5662521981429215e+01 
1014 1015 2 1.0279999999999991e+00 5.3928615776383413e+03 1.0000000000000000e+00 1.9533058303745044e+01 1.7051665716737812e+01 3.5665285121020581e+01 
286 287 2 1.0279999999999989e+00 -2.6303628072626589e+03 1.0000000000000000e+00 1.9308563078036990e+01 1.9539614435975988e+01 3.3374431723195919e+01 
166 167 2 1.0280000000000018e+00 3.1073827417275929e+03 1.0000000000000000e+00 1.9870773262575696e+01 1.9955336650215312e+01 3.3647409976339397e+01 
291 292 2 1.0280000000000027e+00 3.1073981081152524e+03 1.0000000000000000e+00 1.8495485617768253e+01 1.9861969475893119e+01 3.3861465565943696e+01 
287 288 2 1.0280000000000034e+00 -2.6311314459800578e+03 1.0000000000000000e+00 1.9266075703253616e+01 1.9082241569623474e+01 3.3927841886754813e+01 
167 168 2 1.0280000000000045e+00 3.1074813562410750e+03 1.0000000000000000e+00 1.8539705612458246e+01 1.9695567613564208e+01 3.3940882748605262e+01 
1363 1364 2 1.0280000000000009e+00 8.6426167276350225e+02 1.0000000000000000e+00 1.2336019026583227e+01 1.2289802086984094e+00 3.7978629596178550e+01 
1335 1336 2 1.0279999999999987e+00 -1.0945885974711912e+02 1.0000000000000000e+00 1.2305750112381030e+01 1.2109233017674681e+00 3.8028368976858729e+01 
1344 1345 2 1.0279999999999998e+00 2.8066196583821502e+03 1.0000000000000000e+00 1.2318518965186879e+01 1.0338200633537229e+00 3.8104321273953900e+01 
883 884 2 1.0279999999999985e+00 1.9614205897762656e+03 1.0000000000000000e+00 1.2864494709847115e+01 4.3916963339595833e-01 3.8425974607530421e+01 
555 556 2 1.0279999999999969e+00 4.2855826283745491e+03 1.0000000000000000e+00 1.3420992052886852e+01 2.6943764756252349e+00 3.8522538126043919e+01 
902 903 2 1.0280000000000018e+00 -1.5476566602626117e+03 1.0000000000000000e+00 1.2378450642175368e+01 2.0110014585959006e+00 3.8534987620041477e+01 
882 883 2 1.0280000000000005e+00 1.9650437694907730e+03 1.0000000000000000e+00 1.3902823810593516e+01 3.2023270659213748e-01 3.8762675803847003e+01 
1362 1363 2 1.0280000000000002e+00 8.5743452715905255e+02 1.0000000000000000e+00 1.4784489005090490e+01 1.3583571426898091e+00 3.8756763254027703e+01 
1275 1276 2 1.0280000000000007e+00 1.1342276754075126e+03 1.0000000000000000e+00 1.8985366366087618e+01 8.3487774420650585e-01 3.8714160385502964e+01 
802 803 2 1.0279999999999994e+00 5.2179890098293199e+03 1.0000000000000000e+00 1.9045227518044989e+01 5.5763363442519340e+00 3.7556933695362837e+01 
1240 1241 2 1.0279999999999969e+00 -9.2183461250211076e+02 1.0000000000000000e+00 1.9168546959512717e+01 5.3462169409004705e+00 3.7799909385240717e+01 
4 5 2 1.0280000000000022e+00 7.8083037480500548e+02 1.0000000000000000e+00 1.8676289507904798e+01 7.4844952450707369e+00 3.6409352778497251e+01 
152 153 2 1.0280000000000002e+00 7.7977869467448613e+02 1.0000000000000000e+00 1.8803195823798205e+01 7.8876221538906970e+00 3.6567801798455321e+01 
510 511 2 1.0279999999999936e+00 4.2339755242870015e+03 1.0000000000000000e+00 1.9843917436865851e+01 5.8507137326328111e+00 3.6746791795537881e+01 
630 631 2 1.0279999999999967e+00 -7.1638637473117751e+02 1.0000000000000000e+00 1.8673958187810825e+01 6.8090507179701367e+00 3.7096369435579724e+01 
785 786 2 1.0280000000000022e+00 -2.8417530253315699e+03 1.0000000000000000e+00 1.9088729419049493e+01 1.1817108064977944e+01 3.6236479912249351e+01 
854 855 2 1.0280000000000018e+00 -2.2103462092828977e+02 1.0000000000000000e+00 1.9651200302157491e+01 1.1961632660219363e+01 3.6546276670046495e+01 
855 856 2 1.0279999999999965e+00 -2.2132144202142837e+02 1.0000000000000000e+00 1.9674491518355254e+01 1.1969622955392671e+01 3.6548189613428406e+01 
261 262 2 1.0280000000000009e+00 5.3775342391691192e+03 1.0000000000000000e+00 1.5127284889678526e+01 1.6307307194458648e+01 3.6229170816560057e+01 
1197 1198 2 1.0280000000000000e+00 -2.9638268120400485e+03 1.0000000000000000e+00 1.4854394931382320e+01 1.6879137966117938e+01 3.6419196309257764e+01 
459 460 2 1.0280000000000002e+00 -2.4757193959906681e+03 1.0000000000000000e+00 1.6658633251419293e+01 1.5710646353620451e+01 3.6444045742145811e+01 
832 833 2 1.0280000000000002e+00 -2.6550350810206228e+03 1.0000000000000000e+00 1.4805139878123347e+01 1.6736108296389762e+01 3.6512248312024560e+01 
988 989 2 1.0280000000000005e+00 7.5045445685122468e+02 1.0000000000000000e+00 1.4735001874565807e+01 1.7082631698347580e+01 3.6516217016232346e+01 
915 916 2 1.0280000000000020e+00 -2.4765015583135082e+03 1.0000000000000000e+00 1.6568657663292889e+01 1.6053622599691927e+01 3.6883313297674952e+01 
72 73 2 1.0280000000000005e+00 -3.1416908818898746e+03 1.0000000000000000e+00 7.8039282949633755e+00 1.9975993446959475e+01 3.7625797550479760e+01 
1022 1023 2 1.0280000000000002e+00 3.2489895681669227e+03 1.0000000000000000e+00 7.9227124012504770e+00 1.9929144225315326e+01 3.7813128751585730e+01 
579 580 2 1.0280000000000009e+00 3.5317964306094091e+03 1.0000000000000000e+00 1.0983326459978354e+01 1.9111735829020397e+01 3.6977940006821790e+01 
853 854 2 1.0279999999999996e+00 -6.9038111970812054e+01 1.0000000000000000e+00 1.1108448507978682e+01 1.9719433550806869e+01 3.7324194364690960e+01 
266 267 2 1.0280000000000002e+00 -2.1646768545298473e+03 1.0000000000000000e+00 1.0499477624437816e+01 1.9358935444623707e+01 3.7336199118347139e+01 
717 718 2 1.0279999999999978e+00 -1.1960575886650627e+03 1.0000000000000000e+00 1.0811581395860596e+01 1.8740431075751857e+01 3.7518461054109942e+01 
1035 1036 2 1.0279999999999982e+00 3.5347862828535826e+03 1.0000000000000000e+00 9.0937136752206840e+00 1.9673327940822556e+01 3.7558618448337100e+01 
869 870 2 1.0280000000000016e+00 -1.1955075240084193e+03 1.0000000000000000e+00 1.2999670862351190e+01 1.9102138782133238e+01 3.6924000062529160e+01 
232 233 2 1.0279999999999938e+00 2.1567575569613459e+03 1.0000000000000000e+00 1.4085886592168738e+01 1.8994602972932000e+01 3.7180110593262789e+01 
113 114 2 1.0279999999999989e+00 -3.4063321098457463e+03 1.0000000000000000e+00 1.1614763912214245e+01 1.8159638087600801e+01 3.7496558353672903e+01 
1481 1482 2 1.0280000000000002e+00 -3.4059192131732798e+03 1.0000000000000000e+00 1.2180557595968455e+01 1.9920437826913311e+01 3.7822447150397153e+01 
1329 1330 2 1.0279999999999969e+00 6.1879282927140284e+03 1.0000000000000000e+00 1.3839305739907951e+01 1.9935217231985128e+01 3.7938790829290006e+01 
265 266 2 1.0280000000000007e+00 6.1852365808265749e+03 1.0000000000000000e+00 1.3392878525242939e+01 1.7399990347164561e+01 3.8032827521881110e+01 
1296 1297 2 1.0280000000000022e+00 2.1606307217267531e+03 1.0000000000000000e+00 1.2972796421136747e+01 1.7730848334002815e+01 3.8487798861060504e+01 
1429 1430 2 1.0279999999999969e+00 -1.6849445814890592e+02 1.0000000000000000e+00 1.4180724945565832e+01 1.7668203514358574e+01 3.8655825540251229e+01 
396 397 2 1.0279999999999980e+00 -8.0954717199700226e+03 1.0000000000000000e+00 1.6222725237363854e+01 1.7874491732859425e+01 3.7626785420491082e+01 
679 680 2 1.0280000000000018e+00 -8.2551905310455163e+02 1.0000000000000000e+00 1.6700182802975885e+01 1.7811935919275591e+01 3.8159416922265308e+01 
963 964 2 1.0280000000000005e+00 5.3204885837903876e+03 1.0000000000000000e+00 1.8546934929207236e+01 1.8991867673228491e+01 3.6265236870987593e+01 