LAMMPS data file via write_data, version 30 Jul 2016, timestep = 50400000

1520 atoms
8 atom types

0.0000000000000000e+00 4.0000000000000000e+01 xlo xhi
0.0000000000000000e+00 4.0000000000000000e+01 ylo yhi
0.0000000000000000e+00 1.0000000000000000e+02 zlo zhi

Masses

1 3.896
2 5.36
3 20.064
4 8.378
5 8.378
6 8.378
7 8.378
8 8.378

Atoms # meso-molecular

75 76 2 1.0280000000000002e+00 1.1704292644840100e+03 1.0000000000000000e+00 1.9996607147566721e+01 1.6785875754632141e+01 1.5919093573240071e+00 
992 993 2 1.0279999999999958e+00 7.4792508346593399e+02 1.0000000000000000e+00 1.9809659624134920e+01 1.6693236765719359e+01 2.9653133339487976e+00 
223 224 2 1.0280000000000022e+00 -6.3700366447086708e+02 1.0000000000000000e+00 1.9739487730939103e+01 1.6556673837459478e+01 3.4173020824734865e+00 
34 35 2 1.0280000000000034e+00 1.1009185927141241e+03 1.0000000000000000e+00 1.9682921422489926e+01 1.5512871523060676e+01 6.3147717397583172e+00 
1081 1082 2 1.0280000000000002e+00 -3.0048570693066590e+03 1.0000000000000000e+00 1.9504833264737190e+01 1.5776281042355988e+01 6.3173805692302842e+00 
231 232 2 1.0280000000000007e+00 2.8139865810258370e+03 1.0000000000000000e+00 1.9503771815838029e+01 1.5763253559259734e+01 6.3712794769319121e+00 
692 693 2 1.0280000000000018e+00 -2.6619555324098419e+03 1.0000000000000000e+00 1.9238749889810169e+01 1.6438496396031415e+01 7.8272921583524218e+00 
1210 1211 2 1.0280000000000062e+00 1.2708704208615438e+03 1.0000000000000000e+00 1.9762379752598665e+01 1.5347880319552251e+01 8.4694751569363049e+00 
1295 1296 2 1.0280000000000000e+00 2.8021538345197664e+03 1.0000000000000000e+00 1.9398800142484252e+01 1.6998548255152603e+01 9.7077333513553210e+00 
536 537 2 1.0280000000000002e+00 7.2510762073172066e+02 1.0000000000000000e+00 1.9479203674903385e+01 1.7194307787239307e+01 8.9420797885548300e+00 
1257 1258 2 1.0280000000000016e+00 5.3430066503780617e+03 1.0000000000000000e+00 1.9064820455168231e+01 1.5892089242988899e+01 1.3589517379487567e+01 
300 301 2 1.0280000000000005e+00 2.0491422991851773e+03 1.0000000000000000e+00 1.8597069177525977e+01 1.5274230378965663e+01 1.3802457739082705e+01 
1364 1365 2 1.0280000000000009e+00 2.0492905476307496e+03 1.0000000000000000e+00 1.8596218067990005e+01 1.5278573450200474e+01 1.3805096547335198e+01 
193 194 2 1.0279999999999998e+00 5.3342934938719654e+03 1.0000000000000000e+00 1.9060841722244643e+01 1.4053328796771115e+01 1.5295773246432931e+01 
321 322 2 1.0279999999999956e+00 -2.9997388814027299e+03 1.0000000000000000e+00 1.8969224926199942e+01 1.5856526760530542e+01 1.3954129309912496e+01 
13 14 2 1.0279999999999980e+00 3.8664386661971748e+03 1.0000000000000000e+00 1.8438961279225115e+01 1.4968901348851958e+01 1.5788363978349533e+01 
1381 1382 2 1.0279999999999980e+00 3.8659840546458217e+03 1.0000000000000000e+00 1.8433559530320981e+01 1.4955193207555277e+01 1.5810775509451458e+01 
487 488 2 1.0279999999999980e+00 3.4543185399883741e+03 1.0000000000000000e+00 1.8580360377133431e+01 1.4927680785773660e+01 1.6112613021875852e+01 
1234 1235 2 1.0280000000000038e+00 -2.6533917002816511e+03 1.0000000000000000e+00 1.9656710495787195e+01 1.0089328292789075e+01 1.9245288751894797e+01 
1235 1236 2 1.0279999999999987e+00 -2.6489812332684105e+03 1.0000000000000000e+00 1.9687656613707070e+01 9.9620378139383057e+00 1.9280121406154247e+01 
617 618 2 1.0280000000000138e+00 -1.0766382135924023e+03 1.0000000000000000e+00 1.8657927426866078e+01 1.3373675319821933e+01 1.7232339090379863e+01 
943 944 2 1.0279999999999920e+00 3.4472987021777517e+03 1.0000000000000000e+00 1.8369861942923279e+01 1.3613305957888411e+01 1.7427621650342029e+01 
179 180 2 1.0279999999999938e+00 -3.3887053747250247e+03 1.0000000000000000e+00 1.8622342847850664e+01 1.3424566045171735e+01 1.7522459932850499e+01 
1089 1090 2 1.0279999999999987e+00 1.8535452480446570e+03 1.0000000000000000e+00 1.8814893177826615e+01 1.3773346559988209e+01 1.7566476614291396e+01 
502 503 2 1.0280000000000018e+00 2.3492987405376925e+03 1.0000000000000000e+00 1.8291117051832945e+01 1.2672180156018676e+01 1.8807934725788080e+01 
120 121 2 1.0280000000000014e+00 3.8570385896584803e+03 1.0000000000000000e+00 1.9177924803242941e+01 1.1688370443296835e+01 1.9153534565025730e+01 
164 165 2 1.0280000000000002e+00 6.3880706176377753e+03 1.0000000000000000e+00 1.6720718594907677e+01 1.1271939257445210e+01 2.2167497081205877e+01 
519 520 2 1.0279999999999994e+00 6.2811931570396937e+03 1.0000000000000000e+00 1.9766376865459016e+01 9.2917977220750672e+00 1.9722243357764743e+01 
518 519 2 1.0279999999999978e+00 6.2761218033140940e+03 1.0000000000000000e+00 1.9512924244662472e+01 9.1922798938689105e+00 1.9826820392002553e+01 
1464 1465 2 1.0279999999999998e+00 -2.7639670807447294e+02 1.0000000000000000e+00 1.8565137231240318e+01 9.7172291956266630e+00 2.1019744139581164e+01 
1428 1429 2 1.0280000000000000e+00 -2.7683429510656356e+02 1.0000000000000000e+00 1.8590038699898933e+01 9.6955845383937582e+00 2.1024176695651033e+01 
815 816 2 1.0279999999999998e+00 -3.6842990001812768e+03 1.0000000000000000e+00 1.7121263227877936e+01 1.1870124534428493e+01 2.1384013847026843e+01 
1076 1077 2 1.0280000000000007e+00 -1.7608417957872680e+03 1.0000000000000000e+00 1.7838469535373889e+01 1.2327476189526429e+01 1.9846767162426616e+01 
312 313 2 1.0280000000000005e+00 6.3137656991156273e+03 1.0000000000000000e+00 1.7795838176856492e+01 1.2312464590183602e+01 1.9982635868897798e+01 
895 896 2 1.0280000000000002e+00 7.6625923225649512e+02 1.0000000000000000e+00 1.7664047031739248e+01 1.2239081142519103e+01 2.0348467842486841e+01 
1476 1477 2 1.0279999999999998e+00 2.8840385957046637e+03 1.0000000000000000e+00 1.9521486898751693e+01 1.2219070802284115e+01 2.0608077303223748e+01 
743 744 2 1.0280000000000098e+00 7.6546956525640599e+02 1.0000000000000000e+00 1.6781902190386926e+01 1.6075873214626146e+01 2.1487638556088825e+01 
1072 1073 2 1.0279999999999894e+00 6.3205058834339889e+03 1.0000000000000000e+00 1.6917550478792794e+01 1.6526500995210196e+01 2.1761671100684605e+01 
316 317 2 1.0279999999999978e+00 -1.7515205465455174e+03 1.0000000000000000e+00 1.7047875610811598e+01 1.6634598564438644e+01 2.1929772037369130e+01 
769 770 2 1.0280000000000014e+00 -1.0571305064286644e+03 1.0000000000000000e+00 1.7852257154833129e+01 1.5960187716699059e+01 1.9910368908964166e+01 
1243 1244 2 1.0279999999999985e+00 -3.3841709419159670e+03 1.0000000000000000e+00 1.7843384232383961e+01 1.5944894791963625e+01 1.9914045570009332e+01 
329 330 2 1.0279999999999978e+00 1.8110438649777379e+03 1.0000000000000000e+00 1.7892831642608044e+01 1.5701999757536592e+01 1.9929641995028891e+01 
516 517 2 1.0280000000000014e+00 -2.7175092874091442e+03 1.0000000000000000e+00 1.8785079666534305e+01 1.7004629085178674e+01 2.0248808646210083e+01 
76 77 2 1.0280000000000054e+00 -2.7876929539174316e+03 1.0000000000000000e+00 1.7972981614482908e+01 1.4833699474083613e+01 2.0953217410826777e+01 
19 20 2 1.0279999999999943e+00 -2.7064180582256854e+03 1.0000000000000000e+00 1.9091288032439611e+01 1.4755692998863262e+01 2.1305984513232410e+01 
77 78 2 1.0279999999999994e+00 -2.8767190044898143e+03 1.0000000000000000e+00 1.9867442023410142e+01 1.4755809708361589e+01 2.1434500066018629e+01 
958 959 2 1.0279999999999996e+00 2.3654461320319319e+03 1.0000000000000000e+00 1.7487383524637938e+01 1.6844388957646188e+01 2.2081445772014369e+01 
1350 1351 2 1.0279999999999994e+00 -2.6370596234303985e+03 1.0000000000000000e+00 1.9493805270720610e+01 8.3582736129019466e+00 2.4252451323519708e+01 
1351 1352 2 1.0279999999999994e+00 -2.6395271659914961e+03 1.0000000000000000e+00 1.9492522185972515e+01 8.3551512708239510e+00 2.4253056671997545e+01 
48 49 2 1.0279999999999991e+00 2.7956385264269848e+03 1.0000000000000000e+00 1.9462971143154000e+01 8.3613021710370852e+00 2.4296025881516396e+01 
45 46 2 1.0279999999999989e+00 2.7968738949177859e+03 1.0000000000000000e+00 1.9463124941113605e+01 8.3803979379204314e+00 2.4303034430929671e+01 
296 297 2 1.0280000000000005e+00 6.3876602353836697e+03 1.0000000000000000e+00 1.6691321551775331e+01 1.1234762724293603e+01 2.2288138013014834e+01 
859 860 2 1.0280000000000016e+00 -3.6841927165095731e+03 1.0000000000000000e+00 1.6408643364141518e+01 1.1323043453500913e+01 2.3654538559645129e+01 
82 83 2 1.0279999999999976e+00 1.0198986769135141e+02 1.0000000000000000e+00 1.7231753435803938e+01 1.0719458671616255e+01 2.2460660410910158e+01 
491 492 2 1.0279999999999998e+00 2.6320812988001317e+03 1.0000000000000000e+00 1.8788074503168662e+01 1.1374379804995145e+01 2.2998330278428561e+01 
823 824 2 1.0280000000000009e+00 -1.5714734439306321e+03 1.0000000000000000e+00 1.6568828847503383e+01 1.2736750534138499e+01 2.3573295549676661e+01 
515 516 2 1.0280000000000094e+00 5.6046690646209499e+03 1.0000000000000000e+00 1.6933052317016550e+01 1.3147727556635617e+01 2.4341321639972247e+01 
142 143 2 1.0279999999999969e+00 -2.0084261504511817e+03 1.0000000000000000e+00 1.4765986846949284e+01 1.3295018898399215e+01 2.4725871050188157e+01 
1444 1445 2 1.0280000000000000e+00 -2.7831428067718562e+03 1.0000000000000000e+00 1.7035120273724807e+01 1.1851947517692626e+01 2.4806738061915137e+01 
1510 1511 2 1.0279999999999978e+00 -2.0084394531629987e+03 1.0000000000000000e+00 1.4867354235304157e+01 1.3883482099847882e+01 2.4835079488002279e+01 
779 780 2 1.0280000000000005e+00 7.6811527566401946e+02 1.0000000000000000e+00 1.6559065834993511e+01 1.1830163167247537e+01 2.4985144340268132e+01 
827 828 2 1.0280000000000005e+00 -2.7132537872229732e+03 1.0000000000000000e+00 1.8761387852211797e+01 1.1549705739597552e+01 2.3077014195407106e+01 
956 957 2 1.0279999999999963e+00 -4.2160035360595430e+03 1.0000000000000000e+00 1.8447122925167061e+01 1.1992074259517409e+01 2.4298441699202879e+01 
671 672 2 1.0279999999999985e+00 -1.5727949200592516e+03 1.0000000000000000e+00 1.7060989268707758e+01 1.5274033189212007e+01 2.3882135036289174e+01 
663 664 2 1.0279999999999978e+00 -3.6845926394115650e+03 1.0000000000000000e+00 1.7007117336855156e+01 1.5697278417929338e+01 2.4028162323959972e+01 
971 972 2 1.0279999999999991e+00 5.6024293365800550e+03 1.0000000000000000e+00 1.6978455539537844e+01 1.4887144971802906e+01 2.4245216577666611e+01 
947 948 2 1.0280000000000009e+00 2.6298639102918032e+03 1.0000000000000000e+00 1.8273485288039492e+01 1.5874698449088330e+01 2.3030803918485052e+01 
500 501 2 1.0280000000000014e+00 -4.2189774590530087e+03 1.0000000000000000e+00 1.8686675831292050e+01 1.5422900758024170e+01 2.4700501583180966e+01 
675 676 2 1.0280000000000034e+00 -2.7154205244308214e+03 1.0000000000000000e+00 1.8964566451107348e+01 1.5420154310855420e+01 2.4854669956449111e+01 
358 359 2 1.0280000000000240e+00 -1.0236118976072428e+03 1.0000000000000000e+00 1.9984650582792707e+01 1.7786252712797278e+01 2.2397496391948728e+01 
171 172 2 1.0280000000000011e+00 -2.6470227391214953e+03 1.0000000000000000e+00 1.9989434609612882e+01 1.8199214786641225e+01 2.4081701453380248e+01 
654 655 2 1.0279999999999991e+00 -2.7256820968251041e+03 1.0000000000000000e+00 1.9898022270245580e+01 1.9101222213681975e+01 2.4772744321268636e+01 
655 656 2 1.0279999999999982e+00 -2.7237239194263511e+03 1.0000000000000000e+00 1.9829464500799222e+01 1.9135318032185239e+01 2.4792354369580863e+01 
609 610 2 1.0280000000000000e+00 -5.1553163190734540e+03 1.0000000000000000e+00 1.9458114583551456e+01 7.6992223769950137e+00 2.5451601396820738e+01 
612 613 2 1.0280000000000036e+00 -5.1556013603966039e+03 1.0000000000000000e+00 1.9771797510125822e+01 7.6257317594627327e+00 2.5510213629589121e+01 
1433 1434 2 1.0280000000000018e+00 -7.5146784489667334e+02 1.0000000000000000e+00 1.8858946794431453e+01 7.3657933155740141e+00 2.7574826876642842e+01 
1091 1092 2 1.0279999999999982e+00 4.2363402681139860e+02 1.0000000000000000e+00 1.8856660538006068e+01 7.1235436208091034e+00 2.7764670482563108e+01 
1220 1221 2 1.0279999999999996e+00 2.3877410994142190e+02 1.0000000000000000e+00 1.9794393142412439e+01 1.0799004786619996e+01 2.5143079124155499e+01 
1386 1387 2 1.0280000000000025e+00 -2.6940609632674291e+03 1.0000000000000000e+00 1.9475010411723940e+01 1.1358949968990895e+01 2.7636542793507232e+01 
746 747 2 1.0280000000000002e+00 2.3306289405099756e+02 1.0000000000000000e+00 1.4097531695925817e+01 1.2828228974459847e+01 2.5549840003994586e+01 
898 899 2 1.0279999999999998e+00 2.3308789087687512e+02 1.0000000000000000e+00 1.4098139194956675e+01 1.3853367358425027e+01 2.5567010684981614e+01 
774 775 2 1.0279999999999994e+00 2.3308744283815170e+02 1.0000000000000000e+00 1.4216784693660950e+01 1.3694843117005494e+01 2.6867339662705806e+01 
447 448 2 1.0279999999999954e+00 -3.9730132559612830e+03 1.0000000000000000e+00 1.5469400142523860e+01 1.1878770684959552e+01 2.5895617980915286e+01 
315 316 2 1.0279999999999991e+00 -3.9730797192554983e+03 1.0000000000000000e+00 1.5511851697899321e+01 1.1927079512960065e+01 2.6143931591683451e+01 
622 623 2 1.0280000000000011e+00 2.3305200291480787e+02 1.0000000000000000e+00 1.4301722942626171e+01 1.2715095594090720e+01 2.6831026796570772e+01 
10 11 2 1.0280000000000000e+00 -2.0084739544937215e+03 1.0000000000000000e+00 1.5366593057914523e+01 1.2789798150670574e+01 2.7579644935871741e+01 
1378 1379 2 1.0280000000000007e+00 -2.0084782516386260e+03 1.0000000000000000e+00 1.5296702329550314e+01 1.3207175638106660e+01 2.7691518920805215e+01 
606 607 2 1.0279999999999974e+00 -2.5687484656709630e+03 1.0000000000000000e+00 1.9471815839686062e+01 1.3623219507686727e+01 2.5337900949959511e+01 
1062 1063 2 1.0279999999999994e+00 -2.5674626543860850e+03 1.0000000000000000e+00 1.9569081761379465e+01 1.3594825981068194e+01 2.5485605179937547e+01 
607 608 2 1.0280000000000007e+00 -2.5393031288679113e+03 1.0000000000000000e+00 1.9475399716608322e+01 1.2314061862333419e+01 2.7582100761918113e+01 
1063 1064 2 1.0280000000000009e+00 -2.5371836969009610e+03 1.0000000000000000e+00 1.9524786226609390e+01 1.2279461200983318e+01 2.7611009655316089e+01 
1207 1208 2 1.0280000000000000e+00 -3.9726145114511164e+03 1.0000000000000000e+00 1.5222545177717368e+01 1.5157142065120082e+01 2.5917603833134919e+01 
1228 1229 2 1.0279999999999867e+00 6.3853357560338172e+03 1.0000000000000000e+00 1.6866167367118322e+01 1.6315602293834484e+01 2.5992703893791187e+01 
1360 1361 2 1.0280000000000089e+00 6.3848698668965189e+03 1.0000000000000000e+00 1.6882169749359061e+01 1.6316938790301421e+01 2.6108376021072619e+01 
707 708 2 1.0280000000000054e+00 -3.6847657138985605e+03 1.0000000000000000e+00 1.6316395030697610e+01 1.6109595133371254e+01 2.6189296121925334e+01 
1075 1076 2 1.0279999999999978e+00 -3.9726384971181124e+03 1.0000000000000000e+00 1.5165676561548578e+01 1.5114113785345877e+01 2.6393405109753687e+01 
627 628 2 1.0280000000000014e+00 7.6752513151567973e+02 1.0000000000000000e+00 1.6436741145684490e+01 1.5162784535681148e+01 2.7623774893924850e+01 
96 97 2 1.0280000000000293e+00 -2.7250244709443371e+02 1.0000000000000000e+00 1.9100892131008862e+01 1.7014831677888967e+01 2.6626329978903080e+01 
60 61 2 1.0279999999999783e+00 -2.7293169799278860e+02 1.0000000000000000e+00 1.9109738147688745e+01 1.7041263587428396e+01 2.6630656180101557e+01 
1450 1451 2 1.0279999999999989e+00 1.3873712826421718e+02 1.0000000000000000e+00 1.7892766678381133e+01 1.5372076827001703e+01 2.7244483166611754e+01 
975 976 2 1.0279999999999974e+00 6.2512519930468243e+03 1.0000000000000000e+00 1.9159372715178499e+01 1.8728964433645825e+01 2.5465094165852495e+01 
1131 1132 2 1.0280000000000045e+00 2.0629094062412719e+03 1.0000000000000000e+00 1.8879992113755705e+01 7.1044994196629201e+00 2.8054301326290044e+01 
1113 1114 2 1.0280000000000000e+00 -4.8516880367970180e+03 1.0000000000000000e+00 1.9851568935212526e+01 7.2680476601275590e+00 2.9087343861626881e+01 
1116 1117 2 1.0279999999999994e+00 -4.8515618141790637e+03 1.0000000000000000e+00 1.9503381570817208e+01 7.3561691089714714e+00 2.9313154837808259e+01 
1503 1504 2 1.0280000000000011e+00 -2.8560263701947651e+03 1.0000000000000000e+00 1.8445643885017425e+01 1.1016352200742006e+01 2.8336920214484188e+01 
885 886 2 1.0279999999999994e+00 -2.9259183047683150e+03 1.0000000000000000e+00 1.8748626082987624e+01 1.0858723455033353e+01 2.9440204599130595e+01 
452 453 2 1.0280000000000007e+00 6.3642201596333380e+03 1.0000000000000000e+00 1.7297550621185270e+01 1.1070299637488906e+01 2.9999571359755720e+01 
1007 1008 2 1.0280000000000002e+00 5.6063878875121954e+03 1.0000000000000000e+00 1.7110605689384101e+01 1.3794531386972837e+01 2.8035762944674186e+01 
699 700 2 1.0280000000000005e+00 -1.5718303278852704e+03 1.0000000000000000e+00 1.7089862822871545e+01 1.3812473425350698e+01 2.8043322675196283e+01 
1224 1225 2 1.0279999999999989e+00 2.1016005229554235e+03 1.0000000000000000e+00 1.6437019033954684e+01 1.2278901729703557e+01 3.0155009277333313e+01 
160 161 2 1.0279999999999978e+00 2.1023889411248520e+03 1.0000000000000000e+00 1.6430645468951344e+01 1.2324229740135761e+01 3.0225956404093282e+01 
851 852 2 1.0280000000000011e+00 -1.5631464365241382e+03 1.0000000000000000e+00 1.7283583943523027e+01 1.1641093767457182e+01 2.8396122159205756e+01 
551 552 2 1.0280000000000014e+00 5.6141530673123343e+03 1.0000000000000000e+00 1.7277268637713483e+01 1.1644257951006018e+01 2.8399301546759535e+01 
135 136 2 1.0279999999999967e+00 -2.8807929080404128e+03 1.0000000000000000e+00 1.8927650157414156e+01 1.3203900289219559e+01 2.8591415939444289e+01 
733 734 2 1.0280000000000007e+00 -2.8695743133862334e+03 1.0000000000000000e+00 1.7046455542302471e+01 1.4887083644699695e+01 2.7783978561880417e+01 
105 106 2 1.0279999999999989e+00 2.8736036179458906e+03 1.0000000000000000e+00 1.9509064594293996e+01 1.5551426393678822e+01 2.8370098340314030e+01 
1488 1489 2 1.0279999999999998e+00 3.8558887063421298e+03 1.0000000000000000e+00 1.9962445382469483e+01 1.6170183303811502e+01 2.8654725818808195e+01 
108 109 2 1.0280000000000020e+00 2.8745253684312756e+03 1.0000000000000000e+00 1.9296624878685858e+01 1.4810419844244530e+01 2.9372019217953241e+01 
1354 1355 2 1.0280000000000002e+00 3.1093229741779578e+03 1.0000000000000000e+00 1.9664990269564953e+01 8.1115660957350801e+00 3.0984494687605867e+01 
1230 1231 2 1.0280000000000000e+00 3.1094355619429402e+03 1.0000000000000000e+00 1.9644969132200892e+01 8.1445290562521873e+00 3.0989189276011377e+01 
1355 1356 2 1.0279999999999996e+00 3.1090430448396019e+03 1.0000000000000000e+00 1.9477268638628182e+01 8.0929866323691044e+00 3.1018975845417110e+01 
1231 1232 2 1.0279999999999998e+00 3.1092350569076266e+03 1.0000000000000000e+00 1.9475945449278647e+01 8.1137373786040428e+00 3.1036526702008107e+01 
511 512 2 1.0280000000000016e+00 4.2365039933656099e+03 1.0000000000000000e+00 1.9552505042130182e+01 8.0311287481635674e+00 3.2237271835668899e+01 
1208 1209 2 1.0279999999999998e+00 -1.6159613187902710e+03 1.0000000000000000e+00 1.8540197247903318e+01 1.1365299859374538e+01 3.0861872583362320e+01 
33 34 2 1.0280000000000018e+00 3.8638248007352986e+03 1.0000000000000000e+00 1.9618100939149169e+01 8.6160813301045920e+00 3.3059922064314542e+01 
137 138 2 1.0279999999999996e+00 3.8924762711751046e+03 1.0000000000000000e+00 1.6739255700490329e+01 1.2537800882463442e+01 3.1487798778738824e+01 
1505 1506 2 1.0279999999999980e+00 3.8929336178533313e+03 1.0000000000000000e+00 1.6759653868267240e+01 1.2566643065198692e+01 3.1508744294571123e+01 
1343 1344 2 1.0280000000000011e+00 -3.3814590097824394e+03 1.0000000000000000e+00 1.6329936301755350e+01 1.4149828554513245e+01 3.2023523386856652e+01 
901 902 2 1.0280000000000014e+00 -1.1339725054349587e+03 1.0000000000000000e+00 1.9430799226672889e+01 1.4042433054565942e+01 3.0705525924570583e+01 
749 750 2 1.0280000000000000e+00 -1.0936040034387179e+03 1.0000000000000000e+00 1.8656518350164607e+01 1.1784637441412309e+01 3.1380894444498551e+01 
279 280 2 1.0279999999999985e+00 -3.3474308856781508e+03 1.0000000000000000e+00 1.7422716279726817e+01 1.1583846628071218e+01 3.1504223609185487e+01 
752 753 2 1.0280000000000011e+00 -1.0940371646243730e+03 1.0000000000000000e+00 1.9648906962959419e+01 1.2402796351966513e+01 3.2313358078339974e+01 
562 563 2 1.0279999999999994e+00 2.3801097508374805e+03 1.0000000000000000e+00 1.8778870001354584e+01 1.1592312739395251e+01 3.3214274079005790e+01 
1212 1213 2 1.0279999999999996e+00 6.3297569317372945e+03 1.0000000000000000e+00 1.6584150382140621e+01 1.4636805910744116e+01 3.1032917829327911e+01 
448 449 2 1.0280000000000018e+00 -1.6385972362368361e+03 1.0000000000000000e+00 1.6707264637740042e+01 1.5177729115471513e+01 3.1050832975889918e+01 
1018 1019 2 1.0280000000000027e+00 2.4258553944987598e+03 1.0000000000000000e+00 1.6497167082152831e+01 1.5938443121070378e+01 3.1533111221357188e+01 
633 634 2 1.0280000000000016e+00 -2.8039807612214017e+03 1.0000000000000000e+00 1.6479962610278797e+01 1.5944034048783884e+01 3.1547991172142986e+01 
1291 1292 2 1.0280000000000018e+00 2.8620646662374588e+03 1.0000000000000000e+00 1.6441165621896484e+01 1.6047269900990106e+01 3.1716982251529792e+01 
680 681 2 1.0280000000000018e+00 -2.6547947276191726e+03 1.0000000000000000e+00 1.6508374210333297e+01 1.4805116546539558e+01 3.3325860314335245e+01 
703 704 2 1.0280000000000000e+00 -2.2371708719825540e+02 1.0000000000000000e+00 1.9706324042627557e+01 1.5938569328764139e+01 3.2294716304259310e+01 
437 438 2 1.0280000000000000e+00 -2.9924721868497581e+03 1.0000000000000000e+00 1.8618248764803617e+01 1.5471212371884151e+01 3.2761860460220355e+01 
702 703 2 1.0280000000000020e+00 -2.2435288003865486e+02 1.0000000000000000e+00 1.9379571812118318e+01 1.6554048693604329e+01 3.2793177258600139e+01 
287 288 2 1.0280000000000036e+00 -2.6311314459800578e+03 1.0000000000000000e+00 1.9266075703253616e+01 1.9082241569623474e+01 3.1958596286752925e+01 
167 168 2 1.0280000000000027e+00 3.1074813562410750e+03 1.0000000000000000e+00 1.8539705612458246e+01 1.9695567613564208e+01 3.1971637148602394e+01 
286 287 2 1.0279999999999991e+00 -2.6303628072626589e+03 1.0000000000000000e+00 1.9308563078036990e+01 1.9539614435975988e+01 3.1405186123193445e+01 
166 167 2 1.0280000000000005e+00 3.1073827417275929e+03 1.0000000000000000e+00 1.9870773262575696e+01 1.9955336650215312e+01 3.1678164376336934e+01 
291 292 2 1.0280000000000000e+00 3.1073981081152524e+03 1.0000000000000000e+00 1.8495485617768253e+01 1.9861969475893119e+01 3.1892219965940757e+01 
1363 1364 2 1.0280000000000002e+00 8.6426167276350225e+02 1.0000000000000000e+00 1.2336019026583227e+01 1.2289802086996269e+00 3.6009383996169937e+01 
1335 1336 2 1.0280000000000018e+00 -1.0945885974711912e+02 1.0000000000000000e+00 1.2305750112381030e+01 1.2109233017709098e+00 3.6059123376849591e+01 
802 803 2 1.0280000000000000e+00 5.2179890098293199e+03 1.0000000000000000e+00 1.9045227518044989e+01 5.5763363442519340e+00 3.5587688095364946e+01 
1240 1241 2 1.0280000000000005e+00 -9.2183461250211076e+02 1.0000000000000000e+00 1.9168546959512717e+01 5.3462169409008409e+00 3.5830663785241981e+01 
738 739 2 1.0280000000000002e+00 -7.1540503443476655e+02 1.0000000000000000e+00 1.9214390849410130e+01 8.4653239961855569e+00 3.4100631491063538e+01 
4 5 2 1.0280000000000005e+00 7.8083037480500548e+02 1.0000000000000000e+00 1.8676289507904798e+01 7.4844952450707369e+00 3.4440107178500838e+01 
152 153 2 1.0279999999999994e+00 7.7977869467448613e+02 1.0000000000000000e+00 1.8803195823798205e+01 7.8876221538906970e+00 3.4598556198456457e+01 
510 511 2 1.0279999999999960e+00 4.2339755242870015e+03 1.0000000000000000e+00 1.9843917436865851e+01 5.8507137326328111e+00 3.4777546195539884e+01 
630 631 2 1.0279999999999969e+00 -7.1638637473117751e+02 1.0000000000000000e+00 1.8673958187810825e+01 6.8090507179701367e+00 3.5127123835582424e+01 
227 228 2 1.0279999999999996e+00 2.8054558998636967e+03 1.0000000000000000e+00 1.8985366404638537e+01 1.1786809204840610e+01 3.4122114370700515e+01 
785 786 2 1.0280000000000002e+00 -2.8417530253315699e+03 1.0000000000000000e+00 1.9088729419049493e+01 1.1817108064977944e+01 3.4267234312248775e+01 
854 855 2 1.0279999999999996e+00 -2.2103462092828977e+02 1.0000000000000000e+00 1.9651200302157491e+01 1.1961632660219363e+01 3.4577031070046274e+01 
855 856 2 1.0279999999999991e+00 -2.2132144202142837e+02 1.0000000000000000e+00 1.9674491518355254e+01 1.1969622955392671e+01 3.4578944013428185e+01 
532 533 2 1.0279999999999994e+00 7.6310492955977770e+02 1.0000000000000000e+00 1.6870315339783666e+01 1.4962884817084671e+01 3.3534691430940377e+01 
261 262 2 1.0279999999999989e+00 5.3775342391691192e+03 1.0000000000000000e+00 1.5127284889678526e+01 1.6307307194458648e+01 3.4259925216557825e+01 
1197 1198 2 1.0279999999999994e+00 -2.9638268120400485e+03 1.0000000000000000e+00 1.4854394931382320e+01 1.6879137966117938e+01 3.4449950709255297e+01 
459 460 2 1.0279999999999980e+00 -2.4757193959906681e+03 1.0000000000000000e+00 1.6658633251419293e+01 1.5710646353620451e+01 3.4474800142143231e+01 
832 833 2 1.0279999999999985e+00 -2.6550350810206228e+03 1.0000000000000000e+00 1.4805139878123347e+01 1.6736108296389762e+01 3.4543002712022073e+01 
988 989 2 1.0279999999999969e+00 7.5045445685122468e+02 1.0000000000000000e+00 1.4735001874565807e+01 1.7082631698347580e+01 3.4546971416229795e+01 
915 916 2 1.0279999999999980e+00 -2.4765015583135082e+03 1.0000000000000000e+00 1.6568657663292889e+01 1.6053622599691927e+01 3.4914067697672380e+01 
1325 1326 2 1.0279999999999989e+00 5.3671326518940896e+03 1.0000000000000000e+00 1.7391834749640466e+01 1.6310744012674419e+01 3.3659776579931062e+01 
1015 1016 2 1.0279999999999958e+00 5.3945350917872256e+03 1.0000000000000000e+00 1.9530324353418528e+01 1.7055486358675250e+01 3.3693276381428177e+01 
1014 1015 2 1.0279999999999960e+00 5.3928615776383413e+03 1.0000000000000000e+00 1.9533058303745044e+01 1.7051665716737812e+01 3.3696039521019536e+01 
72 73 2 1.0280000000000000e+00 -3.1416908818898746e+03 1.0000000000000000e+00 7.8039282949638542e+00 1.9975993446959475e+01 3.5656551950480278e+01 
1022 1023 2 1.0280000000000002e+00 3.2489895681669227e+03 1.0000000000000000e+00 7.9227124012511414e+00 1.9929144225315326e+01 3.5843883151585509e+01 
579 580 2 1.0279999999999951e+00 3.5317964306094091e+03 1.0000000000000000e+00 1.0983326459978354e+01 1.9111735829020397e+01 3.5008694406817391e+01 
853 854 2 1.0279999999999989e+00 -6.9038111970812054e+01 1.0000000000000000e+00 1.1108448507978682e+01 1.9719433550806869e+01 3.5354948764686533e+01 
266 267 2 1.0280000000000007e+00 -2.1646768545298473e+03 1.0000000000000000e+00 1.0499477624437816e+01 1.9358935444623707e+01 3.5366953518342832e+01 
717 718 2 1.0279999999999965e+00 -1.1960575886650627e+03 1.0000000000000000e+00 1.0811581395860596e+01 1.8740431075751857e+01 3.5549215454102509e+01 
1035 1036 2 1.0279999999999989e+00 3.5347862828535826e+03 1.0000000000000000e+00 9.0937136752206840e+00 1.9673327940822556e+01 3.5589372848336104e+01 
869 870 2 1.0279999999999998e+00 -1.1955075240084193e+03 1.0000000000000000e+00 1.2999670862351190e+01 1.9102138782133238e+01 3.4954754462525635e+01 
232 233 2 1.0280000000000014e+00 2.1567575569613459e+03 1.0000000000000000e+00 1.4085886592168738e+01 1.8994602972932000e+01 3.5210864993259889e+01 
113 114 2 1.0279999999999991e+00 -3.4063321098457463e+03 1.0000000000000000e+00 1.1614763912214245e+01 1.8159638087600801e+01 3.5527312753669769e+01 
1481 1482 2 1.0279999999999996e+00 -3.4059192131732798e+03 1.0000000000000000e+00 1.2180557595968455e+01 1.9920437826913311e+01 3.5853201550391432e+01 
1329 1330 2 1.0279999999999969e+00 6.1879282927140284e+03 1.0000000000000000e+00 1.3839305739907951e+01 1.9935217231985128e+01 3.5969545229287803e+01 
265 266 2 1.0280000000000022e+00 6.1852365808265749e+03 1.0000000000000000e+00 1.3392878525242939e+01 1.7399990347164561e+01 3.6063581921878807e+01 
396 397 2 1.0280000000000025e+00 -8.0954717199700226e+03 1.0000000000000000e+00 1.6222725237363854e+01 1.7874491732859425e+01 3.5657539820489134e+01 
963 964 2 1.0280000000000014e+00 5.3204885837903876e+03 1.0000000000000000e+00 1.8546934929207236e+01 1.8991867673228491e+01 3.4295991270984523e+01 
666 667 2 1.0280000000000002e+00 -2.8126169898260196e+02 1.0000000000000000e+00 1.8482342687992112e+01 1.9021808152168045e+01 3.4457574161907473e+01 
695 696 2 1.0279999999999991e+00 -2.7129510243934237e+03 1.0000000000000000e+00 1.8209499378991424e+01 1.9723800109306250e+01 3.5091972982673660e+01 
263 264 2 1.0280000000000020e+00 7.1098653172847958e+02 1.0000000000000000e+00 1.7307307169038086e+01 1.8765967832929601e+01 3.6026808034047086e+01 
1344 1345 2 1.0280000000000031e+00 2.8066196583821502e+03 1.0000000000000000e+00 1.2318518965186879e+01 1.0338200633636605e+00 3.6135075673939760e+01 
883 884 2 1.0279999999999963e+00 1.9614205897762656e+03 1.0000000000000000e+00 1.2864494709847115e+01 4.3916963340331105e-01 3.6456729007516913e+01 
555 556 2 1.0280000000000018e+00 4.2855826283745491e+03 1.0000000000000000e+00 1.3420992052886852e+01 2.6943764756263029e+00 3.6553292526037126e+01 
902 903 2 1.0279999999999969e+00 -1.5476566602626117e+03 1.0000000000000000e+00 1.2378450642175368e+01 2.0110014586000382e+00 3.6565742020031870e+01 
882 883 2 1.0279999999999991e+00 1.9650437694907730e+03 1.0000000000000000e+00 1.3902823810593516e+01 3.2023270660249187e-01 3.6793430203845254e+01 
1362 1363 2 1.0280000000000022e+00 8.5743452715905255e+02 1.0000000000000000e+00 1.4784489005090490e+01 1.3583571426950574e+00 3.6787517654024320e+01 
1341 1342 2 1.0280000000000036e+00 2.8019551527705316e+03 1.0000000000000000e+00 1.4660133173236098e+01 8.1987443583056452e-01 3.6972524003144905e+01 
1334 1335 2 1.0279999999999974e+00 -1.1713807560029151e+02 1.0000000000000000e+00 1.4847793863413438e+01 1.2088855329176693e+00 3.7049962935605883e+01 
1319 1320 2 1.0279999999999991e+00 -8.4331803290490029e+01 1.0000000000000000e+00 1.5050601698616537e+01 2.1414599441314865e+00 3.8797177946598005e+01 