LAMMPS data file via write_data, version 30 Jul 2016, timestep = 1000000

2080 atoms
8 atom types

0.0000000000000000e+00 4.0000000000000000e+01 xlo xhi
0.0000000000000000e+00 4.0000000000000000e+01 ylo yhi
0.0000000000000000e+00 1.0000000000000000e+02 zlo zhi

Masses

1 3.896
2 4.306
3 20.064
4 8.378
5 8.378
6 8.378
7 8.378
8 8.378

Atoms # meso-molecular

1 2 4 2.2559723595316457e+00 0.0000000000000000e+00 1.0000000000000000e+00 0.0000000000000000e+00 0.0000000000000000e+00 2.5000000000000000e+00 
2 2 4 2.2559723595316457e+00 0.0000000000000000e+00 1.0000000000000000e+00 0.0000000000000000e+00 2.0000000000000000e+00 2.5000000000000000e+00 
3 2 4 2.2559723595316457e+00 0.0000000000000000e+00 1.0000000000000000e+00 0.0000000000000000e+00 4.0000000000000000e+00 2.5000000000000000e+00 
4 2 4 2.2559723595316457e+00 0.0000000000000000e+00 1.0000000000000000e+00 0.0000000000000000e+00 6.0000000000000000e+00 2.5000000000000000e+00 
5 2 4 2.2559723595316457e+00 0.0000000000000000e+00 1.0000000000000000e+00 0.0000000000000000e+00 8.0000000000000000e+00 2.5000000000000000e+00 
21 2 4 2.2559723595316457e+00 0.0000000000000000e+00 1.0000000000000000e+00 2.0000000000000000e+00 0.0000000000000000e+00 2.5000000000000000e+00 
22 2 4 2.2559723595316457e+00 0.0000000000000000e+00 1.0000000000000000e+00 2.0000000000000000e+00 2.0000000000000000e+00 2.5000000000000000e+00 
23 2 4 2.2559723595316457e+00 0.0000000000000000e+00 1.0000000000000000e+00 2.0000000000000000e+00 4.0000000000000000e+00 2.5000000000000000e+00 
24 2 4 2.2559723595316457e+00 0.0000000000000000e+00 1.0000000000000000e+00 2.0000000000000000e+00 6.0000000000000000e+00 2.5000000000000000e+00 
25 2 4 2.2559723595316457e+00 -2.1064472095917029e-03 1.0000000000000000e+00 2.0000000000000000e+00 8.0000000000000000e+00 2.5000000000000000e+00 
41 2 4 2.2559723595316457e+00 0.0000000000000000e+00 1.0000000000000000e+00 4.0000000000000000e+00 0.0000000000000000e+00 2.5000000000000000e+00 
42 2 4 2.2559723595316457e+00 0.0000000000000000e+00 1.0000000000000000e+00 4.0000000000000000e+00 2.0000000000000000e+00 2.5000000000000000e+00 
43 2 4 2.2559723595316457e+00 -3.0462560025640328e-01 1.0000000000000000e+00 4.0000000000000000e+00 4.0000000000000000e+00 2.5000000000000000e+00 
44 2 4 2.2559723595316457e+00 -2.3995823787885167e+00 1.0000000000000000e+00 4.0000000000000000e+00 6.0000000000000000e+00 2.5000000000000000e+00 
45 2 4 2.2559723595316457e+00 -7.3770785602030067e+00 1.0000000000000000e+00 4.0000000000000000e+00 8.0000000000000000e+00 2.5000000000000000e+00 
61 2 4 2.2559723595316457e+00 -2.1077543206004471e-03 1.0000000000000000e+00 6.0000000000000000e+00 0.0000000000000000e+00 2.5000000000000000e+00 
62 2 4 2.2559723595316457e+00 -1.4983059802418632e+00 1.0000000000000000e+00 6.0000000000000000e+00 2.0000000000000000e+00 2.5000000000000000e+00 
63 2 4 2.2559723595316457e+00 -1.0986085178604604e+01 1.0000000000000000e+00 6.0000000000000000e+00 4.0000000000000000e+00 2.5000000000000000e+00 
64 2 4 2.2559723595316457e+00 -3.7553313151223364e+01 1.0000000000000000e+00 6.0000000000000000e+00 6.0000000000000000e+00 2.5000000000000000e+00 
65 2 4 2.2559723595316457e+00 -8.4877323449053847e+01 1.0000000000000000e+00 6.0000000000000000e+00 8.0000000000000000e+00 2.5000000000000000e+00 
81 2 4 2.2559723595316457e+00 -1.4984390358009274e+00 1.0000000000000000e+00 8.0000000000000000e+00 0.0000000000000000e+00 2.5000000000000000e+00 
82 2 4 2.2559723595316457e+00 -1.6527034486484197e+01 1.0000000000000000e+00 8.0000000000000000e+00 2.0000000000000000e+00 2.5000000000000000e+00 
83 2 4 2.2559723595316457e+00 -7.1072429549715110e+01 1.0000000000000000e+00 8.0000000000000000e+00 4.0000000000000000e+00 2.5000000000000000e+00 
84 2 4 2.2559723595316457e+00 -1.9332480873082918e+02 1.0000000000000000e+00 8.0000000000000000e+00 6.0000000000000000e+00 2.5000000000000000e+00 
85 2 4 2.2559723595316457e+00 -3.9160403315317757e+02 1.0000000000000000e+00 8.0000000000000000e+00 8.0000000000000000e+00 2.5000000000000000e+00 
101 2 4 2.2559723595316457e+00 -1.1193701911047004e+01 1.0000000000000000e+00 1.0000000000000000e+01 0.0000000000000000e+00 2.5000000000000000e+00 
102 2 4 2.2559723595316457e+00 -7.0318752907743686e+01 1.0000000000000000e+00 1.0000000000000000e+01 2.0000000000000000e+00 2.5000000000000000e+00 
103 2 4 2.2559723595316457e+00 -2.4459981533768101e+02 1.0000000000000000e+00 1.0000000000000000e+01 4.0000000000000000e+00 2.5000000000000000e+00 
104 2 4 2.2559723595316457e+00 -5.9737276773347344e+02 1.0000000000000000e+00 1.0000000000000000e+01 6.0000000000000000e+00 2.5000000000000000e+00 
105 2 4 2.2559723595316457e+00 -1.1392304330676520e+03 1.0000000000000000e+00 1.0000000000000000e+01 8.0000000000000000e+00 2.5000000000000000e+00 
121 2 4 2.2559723595316457e+00 -3.8958935699618053e+01 1.0000000000000000e+00 1.2000000000000000e+01 0.0000000000000000e+00 2.5000000000000000e+00 
122 2 4 2.2559723595316457e+00 -1.8679790792436233e+02 1.0000000000000000e+00 1.2000000000000000e+01 2.0000000000000000e+00 2.5000000000000000e+00 
123 2 4 2.2559723595316457e+00 -5.8248853252490312e+02 1.0000000000000000e+00 1.2000000000000000e+01 4.0000000000000000e+00 2.5000000000000000e+00 
124 2 4 2.2559723595316457e+00 -1.3373456590005717e+03 1.0000000000000000e+00 1.2000000000000000e+01 6.0000000000000000e+00 2.5000000000000000e+00 
125 2 4 2.2559723595316457e+00 -2.4625574333404925e+03 1.0000000000000000e+00 1.2000000000000000e+01 8.0000000000000000e+00 2.5000000000000000e+00 
141 2 4 2.2559723595316457e+00 -8.7587415267573917e+01 1.0000000000000000e+00 1.4000000000000000e+01 0.0000000000000000e+00 2.5000000000000000e+00 
142 2 4 2.2559723595316457e+00 -3.6380580799658844e+02 1.0000000000000000e+00 1.4000000000000000e+01 2.0000000000000000e+00 2.5000000000000000e+00 
143 2 4 2.2559723595316457e+00 -1.0641612497340659e+03 1.0000000000000000e+00 1.4000000000000000e+01 4.0000000000000000e+00 2.5000000000000000e+00 
144 2 4 2.2559723595316457e+00 -2.3531786377466592e+03 1.0000000000000000e+00 1.4000000000000000e+01 6.0000000000000000e+00 2.5000000000000000e+00 
145 2 4 2.2559723595316457e+00 -4.2454708716339310e+03 1.0000000000000000e+00 1.4000000000000000e+01 8.0000000000000000e+00 2.5000000000000000e+00 
161 2 4 2.2559723595316457e+00 -1.4455732337131417e+02 1.0000000000000000e+00 1.6000000000000000e+01 0.0000000000000000e+00 2.5000000000000000e+00 
162 2 4 2.2559723595316457e+00 -5.5420716989971913e+02 1.0000000000000000e+00 1.6000000000000000e+01 2.0000000000000000e+00 2.5000000000000000e+00 
163 2 4 2.2559723595316457e+00 -1.5614158116781030e+03 1.0000000000000000e+00 1.6000000000000000e+01 4.0000000000000000e+00 2.5000000000000000e+00 
164 2 4 2.2559723595316457e+00 -3.3783949581748084e+03 1.0000000000000000e+00 1.6000000000000000e+01 6.0000000000000000e+00 2.5000000000000000e+00 
165 2 4 2.2559723595316457e+00 -6.0259822002389928e+03 1.0000000000000000e+00 1.6000000000000000e+01 8.0000000000000000e+00 2.5000000000000000e+00 
181 2 4 2.2559723595316457e+00 -1.8419763412641751e+02 1.0000000000000000e+00 1.8000000000000000e+01 0.0000000000000000e+00 2.5000000000000000e+00 
182 2 4 2.2559723595316457e+00 -6.7986230944648651e+02 1.0000000000000000e+00 1.8000000000000000e+01 2.0000000000000000e+00 2.5000000000000000e+00 
183 2 4 2.2559723595316457e+00 -1.8822745664976383e+03 1.0000000000000000e+00 1.8000000000000000e+01 4.0000000000000000e+00 2.5000000000000000e+00 
184 2 4 2.2559723595316457e+00 -4.0318000201695518e+03 1.0000000000000000e+00 1.8000000000000000e+01 6.0000000000000000e+00 2.5000000000000000e+00 
185 2 4 2.2559723595316457e+00 -7.1543787516676794e+03 1.0000000000000000e+00 1.8000000000000000e+01 8.0000000000000000e+00 2.5000000000000000e+00 
6 2 4 2.2559723595316457e+00 0.0000000000000000e+00 1.0000000000000000e+00 0.0000000000000000e+00 1.0000000000000000e+01 2.5000000000000000e+00 
7 2 4 2.2559723595316457e+00 0.0000000000000000e+00 1.0000000000000000e+00 0.0000000000000000e+00 1.2000000000000000e+01 2.5000000000000000e+00 
8 2 4 2.2559723595316457e+00 0.0000000000000000e+00 1.0000000000000000e+00 0.0000000000000000e+00 1.4000000000000000e+01 2.5000000000000000e+00 
9 2 4 2.2559723595316457e+00 0.0000000000000000e+00 1.0000000000000000e+00 0.0000000000000000e+00 1.6000000000000000e+01 2.5000000000000000e+00 
10 2 4 2.2559723595316457e+00 0.0000000000000000e+00 1.0000000000000000e+00 0.0000000000000000e+00 1.8000000000000000e+01 2.5000000000000000e+00 
26 2 4 2.2559723595316457e+00 -1.3638102526463955e-02 1.0000000000000000e+00 2.0000000000000000e+00 1.0000000000000000e+01 2.5000000000000000e+00 
27 2 4 2.2559723595316457e+00 7.0984958004303086e-03 1.0000000000000000e+00 2.0000000000000000e+00 1.2000000000000000e+01 2.5000000000000000e+00 
28 2 4 2.2559723595316457e+00 8.0290495944059792e-02 1.0000000000000000e+00 2.0000000000000000e+00 1.4000000000000000e+01 2.5000000000000000e+00 
29 2 4 2.2559723595316457e+00 2.2667513794989225e-01 1.0000000000000000e+00 2.0000000000000000e+00 1.6000000000000000e+01 2.5000000000000000e+00 
30 2 4 2.2559723595316457e+00 3.8325613186527674e-01 1.0000000000000000e+00 2.0000000000000000e+00 1.8000000000000000e+01 2.5000000000000000e+00 
46 2 4 2.2559723595316457e+00 -1.4157591239861759e+01 1.0000000000000000e+00 4.0000000000000000e+00 1.0000000000000000e+01 2.5000000000000000e+00 
47 2 4 2.2559723595316457e+00 -1.9959849447432884e+01 1.0000000000000000e+00 4.0000000000000000e+00 1.2000000000000000e+01 2.5000000000000000e+00 
48 2 4 2.2559723595316457e+00 -2.2422880710855338e+01 1.0000000000000000e+00 4.0000000000000000e+00 1.4000000000000000e+01 2.5000000000000000e+00 
49 2 4 2.2559723595316457e+00 -2.2052675189272158e+01 1.0000000000000000e+00 4.0000000000000000e+00 1.6000000000000000e+01 2.5000000000000000e+00 
50 2 4 2.2559723595316457e+00 -2.1351112417528597e+01 1.0000000000000000e+00 4.0000000000000000e+00 1.8000000000000000e+01 2.5000000000000000e+00 
66 2 4 2.2559723595316457e+00 -1.4557724489176314e+02 1.0000000000000000e+00 6.0000000000000000e+00 1.0000000000000000e+01 2.5000000000000000e+00 
67 2 4 2.2559723595316457e+00 -2.0291986172817835e+02 1.0000000000000000e+00 6.0000000000000000e+00 1.2000000000000000e+01 2.5000000000000000e+00 
68 2 4 2.2559723595316457e+00 -2.4162504276842981e+02 1.0000000000000000e+00 6.0000000000000000e+00 1.4000000000000000e+01 2.5000000000000000e+00 
69 2 4 2.2559723595316457e+00 -2.5906282122012584e+02 1.0000000000000000e+00 6.0000000000000000e+00 1.6000000000000000e+01 2.5000000000000000e+00 
70 2 4 2.2559723595316457e+00 -2.6307811313950555e+02 1.0000000000000000e+00 6.0000000000000000e+00 1.8000000000000000e+01 2.5000000000000000e+00 
86 2 4 2.2559723595316457e+00 -6.3819007067824384e+02 1.0000000000000000e+00 8.0000000000000000e+00 1.0000000000000000e+01 2.5000000000000000e+00 
87 2 4 2.2559723595316457e+00 -8.7678689580376954e+02 1.0000000000000000e+00 8.0000000000000000e+00 1.2000000000000000e+01 2.5000000000000000e+00 
88 2 4 2.2559723595316457e+00 -1.0552044722219737e+03 1.0000000000000000e+00 8.0000000000000000e+00 1.4000000000000000e+01 2.5000000000000000e+00 
89 2 4 2.2559723595316457e+00 -1.1527410082475074e+03 1.0000000000000000e+00 8.0000000000000000e+00 1.6000000000000000e+01 2.5000000000000000e+00 
90 2 4 2.2559723595316457e+00 -1.1865289422089534e+03 1.0000000000000000e+00 8.0000000000000000e+00 1.8000000000000000e+01 2.5000000000000000e+00 
106 2 4 2.2559723595316457e+00 -1.7998610740038230e+03 1.0000000000000000e+00 1.0000000000000000e+01 1.0000000000000000e+01 2.5000000000000000e+00 
107 2 4 2.2559723595316457e+00 -2.4495593118401748e+03 1.0000000000000000e+00 1.0000000000000000e+01 1.2000000000000000e+01 2.5000000000000000e+00 
108 2 4 2.2559723595316457e+00 -2.9607104244218035e+03 1.0000000000000000e+00 1.0000000000000000e+01 1.4000000000000000e+01 2.5000000000000000e+00 
109 2 4 2.2559723595316457e+00 -3.2703771470141292e+03 1.0000000000000000e+00 1.0000000000000000e+01 1.6000000000000000e+01 2.5000000000000000e+00 
110 2 4 2.2559723595316457e+00 -3.4016337156809377e+03 1.0000000000000000e+00 1.0000000000000000e+01 1.8000000000000000e+01 2.5000000000000000e+00 
126 2 4 2.2559723595316457e+00 -3.8269729463853619e+03 1.0000000000000000e+00 1.2000000000000000e+01 1.0000000000000000e+01 2.5000000000000000e+00 
127 2 4 2.2559723595316457e+00 -5.1855449903062581e+03 1.0000000000000000e+00 1.2000000000000000e+01 1.2000000000000000e+01 2.5000000000000000e+00 
128 2 4 2.2559723595316457e+00 -6.2880130071411977e+03 1.0000000000000000e+00 1.2000000000000000e+01 1.4000000000000000e+01 2.5000000000000000e+00 
129 2 4 2.2559723595316457e+00 -7.0025931240969248e+03 1.0000000000000000e+00 1.2000000000000000e+01 1.6000000000000000e+01 2.5000000000000000e+00 
130 2 4 2.2559723595316457e+00 -7.3324287953967178e+03 1.0000000000000000e+00 1.2000000000000000e+01 1.8000000000000000e+01 2.5000000000000000e+00 
146 2 4 2.2559723595316457e+00 -6.5366908248762275e+03 1.0000000000000000e+00 1.4000000000000000e+01 1.0000000000000000e+01 2.5000000000000000e+00 
147 2 4 2.2559723595316457e+00 -8.8364535444430803e+03 1.0000000000000000e+00 1.4000000000000000e+01 1.2000000000000000e+01 2.5000000000000000e+00 
148 2 4 2.2559723595316457e+00 -1.0748347477994017e+04 1.0000000000000000e+00 1.4000000000000000e+01 1.4000000000000000e+01 2.5000000000000000e+00 
149 2 4 2.2559723595316457e+00 -1.2034142056151346e+04 1.0000000000000000e+00 1.4000000000000000e+01 1.6000000000000000e+01 2.5000000000000000e+00 
150 2 4 2.2559723595316457e+00 -1.2649634730938626e+04 1.0000000000000000e+00 1.4000000000000000e+01 1.8000000000000000e+01 2.5000000000000000e+00 
166 2 4 2.2559723595316457e+00 -9.2314600197341842e+03 1.0000000000000000e+00 1.6000000000000000e+01 1.0000000000000000e+01 2.5000000000000000e+00 
167 2 4 2.2559723595316457e+00 -1.2470770232073412e+04 1.0000000000000000e+00 1.6000000000000000e+01 1.2000000000000000e+01 2.5000000000000000e+00 
168 2 4 2.2559723595316457e+00 -1.5205688540927315e+04 1.0000000000000000e+00 1.6000000000000000e+01 1.4000000000000000e+01 2.5000000000000000e+00 
169 2 4 2.2559723595316457e+00 -1.7077718591160799e+04 1.0000000000000000e+00 1.6000000000000000e+01 1.6000000000000000e+01 2.5000000000000000e+00 
170 2 4 2.2559723595316457e+00 -1.7992839304155950e+04 1.0000000000000000e+00 1.6000000000000000e+01 1.8000000000000000e+01 2.5000000000000000e+00 
186 2 4 2.2559723595316457e+00 -1.0937452036179744e+04 1.0000000000000000e+00 1.8000000000000000e+01 1.0000000000000000e+01 2.5000000000000000e+00 
187 2 4 2.2559723595316457e+00 -1.4775707843033786e+04 1.0000000000000000e+00 1.8000000000000000e+01 1.2000000000000000e+01 2.5000000000000000e+00 
188 2 4 2.2559723595316457e+00 -1.8039295896366490e+04 1.0000000000000000e+00 1.8000000000000000e+01 1.4000000000000000e+01 2.5000000000000000e+00 
189 2 4 2.2559723595316457e+00 -2.0289644620313720e+04 1.0000000000000000e+00 1.8000000000000000e+01 1.6000000000000000e+01 2.5000000000000000e+00 
190 2 4 2.2559723595316457e+00 -2.1400053324163171e+04 1.0000000000000000e+00 1.8000000000000000e+01 1.8000000000000000e+01 2.5000000000000000e+00 
1787 1389 2 1.0277116560747979e+00 8.3433495507982116e+03 1.0000000000000000e+00 1.9362571670338877e+01 1.8084189270110858e+01 2.6348579336685248e+01 
1017 619 2 1.0269590687340726e+00 2.3001365800063713e+03 1.0000000000000000e+00 1.9342208087706307e+01 1.8666967539396520e+01 2.5976883739778660e+01 
1317 919 2 1.0284841632218820e+00 -4.3148449752996157e+03 1.0000000000000000e+00 1.9240334757675384e+01 1.7586210541908724e+01 2.6802061716071321e+01 
1468 1070 2 1.0275697710350005e+00 8.0235821189783201e+03 1.0000000000000000e+00 1.9635818290718248e+01 1.6104634337124416e+01 2.8607986971638994e+01 
1205 807 2 1.0271942403553487e+00 1.8141344534932450e+04 1.0000000000000000e+00 1.9501828471470905e+01 1.6786281098913967e+01 2.7588846161128739e+01 
1087 689 2 1.0246316845406702e+00 -3.7783178827502384e+03 1.0000000000000000e+00 1.8700860486521364e+01 1.9008810006476175e+01 2.5930606229434797e+01 
1625 1227 2 1.0270972752814043e+00 5.8079030772876922e+03 1.0000000000000000e+00 1.9361802797919150e+01 1.8198598704142885e+01 2.6257433591483132e+01 
1540 1142 2 1.0287329320609750e+00 1.3945329569148083e+04 1.0000000000000000e+00 1.9796058794845472e+01 1.5881244262954143e+01 2.9012093681820751e+01 
2006 1608 2 1.0273651143796885e+00 -1.1861009978982493e+04 1.0000000000000000e+00 1.8810711737932735e+01 1.8640619292155154e+01 2.6136320822778544e+01 
1673 1275 2 1.0286744018189584e+00 1.2773103736022364e+04 1.0000000000000000e+00 1.9899169885348794e+01 1.9495302674037397e+01 2.5783497665658480e+01 
1680 1282 2 1.0269319169527011e+00 7.3106309917126000e+03 1.0000000000000000e+00 1.8996660240599034e+01 1.7284268827955039e+01 2.7214757453936674e+01 
517 119 2 1.0295501306289563e+00 -1.0317686043542866e+04 1.0000000000000000e+00 1.9774918274880314e+01 1.7119498364756399e+01 2.7239664490665891e+01 
2013 1615 2 1.0294711913944101e+00 -8.7966893201717710e+02 1.0000000000000000e+00 1.9124705598913266e+01 1.9235938302091359e+01 2.5781922587207450e+01 
1306 908 2 1.0258136656033587e+00 1.4921968528037354e+04 1.0000000000000000e+00 1.9831857845668118e+01 1.6883801887422070e+01 2.7408076451757136e+01 
1449 1051 2 1.0274953789513730e+00 2.9209957022431272e+03 1.0000000000000000e+00 1.9934263596148430e+01 1.4955010612137894e+01 3.0464568215197616e+01 
1285 887 2 1.0267738388795946e+00 1.6402914475065202e+03 1.0000000000000000e+00 1.9661623828924810e+01 1.9585091750736733e+01 2.5649435264252542e+01 
976 578 2 1.0263176138877736e+00 3.5881206950080137e+04 1.0000000000000000e+00 1.9469097554009171e+01 1.9476021356537405e+01 2.5638434171846146e+01 
413 15 2 1.0266161115408303e+00 -1.2856630520668543e+03 1.0000000000000000e+00 1.9122814734246877e+01 1.6854124617703711e+01 2.7687367524906911e+01 
1003 605 2 1.0277602308110991e+00 4.6231114892754276e+03 1.0000000000000000e+00 1.9364513095015671e+01 1.8153984731991464e+01 2.6300406284852492e+01 
678 280 2 1.0274206467999372e+00 -4.4850142965224422e+03 1.0000000000000000e+00 1.9631266147130823e+01 1.9423187440091269e+01 2.5698607405015363e+01 
1899 1501 2 1.0276747174087053e+00 -6.2982068000076024e+03 1.0000000000000000e+00 1.8956895671681199e+01 1.8307897824006172e+01 2.6295956164423032e+01 
1374 976 2 1.0292240074627643e+00 1.9841255562936800e+04 1.0000000000000000e+00 1.9623040892803353e+01 1.5473738558269888e+01 3.0303737094824061e+01 
2016 1618 2 1.0287932798482218e+00 -8.9327859903562739e+02 1.0000000000000000e+00 1.9875017442469769e+01 1.9206722787338524e+01 2.5861594766566974e+01 
745 347 2 1.0286436814640285e+00 -9.2503166592555172e+03 1.0000000000000000e+00 1.9727385690065084e+01 1.4334488373415507e+01 3.1447574621763149e+01 
2080 1682 2 1.0267361655441900e+00 -2.2476315425842869e+04 1.0000000000000000e+00 1.9484268208417173e+01 1.5598498997396378e+01 2.9920188935307696e+01 
664 266 2 1.0315815937172925e+00 2.2445770882860147e+03 1.0000000000000000e+00 1.9706378258635773e+01 1.7296475105495698e+01 2.7100960374717857e+01 
2038 1640 2 1.0284738819083292e+00 -6.2082539524109106e+03 1.0000000000000000e+00 1.9486239623871342e+01 1.6652528526870835e+01 2.7821716194818233e+01 
1759 1361 2 1.0301423280270943e+00 2.7332299419883921e+03 1.0000000000000000e+00 1.9853128850792157e+01 1.4822825581207660e+01 3.0967985602105795e+01 
1606 1208 2 1.0307112278406747e+00 3.3956816932611896e+03 1.0000000000000000e+00 1.9346169177272948e+01 1.7022292356448784e+01 2.7447931906636821e+01 
817 419 2 1.0278360181857478e+00 -9.0910269779436730e+03 1.0000000000000000e+00 1.8966682979315888e+01 1.9984314618074450e+01 2.5546430846508308e+01 
1519 1121 2 1.0260533005935215e+00 5.8193803450531721e+02 1.0000000000000000e+00 1.9738196004224537e+01 1.4050778840759868e+01 3.1475345859328034e+01 
691 293 2 1.0272466030699756e+00 -2.1437413752938228e+03 1.0000000000000000e+00 1.9279080723460311e+01 1.6921383159173931e+01 2.7503445408527075e+01 
563 165 2 1.0286246930419436e+00 -1.3625100977450147e+04 1.0000000000000000e+00 1.9557933555341808e+01 1.7605854606858873e+01 2.6733564794195175e+01 
1695 1297 2 1.0296693521301672e+00 -2.4116761361388803e+03 1.0000000000000000e+00 1.9754105251614401e+01 1.4772248481266571e+01 3.1182534842453180e+01 
1392 994 2 1.0276986764825093e+00 4.4964462062862485e+03 1.0000000000000000e+00 1.8826564206260922e+01 1.9591652225759258e+01 2.5690657654217741e+01 
446 48 2 1.0262635641407605e+00 -3.9726711972779594e+03 1.0000000000000000e+00 1.9530596660853249e+01 1.4619036575975684e+01 3.2163315108228687e+01 
750 352 2 1.0259478975416754e+00 6.5189524829125194e+03 1.0000000000000000e+00 1.9608105954875867e+01 1.4570072017202083e+01 3.1309594069763445e+01 
460 62 2 1.0282567424365534e+00 3.1948360438725799e+03 1.0000000000000000e+00 1.9426047360785290e+01 1.8890887329550932e+01 2.5888921091419004e+01 
773 375 2 1.0278908481423408e+00 -3.6836442092862848e+02 1.0000000000000000e+00 1.9381346732615846e+01 1.5828036726629623e+01 3.0053252518445809e+01 
849 451 2 1.0271674393458954e+00 3.7809764444804255e+03 1.0000000000000000e+00 1.9249213316168323e+01 1.7654762302020401e+01 2.6705038965007532e+01 
1047 649 2 1.0285335170183503e+00 1.9316880025601153e+04 1.0000000000000000e+00 1.9752114995614718e+01 1.8872088430986118e+01 2.5947326425944702e+01 
1849 1451 2 1.0270519879594244e+00 -5.0437198883806814e+03 1.0000000000000000e+00 1.9595497544868500e+01 1.5243796239019261e+01 3.0635580139460430e+01 
526 128 2 1.0287685139964282e+00 -6.1702377514570317e+03 1.0000000000000000e+00 1.9164393535753955e+01 1.7133954109211174e+01 2.7341164563232521e+01 
1207 809 2 1.0275760766078577e+00 1.9843309111918334e+04 1.0000000000000000e+00 1.8775748714838254e+01 1.9284909514310201e+01 2.5823435015108046e+01 
1119 721 2 1.0287041748795993e+00 1.8862750214964690e+03 1.0000000000000000e+00 1.9725841020310504e+01 1.5296714156361501e+01 3.0306463889545054e+01 
1686 1288 2 1.0288377689695685e+00 2.7657488019026960e+03 1.0000000000000000e+00 1.9648812789193205e+01 1.6539697596379291e+01 2.7950986445480783e+01 
445 47 2 1.0281776633074944e+00 -1.7545958176375359e+03 1.0000000000000000e+00 1.8882181879405582e+01 1.8772532527432176e+01 2.6043231151386365e+01 
1992 1594 2 1.0254414239288596e+00 -1.3977672123527422e+04 1.0000000000000000e+00 1.9238469287766030e+01 1.6509634235591175e+01 2.8091156991335211e+01 
1117 719 2 1.0274751197114378e+00 1.6386991782912953e+03 1.0000000000000000e+00 1.8684765453574496e+01 1.9740171472721791e+01 2.5690476668214355e+01 
1152 754 2 1.0276349511691425e+00 -4.3231380142227299e+03 1.0000000000000000e+00 1.8996268358745201e+01 1.8904160331054648e+01 2.5924731738342501e+01 
1262 864 2 1.0275531707876628e+00 -1.1883332159055746e+04 1.0000000000000000e+00 1.9585299063567302e+01 1.5349979293215167e+01 3.0524699757645191e+01 
956 558 2 1.0274798688459381e+00 1.0045326405073050e+04 1.0000000000000000e+00 1.8876621058889235e+01 1.7953663223318411e+01 2.6612095872500301e+01 
1555 1157 2 1.0268135547332315e+00 1.0154371914896290e+04 1.0000000000000000e+00 1.8906710350836022e+01 1.9906166788479947e+01 2.5560105891515754e+01 
1825 1427 2 1.0276939270988625e+00 -1.0961436275623413e+04 1.0000000000000000e+00 1.9630833718929171e+01 1.6646337420558552e+01 2.7763455297826290e+01 
1809 1411 2 1.0277181948506449e+00 3.3293074951479016e+03 1.0000000000000000e+00 1.9373545638601708e+01 1.6731746215553326e+01 2.7731977866849515e+01 
953 555 2 1.0279899090819402e+00 1.0039767024541259e+04 1.0000000000000000e+00 1.9629114481545162e+01 1.8930724893555922e+01 2.5886505317666664e+01 
1677 1279 2 1.0264372979076253e+00 7.3109273048116465e+03 1.0000000000000000e+00 1.9321088151657559e+01 1.5830508061995724e+01 2.9860920880154339e+01 
1905 1507 2 1.0282140242829527e+00 -1.1129628176577460e+04 1.0000000000000000e+00 1.8879561446175391e+01 1.8750812434770133e+01 2.6057248441736089e+01 
1729 1331 2 1.0287068176795078e+00 3.9206825494229214e+01 1.0000000000000000e+00 1.8922566631093577e+01 1.8872835518548399e+01 2.5983911955828429e+01 
861 463 2 1.0294458256855687e+00 3.7600488758417259e+03 1.0000000000000000e+00 1.9203918050252611e+01 1.6697674373716033e+01 2.7976404624622408e+01 
1856 1458 2 1.0282837860437386e+00 -6.8518833906791804e+02 1.0000000000000000e+00 1.8227584382610694e+01 1.9016548360832061e+01 2.6391180214771541e+01 
1445 1047 2 1.0297928766455382e+00 5.3042831286320106e+03 1.0000000000000000e+00 1.9344303200729396e+01 1.6410307295840376e+01 2.8375221073471153e+01 
1516 1118 2 1.0277656697049791e+00 1.4528315199065881e+04 1.0000000000000000e+00 1.9477121813014890e+01 1.6864201724055153e+01 2.7512258482074092e+01 
813 415 2 1.0264895921257460e+00 1.4970451272837212e+02 1.0000000000000000e+00 1.9502433022463912e+01 1.6673743592485071e+01 2.7717986843803526e+01 
1582 1184 2 1.0296232067216713e+00 1.3739601658088915e+04 1.0000000000000000e+00 1.9577450975661861e+01 1.5620655037479459e+01 3.0040564741045827e+01 
611 213 2 1.0275691420164133e+00 8.3448438118320300e+03 1.0000000000000000e+00 1.9451773890343677e+01 1.6820261813924841e+01 2.7571503666582576e+01 
794 396 2 1.0276363765255190e+00 1.0414121287358155e+04 1.0000000000000000e+00 1.9326097484403455e+01 1.5963729579799862e+01 2.9363519479235599e+01 
937 539 2 1.0284323790735068e+00 7.3262459615080697e+03 1.0000000000000000e+00 1.9779844546773901e+01 1.8940949331756649e+01 2.5923652229055300e+01 
495 97 2 1.0284138224618020e+00 -1.1855477236314975e+04 1.0000000000000000e+00 1.9541213719392516e+01 1.5599552275263399e+01 3.0005294959669445e+01 
792 394 2 1.0290150072426358e+00 1.2014279802925559e+04 1.0000000000000000e+00 1.9557307521612898e+01 1.4454501408220400e+01 3.2368103895716608e+01 
948 550 2 1.0268374684843014e+00 2.9661388989653874e+03 1.0000000000000000e+00 1.8590372242740148e+01 1.9976889696386372e+01 2.5650114590369984e+01 
1646 1248 2 1.0294219805842770e+00 1.6158402456357129e+04 1.0000000000000000e+00 1.9883444591097224e+01 1.6631119572556933e+01 2.7840181199538137e+01 
720 322 2 1.0279664182324133e+00 7.7069784440370756e+02 1.0000000000000000e+00 1.9083147641380581e+01 1.7059399358668976e+01 2.7472115040282318e+01 
1598 1200 2 1.0268100837298817e+00 -2.7128813679097489e+03 1.0000000000000000e+00 1.9786848369621694e+01 1.5502564751271761e+01 2.9614329148992244e+01 
1641 1243 2 1.0281993285952702e+00 3.8831336581313071e+03 1.0000000000000000e+00 1.8900794051835451e+01 1.8159950950499887e+01 2.6443428600731128e+01 
433 35 2 1.0285289701250053e+00 -1.1134838519671039e+04 1.0000000000000000e+00 1.8905217530699744e+01 1.8660503094069114e+01 2.6105531345854104e+01 
733 335 2 1.0277929394576997e+00 -2.9416426996262901e+04 1.0000000000000000e+00 1.8536419403301696e+01 1.8926772152933427e+01 2.6138686032185021e+01 
686 288 2 1.0285241070814986e+00 -8.0644985500025423e+03 1.0000000000000000e+00 1.9611578873377834e+01 1.6612879492144327e+01 2.7842114573181473e+01 
1859 1461 2 1.0276006173657013e+00 -7.7852627462926312e+03 1.0000000000000000e+00 1.9297264417086758e+01 1.9378060891165727e+01 2.5683389056669657e+01 
528 130 2 1.0265336300468035e+00 -5.8462076323681540e+03 1.0000000000000000e+00 1.9654487526047326e+01 1.4870741193977786e+01 3.0936967888232960e+01 
661 263 2 1.0240746388903401e+00 2.2341519401323262e+03 1.0000000000000000e+00 1.9289086287171109e+01 1.9309042882294445e+01 2.9362206905138756e+01 
1458 1060 2 1.0282575227961848e+00 1.0333984259967336e+04 1.0000000000000000e+00 1.9631258451638683e+01 1.6607421274953115e+01 2.7836535209644140e+01 
900 502 2 1.0284982823708613e+00 -2.2377923585798504e+02 1.0000000000000000e+00 1.9565990751895519e+01 1.6824970384239858e+01 2.7563615726681348e+01 
858 460 2 1.0289195545852550e+00 2.7430380220260231e+03 1.0000000000000000e+00 1.9682701440283676e+01 1.5444016772785082e+01 3.0091091264401587e+01 
840 442 2 1.0278046309845366e+00 7.2998235155861666e+03 1.0000000000000000e+00 1.8094153693602863e+01 1.8782948177030068e+01 2.8402243247609533e+01 
1213 815 2 1.0283068667161470e+00 1.1710742358279662e+04 1.0000000000000000e+00 1.9250363226794434e+01 1.6127210541128544e+01 2.9139875632483445e+01 
2033 1635 2 1.0269673032468476e+00 -5.6109374737999124e+03 1.0000000000000000e+00 1.9049728075951844e+01 1.7229272795008903e+01 2.7244034726593643e+01 
1864 1466 2 1.0291826648324600e+00 -2.2423107545238240e+03 1.0000000000000000e+00 1.8059219450919496e+01 1.8408663366492700e+01 2.7571641777216676e+01 
736 338 2 1.0260615759365814e+00 -2.9422161692455487e+04 1.0000000000000000e+00 1.9240084780333465e+01 1.6847792022557694e+01 2.7588442747551827e+01 
713 315 2 1.0281850746550192e+00 -8.8120555871867975e+02 1.0000000000000000e+00 1.9011402099902007e+01 1.9247864605379505e+01 2.5775717893410913e+01 
579 181 2 1.0257826416060056e+00 -1.4653569613592552e+04 1.0000000000000000e+00 1.9843932325138816e+01 1.3108550407745708e+01 3.2085983658964899e+01 
1333 935 2 1.0285749170738772e+00 -2.3135627352706379e+03 1.0000000000000000e+00 1.9603150658798668e+01 1.5639157947568458e+01 2.9709127493880086e+01 
804 406 2 1.0287382575585473e+00 3.8434049517683429e+03 1.0000000000000000e+00 1.8936165540083127e+01 1.7743070970685366e+01 2.6801749743839039e+01 
1869 1471 2 1.0266837398067112e+00 3.1020869664148422e+03 1.0000000000000000e+00 1.9857494798164659e+01 1.9763238435759849e+01 2.5670471462030950e+01 
1839 1441 2 1.0274102535248069e+00 9.0654344408805518e+03 1.0000000000000000e+00 1.9561675074669360e+01 1.5885684276979941e+01 2.9081930330901102e+01 
1157 759 2 1.0259417231276045e+00 3.4001018732118908e+04 1.0000000000000000e+00 1.9136283497156583e+01 1.6755178725885326e+01 2.7802688770734928e+01 
1903 1505 2 1.0262116090834126e+00 2.7804280251212776e+03 1.0000000000000000e+00 1.9014179944226793e+01 1.7153511699175656e+01 2.7344753703960670e+01 
1633 1235 2 1.0280827249605504e+00 6.6639244432299911e+03 1.0000000000000000e+00 1.8672138729368804e+01 1.9647224083518644e+01 2.5738011260992039e+01 
1143 745 2 1.0276604013373714e+00 2.5181195253971978e+03 1.0000000000000000e+00 1.9140402731913159e+01 1.9907508753789848e+01 2.5539950661047072e+01 