LAMMPS data file via write_data, version 30 Jul 2016, timestep = 600000

2080 atoms
8 atom types

0.0000000000000000e+00 4.0000000000000000e+01 xlo xhi
0.0000000000000000e+00 4.0000000000000000e+01 ylo yhi
0.0000000000000000e+00 1.0000000000000000e+02 zlo zhi

Masses

1 3.896
2 21.44
3 1058.08
4 8.378
5 8.378
6 8.378
7 8.378
8 8.378

Atoms # meso-molecular

1 2 4 2.2559723595316457e+00 2.4997494432536470e+04 4.2000000000000000e+03 0.0000000000000000e+00 0.0000000000000000e+00 2.5000000000000000e+00 
21 2 4 2.2559723595316457e+00 5.3132481436685193e+05 4.2000000000000000e+03 2.0000000000000000e+00 0.0000000000000000e+00 2.5000000000000000e+00 
41 2 4 2.2559723595316457e+00 1.8861156191868411e+05 4.2000000000000000e+03 4.0000000000000000e+00 0.0000000000000000e+00 2.5000000000000000e+00 
61 2 4 2.2559723595316457e+00 7.5189588634704676e+04 4.2000000000000000e+03 6.0000000000000000e+00 0.0000000000000000e+00 2.5000000000000000e+00 
81 2 4 2.2559723595316457e+00 2.4974437584041170e+05 4.2000000000000000e+03 8.0000000000000000e+00 0.0000000000000000e+00 2.5000000000000000e+00 
101 2 4 2.2559723595316457e+00 5.6077627022015091e+04 4.2000000000000000e+03 1.0000000000000000e+01 0.0000000000000000e+00 2.5000000000000000e+00 
121 2 4 2.2559723595316457e+00 -5.9548517845045091e+04 4.2000000000000000e+03 1.2000000000000000e+01 0.0000000000000000e+00 2.5000000000000000e+00 
141 2 4 2.2559723595316457e+00 -2.4190213147847098e+05 4.2000000000000000e+03 1.4000000000000000e+01 0.0000000000000000e+00 2.5000000000000000e+00 
161 2 4 2.2559753557015947e+00 -5.0227381149348912e+04 4.2000000000000000e+03 1.6000000000000000e+01 0.0000000000000000e+00 2.5000000000000000e+00 
181 2 4 2.2559723595316457e+00 -2.7604325574864750e+04 4.2000000000000000e+03 1.8000000000000000e+01 0.0000000000000000e+00 2.5000000000000000e+00 
2 2 4 2.2559723595316457e+00 4.0262124335050920e+05 4.2000000000000000e+03 0.0000000000000000e+00 2.0000000000000000e+00 2.5000000000000000e+00 
22 2 4 2.2559723595316457e+00 4.3665018688914424e+05 4.2000000000000000e+03 2.0000000000000000e+00 2.0000000000000000e+00 2.5000000000000000e+00 
42 2 4 2.2559723595316457e+00 -2.2042961501471131e+04 4.2000000000000000e+03 4.0000000000000000e+00 2.0000000000000000e+00 2.5000000000000000e+00 
62 2 4 2.2559723595316457e+00 1.9744480975097301e+05 4.2000000000000000e+03 6.0000000000000000e+00 2.0000000000000000e+00 2.5000000000000000e+00 
82 2 4 2.2559723595316457e+00 6.1822373004024819e+04 4.2000000000000000e+03 8.0000000000000000e+00 2.0000000000000000e+00 2.5000000000000000e+00 
102 2 4 2.2559723595316457e+00 2.3461636415503753e+05 4.2000000000000000e+03 1.0000000000000000e+01 2.0000000000000000e+00 2.5000000000000000e+00 
122 2 4 2.2559723595316457e+00 2.8935637242661696e+05 4.2000000000000000e+03 1.2000000000000000e+01 2.0000000000000000e+00 2.5000000000000000e+00 
142 2 4 2.2559723595316457e+00 2.3803133547548947e+05 4.2000000000000000e+03 1.4000000000000000e+01 2.0000000000000000e+00 2.5000000000000000e+00 
162 2 4 2.2559723595316457e+00 1.2599893188797371e+05 4.2000000000000000e+03 1.6000000000000000e+01 2.0000000000000000e+00 2.5000000000000000e+00 
182 2 4 2.2559723595316457e+00 1.8257828074980171e+04 4.2000000000000000e+03 1.8000000000000000e+01 2.0000000000000000e+00 2.5000000000000000e+00 
3 2 4 2.2559723595316457e+00 1.9622323829843494e+05 4.2000000000000000e+03 0.0000000000000000e+00 4.0000000000000000e+00 2.5000000000000000e+00 
23 2 4 2.2559723595316457e+00 -1.0074896227018946e+05 4.2000000000000000e+03 2.0000000000000000e+00 4.0000000000000000e+00 2.5000000000000000e+00 
43 2 4 2.2559723595316457e+00 1.8417587249254965e+05 4.2000000000000000e+03 4.0000000000000000e+00 4.0000000000000000e+00 2.5000000000000000e+00 
63 2 4 2.2559723595316457e+00 2.2202829226107884e+05 4.2000000000000000e+03 6.0000000000000000e+00 4.0000000000000000e+00 2.5000000000000000e+00 
83 2 4 2.2559723595316457e+00 1.2087138816279577e+05 4.2000000000000000e+03 8.0000000000000000e+00 4.0000000000000000e+00 2.5000000000000000e+00 
103 2 4 2.2559723595316457e+00 -1.5347960440293478e+05 4.2000000000000000e+03 1.0000000000000000e+01 4.0000000000000000e+00 2.5000000000000000e+00 
123 2 4 2.2559723595316457e+00 2.0087701152034895e+05 4.2000000000000000e+03 1.2000000000000000e+01 4.0000000000000000e+00 2.5000000000000000e+00 
143 2 4 2.2559723595316457e+00 2.5005476074266265e+05 4.2000000000000000e+03 1.4000000000000000e+01 4.0000000000000000e+00 2.5000000000000000e+00 
163 2 4 2.2559723595316457e+00 2.0444138880510919e+05 4.2000000000000000e+03 1.6000000000000000e+01 4.0000000000000000e+00 2.5000000000000000e+00 
183 2 4 2.2559781677521196e+00 -1.1485072637595961e+05 4.2000000000000000e+03 1.8000000000000000e+01 4.0000000000000000e+00 2.5000000000000000e+00 
4 2 4 2.2559723595316457e+00 5.2204436801255870e+04 4.2000000000000000e+03 0.0000000000000000e+00 6.0000000000000000e+00 2.5000000000000000e+00 
24 2 4 2.2559723595316457e+00 -4.8934668579079280e+03 4.2000000000000000e+03 2.0000000000000000e+00 6.0000000000000000e+00 2.5000000000000000e+00 
44 2 4 2.2559723595316457e+00 1.6553572854586184e+05 4.2000000000000000e+03 4.0000000000000000e+00 6.0000000000000000e+00 2.5000000000000000e+00 
64 2 4 2.2559723595316457e+00 9.1345440686631278e+04 4.2000000000000000e+03 6.0000000000000000e+00 6.0000000000000000e+00 2.5000000000000000e+00 
84 2 4 2.2559723595316457e+00 3.9683384399804240e+05 4.2000000000000000e+03 8.0000000000000000e+00 6.0000000000000000e+00 2.5000000000000000e+00 
104 2 4 2.2559723595316457e+00 -3.8493193277781247e+05 4.2000000000000000e+03 1.0000000000000000e+01 6.0000000000000000e+00 2.5000000000000000e+00 
124 2 4 2.2559723595316457e+00 -2.2649397161725594e+05 4.2000000000000000e+03 1.2000000000000000e+01 6.0000000000000000e+00 2.5000000000000000e+00 
144 2 4 2.2559723595316457e+00 -3.5467405464973720e+05 4.2000000000000000e+03 1.4000000000000000e+01 6.0000000000000000e+00 2.5000000000000000e+00 
164 2 4 2.2559723595316457e+00 -5.5621459294223452e+04 4.2000000000000000e+03 1.6000000000000000e+01 6.0000000000000000e+00 2.5000000000000000e+00 
184 2 4 2.2573845640625647e+00 1.4712138356333031e+05 4.2000000000000000e+03 1.8000000000000000e+01 6.0000000000000000e+00 2.5000000000000000e+00 
5 2 4 2.2559723595316457e+00 4.5365712648842906e+04 4.2000000000000000e+03 0.0000000000000000e+00 8.0000000000000000e+00 2.5000000000000000e+00 
25 2 4 2.2562926617689314e+00 -9.0857762587663135e+04 4.2000000000000000e+03 2.0000000000000000e+00 8.0000000000000000e+00 2.5000000000000000e+00 
45 2 4 2.2566775028148300e+00 1.0885450350488251e+05 4.2000000000000000e+03 4.0000000000000000e+00 8.0000000000000000e+00 2.5000000000000000e+00 
65 2 4 2.2559723595316457e+00 -7.6476633689430106e+04 4.2000000000000000e+03 6.0000000000000000e+00 8.0000000000000000e+00 2.5000000000000000e+00 
85 2 4 2.2559723595316457e+00 -1.9853609239152150e+05 4.2000000000000000e+03 8.0000000000000000e+00 8.0000000000000000e+00 2.5000000000000000e+00 
105 2 4 2.2559723595316457e+00 -1.7781308403095209e+04 4.2000000000000000e+03 1.0000000000000000e+01 8.0000000000000000e+00 2.5000000000000000e+00 
125 2 4 2.2559723595316457e+00 6.4806014048875688e+04 4.2000000000000000e+03 1.2000000000000000e+01 8.0000000000000000e+00 2.5000000000000000e+00 
145 2 4 2.2559723595316457e+00 1.7569124163764087e+05 4.2000000000000000e+03 1.4000000000000000e+01 8.0000000000000000e+00 2.5000000000000000e+00 
165 2 4 2.2559723595316457e+00 -2.3750625287654449e+05 4.2000000000000000e+03 1.6000000000000000e+01 8.0000000000000000e+00 2.5000000000000000e+00 
185 2 4 2.2559723595316457e+00 8.5368117509329226e+04 4.2000000000000000e+03 1.8000000000000000e+01 8.0000000000000000e+00 2.5000000000000000e+00 
6 2 4 2.2559723595316457e+00 2.0326418794393505e+05 4.2000000000000000e+03 0.0000000000000000e+00 1.0000000000000000e+01 2.5000000000000000e+00 
26 2 4 2.2559968290103019e+00 -7.6716997928046971e+04 4.2000000000000000e+03 2.0000000000000000e+00 1.0000000000000000e+01 2.5000000000000000e+00 
46 2 4 2.2559723595316457e+00 -7.2924308647244528e+04 4.2000000000000000e+03 4.0000000000000000e+00 1.0000000000000000e+01 2.5000000000000000e+00 
66 2 4 2.2559723595316457e+00 -8.4118908142989501e+04 4.2000000000000000e+03 6.0000000000000000e+00 1.0000000000000000e+01 2.5000000000000000e+00 
86 2 4 2.2559723595316457e+00 4.3993544431958100e+04 4.2000000000000000e+03 8.0000000000000000e+00 1.0000000000000000e+01 2.5000000000000000e+00 
106 2 4 2.2559723595316457e+00 2.2301754507448873e+05 4.2000000000000000e+03 1.0000000000000000e+01 1.0000000000000000e+01 2.5000000000000000e+00 
126 2 4 2.2559723595316457e+00 -1.8968391107355914e+05 4.2000000000000000e+03 1.2000000000000000e+01 1.0000000000000000e+01 2.5000000000000000e+00 
146 2 4 2.2559723595316457e+00 2.3166526409027143e+05 4.2000000000000000e+03 1.4000000000000000e+01 1.0000000000000000e+01 2.5000000000000000e+00 
166 2 4 2.2559723595316457e+00 -1.0847412801346814e+05 4.2000000000000000e+03 1.6000000000000000e+01 1.0000000000000000e+01 2.5000000000000000e+00 
186 2 4 2.2559723595316457e+00 -1.2567136213451016e+05 4.2000000000000000e+03 1.8000000000000000e+01 1.0000000000000000e+01 2.5000000000000000e+00 
7 2 4 2.2559723595316457e+00 9.9053400637826126e+04 4.2000000000000000e+03 0.0000000000000000e+00 1.2000000000000000e+01 2.5000000000000000e+00 
27 2 4 2.2599469207297793e+00 2.0367339340668116e+05 4.2000000000000000e+03 2.0000000000000000e+00 1.2000000000000000e+01 2.5000000000000000e+00 
47 2 4 2.2559745942932907e+00 8.7000594447040232e+04 4.2000000000000000e+03 4.0000000000000000e+00 1.2000000000000000e+01 2.5000000000000000e+00 
67 2 4 2.2559723595316457e+00 -1.4445535364795773e+05 4.2000000000000000e+03 6.0000000000000000e+00 1.2000000000000000e+01 2.5000000000000000e+00 
87 2 4 2.2559723595316457e+00 -2.6363645227049143e+04 4.2000000000000000e+03 8.0000000000000000e+00 1.2000000000000000e+01 2.5000000000000000e+00 
107 2 4 2.2559723595316457e+00 2.4753436515413085e+05 4.2000000000000000e+03 1.0000000000000000e+01 1.2000000000000000e+01 2.5000000000000000e+00 
127 2 4 2.2559723595316457e+00 -1.7918156338227505e+05 4.2000000000000000e+03 1.2000000000000000e+01 1.2000000000000000e+01 2.5000000000000000e+00 
147 2 4 2.2559723595316457e+00 -5.1529184752218971e+04 4.2000000000000000e+03 1.4000000000000000e+01 1.2000000000000000e+01 2.5000000000000000e+00 
167 2 4 2.2559723595316457e+00 6.7768545605934312e+04 4.2000000000000000e+03 1.6000000000000000e+01 1.2000000000000000e+01 2.5000000000000000e+00 
187 2 4 2.2559723595316457e+00 -3.9956261988389294e+05 4.2000000000000000e+03 1.8000000000000000e+01 1.2000000000000000e+01 2.5000000000000000e+00 
8 2 4 2.2559723595316457e+00 2.1938138371280671e+04 4.2000000000000000e+03 0.0000000000000000e+00 1.4000000000000000e+01 2.5000000000000000e+00 
28 2 4 2.2559723595316457e+00 7.6416874938118359e+04 4.2000000000000000e+03 2.0000000000000000e+00 1.4000000000000000e+01 2.5000000000000000e+00 
48 2 4 2.2559723595316457e+00 2.8957536321481073e+05 4.2000000000000000e+03 4.0000000000000000e+00 1.4000000000000000e+01 2.5000000000000000e+00 
68 2 4 2.2559723595316457e+00 1.8138624206727493e+05 4.2000000000000000e+03 6.0000000000000000e+00 1.4000000000000000e+01 2.5000000000000000e+00 
88 2 4 2.2559723595316457e+00 -7.9836941469688943e+04 4.2000000000000000e+03 8.0000000000000000e+00 1.4000000000000000e+01 2.5000000000000000e+00 
108 2 4 2.2559723595316457e+00 -2.0189703268594421e+04 4.2000000000000000e+03 1.0000000000000000e+01 1.4000000000000000e+01 2.5000000000000000e+00 
128 2 4 2.2559723595316457e+00 5.2864504778659483e+05 4.2000000000000000e+03 1.2000000000000000e+01 1.4000000000000000e+01 2.5000000000000000e+00 
148 2 4 2.2559723595316457e+00 5.5528811306148069e+04 4.2000000000000000e+03 1.4000000000000000e+01 1.4000000000000000e+01 2.5000000000000000e+00 
168 2 4 2.2559723595316457e+00 4.5950058003572922e+05 4.2000000000000000e+03 1.6000000000000000e+01 1.4000000000000000e+01 2.5000000000000000e+00 
188 2 4 2.2559723595316457e+00 -2.4848330381194648e+05 4.2000000000000000e+03 1.8000000000000000e+01 1.4000000000000000e+01 2.5000000000000000e+00 
9 2 4 2.2559723595316457e+00 2.5232453078104364e+05 4.2000000000000000e+03 0.0000000000000000e+00 1.6000000000000000e+01 2.5000000000000000e+00 
29 2 4 2.2559723595316457e+00 2.4505106720351521e+05 4.2000000000000000e+03 2.0000000000000000e+00 1.6000000000000000e+01 2.5000000000000000e+00 
49 2 4 2.2559723595316457e+00 2.0471556313605572e+05 4.2000000000000000e+03 4.0000000000000000e+00 1.6000000000000000e+01 2.5000000000000000e+00 
69 2 4 2.2559723595316457e+00 4.4543912222838437e+04 4.2000000000000000e+03 6.0000000000000000e+00 1.6000000000000000e+01 2.5000000000000000e+00 
89 2 4 2.2559723595316457e+00 2.9399607084360257e+04 4.2000000000000000e+03 8.0000000000000000e+00 1.6000000000000000e+01 2.5000000000000000e+00 
109 2 4 2.2559723595316457e+00 1.5176814164963149e+04 4.2000000000000000e+03 1.0000000000000000e+01 1.6000000000000000e+01 2.5000000000000000e+00 
129 2 4 2.2559723595316457e+00 1.8490422238909412e+05 4.2000000000000000e+03 1.2000000000000000e+01 1.6000000000000000e+01 2.5000000000000000e+00 
149 2 4 2.2559723595316457e+00 -1.5479163529878104e+05 4.2000000000000000e+03 1.4000000000000000e+01 1.6000000000000000e+01 2.5000000000000000e+00 
169 2 4 2.2559723595316457e+00 1.4089211875000322e+05 4.2000000000000000e+03 1.6000000000000000e+01 1.6000000000000000e+01 2.5000000000000000e+00 
189 2 4 2.2559723595316457e+00 -3.0754535047284316e+05 4.2000000000000000e+03 1.8000000000000000e+01 1.6000000000000000e+01 2.5000000000000000e+00 
10 2 4 2.2559723595316457e+00 -3.1480300532783156e+04 4.2000000000000000e+03 0.0000000000000000e+00 1.8000000000000000e+01 2.5000000000000000e+00 
30 2 4 2.2597347552292977e+00 -1.0972533435821117e+04 4.2000000000000000e+03 2.0000000000000000e+00 1.8000000000000000e+01 2.5000000000000000e+00 
50 2 4 2.2559723595316457e+00 4.2517461567282327e+05 4.2000000000000000e+03 4.0000000000000000e+00 1.8000000000000000e+01 2.5000000000000000e+00 
70 2 4 2.2559723595316457e+00 -1.4997130552908214e+05 4.2000000000000000e+03 6.0000000000000000e+00 1.8000000000000000e+01 2.5000000000000000e+00 
90 2 4 2.2559723595316457e+00 4.8401321502601451e+04 4.2000000000000000e+03 8.0000000000000000e+00 1.8000000000000000e+01 2.5000000000000000e+00 
110 2 4 2.2559723595316457e+00 -6.0731254844219176e+04 4.2000000000000000e+03 1.0000000000000000e+01 1.8000000000000000e+01 2.5000000000000000e+00 
130 2 4 2.2559723595316457e+00 2.4854980696191138e+05 4.2000000000000000e+03 1.2000000000000000e+01 1.8000000000000000e+01 2.5000000000000000e+00 
150 2 4 2.2559723595316457e+00 -2.6160836683470220e+05 4.2000000000000000e+03 1.4000000000000000e+01 1.8000000000000000e+01 2.5000000000000000e+00 
170 2 4 2.2559723595316457e+00 -1.0001692836894112e+04 4.2000000000000000e+03 1.6000000000000000e+01 1.8000000000000000e+01 2.5000000000000000e+00 
190 2 4 2.2559723595316457e+00 -1.6513958901698363e+05 4.2000000000000000e+03 1.8000000000000000e+01 1.8000000000000000e+01 2.5000000000000000e+00 
550 152 2 1.7125934778056229e+00 5.6003078504472622e+05 4.2000000000000000e+03 1.7785906644946028e+00 4.7382642149918084e+00 5.4089352197507896e+00 
1045 647 2 1.7121476196302152e+00 5.4008569573963643e+05 4.2000000000000000e+03 2.5765194276796430e+00 1.1360558655436003e+01 5.0084249559320035e+00 
978 580 2 1.7105840654397670e+00 -8.5934328438361501e+05 4.2000000000000000e+03 1.1753926731164839e+01 1.8620079787141147e+01 5.6797732578946762e+00 
1700 1302 2 1.7105840654397670e+00 8.0522891090107546e+05 4.2000000000000000e+03 1.2173714723198923e+01 2.2764772924054215e+00 6.8959186403272899e+00 
1621 1223 2 1.7105826203346219e+00 -8.8412142259125970e+05 4.2000000000000000e+03 1.9499492114577073e+01 3.3070143958702940e+00 6.2638103590355154e+00 
728 330 2 1.7125934778056229e+00 -6.7060897964658192e+05 4.2000000000000000e+03 1.2571288131711829e+00 7.2754717496019428e+00 6.2013375424553043e+00 
2024 1626 2 1.7109614735195602e+00 1.1867122444166730e+06 4.2000000000000000e+03 5.5083979390534212e+00 1.0116854964872239e+01 6.0703315045581219e+00 
1057 659 2 1.7183468379054503e+00 -9.7294899321093853e+05 4.2000000000000000e+03 9.5161057599346996e+00 1.2420025940686324e+01 7.5110490726916108e+00 
1936 1538 2 1.7105840654397670e+00 -1.0193492354752657e+06 4.2000000000000000e+03 1.7275502974271561e+01 1.3873337240139641e+01 7.2072787737305601e+00 
1860 1462 2 1.7105840654397670e+00 1.0088217478443761e+06 4.2000000000000000e+03 1.5118281875792464e+01 1.9775727395716199e+01 7.2497867097034270e+00 
1572 1174 2 1.7105840654397670e+00 1.9200942428365317e+06 4.2000000000000000e+03 4.5414065091792786e+00 1.9538771614248021e+00 9.0208182111433306e+00 
844 446 2 1.7105840654397670e+00 -2.4514006217844441e+05 4.2000000000000000e+03 1.0837719982834621e+01 8.0417225987693430e-01 9.2939235852670610e+00 
563 165 2 1.7166808951810446e+00 5.9299469813792581e+04 4.2000000000000000e+03 1.8273902985391025e+01 1.6002895147669183e+00 8.3480621693775152e+00 
602 204 2 1.7117874147393426e+00 3.9268560526044684e+05 4.2000000000000000e+03 1.2432208121457403e+01 5.7881808522679297e+00 8.6300225955807086e+00 
2011 1613 2 1.7105840654397670e+00 -1.3755387568233991e+06 4.2000000000000000e+03 5.0897780229916405e+00 6.4767240427552339e+00 8.2562450149875559e+00 
434 36 2 1.7128688497988511e+00 1.7056546785537992e+06 4.2000000000000000e+03 8.2196384467061243e+00 8.2893554108093408e+00 8.8226003924984564e+00 
1923 1525 2 1.7117874147393426e+00 -3.0282116992714185e+04 4.2000000000000000e+03 1.2505239239536477e+01 8.5308992711481935e+00 8.5728109693010524e+00 
1960 1562 2 1.7132462578786443e+00 -8.6727439408050198e+05 4.2000000000000000e+03 7.1520615485887555e+00 1.0702642054036501e+01 8.2724554465776450e+00 
1316 918 2 1.7186409059426446e+00 8.9340700575693755e+05 4.2000000000000000e+03 9.5463989347605036e+00 1.4772497713946914e+01 8.5733613755017757e+00 
1265 867 2 1.7105840654397670e+00 -5.6760317317210487e+05 4.2000000000000000e+03 1.5848071519158275e+01 1.5748450240070799e+01 9.8034099448991139e+00 
1402 1004 2 1.7291739236723633e+00 -6.9807025530440058e+05 4.2000000000000000e+03 1.9210022889363835e+01 1.4468833245540075e+01 9.6813504695277022e+00 
1747 1349 2 1.7105931359180928e+00 -9.9676994072577520e+05 4.2000000000000000e+03 1.4275394557757228e+00 1.6163499258622206e+01 8.7558866602365590e+00 
1535 1137 2 1.7239702989055514e+00 4.4289822400275845e+05 4.2000000000000000e+03 1.2053488129943377e+01 1.6070941874506993e+01 8.5633516867753912e+00 
956 558 2 1.7105839228692092e+00 2.2921836104467406e+05 4.2000000000000000e+03 4.0115047011212379e+00 1.8295970522055107e+01 8.7572001999455598e+00 
608 210 2 1.7105840654397670e+00 1.2432465146784992e+06 4.2000000000000000e+03 1.8901313228185952e+01 1.9079701269486296e+01 8.7308968124855184e+00 
1121 723 2 1.7105840654397670e+00 1.6994057865869431e+06 4.2000000000000000e+03 7.5920114935784468e+00 5.2223808686134614e+00 1.1652859869343303e+01 
1749 1351 2 1.7105840654397670e+00 2.4279122057410926e+06 4.2000000000000000e+03 1.4229116428952917e+00 7.2662783946020033e+00 1.0809756846519630e+01 
1699 1301 2 1.7105840654397670e+00 -1.0127990579557398e+05 4.2000000000000000e+03 1.3433468249911355e+01 1.1160980674868572e+01 1.0316384430675630e+01 
1524 1126 2 1.7105930221900196e+00 4.9310163920378848e+05 4.2000000000000000e+03 4.0703030167593095e+00 1.5499509373184834e+01 9.8220477175934153e+00 
1983 1585 2 1.7236762308683571e+00 -5.3751718739354424e+05 4.2000000000000000e+03 1.0561829894486570e+01 1.7655230986403193e+01 9.8429136782008193e+00 
2019 1621 2 1.7145801107279537e+00 7.6407730241886270e+05 4.2000000000000000e+03 5.2208652739572639e+00 1.9772677439462083e+01 1.1019216529015710e+01 
1853 1455 2 1.7105840654397670e+00 -3.6535930338724831e+05 4.2000000000000000e+03 1.5806551118517518e+01 1.6389405419645982e+00 1.2597746207271177e+01 
1775 1377 2 1.7105840654397670e+00 -1.5191648315158212e+06 4.2000000000000000e+03 1.5920735166481259e+00 2.3142879438564514e+00 1.3396111055805395e+01 
1309 911 2 1.7105840654397670e+00 1.7083263735327113e+05 4.2000000000000000e+03 1.1388515394962866e+01 5.4902781603957358e+00 1.3070984075684908e+01 
1354 956 2 1.7105840654397670e+00 3.5494261352009693e+04 4.2000000000000000e+03 4.4839976597434600e-01 8.5183004054600904e+00 1.3635919943875779e+01 
1869 1471 2 1.7105840654397670e+00 -3.7221557190542563e+05 4.2000000000000000e+03 4.2966661941813635e+00 1.0208763588123432e+01 1.2824235803927600e+01 
1828 1430 2 1.7107084881085510e+00 -6.8138843942235038e+05 4.2000000000000000e+03 6.6910352350443318e+00 1.1992658500431650e+01 1.1940640208996420e+01 
577 179 2 1.7105840654397670e+00 -6.1258803835762432e+05 4.2000000000000000e+03 1.9418639699662975e+01 1.1899626637478148e+01 1.2817604640485362e+01 
1619 1221 2 1.7105840654397670e+00 -9.0168194335261965e+05 4.2000000000000000e+03 1.4876803003255128e+01 1.3877518871914996e+01 1.2082345561505790e+01 
1944 1546 2 1.7105927139457884e+00 -1.0975289973987569e+06 4.2000000000000000e+03 1.5647363973077551e+01 1.7420203931447457e+01 1.3342713065856096e+01 
1697 1299 2 1.7105840654397670e+00 3.8600736775251245e+05 4.2000000000000000e+03 5.5890265582604517e+00 1.5163869371542733e+00 1.4586791906692106e+01 
628 230 2 1.7105840654397670e+00 -9.4588938155140681e+05 4.2000000000000000e+03 1.3922054616175233e+01 2.9894287425792379e+00 1.5552580018362391e+01 
679 281 2 1.7156631855869366e+00 -4.1747099659050832e+05 4.2000000000000000e+03 5.8391518225522372e+00 8.2811954875246734e+00 1.4651590250202728e+01 
654 256 2 1.7156631855869366e+00 -9.7175628876128569e+04 4.2000000000000000e+03 8.4315055618996251e+00 8.7166687799335758e+00 1.4643527540160054e+01 
957 559 2 1.7105840654397670e+00 -1.2025975144685172e+06 4.2000000000000000e+03 1.4575210623471056e+01 8.2851781060973178e+00 1.3774115974485506e+01 
441 43 2 1.7107084881085510e+00 -6.6589030206692778e+05 4.2000000000000000e+03 7.1758891508777412e+00 1.2982946890377038e+01 1.4585462818376898e+01 
1513 1115 2 1.7105840654397670e+00 -2.7865329157538229e+05 4.2000000000000000e+03 1.0776112551880674e+01 1.3453061405166782e+01 1.5033504503634129e+01 
1794 1396 2 1.7105840654397670e+00 -1.3146144358113348e+06 4.2000000000000000e+03 1.8822335942256981e+01 1.3963536275199681e+01 1.4944501240388099e+01 
1075 677 2 1.7153077923242745e+00 -2.7774774159805290e+05 4.2000000000000000e+03 1.1765521998296160e+00 1.4008599525227515e+01 1.5232454825475935e+01 
1315 917 2 1.7105842204069444e+00 -1.5431258120160474e+05 4.2000000000000000e+03 3.4219947136517503e+00 1.5423885379798950e+01 1.3861367438537114e+01 
1011 613 2 1.7105927139457884e+00 -3.2872521274934406e+05 4.2000000000000000e+03 1.5569128310850665e+01 1.9318753663815855e+01 1.5529579155205349e+01 
1466 1068 2 1.7105840654397670e+00 -6.1752363102672668e+05 4.2000000000000000e+03 1.9816725292795176e+01 8.1791134636438734e-01 1.5953965511820831e+01 
1576 1178 2 1.7113389208734855e+00 6.1945834342136327e+05 4.2000000000000000e+03 8.7489154965090830e+00 2.1555960599172757e+00 1.6174438724083675e+01 
1484 1086 2 1.7105840654397670e+00 -5.4626486805715400e+05 4.2000000000000000e+03 1.7888771070870639e+01 5.3184685905170115e+00 1.5928179508320532e+01 
815 417 2 1.7125137203570431e+00 -9.6846642678557779e+05 4.2000000000000000e+03 8.2623106639846746e+00 6.5329698207597522e+00 1.7284018727771478e+01 
903 505 2 1.7105840654397670e+00 9.0163057606980408e+04 4.2000000000000000e+03 1.1784753510912481e+01 6.9087662121559879e+00 1.6745648468905827e+01 
617 219 2 1.7105840654397670e+00 1.2084036428800230e+06 4.2000000000000000e+03 8.6309707254316603e-01 9.4628342478569056e+00 1.7488944883727495e+01 
1007 609 2 1.7105840654397670e+00 -3.1229436391375924e+05 4.2000000000000000e+03 1.0288451617239110e+01 9.7321300702695712e+00 1.7380304108562584e+01 
1658 1260 2 1.7215820143806189e+00 3.4402667151333374e+05 4.2000000000000000e+03 3.5072727657325875e-01 1.3332825900865879e+01 1.7635547022254269e+01 
1898 1500 2 1.7132685757907615e+00 5.0163764778871395e+04 4.2000000000000000e+03 8.6160418247018491e+00 4.0161595103799144e+00 1.8228833169773399e+01 
1203 805 2 1.7105840654397670e+00 -8.3879534638149617e+05 4.2000000000000000e+03 1.3501716920453950e+01 1.0941650219078291e+01 1.8359700795349102e+01 
1509 1111 2 1.7168584424632884e+00 -8.2514646805832058e+05 4.2000000000000000e+03 2.5423318851977341e+00 1.4657060720708488e+01 1.8100017452901181e+01 
1765 1367 2 1.7105840654397670e+00 2.7427642523769860e+05 4.2000000000000000e+03 6.4298140823169918e+00 1.4042262811227891e+01 1.7731725069147782e+01 
1588 1190 2 1.7156030734576615e+00 -5.9152958296623046e+05 4.2000000000000000e+03 1.5006811545815342e+00 1.7236969540602775e+01 1.9366910748902718e+01 
1356 958 2 1.7105840654397670e+00 5.2448169899548194e+05 4.2000000000000000e+03 7.2358719744295543e+00 1.7081340831672840e+01 1.8208780687104138e+01 
1925 1527 2 1.7105840654397670e+00 1.2731516974810683e+06 4.2000000000000000e+03 1.7522603453466534e+01 1.7443448047536538e+01 1.8766883878103616e+01 
554 156 2 1.7166759003270282e+00 7.5505039503194136e+05 4.2000000000000000e+03 2.7740636264931012e-01 1.8810647307300776e+01 1.7659906894302072e+01 
1986 1588 2 1.7105840654397670e+00 8.0352862217411771e+05 4.2000000000000000e+03 9.6903877485034666e+00 1.9037879600722317e+01 1.9305495540074073e+01 
1100 702 2 1.7105840654397670e+00 -2.0760046929265885e+06 4.2000000000000000e+03 1.8210789962273828e+00 2.7460843384268940e-01 1.9765267785898093e+01 
705 307 2 1.7105794360103153e+00 7.7058039169580082e+05 4.2000000000000000e+03 8.5897105759062402e+00 1.4973793185171216e+00 2.1148989340025061e+01 
1777 1379 2 1.7105840654397670e+00 -1.6706292911120434e+05 4.2000000000000000e+03 6.4397798509743476e-01 3.5383395200719705e+00 2.1325754676624673e+01 
548 150 2 1.7105840654397670e+00 -2.1060965158041421e+05 4.2000000000000000e+03 3.5651161525546065e+00 6.1136141117492482e+00 1.9818513626523529e+01 
614 216 2 1.7105922567143916e+00 -1.3160625014259142e+06 4.2000000000000000e+03 5.5955488916940013e+00 1.1987681897121927e+01 2.0698972685625250e+01 
584 186 2 1.7105840654397670e+00 2.8779758366759750e+05 4.2000000000000000e+03 8.1582995413252899e+00 1.0303603953861074e+01 2.0653204538213100e+01 
1868 1470 2 1.7105840654397670e+00 -5.8381279766654898e+05 4.2000000000000000e+03 1.8231449969902485e+01 1.1572715324457267e+01 2.0466395554082894e+01 
1852 1454 2 1.7105840654397670e+00 -4.0397262419119477e+05 4.2000000000000000e+03 1.2261584196464744e+01 1.2328879796151995e+01 2.1369984101948273e+01 
1443 1045 2 1.7105840654397670e+00 -2.8660284995983679e+04 4.2000000000000000e+03 1.0489233071940008e+01 1.5816611810827343e+01 1.9842346716887999e+01 
991 593 2 1.7105840654397670e+00 -5.4831222148202488e+05 4.2000000000000000e+03 1.9926723298824385e+01 1.5113343707807504e+01 2.1170683660722986e+01 
831 433 2 1.7105840654397670e+00 -1.5781233042228138e+06 4.2000000000000000e+03 1.3507485121079954e+01 1.7614687252756532e+01 1.9617655385576874e+01 
1695 1297 2 1.7116715645744294e+00 2.6036681480209134e+05 4.2000000000000000e+03 1.9265666930890344e+01 1.7648671336365394e+00 2.2300018025092115e+01 
1480 1082 2 1.7201876009480281e+00 5.3410434422734752e+05 4.2000000000000000e+03 7.3444323664148872e+00 2.9420405884002649e+00 2.3381010427584101e+01 
578 180 2 1.7105840654397670e+00 -2.3986456085483730e+05 4.2000000000000000e+03 1.1518392419114717e+01 8.1841711912224486e+00 2.3444001016019765e+01 
989 591 2 1.7105922567143916e+00 3.6742307967667648e+05 4.2000000000000000e+03 2.9337594171107959e+00 1.2070653361084016e+01 2.1964697226718137e+01 
1249 851 2 1.7209063867011676e+00 -3.1411648586474120e+05 4.2000000000000000e+03 1.3391541903232174e+01 1.3579726932282654e+00 2.5029010003298961e+01 
2036 1638 2 1.7105840654397670e+00 6.4280584270421206e+05 4.2000000000000000e+03 2.3495734723756803e+00 6.1644385015875747e+00 2.3555864759598538e+01 
1924 1526 2 1.7245894345770301e+00 1.8267528257101835e+06 4.2000000000000000e+03 5.7321746435886087e+00 8.0716771617943976e+00 2.5287434871990637e+01 
872 474 2 1.7108093597568053e+00 -1.9697681681724274e+05 4.2000000000000000e+03 1.8248401120590923e+01 1.2624306586542970e+01 2.4022225777651329e+01 
1243 845 2 1.7105841113247502e+00 -5.9421936945669493e+05 4.2000000000000000e+03 3.0227141860327027e+00 1.4793084482800577e+01 2.4631206575730541e+01 
1490 1092 2 1.7105840654397670e+00 -2.3649607266392202e+04 4.2000000000000000e+03 1.4581058581794791e+01 1.6174566799720314e+01 2.4261111333246873e+01 
2062 1664 2 1.7201922303774797e+00 -1.1696533526721413e+05 4.2000000000000000e+03 7.2073721270388216e+00 1.9561556700596217e+00 2.5734349760286204e+01 
1650 1252 2 1.7105840654397670e+00 -8.6904094385938952e+05 4.2000000000000000e+03 3.0488459093794412e-01 3.0007682487416103e+00 2.5772432474950836e+01 
1046 648 2 1.7245894345770301e+00 -1.0027789330929479e+06 4.2000000000000000e+03 8.1980010504699177e+00 7.6710579627341833e+00 2.5513115902713349e+01 
1904 1506 2 1.7105840654397670e+00 2.0733913249238458e+05 4.2000000000000000e+03 8.6304326330566514e+00 1.1016528188552153e+01 2.5497992527105410e+01 
926 528 2 1.7105841113247502e+00 -1.5004706001231389e+06 4.2000000000000000e+03 3.0012640024942625e+00 1.3642814125966595e+01 2.7394288174990290e+01 
604 206 2 1.7105840654397670e+00 8.0226066782835289e+05 4.2000000000000000e+03 1.0829379037326401e+01 1.2823723785133184e+01 2.6829535999241862e+01 
607 209 2 1.7105840654397670e+00 4.7983540193596121e+05 4.2000000000000000e+03 7.9806846070182598e+00 1.4856427004877817e+01 2.6295820534908231e+01 
1235 837 2 1.7105840654397670e+00 -1.3964840181059035e+05 4.2000000000000000e+03 4.7267746149500214e+00 1.7443199966481160e+01 2.6441182041359365e+01 
1846 1448 2 1.7105840654397670e+00 1.8322086360529680e+06 4.2000000000000000e+03 1.5241319808037368e+00 1.9828040859399913e+01 2.6952901868194193e+01 
1116 718 2 1.7105840654397670e+00 -1.5025459828321554e+05 4.2000000000000000e+03 1.1594804263829847e+01 1.8189422221135647e+01 2.6683446547379724e+01 