LAMMPS data file via write_data, version 30 Jul 2016, timestep = 50400000

4620 atoms
8 atom types

0.0000000000000000e+00 1.0000000000000000e+02 xlo xhi
0.0000000000000000e+00 4.0000000000000000e+01 ylo yhi
0.0000000000000000e+00 4.0000000000000000e+01 zlo zhi

Masses

1 3.896
2 5.36
3 20.064
4 8.378
5 8.378
6 8.378
7 8.378
8 8.378

Atoms # meso-molecular

1 2 2 1.4430888310667962e+00 -5.1521148565813651e-08 1.0000000000000000e+00 6.1836603433066086e+00 1.0000000000000000e+01 2.1836606565040446e+00 
2 3 2 1.4430888310667962e+00 -7.7281722446907805e-08 1.0000000000000000e+00 8.1920017261741727e+00 1.0000000000000000e+01 2.1836606565040446e+00 
3 4 2 1.4430888310667962e+00 -7.7281722057709189e-08 1.0000000000000000e+00 1.0193007479811328e+01 1.0000000000000000e+01 2.1836606565040446e+00 
4 5 2 1.4430888310667962e+00 -7.7281722121345636e-08 1.0000000000000000e+00 1.2193311151728171e+01 1.0000000000000000e+01 2.1836606565040446e+00 
5 6 2 1.4430888310667962e+00 -7.7281721941128617e-08 1.0000000000000000e+00 1.4193572955201047e+01 1.0000000000000000e+01 2.1836606565040446e+00 
6 7 2 1.4430888310667962e+00 -7.7281721801787780e-08 1.0000000000000000e+00 1.6194211364705417e+01 1.0000000000000000e+01 2.1836606565040446e+00 
7 8 2 1.4430888310667962e+00 -7.7281721984982107e-08 1.0000000000000000e+00 1.8195655075774031e+01 1.0000000000000000e+01 2.1836606565040446e+00 
8 9 2 1.4430888310667962e+00 -7.7281721961807550e-08 1.0000000000000000e+00 2.0198476807475870e+01 1.0000000000000000e+01 2.1836606565040446e+00 
9 10 2 1.4430888310667962e+00 -7.7281722019606722e-08 1.0000000000000000e+00 2.2203460148487043e+01 1.0000000000000000e+01 2.1836606565040446e+00 
10 11 2 1.4430888310667962e+00 -7.7281722172684065e-08 1.0000000000000000e+00 2.4211626059208506e+01 1.0000000000000000e+01 2.1836606565040446e+00 
11 12 2 1.4430888310667962e+00 -7.7281722083816492e-08 1.0000000000000000e+00 2.6224249013286812e+01 1.0000000000000000e+01 2.1836606565040446e+00 
12 13 2 1.4430888310667962e+00 -7.7281722097945597e-08 1.0000000000000000e+00 2.8242856877099072e+01 1.0000000000000000e+01 2.1836606565040446e+00 
13 14 2 1.4430888310667962e+00 -7.7281721568597743e-08 1.0000000000000000e+00 3.0269208800362133e+01 1.0000000000000000e+01 2.1836606565040446e+00 
14 15 2 1.4430888310667962e+00 -7.7281721343316387e-08 1.0000000000000000e+00 3.2305234499916587e+01 1.0000000000000000e+01 2.1836606565040446e+00 
463 464 2 1.4430888310667962e+00 -5.1521148565813651e-08 1.0000000000000000e+00 6.1836603433066086e+00 1.2199999999999999e+01 2.1836606565040446e+00 
464 465 2 1.4430888310667962e+00 -7.7281722446907805e-08 1.0000000000000000e+00 8.1920017261741727e+00 1.2199999999999999e+01 2.1836606565040446e+00 
465 466 2 1.4430888310667962e+00 -7.7281722057709189e-08 1.0000000000000000e+00 1.0193007479811328e+01 1.2199999999999999e+01 2.1836606565040446e+00 
466 467 2 1.4430888310667962e+00 -7.7281722121345636e-08 1.0000000000000000e+00 1.2193311151728171e+01 1.2199999999999999e+01 2.1836606565040446e+00 
467 468 2 1.4430888310667962e+00 -7.7281721941128617e-08 1.0000000000000000e+00 1.4193572955201047e+01 1.2199999999999999e+01 2.1836606565040446e+00 
468 469 2 1.4430888310667962e+00 -7.7281721801787780e-08 1.0000000000000000e+00 1.6194211364705417e+01 1.2199999999999999e+01 2.1836606565040446e+00 
469 470 2 1.4430888310667962e+00 -7.7281721984982107e-08 1.0000000000000000e+00 1.8195655075774031e+01 1.2199999999999999e+01 2.1836606565040446e+00 
470 471 2 1.4430888310667962e+00 -7.7281721961807550e-08 1.0000000000000000e+00 2.0198476807475870e+01 1.2199999999999999e+01 2.1836606565040446e+00 
471 472 2 1.4430888310667962e+00 -7.7281722019606722e-08 1.0000000000000000e+00 2.2203460148487043e+01 1.2199999999999999e+01 2.1836606565040446e+00 
472 473 2 1.4430888310667962e+00 -7.7281722172684065e-08 1.0000000000000000e+00 2.4211626059208506e+01 1.2199999999999999e+01 2.1836606565040446e+00 
473 474 2 1.4430888310667962e+00 -7.7281722083816492e-08 1.0000000000000000e+00 2.6224249013286812e+01 1.2199999999999999e+01 2.1836606565040446e+00 
474 475 2 1.4430888310667962e+00 -7.7281722097945597e-08 1.0000000000000000e+00 2.8242856877099072e+01 1.2199999999999999e+01 2.1836606565040446e+00 
475 476 2 1.4430888310667962e+00 -7.7281721568597743e-08 1.0000000000000000e+00 3.0269208800362133e+01 1.2199999999999999e+01 2.1836606565040446e+00 
476 477 2 1.4430888310667962e+00 -7.7281721343316387e-08 1.0000000000000000e+00 3.2305234499916587e+01 1.2199999999999999e+01 2.1836606565040446e+00 
925 926 2 1.4430888310667962e+00 -5.1521148565813651e-08 1.0000000000000000e+00 6.1836603433066086e+00 1.4400000000000000e+01 2.1836606565040446e+00 
926 927 2 1.4430888310667962e+00 -7.7281722446907805e-08 1.0000000000000000e+00 8.1920017261741727e+00 1.4400000000000000e+01 2.1836606565040446e+00 
927 928 2 1.4430888310667962e+00 -7.7281722057709189e-08 1.0000000000000000e+00 1.0193007479811328e+01 1.4400000000000000e+01 2.1836606565040446e+00 
928 929 2 1.4430888310667962e+00 -7.7281722121345636e-08 1.0000000000000000e+00 1.2193311151728171e+01 1.4400000000000000e+01 2.1836606565040446e+00 
929 930 2 1.4430888310667962e+00 -7.7281721941128617e-08 1.0000000000000000e+00 1.4193572955201047e+01 1.4400000000000000e+01 2.1836606565040446e+00 
930 931 2 1.4430888310667962e+00 -7.7281721801787780e-08 1.0000000000000000e+00 1.6194211364705417e+01 1.4400000000000000e+01 2.1836606565040446e+00 
931 932 2 1.4430888310667962e+00 -7.7281721984982107e-08 1.0000000000000000e+00 1.8195655075774031e+01 1.4400000000000000e+01 2.1836606565040446e+00 
932 933 2 1.4430888310667962e+00 -7.7281721961807550e-08 1.0000000000000000e+00 2.0198476807475870e+01 1.4400000000000000e+01 2.1836606565040446e+00 
933 934 2 1.4430888310667962e+00 -7.7281722019606722e-08 1.0000000000000000e+00 2.2203460148487043e+01 1.4400000000000000e+01 2.1836606565040446e+00 
934 935 2 1.4430888310667962e+00 -7.7281722172684065e-08 1.0000000000000000e+00 2.4211626059208506e+01 1.4400000000000000e+01 2.1836606565040446e+00 
935 936 2 1.4430888310667962e+00 -7.7281722083816492e-08 1.0000000000000000e+00 2.6224249013286812e+01 1.4400000000000000e+01 2.1836606565040446e+00 
936 937 2 1.4430888310667962e+00 -7.7281722097945597e-08 1.0000000000000000e+00 2.8242856877099072e+01 1.4400000000000000e+01 2.1836606565040446e+00 
937 938 2 1.4430888310667962e+00 -7.7281721568597743e-08 1.0000000000000000e+00 3.0269208800362133e+01 1.4400000000000000e+01 2.1836606565040446e+00 
938 939 2 1.4430888310667962e+00 -7.7281721343316387e-08 1.0000000000000000e+00 3.2305234499916587e+01 1.4400000000000000e+01 2.1836606565040446e+00 
1387 1388 2 1.4430888310667962e+00 -5.1521148565813651e-08 1.0000000000000000e+00 6.1836603433066086e+00 1.6600000000000001e+01 2.1836606565040446e+00 
1388 1389 2 1.4430888310667962e+00 -7.7281722446907805e-08 1.0000000000000000e+00 8.1920017261741727e+00 1.6600000000000001e+01 2.1836606565040446e+00 
1389 1390 2 1.4430888310667962e+00 -7.7281722057709189e-08 1.0000000000000000e+00 1.0193007479811328e+01 1.6600000000000001e+01 2.1836606565040446e+00 
1390 1391 2 1.4430888310667962e+00 -7.7281722121345636e-08 1.0000000000000000e+00 1.2193311151728171e+01 1.6600000000000001e+01 2.1836606565040446e+00 
1391 1392 2 1.4430888310667962e+00 -7.7281721941128617e-08 1.0000000000000000e+00 1.4193572955201047e+01 1.6600000000000001e+01 2.1836606565040446e+00 
1392 1393 2 1.4430888310667962e+00 -7.7281721801787780e-08 1.0000000000000000e+00 1.6194211364705417e+01 1.6600000000000001e+01 2.1836606565040446e+00 
1393 1394 2 1.4430888310667962e+00 -7.7281721984982107e-08 1.0000000000000000e+00 1.8195655075774031e+01 1.6600000000000001e+01 2.1836606565040446e+00 
1394 1395 2 1.4430888310667962e+00 -7.7281721961807550e-08 1.0000000000000000e+00 2.0198476807475870e+01 1.6600000000000001e+01 2.1836606565040446e+00 
1395 1396 2 1.4430888310667962e+00 -7.7281722019606722e-08 1.0000000000000000e+00 2.2203460148487043e+01 1.6600000000000001e+01 2.1836606565040446e+00 
1396 1397 2 1.4430888310667962e+00 -7.7281722172684065e-08 1.0000000000000000e+00 2.4211626059208506e+01 1.6600000000000001e+01 2.1836606565040446e+00 
1397 1398 2 1.4430888310667962e+00 -7.7281722083816492e-08 1.0000000000000000e+00 2.6224249013286812e+01 1.6600000000000001e+01 2.1836606565040446e+00 
1398 1399 2 1.4430888310667962e+00 -7.7281722097945597e-08 1.0000000000000000e+00 2.8242856877099072e+01 1.6600000000000001e+01 2.1836606565040446e+00 
1399 1400 2 1.4430888310667962e+00 -7.7281721568597743e-08 1.0000000000000000e+00 3.0269208800362133e+01 1.6600000000000001e+01 2.1836606565040446e+00 
1400 1401 2 1.4430888310667962e+00 -7.7281721343316387e-08 1.0000000000000000e+00 3.2305234499916587e+01 1.6600000000000001e+01 2.1836606565040446e+00 
1849 1850 2 1.4430888310667962e+00 -5.1521148565813651e-08 1.0000000000000000e+00 6.1836603433066086e+00 1.8800000000000001e+01 2.1836606565040446e+00 
1850 1851 2 1.4430888310667962e+00 -7.7281722446907805e-08 1.0000000000000000e+00 8.1920017261741727e+00 1.8800000000000001e+01 2.1836606565040446e+00 
1851 1852 2 1.4430888310667962e+00 -7.7281722057709189e-08 1.0000000000000000e+00 1.0193007479811328e+01 1.8800000000000001e+01 2.1836606565040446e+00 
1852 1853 2 1.4430888310667962e+00 -7.7281722121345636e-08 1.0000000000000000e+00 1.2193311151728171e+01 1.8800000000000001e+01 2.1836606565040446e+00 
1853 1854 2 1.4430888310667962e+00 -7.7281721941128617e-08 1.0000000000000000e+00 1.4193572955201047e+01 1.8800000000000001e+01 2.1836606565040446e+00 
1854 1855 2 1.4430888310667962e+00 -7.7281721801787780e-08 1.0000000000000000e+00 1.6194211364705417e+01 1.8800000000000001e+01 2.1836606565040446e+00 
1855 1856 2 1.4430888310667962e+00 -7.7281721984982107e-08 1.0000000000000000e+00 1.8195655075774031e+01 1.8800000000000001e+01 2.1836606565040446e+00 
1856 1857 2 1.4430888310667962e+00 -7.7281721961807550e-08 1.0000000000000000e+00 2.0198476807475870e+01 1.8800000000000001e+01 2.1836606565040446e+00 
1857 1858 2 1.4430888310667962e+00 -7.7281722019606722e-08 1.0000000000000000e+00 2.2203460148487043e+01 1.8800000000000001e+01 2.1836606565040446e+00 
1858 1859 2 1.4430888310667962e+00 -7.7281722172684065e-08 1.0000000000000000e+00 2.4211626059208506e+01 1.8800000000000001e+01 2.1836606565040446e+00 
1859 1860 2 1.4430888310667962e+00 -7.7281722083816492e-08 1.0000000000000000e+00 2.6224249013286812e+01 1.8800000000000001e+01 2.1836606565040446e+00 
1860 1861 2 1.4430888310667962e+00 -7.7281722097945597e-08 1.0000000000000000e+00 2.8242856877099072e+01 1.8800000000000001e+01 2.1836606565040446e+00 
1861 1862 2 1.4430888310667962e+00 -7.7281721568597743e-08 1.0000000000000000e+00 3.0269208800362133e+01 1.8800000000000001e+01 2.1836606565040446e+00 
1862 1863 2 1.4430888310667962e+00 -7.7281721343316387e-08 1.0000000000000000e+00 3.2305234499916587e+01 1.8800000000000001e+01 2.1836606565040446e+00 
43 44 2 1.4430888310667962e+00 -7.7281722397665836e-08 1.0000000000000000e+00 6.1836603433066086e+00 1.0000000000000000e+01 4.1958719014502099e+00 
44 45 2 1.4430888310667962e+00 -1.0304229627875863e-07 1.0000000000000000e+00 8.1920017261741727e+00 1.0000000000000000e+01 4.1958719014502099e+00 
45 46 2 1.4430888310667962e+00 -1.0304229588956190e-07 1.0000000000000000e+00 1.0193007479811328e+01 1.0000000000000000e+01 4.1958719014502099e+00 
46 47 2 1.4430888310667962e+00 -1.0304229595319758e-07 1.0000000000000000e+00 1.2193311151728171e+01 1.0000000000000000e+01 4.1958719014502099e+00 
47 48 2 1.4430888310667962e+00 -1.0304229577297821e-07 1.0000000000000000e+00 1.4193572955201047e+01 1.0000000000000000e+01 4.1958719014502099e+00 
48 49 2 1.4430888310667962e+00 -1.0304229563363948e-07 1.0000000000000000e+00 1.6194211364705417e+01 1.0000000000000000e+01 4.1958719014502099e+00 
49 50 2 1.4430888310667962e+00 -1.0304229581683546e-07 1.0000000000000000e+00 1.8195655075774031e+01 1.0000000000000000e+01 4.1958719014502099e+00 
50 51 2 1.4430888310667962e+00 -1.0304229579366034e-07 1.0000000000000000e+00 2.0198476807475870e+01 1.0000000000000000e+01 4.1958719014502099e+00 
51 52 2 1.4430888310667962e+00 -1.0304229585145921e-07 1.0000000000000000e+00 2.2203460148487043e+01 1.0000000000000000e+01 4.1958719014502099e+00 
52 53 2 1.4430888310667962e+00 -1.0304229600453633e-07 1.0000000000000000e+00 2.4211626059208506e+01 1.0000000000000000e+01 4.1958719014502099e+00 
53 54 2 1.4430888310667962e+00 -1.0304229591567023e-07 1.0000000000000000e+00 2.6224249013286812e+01 1.0000000000000000e+01 4.1958719014502099e+00 
54 55 2 1.4430888310667962e+00 -1.0304229592979549e-07 1.0000000000000000e+00 2.8242856877099072e+01 1.0000000000000000e+01 4.1958719014502099e+00 
55 56 2 1.4430888310667962e+00 -1.0304229540044921e-07 1.0000000000000000e+00 3.0269208800362133e+01 1.0000000000000000e+01 4.1958719014502099e+00 
56 57 2 1.4430888310667962e+00 -1.0304229517516757e-07 1.0000000000000000e+00 3.2305234499916587e+01 1.0000000000000000e+01 4.1958719014502099e+00 
505 506 2 1.4430888310667962e+00 -7.7281722397665836e-08 1.0000000000000000e+00 6.1836603433066086e+00 1.2199999999999999e+01 4.1958719014502099e+00 
506 507 2 1.4430888310667962e+00 -1.0304229627875863e-07 1.0000000000000000e+00 8.1920017261741727e+00 1.2199999999999999e+01 4.1958719014502099e+00 
507 508 2 1.4430888310667962e+00 -1.0304229588956190e-07 1.0000000000000000e+00 1.0193007479811328e+01 1.2199999999999999e+01 4.1958719014502099e+00 
508 509 2 1.4430888310667962e+00 -1.0304229595319758e-07 1.0000000000000000e+00 1.2193311151728171e+01 1.2199999999999999e+01 4.1958719014502099e+00 
509 510 2 1.4430888310667962e+00 -1.0304229577297821e-07 1.0000000000000000e+00 1.4193572955201047e+01 1.2199999999999999e+01 4.1958719014502099e+00 
510 511 2 1.4430888310667962e+00 -1.0304229563363948e-07 1.0000000000000000e+00 1.6194211364705417e+01 1.2199999999999999e+01 4.1958719014502099e+00 
511 512 2 1.4430888310667962e+00 -1.0304229581683546e-07 1.0000000000000000e+00 1.8195655075774031e+01 1.2199999999999999e+01 4.1958719014502099e+00 
512 513 2 1.4430888310667962e+00 -1.0304229579366034e-07 1.0000000000000000e+00 2.0198476807475870e+01 1.2199999999999999e+01 4.1958719014502099e+00 
513 514 2 1.4430888310667962e+00 -1.0304229585145921e-07 1.0000000000000000e+00 2.2203460148487043e+01 1.2199999999999999e+01 4.1958719014502099e+00 
514 515 2 1.4430888310667962e+00 -1.0304229600453633e-07 1.0000000000000000e+00 2.4211626059208506e+01 1.2199999999999999e+01 4.1958719014502099e+00 
515 516 2 1.4430888310667962e+00 -1.0304229591567023e-07 1.0000000000000000e+00 2.6224249013286812e+01 1.2199999999999999e+01 4.1958719014502099e+00 
516 517 2 1.4430888310667962e+00 -1.0304229592979549e-07 1.0000000000000000e+00 2.8242856877099072e+01 1.2199999999999999e+01 4.1958719014502099e+00 
517 518 2 1.4430888310667962e+00 -1.0304229540044921e-07 1.0000000000000000e+00 3.0269208800362133e+01 1.2199999999999999e+01 4.1958719014502099e+00 
518 519 2 1.4430888310667962e+00 -1.0304229517516757e-07 1.0000000000000000e+00 3.2305234499916587e+01 1.2199999999999999e+01 4.1958719014502099e+00 
967 968 2 1.4430888310667962e+00 -7.7281722397665836e-08 1.0000000000000000e+00 6.1836603433066086e+00 1.4400000000000000e+01 4.1958719014502099e+00 
968 969 2 1.4430888310667962e+00 -1.0304229627875863e-07 1.0000000000000000e+00 8.1920017261741727e+00 1.4400000000000000e+01 4.1958719014502099e+00 
969 970 2 1.4430888310667962e+00 -1.0304229588956190e-07 1.0000000000000000e+00 1.0193007479811328e+01 1.4400000000000000e+01 4.1958719014502099e+00 
970 971 2 1.4430888310667962e+00 -1.0304229595319758e-07 1.0000000000000000e+00 1.2193311151728171e+01 1.4400000000000000e+01 4.1958719014502099e+00 
971 972 2 1.4430888310667962e+00 -1.0304229577297821e-07 1.0000000000000000e+00 1.4193572955201047e+01 1.4400000000000000e+01 4.1958719014502099e+00 
972 973 2 1.4430888310667962e+00 -1.0304229563363948e-07 1.0000000000000000e+00 1.6194211364705417e+01 1.4400000000000000e+01 4.1958719014502099e+00 
973 974 2 1.4430888310667962e+00 -1.0304229581683546e-07 1.0000000000000000e+00 1.8195655075774031e+01 1.4400000000000000e+01 4.1958719014502099e+00 
974 975 2 1.4430888310667962e+00 -1.0304229579366034e-07 1.0000000000000000e+00 2.0198476807475870e+01 1.4400000000000000e+01 4.1958719014502099e+00 
975 976 2 1.4430888310667962e+00 -1.0304229585145921e-07 1.0000000000000000e+00 2.2203460148487043e+01 1.4400000000000000e+01 4.1958719014502099e+00 
976 977 2 1.4430888310667962e+00 -1.0304229600453633e-07 1.0000000000000000e+00 2.4211626059208506e+01 1.4400000000000000e+01 4.1958719014502099e+00 
977 978 2 1.4430888310667962e+00 -1.0304229591567023e-07 1.0000000000000000e+00 2.6224249013286812e+01 1.4400000000000000e+01 4.1958719014502099e+00 
978 979 2 1.4430888310667962e+00 -1.0304229592979549e-07 1.0000000000000000e+00 2.8242856877099072e+01 1.4400000000000000e+01 4.1958719014502099e+00 
979 980 2 1.4430888310667962e+00 -1.0304229540044921e-07 1.0000000000000000e+00 3.0269208800362133e+01 1.4400000000000000e+01 4.1958719014502099e+00 
980 981 2 1.4430888310667962e+00 -1.0304229517516757e-07 1.0000000000000000e+00 3.2305234499916587e+01 1.4400000000000000e+01 4.1958719014502099e+00 
1429 1430 2 1.4430888310667962e+00 -7.7281722397665836e-08 1.0000000000000000e+00 6.1836603433066086e+00 1.6600000000000001e+01 4.1958719014502099e+00 
1430 1431 2 1.4430888310667962e+00 -1.0304229627875863e-07 1.0000000000000000e+00 8.1920017261741727e+00 1.6600000000000001e+01 4.1958719014502099e+00 
1431 1432 2 1.4430888310667962e+00 -1.0304229588956190e-07 1.0000000000000000e+00 1.0193007479811328e+01 1.6600000000000001e+01 4.1958719014502099e+00 
1432 1433 2 1.4430888310667962e+00 -1.0304229595319758e-07 1.0000000000000000e+00 1.2193311151728171e+01 1.6600000000000001e+01 4.1958719014502099e+00 
1433 1434 2 1.4430888310667962e+00 -1.0304229577297821e-07 1.0000000000000000e+00 1.4193572955201047e+01 1.6600000000000001e+01 4.1958719014502099e+00 
1434 1435 2 1.4430888310667962e+00 -1.0304229563363948e-07 1.0000000000000000e+00 1.6194211364705417e+01 1.6600000000000001e+01 4.1958719014502099e+00 
1435 1436 2 1.4430888310667962e+00 -1.0304229581683546e-07 1.0000000000000000e+00 1.8195655075774031e+01 1.6600000000000001e+01 4.1958719014502099e+00 
1436 1437 2 1.4430888310667962e+00 -1.0304229579366034e-07 1.0000000000000000e+00 2.0198476807475870e+01 1.6600000000000001e+01 4.1958719014502099e+00 
1437 1438 2 1.4430888310667962e+00 -1.0304229585145921e-07 1.0000000000000000e+00 2.2203460148487043e+01 1.6600000000000001e+01 4.1958719014502099e+00 
1438 1439 2 1.4430888310667962e+00 -1.0304229600453633e-07 1.0000000000000000e+00 2.4211626059208506e+01 1.6600000000000001e+01 4.1958719014502099e+00 
1439 1440 2 1.4430888310667962e+00 -1.0304229591567023e-07 1.0000000000000000e+00 2.6224249013286812e+01 1.6600000000000001e+01 4.1958719014502099e+00 
1440 1441 2 1.4430888310667962e+00 -1.0304229592979549e-07 1.0000000000000000e+00 2.8242856877099072e+01 1.6600000000000001e+01 4.1958719014502099e+00 
1441 1442 2 1.4430888310667962e+00 -1.0304229540044921e-07 1.0000000000000000e+00 3.0269208800362133e+01 1.6600000000000001e+01 4.1958719014502099e+00 
1442 1443 2 1.4430888310667962e+00 -1.0304229517516757e-07 1.0000000000000000e+00 3.2305234499916587e+01 1.6600000000000001e+01 4.1958719014502099e+00 
1891 1892 2 1.4430888310667962e+00 -7.7281722397665836e-08 1.0000000000000000e+00 6.1836603433066086e+00 1.8800000000000001e+01 4.1958719014502099e+00 
1892 1893 2 1.4430888310667962e+00 -1.0304229627875863e-07 1.0000000000000000e+00 8.1920017261741727e+00 1.8800000000000001e+01 4.1958719014502099e+00 
1893 1894 2 1.4430888310667962e+00 -1.0304229588956190e-07 1.0000000000000000e+00 1.0193007479811328e+01 1.8800000000000001e+01 4.1958719014502099e+00 
1894 1895 2 1.4430888310667962e+00 -1.0304229595319758e-07 1.0000000000000000e+00 1.2193311151728171e+01 1.8800000000000001e+01 4.1958719014502099e+00 
1895 1896 2 1.4430888310667962e+00 -1.0304229577297821e-07 1.0000000000000000e+00 1.4193572955201047e+01 1.8800000000000001e+01 4.1958719014502099e+00 
1896 1897 2 1.4430888310667962e+00 -1.0304229563363948e-07 1.0000000000000000e+00 1.6194211364705417e+01 1.8800000000000001e+01 4.1958719014502099e+00 
1897 1898 2 1.4430888310667962e+00 -1.0304229581683546e-07 1.0000000000000000e+00 1.8195655075774031e+01 1.8800000000000001e+01 4.1958719014502099e+00 
1898 1899 2 1.4430888310667962e+00 -1.0304229579366034e-07 1.0000000000000000e+00 2.0198476807475870e+01 1.8800000000000001e+01 4.1958719014502099e+00 
1899 1900 2 1.4430888310667962e+00 -1.0304229585145921e-07 1.0000000000000000e+00 2.2203460148487043e+01 1.8800000000000001e+01 4.1958719014502099e+00 
1900 1901 2 1.4430888310667962e+00 -1.0304229600453633e-07 1.0000000000000000e+00 2.4211626059208506e+01 1.8800000000000001e+01 4.1958719014502099e+00 
1901 1902 2 1.4430888310667962e+00 -1.0304229591567023e-07 1.0000000000000000e+00 2.6224249013286812e+01 1.8800000000000001e+01 4.1958719014502099e+00 
1902 1903 2 1.4430888310667962e+00 -1.0304229592979549e-07 1.0000000000000000e+00 2.8242856877099072e+01 1.8800000000000001e+01 4.1958719014502099e+00 
1903 1904 2 1.4430888310667962e+00 -1.0304229540044921e-07 1.0000000000000000e+00 3.0269208800362133e+01 1.8800000000000001e+01 4.1958719014502099e+00 
1904 1905 2 1.4430888310667962e+00 -1.0304229517516757e-07 1.0000000000000000e+00 3.2305234499916587e+01 1.8800000000000001e+01 4.1958719014502099e+00 
85 86 2 1.4430888310667962e+00 -7.7281721930833951e-08 1.0000000000000000e+00 6.1836603433066086e+00 1.0000000000000000e+01 6.2365896765192135e+00 
86 87 2 1.4430888310667962e+00 -1.0304229581192739e-07 1.0000000000000000e+00 8.1920017261741727e+00 1.0000000000000000e+01 6.2365896765192135e+00 
87 88 2 1.4430888310667962e+00 -1.0304229542273243e-07 1.0000000000000000e+00 1.0193007479811328e+01 1.0000000000000000e+01 6.2365896765192135e+00 
88 89 2 1.4430888310667962e+00 -1.0304229548636898e-07 1.0000000000000000e+00 1.2193311151728171e+01 1.0000000000000000e+01 6.2365896765192135e+00 
89 90 2 1.4430888310667962e+00 -1.0304229530614823e-07 1.0000000000000000e+00 1.4193572955201047e+01 1.0000000000000000e+01 6.2365896765192135e+00 
90 91 2 1.4430888310667962e+00 -1.0304229516680899e-07 1.0000000000000000e+00 1.6194211364705417e+01 1.0000000000000000e+01 6.2365896765192135e+00 
91 92 2 1.4430888310667962e+00 -1.0304229535000360e-07 1.0000000000000000e+00 1.8195655075774031e+01 1.0000000000000000e+01 6.2365896765192135e+00 
92 93 2 1.4430888310667962e+00 -1.0304229532682866e-07 1.0000000000000000e+00 2.0198476807475870e+01 1.0000000000000000e+01 6.2365896765192135e+00 
93 94 2 1.4430888310667962e+00 -1.0304229538462865e-07 1.0000000000000000e+00 2.2203460148487043e+01 1.0000000000000000e+01 6.2365896765192135e+00 
94 95 2 1.4430888310667962e+00 -1.0304229553770619e-07 1.0000000000000000e+00 2.4211626059208506e+01 1.0000000000000000e+01 6.2365896765192135e+00 
95 96 2 1.4430888310667962e+00 -1.0304229544883923e-07 1.0000000000000000e+00 2.6224249013286812e+01 1.0000000000000000e+01 6.2365896765192135e+00 
96 97 2 1.4430888310667962e+00 -1.0304229546296594e-07 1.0000000000000000e+00 2.8242856877099072e+01 1.0000000000000000e+01 6.2365896765192135e+00 
97 98 2 1.4430888310667962e+00 -1.0304229493361831e-07 1.0000000000000000e+00 3.0269208800362133e+01 1.0000000000000000e+01 6.2365896765192135e+00 
98 99 2 1.4430888310667962e+00 -1.0304229470833789e-07 1.0000000000000000e+00 3.2305234499916587e+01 1.0000000000000000e+01 6.2365896765192135e+00 
547 548 2 1.4430888310667962e+00 -7.7281721930833951e-08 1.0000000000000000e+00 6.1836603433066086e+00 1.2199999999999999e+01 6.2365896765192135e+00 
548 549 2 1.4430888310667962e+00 -1.0304229581192739e-07 1.0000000000000000e+00 8.1920017261741727e+00 1.2199999999999999e+01 6.2365896765192135e+00 
549 550 2 1.4430888310667962e+00 -1.0304229542273243e-07 1.0000000000000000e+00 1.0193007479811328e+01 1.2199999999999999e+01 6.2365896765192135e+00 
550 551 2 1.4430888310667962e+00 -1.0304229548636898e-07 1.0000000000000000e+00 1.2193311151728171e+01 1.2199999999999999e+01 6.2365896765192135e+00 
551 552 2 1.4430888310667962e+00 -1.0304229530614823e-07 1.0000000000000000e+00 1.4193572955201047e+01 1.2199999999999999e+01 6.2365896765192135e+00 
552 553 2 1.4430888310667962e+00 -1.0304229516680899e-07 1.0000000000000000e+00 1.6194211364705417e+01 1.2199999999999999e+01 6.2365896765192135e+00 
553 554 2 1.4430888310667962e+00 -1.0304229535000360e-07 1.0000000000000000e+00 1.8195655075774031e+01 1.2199999999999999e+01 6.2365896765192135e+00 
554 555 2 1.4430888310667962e+00 -1.0304229532682866e-07 1.0000000000000000e+00 2.0198476807475870e+01 1.2199999999999999e+01 6.2365896765192135e+00 
555 556 2 1.4430888310667962e+00 -1.0304229538462865e-07 1.0000000000000000e+00 2.2203460148487043e+01 1.2199999999999999e+01 6.2365896765192135e+00 
556 557 2 1.4430888310667962e+00 -1.0304229553770619e-07 1.0000000000000000e+00 2.4211626059208506e+01 1.2199999999999999e+01 6.2365896765192135e+00 
557 558 2 1.4430888310667962e+00 -1.0304229544883923e-07 1.0000000000000000e+00 2.6224249013286812e+01 1.2199999999999999e+01 6.2365896765192135e+00 
558 559 2 1.4430888310667962e+00 -1.0304229546296594e-07 1.0000000000000000e+00 2.8242856877099072e+01 1.2199999999999999e+01 6.2365896765192135e+00 
559 560 2 1.4430888310667962e+00 -1.0304229493361831e-07 1.0000000000000000e+00 3.0269208800362133e+01 1.2199999999999999e+01 6.2365896765192135e+00 
560 561 2 1.4430888310667962e+00 -1.0304229470833789e-07 1.0000000000000000e+00 3.2305234499916587e+01 1.2199999999999999e+01 6.2365896765192135e+00 
1009 1010 2 1.4430888310667962e+00 -7.7281721930833951e-08 1.0000000000000000e+00 6.1836603433066086e+00 1.4400000000000000e+01 6.2365896765192135e+00 
1010 1011 2 1.4430888310667962e+00 -1.0304229581192739e-07 1.0000000000000000e+00 8.1920017261741727e+00 1.4400000000000000e+01 6.2365896765192135e+00 
1011 1012 2 1.4430888310667962e+00 -1.0304229542273243e-07 1.0000000000000000e+00 1.0193007479811328e+01 1.4400000000000000e+01 6.2365896765192135e+00 
1012 1013 2 1.4430888310667962e+00 -1.0304229548636898e-07 1.0000000000000000e+00 1.2193311151728171e+01 1.4400000000000000e+01 6.2365896765192135e+00 
1013 1014 2 1.4430888310667962e+00 -1.0304229530614823e-07 1.0000000000000000e+00 1.4193572955201047e+01 1.4400000000000000e+01 6.2365896765192135e+00 
1014 1015 2 1.4430888310667962e+00 -1.0304229516680899e-07 1.0000000000000000e+00 1.6194211364705417e+01 1.4400000000000000e+01 6.2365896765192135e+00 
1015 1016 2 1.4430888310667962e+00 -1.0304229535000360e-07 1.0000000000000000e+00 1.8195655075774031e+01 1.4400000000000000e+01 6.2365896765192135e+00 
1016 1017 2 1.4430888310667962e+00 -1.0304229532682866e-07 1.0000000000000000e+00 2.0198476807475870e+01 1.4400000000000000e+01 6.2365896765192135e+00 
1017 1018 2 1.4430888310667962e+00 -1.0304229538462865e-07 1.0000000000000000e+00 2.2203460148487043e+01 1.4400000000000000e+01 6.2365896765192135e+00 
1018 1019 2 1.4430888310667962e+00 -1.0304229553770619e-07 1.0000000000000000e+00 2.4211626059208506e+01 1.4400000000000000e+01 6.2365896765192135e+00 
1019 1020 2 1.4430888310667962e+00 -1.0304229544883923e-07 1.0000000000000000e+00 2.6224249013286812e+01 1.4400000000000000e+01 6.2365896765192135e+00 
1020 1021 2 1.4430888310667962e+00 -1.0304229546296594e-07 1.0000000000000000e+00 2.8242856877099072e+01 1.4400000000000000e+01 6.2365896765192135e+00 
1021 1022 2 1.4430888310667962e+00 -1.0304229493361831e-07 1.0000000000000000e+00 3.0269208800362133e+01 1.4400000000000000e+01 6.2365896765192135e+00 
1022 1023 2 1.4430888310667962e+00 -1.0304229470833789e-07 1.0000000000000000e+00 3.2305234499916587e+01 1.4400000000000000e+01 6.2365896765192135e+00 
1471 1472 2 1.4430888310667962e+00 -7.7281721930833951e-08 1.0000000000000000e+00 6.1836603433066086e+00 1.6600000000000001e+01 6.2365896765192135e+00 
1472 1473 2 1.4430888310667962e+00 -1.0304229581192739e-07 1.0000000000000000e+00 8.1920017261741727e+00 1.6600000000000001e+01 6.2365896765192135e+00 
1473 1474 2 1.4430888310667962e+00 -1.0304229542273243e-07 1.0000000000000000e+00 1.0193007479811328e+01 1.6600000000000001e+01 6.2365896765192135e+00 
1474 1475 2 1.4430888310667962e+00 -1.0304229548636898e-07 1.0000000000000000e+00 1.2193311151728171e+01 1.6600000000000001e+01 6.2365896765192135e+00 
1475 1476 2 1.4430888310667962e+00 -1.0304229530614823e-07 1.0000000000000000e+00 1.4193572955201047e+01 1.6600000000000001e+01 6.2365896765192135e+00 
1476 1477 2 1.4430888310667962e+00 -1.0304229516680899e-07 1.0000000000000000e+00 1.6194211364705417e+01 1.6600000000000001e+01 6.2365896765192135e+00 
1477 1478 2 1.4430888310667962e+00 -1.0304229535000360e-07 1.0000000000000000e+00 1.8195655075774031e+01 1.6600000000000001e+01 6.2365896765192135e+00 
1478 1479 2 1.4430888310667962e+00 -1.0304229532682866e-07 1.0000000000000000e+00 2.0198476807475870e+01 1.6600000000000001e+01 6.2365896765192135e+00 
1479 1480 2 1.4430888310667962e+00 -1.0304229538462865e-07 1.0000000000000000e+00 2.2203460148487043e+01 1.6600000000000001e+01 6.2365896765192135e+00 
1480 1481 2 1.4430888310667962e+00 -1.0304229553770619e-07 1.0000000000000000e+00 2.4211626059208506e+01 1.6600000000000001e+01 6.2365896765192135e+00 
1481 1482 2 1.4430888310667962e+00 -1.0304229544883923e-07 1.0000000000000000e+00 2.6224249013286812e+01 1.6600000000000001e+01 6.2365896765192135e+00 
1482 1483 2 1.4430888310667962e+00 -1.0304229546296594e-07 1.0000000000000000e+00 2.8242856877099072e+01 1.6600000000000001e+01 6.2365896765192135e+00 
1483 1484 2 1.4430888310667962e+00 -1.0304229493361831e-07 1.0000000000000000e+00 3.0269208800362133e+01 1.6600000000000001e+01 6.2365896765192135e+00 
1484 1485 2 1.4430888310667962e+00 -1.0304229470833789e-07 1.0000000000000000e+00 3.2305234499916587e+01 1.6600000000000001e+01 6.2365896765192135e+00 
1933 1934 2 1.4430888310667962e+00 -7.7281721930833951e-08 1.0000000000000000e+00 6.1836603433066086e+00 1.8800000000000001e+01 6.2365896765192135e+00 