LAMMPS data file via write_data, version 30 Jul 2016, timestep = 50400000

180 atoms
2 atom types

0.0000000000000000e+00 2.0000000000000000e+01 xlo xhi
0.0000000000000000e+00 2.0000000000000000e+01 ylo yhi
0.0000000000000000e+00 2.0000000000000000e+01 zlo zhi

Masses

1 3.896
2 4.31

Atoms # meso-molecular

111 1 2 1.0280000000085008e+00 -1.6767843313179459e+05 1.0000000000000000e+00 2.7159010787460236e+00 3.4760449448464930e+00 3.3160903359495619e+00 
169 1 2 1.0280000000084721e+00 -1.7584202365328648e+05 1.0000000000000000e+00 2.7159058511909744e+00 3.4760457899921797e+00 3.3160954551176904e+00 
7 1 2 1.0279999999781977e+00 -1.0886285400202185e+05 1.0000000000000000e+00 2.7169666162860970e+00 3.4780414213719566e+00 3.3194781751336850e+00 
133 1 2 1.0279999999828975e+00 -1.6627262671150916e+05 1.0000000000000000e+00 2.7171039358902629e+00 3.4776450646389412e+00 3.3191002699600007e+00 
154 1 2 1.0279999999935914e+00 -1.1608923620889983e+05 1.0000000000000000e+00 2.7171256624308708e+00 3.4768276776456362e+00 3.3180984807572229e+00 
13 1 2 1.0279999999781975e+00 -1.0773969220302434e+05 1.0000000000000000e+00 2.7169666473728311e+00 3.4780413719209684e+00 3.3194781391247203e+00 
82 1 2 1.0279999999775036e+00 -1.5982965388585007e+05 1.0000000000000000e+00 2.7139273136053910e+00 3.4789193800670910e+00 3.3180923031805380e+00 
168 1 2 1.0279999996457243e+00 -1.4891360578090162e+05 1.0000000000000000e+00 3.5861905146332735e+00 6.0348800750633771e+00 1.0401694372562915e+00 
123 1 2 1.0279999994579758e+00 -1.7382940259411075e+05 1.0000000000000000e+00 4.0813310672229450e+00 5.4614474177007928e+00 1.3408325120590712e+00 
56 1 2 1.0279999996236688e+00 -1.5798010754297487e+05 1.0000000000000000e+00 4.0987570858902558e+00 5.8155374019566342e+00 1.6127490291712414e+00 
99 1 2 1.0279999997355578e+00 -2.1103125821862166e+05 1.0000000000000000e+00 4.2516126687827525e+00 5.7748233849838826e+00 1.6431477643626220e+00 
104 1 2 1.0279999997355527e+00 -1.8321784936167291e+05 1.0000000000000000e+00 4.2516158449572865e+00 5.7748213437246054e+00 1.6431475526460404e+00 
134 1 2 1.0279999997355564e+00 -1.7121238897565272e+05 1.0000000000000000e+00 4.2516142426010433e+00 5.7748223735220821e+00 1.6431476594582748e+00 
31 1 2 1.0280000003183776e+00 -1.6828636995019525e+05 1.0000000000000000e+00 5.6482590438387250e+00 6.8570088346616824e+00 2.4450185338106739e-01 
1 1 2 1.0280000003183722e+00 -2.0672754427970480e+05 1.0000000000000000e+00 5.6482590095191485e+00 6.8570088451067663e+00 2.4450192270170612e-01 
2 1 2 1.0280000003183800e+00 -1.5679745059921587e+05 1.0000000000000000e+00 5.6482590122185128e+00 6.8570088442580053e+00 2.4450191737680552e-01 
175 1 2 1.0280000003193677e+00 -1.8333862777635056e+05 1.0000000000000000e+00 5.6473301654498078e+00 6.8572926804154433e+00 2.4637015936944931e-01 
53 1 2 1.0280000003141501e+00 -1.4107592415529577e+05 1.0000000000000000e+00 5.6521027720160859e+00 6.8558405494652144e+00 2.3668680501572781e-01 
28 1 2 1.0279999963976842e+00 -1.5421846182796956e+05 1.0000000000000000e+00 6.5014155339982187e+00 4.2928230772975056e+00 6.6786358596459561e+00 
141 1 2 1.0279999963977886e+00 -1.4871176448627043e+05 1.0000000000000000e+00 6.5013151402313412e+00 4.2927553120665829e+00 6.6787534246679687e+00 
97 1 2 1.0279999963994773e+00 -1.7015640819002339e+05 1.0000000000000000e+00 6.5017176741464660e+00 4.2930734860704867e+00 6.6780584581153510e+00 
118 1 2 1.0279999963976443e+00 -1.4228608100863284e+05 1.0000000000000000e+00 6.5014125153311015e+00 4.2928199482684732e+00 6.6786449515349169e+00 
68 1 2 1.0279999963976851e+00 -1.3072491239672252e+05 1.0000000000000000e+00 6.5014155335550319e+00 4.2928230765832538e+00 6.6786358622823645e+00 
87 1 2 1.0279999963976603e+00 -1.2760401389854378e+05 1.0000000000000000e+00 6.5014147548458459e+00 4.2928218555874995e+00 6.6786403213492020e+00 
19 1 2 1.0279999963976598e+00 -2.0569870194019447e+05 1.0000000000000000e+00 6.5014147407816507e+00 4.2928218415447912e+00 6.6786403609712917e+00 
44 1 2 1.0279999998667824e+00 -1.6066532055392486e+05 1.0000000000000000e+00 6.1745996867865900e+00 7.2209550052326428e+00 8.8775947423440744e+00 
102 1 2 1.0279999996056697e+00 -1.4930605978109862e+05 1.0000000000000000e+00 6.1001593399131941e+00 7.1822695981754148e+00 8.6798833072625214e+00 
152 1 2 1.0279999982153016e+00 -1.5733742795515200e+05 1.0000000000000000e+00 6.0771126939229552e+00 7.0899100475172556e+00 8.3864401579908261e+00 
98 1 2 1.0280000018373552e+00 -2.2009534680184786e+05 1.0000000000000000e+00 5.0254608959688944e+00 7.1928627814130515e+00 6.9847595921544618e+00 
9 1 2 1.0280000018373356e+00 -1.3009961401889300e+05 1.0000000000000000e+00 5.0254775970291963e+00 7.1928706401040134e+00 6.9847487016908243e+00 
8 1 2 1.0280000018373456e+00 -1.3434812325789107e+05 1.0000000000000000e+00 5.0254775970376695e+00 7.1928706401083327e+00 6.9847487016854553e+00 
3 1 2 1.0280000018373368e+00 -1.2664296923155093e+05 1.0000000000000000e+00 5.0254775969614540e+00 7.1928706400711686e+00 6.9847487017347172e+00 
122 1 2 1.0280000018384838e+00 -1.7244759283173230e+05 1.0000000000000000e+00 5.0244698692447631e+00 7.1924118700199182e+00 6.9854130120247957e+00 
127 1 2 1.0280000018383468e+00 -1.6525191834055918e+05 1.0000000000000000e+00 5.0245859425966346e+00 7.1924631335726055e+00 6.9853357560787197e+00 
167 1 2 1.0279999976720737e+00 -1.9952699099436062e+05 1.0000000000000000e+00 3.7248567840121187e+00 6.4069530410023798e+00 1.3083574497146049e+01 
57 1 2 1.0279999976715144e+00 -1.2674382164283354e+05 1.0000000000000000e+00 3.7248481873133317e+00 6.4069585293457783e+00 1.3083599550618159e+01 
23 1 2 1.0279999976705951e+00 -7.3530555857636951e+04 1.0000000000000000e+00 3.7248339660648804e+00 6.4069674905137202e+00 1.3083641009114670e+01 
136 1 2 1.0279999976699910e+00 -1.3991476078150235e+05 1.0000000000000000e+00 3.7247321200188992e+00 6.4067546840840386e+00 1.3083925260604447e+01 
84 1 2 1.0279999976591767e+00 -1.5591203387244249e+05 1.0000000000000000e+00 3.7246158980763435e+00 6.4069756369967195e+00 1.3084273090159201e+01 
43 1 2 1.0279999976128442e+00 -1.7838202651409304e+05 1.0000000000000000e+00 3.7239437732454301e+00 6.4074558251192064e+00 1.3086279914450223e+01 
143 1 2 1.0280000005160757e+00 -1.2622931562396587e+05 1.0000000000000000e+00 5.7275342526037472e+00 8.2615135422919384e+00 1.0070993336437351e+01 
128 1 2 1.0280000005438286e+00 -1.4675853647745363e+05 1.0000000000000000e+00 5.7276328078342820e+00 8.2727082323190402e+00 1.0086754360483381e+01 
164 1 2 1.0280000005438343e+00 -1.7506908732925873e+05 1.0000000000000000e+00 5.7276328082961125e+00 8.2727082283257118e+00 1.0086754353838161e+01 
159 1 2 1.0280000005438332e+00 -1.2935634005692620e+05 1.0000000000000000e+00 5.7276328082135741e+00 8.2727082290409921e+00 1.0086754355028084e+01 
163 1 2 1.0280000026362008e+00 -1.6389006814172052e+05 1.0000000000000000e+00 5.5972501946238644e+00 7.2705504044541547e+00 1.1618937115091963e+01 
17 1 2 1.0280000023959697e+00 -1.3751448163649737e+05 1.0000000000000000e+00 5.0906035821129842e+00 7.1816453116836048e+00 1.2290551239664385e+01 
10 1 2 1.0279999953890266e+00 -1.8325211269798389e+05 1.0000000000000000e+00 3.5042629686569010e-01 3.0192532710027131e+00 1.5632091514190630e+01 
64 1 2 1.0280000006959753e+00 -1.3292044194774245e+05 1.0000000000000000e+00 5.8482227617530891e-01 3.1001566615039549e+00 1.4610733423114930e+01 
71 1 2 1.0279999993967264e+00 -1.8235669839545715e+05 1.0000000000000000e+00 1.2021740134235555e+00 3.1678084310202581e+00 1.6022029189182678e+01 
160 1 2 1.0279999993946491e+00 -1.6747690151034115e+05 1.0000000000000000e+00 1.2015704340031468e+00 3.1676745020478254e+00 1.6022108732711619e+01 
41 1 2 1.0279999993929494e+00 -1.6819274641412476e+05 1.0000000000000000e+00 1.2006487543513971e+00 3.1671911705333113e+00 1.6022110641049874e+01 
47 1 2 1.0279999993924211e+00 -1.4855163458506833e+05 1.0000000000000000e+00 1.2006714567401258e+00 3.1673054085132404e+00 1.6022154110972590e+01 
166 1 2 1.0279999993922724e+00 -1.5534622242538224e+05 1.0000000000000000e+00 1.2005273882591407e+00 3.1672252975475992e+00 1.6022152347814028e+01 
132 1 2 1.0280000042598261e+00 -1.8051221015226736e+05 1.0000000000000000e+00 1.6114841076262112e+00 4.5942405129500745e+00 1.3827623450733762e+01 
14 1 2 1.0280000029802741e+00 -1.5072621977211096e+05 1.0000000000000000e+00 1.5674144611313969e+00 4.6081873492429475e+00 1.3827679250619346e+01 
26 1 2 1.0280000028567438e+00 -2.1940907938258187e+05 1.0000000000000000e+00 1.5629938848788898e+00 4.6092919438551236e+00 1.3827764663386576e+01 
52 1 2 1.0280000015738617e+00 -1.3826236825918974e+05 1.0000000000000000e+00 1.5130654357235849e+00 4.6169879927204027e+00 1.3828709159811893e+01 
165 1 2 1.0280000044325130e+00 -1.3496364432169177e+05 1.0000000000000000e+00 2.0346410728676187e+00 4.2707030401062891e+00 1.4263589315590595e+01 
50 1 2 1.0279999947802405e+00 -1.1843845665649795e+05 1.0000000000000000e+00 1.0286001577578781e+00 4.6495281119847016e+00 1.3939337386784233e+01 
42 1 2 1.0279999958264485e+00 -1.7593123858635739e+05 1.0000000000000000e+00 5.2993454152507846e+00 6.1869327307097732e+00 1.5964932808204617e+01 
103 1 2 1.0279999982999446e+00 -1.1138923834127584e+05 1.0000000000000000e+00 4.9880954628853917e+00 5.8866561481416158e+00 1.6278885411658194e+01 
158 1 2 1.0280000031088878e+00 -1.5912634541677660e+05 1.0000000000000000e+00 5.5902646062795460e+00 5.9260498474308836e+00 1.6268504877523082e+01 
96 1 2 1.0280000021926758e+00 -1.5161311210070559e+05 1.0000000000000000e+00 5.7314351625417963e+00 5.9717714728191238e+00 1.6641057036349494e+01 
110 1 2 1.0279999988855244e+00 -1.0726103165152553e+05 1.0000000000000000e+00 6.2563625950163297e+00 7.1009382915272781e+00 1.4264746198843767e+01 
145 1 2 1.0279999988851789e+00 -1.3511462814528114e+05 1.0000000000000000e+00 6.2563213315284329e+00 7.1009321614074263e+00 1.4264781466458373e+01 
115 1 2 1.0279999988852755e+00 -1.3335125853061178e+05 1.0000000000000000e+00 6.2563302167355861e+00 7.1009367743914318e+00 1.4264772144428033e+01 
151 1 2 1.0279999988836777e+00 -1.2413760520140690e+05 1.0000000000000000e+00 6.2561501447199985e+00 7.1008972658346066e+00 1.4264932732750140e+01 
109 1 2 1.0279999988839204e+00 -1.2494044001836394e+05 1.0000000000000000e+00 6.2561767033588618e+00 7.1009071282118112e+00 1.4264906930718118e+01 
174 1 2 1.0279999998778495e+00 -1.6853629295848275e+05 1.0000000000000000e+00 3.1205015084477887e+00 6.1072078402183863e+00 1.8910671920590520e+01 
79 1 2 1.0279999998771920e+00 -1.3254074198851344e+05 1.0000000000000000e+00 3.1195928000745727e+00 6.1057728763858572e+00 1.8910922938994180e+01 
129 1 2 1.0279999998771339e+00 -1.4800195786261352e+05 1.0000000000000000e+00 3.1195129927025405e+00 6.1056483631891014e+00 1.8910929811785415e+01 
172 1 2 1.0279999998768572e+00 -1.1363186325737328e+05 1.0000000000000000e+00 3.1190527700246449e+00 6.1049336583962193e+00 1.8910934037698180e+01 
173 1 2 1.0279999996908207e+00 -1.7672659275526067e+05 1.0000000000000000e+00 3.4354807325404195e+00 5.1431153736560997e+00 1.8151567168217007e+01 
171 1 2 1.0279999996908178e+00 -1.7925618715352376e+05 1.0000000000000000e+00 3.4354765902957896e+00 5.1431170817351459e+00 1.8151560835823847e+01 
170 1 2 1.0279999996909741e+00 -1.5620120723562443e+05 1.0000000000000000e+00 3.4355331123996415e+00 5.1430937831830894e+00 1.8151647136579903e+01 
67 1 2 1.0279999990090969e+00 -1.2601219589296424e+05 1.0000000000000000e+00 4.0696143437482322e+00 5.5394152823356029e+00 1.6912723819125610e+01 
38 1 2 1.0279999989758311e+00 -1.3002706195813365e+05 1.0000000000000000e+00 4.2569542763525750e+00 5.6081119551669572e+00 1.6774499674475628e+01 
179 1 2 1.0279999998934437e+00 -1.9027163027266192e+05 1.0000000000000000e+00 5.7249099331256534e+00 6.1528905426638980e+00 1.7180157447842205e+01 
55 1 2 1.0279999989825495e+00 -1.1402914523877246e+05 1.0000000000000000e+00 6.5025283805699532e+00 6.4737696198571326e+00 1.8154266159707127e+01 
49 1 2 1.0279999989825259e+00 -1.2030090581200748e+05 1.0000000000000000e+00 6.5025272205642892e+00 6.4737689213441181e+00 1.8154266501600024e+01 
125 1 2 1.0279999974784619e+00 -1.6913238733624271e+05 1.0000000000000000e+00 8.3090462890949812e+00 6.3706067054852200e+00 9.9202419763857712e+00 
83 1 2 1.0279999973074878e+00 -1.5793634021514765e+05 1.0000000000000000e+00 8.5998720029244371e+00 6.4125694756756255e+00 9.9207830810971256e+00 
176 1 2 1.0280000031777838e+00 -1.1988276490375963e+05 1.0000000000000000e+00 8.9740453826585416e+00 7.1082543764462480e+00 8.6519014762200523e+00 
80 1 2 1.0280000031777954e+00 -1.4935283613374445e+05 1.0000000000000000e+00 8.9740454426792375e+00 7.1082543269935643e+00 8.6519014798241081e+00 
140 1 2 1.0280000031777856e+00 -1.1992006993189646e+05 1.0000000000000000e+00 8.9740453827119904e+00 7.1082543764071460e+00 8.6519014762252535e+00 
101 1 2 1.0280000012965758e+00 -1.4270582527919885e+05 1.0000000000000000e+00 9.3033738298924114e+00 6.8768398190738580e+00 8.8125285682441721e+00 
144 1 2 1.0280000031777721e+00 -1.6771252102364571e+05 1.0000000000000000e+00 8.9740453887135114e+00 7.1082543714586963e+00 8.6519014765841096e+00 
153 1 2 1.0279999961096462e+00 -1.1822049320095415e+05 1.0000000000000000e+00 8.2330311951524173e+00 6.5189645276417627e+00 1.0137727849062269e+01 
59 1 2 1.0279999960669093e+00 -9.3420902329323450e+04 1.0000000000000000e+00 8.2276416803350685e+00 6.5231815790753878e+00 1.0143872807960113e+01 
90 1 2 1.0279999990713167e+00 -1.1865605409932317e+05 1.0000000000000000e+00 7.2894236959783276e+00 7.1323268568144265e+00 1.2395529656647204e+01 
89 1 2 1.0279999990715516e+00 -1.4831639242758683e+05 1.0000000000000000e+00 7.2894171073897729e+00 7.1323560384682656e+00 1.2395651187275408e+01 
11 1 2 1.0279999990715778e+00 -1.8807592998287364e+05 1.0000000000000000e+00 7.2894168007728206e+00 7.1323579265461055e+00 1.2395658572923503e+01 
92 1 2 1.0280000012430468e+00 -1.4442352582080144e+05 1.0000000000000000e+00 7.0342092855928913e+00 8.7017510230491109e+00 1.1621749385706471e+01 
85 1 2 1.0280000012176840e+00 -1.6591104941849838e+05 1.0000000000000000e+00 7.0267291346564207e+00 8.7084678700598239e+00 1.1608150589275942e+01 
121 1 2 1.0280000012177590e+00 -1.6303559820262840e+05 1.0000000000000000e+00 7.0267460560772079e+00 8.7084520635960132e+00 1.1608184982633365e+01 
161 1 2 1.0280000011305053e+00 -1.8359994318106154e+05 1.0000000000000000e+00 7.0035040933931674e+00 8.7286711211036057e+00 1.1563891089249669e+01 
86 1 2 1.0279999968218094e+00 -1.5513222053963720e+05 1.0000000000000000e+00 1.1704126677481369e+01 7.9251867916689065e+00 1.0280438480416096e+01 
58 1 2 1.0279999968207143e+00 -1.6867076422883413e+05 1.0000000000000000e+00 1.1704160497752870e+01 7.9251602458887049e+00 1.0280394429331631e+01 
15 1 2 1.0279999968207136e+00 -1.4331264262309263e+05 1.0000000000000000e+00 1.1704160497760517e+01 7.9251602458055581e+00 1.0280394429371899e+01 
22 1 2 1.0279999968206897e+00 -1.5148891584779235e+05 1.0000000000000000e+00 1.1704160036513636e+01 7.9251594391492297e+00 1.0280395791348921e+01 
24 1 2 1.0279999968207132e+00 -1.4713764624734491e+05 1.0000000000000000e+00 1.1704160497913646e+01 7.9251602450414493e+00 1.0280394429591418e+01 
137 1 2 1.0279999968207212e+00 -1.2701247129604674e+05 1.0000000000000000e+00 1.1704160577811255e+01 7.9251606835359922e+00 1.0280393999193503e+01 
108 1 2 1.0279999968207154e+00 -1.3316355221292927e+05 1.0000000000000000e+00 1.1704160477177210e+01 7.9251603664469794e+00 1.0280394388195260e+01 
81 1 2 1.0280000001195413e+00 -1.3343206888241024e+05 1.0000000000000000e+00 8.6520326279087509e+00 5.8535159620125583e+00 1.9053382620637922e+01 
70 1 2 1.0280000001195555e+00 -1.8569378712588371e+05 1.0000000000000000e+00 8.6520184610861577e+00 5.8535018196867998e+00 1.9053391865716002e+01 
29 1 2 1.0280000001195775e+00 -7.2984073047951781e+04 1.0000000000000000e+00 8.6520358766900500e+00 5.8535192051457168e+00 1.9053380500016406e+01 
45 1 2 1.0280000001195380e+00 -1.4175133449507051e+05 1.0000000000000000e+00 8.6520326279003026e+00 5.8535159620040478e+00 1.9053382620643308e+01 
76 1 2 1.0280000000604765e+00 -1.4997036135507538e+05 1.0000000000000000e+00 8.3023889787826093e+00 5.6354006452369942e+00 1.9088172631979518e+01 
138 1 2 1.0280000001853613e+00 -1.7196609422839759e+05 1.0000000000000000e+00 7.6462565522729431e+00 6.9863984333123090e+00 1.8394850868294252e+01 
69 1 2 1.0280000001843619e+00 -1.7674201460439235e+05 1.0000000000000000e+00 8.3490646630030305e+00 6.8418492991121767e+00 1.8595143021220725e+01 
66 1 2 1.0280000001404270e+00 -1.2581246661131657e+05 1.0000000000000000e+00 7.9031386232084371e+00 7.0850247540783338e+00 1.9050028471329046e+01 
37 1 2 1.0279999987097890e+00 -1.3396332834366371e+05 1.0000000000000000e+00 1.4397876077112594e+01 7.4455992294061888e+00 9.6273336603412396e-01 
51 1 2 1.0279999986793877e+00 -1.2191000151814969e+05 1.0000000000000000e+00 1.4363537099504347e+01 7.4442388225126184e+00 9.8979403154986334e-01 
119 1 2 1.0279999986794937e+00 -1.5232098146623920e+05 1.0000000000000000e+00 1.4363271019316045e+01 7.4442149668208728e+00 9.8997769186786355e-01 
94 1 2 1.0279999986788317e+00 -1.4731053061851239e+05 1.0000000000000000e+00 1.4362740825103405e+01 7.4442577617240655e+00 9.9030036007691347e-01 
95 1 2 1.0279999986864179e+00 -1.6011821871385796e+05 1.0000000000000000e+00 1.4348774785982821e+01 7.4433634374724367e+00 9.9908093481588600e-01 
162 1 2 1.0280000004959204e+00 -1.8514967805725086e+05 1.0000000000000000e+00 1.3947529247174304e+01 7.1709007247242731e+00 8.7248151861409806e-01 
39 1 2 1.0280000009170815e+00 -1.9846356988614594e+05 1.0000000000000000e+00 1.4774940509515677e+01 8.5565022702891476e+00 3.9623352638061147e+00 
75 1 2 1.0280000009170820e+00 -1.8569187804394367e+05 1.0000000000000000e+00 1.4774940520210805e+01 8.5565022478022303e+00 3.9623352705227748e+00 
135 1 2 1.0280000006594783e+00 -1.4670605691021643e+05 1.0000000000000000e+00 1.4771651342942345e+01 8.5671530786115930e+00 3.9581923898798710e+00 
54 1 2 1.0280000010301995e+00 -1.5960397476762824e+05 1.0000000000000000e+00 1.4775564779552084e+01 8.5515402755616776e+00 3.9639379961905337e+00 
105 1 2 1.0280000009170815e+00 -1.7693701878206327e+05 1.0000000000000000e+00 1.4774940520104586e+01 8.5565022480102115e+00 3.9623352704617392e+00 
40 1 2 1.0280000009169925e+00 -1.2861561006251149e+05 1.0000000000000000e+00 1.4774938780387885e+01 8.5565062582296481e+00 3.9623340477332207e+00 
116 1 2 1.0280000009170815e+00 -1.7644875044123307e+05 1.0000000000000000e+00 1.4774940510915251e+01 8.5565022673073603e+00 3.9623352646995089e+00 
100 1 2 1.0280000009634362e+00 -1.3740228770018806e+05 1.0000000000000000e+00 1.5857947233520353e+01 4.3250071250397175e+00 1.2616395769394366e+01 
73 1 2 1.0280000009634227e+00 -1.1995000686872196e+05 1.0000000000000000e+00 1.5857947300055471e+01 4.3250071754185715e+00 1.2616395737523570e+01 
34 1 2 1.0280000009633739e+00 -1.5740233250305109e+05 1.0000000000000000e+00 1.5857978097440816e+01 4.3249891291660880e+00 1.2616412555407091e+01 
142 1 2 1.0280000009636505e+00 -1.5611838428555476e+05 1.0000000000000000e+00 1.5857955601473877e+01 4.3250401924740398e+00 1.2616371362126847e+01 
4 1 2 1.0279999966466298e+00 -2.0186836837698749e+05 1.0000000000000000e+00 1.5421743485083557e+01 4.1956870058989137e+00 1.2956381339564809e+01 
5 1 2 1.0279999966599733e+00 -1.8744036154689925e+05 1.0000000000000000e+00 1.5234070398864327e+01 4.3950107149595095e+00 1.3152028685125053e+01 
32 1 2 1.0280000015764592e+00 -1.3436794753502824e+05 1.0000000000000000e+00 1.5225447425699739e+01 1.6631155824688011e+00 1.4427709880515408e+01 
177 1 2 1.0279999981432311e+00 -1.2803527071662042e+05 1.0000000000000000e+00 1.6239575970750352e+01 1.7767579729853631e+00 1.4574004640573083e+01 
6 1 2 1.0279999994927767e+00 -1.4873489265693372e+05 1.0000000000000000e+00 1.4156439621099814e+01 2.0017409061551192e+00 1.4733688651835180e+01 
35 1 2 1.0279999994928455e+00 -1.0931892751280620e+05 1.0000000000000000e+00 1.4156440061853337e+01 2.0017363000350668e+00 1.4733690505820405e+01 
124 1 2 1.0279999994927016e+00 -1.4797537554274348e+05 1.0000000000000000e+00 1.4156439110347002e+01 2.0017470499626557e+00 1.4733686458291062e+01 
12 1 2 1.0279999994927880e+00 -1.4858530918008034e+05 1.0000000000000000e+00 1.4156439621102892e+01 2.0017409061225089e+00 1.4733688651847899e+01 
72 1 2 1.0279999994928308e+00 -1.2821810093834114e+05 1.0000000000000000e+00 1.4156439943580947e+01 2.0017374803502666e+00 1.4733690011434042e+01 
36 1 2 1.0279999994928422e+00 -1.1913836253050128e+05 1.0000000000000000e+00 1.4156440054763609e+01 2.0017363697665917e+00 1.4733690476242046e+01 
147 1 2 1.0279999979315178e+00 -1.8354146893589039e+05 1.0000000000000000e+00 1.7243700169704887e+01 1.4165485393615689e+00 1.4518943380514857e+01 
112 1 2 1.0279999979315675e+00 -1.8930162061762798e+05 1.0000000000000000e+00 1.7243677630947360e+01 1.4165356537637201e+00 1.4518993622428095e+01 
117 1 2 1.0279999982999732e+00 -1.8376358670925302e+05 1.0000000000000000e+00 1.7523911635334954e+01 1.4101834288985546e+00 1.4739971142201684e+01 
131 1 2 1.0280000026014819e+00 -1.5376626290730998e+05 1.0000000000000000e+00 1.8094728547477683e+01 2.0611025522669135e+00 1.4630494507744432e+01 
148 1 2 1.0280000027685174e+00 -1.2771846979700756e+05 1.0000000000000000e+00 1.8106146617407500e+01 2.0541877389162471e+00 1.4721654865331288e+01 
149 1 2 1.0280000027685210e+00 -1.3866585726792688e+05 1.0000000000000000e+00 1.8106146617403351e+01 2.0541877388865579e+00 1.4721654865438911e+01 
155 1 2 1.0280000027685263e+00 -1.3454353691107818e+05 1.0000000000000000e+00 1.8106146617407056e+01 2.0541877389116086e+00 1.4721654865341998e+01 
30 1 2 1.0279999990299362e+00 -1.3285860328259028e+05 1.0000000000000000e+00 1.6386647814507395e+01 5.8740021801144477e+00 1.3529793980812615e+01 
139 1 2 1.0279999990251827e+00 -1.8133283889843701e+05 1.0000000000000000e+00 1.6386085931497359e+01 5.8749990319164880e+00 1.3531604763100008e+01 
46 1 2 1.0279999989949757e+00 -1.3527797908967620e+05 1.0000000000000000e+00 1.6382456284582318e+01 5.8813297144774381e+00 1.3543210211482936e+01 
146 1 2 1.0279999987584214e+00 -1.7635525257037909e+05 1.0000000000000000e+00 1.5334930478437776e+01 6.0507746442864958e+00 1.4833613848030691e+01 
48 1 2 1.0280000000000162e+00 -1.9305860959215160e+05 1.0000000000000000e+00 1.5424352741116511e+01 6.0695407811822308e+00 1.4504476749367997e+01 
62 1 2 1.0280000008800987e+00 -1.7499246913526481e+05 1.0000000000000000e+00 1.4710758532863027e+01 6.2308675594742144e+00 1.5965759845692260e+01 
74 1 2 1.0279999993229054e+00 -1.1227202135956350e+05 1.0000000000000000e+00 1.4790200163042419e+01 6.2542188432992374e+00 1.5973055817145607e+01 
61 1 2 1.0279999986840220e+00 -1.9776916419823753e+05 1.0000000000000000e+00 1.4804550460519286e+01 6.2632324551020293e+00 1.5974002089842015e+01 
60 1 2 1.0279999966782691e+00 -1.6470332689667298e+05 1.0000000000000000e+00 1.4838273624529325e+01 6.2921882249841623e+00 1.5982985807284226e+01 
20 1 2 1.0279999991692812e+00 -1.8453021582225373e+05 1.0000000000000000e+00 1.4471974681221582e+01 6.1613272080028558e+00 1.6301107156329063e+01 
78 1 2 1.0279999911592654e+00 -1.3772184691991479e+05 1.0000000000000000e+00 1.8659918214359074e+01 5.2758423517776389e+00 1.4951461138178537e+01 
150 1 2 1.0279999911592859e+00 -1.8861635638613836e+05 1.0000000000000000e+00 1.8659918194235797e+01 5.2758423707612438e+00 1.4951461086418016e+01 
113 1 2 1.0279999911592872e+00 -2.1448698472728638e+05 1.0000000000000000e+00 1.8659918220692983e+01 5.2758423466766535e+00 1.4951461139334285e+01 
114 1 2 1.0279999911592752e+00 -1.6455472444107986e+05 1.0000000000000000e+00 1.8659918215415374e+01 5.2758423506994125e+00 1.4951461142309226e+01 
107 1 2 1.0280000012769319e+00 -1.5620987684735659e+05 1.0000000000000000e+00 1.7900966995393727e+01 4.9503514509439883e+00 1.5264612762156219e+01 
106 1 2 1.0280000019442321e+00 -1.4060745868803567e+05 1.0000000000000000e+00 1.7953666964306944e+01 4.9445720459842475e+00 1.5280335337718027e+01 
77 1 2 1.0280000024661218e+00 -1.3919349104874511e+05 1.0000000000000000e+00 1.8028368448722073e+01 4.9492818501719125e+00 1.5302431266785735e+01 
88 1 2 1.0280000017446240e+00 -1.3604148941351313e+05 1.0000000000000000e+00 1.4465135734676128e+01 9.5062009025970990e+00 1.7107506998187613e+01 
25 1 2 1.0280000015066737e+00 -1.4627512650930812e+05 1.0000000000000000e+00 1.4164468320961443e+01 6.9397798962753763e+00 1.8351400431452110e+01 
120 1 2 1.0279999968387010e+00 -9.5807768371630838e+04 1.0000000000000000e+00 1.4133747645445869e+01 8.8620323376017858e+00 1.7011185517041728e+01 
126 1 2 1.0279999971877676e+00 -9.1960841714587761e+04 1.0000000000000000e+00 1.4132235074246537e+01 8.8632436657113747e+00 1.7013992851808680e+01 
65 1 2 1.0280000012865047e+00 -2.0355915460254846e+05 1.0000000000000000e+00 1.3815889872782606e+01 6.8555011043187308e+00 1.9404916487958634e+01 
157 1 2 1.0280000009560972e+00 -1.6504945430010953e+05 1.0000000000000000e+00 1.3831726561105528e+01 6.8126756430184976e+00 1.9643288009586282e+01 
130 1 2 1.0280000003707304e+00 -1.2564732963804112e+05 1.0000000000000000e+00 1.3385835609965310e+01 7.4724938038130562e+00 1.7758287041035366e+01 
18 1 2 1.0280000001981620e+00 -1.6735691654470566e+05 1.0000000000000000e+00 1.3384879887956338e+01 6.9068060661481008e+00 1.7755696960586011e+01 
33 1 2 1.0280000000605847e+00 -1.5640655708721187e+05 1.0000000000000000e+00 1.3335817778648050e+01 7.0971630848717888e+00 1.7726928946443159e+01 
178 1 2 1.0280000000605829e+00 -1.1097841184524435e+05 1.0000000000000000e+00 1.3335822377800667e+01 7.0971200252046929e+00 1.7726929749357915e+01 
21 1 2 1.0279999996055502e+00 -1.1800037540884597e+05 1.0000000000000000e+00 1.3428559027696437e+01 1.0683109087197495e+01 1.5785488334588500e+01 
63 1 2 1.0279999996061029e+00 -9.6959128260092912e+04 1.0000000000000000e+00 1.3428078000887266e+01 1.0681912892562247e+01 1.5785129857213059e+01 
93 1 2 1.0279999996049893e+00 -1.5348899386045407e+05 1.0000000000000000e+00 1.3427116316524376e+01 1.0683178026064574e+01 1.5786935217784640e+01 
91 1 2 1.0279999996042872e+00 -1.7225862579967975e+05 1.0000000000000000e+00 1.3425820864490877e+01 1.0683631591712825e+01 1.5788516048314351e+01 
27 1 2 1.0279999996043889e+00 -1.0651667667958319e+05 1.0000000000000000e+00 1.3424970961050359e+01 1.0683014710455812e+01 1.5788921144404584e+01 
16 1 2 1.0280000006190719e+00 -1.1696729449818292e+05 1.0000000000000000e+00 1.4719302431060225e+01 1.0482368182622130e+01 1.6648491787719294e+01 
156 1 2 1.0280000008401009e+00 -1.3061814552842133e+05 1.0000000000000000e+00 1.4655012519259936e+01 1.0300931790997382e+01 1.6935171483157468e+01 
180 1 2 1.0280000008400565e+00 -1.6721564032463779e+05 1.0000000000000000e+00 1.4654360948697457e+01 1.0301047471676577e+01 1.6935995435826541e+01 

Velocities

111 1.5246234182842075e-01 -1.4541488965275348e-01 -3.1479162171955005e-01
169 1.5246234190521318e-01 -1.4541488951898077e-01 -3.1479162182392251e-01
7 1.5246242501029594e-01 -1.4541475750745411e-01 -3.1479173661287696e-01
133 1.5246241138346514e-01 -1.4541477721118723e-01 -3.1479171811477308e-01
154 1.5246238147900876e-01 -1.4541482316132939e-01 -3.1479167682713560e-01
13 1.5246242500869728e-01 -1.4541475750964702e-01 -3.1479173661079002e-01
82 1.5246243803606002e-01 -1.4541475705070550e-01 -3.1479173599272553e-01
168 1.5251590080473354e-01 -1.4554955522673826e-01 -3.1492625988518747e-01
123 1.5249235265631428e-01 -1.4552169965554532e-01 -3.1491859455089705e-01
56 1.5249114799824787e-01 -1.4554007497552970e-01 -3.1492572083936793e-01
99 1.5248519776605970e-01 -1.4553933943239034e-01 -3.1492350631133575e-01
104 1.5248519766204871e-01 -1.4553933938171285e-01 -3.1492350624053506e-01
134 1.5248519771453672e-01 -1.4553933940742098e-01 -3.1492350627550947e-01
31 1.5250026766659275e-01 -1.4556042957753773e-01 -3.1493098176191403e-01
1 1.5250026766745706e-01 -1.4556042957401116e-01 -3.1493098175873935e-01
2 1.5250026766613006e-01 -1.4556042957621601e-01 -3.1493098175966711e-01
175 1.5250025526159391e-01 -1.4556038911274791e-01 -3.1493091551623842e-01
53 1.5250031766035582e-01 -1.4556059899126866e-01 -3.1493125768634717e-01
28 1.5399832921003093e-01 -1.4688885113203970e-01 -3.1450838120305435e-01
141 1.5399837680582923e-01 -1.4688881941929899e-01 -3.1450843659764732e-01
97 1.5399819253644337e-01 -1.4688898423958138e-01 -3.1450811320066596e-01
118 1.5399833048748793e-01 -1.4688884929439089e-01 -3.1450838539350323e-01
68 1.5399832921022821e-01 -1.4688885113167047e-01 -3.1450838120428098e-01
87 1.5399832948139727e-01 -1.4688885032226220e-01 -3.1450838324569552e-01
19 1.5399832948750078e-01 -1.4688885031429535e-01 -3.1450838326400760e-01
44 1.5360872526141836e-01 -1.4676930970392862e-01 -3.1468563308851266e-01
102 1.5364101601316663e-01 -1.4680040486814086e-01 -3.1467782563482544e-01
152 1.5367625079004998e-01 -1.4684026778617296e-01 -3.1466788340528840e-01
98 1.5376825739567340e-01 -1.4698063644046902e-01 -3.1476248189837580e-01
9 1.5376826131830884e-01 -1.4698063498661845e-01 -3.1476248377949079e-01
8 1.5376826131918897e-01 -1.4698063498704089e-01 -3.1476248377843907e-01
3 1.5376826131851667e-01 -1.4698063498673081e-01 -3.1476248377922245e-01
122 1.5376802348609578e-01 -1.4698071881405061e-01 -3.1476236949446490e-01
127 1.5376805100155036e-01 -1.4698070955955642e-01 -3.1476238273406865e-01
167 1.5226788313045544e-01 -1.4500465738002075e-01 -3.1511150712792046e-01
57 1.5226788834104793e-01 -1.4500465657269238e-01 -3.1511151082954775e-01
23 1.5226789692607295e-01 -1.4500465518925826e-01 -3.1511151697662410e-01
136 1.5226786294968023e-01 -1.4500453021913332e-01 -3.1511160494922658e-01
84 1.5226798484359844e-01 -1.4500458034371333e-01 -3.1511163226511535e-01
43 1.5226842576548882e-01 -1.4500454087735781e-01 -3.1511192450921943e-01
143 1.5337929498579567e-01 -1.4649793819982507e-01 -3.1484647242527142e-01
128 1.5337647236185858e-01 -1.4649455417924589e-01 -3.1484744063765358e-01