LAMMPS data file via write_data, version 30 Jul 2016, timestep = 50000000

180 atoms
2 atom types

0.0000000000000000e+00 2.0000000000000000e+01 xlo xhi
0.0000000000000000e+00 2.0000000000000000e+01 ylo yhi
0.0000000000000000e+00 2.0000000000000000e+01 zlo zhi

Masses

1 3.896
2 4.31

Atoms # meso-molecular

101 1 2 1.0280000015189712e+00 -1.4270582527919885e+05 1.0000000000000000e+00 3.1536022763061875e+00 1.2756347266802196e+01 1.3904520098377642e+00 
125 1 2 1.0279999971311935e+00 -1.6913238733624271e+05 1.0000000000000000e+00 2.1680485578052426e+00 1.2239793140759064e+01 2.5008129421504255e+00 
83 1 2 1.0279999969230122e+00 -1.5793634021514765e+05 1.0000000000000000e+00 2.4595567042340178e+00 1.2283024082520102e+01 2.5009196339052995e+00 
176 1 2 1.0280000035972976e+00 -1.1988276490375963e+05 1.0000000000000000e+00 2.8264254766116572e+00 1.2984528422699386e+01 1.2337791145137080e+00 
80 1 2 1.0280000035972900e+00 -1.4935283613374445e+05 1.0000000000000000e+00 2.8264255359798027e+00 1.2984528374071077e+01 1.2337791178208786e+00 
140 1 2 1.0280000035972972e+00 -1.1992006993189646e+05 1.0000000000000000e+00 2.8264254766641739e+00 1.2984528422660668e+01 1.2337791145183690e+00 
144 1 2 1.0280000035973007e+00 -1.6771252102364571e+05 1.0000000000000000e+00 2.8264254826004596e+00 1.2984528417794623e+01 1.2337791148476001e+00 
153 1 2 1.0279999955930690e+00 -1.1822049320095415e+05 1.0000000000000000e+00 2.0927830148177309e+00 1.2386632949212185e+01 2.7214733665747604e+00 
59 1 2 1.0279999955457226e+00 -9.3420902329323450e+04 1.0000000000000000e+00 2.0874050648477342e+00 1.2390795159832887e+01 2.7277255033212859e+00 
44 1 2 1.0280000000889560e+00 -1.6066532055392486e+05 1.0000000000000000e+00 2.5998960246920111e-02 1.3096513249402916e+01 1.4641112880919278e+00 
108 1 2 1.0279999964376734e+00 -1.3316355221292927e+05 1.0000000000000000e+00 5.5475867949634718e+00 1.3830710268882411e+01 2.8581474300333429e+00 
58 1 2 1.0279999964376747e+00 -1.6867076422883413e+05 1.0000000000000000e+00 5.5475868168786828e+00 1.3830710146534953e+01 2.8581474723865727e+00 
86 1 2 1.0279999964389550e+00 -1.5513222053963720e+05 1.0000000000000000e+00 5.5475521587262993e+00 1.3830737062369382e+01 2.8581921664995065e+00 
15 1 2 1.0279999964376747e+00 -1.4331264262309263e+05 1.0000000000000000e+00 5.5475868168871001e+00 1.3830710146450528e+01 2.8581474724279534e+00 
24 1 2 1.0279999964376743e+00 -1.4713764624734491e+05 1.0000000000000000e+00 5.5475868170491633e+00 1.3830710145675143e+01 2.8581474726543910e+00 
22 1 2 1.0279999964376485e+00 -1.5148891584779235e+05 1.0000000000000000e+00 5.5475863535046042e+00 1.3830709327334112e+01 2.8581488611968835e+00 
137 1 2 1.0279999964376869e+00 -1.2701247129604674e+05 1.0000000000000000e+00 5.5475868949417730e+00 1.3830710590803676e+01 2.8581470330117149e+00 
90 1 2 1.0279999989156245e+00 -1.1865605409932317e+05 1.0000000000000000e+00 1.1639860916262037e+00 1.2983433094661768e+01 4.9883626855557202e+00 
11 1 2 1.0279999989159205e+00 -1.8807592998287364e+05 1.0000000000000000e+00 1.1639799111626516e+00 1.2983463730104310e+01 4.9884916979047969e+00 
89 1 2 1.0279999989158874e+00 -1.4831639242758683e+05 1.0000000000000000e+00 1.1639801773791929e+00 1.2983461865819169e+01 4.9884843068503910e+00 
92 1 2 1.0280000014138226e+00 -1.4442352582080144e+05 1.0000000000000000e+00 8.9878681123193671e-01 1.4556387825752884e+01 4.2127705660049966e+00 
121 1 2 1.0280000013847115e+00 -1.6303559820262840e+05 1.0000000000000000e+00 8.9131042018445306e-01 1.4563135845041144e+01 4.1992557085977165e+00 
85 1 2 1.0280000013846353e+00 -1.6591104941849838e+05 1.0000000000000000e+00 8.9129345974086849e-01 1.4563151784324127e+01 4.1992214417570946e+00 
161 1 2 1.0280000012843513e+00 -1.8359994318106154e+05 1.0000000000000000e+00 8.6802113741378595e-01 1.4583525782563029e+01 4.1551201880559372e+00 
110 1 2 1.0279999986400967e+00 -1.0726103165152553e+05 1.0000000000000000e+00 1.4882732489492365e-01 1.2936104236090115e+01 6.8643419745161864e+00 
145 1 2 1.0279999986397406e+00 -1.3511462814528114e+05 1.0000000000000000e+00 1.4878632310285031e-01 1.2936097922060068e+01 6.8643776531092859e+00 
115 1 2 1.0279999986398396e+00 -1.3335125853061178e+05 1.0000000000000000e+00 1.4879513008953002e-01 1.2936102599799652e+01 6.8643682222744511e+00 
109 1 2 1.0279999986385087e+00 -1.2494044001836394e+05 1.0000000000000000e+00 1.4864263532446348e-01 1.2936072217291171e+01 6.8645045797589557e+00 
151 1 2 1.0279999986382580e+00 -1.2413760520140690e+05 1.0000000000000000e+00 1.4861628428890997e-01 1.2936062191370949e+01 6.8645306828282919e+00 
81 1 2 1.0280000001712011e+00 -1.3343206888241024e+05 1.0000000000000000e+00 2.5527275098187454e+00 1.1677802375817210e+01 1.1649556679790720e+01 
70 1 2 1.0280000001711951e+00 -1.8569378712588371e+05 1.0000000000000000e+00 2.5527133553574499e+00 1.1677788237473736e+01 1.1649565922246204e+01 
45 1 2 1.0280000001712122e+00 -1.4175133449507051e+05 1.0000000000000000e+00 2.5527275098103459e+00 1.1677802375808890e+01 1.1649556679796225e+01 
29 1 2 1.0280000001712200e+00 -7.2984073047951781e+04 1.0000000000000000e+00 2.5527307557651762e+00 1.1677805618037175e+01 1.1649554559771085e+01 
76 1 2 1.0280000000895730e+00 -1.4997036135507538e+05 1.0000000000000000e+00 2.2032422017017570e+00 1.1459688516439998e+01 1.1684401358635981e+01 
69 1 2 1.0280000001982561e+00 -1.7674201460439235e+05 1.0000000000000000e+00 2.2496855312102650e+00 1.2665548587485850e+01 1.1191656698937527e+01 
138 1 2 1.0280000002012650e+00 -1.7196609422839759e+05 1.0000000000000000e+00 1.5466853888120220e+00 1.2810067243718285e+01 1.0991487671774541e+01 
66 1 2 1.0280000001144565e+00 -1.2581246661131657e+05 1.0000000000000000e+00 1.8037896992685543e+00 1.2908658603802731e+01 1.1646452251237429e+01 
55 1 2 1.0279999988768023e+00 -1.1402914523877246e+05 1.0000000000000000e+00 4.0168827604785001e-01 1.2297877250988455e+01 1.0750685132363282e+01 
49 1 2 1.0279999988768138e+00 -1.2030090581200748e+05 1.0000000000000000e+00 4.0168711325989293e-01 1.2297876552128104e+01 1.0750685472072094e+01 
97 1 2 1.0279999959915078e+00 -1.7015640819002339e+05 1.0000000000000000e+00 3.3658647265797198e-01 1.0173631537755316e+01 1.9257322015206093e+01 
19 1 2 1.0279999959896013e+00 -2.0569870194019447e+05 1.0000000000000000e+00 3.3627769158375936e-01 1.0173374196768098e+01 1.9257915435509283e+01 
118 1 2 1.0279999959895871e+00 -1.4228608100863284e+05 1.0000000000000000e+00 3.3627542342976496e-01 1.0173372260115467e+01 1.9257920116888613e+01 
68 1 2 1.0279999959896375e+00 -1.3072491239672252e+05 1.0000000000000000e+00 3.3627849620912365e-01 1.0173375466645613e+01 1.9257910849011285e+01 
87 1 2 1.0279999959896056e+00 -1.2760401389854378e+05 1.0000000000000000e+00 3.3627770590518880e-01 1.0173374211156807e+01 1.9257915395107595e+01 
28 1 2 1.0279999959896389e+00 -1.5421846182796956e+05 1.0000000000000000e+00 3.3627849665871956e-01 1.0173375467380160e+01 1.9257910846323565e+01 
141 1 2 1.0279999959897939e+00 -1.4871176448627043e+05 1.0000000000000000e+00 3.3617607075518541e-01 1.0173306355744915e+01 1.9258030774710072e+01 
4 1 2 1.0279999964590281e+00 -2.0186836837698749e+05 1.0000000000000000e+00 9.4179362612748072e+00 9.8397668009876238e+00 5.6186165095412939e+00 
100 1 2 1.0280000009297685e+00 -1.3740228770018806e+05 1.0000000000000000e+00 9.8559062202701995e+00 9.9716937863493165e+00 5.2804989338940906e+00 
73 1 2 1.0280000009297694e+00 -1.1995000686872196e+05 1.0000000000000000e+00 9.8559062864620799e+00 9.9716938368614159e+00 5.2804989024289526e+00 
34 1 2 1.0280000009297086e+00 -1.5740233250305109e+05 1.0000000000000000e+00 9.8559370101002202e+00 9.9716758838243695e+00 5.2805156563412181e+00 
142 1 2 1.0280000009299890e+00 -1.5611838428555476e+05 1.0000000000000000e+00 9.8559144897954489e+00 9.9717268501378911e+00 5.2804747402510133e+00 
32 1 2 1.0280000017061379e+00 -1.3436794753502824e+05 1.0000000000000000e+00 9.2333886019421278e+00 7.3210473217476419e+00 7.0975976928816067e+00 
6 1 2 1.0279999994598434e+00 -1.4873489265693372e+05 1.0000000000000000e+00 8.1633692811728142e+00 7.6550678461848367e+00 7.4047032191167368e+00 
35 1 2 1.0279999994599092e+00 -1.0931892751280620e+05 1.0000000000000000e+00 8.1633697625030717e+00 7.6550632376356900e+00 7.4047050655175797e+00 
124 1 2 1.0279999994597706e+00 -1.4797537554274348e+05 1.0000000000000000e+00 8.1633687177057546e+00 7.6550739934914462e+00 7.4047010359251750e+00 
12 1 2 1.0279999994598386e+00 -1.4858530918008034e+05 1.0000000000000000e+00 8.1633692811760792e+00 7.6550678461521722e+00 7.4047032191294111e+00 
72 1 2 1.0279999994598943e+00 -1.2821810093834114e+05 1.0000000000000000e+00 8.1633696337354369e+00 7.6550644185556020e+00 7.4047045730578382e+00 
36 1 2 1.0279999994599085e+00 -1.1913836253050128e+05 1.0000000000000000e+00 8.1633697547913133e+00 7.6550633074029122e+00 7.4047050360522517e+00 
177 1 2 1.0279999980412433e+00 -1.2803527071662042e+05 1.0000000000000000e+00 1.0249871768238433e+01 7.4387465496830183e+00 7.2412923393794095e+00 
147 1 2 1.0279999977915963e+00 -1.8354146893589039e+05 1.0000000000000000e+00 1.1255940604283266e+01 7.0835082370705251e+00 7.1836606007272268e+00 
112 1 2 1.0279999977916403e+00 -1.8930162061762798e+05 1.0000000000000000e+00 1.1255918012883638e+01 7.0834952516730620e+00 7.1837111723349709e+00 
131 1 2 1.0280000027343921e+00 -1.5376626290730998e+05 1.0000000000000000e+00 1.2101755786222251e+01 7.7328065153965122e+00 7.2939054281057025e+00 
148 1 2 1.0280000029241376e+00 -1.2771846979700756e+05 1.0000000000000000e+00 1.2113013830692289e+01 7.7261466130742553e+00 7.3841759771801838e+00 
149 1 2 1.0280000029241241e+00 -1.3866585726792688e+05 1.0000000000000000e+00 1.2113013830688667e+01 7.7261466130448628e+00 7.3841759772868887e+00 
155 1 2 1.0280000029241272e+00 -1.3454353691107818e+05 1.0000000000000000e+00 1.2113013830692035e+01 7.7261466130696563e+00 7.3841759771909095e+00 
117 1 2 1.0279999982490784e+00 -1.8376358670925302e+05 1.0000000000000000e+00 1.1536508333317427e+01 7.0787642344733719e+00 7.4051828982076131e+00 
5 1 2 1.0279999963827606e+00 -1.8744036154689925e+05 1.0000000000000000e+00 9.2283598691899957e+00 1.0039484392987323e+01 5.8156253847489650e+00 
139 1 2 1.0279999990430271e+00 -1.8133283889843701e+05 1.0000000000000000e+00 1.0379558224165939e+01 1.1525929865152905e+01 6.1936676458252258e+00 
30 1 2 1.0279999990473638e+00 -1.3285860328259028e+05 1.0000000000000000e+00 1.0380121926637699e+01 1.1524930290404603e+01 6.1918498354983127e+00 
46 1 2 1.0279999990153283e+00 -1.3527797908967620e+05 1.0000000000000000e+00 1.0375916916823059e+01 1.1532277093872892e+01 6.2053189744502824e+00 
48 1 2 1.0280000000064815e+00 -1.9305860959215160e+05 1.0000000000000000e+00 9.4200319199796372e+00 1.1705009866822548e+01 7.1747565338554660e+00 
146 1 2 1.0279999990059252e+00 -1.7635525257037909e+05 1.0000000000000000e+00 9.3306390540681754e+00 1.1683100103486247e+01 7.5056443077434229e+00 
62 1 2 1.0280000009292993e+00 -1.7499246913526481e+05 1.0000000000000000e+00 8.7085141217553499e+00 1.1844409894586619e+01 8.6461250726992027e+00 
74 1 2 1.0279999993584459e+00 -1.1227202135956350e+05 1.0000000000000000e+00 8.7880965519847472e+00 1.1867578267317745e+01 8.6531162963216399e+00 
61 1 2 1.0279999987035893e+00 -1.9776916419823753e+05 1.0000000000000000e+00 8.8025911390473723e+00 1.1876492036874463e+01 8.6540057878258239e+00 
60 1 2 1.0279999966006352e+00 -1.6470332689667298e+05 1.0000000000000000e+00 8.8369821019735415e+00 1.1905194198889289e+01 8.6629239755441336e+00 
20 1 2 1.0279999992679167e+00 -1.8453021582225373e+05 1.0000000000000000e+00 8.4693869344216388e+00 1.1770001911343703e+01 8.9832882440109110e+00 
150 1 2 1.0279999907612678e+00 -1.8861635638613836e+05 1.0000000000000000e+00 1.2656170506728603e+01 1.0963138679965375e+01 7.6113347264412781e+00 
78 1 2 1.0279999907612865e+00 -1.3772184691991479e+05 1.0000000000000000e+00 1.2656170527256746e+01 1.0963138661113330e+01 7.6113347797177333e+00 
114 1 2 1.0279999907612785e+00 -1.6455472444107986e+05 1.0000000000000000e+00 1.2656170528327605e+01 1.0963138660034870e+01 7.6113347839730539e+00 
113 1 2 1.0279999907612767e+00 -2.1448698472728638e+05 1.0000000000000000e+00 1.2656170533790108e+01 1.0963138656131907e+01 7.6113347808658851e+00 
107 1 2 1.0280000015569146e+00 -1.5620987684735659e+05 1.0000000000000000e+00 1.1888702637366862e+01 1.0620930534708107e+01 7.9279167522305176e+00 
106 1 2 1.0280000021949518e+00 -1.4060745868803567e+05 1.0000000000000000e+00 1.1941624190644637e+01 1.0615788397046485e+01 7.9430303944852882e+00 
77 1 2 1.0280000026794598e+00 -1.3919349104874511e+05 1.0000000000000000e+00 1.2016486946027273e+01 1.0621326655622926e+01 7.9646165373870978e+00 
88 1 2 1.0280000017825883e+00 -1.3604148941351313e+05 1.0000000000000000e+00 8.4666959698199484e+00 1.5103421037759549e+01 9.7931890892763818e+00 
126 1 2 1.0279999969415687e+00 -9.1960841714587761e+04 1.0000000000000000e+00 8.1345008682601847e+00 1.4459138565188434e+01 9.7021130428970732e+00 
156 1 2 1.0280000008425849e+00 -1.3061814552842133e+05 1.0000000000000000e+00 8.6577111659584070e+00 1.5897018395422730e+01 9.6214038965916782e+00 
120 1 2 1.0279999965652629e+00 -9.5807768371630838e+04 1.0000000000000000e+00 8.1360812505864004e+00 1.4457857333128322e+01 9.6993577935397521e+00 
180 1 2 1.0280000008425267e+00 -1.6721564032463779e+05 1.0000000000000000e+00 8.6570610540681798e+00 1.5897133660596882e+01 9.6222261762441139e+00 
63 1 2 1.0279999996612639e+00 -9.6959128260092912e+04 1.0000000000000000e+00 7.4312947803033298e+00 1.6278326271188227e+01 8.4712877239298692e+00 
21 1 2 1.0279999996605818e+00 -1.1800037540884597e+05 1.0000000000000000e+00 7.4317764920267173e+00 1.6279524206569196e+01 8.4716467123060220e+00 
93 1 2 1.0279999996600644e+00 -1.5348899386045407e+05 1.0000000000000000e+00 7.4303308116010358e+00 1.6279593797553098e+01 8.4730954828256113e+00 
91 1 2 1.0279999996593048e+00 -1.7225862579967975e+05 1.0000000000000000e+00 7.4290325964639150e+00 1.6280048577640517e+01 8.4746784071741903e+00 
27 1 2 1.0279999996594742e+00 -1.0651667667958319e+05 1.0000000000000000e+00 7.4281811094791115e+00 1.6279431020287948e+01 8.4750840145773925e+00 
16 1 2 1.0280000006128689e+00 -1.1696729449818292e+05 1.0000000000000000e+00 8.7221322476585161e+00 1.6078225714488308e+01 9.3352625649776151e+00 
25 1 2 1.0280000015188813e+00 -1.4627512650930812e+05 1.0000000000000000e+00 8.1611834846333515e+00 1.2530900284179692e+01 1.1038776975483572e+01 
18 1 2 1.0280000003103353e+00 -1.6735691654470566e+05 1.0000000000000000e+00 7.3834734788237224e+00 1.2500560663837364e+01 1.0444092684152334e+01 
33 1 2 1.0280000001524525e+00 -1.5640655708721187e+05 1.0000000000000000e+00 7.3343095710566875e+00 1.2690528970796800e+01 1.0415427155544357e+01 
178 1 2 1.0280000001524747e+00 -1.1097841184524435e+05 1.0000000000000000e+00 7.3343141713662154e+00 1.2690485993217797e+01 1.0415427941650998e+01 
65 1 2 1.0280000011389123e+00 -2.0355915460254846e+05 1.0000000000000000e+00 7.8134525761073954e+00 1.2438851012453073e+01 1.2091430899069238e+01 
157 1 2 1.0280000008688341e+00 -1.6504945430010953e+05 1.0000000000000000e+00 7.8290531633856730e+00 1.2394495614408568e+01 1.2329541800090196e+01 
130 1 2 1.0280000004236465e+00 -1.2564732963804112e+05 1.0000000000000000e+00 7.3847468134254095e+00 1.3065080698831398e+01 1.0446866662847643e+01 
162 1 2 1.0280000006063625e+00 -1.8514967805725086e+05 1.0000000000000000e+00 7.9441228268180577e+00 1.2746752511245502e+01 1.3560352279898186e+01 
37 1 2 1.0279999986389072e+00 -1.3396332834366371e+05 1.0000000000000000e+00 8.3952850948581457e+00 1.3021095630261687e+01 1.3652137033553688e+01 
94 1 2 1.0279999986362616e+00 -1.4731053061851239e+05 1.0000000000000000e+00 8.3599433381077386e+00 1.3019679818151888e+01 1.3679862472898263e+01 
51 1 2 1.0279999986359329e+00 -1.2191000151814969e+05 1.0000000000000000e+00 8.3607442698050818e+00 1.3019661942300541e+01 1.3679353246103783e+01 
119 1 2 1.0279999986363948e+00 -1.5232098146623920e+05 1.0000000000000000e+00 8.3604765532851495e+00 1.3019637499860092e+01 1.3679537856507874e+01 
95 1 2 1.0279999986572423e+00 -1.6011821871385796e+05 1.0000000000000000e+00 8.3458922623930523e+00 1.3018759018952217e+01 1.3688687182710783e+01 
105 1 2 1.0280000008906296e+00 -1.7693701878206327e+05 1.0000000000000000e+00 8.7678451446679961e+00 1.4114584054273553e+01 1.6658903385467354e+01 
116 1 2 1.0280000008906294e+00 -1.7644875044123307e+05 1.0000000000000000e+00 8.7678451355353388e+00 1.4114584073517053e+01 1.6658903379827969e+01 
39 1 2 1.0280000008906267e+00 -1.9846356988614594e+05 1.0000000000000000e+00 8.7678451341445296e+00 1.4114584076490672e+01 1.6658903378953603e+01 
135 1 2 1.0280000006485057e+00 -1.4670605691021643e+05 1.0000000000000000e+00 8.7645780739784573e+00 1.4125215654085370e+01 1.6654836495445295e+01 
40 1 2 1.0280000008905501e+00 -1.2861561006251149e+05 1.0000000000000000e+00 8.7678434159749301e+00 1.4114588053428026e+01 1.6658902188651545e+01 
54 1 2 1.0280000009998684e+00 -1.5960397476762824e+05 1.0000000000000000e+00 8.7684624142742287e+00 1.4109636853160387e+01 1.6660471581299287e+01 
75 1 2 1.0280000008906303e+00 -1.8569187804394367e+05 1.0000000000000000e+00 8.7678451447735384e+00 1.4114584054066224e+01 1.6658903385527058e+01 
64 1 2 1.0280000007948107e+00 -1.3292044194774245e+05 1.0000000000000000e+00 1.4581726828487097e+01 8.8130343110537979e+00 7.2492082457212499e+00 
10 1 2 1.0279999952108436e+00 -1.8325211269798389e+05 1.0000000000000000e+00 1.4344972808671393e+01 8.7224121661000815e+00 8.2743185743860970e+00 
71 1 2 1.0279999991184803e+00 -1.8235669839545715e+05 1.0000000000000000e+00 1.5198637669117371e+01 8.8845144128455029e+00 8.6570960189183737e+00 
41 1 2 1.0279999991146493e+00 -1.6819274641412476e+05 1.0000000000000000e+00 1.5197117790052111e+01 8.8838838161704086e+00 8.6571873025723676e+00 
166 1 2 1.0279999991138020e+00 -1.5534622242538224e+05 1.0000000000000000e+00 1.5196996882397698e+01 8.8839169079197280e+00 8.6572301822068347e+00 
47 1 2 1.0279999991140238e+00 -1.4855163458506833e+05 1.0000000000000000e+00 1.5197140452774349e+01 8.8839982867133251e+00 8.6572311172173819e+00 
160 1 2 1.0279999991162529e+00 -1.6747690151034115e+05 1.0000000000000000e+00 1.5198036265305099e+01 8.8843752446602497e+00 8.6571799652678756e+00 
7 1 2 1.0279999999334895e+00 -1.0886285400202185e+05 1.0000000000000000e+00 1.6619198139687576e+01 9.2938250613799553e+00 1.5909176575824215e+01 
13 1 2 1.0279999999334870e+00 -1.0773969220302434e+05 1.0000000000000000e+00 1.6619198170853014e+01 9.2938250120295542e+00 1.5909176539712355e+01 
133 1 2 1.0279999999398319e+00 -1.6627262671150916e+05 1.0000000000000000e+00 1.6619336107742662e+01 9.2934295908306463e+00 1.5908797774375493e+01 
154 1 2 1.0279999999540921e+00 -1.1608923620889983e+05 1.0000000000000000e+00 1.6619359222061860e+01 9.2926142633775353e+00 1.5907793983603062e+01 
82 1 2 1.0279999999306055e+00 -1.5982965388585007e+05 1.0000000000000000e+00 1.6616157842253831e+01 9.2947029087695849e+00 1.5907790687323358e+01 
111 1 2 1.0279999999731602e+00 -1.6767843313179459e+05 1.0000000000000000e+00 1.6618136319418628e+01 9.2918344743025738e+00 1.5905783161158828e+01 
169 1 2 1.0279999999731260e+00 -1.7584202365328648e+05 1.0000000000000000e+00 1.6618141088926876e+01 9.2918353136085798e+00 1.5905788285405238e+01 
152 1 2 1.0279999977441987e+00 -1.5733742795515200e+05 1.0000000000000000e+00 1.9925670771355307e+01 1.2968388705986008e+01 9.7224386865133272e-01 
102 1 2 1.0279999996000821e+00 -1.4930605978109862e+05 1.0000000000000000e+00 1.9950182929294911e+01 1.3059106569367831e+01 1.2660864390243638e+00 
143 1 2 1.0280000005368477e+00 -1.2622931562396587e+05 1.0000000000000000e+00 1.9588570794037683e+01 1.4125605803864179e+01 2.6641920497081339e+00 
164 1 2 1.0280000005689116e+00 -1.7506908732925873e+05 1.0000000000000000e+00 1.9588788881544609e+01 1.4136657971094911e+01 2.6799935065103111e+00 
159 1 2 1.0280000005689205e+00 -1.2935634005692620e+05 1.0000000000000000e+00 1.9588788881471341e+01 1.4136657971799776e+01 2.6799935077034625e+00 
128 1 2 1.0280000005689092e+00 -1.4675853647745363e+05 1.0000000000000000e+00 1.9588788881134530e+01 1.4136657975029447e+01 2.6799935131722155e+00 
52 1 2 1.0280000022173141e+00 -1.3826236828247280e+05 1.0000000000000000e+00 1.5495776881924733e+01 1.0343588118799607e+01 6.4640306076351015e+00 
26 1 2 1.0280000036336669e+00 -2.1940907940586493e+05 1.0000000000000000e+00 1.5544589636867160e+01 1.0336108694467613e+01 6.4639422470554031e+00 
14 1 2 1.0280000037680146e+00 -1.5072621979539402e+05 1.0000000000000000e+00 1.5548902480737260e+01 1.0335027593523956e+01 6.4639393329084722e+00 
132 1 2 1.0280000051382541e+00 -1.8051221017555043e+05 1.0000000000000000e+00 1.5591802276723634e+01 1.0321377098094104e+01 6.4647345037189030e+00 
50 1 2 1.0279999947627327e+00 -1.1843845666813948e+05 1.0000000000000000e+00 1.5017685516423665e+01 1.0373529333539619e+01 6.5696764154236487e+00 
167 1 2 1.0279999978150045e+00 -1.9952699101764368e+05 1.0000000000000000e+00 1.7633134105065956e+01 1.2208829495068773e+01 5.6875181569235913e+00 
57 1 2 1.0279999978145058e+00 -1.2674382166611661e+05 1.0000000000000000e+00 1.7633125310245784e+01 1.2208834940308655e+01 5.6875433541327274e+00 
23 1 2 1.0279999978136645e+00 -7.3530555880920016e+04 1.0000000000000000e+00 1.7633110762753585e+01 1.2208843828239798e+01 5.6875850514034729e+00 
136 1 2 1.0279999978145224e+00 -1.3991476080478542e+05 1.0000000000000000e+00 1.7633010710623573e+01 1.2208625869988623e+01 5.6878729406258506e+00 
84 1 2 1.0279999978038370e+00 -1.5591203389572556e+05 1.0000000000000000e+00 1.7632889587247529e+01 1.2208848693631927e+01 5.6882217127525205e+00 
43 1 2 1.0279999977609764e+00 -1.7838202653737611e+05 1.0000000000000000e+00 1.7632200580178722e+01 1.2209326440815524e+01 5.6902398320263856e+00 
17 1 2 1.0280000027290290e+00 -1.3751448165978043e+05 1.0000000000000000e+00 1.8983064350220666e+01 1.3015992401959997e+01 4.8865089516888807e+00 
163 1 2 1.0280000031049505e+00 -1.6389006816500358e+05 1.0000000000000000e+00 1.9477523811802843e+01 1.3120372877065796e+01 4.2134738604017201e+00 
165 1 2 1.0280000042056352e+00 -1.3496364434497483e+05 1.0000000000000000e+00 1.6008237284695820e+01 1.0001293247810423e+01 6.8955707196495579e+00 
179 1 2 1.0280000001206322e+00 -1.9027163027266192e+05 1.0000000000000000e+00 1.9622728472798869e+01 1.1977063016526733e+01 9.7787814348223066e+00 
103 1 2 1.0279999978117993e+00 -1.1138923834127584e+05 1.0000000000000000e+00 1.8884739178028465e+01 1.1710062693076541e+01 8.8780090760685066e+00 
96 1 2 1.0280000025796350e+00 -1.5161311210070559e+05 1.0000000000000000e+00 1.9626941653414441e+01 1.1797375278258517e+01 9.2408329055484177e+00 
67 1 2 1.0279999987145536e+00 -1.2601219589296424e+05 1.0000000000000000e+00 1.7966506877588035e+01 1.1360889661810516e+01 9.5104662996509433e+00 
38 1 2 1.0279999986596080e+00 -1.3002706195813365e+05 1.0000000000000000e+00 1.8153703874269826e+01 1.1430122165101402e+01 9.3722958959783611e+00 
158 1 2 1.0280000034095691e+00 -1.5912634541677660e+05 1.0000000000000000e+00 1.9485602454672705e+01 1.1752780357106374e+01 8.8699586611111538e+00 
42 1 2 1.0279999953941070e+00 -1.7593123858635739e+05 1.0000000000000000e+00 1.9195594290688543e+01 1.2012040520122945e+01 8.5643596984977872e+00 
172 1 2 1.0279999998129041e+00 -1.1363186325737328e+05 1.0000000000000000e+00 1.7017127923394078e+01 1.1926945275353313e+01 1.1508776971811839e+01 
174 1 2 1.0279999998141889e+00 -1.6853629295848275e+05 1.0000000000000000e+00 1.7018579417105006e+01 1.1929221116230606e+01 1.1508514458466818e+01 
79 1 2 1.0279999998133431e+00 -1.3254074198851344e+05 1.0000000000000000e+00 1.7017668988639130e+01 1.1927785128620163e+01 1.1508765684280533e+01 
129 1 2 1.0279999998132583e+00 -1.4800195786261352e+05 1.0000000000000000e+00 1.7017589028784567e+01 1.1927660522596501e+01 1.1508772582491744e+01 
170 1 2 1.0279999996272857e+00 -1.5620120723562443e+05 1.0000000000000000e+00 1.7333972787042466e+01 1.0963597392438942e+01 1.0750408001272703e+01 
173 1 2 1.0279999996270821e+00 -1.7672659275526067e+05 1.0000000000000000e+00 1.7333920494334158e+01 1.0963618622718524e+01 1.0750328124899658e+01 
171 1 2 1.0279999996270552e+00 -1.7925618715352376e+05 1.0000000000000000e+00 1.7333916358986858e+01 1.0963620302284935e+01 1.0750321799788420e+01 
175 1 2 1.0280000003374596e+00 -1.8333862777635056e+05 1.0000000000000000e+00 1.9547584936734449e+01 1.2679916056164581e+01 1.2842432333648317e+01 
2 1 2 1.0280000003357579e+00 -1.5679745059921587e+05 1.0000000000000000e+00 1.9548513336013730e+01 1.2679634186677212e+01 1.2840566870729880e+01 
31 1 2 1.0280000003358074e+00 -1.6828636995019525e+05 1.0000000000000000e+00 1.9548513367618558e+01 1.2679634177147902e+01 1.2840566806829553e+01 
1 1 2 1.0280000003358076e+00 -2.0672754427970480e+05 1.0000000000000000e+00 1.9548513333315640e+01 1.2679634187520026e+01 1.2840566876046658e+01 
53 1 2 1.0280000003284364e+00 -1.4107592415529577e+05 1.0000000000000000e+00 1.9552355309133947e+01 1.2678474133714941e+01 1.2832763325629372e+01 
104 1 2 1.0279999997300331e+00 -1.8321784936167291e+05 1.0000000000000000e+00 1.8152562011708898e+01 1.1596436001358764e+01 1.4238867030851351e+01 
99 1 2 1.0279999997300318e+00 -2.1103125821862166e+05 1.0000000000000000e+00 1.8152558831237236e+01 1.1596438044627408e+01 1.4238867245833299e+01 
168 1 2 1.0279999995584619e+00 -1.4891360578090162e+05 1.0000000000000000e+00 1.7485754536590491e+01 1.1856971100835008e+01 1.3636089688319878e+01 
56 1 2 1.0279999995796345e+00 -1.5798010754297487e+05 1.0000000000000000e+00 1.7999451711053137e+01 1.1637180542061174e+01 1.4208576055233845e+01 
123 1 2 1.0279999993708628e+00 -1.7382940259411075e+05 1.0000000000000000e+00 1.7981969313913368e+01 1.1282306998022642e+01 1.3936365420911081e+01 
134 1 2 1.0279999997300611e+00 -1.7121238897565272e+05 1.0000000000000000e+00 1.8152560407184694e+01 1.1596437032170874e+01 1.4238867139311113e+01 
122 1 2 1.0280000020441578e+00 -1.7244759283173230e+05 1.0000000000000000e+00 1.8869091495868773e+01 1.3076862564526360e+01 1.9575250967419599e+01 
8 1 2 1.0280000020428184e+00 -1.3434812325789107e+05 1.0000000000000000e+00 1.8870089228132702e+01 1.3077317821580166e+01 1.9574591449676323e+01 
3 1 2 1.0280000020428228e+00 -1.2664296923155093e+05 1.0000000000000000e+00 1.8870089228057111e+01 1.3077317821543163e+01 1.9574591449725361e+01 
98 1 2 1.0280000020428841e+00 -2.2009534680184786e+05 1.0000000000000000e+00 1.8870072691896208e+01 1.3077310023830275e+01 1.9574602261236482e+01 
9 1 2 1.0280000020428157e+00 -1.3009961401889300e+05 1.0000000000000000e+00 1.8870089228124286e+01 1.3077317821575448e+01 1.9574591449681584e+01 
127 1 2 1.0280000020439863e+00 -1.6525191834055918e+05 1.0000000000000000e+00 1.8869206412810716e+01 1.3076913440270879e+01 1.9575174266737825e+01 

Velocities

101 1.5385679140738934e-01 -1.4711460274296337e-01 -3.1441152251463128e-01
125 1.5362344608631215e-01 -1.4684034990105554e-01 -3.1447941196843082e-01
83 1.5360472935375391e-01 -1.4687380060981767e-01 -3.1446817698921331e-01
176 1.5379932801915497e-01 -1.4702915610619097e-01 -3.1451562810760592e-01
80 1.5379932803676225e-01 -1.4702915612745235e-01 -3.1451562810105965e-01
140 1.5379932801914853e-01 -1.4702915610623243e-01 -3.1451562810753464e-01
144 1.5379932802104504e-01 -1.4702915610819953e-01 -3.1451562810733075e-01
153 1.5360338550934946e-01 -1.4680005367326912e-01 -3.1456371407940453e-01
59 1.5360307935570972e-01 -1.4679860425111130e-01 -3.1456655288044988e-01
44 1.5382549991833858e-01 -1.4701316380314397e-01 -3.1464028425047424e-01
108 1.5404229922617366e-01 -1.4780431797300311e-01 -3.1440926263496666e-01
58 1.5404229919053383e-01 -1.4780431792534893e-01 -3.1440926266739927e-01
86 1.5404232168483714e-01 -1.4780432770883870e-01 -3.1440927974747995e-01
15 1.5404229919055618e-01 -1.4780431792530596e-01 -3.1440926266740010e-01
24 1.5404229918983470e-01 -1.4780431792518511e-01 -3.1440926266784264e-01
22 1.5404229924751489e-01 -1.4780431759357521e-01 -3.1440926338217579e-01
137 1.5404229924409860e-01 -1.4780431810147826e-01 -3.1440926242079165e-01
90 1.5320912413541504e-01 -1.4636376884159105e-01 -3.1479773234373015e-01
11 1.5320910490689274e-01 -1.4636375731735132e-01 -3.1479773462525951e-01
89 1.5320910599700660e-01 -1.4636375795086240e-01 -3.1479773449605708e-01
92 1.5347785064098773e-01 -1.4645937575554832e-01 -3.1475289576555410e-01
121 1.5347820838969228e-01 -1.4646062573236024e-01 -3.1475424598443835e-01
85 1.5347820944428134e-01 -1.4646062926436307e-01 -3.1475424943115587e-01
161 1.5347949020001705e-01 -1.4646516752376251e-01 -3.1475856293902554e-01
110 1.5273135514824543e-01 -1.4594067681141515e-01 -3.1497320410067886e-01
145 1.5273134853948483e-01 -1.4594067172200412e-01 -3.1497321467009370e-01
115 1.5273135056381495e-01 -1.4594067351532275e-01 -3.1497321185483285e-01
109 1.5273132475041576e-01 -1.4594065312856053e-01 -3.1497325228339756e-01
151 1.5273131942228921e-01 -1.4594064859879552e-01 -3.1497326005282283e-01
81 1.5247514013786698e-01 -1.4561598703679041e-01 -3.1487082185195381e-01
70 1.5247513978087410e-01 -1.4561598716795970e-01 -3.1487082176674147e-01
45 1.5247514013771554e-01 -1.4561598703668419e-01 -3.1487082185199905e-01
29 1.5247514021957309e-01 -1.4561598700659592e-01 -3.1487082187155185e-01
76 1.5247043670254276e-01 -1.4561628145333050e-01 -3.1487230891877332e-01
69 1.5247664997285640e-01 -1.4559978694981979e-01 -3.1488029449375815e-01
138 1.5248254305109313e-01 -1.4559948334262426e-01 -3.1488389580844406e-01
66 1.5247539628307546e-01 -1.4559871303051880e-01 -3.1487810462805821e-01
55 1.5251813877427392e-01 -1.4561336486850240e-01 -3.1488005410297459e-01
49 1.5251813884918147e-01 -1.4561336486197987e-01 -3.1488005404386293e-01
97 1.5426317616949065e-01 -1.4714386989993053e-01 -3.1445535850103629e-01
19 1.5426333212580801e-01 -1.4714371846857444e-01 -3.1445566533710601e-01
118 1.5426333326510139e-01 -1.4714371731626660e-01 -3.1445566775663752e-01