LAMMPS data file via write_data, version 30 Jul 2016, timestep = 50000000

180 atoms
2 atom types

0.0000000000000000e+00 2.0000000000000000e+01 xlo xhi
0.0000000000000000e+00 2.0000000000000000e+01 ylo yhi
0.0000000000000000e+00 2.0000000000000000e+01 zlo zhi

Masses

1 3.896
2 4.31

Atoms # meso-molecular

11 1 2 1.0279879128701632e+00 -2.3894963714672195e+02 1.0000000000000000e+00 3.2330982019376622e+00 1.8375590437636637e+00 1.1408735862059286e+01 
122 1 2 1.0279879128701632e+00 -1.8567249826822956e+02 1.0000000000000000e+00 3.2330982019376622e+00 1.8375590437636637e+00 1.1408735862059286e+01 
84 1 2 1.0279879128701632e+00 -1.9831563235086520e+02 1.0000000000000000e+00 3.2330982019376622e+00 1.8375590437636637e+00 1.1408735862059286e+01 
60 1 2 1.0279879128701632e+00 -2.2377378356866348e+02 1.0000000000000000e+00 3.2330982019376622e+00 1.8375590437636637e+00 1.1408735862059286e+01 
72 1 2 1.0279879128701632e+00 -1.7372893474762074e+02 1.0000000000000000e+00 3.2330982019376622e+00 1.8375590437636637e+00 1.1408735862059286e+01 
103 1 2 1.0279879128701632e+00 -1.7543647636357190e+02 1.0000000000000000e+00 3.2330982019376622e+00 1.8375590437636637e+00 1.1408735862059286e+01 
108 1 2 1.0279879128701632e+00 -2.0235412398624709e+02 1.0000000000000000e+00 3.2330982019376622e+00 1.8375590437636637e+00 1.1408735862059286e+01 
146 1 2 1.0280002487489437e+00 -1.7171705865149659e+02 1.0000000000000000e+00 8.1596970259462365e-01 9.0114731178511978e+00 1.5418462097718113e+01 
111 1 2 1.0280002487489437e+00 -2.9670258801221263e+02 1.0000000000000000e+00 8.1596970259462365e-01 9.0114731178511978e+00 1.5418462097718113e+01 
53 1 2 1.0280002487489437e+00 -1.4045104793413219e+02 1.0000000000000000e+00 8.1596970259466339e-01 9.0114731178512013e+00 1.5418462097718029e+01 
17 1 2 1.0280002487489437e+00 -2.1049702305318166e+02 1.0000000000000000e+00 8.1596970259463686e-01 9.0114731178511818e+00 1.5418462097718077e+01 
16 1 2 1.0280002487489437e+00 -2.0986447161619941e+02 1.0000000000000000e+00 8.1596970259463686e-01 9.0114731178511818e+00 1.5418462097718077e+01 
90 1 2 1.0280002487489437e+00 -1.9473059224906893e+02 1.0000000000000000e+00 8.1596970259462365e-01 9.0114731178511978e+00 1.5418462097718113e+01 
25 1 2 1.0280002487489437e+00 -7.0908876213044209e+01 1.0000000000000000e+00 8.1596970259462365e-01 9.0114731178511978e+00 1.5418462097718113e+01 
46 1 2 1.0280002487489435e+00 -1.7345036213639216e+02 1.0000000000000000e+00 3.7165323896865305e+00 8.3751795067023025e+00 1.6779399548273911e+01 
3 1 2 1.0280002487489435e+00 -2.1455839182404776e+02 1.0000000000000000e+00 3.7165323896865297e+00 8.3751795067022918e+00 1.6779399548273908e+01 
148 1 2 1.0280002487489435e+00 -2.8192356491905741e+02 1.0000000000000000e+00 3.7165323896865305e+00 8.3751795067023025e+00 1.6779399548273911e+01 
39 1 2 1.0280002487489435e+00 -2.2132703947463915e+02 1.0000000000000000e+00 3.7165323896865305e+00 8.3751795067023025e+00 1.6779399548273911e+01 
49 1 2 1.0280002487489435e+00 -1.1618445535470897e+02 1.0000000000000000e+00 3.7165323896865305e+00 8.3751795067023025e+00 1.6779399548273911e+01 
112 1 2 1.0280002487489435e+00 -2.5324768948696919e+02 1.0000000000000000e+00 3.7165323896865305e+00 8.3751795067023025e+00 1.6779399548273911e+01 
45 1 2 1.0280002487489435e+00 -2.2424413542561206e+02 1.0000000000000000e+00 3.7165323896865305e+00 8.3751795067023025e+00 1.6779399548273911e+01 
110 1 2 1.0279982166206332e+00 -2.8505907612309608e+02 1.0000000000000000e+00 5.5341914017572025e+00 1.5661874600534928e+01 1.3262277803247766e+01 
156 1 2 1.0280002066648162e+00 -1.8126888589210557e+02 1.0000000000000000e+00 5.7669705812296392e+00 1.5659108070312810e+01 1.3084789887668686e+01 
113 1 2 1.0280002066636791e+00 -2.4096488365343748e+02 1.0000000000000000e+00 5.7669704966438795e+00 1.5659108051939505e+01 1.3084789951116155e+01 
92 1 2 1.0280002066635796e+00 -2.3758889943650573e+02 1.0000000000000000e+00 5.7669704876851293e+00 1.5659108049995146e+01 1.3084789957844821e+01 
91 1 2 1.0280002066649401e+00 -2.0087539387863021e+02 1.0000000000000000e+00 5.7669705920814698e+00 1.5659108072671266e+01 1.3084789879536460e+01 
44 1 2 1.0280012584724791e+00 -1.7702440875192579e+02 1.0000000000000000e+00 5.8690600942450590e+00 1.6483519654889378e+01 1.0444803443754170e+01 
106 1 2 1.0280012584724796e+00 -2.6951375401323133e+02 1.0000000000000000e+00 5.8690600942451212e+00 1.6483519654889321e+01 1.0444803443754205e+01 
75 1 2 1.0280012584724769e+00 -2.3924644443794833e+02 1.0000000000000000e+00 5.8690600942480069e+00 1.6483519654888813e+01 1.0444803443753429e+01 
8 1 2 1.0280012584724798e+00 -2.2017413693057247e+02 1.0000000000000000e+00 5.8690600942452109e+00 1.6483519654889321e+01 1.0444803443754164e+01 
7 1 2 1.0280012584724787e+00 -2.3603172852954077e+02 1.0000000000000000e+00 5.8690600942452598e+00 1.6483519654889406e+01 1.0444803443754044e+01 
58 1 2 1.0280092035615080e+00 -1.6949886368125368e+02 1.0000000000000000e+00 1.6831162029933653e+00 1.8996290659445499e+01 1.0964657756339916e+01 
166 1 2 1.0280092035615080e+00 -2.7763109084219349e+02 1.0000000000000000e+00 1.6831162029933653e+00 1.8996290659445499e+01 1.0964657756339916e+01 
154 1 2 1.0280092035615296e+00 -1.8841642392115847e+02 1.0000000000000000e+00 1.6831162023476065e+00 1.8996290659629643e+01 1.0964657757463435e+01 
52 1 2 1.0280092035615618e+00 -1.7400167906798549e+02 1.0000000000000000e+00 1.6831162022553383e+00 1.8996290659610949e+01 1.0964657757912462e+01 
160 1 2 1.0280092035614670e+00 -3.3364450896974046e+02 1.0000000000000000e+00 1.6831162025342430e+00 1.8996290659673214e+01 1.0964657756519042e+01 
165 1 2 1.0280092035615080e+00 -2.8487584950138319e+02 1.0000000000000000e+00 1.6831162029933653e+00 1.8996290659445499e+01 1.0964657756339916e+01 
159 1 2 1.0280092035615209e+00 -2.9543486058921843e+02 1.0000000000000000e+00 1.6831162023216708e+00 1.8996290659661963e+01 1.0964657757349572e+01 
171 1 2 1.0279965312239094e+00 -1.8729653469183879e+02 1.0000000000000000e+00 5.4842293170928995e+00 1.8673902107914536e+01 1.1379201823755405e+01 
74 1 2 1.0279965312239019e+00 -2.6199535001799313e+02 1.0000000000000000e+00 5.4842293170929386e+00 1.8673902107914586e+01 1.1379201823755395e+01 
135 1 2 1.0279965312239068e+00 -1.8171664905789575e+02 1.0000000000000000e+00 5.4842293170928844e+00 1.8673902107914540e+01 1.1379201823755352e+01 
177 1 2 1.0279965312239088e+00 -2.2268520489124685e+02 1.0000000000000000e+00 5.4842293170928409e+00 1.8673902107914497e+01 1.1379201823755400e+01 
172 1 2 1.0279965312239092e+00 -2.0172500951058279e+02 1.0000000000000000e+00 5.4842293170929359e+00 1.8673902107914554e+01 1.1379201823755480e+01 
54 1 2 1.0280013195656186e+00 -1.7280559423211039e+02 1.0000000000000000e+00 7.0550314955881077e-01 1.8139442103240381e+01 1.6275754747843060e+01 
33 1 2 1.0280013195656177e+00 -1.9192413971984791e+02 1.0000000000000000e+00 7.0550314955874283e-01 1.8139442103240352e+01 1.6275754747843056e+01 
69 1 2 1.0280013195656172e+00 -1.8571733173971589e+02 1.0000000000000000e+00 7.0550314955869287e-01 1.8139442103240267e+01 1.6275754747843031e+01 
68 1 2 1.0280013195656186e+00 -1.6975465289602215e+02 1.0000000000000000e+00 7.0550314955874205e-01 1.8139442103240317e+01 1.6275754747843042e+01 
62 1 2 1.0280013195656172e+00 -1.5722040500402096e+02 1.0000000000000000e+00 7.0550314955869287e-01 1.8139442103240267e+01 1.6275754747843031e+01 
83 1 2 1.0279959164856334e+00 -2.7788225840410161e+02 1.0000000000000000e+00 2.7018005054757319e+00 1.7560110532844934e+01 1.4966194735527321e+01 
144 1 2 1.0279959169884050e+00 -2.3922068553016311e+02 1.0000000000000000e+00 2.7018608634645092e+00 1.7560160006815305e+01 1.4966240579058910e+01 
127 1 2 1.0279959169884052e+00 -2.5682236001544692e+02 1.0000000000000000e+00 2.7018608634612624e+00 1.7560160006812826e+01 1.4966240579056338e+01 
163 1 2 1.0279959169884050e+00 -2.3232837068103248e+02 1.0000000000000000e+00 2.7018608634610866e+00 1.7560160006812637e+01 1.4966240579056230e+01 
82 1 2 1.0279959163253904e+00 -2.2229294439668965e+02 1.0000000000000000e+00 2.7017702363220470e+00 1.7560083946260342e+01 1.4966172817558851e+01 
157 1 2 1.0279959169884052e+00 -2.0502445155376921e+02 1.0000000000000000e+00 2.7018608634606589e+00 1.7560160006813355e+01 1.4966240579055281e+01 
152 1 2 1.0280015072003705e+00 -1.3410991083923346e+02 1.0000000000000000e+00 5.0564081256677609e+00 1.7163623786811190e+01 1.3662933418970223e+01 
153 1 2 1.0280015072003699e+00 -1.2196169895851932e+02 1.0000000000000000e+00 5.0564081256765645e+00 1.7163623786815183e+01 1.3662933418965372e+01 
151 1 2 1.0280015072003694e+00 -2.5961022209583746e+02 1.0000000000000000e+00 5.0564081256750200e+00 1.7163623786814590e+01 1.3662933418966086e+01 
121 1 2 1.0280015071985087e+00 -1.8897680486749954e+02 1.0000000000000000e+00 5.0564079935503807e+00 1.7163623667978584e+01 1.3662933569816348e+01 
48 1 2 1.0279510231224882e+00 -1.4461787027574567e+02 1.0000000000000000e+00 7.3005326061754783e+00 1.7863866168619852e-01 8.6590022844363119e+00 
77 1 2 1.0279510231221056e+00 -2.6620397863186622e+02 1.0000000000000000e+00 7.3005326085047022e+00 1.7863866018548336e-01 8.6590022829889506e+00 
155 1 2 1.0279510231225018e+00 -2.9058068787481716e+02 1.0000000000000000e+00 7.3005326080076172e+00 1.7863866169098752e-01 8.6590022843884231e+00 
42 1 2 1.0279510231225018e+00 -1.3923261505188856e+02 1.0000000000000000e+00 7.3005326080076172e+00 1.7863866169098752e-01 8.6590022843884231e+00 
119 1 2 1.0279510231224882e+00 -2.0853164567459365e+02 1.0000000000000000e+00 7.3005326061754783e+00 1.7863866168619852e-01 8.6590022844363119e+00 
78 1 2 1.0279510231221052e+00 -1.8274763267445334e+02 1.0000000000000000e+00 7.3005326085009505e+00 1.7863866018535568e-01 8.6590022829889381e+00 
118 1 2 1.0279510231224882e+00 -2.6222350428094109e+02 1.0000000000000000e+00 7.3005326061754783e+00 1.7863866168619852e-01 8.6590022844363119e+00 
124 1 2 1.0279984905437183e+00 -2.0069982843282060e+02 1.0000000000000000e+00 1.2536032763924766e+01 1.2953647194375671e+01 1.2816733889315376e+01 
131 1 2 1.0279984905437189e+00 -1.5400775523345968e+02 1.0000000000000000e+00 1.2536032763924798e+01 1.2953647194375664e+01 1.2816733889315424e+01 
63 1 2 1.0279984905437189e+00 -2.2899594058383482e+02 1.0000000000000000e+00 1.2536032763924723e+01 1.2953647194375625e+01 1.2816733889315520e+01 
57 1 2 1.0279984905437176e+00 -2.6211717927315266e+02 1.0000000000000000e+00 1.2536032763924753e+01 1.2953647194375696e+01 1.2816733889315277e+01 
125 1 2 1.0279984905437187e+00 -1.8432675913928878e+02 1.0000000000000000e+00 1.2536032763924783e+01 1.2953647194375698e+01 1.2816733889315294e+01 
18 1 2 1.0280101356795370e+00 -2.3860013329017059e+02 1.0000000000000000e+00 8.5246955480518878e+00 1.3568906519082141e+01 1.3005445712846690e+01 
24 1 2 1.0280101356795373e+00 -2.7809346021521640e+02 1.0000000000000000e+00 8.5246955480516320e+00 1.3568906519082265e+01 1.3005445712846820e+01 
19 1 2 1.0280101356795377e+00 -2.4881021512645898e+02 1.0000000000000000e+00 8.5246955480511026e+00 1.3568906519082725e+01 1.3005445712846893e+01 
96 1 2 1.0280101356795370e+00 -2.5994102980861226e+02 1.0000000000000000e+00 8.5246955480516302e+00 1.3568906519082530e+01 1.3005445712846564e+01 
13 1 2 1.0280101356795373e+00 -1.2268502309532298e+02 1.0000000000000000e+00 8.5246955480516320e+00 1.3568906519082265e+01 1.3005445712846820e+01 
95 1 2 1.0280101356795373e+00 -2.2933987299173830e+02 1.0000000000000000e+00 8.5246955480514881e+00 1.3568906519082390e+01 1.3005445712846841e+01 
89 1 2 1.0280101356795373e+00 -2.2803178325726617e+02 1.0000000000000000e+00 8.5246955480514881e+00 1.3568906519082390e+01 1.3005445712846841e+01 
56 1 2 1.0280028132356975e+00 -2.5164197325921123e+02 1.0000000000000000e+00 1.2606628789700164e+01 1.4656255530565581e+01 1.2938727157883871e+01 
147 1 2 1.0280028132356982e+00 -2.6802337958003284e+02 1.0000000000000000e+00 1.2606628789700096e+01 1.4656255530565689e+01 1.2938727157884076e+01 
136 1 2 1.0280028132356975e+00 -2.6082740718423713e+02 1.0000000000000000e+00 1.2606628789700039e+01 1.4656255530565684e+01 1.2938727157883999e+01 
116 1 2 1.0280028132356969e+00 -1.5739957696997635e+02 1.0000000000000000e+00 1.2606628789700007e+01 1.4656255530565614e+01 1.2938727157883774e+01 
21 1 2 1.0280144874971671e+00 -2.5075684632180571e+02 1.0000000000000000e+00 7.6557827124340552e+00 1.7943840857297666e+01 1.0939833442352811e+01 
115 1 2 1.0280144874940611e+00 -1.6765898237796807e+02 1.0000000000000000e+00 7.6557827023887359e+00 1.7943840752223355e+01 1.0939833598272379e+01 
169 1 2 1.0280144874940538e+00 -2.4691138753420574e+02 1.0000000000000000e+00 7.6557827023838634e+00 1.7943840752163027e+01 1.0939833598348278e+01 
100 1 2 1.0280144874940533e+00 -1.9071997559741800e+02 1.0000000000000000e+00 7.6557827023831289e+00 1.7943840752152791e+01 1.0939833598359664e+01 
61 1 2 1.0280144989863047e+00 -1.9435677133308468e+02 1.0000000000000000e+00 7.6558849575757311e+00 1.7944077285766369e+01 1.0938221869587228e+01 
167 1 2 1.0280632971877661e+00 -1.8582895286924341e+02 1.0000000000000000e+00 1.0438451438757784e+01 1.8891244589330981e+01 1.2186367942361199e+01 
126 1 2 1.0280632971877661e+00 -2.0786326931367259e+02 1.0000000000000000e+00 1.0438451438757790e+01 1.8891244589330984e+01 1.2186367942361187e+01 
66 1 2 1.0280632971877661e+00 -2.0948072472422010e+02 1.0000000000000000e+00 1.0438451438757779e+01 1.8891244589331016e+01 1.2186367942361183e+01 
64 1 2 1.0280632971877661e+00 -2.7295691323024425e+02 1.0000000000000000e+00 1.0438451438757777e+01 1.8891244589331013e+01 1.2186367942361189e+01 
168 1 2 1.0280632971877661e+00 -2.3513457761265389e+02 1.0000000000000000e+00 1.0438451438757779e+01 1.8891244589331013e+01 1.2186367942361189e+01 
162 1 2 1.0280632971877661e+00 -2.0581487574184129e+02 1.0000000000000000e+00 1.0438451438757779e+01 1.8891244589331016e+01 1.2186367942361183e+01 
161 1 2 1.0280632971877661e+00 -2.5278150020818569e+02 1.0000000000000000e+00 1.0438451438757779e+01 1.8891244589331016e+01 1.2186367942361183e+01 
38 1 2 1.0279973508628990e+00 -2.8400208138640141e+02 1.0000000000000000e+00 1.1115079835533946e+01 1.4467275883110165e+01 1.4639933659413865e+01 
55 1 2 1.0279973508628986e+00 -2.2790242792602453e+02 1.0000000000000000e+00 1.1115079835533924e+01 1.4467275883110155e+01 1.4639933659413847e+01 
73 1 2 1.0279973508628983e+00 -2.3376338356222644e+02 1.0000000000000000e+00 1.1115079835533987e+01 1.4467275883110188e+01 1.4639933659413911e+01 
37 1 2 1.0279973508628986e+00 -2.9722998259652326e+02 1.0000000000000000e+00 1.1115079835533924e+01 1.4467275883110155e+01 1.4639933659413847e+01 
6 1 2 1.0280030645999687e+00 -1.7702601050170964e+02 1.0000000000000000e+00 1.0601001237802352e+01 1.5772858508143468e+01 1.5654612045935767e+01 
130 1 2 1.0280030645999689e+00 -2.7142023273670264e+02 1.0000000000000000e+00 1.0601001237802389e+01 1.5772858508143457e+01 1.5654612045935821e+01 
36 1 2 1.0280030645999687e+00 -1.9551038371963310e+02 1.0000000000000000e+00 1.0601001237802357e+01 1.5772858508143489e+01 1.5654612045935771e+01 
76 1 2 1.0280030645999689e+00 -2.3534359982081139e+02 1.0000000000000000e+00 1.0601001237802350e+01 1.5772858508143500e+01 1.5654612045935760e+01 
2 1 2 1.0280078012555622e+00 -3.0475555773776489e+02 1.0000000000000000e+00 7.0607083569791076e+00 1.7145517595406758e+01 1.6602504481651842e+01 
1 1 2 1.0280078012555622e+00 -2.9869711864196796e+02 1.0000000000000000e+00 7.0607083569791094e+00 1.7145517595406748e+01 1.6602504481651835e+01 
32 1 2 1.0280078012555622e+00 -2.5909402461753257e+02 1.0000000000000000e+00 7.0607083569791094e+00 1.7145517595406748e+01 1.6602504481651835e+01 
28 1 2 1.0280078012555622e+00 -2.2873086598063222e+02 1.0000000000000000e+00 7.0607083569791067e+00 1.7145517595406762e+01 1.6602504481651835e+01 
31 1 2 1.0280078012555622e+00 -2.9889777698347854e+02 1.0000000000000000e+00 7.0607083569791076e+00 1.7145517595406758e+01 1.6602504481651842e+01 
67 1 2 1.0280078012555622e+00 -2.5773407302275683e+02 1.0000000000000000e+00 7.0607083569791103e+00 1.7145517595406755e+01 1.6602504481651852e+01 
22 1 2 1.0280078012555622e+00 -2.2909647174318567e+02 1.0000000000000000e+00 7.0607083569791085e+00 1.7145517595406755e+01 1.6602504481651849e+01 
4 1 2 1.0280038320604841e+00 -2.7281381244446976e+02 1.0000000000000000e+00 9.8624134172767466e+00 1.8887277910432569e+01 1.8154537782350392e+01 
40 1 2 1.0280038320604836e+00 -2.4930503302090008e+02 1.0000000000000000e+00 9.8624134172767679e+00 1.8887277910432566e+01 1.8154537782350403e+01 
176 1 2 1.0280038320604841e+00 -9.7339584374533658e+01 1.0000000000000000e+00 9.8624134172767839e+00 1.8887277910432541e+01 1.8154537782350431e+01 
5 1 2 1.0280038320604841e+00 -2.4721296466177705e+02 1.0000000000000000e+00 9.8624134172767715e+00 1.8887277910432509e+01 1.8154537782350463e+01 
123 1 2 1.0280038320604843e+00 -2.0368044816360171e+02 1.0000000000000000e+00 9.8624134172767555e+00 1.8887277910432580e+01 1.8154537782350381e+01 
41 1 2 1.0280038320604838e+00 -2.3877735079217649e+02 1.0000000000000000e+00 9.8624134172767874e+00 1.8887277910432609e+01 1.8154537782350360e+01 
120 1 2 1.0279955470996762e+00 -2.4068564024284572e+02 1.0000000000000000e+00 1.0229249414828718e+01 1.7363379409316625e+01 1.6737349242745747e+01 
97 1 2 1.0279955470996764e+00 -2.6669813617291180e+02 1.0000000000000000e+00 1.0229249414828738e+01 1.7363379409316696e+01 1.6737349242745740e+01 
98 1 2 1.0279955470996762e+00 -2.3589730453186141e+02 1.0000000000000000e+00 1.0229249414828718e+01 1.7363379409316625e+01 1.6737349242745747e+01 
150 1 2 1.0279955470996764e+00 -2.7598386046011308e+02 1.0000000000000000e+00 1.0229249414828745e+01 1.7363379409316718e+01 1.6737349242745736e+01 
87 1 2 1.0279895110885064e+00 -2.3757388747639061e+02 1.0000000000000000e+00 1.6381016875647592e+01 3.5708091231627170e-01 1.1896211391639589e+01 
81 1 2 1.0279895110885064e+00 -2.1662101530295868e+02 1.0000000000000000e+00 1.6381016875647592e+01 3.5708091231627170e-01 1.1896211391639589e+01 
145 1 2 1.0279895110885064e+00 -2.6351681327552183e+02 1.0000000000000000e+00 1.6381016875647585e+01 3.5708091231625139e-01 1.1896211391639596e+01 
88 1 2 1.0279895110885064e+00 -2.2958461121168054e+02 1.0000000000000000e+00 1.6381016875647607e+01 3.5708091231623712e-01 1.1896211391639614e+01 
93 1 2 1.0279895110885064e+00 -1.5854886143188818e+02 1.0000000000000000e+00 1.6381016875647585e+01 3.5708091231625139e-01 1.1896211391639596e+01 
51 1 2 1.0279895110885064e+00 -2.4966457236509547e+02 1.0000000000000000e+00 1.6381016875647607e+01 3.5708091231623712e-01 1.1896211391639614e+01 
117 1 2 1.0279895110885064e+00 -2.0461911956438743e+02 1.0000000000000000e+00 1.6381016875647592e+01 3.5708091231627170e-01 1.1896211391639589e+01 
99 1 2 1.0280028077704937e+00 -2.7043441079157367e+02 1.0000000000000000e+00 1.9412213745192108e+01 2.3186011958439821e+00 1.3711283085415765e+01 
109 1 2 1.0280028077704937e+00 -2.9619326120001693e+02 1.0000000000000000e+00 1.9412213745192112e+01 2.3186011958439736e+00 1.3711283085415753e+01 
114 1 2 1.0280028077704937e+00 -2.1661698362464011e+02 1.0000000000000000e+00 1.9412213745192108e+01 2.3186011958439829e+00 1.3711283085415767e+01 
129 1 2 1.0280028077704937e+00 -2.1584300725559490e+02 1.0000000000000000e+00 1.9412213745192108e+01 2.3186011958439821e+00 1.3711283085415765e+01 
158 1 2 1.0280028077704937e+00 -2.1874835474560859e+02 1.0000000000000000e+00 1.9412213745192108e+01 2.3186011958439821e+00 1.3711283085415765e+01 
128 1 2 1.0280028077704937e+00 -3.0707867857456944e+02 1.0000000000000000e+00 1.9412213745192108e+01 2.3186011958439798e+00 1.3711283085415761e+01 
149 1 2 1.0280028077704937e+00 -2.5293780318205398e+02 1.0000000000000000e+00 1.9412213745192108e+01 2.3186011958439838e+00 1.3711283085415769e+01 
65 1 2 1.0276828334987596e+00 -2.9334646007578084e+02 1.0000000000000000e+00 1.3919479023376269e+01 3.6400016188930506e-01 1.9015157480167819e+01 
35 1 2 1.0276828334987596e+00 -2.3286366234489995e+02 1.0000000000000000e+00 1.3919479023376280e+01 3.6400016188932161e-01 1.9015157480167829e+01 
59 1 2 1.0276828334987596e+00 -1.6836880169159826e+02 1.0000000000000000e+00 1.3919479023376281e+01 3.6400016188932344e-01 1.9015157480167829e+01 
23 1 2 1.0276828334987596e+00 -2.4321562507591221e+02 1.0000000000000000e+00 1.3919479023376269e+01 3.6400016188930506e-01 1.9015157480167819e+01 
29 1 2 1.0276828334987596e+00 -2.4867485570359230e+02 1.0000000000000000e+00 1.3919479023376269e+01 3.6400016188930506e-01 1.9015157480167819e+01 
30 1 2 1.0276828334987596e+00 -2.2887220618191103e+02 1.0000000000000000e+00 1.3919479023376264e+01 3.6400016188929785e-01 1.9015157480167801e+01 
34 1 2 1.0276828334987596e+00 -2.4733571184198865e+02 1.0000000000000000e+00 1.3919479023376281e+01 3.6400016188932344e-01 1.9015157480167829e+01 
179 1 2 1.0283064379006588e+00 -1.8524905510186181e+02 1.0000000000000000e+00 1.6201934136680755e+01 1.6772145780892046e+01 1.4492375298507847e+00 
142 1 2 1.0283064379006572e+00 -2.0663766967495005e+02 1.0000000000000000e+00 1.6201934136680769e+01 1.6772145780892046e+01 1.4492375298507707e+00 
70 1 2 1.0283064379006588e+00 -2.6155883447607005e+02 1.0000000000000000e+00 1.6201934136680755e+01 1.6772145780892046e+01 1.4492375298507847e+00 
71 1 2 1.0283064379006572e+00 -2.9109569469056459e+02 1.0000000000000000e+00 1.6201934136680769e+01 1.6772145780892046e+01 1.4492375298507707e+00 
178 1 2 1.0283064379006572e+00 -1.8067723641263169e+02 1.0000000000000000e+00 1.6201934136680769e+01 1.6772145780892046e+01 1.4492375298507707e+00 
164 1 2 1.0283064379006586e+00 -2.5808960676185126e+02 1.0000000000000000e+00 1.6201934136680752e+01 1.6772145780892046e+01 1.4492375298507862e+00 
170 1 2 1.0283064379006572e+00 -2.0214093891297958e+02 1.0000000000000000e+00 1.6201934136680769e+01 1.6772145780892046e+01 1.4492375298507707e+00 
138 1 2 1.0276831319606892e+00 -9.2755390912707185e+01 1.0000000000000000e+00 1.7606623574052456e+01 1.8871948879669556e+01 3.5281987463613214e+00 
174 1 2 1.0276831319606892e+00 -3.1544881528175677e+02 1.0000000000000000e+00 1.7606623574052456e+01 1.8871948879669556e+01 3.5281987463613214e+00 
132 1 2 1.0276831319606892e+00 -1.0001022696263078e+02 1.0000000000000000e+00 1.7606623574052456e+01 1.8871948879669556e+01 3.5281987463613214e+00 
47 1 2 1.0276831319606892e+00 -2.6113664826544328e+02 1.0000000000000000e+00 1.7606623574052456e+01 1.8871948879669556e+01 3.5281987463613214e+00 
180 1 2 1.0276831319606892e+00 -3.1843993471879060e+02 1.0000000000000000e+00 1.7606623574052456e+01 1.8871948879669556e+01 3.5281987463613214e+00 
173 1 2 1.0276831319606892e+00 -2.3795182575309809e+02 1.0000000000000000e+00 1.7606623574052456e+01 1.8871948879669556e+01 3.5281987463613214e+00 
175 1 2 1.0276831319606892e+00 -2.4096969248988628e+02 1.0000000000000000e+00 1.7606623574052449e+01 1.8871948879669578e+01 3.5281987463613049e+00 
137 1 2 1.0279895110885069e+00 -1.7766800855673696e+02 1.0000000000000000e+00 1.7716676536178230e+01 1.9020755449249673e+01 9.2313143082692548e+00 
101 1 2 1.0279895110885069e+00 -1.8088683586524266e+02 1.0000000000000000e+00 1.7716676536188153e+01 1.9020755449268805e+01 9.2313143082646256e+00 
27 1 2 1.0279895110885069e+00 -2.1760686375094349e+02 1.0000000000000000e+00 1.7716676536187148e+01 1.9020755449262772e+01 9.2313143082671480e+00 
107 1 2 1.0279895110885069e+00 -1.9168874824188813e+02 1.0000000000000000e+00 1.7716676536186281e+01 1.9020755449268528e+01 9.2313143082638245e+00 
102 1 2 1.0279895110885069e+00 -2.3181652425281285e+02 1.0000000000000000e+00 1.7716676536188153e+01 1.9020755449268805e+01 9.2313143082646256e+00 
26 1 2 1.0279895110885069e+00 -2.2734127151701202e+02 1.0000000000000000e+00 1.7716676536188153e+01 1.9020755449268805e+01 9.2313143082646256e+00 
143 1 2 1.0279895110885069e+00 -1.9619759826656892e+02 1.0000000000000000e+00 1.7716676536188153e+01 1.9020755449268805e+01 9.2313143082646256e+00 
105 1 2 1.0280121936337305e+00 -2.9966879558625362e+02 1.0000000000000000e+00 1.9147396668819152e+01 1.6667428462126235e+01 1.3722259006663762e+01 
139 1 2 1.0280121936337305e+00 -2.2989649714136311e+02 1.0000000000000000e+00 1.9147396668819152e+01 1.6667428462126235e+01 1.3722259006663762e+01 
104 1 2 1.0280121936337305e+00 -3.0710613134003108e+02 1.0000000000000000e+00 1.9147396668819152e+01 1.6667428462126235e+01 1.3722259006663762e+01 
140 1 2 1.0280121936337305e+00 -2.0166278848566421e+02 1.0000000000000000e+00 1.9147396668819152e+01 1.6667428462126235e+01 1.3722259006663762e+01 
141 1 2 1.0280121936337296e+00 -2.7232431683606609e+02 1.0000000000000000e+00 1.9147396668819177e+01 1.6667428462126193e+01 1.3722259006663792e+01 
134 1 2 1.0280121936337299e+00 -2.2317399414835774e+02 1.0000000000000000e+00 1.9147396668819191e+01 1.6667428462126193e+01 1.3722259006663794e+01 
133 1 2 1.0280121936337299e+00 -2.2413593080904485e+02 1.0000000000000000e+00 1.9147396668819191e+01 1.6667428462126193e+01 1.3722259006663794e+01 
20 1 2 1.0279966130971976e+00 -2.1000098535977742e+02 1.0000000000000000e+00 1.9082530578100258e+01 1.9584440741722108e+01 1.5407243015094378e+01 
10 1 2 1.0279966130971985e+00 -2.2250174761439251e+02 1.0000000000000000e+00 1.9082530578090356e+01 1.9584440741709425e+01 1.5407243015097846e+01 
9 1 2 1.0279966130971974e+00 -1.9568260357418279e+02 1.0000000000000000e+00 1.9082530578098496e+01 1.9584440741720606e+01 1.5407243015097910e+01 
94 1 2 1.0279966135274901e+00 -3.1221162568958243e+02 1.0000000000000000e+00 1.9082537221691741e+01 1.9584451061113040e+01 1.5407247736269834e+01 
15 1 2 1.0279966130971976e+00 -1.8920163815123431e+02 1.0000000000000000e+00 1.9082530578108038e+01 1.9584440741733943e+01 1.5407243015098929e+01 
14 1 2 1.0279966130971983e+00 -2.1215255304305373e+02 1.0000000000000000e+00 1.9082530578090552e+01 1.9584440741709628e+01 1.5407243015097590e+01 
80 1 2 1.0283087055510585e+00 -1.7482862061479716e+02 1.0000000000000000e+00 1.6799761371140626e+01 1.8895289905711085e+01 1.8513857755089294e+01 
85 1 2 1.0283087055510585e+00 -2.0984474222378586e+02 1.0000000000000000e+00 1.6799761371139329e+01 1.8895289905708655e+01 1.8513857755088377e+01 
50 1 2 1.0283087055510582e+00 -1.8400286980403112e+02 1.0000000000000000e+00 1.6799761371142097e+01 1.8895289905710939e+01 1.8513857755094840e+01 
79 1 2 1.0283087055510598e+00 -1.7953584801926326e+02 1.0000000000000000e+00 1.6799761371144793e+01 1.8895289905706175e+01 1.8513857755111935e+01 
12 1 2 1.0283087055510585e+00 -1.7758144788811825e+02 1.0000000000000000e+00 1.6799761371139329e+01 1.8895289905708655e+01 1.8513857755088377e+01 
86 1 2 1.0283087055510582e+00 -1.6880846846453485e+02 1.0000000000000000e+00 1.6799761371142097e+01 1.8895289905710939e+01 1.8513857755094840e+01 
43 1 2 1.0283087055510598e+00 -1.2146273295196059e+02 1.0000000000000000e+00 1.6799761371144793e+01 1.8895289905706175e+01 1.8513857755111935e+01 

Velocities

11 -2.1332162381833997e-01 -1.2916304728077324e-01 2.9325166417061849e-01
122 -2.1332162381833997e-01 -1.2916304728077324e-01 2.9325166417061849e-01
84 -2.1332162381833997e-01 -1.2916304728077324e-01 2.9325166417061849e-01
60 -2.1332162381833997e-01 -1.2916304728077324e-01 2.9325166417061849e-01
72 -2.1332162381833997e-01 -1.2916304728077324e-01 2.9325166417061849e-01
103 -2.1332162381833997e-01 -1.2916304728077324e-01 2.9325166417061849e-01
108 -2.1332162381833997e-01 -1.2916304728077324e-01 2.9325166417061849e-01
146 -2.0910174209023397e-01 -1.3027918661293389e-01 3.0176173291419417e-01
111 -2.0910174209023397e-01 -1.3027918661293389e-01 3.0176173291419417e-01
53 -2.0910174209023372e-01 -1.3027918661293400e-01 3.0176173291419445e-01
17 -2.0910174209023388e-01 -1.3027918661293386e-01 3.0176173291419428e-01
16 -2.0910174209023388e-01 -1.3027918661293386e-01 3.0176173291419428e-01
90 -2.0910174209023397e-01 -1.3027918661293389e-01 3.0176173291419417e-01
25 -2.0910174209023397e-01 -1.3027918661293389e-01 3.0176173291419417e-01
46 -2.0910498563104721e-01 -1.3027891082493839e-01 3.0176099076402169e-01
3 -2.0910498563104668e-01 -1.3027891082493853e-01 3.0176099076402180e-01
148 -2.0910498563104721e-01 -1.3027891082493839e-01 3.0176099076402169e-01
39 -2.0910498563104721e-01 -1.3027891082493839e-01 3.0176099076402169e-01
49 -2.0910498563104721e-01 -1.3027891082493839e-01 3.0176099076402169e-01
112 -2.0910498563104721e-01 -1.3027891082493839e-01 3.0176099076402169e-01
45 -2.0910498563104721e-01 -1.3027891082493839e-01 3.0176099076402169e-01
110 -2.1491599756033999e-01 -1.1953534496481090e-01 2.8427198506031576e-01
156 -2.1494383687985116e-01 -1.1974707848642829e-01 2.8434856513531881e-01
113 -2.1494383690433785e-01 -1.1974707838749230e-01 2.8434856511165424e-01
92 -2.1494383690690402e-01 -1.1974707837711517e-01 2.8434856510916923e-01
91 -2.1494383687664850e-01 -1.1974707849935844e-01 2.8434856513840273e-01
44 -2.1370647020469427e-01 -1.2127200351992344e-01 2.8444085273662945e-01
106 -2.1370647020469641e-01 -1.2127200351992884e-01 2.8444085273662445e-01
75 -2.1370647020469993e-01 -1.2127200351994456e-01 2.8444085273660991e-01
8 -2.1370647020471006e-01 -1.2127200351996248e-01 2.8444085273658709e-01
7 -2.1370647020469938e-01 -1.2127200351993596e-01 2.8444085273661668e-01
58 -2.1986961533203947e-01 -1.2485362745167723e-01 2.8878146854603320e-01
166 -2.1986961533203947e-01 -1.2485362745167723e-01 2.8878146854603320e-01
154 -2.1986961533583224e-01 -1.2485362745117559e-01 2.8878146855216719e-01
52 -2.1986961533664615e-01 -1.2485362745180092e-01 2.8878146855454834e-01
160 -2.1986961533423355e-01 -1.2485362744996437e-01 2.8878146854713305e-01
165 -2.1986961533203947e-01 -1.2485362745167723e-01 2.8878146854603320e-01
159 -2.1986961533587140e-01 -1.2485362745083170e-01 2.8878146855157194e-01
171 -2.1361089971147712e-01 -1.2062675489911850e-01 2.8473348971534290e-01
74 -2.1361089971146169e-01 -1.2062675489913940e-01 2.8473348971534196e-01
135 -2.1361089971147446e-01 -1.2062675489912297e-01 2.8473348971534385e-01
177 -2.1361089971148239e-01 -1.2062675489911079e-01 2.8473348971534435e-01