LAMMPS data file via write_data, version 30 Jul 2016, timestep = 50400000

180 atoms
2 atom types

0.0000000000000000e+00 2.0000000000000000e+01 xlo xhi
0.0000000000000000e+00 2.0000000000000000e+01 ylo yhi
0.0000000000000000e+00 2.0000000000000000e+01 zlo zhi

Masses

1 3.896
2 4.31

Atoms # meso-molecular

38 1 2 1.0279973696284834e+00 -2.8400208013177109e+02 1.0000000000000000e+00 2.4190920890983132e+00 9.6134380534044848e+00 5.9617394754627488e+00 
55 1 2 1.0279973696284836e+00 -2.2790242667191362e+02 1.0000000000000000e+00 2.4190920890982985e+00 9.6134380534044741e+00 5.9617394754627329e+00 
73 1 2 1.0279973696284839e+00 -2.3376338230811552e+02 1.0000000000000000e+00 2.4190920890983523e+00 9.6134380534045061e+00 5.9617394754627906e+00 
37 1 2 1.0279973696284836e+00 -2.9722998134189294e+02 1.0000000000000000e+00 2.4190920890982985e+00 9.6134380534044741e+00 5.9617394754627329e+00 
116 1 2 1.0280025087835851e+00 -1.5739957617257784e+02 1.0000000000000000e+00 3.9046949557384090e+00 9.8086230738848794e+00 4.2723413122759881e+00 
136 1 2 1.0280025087835842e+00 -2.6082740638708600e+02 1.0000000000000000e+00 3.9046949557384458e+00 9.8086230738849434e+00 4.2723413122761835e+00 
147 1 2 1.0280025087835840e+00 -2.6802337878288171e+02 1.0000000000000000e+00 3.9046949557384973e+00 9.8086230738849611e+00 4.2723413122762874e+00 
56 1 2 1.0280025087835856e+00 -2.5164197246181271e+02 1.0000000000000000e+00 3.9046949557385711e+00 9.8086230738848403e+00 4.2723413122760734e+00 
125 1 2 1.0279990005617416e+00 -1.8432675975668300e+02 1.0000000000000000e+00 3.8285242108323834e+00 8.0982844454922329e+00 4.1572400367263880e+00 
57 1 2 1.0279990005617414e+00 -2.6211717989039334e+02 1.0000000000000000e+00 3.8285242108323483e+00 8.0982844454922258e+00 4.1572400367263906e+00 
63 1 2 1.0279990005617410e+00 -2.2899594120122904e+02 1.0000000000000000e+00 3.8285242108323279e+00 8.0982844454921565e+00 4.1572400367266216e+00 
124 1 2 1.0279990005617405e+00 -2.0069982905021482e+02 1.0000000000000000e+00 3.8285242108323829e+00 8.0982844454922045e+00 4.1572400367264786e+00 
131 1 2 1.0279990005617425e+00 -1.5400775585085390e+02 1.0000000000000000e+00 3.8285242108323896e+00 8.0982844454921903e+00 4.1572400367265470e+00 
126 1 2 1.0279903554644083e+00 -2.0786319936180647e+02 1.0000000000000000e+00 1.8234125120377314e+00 1.3751395907903959e+01 3.8049150507804725e+00 
161 1 2 1.0279903554644083e+00 -2.5278143025631957e+02 1.0000000000000000e+00 1.8234125120377251e+00 1.3751395907903987e+01 3.8049150507804712e+00 
162 1 2 1.0279903554644083e+00 -2.0581480578997517e+02 1.0000000000000000e+00 1.8234125120377251e+00 1.3751395907903987e+01 3.8049150507804712e+00 
66 1 2 1.0279903554644083e+00 -2.0948065477235397e+02 1.0000000000000000e+00 1.8234125120377251e+00 1.3751395907903987e+01 3.8049150507804712e+00 
168 1 2 1.0279903554644083e+00 -2.3513450766078776e+02 1.0000000000000000e+00 1.8234125120377234e+00 1.3751395907903985e+01 3.8049150507804748e+00 
64 1 2 1.0279903554644083e+00 -2.7295684327827587e+02 1.0000000000000000e+00 1.8234125120377220e+00 1.3751395907903984e+01 3.8049150507804783e+00 
167 1 2 1.0279903554644083e+00 -1.8582888291737729e+02 1.0000000000000000e+00 1.8234125120377283e+00 1.3751395907903953e+01 3.8049150507804814e+00 
6 1 2 1.0280034562598404e+00 -1.7702600601879578e+02 1.0000000000000000e+00 1.8814835753914521e+00 1.0931783149504144e+01 6.9716439937250119e+00 
76 1 2 1.0280034562598404e+00 -2.3534359533789754e+02 1.0000000000000000e+00 1.8814835753914489e+00 1.0931783149504172e+01 6.9716439937250057e+00 
36 1 2 1.0280034562598401e+00 -1.9551037923671925e+02 1.0000000000000000e+00 1.8814835753914574e+00 1.0931783149504161e+01 6.9716439937250199e+00 
130 1 2 1.0280034562598401e+00 -2.7142022825350739e+02 1.0000000000000000e+00 1.8814835753914911e+00 1.0931783149504135e+01 6.9716439937250705e+00 
98 1 2 1.0279948796801981e+00 -2.3589730471695609e+02 1.0000000000000000e+00 1.4984517011005569e+00 1.2517382031716945e+01 8.0303487766445247e+00 
120 1 2 1.0279948796801981e+00 -2.4068564042794040e+02 1.0000000000000000e+00 1.4984517011005569e+00 1.2517382031716945e+01 8.0303487766445247e+00 
97 1 2 1.0279948796801983e+00 -2.6669813635777581e+02 1.0000000000000000e+00 1.4984517011005787e+00 1.2517382031717023e+01 8.0303487766445123e+00 
150 1 2 1.0279948796801981e+00 -2.7598386064497709e+02 1.0000000000000000e+00 1.4984517011005836e+00 1.2517382031717045e+01 8.0303487766445070e+00 
176 1 2 1.0280044432015469e+00 -9.7339585638758550e+01 1.0000000000000000e+00 1.1210265949485083e+00 1.4043522890471378e+01 9.4403977264981425e+00 
41 1 2 1.0280044432015465e+00 -2.3877735205637629e+02 1.0000000000000000e+00 1.1210265949485190e+00 1.4043522890471445e+01 9.4403977264980750e+00 
40 1 2 1.0280044432015467e+00 -2.4930503428509988e+02 1.0000000000000000e+00 1.1210265949484890e+00 1.4043522890471401e+01 9.4403977264981140e+00 
4 1 2 1.0280044432015463e+00 -2.7281381370888357e+02 1.0000000000000000e+00 1.1210265949484686e+00 1.4043522890471413e+01 9.4403977264980981e+00 
5 1 2 1.0280044432015469e+00 -2.4721296592597685e+02 1.0000000000000000e+00 1.1210265949484954e+00 1.4043522890471342e+01 9.4403977264981780e+00 
123 1 2 1.0280044432015467e+00 -2.0368044942780151e+02 1.0000000000000000e+00 1.1210265949484826e+00 1.4043522890471436e+01 9.4403977264980732e+00 
65 1 2 1.0279056266011617e+00 -2.9334638319815144e+02 1.0000000000000000e+00 5.2755375500391253e+00 1.4873313282210537e+01 1.0228671577455520e+01 
23 1 2 1.0279056266011617e+00 -2.4321554819831925e+02 1.0000000000000000e+00 5.2755375500391253e+00 1.4873313282210537e+01 1.0228671577455520e+01 
35 1 2 1.0279056266011617e+00 -2.3286358546730699e+02 1.0000000000000000e+00 5.2755375500391271e+00 1.4873313282210542e+01 1.0228671577455522e+01 
59 1 2 1.0279056266011617e+00 -1.6836872481400530e+02 1.0000000000000000e+00 5.2755375500391279e+00 1.4873313282210544e+01 1.0228671577455520e+01 
29 1 2 1.0279056266011617e+00 -2.4867477882599934e+02 1.0000000000000000e+00 5.2755375500391253e+00 1.4873313282210537e+01 1.0228671577455520e+01 
30 1 2 1.0279056266011617e+00 -2.2887212930431807e+02 1.0000000000000000e+00 5.2755375500391235e+00 1.4873313282210535e+01 1.0228671577455515e+01 
34 1 2 1.0279056266011617e+00 -2.4733563496439569e+02 1.0000000000000000e+00 5.2755375500391279e+00 1.4873313282210544e+01 1.0228671577455520e+01 
146 1 2 1.0279999017956780e+00 -1.7171705865149659e+02 1.0000000000000000e+00 1.2451566538394580e+01 3.8001474822043884e+00 7.4892983955196177e+00 
25 1 2 1.0279999017956780e+00 -7.0908876213044209e+01 1.0000000000000000e+00 1.2451566538394580e+01 3.8001474822043884e+00 7.4892983955196177e+00 
90 1 2 1.0279999017956780e+00 -1.9473059224906893e+02 1.0000000000000000e+00 1.2451566538394580e+01 3.8001474822043884e+00 7.4892983955196177e+00 
16 1 2 1.0279999017956780e+00 -2.0986447161619941e+02 1.0000000000000000e+00 1.2451566538394594e+01 3.8001474822043746e+00 7.4892983955195831e+00 
17 1 2 1.0279999017956780e+00 -2.1049702305318166e+02 1.0000000000000000e+00 1.2451566538394594e+01 3.8001474822043746e+00 7.4892983955195831e+00 
53 1 2 1.0279999017956780e+00 -1.4045104793413219e+02 1.0000000000000000e+00 1.2451566538394623e+01 3.8001474822043972e+00 7.4892983955195325e+00 
111 1 2 1.0279999017956780e+00 -2.9670258801221263e+02 1.0000000000000000e+00 1.2451566538394580e+01 3.8001474822043884e+00 7.4892983955196177e+00 
81 1 2 1.0280377141582204e+00 -2.1662101079490100e+02 1.0000000000000000e+00 7.7721066563685319e+00 1.5927102514594653e+01 3.2400072001307527e+00 
117 1 2 1.0280377141582204e+00 -2.0461911505632975e+02 1.0000000000000000e+00 7.7721066563685319e+00 1.5927102514594653e+01 3.2400072001307527e+00 
51 1 2 1.0280377141582209e+00 -2.4966456785703778e+02 1.0000000000000000e+00 7.7721066563685604e+00 1.5927102514594617e+01 3.2400072001307847e+00 
93 1 2 1.0280377141582204e+00 -1.5854885692383050e+02 1.0000000000000000e+00 7.7721066563685346e+00 1.5927102514594631e+01 3.2400072001307643e+00 
88 1 2 1.0280377141582209e+00 -2.2958460670362285e+02 1.0000000000000000e+00 7.7721066563685604e+00 1.5927102514594617e+01 3.2400072001307847e+00 
145 1 2 1.0280377141582204e+00 -2.6351680876747065e+02 1.0000000000000000e+00 7.7721066563685346e+00 1.5927102514594631e+01 3.2400072001307643e+00 
87 1 2 1.0280377141582204e+00 -2.3757388296833292e+02 1.0000000000000000e+00 7.7721066563685319e+00 1.5927102514594653e+01 3.2400072001307527e+00 
137 1 2 1.0279577618215818e+00 -1.7766800856701838e+02 1.0000000000000000e+00 9.1072564973611012e+00 1.4591963411960590e+01 5.7362460506175639e-01 
101 1 2 1.0279577618215818e+00 -1.8088683587552407e+02 1.0000000000000000e+00 9.1072564973704164e+00 1.4591963411978472e+01 5.7362460505745894e-01 
27 1 2 1.0279577618215818e+00 -2.1760686376122490e+02 1.0000000000000000e+00 9.1072564973694607e+00 1.4591963411972843e+01 5.7362460505980395e-01 
107 1 2 1.0279577618215818e+00 -1.9168874825216955e+02 1.0000000000000000e+00 9.1072564973686276e+00 1.4591963411978217e+01 5.7362460505669666e-01 
102 1 2 1.0279577618215818e+00 -2.3181652426309427e+02 1.0000000000000000e+00 9.1072564973704164e+00 1.4591963411978472e+01 5.7362460505745894e-01 
26 1 2 1.0279577618215818e+00 -2.2734127152729343e+02 1.0000000000000000e+00 9.1072564973704164e+00 1.4591963411978472e+01 5.7362460505745894e-01 
143 1 2 1.0279577618215818e+00 -1.9619759827685033e+02 1.0000000000000000e+00 9.1072564973704164e+00 1.4591963411978472e+01 5.7362460505745894e-01 
58 1 2 1.0278347167555428e+00 -1.6949882645413362e+02 1.0000000000000000e+00 1.2944711701558596e+01 1.3975200045971508e+01 2.5518821608215485e+00 
159 1 2 1.0278347167555417e+00 -2.9543482336210297e+02 1.0000000000000000e+00 1.2944711701264570e+01 1.3975200046064801e+01 2.5518821612600293e+00 
165 1 2 1.0278347167555428e+00 -2.8487581227426762e+02 1.0000000000000000e+00 1.2944711701558596e+01 1.3975200045971508e+01 2.5518821608215485e+00 
160 1 2 1.0278347167555371e+00 -3.3364447174262500e+02 1.0000000000000000e+00 1.2944711701361431e+01 1.3975200046076758e+01 2.5518821609009943e+00 
52 1 2 1.0278347167555468e+00 -1.7400164184086543e+02 1.0000000000000000e+00 1.2944711701231968e+01 1.3975200046036564e+01 2.5518821615026570e+00 
154 1 2 1.0278347167555386e+00 -1.8841638669403841e+02 1.0000000000000000e+00 1.2944711701274544e+01 1.3975200046048847e+01 2.5518821613089084e+00 
166 1 2 1.0278347167555428e+00 -2.7763105361507792e+02 1.0000000000000000e+00 1.2944711701558596e+01 1.3975200045971508e+01 2.5518821608215485e+00 
105 1 2 1.0280096925372977e+00 -2.9966875639002336e+02 1.0000000000000000e+00 1.0383983514685067e+01 1.1762217644543632e+01 5.1867357881463274e+00 
139 1 2 1.0280096925372977e+00 -2.2989645794514672e+02 1.0000000000000000e+00 1.0383983514685067e+01 1.1762217644543632e+01 5.1867357881463274e+00 
104 1 2 1.0280096925372977e+00 -3.0710609214380082e+02 1.0000000000000000e+00 1.0383983514685067e+01 1.1762217644543632e+01 5.1867357881463274e+00 
140 1 2 1.0280096925372977e+00 -2.0166274928944782e+02 1.0000000000000000e+00 1.0383983514685067e+01 1.1762217644543632e+01 5.1867357881463274e+00 
141 1 2 1.0280096925372975e+00 -2.7232427763983583e+02 1.0000000000000000e+00 1.0383983514685092e+01 1.1762217644543597e+01 5.1867357881463585e+00 
134 1 2 1.0280096925372972e+00 -2.2317395495214134e+02 1.0000000000000000e+00 1.0383983514685113e+01 1.1762217644543590e+01 5.1867357881463594e+00 
133 1 2 1.0280096925372972e+00 -2.2413589161282846e+02 1.0000000000000000e+00 1.0383983514685113e+01 1.1762217644543590e+01 5.1867357881463594e+00 
128 1 2 1.0280087911685540e+00 -3.0707867090220060e+02 1.0000000000000000e+00 1.0794025009484420e+01 1.7458733932913429e+01 4.9763732037343642e+00 
158 1 2 1.0280087911685540e+00 -2.1874834707333363e+02 1.0000000000000000e+00 1.0794025009484418e+01 1.7458733932913432e+01 4.9763732037343686e+00 
129 1 2 1.0280087911685540e+00 -2.1584299958331994e+02 1.0000000000000000e+00 1.0794025009484418e+01 1.7458733932913432e+01 4.9763732037343686e+00 
114 1 2 1.0280087911685540e+00 -2.1661697595236515e+02 1.0000000000000000e+00 1.0794025009484420e+01 1.7458733932913439e+01 4.9763732037343802e+00 
109 1 2 1.0280087911685540e+00 -2.9619325352764810e+02 1.0000000000000000e+00 1.0794025009484423e+01 1.7458733932913425e+01 4.9763732037343589e+00 
99 1 2 1.0280087911685540e+00 -2.7043440311920483e+02 1.0000000000000000e+00 1.0794025009484418e+01 1.7458733932913432e+01 4.9763732037343686e+00 
149 1 2 1.0280087911685540e+00 -2.5293779550977902e+02 1.0000000000000000e+00 1.0794025009484420e+01 1.7458733932913439e+01 4.9763732037343802e+00 
62 1 2 1.0280012591193202e+00 -1.5722037488800191e+02 1.0000000000000000e+00 1.2054507064705522e+01 1.3326841652523209e+01 7.6182015834894212e+00 
54 1 2 1.0280012591193206e+00 -1.7280556411609135e+02 1.0000000000000000e+00 1.2054507064705636e+01 1.3326841652523333e+01 7.6182015834894568e+00 
33 1 2 1.0280012591193208e+00 -1.9192410960382887e+02 1.0000000000000000e+00 1.2054507064705575e+01 1.3326841652523314e+01 7.6182015834894532e+00 
69 1 2 1.0280012591193202e+00 -1.8571730162369684e+02 1.0000000000000000e+00 1.2054507064705522e+01 1.3326841652523209e+01 7.6182015834894212e+00 
68 1 2 1.0280012591193202e+00 -1.6975462278000310e+02 1.0000000000000000e+00 1.2054507064705582e+01 1.3326841652523274e+01 7.6182015834894408e+00 
43 1 2 1.0280973515021208e+00 -1.2146268814513911e+02 1.0000000000000000e+00 8.2090756131218718e+00 1.3621994668471965e+01 9.5152622723745033e+00 
86 1 2 1.0280973515021199e+00 -1.6880842365772307e+02 1.0000000000000000e+00 8.2090756131153313e+00 1.3621994668483019e+01 9.5152622723191342e+00 
12 1 2 1.0280973515021201e+00 -1.7758140308130646e+02 1.0000000000000000e+00 8.2090756131066733e+00 1.3621994668473890e+01 9.5152622722978251e+00 
79 1 2 1.0280973515021208e+00 -1.7953580321245147e+02 1.0000000000000000e+00 8.2090756131218718e+00 1.3621994668471965e+01 9.5152622723745033e+00 
50 1 2 1.0280973515021199e+00 -1.8400282499721934e+02 1.0000000000000000e+00 8.2090756131153313e+00 1.3621994668483019e+01 9.5152622723191342e+00 
85 1 2 1.0280973515021201e+00 -2.0984469741697407e+02 1.0000000000000000e+00 8.2090756131066733e+00 1.3621994668473890e+01 9.5152622722978251e+00 
80 1 2 1.0280973515021206e+00 -1.7482857580798537e+02 1.0000000000000000e+00 8.2090756131110627e+00 1.3621994668481927e+01 9.5152622723012428e+00 
14 1 2 1.0279980218147931e+00 -2.1215249354902525e+02 1.0000000000000000e+00 1.0432609001497831e+01 1.4756576726241187e+01 6.7189398414010002e+00 
94 1 2 1.0279980218755596e+00 -3.1221156619736905e+02 1.0000000000000000e+00 1.0432615582072124e+01 1.4756586818705937e+01 6.7189443913029638e+00 
9 1 2 1.0279980218147928e+00 -1.9568254408015437e+02 1.0000000000000000e+00 1.0432609001505748e+01 1.4756576726251810e+01 6.7189398414014327e+00 
10 1 2 1.0279980218147939e+00 -2.2250168812036404e+02 1.0000000000000000e+00 1.0432609001497642e+01 1.4756576726241008e+01 6.7189398414012445e+00 
20 1 2 1.0279980218147935e+00 -2.1000092586574900e+02 1.0000000000000000e+00 1.0432609001507529e+01 1.4756576726253185e+01 6.7189398413981722e+00 
15 1 2 1.0279980218147939e+00 -1.8920157865720589e+02 1.0000000000000000e+00 1.0432609001515241e+01 1.4756576726264731e+01 6.7189398414025803e+00 
70 1 2 1.0279996288613920e+00 -2.6155880835894209e+02 1.0000000000000000e+00 7.9239053297830901e+00 1.2152326438664254e+01 1.3382070969308215e+01 
170 1 2 1.0279996288613920e+00 -2.0214091279582829e+02 1.0000000000000000e+00 7.9239053297831203e+00 1.2152326438664259e+01 1.3382070969308185e+01 
164 1 2 1.0279996288613920e+00 -2.5808958064472330e+02 1.0000000000000000e+00 7.9239053297830901e+00 1.2152326438664254e+01 1.3382070969308215e+01 
178 1 2 1.0279996288613920e+00 -1.8067721029548039e+02 1.0000000000000000e+00 7.9239053297831203e+00 1.2152326438664259e+01 1.3382070969308185e+01 
71 1 2 1.0279996288613920e+00 -2.9109566857343663e+02 1.0000000000000000e+00 7.9239053297831203e+00 1.2152326438664259e+01 1.3382070969308185e+01 
179 1 2 1.0279996288613920e+00 -1.8524902898471052e+02 1.0000000000000000e+00 7.9239053297830901e+00 1.2152326438664254e+01 1.3382070969308215e+01 
142 1 2 1.0279996288613920e+00 -2.0663764355779875e+02 1.0000000000000000e+00 7.9239053297831203e+00 1.2152326438664259e+01 1.3382070969308185e+01 
138 1 2 1.0279996288613911e+00 -9.2755309160046224e+01 1.0000000000000000e+00 9.3758135804589209e+00 1.4440248887558127e+01 1.5206275882755747e+01 
174 1 2 1.0279996288613911e+00 -3.1544873352910463e+02 1.0000000000000000e+00 9.3758135804589209e+00 1.4440248887558127e+01 1.5206275882755747e+01 
132 1 2 1.0279996288613911e+00 -1.0001014520996982e+02 1.0000000000000000e+00 9.3758135804589209e+00 1.4440248887558127e+01 1.5206275882755747e+01 
47 1 2 1.0279996288613911e+00 -2.6113656651279115e+02 1.0000000000000000e+00 9.3758135804589209e+00 1.4440248887558127e+01 1.5206275882755747e+01 
180 1 2 1.0279996288613911e+00 -3.1843985296613846e+02 1.0000000000000000e+00 9.3758135804589209e+00 1.4440248887558127e+01 1.5206275882755747e+01 
173 1 2 1.0279996288613911e+00 -2.3795174400043200e+02 1.0000000000000000e+00 9.3758135804589209e+00 1.4440248887558127e+01 1.5206275882755747e+01 
175 1 2 1.0279996288613911e+00 -2.4096961073722019e+02 1.0000000000000000e+00 9.3758135804589156e+00 1.4440248887558138e+01 1.5206275882755738e+01 
18 1 2 1.0280075836857157e+00 -2.3860012851079350e+02 1.0000000000000000e+00 1.9825168852576706e+01 8.6968917447219649e+00 4.3095843806536314e+00 
24 1 2 1.0280075836857157e+00 -2.7809345543582873e+02 1.0000000000000000e+00 1.9825168852576418e+01 8.6968917447220733e+00 4.3095843806537451e+00 
19 1 2 1.0280075836857161e+00 -2.4881021034708189e+02 1.0000000000000000e+00 1.9825168852575811e+01 8.6968917447225031e+00 4.3095843806537646e+00 
96 1 2 1.0280075836857165e+00 -2.5994102502922459e+02 1.0000000000000000e+00 1.9825168852576414e+01 8.6968917447223522e+00 4.3095843806534466e+00 
13 1 2 1.0280075836857157e+00 -1.2268501831604992e+02 1.0000000000000000e+00 1.9825168852576418e+01 8.6968917447220733e+00 4.3095843806537451e+00 
95 1 2 1.0280075836857159e+00 -2.2933986821236121e+02 1.0000000000000000e+00 1.9825168852576255e+01 8.6968917447221816e+00 4.3095843806537566e+00 
89 1 2 1.0280075836857159e+00 -2.2803177847788908e+02 1.0000000000000000e+00 1.9825168852576255e+01 8.6968917447221816e+00 4.3095843806537566e+00 
46 1 2 1.0279999017956782e+00 -1.7345036213639216e+02 1.0000000000000000e+00 1.5352125524644038e+01 3.1638442316327913e+00 8.8502528109349630e+00 
3 1 2 1.0279999017956782e+00 -2.1455839182404776e+02 1.0000000000000000e+00 1.5352125524644041e+01 3.1638442316327811e+00 8.8502528109349541e+00 
148 1 2 1.0279999017956782e+00 -2.8192356491905741e+02 1.0000000000000000e+00 1.5352125524644038e+01 3.1638442316327913e+00 8.8502528109349630e+00 
39 1 2 1.0279999017956782e+00 -2.2132703947463915e+02 1.0000000000000000e+00 1.5352125524644038e+01 3.1638442316327913e+00 8.8502528109349630e+00 
49 1 2 1.0279999017956782e+00 -1.1618445535470897e+02 1.0000000000000000e+00 1.5352125524644038e+01 3.1638442316327913e+00 8.8502528109349630e+00 
112 1 2 1.0279999017956782e+00 -2.5324768948696919e+02 1.0000000000000000e+00 1.5352125524644038e+01 3.1638442316327913e+00 8.8502528109349630e+00 
45 1 2 1.0279999017956782e+00 -2.2424413542561206e+02 1.0000000000000000e+00 1.5352125524644038e+01 3.1638442316327913e+00 8.8502528109349630e+00 
44 1 2 1.0279992233751458e+00 -1.7702440060912048e+02 1.0000000000000000e+00 1.7293563777494633e+01 1.1608116414262605e+01 1.8213352967373528e+00 
106 1 2 1.0279992233751480e+00 -2.6951374587035502e+02 1.0000000000000000e+00 1.7293563777494676e+01 1.1608116414262593e+01 1.8213352967373548e+00 
75 1 2 1.0279992233751456e+00 -2.3924643629514301e+02 1.0000000000000000e+00 1.7293563777497621e+01 1.1608116414262055e+01 1.8213352967365781e+00 
8 1 2 1.0279992233751492e+00 -2.2017412878776716e+02 1.0000000000000000e+00 1.7293563777494754e+01 1.1608116414262595e+01 1.8213352967373206e+00 
7 1 2 1.0279992233751463e+00 -2.3603172038673546e+02 1.0000000000000000e+00 1.7293563777494803e+01 1.1608116414262671e+01 1.8213352967372070e+00 
100 1 2 1.0279981566225505e+00 -1.9071975757141848e+02 1.0000000000000000e+00 1.9067690705072614e+01 1.3048234718177909e+01 2.3507893524604055e+00 
21 1 2 1.0279981566225453e+00 -2.5075662829576163e+02 1.0000000000000000e+00 1.9067690709216627e+01 1.3048234819697251e+01 2.3507891968309389e+00 
115 1 2 1.0279981566225604e+00 -1.6765876435196844e+02 1.0000000000000000e+00 1.9067690705074476e+01 1.3048234718246036e+01 2.3507893523733361e+00 
169 1 2 1.0279981566225485e+00 -2.4691116950820623e+02 1.0000000000000000e+00 1.9067690705072827e+01 1.3048234718187791e+01 2.3507893524490688e+00 
61 1 2 1.0279981619174414e+00 -1.9435655306541784e+02 1.0000000000000000e+00 1.9067763195632796e+01 1.3048461831689021e+01 2.3491838133495175e+00 
171 1 2 1.0280067223871259e+00 -1.8729644043501281e+02 1.0000000000000000e+00 1.6902561985506637e+01 1.3821442906703030e+01 2.7638637856608059e+00 
172 1 2 1.0280067223871234e+00 -2.0172491525375682e+02 1.0000000000000000e+00 1.6902561985506640e+01 1.3821442906703030e+01 2.7638637856608783e+00 
177 1 2 1.0280067223871232e+00 -2.2268511063442088e+02 1.0000000000000000e+00 1.6902561985506562e+01 1.3821442906702984e+01 2.7638637856608055e+00 
135 1 2 1.0280067223871223e+00 -1.8171655480106978e+02 1.0000000000000000e+00 1.6902561985506640e+01 1.3821442906703050e+01 2.7638637856607571e+00 
74 1 2 1.0280067223871219e+00 -2.6199525576123671e+02 1.0000000000000000e+00 1.6902561985506686e+01 1.3821442906703076e+01 2.7638637856608121e+00 
122 1 2 1.0281593918230936e+00 -1.8567243798220400e+02 1.0000000000000000e+00 1.4632585021123097e+01 1.6720953454859412e+01 3.0995507317253557e+00 
11 1 2 1.0281593918230936e+00 -2.3894957686069640e+02 1.0000000000000000e+00 1.4632585021123097e+01 1.6720953454859412e+01 3.0995507317253557e+00 
108 1 2 1.0281593918230936e+00 -2.0235406370022153e+02 1.0000000000000000e+00 1.4632585021123097e+01 1.6720953454859412e+01 3.0995507317253557e+00 
103 1 2 1.0281593918230936e+00 -1.7543641607754634e+02 1.0000000000000000e+00 1.4632585021123097e+01 1.6720953454859412e+01 3.0995507317253557e+00 
72 1 2 1.0281593918230936e+00 -1.7372887446159518e+02 1.0000000000000000e+00 1.4632585021123097e+01 1.6720953454859412e+01 3.0995507317253557e+00 
60 1 2 1.0281593918230936e+00 -2.2377372328263792e+02 1.0000000000000000e+00 1.4632585021123097e+01 1.6720953454859412e+01 3.0995507317253557e+00 
84 1 2 1.0281593918230936e+00 -1.9831557206483964e+02 1.0000000000000000e+00 1.4632585021123097e+01 1.6720953454859412e+01 3.0995507317253557e+00 
144 1 2 1.0279991123884160e+00 -2.3922068126702081e+02 1.0000000000000000e+00 1.4058799122445444e+01 1.2768748519900164e+01 6.3166245999441308e+00 
127 1 2 1.0279991123884162e+00 -2.5682235575206164e+02 1.0000000000000000e+00 1.4058799122442348e+01 1.2768748519897743e+01 6.3166245999416173e+00 
163 1 2 1.0279991123884165e+00 -2.3232836641789018e+02 1.0000000000000000e+00 1.4058799122442180e+01 1.2768748519897562e+01 6.3166245999415072e+00 
157 1 2 1.0279991123884165e+00 -2.0502444729062691e+02 1.0000000000000000e+00 1.4058799122441748e+01 1.2768748519898265e+01 6.3166245999406065e+00 
83 1 2 1.0279991149253915e+00 -2.7788225413924408e+02 1.0000000000000000e+00 1.4058741519804077e+01 1.2768700186071769e+01 6.3165795673283167e+00 
82 1 2 1.0279991162639679e+00 -2.2229294013153219e+02 1.0000000000000000e+00 1.4058712675090023e+01 1.2768674210416169e+01 6.3165579824997762e+00 
152 1 2 1.0280006345509827e+00 -1.3410985956596721e+02 1.0000000000000000e+00 1.6428727467058980e+01 1.2349479106919409e+01 5.0391894161525119e+00 
121 1 2 1.0280006345492683e+00 -1.8897675359423022e+02 1.0000000000000000e+00 1.6428727327545836e+01 1.2349478985481499e+01 5.0391895663459181e+00 
151 1 2 1.0280006345509829e+00 -2.5961017082224970e+02 1.0000000000000000e+00 1.6428727467066519e+01 1.2349479106923102e+01 5.0391894161485471e+00 
153 1 2 1.0280006345509827e+00 -1.2196164768515874e+02 1.0000000000000000e+00 1.6428727467068107e+01 1.2349479106923775e+01 5.0391894161478632e+00 
91 1 2 1.0280011303186065e+00 -2.0087537817796297e+02 1.0000000000000000e+00 1.7155064593464658e+01 1.0832527011396383e+01 4.4548724473860579e+00 
92 1 2 1.0280011303169463e+00 -2.3758888373584111e+02 1.0000000000000000e+00 1.7155064489704646e+01 1.0832526993786503e+01 4.4548725234212494e+00 
156 1 2 1.0280011303184069e+00 -1.8126887019143851e+02 1.0000000000000000e+00 1.7155064582679596e+01 1.0832527009564481e+01 4.4548724552827554e+00 
113 1 2 1.0280011303170891e+00 -2.4096486795277252e+02 1.0000000000000000e+00 1.7155064498608827e+01 1.0832526995296009e+01 4.4548725168882930e+00 
110 1 2 1.0279986677329109e+00 -2.8505906409655671e+02 1.0000000000000000e+00 1.6927278904612443e+01 1.0842235597399663e+01 4.6270898623560104e+00 
2 1 2 1.0280127839790820e+00 -3.0475553914278936e+02 1.0000000000000000e+00 1.8273434507008403e+01 1.2304727528597759e+01 7.8776917081590572e+00 
32 1 2 1.0280127839790818e+00 -2.5909400602255704e+02 1.0000000000000000e+00 1.8273434507008400e+01 1.2304727528597745e+01 7.8776917081590492e+00 
28 1 2 1.0280127839790820e+00 -2.2873084738563784e+02 1.0000000000000000e+00 1.8273434507008396e+01 1.2304727528597759e+01 7.8776917081590483e+00 
31 1 2 1.0280127839790820e+00 -2.9889775838850301e+02 1.0000000000000000e+00 1.8273434507008403e+01 1.2304727528597759e+01 7.8776917081590572e+00 
67 1 2 1.0280127839790816e+00 -2.5773405442778130e+02 1.0000000000000000e+00 1.8273434507008403e+01 1.2304727528597752e+01 7.8776917081590678e+00 
22 1 2 1.0280127839790818e+00 -2.2909645314819130e+02 1.0000000000000000e+00 1.8273434507008407e+01 1.2304727528597752e+01 7.8776917081590643e+00 
1 1 2 1.0280127839790818e+00 -2.9869710004699243e+02 1.0000000000000000e+00 1.8273434507008400e+01 1.2304727528597745e+01 7.8776917081590492e+00 
118 1 2 1.0279840978953181e+00 -2.6222339513787659e+02 1.0000000000000000e+00 1.8410171988764478e+01 1.5161260166457220e+01 1.9962330946245753e+01 
78 1 2 1.0279840978951069e+00 -1.8274752353154958e+02 1.0000000000000000e+00 1.8410171991037654e+01 1.5161260164815832e+01 1.9962330945010347e+01 
119 1 2 1.0279840978953181e+00 -2.0853153653168965e+02 1.0000000000000000e+00 1.8410171988764478e+01 1.5161260166457220e+01 1.9962330946245753e+01 
42 1 2 1.0279840978952750e+00 -1.3923250590898473e+02 1.0000000000000000e+00 1.8410171990562436e+01 1.5161260166435778e+01 1.9962330946226079e+01 
155 1 2 1.0279840978952750e+00 -2.9058057873175267e+02 1.0000000000000000e+00 1.8410171990562436e+01 1.5161260166435778e+01 1.9962330946226079e+01 
48 1 2 1.0279840978953181e+00 -1.4461776113284168e+02 1.0000000000000000e+00 1.8410171988764478e+01 1.5161260166457220e+01 1.9962330946245753e+01 
77 1 2 1.0279840978951065e+00 -2.6620386948880184e+02 1.0000000000000000e+00 1.8410171991041334e+01 1.5161260164815912e+01 1.9962330945010400e+01 

Velocities

38 -2.1731729466069627e-01 -1.2127365617386776e-01 2.8303647636027296e-01
55 -2.1731729466069580e-01 -1.2127365617386686e-01 2.8303647636027207e-01
73 -2.1731729466069621e-01 -1.2127365617386762e-01 2.8303647636027152e-01
37 -2.1731729466069580e-01 -1.2127365617386686e-01 2.8303647636027207e-01
116 -2.1755950064902424e-01 -1.2105395820707651e-01 2.8330874449539101e-01
136 -2.1755950064902382e-01 -1.2105395820707526e-01 2.8330874449539140e-01
147 -2.1755950064902316e-01 -1.2105395820707382e-01 2.8330874449539128e-01
56 -2.1755950064902363e-01 -1.2105395820707586e-01 2.8330874449539256e-01
125 -2.1770870823110175e-01 -1.2127076485027120e-01 2.8346753068180719e-01
57 -2.1770870823109664e-01 -1.2127076485030315e-01 2.8346753068179853e-01
63 -2.1770870823110158e-01 -1.2127076485027102e-01 2.8346753068180658e-01
124 -2.1770870823109778e-01 -1.2127076485029376e-01 2.8346753068179942e-01
131 -2.1770870823109773e-01 -1.2127076485029900e-01 2.8346753068180147e-01
126 -2.1618552065139549e-01 -1.2743850502061821e-01 2.8884272887440776e-01
161 -2.1618552065139565e-01 -1.2743850502061824e-01 2.8884272887440771e-01
162 -2.1618552065139565e-01 -1.2743850502061824e-01 2.8884272887440771e-01
66 -2.1618552065139565e-01 -1.2743850502061824e-01 2.8884272887440771e-01
168 -2.1618552065139540e-01 -1.2743850502061818e-01 2.8884272887440771e-01
64 -2.1618552065139579e-01 -1.2743850502061835e-01 2.8884272887440771e-01
167 -2.1618552065139549e-01 -1.2743850502061824e-01 2.8884272887440765e-01
6 -2.1772775619510826e-01 -1.2092495483164896e-01 2.8304174011103855e-01
76 -2.1772775619510887e-01 -1.2092495483164888e-01 2.8304174011103866e-01
36 -2.1772775619510856e-01 -1.2092495483164899e-01 2.8304174011103894e-01
130 -2.1772775619510815e-01 -1.2092495483164899e-01 2.8304174011103861e-01
98 -2.1774091486836508e-01 -1.2112463291823958e-01 2.8256773121321699e-01
120 -2.1774091486836508e-01 -1.2112463291823958e-01 2.8256773121321699e-01
97 -2.1774091486836564e-01 -1.2112463291823938e-01 2.8256773121321727e-01
150 -2.1774091486836611e-01 -1.2112463291823919e-01 2.8256773121321777e-01
176 -2.1791806028448765e-01 -1.2106788920638439e-01 2.8240697512911528e-01
41 -2.1791806028448771e-01 -1.2106788920638382e-01 2.8240697512911594e-01
40 -2.1791806028448704e-01 -1.2106788920638591e-01 2.8240697512911267e-01
4 -2.1791806028448776e-01 -1.2106788920638401e-01 2.8240697512911539e-01
5 -2.1791806028448751e-01 -1.2106788920638482e-01 2.8240697512911561e-01
123 -2.1791806028448771e-01 -1.2106788920638396e-01 2.8240697512911539e-01
65 -2.1600248877402820e-01 -1.3584379004288710e-01 2.7913736373062698e-01
23 -2.1600248877402820e-01 -1.3584379004288710e-01 2.7913736373062698e-01
35 -2.1600248877402808e-01 -1.3584379004288738e-01 2.7913736373062686e-01
59 -2.1600248877402825e-01 -1.3584379004288724e-01 2.7913736373062698e-01
29 -2.1600248877402820e-01 -1.3584379004288710e-01 2.7913736373062698e-01
30 -2.1600248877402828e-01 -1.3584379004288699e-01 2.7913736373062714e-01
34 -2.1600248877402825e-01 -1.3584379004288724e-01 2.7913736373062698e-01
146 -2.0911419890250027e-01 -1.3028689167725407e-01 3.0177951167861616e-01