LAMMPS data file via write_data, version 30 Jul 2016, timestep = 50000000

180 atoms
2 atom types

0.0000000000000000e+00 2.0000000000000000e+01 xlo xhi
0.0000000000000000e+00 2.0000000000000000e+01 ylo yhi
0.0000000000000000e+00 2.0000000000000000e+01 zlo zhi

Masses

1 3.896
2 4.31

Atoms # meso-molecular

1 1 2 3.4387207658793817e-01 0.0000000000000000e+00 1.0000000000000000e+00 5.5199999999999996e+00 7.5000000000000000e-01 1.9000000000000000e-01 
7 1 2 3.4387207658793817e-01 6.4609995087739136e-01 1.0000000000000000e+00 4.5108781685303434e+00 3.3969613954317328e+00 1.3698384442994147e+00 
8 1 2 1.0280000000001448e+00 -1.3905954087532876e+02 1.0000000000000000e+00 5.8660544067511049e+00 5.8365082566193136e+00 2.7979335648049530e+00 
13 1 2 1.0279999999999643e+00 -8.2586479015469791e+01 1.0000000000000000e+00 5.8643735938269010e+00 5.9153547834464675e+00 2.7228700457524981e+00 
14 1 2 1.0280000000000138e+00 -1.3471448351066712e+02 1.0000000000000000e+00 5.8660303056033962e+00 5.9409528733889747e+00 2.8286817885581828e+00 
45 1 2 1.0279999999999394e+00 -2.0738447299865143e+02 1.0000000000000000e+00 3.4555283729371826e+00 8.8578674575691929e-01 4.8152630734460029e+00 
2 1 2 1.0279999999999569e+00 -4.8908505880938918e+01 1.0000000000000000e+00 3.4757421640871615e+00 8.5179191605215998e-01 4.8212193212494645e+00 
46 1 2 1.0280000000000635e+00 -1.7287943745887091e+02 1.0000000000000000e+00 4.1830060982461603e+00 1.4213509116282756e+00 5.6120974632407963e+00 
47 1 2 1.0280000000000333e+00 -1.3160571856286816e+02 1.0000000000000000e+00 4.1923831186033231e+00 1.4481720773835711e+00 5.5839475210863414e+00 
15 1 2 3.4387207658793817e-01 0.0000000000000000e+00 1.0000000000000000e+00 5.1500000000000004e+00 7.9800000000000004e+00 8.3200000000000003e+00 
5 1 2 1.0280000000000133e+00 -6.9681717350156092e+01 1.0000000000000000e+00 4.1311071039446219e+00 1.1433266339775305e-01 1.1052116366166562e+01 
6 1 2 1.0280000000000133e+00 -6.9681717350156134e+01 1.0000000000000000e+00 4.1311071039446219e+00 1.1433266339775305e-01 1.1052116366166562e+01 
10 1 2 6.8774415317587634e-01 -9.8680870475302356e+01 1.0000000000000000e+00 4.8163447141168101e+00 5.5486579718567715e+00 1.0622433869402498e+01 
16 1 2 6.8774415317587634e-01 -9.8904412094108665e+01 1.0000000000000000e+00 4.8163447141167994e+00 5.5486579718567608e+00 1.0622433869402476e+01 
3 1 2 1.0279999999999894e+00 -1.1392974137063297e+02 1.0000000000000000e+00 4.3739245729849587e+00 1.1233111577819472e+00 1.2310801254594901e+01 
4 1 2 1.0279999999999905e+00 -6.0790161748292078e+01 1.0000000000000000e+00 4.3739245869674290e+00 1.1233111490244543e+00 1.2310801263937526e+01 
26 1 2 3.4387207658793817e-01 4.6469011005837585e-02 1.0000000000000000e+00 5.2203038404384570e+00 1.3624564986116072e+01 3.4224457252614999e+00 
31 1 2 1.0280000000000047e+00 -8.8927871987882668e+01 1.0000000000000000e+00 5.9942386510746770e+00 1.7127125582423922e+01 3.1871297757866923e+00 
32 1 2 1.0280000000000049e+00 -1.2869598565147325e+02 1.0000000000000000e+00 5.9821420485209638e+00 1.7137211339555648e+01 3.1260067956663873e+00 
21 1 2 1.0279999999999787e+00 -1.2769886335624176e+02 1.0000000000000000e+00 4.2162768609742471e+00 1.1274556390952055e+01 5.5123219315936565e+00 
20 1 2 1.0280000000000120e+00 -1.0589310088135426e+02 1.0000000000000000e+00 5.3992174978191656e+00 1.1171988572604251e+01 5.6912958182024695e+00 
56 1 2 1.0280000000000120e+00 -1.0263881038149003e+02 1.0000000000000000e+00 5.3992174978191656e+00 1.1171988572604251e+01 5.6912958182024695e+00 
27 1 2 1.0280000000000098e+00 -1.0681453898915895e+02 1.0000000000000000e+00 4.2120235434981037e+00 1.1914115928051872e+01 6.5286134727207656e+00 
22 1 2 1.0280000000000065e+00 -9.4323043445620257e+01 1.0000000000000000e+00 4.2120183970214615e+00 1.1914108041770655e+01 6.5286158269941561e+00 
19 1 2 1.0279999999999887e+00 -5.8991546582610844e+01 1.0000000000000000e+00 2.2609358087405634e-01 1.2412425990410357e+01 6.8982140279267234e+00 
17 1 2 1.0279999999999878e+00 -1.5462328865010946e+02 1.0000000000000000e+00 2.2609358097643514e-01 1.2412425990420594e+01 6.8982140279974589e+00 
53 1 2 1.0279999999999827e+00 -1.5916205759153115e+02 1.0000000000000000e+00 1.1324924707392597e-01 1.2235859024528615e+01 8.0805805627317984e+00 
33 1 2 3.4387207658793817e-01 0.0000000000000000e+00 1.0000000000000000e+00 4.4199999999999999e+00 1.7780000000000001e+01 8.0000000000000000e+00 
34 1 2 3.4387207658793817e-01 0.0000000000000000e+00 1.0000000000000000e+00 4.4299999999999997e+00 1.6280000000000001e+01 1.0990000000000000e+01 
9 1 2 1.0280000000000094e+00 -9.2742742712849946e+01 1.0000000000000000e+00 4.2127056407813956e+00 1.9935698563122937e+01 1.2236739469382483e+01 
24 1 2 1.0279999999999905e+00 -7.8170903337112804e+01 1.0000000000000000e+00 5.4327493862415563e+00 1.1080158131528952e+01 1.5210928136652795e+01 
23 1 2 1.0280000000000125e+00 -1.3321398888004148e+02 1.0000000000000000e+00 5.4327493952989645e+00 1.1080158114665119e+01 1.5210928192563767e+01 
60 1 2 1.0279999999999905e+00 -1.1109528760372447e+02 1.0000000000000000e+00 6.5471193027784986e+00 1.1182018035390307e+01 1.5646479099799965e+01 
35 1 2 6.8774415317587634e-01 -9.0012720041785641e+01 1.0000000000000000e+00 5.0699999999999985e+00 1.6299999999999994e+01 1.5559999999999848e+01 
36 1 2 6.8774415317587634e-01 -9.0012720041785641e+01 1.0000000000000000e+00 5.0700000000000012e+00 1.6300000000000004e+01 1.5559999999999826e+01 
30 1 2 3.4387207658793817e-01 0.0000000000000000e+00 1.0000000000000000e+00 4.4900000000000002e+00 1.3289999999999999e+01 1.7670000000000002e+01 
37 1 2 1.0280000000000153e+00 -9.9137895795697261e+01 1.0000000000000000e+00 8.4244840703046275e+00 1.7988791941649649e+00 1.8956645023603993e+00 
43 1 2 1.0280000000000118e+00 -1.1842165696054187e+02 1.0000000000000000e+00 8.3826223438024563e+00 1.8992530275062041e+00 1.9008434261966061e+00 
38 1 2 1.0279999999999709e+00 -1.4043132877336592e+02 1.0000000000000000e+00 8.4200859631938840e+00 1.8511728152532207e+00 1.9910592908189291e+00 
73 1 2 3.4387207658793817e-01 1.5142331753388178e-02 1.0000000000000000e+00 1.1304649633980285e+01 1.9167987255038468e+00 5.3204374126957743e-01 
55 1 2 1.0280000000000225e+00 -8.8733167403161033e+01 1.0000000000000000e+00 8.6078275942819467e+00 9.2585130755881853e+00 1.1162628902900615e-01 
49 1 2 1.0280000000000025e+00 -1.2380249332208103e+02 1.0000000000000000e+00 8.6113267770232067e+00 9.1501611045727422e+00 1.2171281046845060e-01 
85 1 2 1.0279999999999925e+00 -1.0729777830939771e+02 1.0000000000000000e+00 8.6988701272754927e+00 9.2044012454681514e+00 8.6381510464273448e-02 
51 1 2 1.0280007880359106e+00 -5.4559369006827616e+01 1.0000000000000000e+00 9.6102347075055370e+00 5.1886521291443728e+00 2.6612846835077071e+00 
50 1 2 1.0280007774345834e+00 -1.8662249805933789e+02 1.0000000000000000e+00 9.5776856825738719e+00 5.0891797278746971e+00 2.6910979239462454e+00 
92 1 2 1.0279981845495936e+00 -6.6486484904120388e+01 1.0000000000000000e+00 9.6529058781851322e+00 5.1416874083112996e+00 2.7497920062481271e+00 
115 1 2 1.0279999925853007e+00 -1.2933448706439711e+02 1.0000000000000000e+00 1.2820448804927263e+01 3.9361933538332128e+00 4.9457847884600792e+00 
80 1 2 1.0280000014093800e+00 -8.4498850370358582e+01 1.0000000000000000e+00 1.2735877800214535e+01 3.9701715308343308e+00 5.0053448221932166e+00 
79 1 2 1.0280000053060527e+00 -1.3522856954454488e+02 1.0000000000000000e+00 1.2732422621158086e+01 3.9774587886186943e+00 4.8967674625834254e+00 
74 1 2 1.0279999999999863e+00 -1.1562980560165211e+02 1.0000000000000000e+00 1.0202605887220578e+01 9.0004405910571261e-01 6.3281668705822200e+00 
39 1 2 1.0280000000000076e+00 -1.4175642064516580e+02 1.0000000000000000e+00 1.0140774984544432e+01 8.4304573018047180e-01 6.3973207699056784e+00 
75 1 2 1.0279999999999976e+00 -1.0401742589949438e+02 1.0000000000000000e+00 1.0225286396384718e+01 9.0064985672519449e-01 6.4346532985015630e+00 
86 1 2 1.0279111975139987e+00 -1.5764130651289514e+02 1.0000000000000000e+00 1.0378941578308680e+01 5.7628146393644100e+00 8.6820317579573256e+00 
44 1 2 1.0279111849310307e+00 -1.4088626480299422e+02 1.0000000000000000e+00 1.0378798226694590e+01 5.7632178133006589e+00 8.6872795126625153e+00 
81 1 2 1.0280901973620746e+00 -9.4270944789881682e+01 1.0000000000000000e+00 1.1581765757555303e+01 5.6998494373174644e+00 8.7223611643381229e+00 
87 1 2 1.0280901973620746e+00 -9.6176805393464790e+01 1.0000000000000000e+00 1.1581765757555303e+01 5.6998494373174644e+00 8.7223611643381229e+00 
40 1 2 6.8774415317587634e-01 -9.4902755769557487e+01 1.0000000000000000e+00 8.7684404650987648e+00 7.5509027230210679e-01 1.1890741321032237e+01 
41 1 2 6.8774415317587634e-01 -9.4908412836420723e+01 1.0000000000000000e+00 8.7684404650987435e+00 7.5509027230210812e-01 1.1890741321032232e+01 
76 1 2 1.0279999999999954e+00 -9.2148999802977187e+01 1.0000000000000000e+00 1.2409475819935322e+01 1.9257673492597975e+00 1.1994836634226509e+01 
77 1 2 1.0280000000000011e+00 -1.4275956679109007e+02 1.0000000000000000e+00 1.2409457543061380e+01 1.9257760755021793e+00 1.1994885192535108e+01 
52 1 2 6.8774415317587634e-01 -7.9348698560771595e+01 1.0000000000000000e+00 8.9818859423381454e+00 8.7616501451891171e+00 1.1162240097140231e+01 
58 1 2 6.8774415317587634e-01 -7.9093722530745140e+01 1.0000000000000000e+00 8.9818859423381241e+00 8.7616501451891118e+00 1.1162240097140225e+01 
83 1 2 1.0279999999999954e+00 -1.2959451002770791e+02 1.0000000000000000e+00 1.3063509972422654e+01 2.6021493786421486e+00 1.2740944677444759e+01 
54 1 2 1.0280000000000593e+00 -1.3042162604975780e+02 1.0000000000000000e+00 8.8159454371667056e+00 4.9600333706162614e+00 1.2293943026792276e+01 
11 1 2 1.0279999999999703e+00 -7.2079363772656777e+01 1.0000000000000000e+00 8.8704937192087243e+00 4.9229291651026790e+00 1.2380556505401403e+01 
18 1 2 1.0279999999999263e+00 -1.2999208485538063e+02 1.0000000000000000e+00 8.9097568556080411e+00 5.0068253573382941e+00 1.2323337916930244e+01 
42 1 2 6.8774415317587634e-01 -9.6383003859825152e+01 1.0000000000000000e+00 9.2276366795610567e+00 1.5183703723393973e+00 1.6813721131425133e+01 
78 1 2 6.8774415317587634e-01 -9.5471580790407543e+01 1.0000000000000000e+00 9.2276366795610514e+00 1.5183703723394000e+00 1.6813721131425091e+01 
48 1 2 6.8774415317587634e-01 -9.7388575026965668e+01 1.0000000000000000e+00 6.8730490915122537e+00 3.6474446792938156e+00 1.7256417516812640e+01 
12 1 2 6.8774415317587634e-01 -9.6595673219980171e+01 1.0000000000000000e+00 6.8730490915122644e+00 3.6474446792938209e+00 1.7256417516812650e+01 
119 1 2 1.0280000000000145e+00 -1.1859729642215783e+02 1.0000000000000000e+00 1.1479150530830140e+01 5.3994207826985638e+00 1.6736700503336394e+01 
89 1 2 1.0280000000000007e+00 -1.1342014151368154e+02 1.0000000000000000e+00 1.1479150530820675e+01 5.3994207826680327e+00 1.6736700503308072e+01 
84 1 2 1.0280000000000076e+00 -9.0995687242321068e+01 1.0000000000000000e+00 1.1719428007308998e+01 4.5578761250161932e+00 1.7564938015456747e+01 
120 1 2 1.0280000000000076e+00 -8.9726653333620959e+01 1.0000000000000000e+00 1.1719428007308998e+01 4.5578761250161932e+00 1.7564938015456747e+01 
96 1 2 6.8774415317587634e-01 -9.8829094395719238e+01 1.0000000000000000e+00 1.0720000000000002e+01 9.2299999999999898e+00 1.7439999999999994e+01 
90 1 2 6.8774415317587634e-01 -9.8829094395719238e+01 1.0000000000000000e+00 1.0719999999999997e+01 9.2300000000000111e+00 1.7440000000000005e+01 
91 1 2 3.4387207658793817e-01 6.3849893062953397e-02 1.0000000000000000e+00 1.1593649226122437e+01 1.1151246816337018e+01 1.3582132911572729e+00 
61 1 2 6.8774415317587634e-01 -9.3361361866172757e+01 1.0000000000000000e+00 6.8291822301669001e+00 1.3698700730499754e+01 6.1569990782982087e-01 
25 1 2 6.8774415317587634e-01 -9.3277377008900615e+01 1.0000000000000000e+00 6.8291822301669027e+00 1.3698700730499775e+01 6.1569990782982220e-01 
97 1 2 6.8774415317587634e-01 -9.1044788773602477e+01 1.0000000000000000e+00 1.1959349678165420e+01 1.5573731997881984e+01 1.0088595896612014e+00 
103 1 2 6.8774415317587634e-01 -9.3586768606361872e+01 1.0000000000000000e+00 1.1959349678165442e+01 1.5573731997881962e+01 1.0088595896611987e+00 
62 1 2 6.8774415317587634e-01 -9.4083673689855317e+01 1.0000000000000000e+00 9.6838654472067844e+00 1.3679045168064663e+01 3.6730949980209306e+00 
98 1 2 6.8774415317587634e-01 -9.4485778301777032e+01 1.0000000000000000e+00 9.6838654472067631e+00 1.3679045168064668e+01 3.6730949980209320e+00 
67 1 2 1.0279999999999958e+00 -1.1835632557389860e+02 1.0000000000000000e+00 7.1740920738834220e+00 1.7136508844221957e+01 2.9536923143852767e+00 
68 1 2 1.0279999999999947e+00 -1.4347679967133354e+02 1.0000000000000000e+00 7.1628440888431806e+00 1.7164731157765793e+01 2.8983655320833996e+00 
104 1 2 3.4387207658793817e-01 5.6018405271280040e-02 1.0000000000000000e+00 1.0396858133022940e+01 1.7928316763338049e+01 4.4387207980372922e+00 
93 1 2 1.0280000000000054e+00 -9.3195315996350047e+01 1.0000000000000000e+00 1.0777091770232483e+01 1.2351159171200738e+01 7.9166040507798243e+00 
99 1 2 1.0280000000000267e+00 -9.8605555600250938e+01 1.0000000000000000e+00 1.0811637310827672e+01 1.2453281511813863e+01 7.9013802210962369e+00 
100 1 2 1.0280000000000042e+00 -8.5631954495648813e+01 1.0000000000000000e+00 1.0783863106345422e+01 1.2419501878853215e+01 8.0010881033322079e+00 
69 1 2 6.8774415317587634e-01 -9.7478093181558265e+01 1.0000000000000000e+00 7.9884343987168949e+00 1.6765246849323155e+01 9.0512567611942085e+00 
70 1 2 6.8774415317587634e-01 -9.6652803387817642e+01 1.0000000000000000e+00 7.9884343987169055e+00 1.6765246849323166e+01 9.0512567611942032e+00 
105 1 2 6.8774415317587634e-01 -9.8046375551783186e+01 1.0000000000000000e+00 1.1459864471745503e+01 1.6744980918358227e+01 9.2099887309815962e+00 
106 1 2 6.8774415317587634e-01 -9.8047149698527747e+01 1.0000000000000000e+00 1.1459864471745508e+01 1.6744980918358237e+01 9.2099887309815749e+00 
64 1 2 1.0280000032071988e+00 -1.0772917122267063e+02 1.0000000000000000e+00 7.2197411897578228e+00 1.3558533056977323e+01 1.1454244235459734e+01 
28 1 2 1.0280000032061072e+00 -1.0764762919768746e+02 1.0000000000000000e+00 7.2176007168023464e+00 1.3558915560688970e+01 1.1451784741740676e+01 
57 1 2 1.0279999967942322e+00 -9.2535396349155576e+01 1.0000000000000000e+00 7.9005067748587425e+00 1.2855075416467008e+01 1.0751676941325101e+01 
63 1 2 1.0279999967940945e+00 -9.2463719479350516e+01 1.0000000000000000e+00 7.9002706331295309e+00 1.2857277857356349e+01 1.0749245379677186e+01 
94 1 2 1.0279999999999554e+00 -1.3576601023893508e+02 1.0000000000000000e+00 1.2363293388098839e+01 1.0423124986430086e+01 1.2965853994902965e+01 
131 1 2 1.0280000000000158e+00 -1.3495346640513569e+02 1.0000000000000000e+00 1.2451397217927051e+01 1.0388077460129143e+01 1.3019365843011412e+01 
95 1 2 1.0280000000001392e+00 -7.6270977346124639e+01 1.0000000000000000e+00 1.2381282480085922e+01 1.0455536718978848e+01 1.3068225885478709e+01 
107 1 2 1.0279999999999474e+00 -1.0970333828669878e+02 1.0000000000000000e+00 1.2342113974592015e+01 1.5335984128011097e+01 1.3959868996979719e+01 
101 1 2 1.0279999999999425e+00 -1.1399109781664228e+02 1.0000000000000000e+00 1.2340715816939033e+01 1.5292356513666396e+01 1.3970217827063138e+01 
71 1 2 3.4387207658793817e-01 0.0000000000000000e+00 1.0000000000000000e+00 8.2300000000000004e+00 1.7329999999999998e+01 1.3560000000000000e+01 
59 1 2 1.0280000000000360e+00 -1.4251811086892303e+02 1.0000000000000000e+00 6.7078602040528343e+00 1.2005290212907303e+01 1.4787243600005191e+01 
29 1 2 1.0279999999999663e+00 -5.3559812377195811e+01 1.0000000000000000e+00 6.7078602041299602e+00 1.2005290212873959e+01 1.4787243600052420e+01 
65 1 2 1.0280000000000395e+00 -6.3799536107420025e+01 1.0000000000000000e+00 9.4018552159072204e+00 1.4607611718154967e+01 1.5713350605575590e+01 
66 1 2 1.0280000000000260e+00 -1.3003328029906857e+02 1.0000000000000000e+00 9.0353578810489878e+00 1.4770120550333173e+01 1.5930346838708585e+01 
102 1 2 1.0279999999999831e+00 -6.3394621668843101e+01 1.0000000000000000e+00 1.0478659742097557e+01 1.4979100895892248e+01 1.6659659287270344e+01 
72 1 2 1.0279999999999971e+00 -1.1639695683182784e+02 1.0000000000000000e+00 9.3280342312100029e+00 1.5573360547847335e+01 1.6511029182260412e+01 
108 1 2 1.0279999999999698e+00 -1.3585283464396068e+02 1.0000000000000000e+00 1.0455975807306221e+01 1.5170627703550307e+01 1.6702449599436079e+01 
121 1 2 1.0280000000000014e+00 -1.0883536039458011e+02 1.0000000000000000e+00 1.5404957395961860e+01 9.9300309487078522e+00 7.9348548465915480e-01 
127 1 2 1.0280000000000014e+00 -1.0877151050151596e+02 1.0000000000000000e+00 1.5404957395961860e+01 9.9300309487078522e+00 7.9348548465915480e-01 
163 1 2 1.0279999999999963e+00 -1.0061042154720373e+02 1.0000000000000000e+00 1.6943948781597339e+01 9.6106476941912202e+00 1.2204941397084854e+00 
164 1 2 1.0279999999999963e+00 -1.0072522841810043e+02 1.0000000000000000e+00 1.6943948781597339e+01 9.6106476941912202e+00 1.2204941397084854e+00 
109 1 2 6.8774415317587634e-01 -8.9146215778169932e+01 1.0000000000000000e+00 1.4156055237337949e+01 1.4364168960300356e+00 2.8025226865657329e+00 
110 1 2 6.8774415317587634e-01 -8.9974360335613355e+01 1.0000000000000000e+00 1.4156055237337943e+01 1.4364168960300383e+00 2.8025226865657276e+00 
145 1 2 6.8774415317587634e-01 -9.8623114572376636e+01 1.0000000000000000e+00 1.7875000000000021e+01 3.7000000000000316e-01 2.3050000000000956e+00 
146 1 2 6.8774415317587634e-01 -9.8623114572376636e+01 1.0000000000000000e+00 1.7874999999999979e+01 3.7000000000000333e-01 2.3050000000000903e+00 
151 1 2 1.0279999999999796e+00 -1.2574040975107309e+02 1.0000000000000000e+00 1.7438560818485254e+01 4.9524111495380740e+00 3.4078238220190884e+00 
116 1 2 1.0280000000000382e+00 -8.3121723787135295e+01 1.0000000000000000e+00 1.6165127111502073e+01 5.9488120064046131e+00 3.2119334336615526e+00 
122 1 2 1.0280000000000500e+00 -8.8234664842743229e+01 1.0000000000000000e+00 1.6165127111496506e+01 5.9488120063661611e+00 3.2119334336806911e+00 
152 1 2 1.0279999999999889e+00 -5.5787301753991045e+01 1.0000000000000000e+00 1.7438578138638277e+01 4.9524166927737374e+00 3.4078181493860278e+00 
157 1 2 1.0279999999999900e+00 -1.4508814181038605e+02 1.0000000000000000e+00 1.7671410191984936e+01 6.4799635507849409e+00 2.8928317909442813e+00 
158 1 2 1.0279999999999896e+00 -1.4514142982652064e+02 1.0000000000000000e+00 1.7671410191991491e+01 6.4799635507871045e+00 2.8928317909632848e+00 
111 1 2 3.4387207658793817e-01 2.7389018391374481e-01 1.0000000000000000e+00 1.3740054510207967e+01 1.2503870377979227e+00 7.2254597044898814e+00 
147 1 2 3.4387207658793817e-01 0.0000000000000000e+00 1.0000000000000000e+00 1.8699999999999999e+01 4.8999999999999999e-01 6.6699999999999999e+00 
117 1 2 6.8774415317587634e-01 -9.8910316783711352e+01 1.0000000000000000e+00 1.6193684641491640e+01 4.3219972442504302e+00 6.7980039849762068e+00 
153 1 2 6.8774415317587634e-01 -9.8493235557822885e+01 1.0000000000000000e+00 1.6193684641491597e+01 4.3219972442504195e+00 6.7980039849762042e+00 
123 1 2 3.4387207658793817e-01 0.0000000000000000e+00 1.0000000000000000e+00 1.4760000000000000e+01 7.9699999999999998e+00 6.7000000000000002e+00 
112 1 2 3.4387207658793817e-01 2.5737539022071843e-01 1.0000000000000000e+00 1.5172560797765541e+01 1.1849727957051684e-01 9.6520581938567087e+00 
159 1 2 6.8774415317587634e-01 -9.0982171126417470e+01 1.0000000000000000e+00 1.7618126460400330e+01 7.5614309206214481e+00 9.6194146459493162e+00 
160 1 2 6.8774415317587634e-01 -9.1318991351862181e+01 1.0000000000000000e+00 1.7618126460400287e+01 7.5614309206214374e+00 9.6194146459493108e+00 
118 1 2 1.0280000000000049e+00 -1.0411226258338564e+02 1.0000000000000000e+00 1.3960361568017140e+01 2.4306200081652873e+00 1.1961114405816188e+01 
113 1 2 1.0280000000000049e+00 -1.0418589854741099e+02 1.0000000000000000e+00 1.3960361568017140e+01 2.4306200081652873e+00 1.1961114405816188e+01 
148 1 2 6.8774415317587634e-01 -9.8806782889933032e+01 1.0000000000000000e+00 1.7188712806254490e+01 2.4657576159763228e+00 1.0113958308972860e+01 
154 1 2 6.8774415317587634e-01 -9.9064063358271582e+01 1.0000000000000000e+00 1.7188712806254532e+01 2.4657576159763215e+00 1.0113958308972855e+01 
88 1 2 1.0280400540343724e+00 -1.2600653380899760e+02 1.0000000000000000e+00 1.3517456935618227e+01 6.4628655815004752e+00 1.0584328343346526e+01 
82 1 2 1.0279968065675578e+00 -8.2256243289898748e+01 1.0000000000000000e+00 1.3513432514709701e+01 6.5723255059553916e+00 1.0607911593053657e+01 
124 1 2 1.0279865541362143e+00 -1.1924366580316789e+02 1.0000000000000000e+00 1.3503918533846720e+01 6.5000795098732596e+00 1.0688107935477834e+01 
155 1 2 3.4387207658793817e-01 3.0605575973156551e-02 1.0000000000000000e+00 1.8509588143477576e+01 3.5486664632464042e+00 1.3510502629123144e+01 
167 1 2 3.4387207658793817e-01 4.8934169571883844e-03 1.0000000000000000e+00 1.8655344906691521e+01 9.7540723697818397e+00 1.3106282828473871e+01 
149 1 2 6.8774415317587634e-01 -8.8759342344230518e+01 1.0000000000000000e+00 1.7513409436397417e+01 8.1138994771081741e-01 1.5513314265271877e+01 
150 1 2 6.8774415317587634e-01 -8.8910818136559868e+01 1.0000000000000000e+00 1.7513409436397428e+01 8.1138994771081874e-01 1.5513314265271855e+01 
161 1 2 1.0280000000000120e+00 -7.6228781083863794e+01 1.0000000000000000e+00 1.7903478244073415e+01 8.3086702243857982e+00 1.5927253007075057e+01 
168 1 2 1.0280000000000002e+00 -1.3742242376526448e+02 1.0000000000000000e+00 1.7916372383392630e+01 8.3977690336994453e+00 1.5988484332126703e+01 
114 1 2 3.4387207658793817e-01 0.0000000000000000e+00 1.0000000000000000e+00 1.3760000000000000e+01 8.9999999999999997e-02 1.6170000000000002e+01 
156 1 2 3.4387207658793817e-01 0.0000000000000000e+00 1.0000000000000000e+00 1.7399999999999999e+01 4.0300000000000002e+00 1.6640000000000001e+01 
162 1 2 1.0279999999999601e+00 -1.3743963649990062e+02 1.0000000000000000e+00 1.7841828815414193e+01 8.3232623314401142e+00 1.6015799888304393e+01 
126 1 2 1.0279999999999856e+00 -7.1642745512237170e+01 1.0000000000000000e+00 1.6259106765524791e+01 8.8062755858006092e+00 1.9980811331859915e+01 
125 1 2 1.0280000000000149e+00 -1.7205674314103069e+02 1.0000000000000000e+00 1.6259106765524933e+01 8.8062755858081321e+00 1.9980811331852927e+01 
139 1 2 3.4387207658793817e-01 0.0000000000000000e+00 1.0000000000000000e+00 1.5420000000000000e+01 1.7520000000000000e+01 8.8000000000000000e-01 
175 1 2 3.4387207658793817e-01 0.0000000000000000e+00 1.0000000000000000e+00 1.8699999999999999e+01 1.6780000000000001e+01 8.0000000000000002e-02 
133 1 2 6.8774415317587634e-01 -8.7345714774023662e+01 1.0000000000000000e+00 1.4745609558083704e+01 1.3581237868685170e+01 2.3262344871880587e+00 
134 1 2 6.8774415317587634e-01 -8.9887640522974408e+01 1.0000000000000000e+00 1.4745609558083682e+01 1.3581237868685164e+01 2.3262344871880534e+00 
169 1 2 6.8774415317587634e-01 -9.0865423621151024e+01 1.0000000000000000e+00 1.8405000000000005e+01 1.4040000000000003e+01 2.8100000000000649e+00 
170 1 2 6.8774415317587634e-01 -9.0865423621151024e+01 1.0000000000000000e+00 1.8404999999999994e+01 1.4039999999999997e+01 2.8100000000000596e+00 
128 1 2 6.8774415317587634e-01 -9.7295162014774078e+01 1.0000000000000000e+00 1.3645000822323038e+01 1.1355001011386907e+01 5.2949995838261605e+00 
129 1 2 6.8774415317587634e-01 -9.7295162629882924e+01 1.0000000000000000e+00 1.3645000822323032e+01 1.1355001011386928e+01 5.2949995838261499e+00 
140 1 2 6.8774415317587634e-01 -9.9275493080169028e+01 1.0000000000000000e+00 1.4975209168162760e+01 1.7120565099472973e+01 5.4369163565301841e+00 
141 1 2 6.8774415317587634e-01 -9.9039769794159653e+01 1.0000000000000000e+00 1.4975209168162738e+01 1.7120565099472984e+01 5.4369163565301815e+00 
165 1 2 1.0280000000000145e+00 -1.0383142484390599e+02 1.0000000000000000e+00 1.9092987042119717e+01 1.1666216567607359e+01 7.8040432884222337e+00 
166 1 2 1.0280000000000145e+00 -1.0414248840856645e+02 1.0000000000000000e+00 1.9092987042119717e+01 1.1666216567607359e+01 7.8040432884222337e+00 
135 1 2 6.8774415317587634e-01 -9.5397777686192711e+01 1.0000000000000000e+00 1.6140752645971673e+01 1.3522638051001620e+01 7.6652819059344095e+00 
171 1 2 6.8774415317587634e-01 -9.4591893941395483e+01 1.0000000000000000e+00 1.6140752645971631e+01 1.3522638051001625e+01 7.6652819059344202e+00 
176 1 2 6.8774415317587634e-01 -9.1527423245112317e+01 1.0000000000000000e+00 1.8309072764582197e+01 1.7219915583814313e+01 6.4004803968584465e+00 
177 1 2 6.8774415317587634e-01 -9.1527400844303912e+01 1.0000000000000000e+00 1.8309072764582154e+01 1.7219915583814270e+01 6.4004803968584358e+00 
136 1 2 6.8774415317587634e-01 -8.2198535855901412e+01 1.0000000000000000e+00 1.4836595216423284e+01 1.2114827102653239e+01 9.9886634730025605e+00 
130 1 2 6.8774415317587634e-01 -8.3216245523212450e+01 1.0000000000000000e+00 1.4836595216423289e+01 1.2114827102653260e+01 9.9886634730025552e+00 
172 1 2 6.8774415317587634e-01 -9.2904471527545880e+01 1.0000000000000000e+00 1.8346955276444852e+01 1.5029262115372894e+01 1.0842047363924401e+01 
178 1 2 6.8774415317587634e-01 -9.4628690382543127e+01 1.0000000000000000e+00 1.8346955276444863e+01 1.5029262115372889e+01 1.0842047363924422e+01 
142 1 2 3.4387207658793817e-01 0.0000000000000000e+00 1.0000000000000000e+00 1.4300000000000001e+01 1.7030000000000001e+01 1.0640000000000001e+01 
143 1 2 1.0280000000000458e+00 -1.1845948023160105e+02 1.0000000000000000e+00 1.3478585862023754e+01 1.5207633236708665e+01 1.3584001961858311e+01 
137 1 2 1.0280000000000202e+00 -5.9284756323829924e+01 1.0000000000000000e+00 1.3470179999678550e+01 1.5164831788440875e+01 1.3573523442584827e+01 
174 1 2 1.0279999999999396e+00 -1.1736890601631518e+02 1.0000000000000000e+00 1.7486296942416772e+01 1.4369029120517576e+01 1.5135318720147781e+01 
173 1 2 1.0279999999999851e+00 -1.2524595697339157e+02 1.0000000000000000e+00 1.7435558611719959e+01 1.4362991970497436e+01 1.5039176604321977e+01 
179 1 2 1.0279999999999503e+00 -8.2509732029283356e+01 1.0000000000000000e+00 1.7471849670875795e+01 1.4458944709920726e+01 1.5075647999142737e+01 
180 1 2 3.4387207658793817e-01 3.7211184075833026e-01 1.0000000000000000e+00 1.8545216603203485e+01 1.7559413181330942e+01 1.5934223181024455e+01 
132 1 2 6.8774415317587634e-01 -8.1235689000673716e+01 1.0000000000000000e+00 1.4777744939060817e+01 1.2035315085790794e+01 1.6894225118639380e+01 
138 1 2 6.8774415317587634e-01 -8.1162295467942883e+01 1.0000000000000000e+00 1.4777744939060812e+01 1.2035315085790788e+01 1.6894225118639422e+01 
144 1 2 3.4387207658793817e-01 0.0000000000000000e+00 1.0000000000000000e+00 1.5190000000000000e+01 1.7050000000000001e+01 1.6730000000000000e+01 

Velocities

1 0.0000000000000000e+00 0.0000000000000000e+00 0.0000000000000000e+00
7 4.9406564584124654e-324 4.9406564584124654e-324 4.9406564584124654e-324
8 3.1238848796487360e-14 -4.1991848980743537e-12 5.5299239355993962e-13
13 -2.4505479221495107e-14 1.5296752218148149e-12 -9.7729769519333724e-13
14 -6.7333695749887020e-15 2.6695096762591266e-12 4.2430530163338545e-13
45 1.7430553879957393e-12 3.5951229585753565e-13 1.4874650571338119e-12
2 -8.6097652948709025e-13 2.7418795606156327e-13 -7.0172068173482311e-13
46 8.0788652868819985e-13 3.0923388461296539e-13 1.6496836988188762e-12
47 -1.6899653872084181e-12 -9.4293413663756371e-13 -2.4354280741012444e-12
15 0.0000000000000000e+00 0.0000000000000000e+00 0.0000000000000000e+00
5 -3.7762852429659056e-13 -6.1228296353340631e-14 -4.1759757396589779e-12
6 -3.7762852429659056e-13 -6.1228296353340631e-14 -4.1759757396589779e-12
10 -7.3698914043672955e-13 -7.3698914043672955e-13 -1.4739782808734591e-12
16 7.3698914043672955e-13 7.3698914043672955e-13 1.4739782808734591e-12
3 1.6597318959536016e-13 3.3442709961896141e-13 1.3829811949702070e-12
4 1.9546775413861009e-13 4.9151379280615326e-13 1.4850744719075637e-12
26 4.9406564584124654e-324 -4.9406564584124654e-324 4.9406564584124654e-324
31 7.1659045561030867e-14 -1.4144605973058314e-14 8.8804456686686773e-14
32 -6.0723680076779059e-15 1.9524548116391959e-14 -1.1165162703613754e-13
21 2.1275633256201336e-12 1.4831029121315097e-12 2.9749818180426902e-12
20 2.9511589547807965e-12 -2.3556031685958437e-12 -2.8941244535901217e-12
56 2.9511589547807965e-12 -2.3556031685958437e-12 -2.8941244535901217e-12
27 -4.1681253550665770e-12 1.7806414777326841e-12 1.6273126764185770e-12
22 -3.8617558801158640e-12 1.4474619473280956e-12 1.1859544127187662e-12
19 1.4992471538408793e-14 -3.5892041668610000e-13 3.9270675111389094e-12
17 -6.9440342464740117e-14 -4.2058574591085975e-13 4.0593119486627231e-12
53 1.5089091770357780e-14 6.8153845190493975e-13 -7.1853779241717311e-12
33 0.0000000000000000e+00 0.0000000000000000e+00 0.0000000000000000e+00
34 0.0000000000000000e+00 0.0000000000000000e+00 0.0000000000000000e+00
9 3.9381610485921147e-13 -7.0348429971844861e-13 5.4838958124376178e-12
24 2.5272779823671324e-12 7.3872239062977848e-13 4.0881491582915913e-13
23 -1.1579204616175191e-12 -9.2957498992758637e-13 4.8677012519010808e-13
60 -1.6039339280305634e-12 1.2782329334126431e-12 -2.2517105566942158e-12
35 1.8424728510918234e-13 7.3698914043672935e-13 -1.4739782808734587e-12
36 -1.8424728510918234e-13 -7.3698914043672935e-13 1.4739782808734587e-12
30 0.0000000000000000e+00 0.0000000000000000e+00 0.0000000000000000e+00
37 1.7979123553270633e-13 -3.3479170273967258e-13 1.9655357117730609e-13
43 -8.2091273727704430e-14 3.1701290573015045e-13 2.8319942051600401e-13
38 -9.7699961805002782e-14 1.7778797009518935e-14 -4.7975299169332624e-13
73 -9.8813129168249309e-324 -9.8813129168249309e-324 9.8813129168249309e-324
55 -2.4017520320966717e-13 5.8441259895626096e-13 2.0645561064156054e-14
49 8.7975285329885479e-14 -4.0480849263197994e-13 1.2282651342132168e-14
85 1.5219991787977616e-13 -1.7960410632420741e-13 -3.2928212406283282e-14