LAMMPS data file via write_data, version 30 Jul 2016, timestep = 50000000

1520 atoms
8 atom types

0.0000000000000000e+00 4.0000000000000000e+01 xlo xhi
0.0000000000000000e+00 4.0000000000000000e+01 ylo yhi
0.0000000000000000e+00 1.0000000000000000e+02 zlo zhi

Masses

1 3.896
2 5.36
3 20.064
4 8.378
5 8.378
6 8.378
7 8.378
8 8.378

Atoms # meso-molecular

715 716 2 1.0279999999999994e+00 2.9359355791553562e+03 1.0000000000000000e+00 1.3192874454076222e+01 1.0359432238000840e-01 1.8009744781615813e+00 
745 746 2 1.0279999999999900e+00 1.3369215809919328e+03 1.0000000000000000e+00 1.3953498520633527e+01 6.8487311711744470e-01 1.0206451416832472e+00 
1085 1086 2 1.0279999999999943e+00 4.9966637563842744e+02 1.0000000000000000e+00 1.4842934261271305e+01 1.3918295980864157e+00 3.2065637587417278e-01 
282 283 2 1.0279999999999985e+00 -1.4448973809663635e+03 1.0000000000000000e+00 1.4972949778440674e+01 1.2849667849291428e+00 4.0140911509112248e-01 
1387 1388 2 1.0279999999999967e+00 3.5782463329706346e+01 1.0000000000000000e+00 1.1447409786434399e+01 1.0169509332091240e+00 2.4265308663809919e+00 
628 629 2 1.0280000000000109e+00 2.4806862701936980e+03 1.0000000000000000e+00 1.1447087941315901e+01 1.0167146332199795e+00 2.4266080408826967e+00 
109 110 2 1.0280000000000005e+00 3.9102713659270657e+03 1.0000000000000000e+00 1.1405219984249829e+01 1.1014374589958387e+00 5.2976772237310357e+00 
1278 1279 2 1.0279999999999887e+00 8.3257140004497637e+02 1.0000000000000000e+00 1.1544844039951521e+01 1.0353668802594875e+00 5.7535257109320446e+00 
1400 1401 2 1.0280000000000060e+00 1.5884398129605656e+03 1.0000000000000000e+00 8.6245291632794761e+00 9.3911453677657430e-01 7.1032545458231766e+00 
750 751 2 1.0280000000000085e+00 -3.8058734477903031e+03 1.0000000000000000e+00 9.4034729837398086e+00 1.2573325181501100e+00 6.1019681407380473e+00 
1452 1453 2 1.0280000000000054e+00 3.2037495122813452e+03 1.0000000000000000e+00 8.8960982480003477e+00 1.2586348622214834e+00 7.3138874040809831e+00 
524 525 2 1.0279999999999998e+00 1.6649269000224725e+04 1.0000000000000000e+00 1.0429803514820467e+01 4.8373167031880687e-01 6.1337309351837197e+00 
1269 1270 2 1.0279999998044564e+00 -2.3720311777426041e+01 1.0000000000000000e+00 1.7209277467545672e+01 1.2059811353540744e+00 3.3112707654127910e+01 
240 241 2 1.0280000002308067e+00 1.2479027403295654e+03 1.0000000000000000e+00 1.8260497867537598e+01 1.3207734429826419e+00 3.2703459041462260e+01 
380 381 2 1.0280000001359397e+00 8.4084031777477394e+03 1.0000000000000000e+00 1.8202199381037907e+01 5.0957996666929828e-01 3.2764616783552064e+01 
516 517 2 1.0280000000690626e+00 7.1505269219664551e+03 1.0000000000000000e+00 1.3879650157701235e+01 3.0462740123750507e+00 3.2638286861362857e+01 
490 491 2 1.0280000001064327e+00 1.7815429560342723e+03 1.0000000000000000e+00 1.4004945874973767e+01 3.0252172135002500e+00 3.2577906145138805e+01 
113 114 2 1.0280000003521581e+00 -5.8331848686480571e+03 1.0000000000000000e+00 1.5831989469176632e+01 1.5902442540838293e+00 3.4008323246535852e+01 
464 465 2 1.0279999999662159e+00 3.1879683656238130e+03 1.0000000000000000e+00 1.4206960716769917e+01 6.9246580256922752e-01 3.4057827115458373e+01 
702 703 2 1.0279999999061511e+00 -4.9221990831373987e+03 1.0000000000000000e+00 1.4143975572779720e+01 5.3829746530405875e-01 3.4103165680260098e+01 
775 776 2 1.0279999999396330e+00 -3.6228439972966253e+03 1.0000000000000000e+00 1.9062263348280549e+01 8.3467698125727219e-01 3.4598729193085646e+01 
1296 1297 2 1.0279999998426335e+00 4.7036448770153420e+03 1.0000000000000000e+00 1.9137610970979086e+01 1.8504410527496102e+00 3.4746070474716262e+01 
729 730 2 1.0279999999441163e+00 -7.5206915830197413e+03 1.0000000000000000e+00 1.4373149291184459e+01 2.8428596704266269e+00 3.3912292146145397e+01 
421 422 2 1.0279999996204445e+00 1.2168217541916121e+04 1.0000000000000000e+00 1.5603668106354512e+01 2.5100501539216902e+00 3.4093483385307842e+01 
855 856 2 1.0280000000516216e+00 -7.2755502828839435e+03 1.0000000000000000e+00 1.7693238386992302e+01 3.0789040136563965e+00 3.4375533347002374e+01 
645 646 2 1.0279999999934477e+00 -5.6820217626819867e+03 1.0000000000000000e+00 1.7808569504496418e+01 3.0603550677068907e+00 3.4392267304028962e+01 
474 475 2 1.0279999999925797e+00 8.3175784666559357e+03 1.0000000000000000e+00 1.6850421572382448e+01 1.9414382129749024e+00 3.5804328988008450e+01 
1393 1394 2 1.0279999999925802e+00 5.4193700942900905e+03 1.0000000000000000e+00 1.6850421418756518e+01 1.9414381964975889e+00 3.5804328871553196e+01 
1003 1004 2 1.0280000007298096e+00 3.7634948777618183e+02 1.0000000000000000e+00 1.9514046889639790e+01 1.8944959391466981e-01 3.6087023674944689e+01 
1223 1224 2 1.0279999996222318e+00 2.6507388017446756e+03 1.0000000000000000e+00 1.8655444311153943e+01 2.4823774350817049e+00 3.6677920515790667e+01 
1351 1352 2 1.0280000006364689e+00 1.5476165308040227e+03 1.0000000000000000e+00 1.8377239560256712e+01 1.1230570436957925e+00 3.7381639918350899e+01 
727 728 2 1.0280000006145773e+00 -3.1783638325146349e+03 1.0000000000000000e+00 1.8167885759932680e+01 1.1981443114807386e+00 3.8906382698127160e+01 
1276 1277 2 1.0280000002604988e+00 -1.7074461199560519e+03 1.0000000000000000e+00 1.5966827358152498e+01 3.6126816595746951e+00 3.8773958692287188e+01 
1268 1269 2 1.0280000005060304e+00 1.8932831519342485e+03 1.0000000000000000e+00 1.6549910281840731e+01 3.0879217398472298e+00 3.8201596038421243e+01 
438 439 2 1.0279999997914224e+00 -6.4067832806037241e+03 1.0000000000000000e+00 1.6894514469598246e+01 2.3535824582908420e+00 3.8410119758315709e+01 
631 632 2 1.0280000001673830e+00 6.3893559835483102e+03 1.0000000000000000e+00 1.8867024483801192e+01 2.8168066849383027e+00 3.7543708757575324e+01 
527 528 2 1.0280000003122913e+00 -1.4141762780868426e+03 1.0000000000000000e+00 1.9089513435686221e+01 5.4981036785479658e+00 3.7346727051544661e+01 
963 964 2 1.0279999995936231e+00 1.6987715830396978e+03 1.0000000000000000e+00 1.8176830663977633e+01 5.8896225885160804e+00 3.7590444185186328e+01 
111 112 2 1.0279999997051779e+00 -4.3651941436611583e+02 1.0000000000000000e+00 1.9470424150605659e+01 4.8283477221171749e+00 3.7962669939421602e+01 
996 997 2 1.0280000001171095e+00 8.9689501351298827e+02 1.0000000000000000e+00 1.7652470113396504e+01 6.8698116721094564e+00 3.7355424975300878e+01 
71 72 2 1.0279999998986022e+00 -7.2927739453108234e+02 1.0000000000000000e+00 1.6566561191060508e+01 7.6048934854401535e+00 3.7802815677717206e+01 
1019 1020 2 1.0279999998993383e+00 -1.7636449414314693e+03 1.0000000000000000e+00 1.6565821236032615e+01 7.6009625135973673e+00 3.7808515672589245e+01 
374 375 2 1.0279999998814153e+00 -1.0854248284461002e+04 1.0000000000000000e+00 1.5875776506134363e+01 3.5847641500078681e-01 4.1117586383108645e+01 
445 446 2 1.0279999999265770e+00 7.4041111472593934e+02 1.0000000000000000e+00 1.5905784741929166e+01 4.6722614636518400e-01 4.1145903950595446e+01 
1120 1121 2 1.0279999996111684e+00 7.6082843605196795e+03 1.0000000000000000e+00 1.6838802866358744e+01 6.9464916808039190e-01 3.9478955410578557e+01 
532 533 2 1.0279999994497486e+00 5.8646450740519549e+03 1.0000000000000000e+00 1.7931138134318498e+01 4.2597217986898156e-01 4.0599227522594703e+01 
440 441 2 1.0280000009270802e+00 -1.4325811749620025e+03 1.0000000000000000e+00 1.9776610522888600e+01 3.4295517598303332e-01 3.9383450981981071e+01 
1256 1257 2 1.0280000009489929e+00 -4.7441067151015159e+03 1.0000000000000000e+00 1.7600351466597022e+01 2.2328362986227011e+00 4.0855684548115299e+01 
846 847 2 1.0280000000987073e+00 -1.2131241791153793e+03 1.0000000000000000e+00 1.8374599883222320e+01 2.3693518864202412e+00 4.0152706472789340e+01 
292 293 2 1.0279999990681856e+00 -3.1580162080310010e+03 1.0000000000000000e+00 1.9566524135963245e+01 2.0208750344069051e+00 4.0465571980992237e+01 
39 40 2 1.0280000003244405e+00 -6.1003262579784077e+03 1.0000000000000000e+00 1.5587884860610943e+01 4.7098290000219087e+00 3.9814917058364635e+01 
42 43 2 1.0279999998819103e+00 1.1072170856870248e+03 1.0000000000000000e+00 1.5359328549280988e+01 4.5426301671954210e+00 4.0043834878880602e+01 
795 796 2 1.0280000001744165e+00 -2.7938962117867895e+03 1.0000000000000000e+00 1.9772004642014043e+01 6.8090087723976360e+00 3.9306400353518697e+01 
699 700 2 1.0279999997574119e+00 1.5185013122169930e+03 1.0000000000000000e+00 1.1165537352815762e+00 9.2253620505220226e+00 3.9423577689394833e+01 
1076 1077 2 1.0280000000589400e+00 1.4459082734143462e+03 1.0000000000000000e+00 1.5363786988783903e+00 9.9914848864485322e+00 4.0994981362258436e+01 
287 288 2 1.0280000001228518e+00 7.6220313054173778e+02 1.0000000000000000e+00 1.1384111638261645e+00 8.7262710188001904e+00 4.0997305609076562e+01 
124 125 2 1.0280000000903009e+00 5.1895502673894543e+02 1.0000000000000000e+00 1.6608955041753661e+00 1.0607714027876918e+01 3.9459618267172488e+01 
719 720 2 1.0280000000989591e+00 -1.1255531773343911e+04 1.0000000000000000e+00 1.5627649771071961e+00 1.0923451853481742e+01 4.0016241395782757e+01 
1130 1131 2 1.0279999995806528e+00 -8.9056270417493615e+03 1.0000000000000000e+00 1.7684558090716585e+01 5.9744415417532548e-01 4.2567681822985506e+01 
105 106 2 1.0280000011956594e+00 8.4299246257582399e+02 1.0000000000000000e+00 1.8640708991143487e+01 1.2037931510534781e+00 4.2499259310907796e+01 
1457 1458 2 1.0280000000700080e+00 -1.3258779831292472e+03 1.0000000000000000e+00 1.6428095566761058e+01 2.9309399323295278e+00 4.1580991493770718e+01 
483 484 2 1.0280000003501717e+00 -6.1307305022965556e+03 1.0000000000000000e+00 1.6148505707930948e+01 3.1760098225936737e+00 4.1879947075260937e+01 
1469 1470 2 1.0279999991509288e+00 4.8211913700886953e+01 1.0000000000000000e+00 1.8692275448745644e+01 3.4602750428121589e+00 4.2676692564705192e+01 
1280 1281 2 1.0279999989368109e+00 5.5063327274311825e+02 1.0000000000000000e+00 1.8648050962683701e+01 3.4984412927315374e+00 4.2694557785859651e+01 
1489 1490 2 1.0279999997846854e+00 2.1953724009043799e+02 1.0000000000000000e+00 1.6217877768231155e+01 5.1291477443196802e+00 4.1623670575312687e+01 
757 758 2 1.0279999998208940e+00 -1.9121028943981169e+03 1.0000000000000000e+00 1.6043734304753418e+01 5.1060900721119369e+00 4.1884027701306316e+01 
854 855 2 1.0279999998070108e+00 -3.6470720137461840e+03 1.0000000000000000e+00 1.7980378864049973e-01 7.8110495650896379e+00 4.1531398269487539e+01 
1250 1251 2 1.0279999995958513e+00 1.4556221712389164e+04 1.0000000000000000e+00 1.8584512007736990e+01 1.0793320827890529e+00 4.4217699017620099e+01 
1166 1167 2 1.0279999998288276e+00 1.2078178819040291e+02 1.0000000000000000e+00 1.7206674856561921e+01 2.1065667686667329e+00 4.3381677256506826e+01 
815 816 2 1.0279999996859999e+00 1.3245775549778611e+02 1.0000000000000000e+00 1.6957319127103478e+01 2.2177522871642421e+00 4.4926935212780457e+01 
1037 1038 2 1.0279999996792288e+00 5.4274155455086529e+03 1.0000000000000000e+00 1.6959021007893440e+01 2.2184393429435558e+00 4.4927822024423804e+01 
1441 1442 2 1.0280000018230562e+00 6.2088088842580964e+03 1.0000000000000000e+00 1.9038054190140482e+01 2.4969062699547702e+00 4.3990473443466485e+01 
133 134 2 1.0280000014874737e+00 -8.6617933700931508e+02 1.0000000000000000e+00 5.7835590943149107e-01 5.5225759249302859e+00 4.4691789662651573e+01 
584 585 2 1.0280000015345006e+00 6.1225514859426457e+03 1.0000000000000000e+00 5.9234393604592539e-01 5.5013016782173656e+00 4.4701693011448256e+01 
404 405 2 1.0279999990307349e+00 6.4525302738183800e+03 1.0000000000000000e+00 5.1191691449194376e+00 5.4770474796818478e+00 4.5031717478268220e+01 
1388 1389 2 1.0279999988669013e+00 -3.0208194720315369e+03 1.0000000000000000e+00 5.2321157209416569e+00 5.4718069817441730e+00 4.5086359340393216e+01 
486 487 2 1.0280000000233649e+00 -6.2161171680869193e+03 1.0000000000000000e+00 1.3538667054162373e+01 4.9688911606531203e+00 4.4553944957061717e+01 
1220 1221 2 1.0280000004589160e+00 4.1564211268994259e+03 1.0000000000000000e+00 1.3252801685783160e+01 4.7722026259235237e+00 4.4898474745411697e+01 
901 902 2 1.0279999998667309e+00 7.4947908970249391e+03 1.0000000000000000e+00 1.6580479795592282e+01 4.1657791479535353e+00 4.3573556181257686e+01 
918 919 2 1.0280000001047385e+00 1.4291076037026014e+04 1.0000000000000000e+00 1.6602718534650222e+01 4.4274244681734070e+00 4.3937656574915742e+01 
84 85 2 1.0280000000285161e+00 -1.6637303576747572e+03 1.0000000000000000e+00 1.9476799505992670e+01 4.2831492003582170e+00 4.4755149622586828e+01 
193 194 2 1.0280000006934396e+00 -3.8798423434579320e+02 1.0000000000000000e+00 1.9330415281304226e+01 4.1144724207527235e+00 4.4844133317318743e+01 
45 46 2 1.0280000002323899e+00 5.7658071995145485e+02 1.0000000000000000e+00 1.2714159876370461e+01 6.1443733087473751e+00 4.5019247515660332e+01 
1048 1049 2 1.0280000003318897e+00 2.9561053868967056e+03 1.0000000000000000e+00 1.5334881463767625e+01 6.2054852039616133e+00 4.3896788763724814e+01 
112 113 2 1.0280000000116756e+00 -1.2078048462727952e+03 1.0000000000000000e+00 1.5692424626071469e+01 6.5901214434526745e+00 4.4027279011527476e+01 
155 156 2 1.0279999997956495e+00 -8.9002485801773082e+02 1.0000000000000000e+00 1.9339529237995748e+01 1.3251834628166070e+00 4.5773131786887916e+01 
977 978 2 1.0279999998522225e+00 2.0692448870326076e+04 1.0000000000000000e+00 1.8687693616104667e+01 1.4803979195593131e-01 4.6754415502452183e+01 
257 258 2 1.0279999997851563e+00 3.0121106793306302e+02 1.0000000000000000e+00 4.0657095953213529e-01 2.1911555339629687e+00 4.6854161530245243e+01 
958 959 2 1.0280000003977421e+00 -1.0967815414705030e+03 1.0000000000000000e+00 9.9829919153049074e-01 2.8482970935799883e+00 4.7025319879335754e+01 
840 841 2 1.0279999993986331e+00 -3.7612670264763592e+03 1.0000000000000000e+00 2.4236810139455010e+00 2.4256758306768931e+00 4.6530148480386991e+01 
1234 1235 2 1.0279999994432514e+00 9.0508638911985577e+02 1.0000000000000000e+00 2.4349297831575618e+00 2.3680061595717605e+00 4.6565819012433622e+01 
98 99 2 1.0280000017423165e+00 9.5083913240912043e+03 1.0000000000000000e+00 4.5693721767196411e+00 5.1176208145723523e+00 4.6208459764850417e+01 
417 418 2 1.0279999999485196e+00 1.1407255730977602e+04 1.0000000000000000e+00 1.5351095329919914e+01 4.3801981774374479e+00 4.5935573810573864e+01 
1361 1362 2 1.0280000003433176e+00 -3.8300287507973835e+03 1.0000000000000000e+00 1.5203449502751733e+01 4.4306863397446508e+00 4.5980595645343634e+01 
1365 1366 2 1.0279999998468505e+00 3.9490012297596213e+03 1.0000000000000000e+00 1.6657175722401213e+01 5.2174799994659393e+00 4.5294252758281587e+01 
1464 1465 2 1.0279999984147494e+00 4.6167088373538209e+03 1.0000000000000000e+00 1.4828429701698571e+00 6.1577537006598115e+00 4.5549391330467650e+01 
904 905 2 1.0280000021558791e+00 9.7840027705406465e+03 1.0000000000000000e+00 2.4162055620080602e+00 6.6926552098293079e+00 4.6612550039502828e+01 
1326 1327 2 1.0280000021673961e+00 6.6854406930780005e+03 1.0000000000000000e+00 2.4161745390779661e+00 6.6923254264192495e+00 4.6613239214848676e+01 
211 212 2 1.0280000003588452e+00 -4.5651740813268765e+02 1.0000000000000000e+00 5.7447695532845033e+00 7.3730479169203340e+00 4.6954941202835563e+01 
425 426 2 1.0279999990559818e+00 1.3119578993919309e+04 1.0000000000000000e+00 7.1979613255092554e+00 7.5941008452211349e+00 4.5584922550732315e+01 
1238 1239 2 1.0280000012299668e+00 -9.7322467907453097e+02 1.0000000000000000e+00 6.8149551646569808e+00 7.7148500076430269e+00 4.6657402511714032e+01 
312 313 2 1.0279999997216089e+00 1.5620351607226253e+03 1.0000000000000000e+00 8.4024527614363347e+00 7.1826489759790082e+00 4.5727191194344421e+01 
379 380 2 1.0280000024390989e+00 -4.2735732685528310e+03 1.0000000000000000e+00 8.2747638372018759e+00 6.8573599614301806e+00 4.6268839449507205e+01 
1379 1380 2 1.0279999999212852e+00 -2.6892869621907230e+03 1.0000000000000000e+00 1.2545813987011529e+01 6.2188066359373551e+00 4.6043120323374531e+01 
1127 1128 2 1.0280000002816290e+00 -1.2927699860821096e+04 1.0000000000000000e+00 1.3231744987260344e+01 7.6456160067906582e+00 4.6164580991435678e+01 
558 559 2 1.0280000000427123e+00 7.3933572519345216e+02 1.0000000000000000e+00 1.2758116091002709e+01 7.8379792491321867e+00 4.6473557763307895e+01 
55 56 2 1.0279999997578175e+00 6.4374167888592574e+03 1.0000000000000000e+00 1.5083987257322095e+01 6.2229240570161162e+00 4.5370904230500315e+01 
1073 1074 2 1.0280000001115746e+00 8.4594854651974600e+01 1.0000000000000000e+00 1.6627979549046003e+01 6.5967640273755572e+00 4.5688962457545465e+01 
476 477 2 1.0279999999335812e+00 5.4860825058305963e+03 1.0000000000000000e+00 1.6708435281629871e+01 7.0979702710224677e+00 4.6634740073160735e+01 
126 127 2 1.0279999997531142e+00 -4.6405832552417396e+03 1.0000000000000000e+00 1.9971127208915206e+01 1.9913223519321736e+01 4.5743158332576158e+01 
223 224 2 1.0279999997872180e+00 -1.3787825778726024e+03 1.0000000000000000e+00 1.9750741160309470e+01 1.8157596247031595e+01 4.6268046139704865e+01 
1229 1230 2 1.0280000007701939e+00 -1.6300669532777519e+02 1.0000000000000000e+00 1.5888750137315379e+00 1.5333528749080856e+00 4.8420443459374823e+01 
429 430 2 1.0279999995042794e+00 8.3875427920610982e+03 1.0000000000000000e+00 9.8634271342141344e-01 1.5338531277489117e-01 4.8661048433353223e+01 
187 188 2 1.0279999990973887e+00 9.2690850960763764e+03 1.0000000000000000e+00 1.1243007894377828e+00 1.8099716524911111e-01 4.8712285339503303e+01 
803 804 2 1.0280000000113412e+00 -7.2884301629659622e+03 1.0000000000000000e+00 1.7677016860380661e+01 2.7603048652448503e-01 4.7547065294262019e+01 
1013 1014 2 1.0280000056851697e+00 9.7347962131098593e+03 1.0000000000000000e+00 3.6307972477246393e+00 3.7633779593001853e+00 4.8260155741113479e+01 
845 846 2 1.0280000032840642e+00 -4.7009224559309623e+03 1.0000000000000000e+00 3.8835984938620585e+00 3.8222418344748945e+00 4.8264761815551658e+01 
26 27 2 1.0279999960056470e+00 -3.3435141487869305e+03 1.0000000000000000e+00 2.9482864954299126e-01 5.6045333645087920e+00 4.7477837024744183e+01 
1329 1330 2 1.0280000059685410e+00 -1.6166651452831547e+03 1.0000000000000000e+00 9.6970376798873115e-01 5.6609947573999388e+00 4.7985568134746593e+01 
1063 1064 2 1.0280000002389138e+00 -2.6907429175421753e+03 1.0000000000000000e+00 1.2045384165066177e+00 5.0992327017663337e+00 4.8964032261737287e+01 
761 762 2 1.0279999971649110e+00 -2.8595261686798294e+03 1.0000000000000000e+00 3.9198247839460039e+00 5.1265881868110377e+00 4.7482274549091414e+01 
624 625 2 1.0280000010824826e+00 1.2911030647254452e+03 1.0000000000000000e+00 1.1019169507115326e+01 5.8496177073587337e+00 4.8170272871827144e+01 
839 840 2 1.0280000003793339e+00 6.5306913291209930e+03 1.0000000000000000e+00 1.1495526406091477e+01 4.7307691729000316e+00 4.8354975419796787e+01 
204 205 2 1.0280000000729681e+00 4.3337501174666231e+03 1.0000000000000000e+00 1.3639507135747305e+01 5.1154842885384380e+00 4.7688643509580288e+01 
255 256 2 1.0280000000523843e+00 -8.1645646626777325e+03 1.0000000000000000e+00 1.3630944846366308e+01 5.0541583551949030e+00 4.7750392629916291e+01 
801 802 2 1.0280000005870347e+00 -2.5820692122681739e+03 1.0000000000000000e+00 4.6751964179161156e+00 7.0048400081353837e+00 4.7119850996385814e+01 
966 967 2 1.0280000002200393e+00 -1.5870136197329148e+03 1.0000000000000000e+00 4.8547580825806023e+00 6.2090159901755753e+00 4.7654173092043173e+01 
34 35 2 1.0280000002374343e+00 -5.1844890234945058e+02 1.0000000000000000e+00 9.7158238100227212e+00 6.6666040790035712e+00 4.8026041905184641e+01 
151 152 2 1.0280000005378198e+00 6.8144676480333612e+02 1.0000000000000000e+00 1.0517297837490934e+01 6.8216702007990770e+00 4.7165329363952537e+01 
956 957 2 1.0279999993288425e+00 8.7985343056168631e+02 1.0000000000000000e+00 1.0334181929553345e+01 7.6400690241633251e+00 4.7993745488008265e+01 
502 503 2 1.0279999997203659e+00 -3.0184372193344634e+03 1.0000000000000000e+00 1.3239600982063999e+01 7.0179472771856046e+00 4.8008931324529151e+01 
262 263 2 1.0279999995804110e+00 4.8736869566928826e+03 1.0000000000000000e+00 1.2744991961969998e+01 6.8872044494951705e+00 4.8130375852077563e+01 
830 831 2 1.0279999999849545e+00 1.2404746699821030e+02 1.0000000000000000e+00 1.5954200931210805e+01 7.5859018412514061e+00 4.7697139713641143e+01 
942 943 2 1.0279999999847687e+00 -5.0777568711950335e+03 1.0000000000000000e+00 1.5954327777138131e+01 7.5859385972099549e+00 4.7697201616794118e+01 
607 608 2 1.0279999994464200e+00 -2.0319547094689779e+03 1.0000000000000000e+00 8.6953231222973209e+00 8.8916163352925981e+00 4.8333740664256339e+01 
489 490 2 1.0280000005824383e+00 1.3430577555443109e+04 1.0000000000000000e+00 9.0139813653903360e+00 8.8088926285603542e+00 4.8351033649689704e+01 
529 530 2 1.0279999999843339e+00 7.1445429557598309e+03 1.0000000000000000e+00 6.9734450033763098e+00 1.0823656054399423e+01 4.8995958550292137e+01 
28 29 2 1.0279999998656493e+00 2.5972440940814813e+03 1.0000000000000000e+00 8.1313678189866394e+00 1.0041264368888712e+01 4.8934221655201021e+01 
908 909 2 1.0279999999750904e+00 2.9118260619542662e+03 1.0000000000000000e+00 1.7224461065301629e+01 1.3849352128832832e+01 4.8558231389774974e+01 
67 68 2 1.0280000000109057e+00 -2.8397636720747587e+03 1.0000000000000000e+00 1.7142476120196733e+01 1.4403001923939209e+01 4.8198306906512620e+01 
578 579 2 1.0280000000118197e+00 -3.2539740676117617e+03 1.0000000000000000e+00 1.7997194376385934e+01 1.4512163945813500e+01 4.8893006071660778e+01 
614 615 2 1.0280000003338183e+00 -2.1226771577949734e+02 1.0000000000000000e+00 1.9813299840425962e+01 1.9227390180652630e+01 4.8066805089174409e+01 
69 70 2 1.0279999986396677e+00 2.5679169584724523e+03 1.0000000000000000e+00 2.2605945468364945e+00 2.1117896830854894e+00 4.9793486963665117e+01 
1499 1500 2 1.0279999987495094e+00 -7.5303424923571692e+03 1.0000000000000000e+00 2.2677531158707369e+00 2.1225081336006104e+00 4.9795164925990356e+01 
342 343 2 1.0279999965715898e+00 -1.0082686358355266e+04 1.0000000000000000e+00 3.0115309612910655e+00 3.7959660819181718e+00 5.0061746667147105e+01 
1462 1463 2 1.0280000015006645e+00 1.1924564058229812e+03 1.0000000000000000e+00 2.0779365565862506e+00 4.8906570128200686e+00 5.0210918525500389e+01 
1338 1339 2 1.0279999941241538e+00 5.5670835515642684e+03 1.0000000000000000e+00 3.5547692770069514e+00 5.1571595471143832e+00 5.0236905027193501e+01 
582 583 2 1.0280000028419727e+00 -1.1470486566697430e+03 1.0000000000000000e+00 4.8070436749486607e+00 5.2458727553851556e+00 5.0291613960436415e+01 
1493 1494 2 1.0279999995746141e+00 4.5077023653038141e+03 1.0000000000000000e+00 5.9781665617888642e+00 5.9095257476181784e+00 5.0482288847043165e+01 
172 173 2 1.0279999993557078e+00 2.4053838376328423e+02 1.0000000000000000e+00 5.9657942109651705e+00 5.9192714770266308e+00 5.0522237551699469e+01 
916 917 2 1.0279999999225613e+00 1.9826843479369868e+03 1.0000000000000000e+00 1.2301450896579007e+01 4.1799348807038958e+00 4.9120947831711050e+01 
1254 1255 2 1.0279999996807163e+00 -3.8814422355196093e+03 1.0000000000000000e+00 1.2473526259733077e+01 4.8417749760884341e+00 4.9365908674083528e+01 
501 502 2 1.0280000004698859e+00 3.5597870782892478e+03 1.0000000000000000e+00 5.4621683243277153e-01 6.0538447257020636e+00 5.0161036358868984e+01 
56 57 2 1.0279999999712246e+00 1.4504550491478558e+03 1.0000000000000000e+00 6.5131575221607481e+00 1.1745558350174562e+01 4.9447283222124653e+01 
1090 1091 2 1.0280000000214158e+00 -9.3847134535366204e+03 1.0000000000000000e+00 9.2999221797374254e+00 1.1674634176456070e+01 4.9676148580534353e+01 
125 126 2 1.0280000000644729e+00 2.8118117546885205e+03 1.0000000000000000e+00 8.5431124262342415e+00 1.0828689104829659e+01 5.0154983411457998e+01 
302 303 2 1.0280000006542591e+00 -2.2503138012787686e+03 1.0000000000000000e+00 1.9329709901365625e+01 1.0655876779086881e+01 5.0461256272729976e+01 
1026 1027 2 1.0279999998090821e+00 -5.2744908049572769e+03 1.0000000000000000e+00 1.9559994626443185e+01 1.1531335837496066e+01 5.0752954546080261e+01 
119 120 2 1.0280000000242071e+00 2.7838569439514667e+03 1.0000000000000000e+00 7.0582646582971762e+00 1.2155042688212506e+01 4.9508534249808797e+01 
821 822 2 1.0279999999709948e+00 -6.1718581201323650e+03 1.0000000000000000e+00 8.9117523924111151e+00 1.2101567568300041e+01 4.9935010633126943e+01 
1153 1154 2 1.0280000001181524e+00 6.5025363887518943e+03 1.0000000000000000e+00 1.3270413283774735e+01 1.3862615921713502e+01 5.0370682987957728e+01 
3 4 2 1.0280000000206109e+00 4.2514222427597531e+02 1.0000000000000000e+00 1.3339365539118241e+01 1.3280323786789292e+01 5.0435185881048994e+01 
577 578 2 1.0279999997369835e+00 4.8832970807116963e+03 1.0000000000000000e+00 1.4975428427110270e+01 1.3862766459047801e+01 5.0343080054813086e+01 
1192 1193 2 1.0280000001356102e+00 6.6109889111649045e+03 1.0000000000000000e+00 1.6239354885219214e+01 1.2736283169926182e+01 5.0774678343313312e+01 
451 452 2 1.0280000006075383e+00 4.0025103342014418e+03 1.0000000000000000e+00 1.6407944177103779e+01 1.2709545487091455e+01 5.0874834520356551e+01 
1421 1422 2 1.0279999997328184e+00 1.3912452954517048e+03 1.0000000000000000e+00 1.9695820036916260e+01 1.4405153309229879e+01 5.0910186271862585e+01 
8 9 2 1.0279999997327820e+00 8.9456389671982333e+02 1.0000000000000000e+00 1.9696019140752821e+01 1.4405034506748592e+01 5.0910206985837455e+01 
1494 1495 2 1.0280000000033194e+00 -4.5991159086065563e+03 1.0000000000000000e+00 1.7748356380191595e+01 1.6240199636184304e+01 4.9559825495680748e+01 
602 603 2 1.0279999998587372e+00 1.1650725816594182e+04 1.0000000000000000e+00 1.7846613667152774e+01 1.6318231539627895e+01 4.9630188202410210e+01 
664 665 2 1.0280000001840748e+00 -3.4758985213183842e+03 1.0000000000000000e+00 1.9560437264383054e+01 1.9851294394506116e+01 4.9590230733913891e+01 
23 24 2 1.0280000001362128e+00 -6.4073009743183775e+02 1.0000000000000000e+00 1.9620165439879145e+01 1.9650462942980209e+01 4.9679597881246323e+01 
852 853 2 1.0280000158233988e+00 -3.1634747982956997e+03 1.0000000000000000e+00 1.6958727026905301e-01 3.1465550710022097e+00 5.1577403045382482e+01 
928 929 2 1.0280000158620153e+00 5.9491234602426609e+01 1.0000000000000000e+00 1.6944797494816782e-01 3.1466979768751910e+00 5.1577370000666555e+01 
948 949 2 1.0280000052059659e+00 1.0797211370504494e+04 1.0000000000000000e+00 2.1224366503318168e+00 2.5787724223811850e+00 5.2516402535603056e+01 
991 992 2 1.0279999964486750e+00 -5.7757966819048697e+03 1.0000000000000000e+00 2.1031546051206114e+00 3.6405464267743226e+00 5.2761618366689973e+01 
1417 1418 2 1.0280000020666098e+00 2.4302836395532526e+02 1.0000000000000000e+00 7.0884859673232248e-01 4.7002414163910942e+00 5.1051619845357166e+01 
225 226 2 1.0280000066478738e+00 3.9125014947233713e+03 1.0000000000000000e+00 3.8171766712957500e+00 4.2255584390300216e+00 5.1866996370044149e+01 
1182 1183 2 1.0280000112822389e+00 -8.0563711679955813e+03 1.0000000000000000e+00 3.7831965524418845e+00 4.1976757636464868e+00 5.1889567626561650e+01 
1104 1105 2 1.0280000000116170e+00 7.1778753618416413e+03 1.0000000000000000e+00 1.7878557772086335e+01 1.1779316548630399e+01 5.1996063085515466e+01 
467 468 2 1.0279999998916654e+00 -3.4181653878381958e+03 1.0000000000000000e+00 1.8047904589718993e+01 1.1333744782084111e+01 5.1546754564665207e+01 
1032 1033 2 1.0280000000136418e+00 1.1252718584838483e+04 1.0000000000000000e+00 1.4441759730672242e+01 1.3731105319374713e+01 5.1230380919490074e+01 
1092 1093 2 1.0279999998253428e+00 6.7322513230767690e+03 1.0000000000000000e+00 1.8396280098987255e+01 1.3235391556522305e+01 5.1741816342849752e+01 
1071 1072 2 1.0280000003641405e+00 6.0649247770082875e+03 1.0000000000000000e+00 1.9347357904369417e+01 1.3070846878342987e+01 5.1821134605250244e+01 
219 220 2 1.0279999996083231e+00 3.3563213425524445e+03 1.0000000000000000e+00 1.6777728818137021e+01 1.4768861651564350e+01 5.1064863900744385e+01 
1283 1284 2 1.0280000004772496e+00 3.6267796320421239e+03 1.0000000000000000e+00 1.6835570300748785e+01 1.4883129173480981e+01 5.1195086234866672e+01 
937 938 2 1.0280000000327558e+00 7.4931438757639517e+03 1.0000000000000000e+00 1.7653061984251199e+01 1.6599683707001613e+01 5.1527173365193747e+01 
1200 1201 2 1.0280000000327534e+00 -2.3121829808945695e+03 1.0000000000000000e+00 1.7653061117709424e+01 1.6599682597765689e+01 5.1527174538359255e+01 
682 683 2 1.0280000001521241e+00 -3.2138839379546675e+02 1.0000000000000000e+00 1.4931821617606007e+01 2.5437624316229501e-01 5.2977031438571501e+01 
1110 1111 2 1.0280000000622966e+00 -8.4703337430407191e+03 1.0000000000000000e+00 1.5750296525078056e+01 2.6684318642935221e-02 5.3101022097012283e+01 
708 709 2 1.0279999933562365e+00 -9.1215109952316789e+02 1.0000000000000000e+00 1.5966144162154237e+00 2.6389593042634583e+00 5.3150387590376695e+01 
1066 1067 2 1.0280000001356100e+00 -1.1259542359314769e+03 1.0000000000000000e+00 1.6107025854978435e+01 3.0531385033834750e+00 5.4429121179462683e+01 
427 428 2 1.0280000008039005e+00 -1.1560145969915287e+04 1.0000000000000000e+00 1.6071785044682272e+01 3.0808748277157911e+00 5.4454967846477395e+01 
1181 1182 2 1.0279999848141148e+00 1.2070220813003161e+04 1.0000000000000000e+00 3.3629830629651463e+00 4.5124791444363028e+00 5.4245674082157983e+01 
1380 1381 2 1.0280000003061429e+00 -1.5938520067449238e+03 1.0000000000000000e+00 3.7066628623497642e+00 5.9763521390623060e+00 5.4669967456863930e+01 
1325 1326 2 1.0280000214370317e+00 -1.8099478233850942e+02 1.0000000000000000e+00 3.0244387833197766e+00 4.4024785695511071e+00 5.4893038656477721e+01 
1459 1460 2 1.0280000068985402e+00 -4.4492810990974722e+03 1.0000000000000000e+00 7.1243643901457112e+00 5.8083988387043251e+00 5.4412177495364197e+01 
334 335 2 1.0280000019653557e+00 -1.1177922963742018e+04 1.0000000000000000e+00 8.8214963908708324e+00 5.7602791665406210e+00 5.4088351757779208e+01 