LAMMPS data file via write_data, version 30 Jul 2016, timestep = 50400000

1520 atoms
8 atom types

0.0000000000000000e+00 4.0000000000000000e+01 xlo xhi
0.0000000000000000e+00 4.0000000000000000e+01 ylo yhi
0.0000000000000000e+00 1.0000000000000000e+02 zlo zhi

Masses

1 3.896
2 5.36
3 20.064
4 8.378
5 8.378
6 8.378
7 8.378
8 8.378

Atoms # meso-molecular

1387 1388 2 1.0279999999999947e+00 3.5782463329706346e+01 1.0000000000000000e+00 9.5356824404076619e+00 1.2487726747257666e+00 4.7193628220702222e-01 
628 629 2 1.0280000000000100e+00 2.4806862701936980e+03 1.0000000000000000e+00 9.5353605952891645e+00 1.2485363747366744e+00 4.7201345670889833e-01 
653 654 2 1.0279999999999803e+00 -3.7969715616278490e+03 1.0000000000000000e+00 1.0754195426809156e+01 1.6141936502181625e-01 3.7128752439200513e-01 
109 110 2 1.0280000000000014e+00 3.9102713659270657e+03 1.0000000000000000e+00 9.4934926383122189e+00 1.3332592007023352e+00 3.3430826390496819e+00 
1278 1279 2 1.0280000000000056e+00 8.3257140004497637e+02 1.0000000000000000e+00 9.6331166941498783e+00 1.2671886220050539e+00 3.7989311262250549e+00 
1400 1401 2 1.0279999999999963e+00 1.5884398129605656e+03 1.0000000000000000e+00 6.7128018175203543e+00 1.1709362785571531e+00 5.1486599611721875e+00 
750 751 2 1.0280000000000031e+00 -3.8058734477903031e+03 1.0000000000000000e+00 7.4917456379740939e+00 1.4891542599279353e+00 4.1473735560933589e+00 
1452 1453 2 1.0279999999999918e+00 3.2037495122813452e+03 1.0000000000000000e+00 6.9843709022151135e+00 1.4904566040059410e+00 5.3592928194110563e+00 
524 525 2 1.0279999999999982e+00 1.6649269000224725e+04 1.0000000000000000e+00 8.5180761691100884e+00 7.1555341204019896e-01 4.1791363505294408e+00 
1269 1270 2 1.0279999998207034e+00 -2.3720311777426041e+01 1.0000000000000000e+00 1.7238845083807881e+01 1.2056706408368563e+00 3.1146761200596156e+01 
240 241 2 1.0280000002053686e+00 1.2479027403295654e+03 1.0000000000000000e+00 1.8290065400097546e+01 1.3204806322318166e+00 3.0737455103962102e+01 
380 381 2 1.0280000001472940e+00 8.4084031777477394e+03 1.0000000000000000e+00 1.8231747468507454e+01 5.0924044891972198e-01 3.0798636088037195e+01 
516 517 2 1.0280000000648239e+00 7.1505269219664551e+03 1.0000000000000000e+00 1.3909232104565575e+01 3.0461064389925707e+00 3.0672479796413779e+01 
490 491 2 1.0280000001005449e+00 1.7815429560342723e+03 1.0000000000000000e+00 1.4034533520328345e+01 3.0250487157335577e+00 3.0612092369649279e+01 
113 114 2 1.0280000003408560e+00 -5.8331848686480571e+03 1.0000000000000000e+00 1.5861567774779452e+01 1.5899563625715494e+00 3.2042416450557575e+01 
464 465 2 1.0279999999633580e+00 3.1879683656238130e+03 1.0000000000000000e+00 1.4236436808322999e+01 6.9228386472617309e-01 3.2092043950670430e+01 
702 703 2 1.0279999999217746e+00 -4.9221990831373987e+03 1.0000000000000000e+00 1.4173454180165821e+01 5.3811937313930813e-01 3.2137386974117845e+01 
775 776 2 1.0279999999389324e+00 -3.6228439972966253e+03 1.0000000000000000e+00 1.9091943705440908e+01 8.3409995430637018e-01 3.2632627936906410e+01 
1296 1297 2 1.0279999998477647e+00 4.7036448770153420e+03 1.0000000000000000e+00 1.9167287340931420e+01 1.8498374722488826e+00 3.2780011533198625e+01 
421 422 2 1.0279999996330740e+00 1.2168217541916121e+04 1.0000000000000000e+00 1.5633243592384822e+01 2.5097506256363613e+00 3.2127599110319906e+01 
729 730 2 1.0279999999494354e+00 -7.5206915830197413e+03 1.0000000000000000e+00 1.4402751341070465e+01 2.8426469185640166e+00 3.1946473479140977e+01 
645 646 2 1.0280000000053784e+00 -5.6820217626819867e+03 1.0000000000000000e+00 1.7838227492956936e+01 3.0598822122478984e+00 3.2426288694873747e+01 
855 856 2 1.0280000000587517e+00 -7.2755502828839435e+03 1.0000000000000000e+00 1.7722893051121396e+01 3.0784433881688877e+00 3.2409553141095635e+01 
474 475 2 1.0279999999779876e+00 8.3175784666559357e+03 1.0000000000000000e+00 1.6880144305396161e+01 1.9409303399707198e+00 3.3838320487989762e+01 
1393 1394 2 1.0279999999779874e+00 5.4193700942900905e+03 1.0000000000000000e+00 1.6880144151749711e+01 1.9409303235123254e+00 3.3838320371555120e+01 
1003 1004 2 1.0280000007009467e+00 3.7634948777618183e+02 1.0000000000000000e+00 1.9543883108633388e+01 1.8860420093447741e-01 3.4120892405596869e+01 
1223 1224 2 1.0279999996431248e+00 2.6507388017446756e+03 1.0000000000000000e+00 1.8685395938428240e+01 2.4814723744107718e+00 3.4711808938180482e+01 
1351 1352 2 1.0280000005867189e+00 1.5476165308040227e+03 1.0000000000000000e+00 1.8407145311723266e+01 1.1219952496085994e+00 3.5415468703496735e+01 
727 728 2 1.0280000005607952e+00 -3.1783638325146349e+03 1.0000000000000000e+00 1.8198028596518359e+01 1.1967294420094254e+00 3.6940241655556711e+01 
1276 1277 2 1.0280000002467122e+00 -1.7074461199560519e+03 1.0000000000000000e+00 1.5996944454047483e+01 3.6112309120659574e+00 3.6807983143994335e+01 
1268 1269 2 1.0280000004649836e+00 1.8932831519342485e+03 1.0000000000000000e+00 1.6580035813187067e+01 3.0865371650638265e+00 3.6235478507229885e+01 
438 439 2 1.0279999998133635e+00 -6.4067832806037241e+03 1.0000000000000000e+00 1.6924624451886721e+01 2.3522029741412616e+00 3.6444029991224703e+01 
631 632 2 1.0280000001700926e+00 6.3893559835483102e+03 1.0000000000000000e+00 1.8897078429671883e+01 2.8158017840375553e+00 3.5577562719081413e+01 
527 528 2 1.0280000003036092e+00 -1.4141762780868426e+03 1.0000000000000000e+00 1.9119487882489825e+01 5.4968901208255216e+00 3.5380707916104491e+01 
963 964 2 1.0279999996070310e+00 1.6987715830396978e+03 1.0000000000000000e+00 1.8206844919701535e+01 5.8884388044421296e+00 3.5624456292502558e+01 
111 112 2 1.0279999997146927e+00 -4.3651941436611583e+02 1.0000000000000000e+00 1.9500435801935136e+01 4.8270729181327354e+00 3.5996647077692259e+01 
996 997 2 1.0280000001174399e+00 8.9689501351298827e+02 1.0000000000000000e+00 1.7682472052576166e+01 6.8686293736571669e+00 3.5389454936590887e+01 
71 72 2 1.0279999998995859e+00 -7.2927739453108234e+02 1.0000000000000000e+00 1.6596575613347504e+01 7.6037235972340520e+00 3.5836848518458808e+01 
1019 1020 2 1.0279999999002312e+00 -1.7636449414314693e+03 1.0000000000000000e+00 1.6595835702748133e+01 7.5997929031982059e+00 3.5842548112491329e+01 
374 375 2 1.0279999998927554e+00 -1.0854248284461002e+04 1.0000000000000000e+00 1.5906041798588497e+01 3.5692775437498775e-01 3.9151483938891261e+01 
445 446 2 1.0279999999310807e+00 7.4041111472593934e+02 1.0000000000000000e+00 1.5936050926414566e+01 4.6566119097978131e-01 3.9179802724799139e+01 
1120 1121 2 1.0279999996399607e+00 7.6082843605196795e+03 1.0000000000000000e+00 1.6869004393936361e+01 6.9315761717595414e-01 3.7512892367764472e+01 
532 533 2 1.0279999995013738e+00 5.8646450740519549e+03 1.0000000000000000e+00 1.7961409884110772e+01 4.2434944389774482e-01 3.8633041289384245e+01 
440 441 2 1.0280000008635684e+00 -1.4325811749620025e+03 1.0000000000000000e+00 1.9806820888249050e+01 3.4147812597187260e-01 3.7417201364934179e+01 
1256 1257 2 1.0280000008754517e+00 -4.7441067151015159e+03 1.0000000000000000e+00 1.7630833713341936e+01 2.2310570823604490e+00 3.8889552876325112e+01 
846 847 2 1.0280000000900962e+00 -1.2131241791153793e+03 1.0000000000000000e+00 1.8405157142660947e+01 2.3676925863316907e+00 3.8186517597378440e+01 
292 293 2 1.0279999991453328e+00 -3.1580162080310010e+03 1.0000000000000000e+00 1.9596977723521803e+01 2.0190846407949641e+00 3.8499318988035810e+01 
39 40 2 1.0280000002982437e+00 -6.1003262579784077e+03 1.0000000000000000e+00 1.5618139343392603e+01 4.7082374552312505e+00 3.7849114161821262e+01 
42 43 2 1.0279999998794267e+00 1.1072170856870248e+03 1.0000000000000000e+00 1.5389604893222163e+01 4.5409848792518970e+00 3.8078061400217670e+01 
795 796 2 1.0280000001635698e+00 -2.7938962117867895e+03 1.0000000000000000e+00 1.9801882500843625e+01 6.8076172483973290e+00 3.7340243493068449e+01 
699 700 2 1.0279999997331188e+00 1.5185013122169930e+03 1.0000000000000000e+00 1.1509492080421651e+00 9.2129457560646362e+00 3.7458110204288886e+01 
1076 1077 2 1.0280000000593534e+00 1.4459082734143462e+03 1.0000000000000000e+00 1.5708437251397485e+00 9.9790674143680445e+00 3.9029497687445428e+01 
287 288 2 1.0280000001601450e+00 7.6220313054173778e+02 1.0000000000000000e+00 1.1728932479006093e+00 8.7138721489617161e+00 3.9031802425473373e+01 
124 125 2 1.0280000000977294e+00 5.1895502673894543e+02 1.0000000000000000e+00 1.6953125380861602e+00 1.0595243674163772e+01 3.7494090360991471e+01 
719 720 2 1.0280000001050331e+00 -1.1255531773343911e+04 1.0000000000000000e+00 1.5971892632148308e+00 1.0911015308057188e+01 3.8050738467856569e+01 
1130 1131 2 1.0279999995867704e+00 -8.9056270417493615e+03 1.0000000000000000e+00 1.7715239143956556e+01 5.9517100485112207e-01 4.0601461334573905e+01 
105 106 2 1.0280000011209431e+00 8.4299246257582399e+02 1.0000000000000000e+00 1.8671590330706042e+01 1.2013461366582907e+00 4.0532896320082465e+01 
1457 1458 2 1.0280000000742835e+00 -1.3258779831292472e+03 1.0000000000000000e+00 1.6458552941325227e+01 2.9289563986658753e+00 3.9615099517067037e+01 
483 484 2 1.0280000003177068e+00 -6.1307305022965556e+03 1.0000000000000000e+00 1.6178949625042574e+01 3.1739703898505733e+00 3.9914092090395386e+01 
1469 1470 2 1.0279999992090365e+00 4.8211913712255637e+01 1.0000000000000000e+00 1.8723071769373568e+01 3.4575888283803753e+00 4.0710444746392390e+01 
1280 1281 2 1.0279999990144881e+00 5.5063327274311825e+02 1.0000000000000000e+00 1.8678860160745089e+01 3.4957195500553953e+00 4.0728322074663311e+01 
1489 1490 2 1.0279999997970577e+00 2.1953724009043799e+02 1.0000000000000000e+00 1.6248343625739071e+01 5.1271120798281702e+00 3.9657878556598362e+01 
757 758 2 1.0279999998406786e+00 -1.9121028943981169e+03 1.0000000000000000e+00 1.6074253620005912e+01 5.1040104600937708e+00 3.9918211482583345e+01 
854 855 2 1.0279999998590639e+00 -3.6470720137461840e+03 1.0000000000000000e+00 2.1422608275073471e-01 7.7988059477315019e+00 3.9565829474396260e+01 
1250 1251 2 1.0279999996103568e+00 1.4556221712389164e+04 1.0000000000000000e+00 1.8615453556603352e+01 1.0764452086990224e+00 4.2251383011006460e+01 
1166 1167 2 1.0279999998308604e+00 1.2078178819240421e+02 1.0000000000000000e+00 1.7237443592425755e+01 2.1040363643939761e+00 4.1415528595365295e+01 
815 816 2 1.0279999997196991e+00 1.3245775549778611e+02 1.0000000000000000e+00 1.6988168681733203e+01 2.2150304967912997e+00 4.2960641020917116e+01 
1037 1038 2 1.0279999997134155e+00 5.4274155455086529e+03 1.0000000000000000e+00 1.6989870568947588e+01 2.2157173241986250e+00 4.2961527111026982e+01 
1441 1442 2 1.0280000016853916e+00 6.2088088842580964e+03 1.0000000000000000e+00 1.9069346036272034e+01 2.4938597871043702e+00 4.2024121903312469e+01 
133 134 2 1.0280000021441678e+00 -8.6617933700931508e+02 1.0000000000000000e+00 6.1356360838190027e-01 5.5117419297720209e+00 4.2724958096168841e+01 
584 585 2 1.0280000022471572e+00 6.1225514859426457e+03 1.0000000000000000e+00 6.2756485901698489e-01 5.4904437724335615e+00 4.2734865095855632e+01 
404 405 2 1.0279999988577742e+00 6.4525302738183800e+03 1.0000000000000000e+00 5.1546313947793347e+00 5.4669892632710493e+00 4.3064619650269712e+01 
1388 1389 2 1.0279999986170758e+00 -3.0208194720315369e+03 1.0000000000000000e+00 5.2674963438558784e+00 5.4617536736868226e+00 4.3119244378104320e+01 
486 487 2 1.0280000000621794e+00 -6.2161171680869193e+03 1.0000000000000000e+00 1.3569906272971403e+01 4.9653773551991618e+00 4.2588515068920032e+01 
1220 1221 2 1.0280000004139125e+00 4.1564211268994259e+03 1.0000000000000000e+00 1.3284009469898553e+01 4.7685778834776489e+00 4.2933086476912528e+01 
901 902 2 1.0279999998566334e+00 7.4947908970249391e+03 1.0000000000000000e+00 1.6611329610457322e+01 4.1632144262102520e+00 4.1607668828261652e+01 
918 919 2 1.0280000000916707e+00 1.4291076037026014e+04 1.0000000000000000e+00 1.6633612251410629e+01 4.4247597427134693e+00 4.1971818368842357e+01 
84 85 2 1.0279999999983189e+00 -1.6637303576747572e+03 1.0000000000000000e+00 1.9508395141849562e+01 4.2794707187958076e+00 4.2788742961465616e+01 
193 194 2 1.0280000006399506e+00 -3.8798423433955583e+02 1.0000000000000000e+00 1.9361930042048666e+01 4.1108612507068347e+00 4.2877784944793476e+01 
45 46 2 1.0280000001833598e+00 5.7658071995145485e+02 1.0000000000000000e+00 1.2745449497858607e+01 6.1407656126865868e+00 4.3053951153082082e+01 
1048 1049 2 1.0280000003204224e+00 2.9561053868967056e+03 1.0000000000000000e+00 1.5365837233304296e+01 6.2025948541686740e+00 4.1931145392197401e+01 
112 113 2 1.0280000000008420e+00 -1.2078048462727952e+03 1.0000000000000000e+00 1.5723414484807702e+01 6.5872295706069739e+00 4.2061688867934464e+01 
155 156 2 1.0279999997742690e+00 -8.9002485801773082e+02 1.0000000000000000e+00 1.9371169393675199e+01 1.3217110694661607e+00 4.3806537486246228e+01 
977 978 2 1.0279999998627647e+00 2.0692448870326076e+04 1.0000000000000000e+00 1.8719153268716472e+01 1.4475763570630296e-01 4.4787910336259500e+01 
257 258 2 1.0279999997105849e+00 3.0121106793306302e+02 1.0000000000000000e+00 4.4199459074273556e-01 2.1800187489140730e+00 4.4888260336269127e+01 
958 959 2 1.0280000004192142e+00 -1.0967815414705030e+03 1.0000000000000000e+00 1.0337256218606352e+00 2.8372304115827349e+00 4.5059211958426353e+01 
840 841 2 1.0279999992742193e+00 -3.7612670264763592e+03 1.0000000000000000e+00 2.4588794465583370e+00 2.4143913203084484e+00 4.4563699621611846e+01 
1234 1235 2 1.0279999993116722e+00 9.0508638911985577e+02 1.0000000000000000e+00 2.4701326610474950e+00 2.3567435014007962e+00 4.4599358592119188e+01 
98 99 2 1.0280000024550691e+00 9.5083913240912043e+03 1.0000000000000000e+00 4.6048791575064074e+00 5.1075540840316682e+00 4.4241330771453200e+01 
417 418 2 1.0279999999628868e+00 1.1407255730977602e+04 1.0000000000000000e+00 1.5382266006522070e+01 4.3770541567161088e+00 4.3970069957010196e+01 
1361 1362 2 1.0280000003462499e+00 -3.8300287507973835e+03 1.0000000000000000e+00 1.5234624683503474e+01 4.4274844061321241e+00 4.4015132504389612e+01 
1365 1366 2 1.0279999998457927e+00 3.9490012297596213e+03 1.0000000000000000e+00 1.6688161713667991e+01 5.2145676910153327e+00 4.3328624493985075e+01 
1464 1465 2 1.0279999974359970e+00 4.6167088373538209e+03 1.0000000000000000e+00 1.5179628437280326e+00 6.1472537250163359e+00 4.3582146988601146e+01 
904 905 2 1.0280000032965391e+00 9.7840027705406465e+03 1.0000000000000000e+00 2.4519881575722455e+00 6.6829648765022540e+00 4.4644731375314741e+01 
1326 1327 2 1.0280000033198182e+00 6.6854406930780005e+03 1.0000000000000000e+00 2.4519577126832979e+00 6.6826355815473839e+00 4.4645421723071308e+01 
211 212 2 1.0280000013046411e+00 -4.5651740808721291e+02 1.0000000000000000e+00 5.7793869618778455e+00 7.3642604597450507e+00 4.4988451743174075e+01 
425 426 2 1.0279999988598345e+00 1.3119578993919309e+04 1.0000000000000000e+00 7.2322145631646988e+00 7.5858796091938530e+00 4.3618342420303506e+01 
1238 1239 2 1.0280000019610505e+00 -9.7322467907453097e+02 1.0000000000000000e+00 6.8492487842704790e+00 7.7067410013315802e+00 4.4691015638233530e+01 
312 313 2 1.0279999999321265e+00 1.5620351607226253e+03 1.0000000000000000e+00 8.4365626873491344e+00 7.1746357768321065e+00 4.3760491206420191e+01 
379 380 2 1.0280000022482310e+00 -4.2735732685528310e+03 1.0000000000000000e+00 8.3089812923189097e+00 6.8490807901617075e+00 4.4302484793953873e+01 
1379 1380 2 1.0279999999857101e+00 -2.6892869621907230e+03 1.0000000000000000e+00 1.2577265984220983e+01 6.2150106239854050e+00 4.4077969565575827e+01 
1127 1128 2 1.0280000002197465e+00 -1.2927699860821096e+04 1.0000000000000000e+00 1.3263282881088440e+01 7.6417862520607072e+00 4.4199477343607178e+01 
558 559 2 1.0280000000254965e+00 7.3933572519345216e+02 1.0000000000000000e+00 1.2789645372755160e+01 7.8340801717383632e+00 4.4508500032096734e+01 
55 56 2 1.0279999997960700e+00 6.4374167888592574e+03 1.0000000000000000e+00 1.5115095365864104e+01 6.2198495365194537e+00 4.3405365803308740e+01 
1073 1074 2 1.0280000001004608e+00 8.4594854651974600e+01 1.0000000000000000e+00 1.6658974799934917e+01 6.5938159712784570e+00 4.3723402994148387e+01 
476 477 2 1.0279999999374598e+00 5.4860825058305963e+03 1.0000000000000000e+00 1.6739380168470763e+01 7.0950328948977974e+00 4.4669199783365926e+01 
223 224 2 1.0279999998035538e+00 -1.3787825778726024e+03 1.0000000000000000e+00 1.9782573577559983e+01 1.8147481509818554e+01 4.4303434210344193e+01 
1229 1230 2 1.0280000019930813e+00 -1.6300669521870540e+02 1.0000000000000000e+00 1.6254167039780141e+00 1.5231936749536508e+00 4.6454885106162052e+01 
429 430 2 1.0279999975333867e+00 8.3875427920610982e+03 1.0000000000000000e+00 1.0224575308837187e+00 1.4341011793068908e-01 4.6695459908367866e+01 
187 188 2 1.0279999971962714e+00 9.2690850960763764e+03 1.0000000000000000e+00 1.1603294948373835e+00 1.7109103405851872e-01 4.6746646578815806e+01 
803 804 2 1.0280000000113236e+00 -7.2884301629659622e+03 1.0000000000000000e+00 1.7708485562486864e+01 2.7278928602911140e-01 4.5580555809777110e+01 
1013 1014 2 1.0280000137811094e+00 9.7347962131098593e+03 1.0000000000000000e+00 3.6678676756375430e+00 3.7528099134227024e+00 4.6293155733840464e+01 
845 846 2 1.0280000070071649e+00 -4.7009224559309623e+03 1.0000000000000000e+00 3.9215146409562798e+00 3.8120476292637808e+00 4.6297829409131054e+01 
26 27 2 1.0279999907096142e+00 -3.3435141486441985e+03 1.0000000000000000e+00 3.3014198832007507e-01 5.5943104294358408e+00 4.5510252863310278e+01 
1329 1330 2 1.0280000115203378e+00 -1.6166651450321056e+03 1.0000000000000000e+00 1.0063531131004078e+00 5.6510972429950721e+00 4.6016967145073863e+01 
1063 1064 2 1.0279999996662466e+00 -2.6907429171167169e+03 1.0000000000000000e+00 1.2432635368087823e+00 5.0896213815527718e+00 4.6995457937697736e+01 
761 762 2 1.0279999950997620e+00 -2.8595261686798294e+03 1.0000000000000000e+00 3.9563749318534218e+00 5.1175730927766834e+00 4.5514855684966065e+01 
624 625 2 1.0280000008695056e+00 1.2911030647254452e+03 1.0000000000000000e+00 1.1051066307675359e+01 5.8449233995874037e+00 4.6205318389840130e+01 
839 840 2 1.0280000003776981e+00 6.5306913291209930e+03 1.0000000000000000e+00 1.1527404959037723e+01 4.7260425609617132e+00 4.6390038778825364e+01 
204 205 2 1.0280000000458891e+00 4.3337501174666231e+03 1.0000000000000000e+00 1.3671173217752020e+01 5.1113740270954588e+00 4.5723620709773350e+01 
255 256 2 1.0280000000475140e+00 -8.1645646626777325e+03 1.0000000000000000e+00 1.3662616926763681e+01 5.0500346609922158e+00 4.5785375578476959e+01 
801 802 2 1.0280000000885141e+00 -2.5820692122681739e+03 1.0000000000000000e+00 4.7101526892970220e+00 6.9955075530639377e+00 4.5153242184042007e+01 
966 967 2 1.0280000025944558e+00 -1.5870136197329148e+03 1.0000000000000000e+00 4.8899466836592920e+00 6.1993247540966685e+00 4.5687750044485021e+01 
34 35 2 1.0280000003621490e+00 -5.1844890225850111e+02 1.0000000000000000e+00 9.7477730880231412e+00 6.6617296037909615e+00 4.6061040555283647e+01 
151 152 2 1.0280000007548797e+00 6.8144676489428559e+02 1.0000000000000000e+00 1.0549339241195488e+01 6.8169431697168150e+00 4.5200075121431659e+01 
956 957 2 1.0279999992328817e+00 8.7985343056168631e+02 1.0000000000000000e+00 1.0366045493932894e+01 7.6352671157056760e+00 4.6028682972412660e+01 
502 503 2 1.0279999996628288e+00 -3.0184372193344634e+03 1.0000000000000000e+00 1.3271201391035801e+01 7.0138377089446484e+00 4.6043810681303171e+01 
262 263 2 1.0279999997958811e+00 4.8736869566928826e+03 1.0000000000000000e+00 1.2776725998468173e+01 6.8830578869805406e+00 4.6165246075855073e+01 
830 831 2 1.0279999999850471e+00 1.2404746699821030e+02 1.0000000000000000e+00 1.5985149046413417e+01 7.5829691077691308e+00 4.5731595055897429e+01 
942 943 2 1.0279999999849669e+00 -5.0777568711950335e+03 1.0000000000000000e+00 1.5985275891778389e+01 7.5830058648491141e+00 4.5731656953408290e+01 
607 608 2 1.0279999997358691e+00 -2.0319547094689779e+03 1.0000000000000000e+00 8.7272192530934838e+00 8.8867422883888239e+00 4.6368804641437826e+01 
489 490 2 1.0280000003397571e+00 1.3430577555443109e+04 1.0000000000000000e+00 9.0458783420802753e+00 8.8040112577529719e+00 4.6386071746148708e+01 
529 530 2 1.0279999999834650e+00 7.1445429557598309e+03 1.0000000000000000e+00 7.0052200485999938e+00 1.0818707518395950e+01 4.7031041890962271e+01 
28 29 2 1.0279999998099814e+00 2.5972440940814813e+03 1.0000000000000000e+00 8.1631684656864660e+00 1.0036348399741158e+01 4.6969294970384233e+01 
908 909 2 1.0279999999730185e+00 2.9118260619542662e+03 1.0000000000000000e+00 1.7255848970381670e+01 1.3838244076649334e+01 4.6593984132168067e+01 
67 68 2 1.0280000000071081e+00 -2.8397636720747587e+03 1.0000000000000000e+00 1.7173863558376073e+01 1.4391886253880987e+01 4.6234064520666358e+01 
578 579 2 1.0280000000173493e+00 -3.2539740676117617e+03 1.0000000000000000e+00 1.8028594825236752e+01 1.4501076711603906e+01 4.6928750452429220e+01 
614 615 2 1.0280000003115570e+00 -2.1226771577949734e+02 1.0000000000000000e+00 1.9844941022707015e+01 1.9217587320487226e+01 4.6102009208169036e+01 
69 70 2 1.0279999950988719e+00 2.5679169586030553e+03 1.0000000000000000e+00 2.2983839316586776e+00 2.1027637608934171e+00 4.7826623050990875e+01 
1499 1500 2 1.0279999954543695e+00 -7.5303424923571692e+03 1.0000000000000000e+00 2.3055385612869155e+00 2.1134654612258212e+00 4.7828306105154148e+01 
342 343 2 1.0279999921071239e+00 -1.0082686358355266e+04 1.0000000000000000e+00 3.0511663191702874e+00 3.7865717626310196e+00 4.8093409541557094e+01 
1198 1199 2 1.0279999978637722e+00 -6.6137095630171216e+03 1.0000000000000000e+00 2.3588213804597996e-02 5.5087246246236043e+00 4.8389342506370419e+01 
1462 1463 2 1.0280000027999754e+00 1.1924564060151204e+03 1.0000000000000000e+00 2.1197622650862056e+00 4.8813282707937740e+00 4.8241468332011301e+01 
1338 1339 2 1.0279999850117860e+00 5.5670835519236234e+03 1.0000000000000000e+00 3.5953790629587035e+00 5.1461237079416406e+00 4.8267768149127598e+01 
582 583 2 1.0280000039576767e+00 -1.1470486563072229e+03 1.0000000000000000e+00 4.8475263067528847e+00 5.2361586880144628e+00 4.8321717014158843e+01 
172 173 2 1.0279999993845870e+00 2.4053838376401492e+02 1.0000000000000000e+00 6.0061455082879114e+00 5.9095263291323930e+00 4.8553032041080321e+01 
1493 1494 2 1.0279999997153839e+00 4.5077023653038141e+03 1.0000000000000000e+00 6.0185303743455938e+00 5.8997946074481389e+00 4.8513104292396378e+01 
916 917 2 1.0279999999290128e+00 1.9826843479369868e+03 1.0000000000000000e+00 1.2333365753310085e+01 4.1753978582756082e+00 4.7156052232471744e+01 
1254 1255 2 1.0279999997314408e+00 -3.8814422355196093e+03 1.0000000000000000e+00 1.2505420044570913e+01 4.8372369694255655e+00 4.7400947754104230e+01 
501 502 2 1.0280000000650305e+00 3.5597870786555050e+03 1.0000000000000000e+00 5.8567346057769087e-01 6.0458087280498569e+00 4.8191612346834113e+01 
56 57 2 1.0279999999677460e+00 1.4504550491478558e+03 1.0000000000000000e+00 6.5449161721227220e+00 1.1740607964984987e+01 4.7482367133497860e+01 
1090 1091 2 1.0280000000418610e+00 -9.3847134535366204e+03 1.0000000000000000e+00 9.3316688565446313e+00 1.1669697286016270e+01 4.7711227163073289e+01 
125 126 2 1.0280000000938556e+00 2.8118117546885205e+03 1.0000000000000000e+00 8.5748623321583004e+00 1.0823730880867661e+01 4.8190070040354726e+01 
302 303 2 1.0280000005956267e+00 -2.2503138012787686e+03 1.0000000000000000e+00 1.9361200743429123e+01 1.0645651298976835e+01 4.8496348492538175e+01 
1026 1027 2 1.0279999998262253e+00 -5.2744908049572769e+03 1.0000000000000000e+00 1.9591559417718912e+01 1.1521032615131274e+01 4.8788143468741431e+01 
119 120 2 1.0280000000293104e+00 2.7838569439514667e+03 1.0000000000000000e+00 7.0900121488113879e+00 1.2150100003901787e+01 4.7543619104738433e+01 
821 822 2 1.0279999999574037e+00 -6.1718581201323650e+03 1.0000000000000000e+00 8.9434913731935861e+00 1.2096626134217395e+01 4.7970091590326199e+01 
1153 1154 2 1.0280000001093030e+00 6.5025363887518943e+03 1.0000000000000000e+00 1.3301651795864291e+01 1.3851539689586165e+01 4.8406325370748000e+01 
3 4 2 1.0280000000191849e+00 4.2514222427597531e+02 1.0000000000000000e+00 1.3370619053770987e+01 1.3269227430854581e+01 4.8470835020436660e+01 
577 578 2 1.0279999997516267e+00 4.8832970807116963e+03 1.0000000000000000e+00 1.5006649626780240e+01 1.3851709992199865e+01 4.8378734847756057e+01 
1192 1193 2 1.0280000001260741e+00 6.6109889111649045e+03 1.0000000000000000e+00 1.6270634245690449e+01 1.2725281400298456e+01 4.8810210674307598e+01 
451 452 2 1.0280000005613441e+00 4.0025103342014418e+03 1.0000000000000000e+00 1.6439259032752013e+01 1.2698522384308747e+01 4.8910365686501457e+01 
1421 1422 2 1.0279999997499332e+00 1.3912452954517048e+03 1.0000000000000000e+00 1.9727336773913102e+01 1.4394564015119357e+01 4.8945526379498126e+01 
8 9 2 1.0279999997498914e+00 8.9456389671982333e+02 1.0000000000000000e+00 1.9727535841567136e+01 1.4394445236460836e+01 4.8945547088835269e+01 
1494 1495 2 1.0280000000014125e+00 -4.5991159086065563e+03 1.0000000000000000e+00 1.7779775962333972e+01 1.6229132655534624e+01 4.7595521733672648e+01 
602 603 2 1.0279999998568534e+00 1.1650725816594182e+04 1.0000000000000000e+00 1.7878032927439321e+01 1.6307155754819387e+01 4.7665889665790765e+01 
664 665 2 1.0280000001692002e+00 -3.4758985213183842e+03 1.0000000000000000e+00 1.9592142216231096e+01 1.9841615565178817e+01 4.7625405150360599e+01 
23 24 2 1.0280000001253973e+00 -6.4073009743183775e+02 1.0000000000000000e+00 1.9651877637515238e+01 1.9640759468177432e+01 4.7714783280192286e+01 
852 853 2 1.0280000192433643e+00 -3.1634747965174083e+03 1.0000000000000000e+00 2.1731019235450016e-01 3.1358736204837898e+00 4.9603811642453635e+01 
928 929 2 1.0280000192929584e+00 5.9491236403810539e+01 1.0000000000000000e+00 2.1716823836340429e-01 3.1360154964477163e+00 4.9603775621123475e+01 
948 949 2 1.0280000152914190e+00 1.0797211371437175e+04 1.0000000000000000e+00 2.1757480699022369e+00 2.5674979184087969e+00 5.0546155513472115e+01 
991 992 2 1.0279999825277100e+00 -5.7757966793320456e+03 1.0000000000000000e+00 2.1554880919410966e+00 3.6308520905263286e+00 5.0792524366221052e+01 
1417 1418 2 1.0280000072882203e+00 2.4302836495499005e+02 1.0000000000000000e+00 7.5196739195848872e-01 4.6931038349181105e+00 4.9081262392421820e+01 
225 226 2 1.0280000164903709e+00 3.9125014959391287e+03 1.0000000000000000e+00 3.8634115546823389e+00 4.2160605624772529e+00 4.9900857784893873e+01 
1182 1183 2 1.0280000274448928e+00 -8.0563711666785312e+03 1.0000000000000000e+00 3.8297031989965702e+00 4.1879485746193428e+00 4.9923959360495608e+01 
1104 1105 2 1.0280000000125327e+00 7.1778753618416413e+03 1.0000000000000000e+00 1.7910059498148978e+01 1.1768683652067413e+01 5.0031462183787859e+01 
467 468 2 1.0279999998976810e+00 -3.4181653878381958e+03 1.0000000000000000e+00 1.8079402855110846e+01 1.1323197985469596e+01 4.9582128591396462e+01 
1032 1033 2 1.0280000000123624e+00 1.1252718584838483e+04 1.0000000000000000e+00 1.4473003527621188e+01 1.3720049291021885e+01 4.9266012772145771e+01 
1092 1093 2 1.0279999998275797e+00 6.7322513230767690e+03 1.0000000000000000e+00 1.8427802753573651e+01 1.3224744604447352e+01 4.9777187419957421e+01 
1071 1072 2 1.0280000003393770e+00 6.0649247770082875e+03 1.0000000000000000e+00 1.9378923677660115e+01 1.3060278471110907e+01 4.9856506494918818e+01 
219 220 2 1.0279999996473754e+00 3.3563213425524445e+03 1.0000000000000000e+00 1.6809074493198768e+01 1.4757847326935568e+01 4.9100487758387501e+01 
1283 1284 2 1.0280000004348511e+00 3.6267796320421239e+03 1.0000000000000000e+00 1.6866899193949067e+01 1.4872105165715864e+01 4.9230743380196024e+01 
937 938 2 1.0280000000335321e+00 7.4931438757639517e+03 1.0000000000000000e+00 1.7684449462971251e+01 1.6588637248400907e+01 4.9562859316367792e+01 
1200 1201 2 1.0280000000336242e+00 -2.3121829808945695e+03 1.0000000000000000e+00 1.7684448596387501e+01 1.6588636139131665e+01 4.9562860489538245e+01 
682 683 2 1.0280000001460714e+00 -3.2138839379546675e+02 1.0000000000000000e+00 1.4965006364240310e+01 2.4885095319321723e-01 5.0999967738109497e+01 
1110 1111 2 1.0280000000447937e+00 -8.4703337430407191e+03 1.0000000000000000e+00 1.5783498083449544e+01 2.1153662573167625e-02 5.1123986373968052e+01 
708 709 2 1.0280000029219407e+00 -9.1215109363074953e+02 1.0000000000000000e+00 1.6537664282434008e+00 2.6283255886061667e+00 5.1177848491398962e+01 
1066 1067 2 1.0280000022771609e+00 -1.1259542358423962e+03 1.0000000000000000e+00 1.6154512875831003e+01 3.0442237437475841e+00 5.2460868407584215e+01 
427 428 2 1.0280000052820286e+00 -1.1560145969915287e+04 1.0000000000000000e+00 1.6119190665035234e+01 3.0719460958851017e+00 5.2486636004165270e+01 
1181 1182 2 1.0279999678501008e+00 1.2070220816330564e+04 1.0000000000000000e+00 3.4207802654746753e+00 4.5131836274490116e+00 5.2276218027105237e+01 
1380 1381 2 1.0280000031671479e+00 -1.5938520062591097e+03 1.0000000000000000e+00 3.7606208972590940e+00 5.9752511094102418e+00 5.2700245624425449e+01 
1325 1326 2 1.0280000529951456e+00 -1.8099477110383899e+02 1.0000000000000000e+00 3.0857836083634322e+00 4.3963855351187124e+00 5.2925340805955052e+01 
1459 1460 2 1.0280000252908930e+00 -4.4492810995311847e+03 1.0000000000000000e+00 7.1776294074011542e+00 5.8015472267095802e+00 5.2443125169768471e+01 
334 335 2 1.0280000028318332e+00 -1.1177922963738756e+04 1.0000000000000000e+00 8.8732200288961049e+00 5.7522589751999718e+00 5.2119802405215900e+01 
40 41 2 1.0280000104789215e+00 -5.3148476823429255e+03 1.0000000000000000e+00 8.7284445655329179e+00 5.8083748766379530e+00 5.2667787886262239e+01 
1386 1387 2 1.0280000221215746e+00 2.4541820437417900e+03 1.0000000000000000e+00 1.1973008140330222e+01 4.4278926780922010e+00 5.2384831053781589e+01 
1149 1150 2 1.0279999999289620e+00 5.3738113704116950e+03 1.0000000000000000e+00 1.0855033604678743e+01 4.7517445257029483e+00 5.2419413130695197e+01 