LAMMPS data file via write_data, version 30 Jul 2016, timestep = 50000000

1520 atoms
8 atom types

0.0000000000000000e+00 4.0000000000000000e+01 xlo xhi
0.0000000000000000e+00 4.0000000000000000e+01 ylo yhi
0.0000000000000000e+00 1.0000000000000000e+02 zlo zhi

Masses

1 3.896
2 5.36
3 20.064
4 8.378
5 8.378
6 8.378
7 8.378
8 8.378

Atoms # meso-molecular

1296 1297 2 1.0279999997184377e+00 2.3588322885779617e+03 1.0000000000000000e+00 1.9166468208691189e+01 2.8050504473992771e-01 3.4071226069533211e+00 
479 480 2 1.0279999995508555e+00 1.1179886252409508e+03 1.0000000000000000e+00 1.9107399751004188e+01 3.7425300305706677e-01 3.8336620991192731e+00 
815 816 2 1.0279999994500855e+00 -3.4580379193146064e+03 1.0000000000000000e+00 1.9200930665877792e+01 4.0110951610505463e-01 4.0846842290623480e+00 
1228 1229 2 1.0280000000563971e+00 3.3425414927734910e+03 1.0000000000000000e+00 1.7942932607184879e+01 1.2323671187739388e-01 1.1764055634513268e+01 
597 598 2 1.0280000002095009e+00 7.7209967272829226e+02 1.0000000000000000e+00 1.9579191354130494e+01 1.2561086596676360e-01 1.3645192813223444e+01 
692 693 2 1.0280000000160989e+00 5.3580157402066325e+03 1.0000000000000000e+00 1.9512901198830988e+01 4.2875438765272228e-01 1.3699630204596646e+01 
752 753 2 1.0279999974937395e+00 1.9076080542702016e+02 1.0000000000000000e+00 2.7038456969464462e+00 3.1746140734108963e-01 1.8759106108577598e+01 
902 903 2 1.0279999992942817e+00 -3.9366391434623620e+03 1.0000000000000000e+00 2.6302651104000150e+00 1.0360903037519371e+00 1.9424969112295955e+01 
604 605 2 1.0279999992967657e+00 7.9724774446007114e+03 1.0000000000000000e+00 2.6291964203118727e+00 1.0406175057232898e+00 1.9427584908425278e+01 
548 549 2 1.0279999998199592e+00 -9.5536133355202054e+01 1.0000000000000000e+00 1.9693563908085533e+01 1.5356859930881559e+00 1.6927624113631811e+01 
1480 1481 2 1.0279999997884635e+00 -2.4257322919324024e+03 1.0000000000000000e+00 1.9955366602517305e+01 1.3399343120204732e+00 1.7003441711458503e+01 
164 165 2 1.0279999999312242e+00 3.3895750290274095e+03 1.0000000000000000e+00 1.8952810217197737e+01 1.8247885201051786e+00 1.7682242334319870e+01 
775 776 2 1.0279999999352181e+00 1.5238954644269579e+03 1.0000000000000000e+00 1.8949009256915044e+01 1.8237169312121850e+00 1.7710946294193008e+01 
4 5 2 1.0280000000368879e+00 3.0442101352023407e+01 1.0000000000000000e+00 1.9167384623041798e+01 1.9666115575640792e+00 1.8360764116479228e+01 
1198 1199 2 1.0280000002822691e+00 -1.4272668225736608e+01 1.0000000000000000e+00 1.9735156793898263e+01 1.9513978371461680e+00 1.8720214742915843e+01 
389 390 2 1.0280000000076059e+00 -5.3592132975139666e+03 1.0000000000000000e+00 4.2134287882765937e+00 8.2305835037455015e+00 1.8076740316457929e+01 
135 136 2 1.0280000000102907e+00 -6.6754095796636793e+03 1.0000000000000000e+00 4.7972672468822886e+00 8.1303150333655108e+00 1.8127761792148828e+01 
1426 1427 2 1.0280000000059835e+00 3.3705974321354970e+03 1.0000000000000000e+00 4.1525795592340264e+00 8.2756459991144524e+00 1.8195386696459718e+01 
423 424 2 1.0280000000149110e+00 -2.7458804957432062e+02 1.0000000000000000e+00 4.2252952884487627e+00 8.1995339429994019e+00 1.8372071987261233e+01 
1056 1057 2 1.0280000000202414e+00 7.6714855394605092e+02 1.0000000000000000e+00 5.1984992703904558e+00 9.4527229714997105e+00 1.6677276527415735e+01 
994 995 2 1.0280000000202367e+00 2.7650528382265820e+03 1.0000000000000000e+00 5.1985332144982408e+00 9.4527692049464491e+00 1.6677298324052149e+01 
1171 1172 2 1.0280000000048957e+00 5.4715505201372489e+03 1.0000000000000000e+00 5.3226482171054075e+00 9.6389696404133467e+00 1.6820445502907557e+01 
1484 1485 2 1.0279999999848544e+00 2.8592195266547988e+03 1.0000000000000000e+00 5.4201362673187123e+00 9.7542475460230591e+00 1.7073091904657939e+01 
1011 1012 2 1.0279999999675380e+00 4.2148345727804790e+03 1.0000000000000000e+00 5.3082717793890319e+00 9.7579750171044850e+00 1.7645417120903204e+01 
843 844 2 1.0279999994474485e+00 -3.7834277523059718e+03 1.0000000000000000e+00 2.3810182612589079e+00 1.5861377828655867e+00 1.9767789349769266e+01 
732 733 2 1.0279999995102451e+00 -3.5446962034850458e+03 1.0000000000000000e+00 2.5523462677748192e+00 1.8757686783984542e+00 2.0327664983145453e+01 
884 885 2 1.0279999995184044e+00 -3.5422041648575778e+03 1.0000000000000000e+00 2.1068521591698492e+00 2.5545680036387637e+00 2.1398144108013259e+01 
831 832 2 1.0279999995170674e+00 -3.6172205699785754e+03 1.0000000000000000e+00 2.0992985948235168e+00 2.5664180211130070e+00 2.1417175813230831e+01 
1126 1127 2 1.0279999999952660e+00 3.3549030302979663e+03 1.0000000000000000e+00 1.1218218894562519e+00 2.2212908214104896e+00 2.1425408035672152e+01 
739 740 2 1.0280000000087890e+00 1.3770155415637059e+03 1.0000000000000000e+00 3.7965050559084705e+00 8.5332913741008554e+00 2.0230582465491718e+01 
669 670 2 1.0280000001133829e+00 6.6060571358464349e+03 1.0000000000000000e+00 3.9518168243075333e+00 8.2478572132675492e+00 2.0946215821005183e+01 
1455 1456 2 1.0280000001150640e+00 1.5254453160291455e+03 1.0000000000000000e+00 3.9558717078966890e+00 8.2526878045994572e+00 2.0964253900171990e+01 
1423 1424 2 1.0280000001161500e+00 8.4769307304431331e+03 1.0000000000000000e+00 3.9584237155123700e+00 8.2561574372818516e+00 2.0976374190546444e+01 
524 525 2 1.0280000001166660e+00 -1.0155846447296091e+04 1.0000000000000000e+00 3.9599244524565833e+00 8.2577254621613143e+00 2.0982257968913590e+01 
672 673 2 1.0279999998105664e+00 6.5470953238268112e+03 1.0000000000000000e+00 5.3710068072232007e+00 1.0226823138761061e+01 2.1929044105673331e+01 
454 455 2 1.0279999998098694e+00 1.3973014817366143e+03 1.0000000000000000e+00 5.3452963999452798e+00 1.0263529637382893e+01 2.1939598934120315e+01 
345 346 2 1.0279999998102514e+00 -7.1425632301399241e+02 1.0000000000000000e+00 5.3771269165423803e+00 1.0226934084172878e+01 2.1940639423567571e+01 
836 837 2 1.0279999998135538e+00 4.5674318769158363e+03 1.0000000000000000e+00 5.4214582433688046e+00 1.0225494182355998e+01 2.2041764331104673e+01 
380 381 2 1.0279999999478897e+00 -4.4403777936512179e+03 1.0000000000000000e+00 1.1157454822011286e+00 1.6439726608226306e+00 2.2408007935305911e+01 
805 806 2 1.0279999999522562e+00 6.1352428989572982e+03 1.0000000000000000e+00 1.1199407660356617e+00 1.6434803161000797e+00 2.2408163660705942e+01 
1127 1128 2 1.0279999999655041e+00 3.3749623741169221e+03 1.0000000000000000e+00 1.1298160797481180e+00 1.6444203237045090e+00 2.2413754470956569e+01 
137 138 2 1.0279999991346249e+00 2.8547336896648712e+03 1.0000000000000000e+00 1.7426306558246347e+00 3.8859809431405643e+00 2.3737029433917055e+01 
202 203 2 1.0279999990840152e+00 3.0577114516411830e+03 1.0000000000000000e+00 1.7623737477821593e+00 3.8992375808956843e+00 2.3776828897522378e+01 
1284 1285 2 1.0279999990601918e+00 1.4792050272081751e+03 1.0000000000000000e+00 1.7763047363415985e+00 3.9071073116444954e+00 2.3804920079521874e+01 
808 809 2 1.0280000007505168e+00 6.0672212862909482e+03 1.0000000000000000e+00 1.6285267510250503e+00 3.4789195889386999e+00 2.3865273037089043e+01 
207 208 2 1.0279999996943463e+00 -8.7709585673986567e+02 1.0000000000000000e+00 1.8415939351917905e+00 4.3330298270849283e+00 2.4346540624915328e+01 
741 742 2 1.0279999999838787e+00 -4.7766828048638527e+03 1.0000000000000000e+00 2.5680125857442380e+00 1.0981907555580227e+01 2.4995779355886388e+01 
867 868 2 1.0280000005149907e+00 5.1409364338788728e+03 1.0000000000000000e+00 4.5083583900926900e+00 9.8485254598361625e+00 2.2712142050040875e+01 
54 55 2 1.0280000002427825e+00 8.6817264542586581e+03 1.0000000000000000e+00 4.7734491158947083e+00 1.0072498956715231e+01 2.3653430966973708e+01 
147 148 2 1.0280000000263443e+00 7.1688851099522481e+02 1.0000000000000000e+00 5.0012202836667123e+00 1.1183308073382284e+01 2.4178453867342089e+01 
374 375 2 1.0280000000135572e+00 6.7776531893303800e+03 1.0000000000000000e+00 4.3250583392690300e+00 1.2701532851124806e+01 2.4955887416670794e+01 
640 641 2 1.0280000001637295e+00 -3.5377398736347923e+03 1.0000000000000000e+00 2.0583579831867680e+00 4.9486985621535204e+00 2.5761196439118510e+01 
203 204 2 1.0279999994520554e+00 3.0715317113572783e+03 1.0000000000000000e+00 1.3837649805500540e+00 4.9663613927295804e+00 2.5866659491763205e+01 
255 256 2 1.0279999999703497e+00 3.3137073959774152e+03 1.0000000000000000e+00 1.9993029453982551e+00 5.4749517048830132e+00 2.6419760310031837e+01 
1505 1506 2 1.0279999996220117e+00 2.8929332674075577e+03 1.0000000000000000e+00 1.6911788482744576e+00 5.8642811258517984e+00 2.6820248092769599e+01 
140 141 2 1.0279999996195468e+00 2.8060751817387591e+03 1.0000000000000000e+00 1.6891550837062326e+00 5.8649074983878080e+00 2.6822011621931182e+01 
1508 1509 2 1.0279999994792430e+00 2.8811136785394028e+03 1.0000000000000000e+00 1.5798748603028501e+00 5.8891482539431275e+00 2.6902256328703189e+01 
291 292 2 1.0279999999944882e+00 5.9698672779670287e+03 1.0000000000000000e+00 2.5473797153980113e+00 1.0966337916892227e+01 2.5031860099325353e+01 
1207 1208 2 1.0280000000461267e+00 -4.7953653515814622e+03 1.0000000000000000e+00 2.5000315949130472e+00 1.1060809070049361e+01 2.5090116316056886e+01 
577 578 2 1.0280000000920870e+00 -4.1200659559884639e+02 1.0000000000000000e+00 2.4721076075362456e+00 1.1159076940997640e+01 2.5123488214232946e+01 
99 100 2 1.0279999999386462e+00 8.6724860819496535e+03 1.0000000000000000e+00 3.4861001467121717e+00 9.4697417957164056e+00 2.5261629344072698e+01 
1488 1489 2 1.0279999999477087e+00 -2.4480425446043848e+00 1.0000000000000000e+00 5.5636961106415654e+00 1.1210394180660320e+01 2.5320794699084807e+01 
1454 1455 2 1.0279999999394793e+00 1.4337000555863633e+03 1.0000000000000000e+00 5.5923570500284026e+00 1.1040134453102340e+01 2.5531645079517304e+01 
1422 1423 2 1.0279999999650833e+00 8.5291202293292426e+03 1.0000000000000000e+00 4.6858209216097872e+00 9.1855251807989653e+00 2.5593035323003214e+01 
1506 1507 2 1.0279999999727902e+00 4.6170032741345303e+03 1.0000000000000000e+00 4.7345302486668199e+00 9.1816889467457070e+00 2.5774131654071287e+01 
118 119 2 1.0279999999938783e+00 6.1676594083389773e+03 1.0000000000000000e+00 4.8329868690307443e+00 9.2541005825977525e+00 2.6120848199074054e+01 
509 510 2 1.0280000000420946e+00 -6.0224195292842051e+03 1.0000000000000000e+00 4.1450039383411044e+00 9.9143090648993226e+00 2.7134893091861418e+01 
117 118 2 1.0280000000483751e+00 -2.6263578535658178e+02 1.0000000000000000e+00 4.1349288023669883e+00 1.0054821177929254e+01 2.7190223717747934e+01 
590 591 2 1.0280000001188430e+00 4.4319885770804774e+02 1.0000000000000000e+00 3.8849618816106473e+00 1.1081744070558683e+01 2.7305082991190478e+01 
1387 1388 2 1.0280000001230354e+00 -6.3210756864329851e+03 1.0000000000000000e+00 3.8746329819974519e+00 1.1082038679439879e+01 2.7305272342652362e+01 
1082 1083 2 1.0280000003149159e+00 -4.1968896188381723e+02 1.0000000000000000e+00 7.4925321458061012e-01 1.2302082436172823e+01 2.7155348198167811e+01 
965 966 2 1.0280000001124459e+00 -5.6519287661960625e+03 1.0000000000000000e+00 1.1531520228993757e+00 1.2771893810629281e+01 2.7405922736971473e+01 
455 456 2 1.0279999999751190e+00 1.3545771492343997e+03 1.0000000000000000e+00 1.3126174856349686e+00 1.2817433688000136e+01 2.7600674645919337e+01 
697 698 2 1.0279999990955768e+00 6.4462656573579488e+03 1.0000000000000000e+00 2.2209015125873391e-01 1.1520735059336866e+01 2.7773248462796801e+01 
512 513 2 1.0280000000404970e+00 -5.9865335707124850e+03 1.0000000000000000e+00 4.9592943343381668e+00 1.2694136533590063e+01 2.5258334300215466e+01 
119 120 2 1.0280000000953751e+00 6.1695781921199450e+03 1.0000000000000000e+00 2.9354236920791172e+00 1.2899474220166077e+01 2.6002929514555728e+01 
134 135 2 1.0279999999824898e+00 -6.7522459206333569e+03 1.0000000000000000e+00 5.0108231579745510e+00 1.2899900384607610e+01 2.6011464840464150e+01 
234 235 2 1.0279999998951352e+00 1.0289909333037176e+04 1.0000000000000000e+00 4.7840268233951200e+00 1.2970688690392747e+01 2.6343823392087799e+01 
748 749 2 1.0279999997780866e+00 -7.0998068932092783e+03 1.0000000000000000e+00 3.4876860921937154e+00 1.3211881114468966e+01 2.6367790699523599e+01 
1260 1261 2 1.0280000000719038e+00 6.0504297099906216e+03 1.0000000000000000e+00 2.9998270830998015e+00 1.6153218198620060e+01 2.6533240039936523e+01 
133 134 2 1.0279999999514391e+00 -3.1501937986002640e+03 1.0000000000000000e+00 2.9830019412904334e+00 1.5595143183043422e+01 2.6708051917199196e+01 
1039 1040 2 1.0279999997670028e+00 2.1039145162304753e+03 1.0000000000000000e+00 3.0974767448178957e+00 1.5374262559195135e+01 2.6783317408878776e+01 
583 584 2 1.0279999997061757e+00 2.0596812710169252e+03 1.0000000000000000e+00 3.1402701917303708e+00 1.5325506092945131e+01 2.6821516049344826e+01 
1130 1131 2 1.0280000000691460e+00 4.8083758944349092e+03 1.0000000000000000e+00 3.2759890688954707e+00 1.5737541089020766e+01 2.7444338201498653e+01 
570 571 2 1.0279999999790574e+00 2.0345964847484383e+03 1.0000000000000000e+00 4.3428013479264154e+00 1.7770335334814892e+01 2.6836795328114253e+01 
1385 1386 2 1.0279999999241614e+00 -3.0838781546345563e+03 1.0000000000000000e+00 4.3359548726208041e+00 1.7978263132421635e+01 2.6965186863621422e+01 
900 901 2 1.0279999999094414e+00 -6.9315492934224003e+03 1.0000000000000000e+00 4.2797444482972820e+00 1.8009709558318928e+01 2.7014045054997702e+01 
646 647 2 1.0279999999087694e+00 5.7951611158726482e+03 1.0000000000000000e+00 4.2786023958661454e+00 1.8011671634888710e+01 2.7016492035142743e+01 
1485 1486 2 1.0280000007203456e+00 -8.6364131790603011e+01 1.0000000000000000e+00 1.9084746149383982e+00 1.1880714169270117e+01 2.7965587701551357e+01 
74 75 2 1.0279999999426304e+00 1.2996184272884921e+03 1.0000000000000000e+00 8.6852178456468565e-01 1.1860148160565460e+01 2.8363450431461530e+01 
1295 1296 2 1.0279999999434200e+00 1.0553609301519087e+04 1.0000000000000000e+00 8.7003099076804513e-01 1.1860918422731482e+01 2.8363645891096155e+01 
1071 1072 2 1.0280000000042950e+00 4.2988893891465932e+02 1.0000000000000000e+00 7.3166738284993267e+00 1.3403113891138000e+01 2.8018766051282245e+01 
311 312 2 1.0279999999833078e+00 4.3437294405475279e+02 1.0000000000000000e+00 7.0564773733783355e+00 1.2969626462373432e+01 2.8134921881817590e+01 
80 81 2 1.0279999999664036e+00 -6.3273633081938042e+03 1.0000000000000000e+00 6.8441038944242285e+00 1.2868756711144622e+01 2.8219647664249727e+01 
683 684 2 1.0279999999645690e+00 -4.6908515107985859e+03 1.0000000000000000e+00 6.8138693951443035e+00 1.2862839789911719e+01 2.8230368404048651e+01 
327 328 2 1.0279999999648026e+00 6.7110630427962988e+03 1.0000000000000000e+00 6.4951948307608083e+00 1.2970864413686803e+01 2.8470952307683312e+01 
1327 1328 2 1.0280000000854850e+00 -1.1187534171555794e+03 1.0000000000000000e+00 3.9136944230259734e+00 1.6765179443218432e+01 2.7820033911916983e+01 
792 793 2 1.0280000000950451e+00 -3.5575680634005012e+03 1.0000000000000000e+00 6.3754263467689771e+00 1.5141153822098016e+01 2.8228615986080634e+01 
104 105 2 1.0280000000614093e+00 -1.3931465508170018e+03 1.0000000000000000e+00 6.3447066283550342e+00 1.5155728352667996e+01 2.8503408482897420e+01 
970 971 2 1.0280000000338263e+00 3.5917730200584465e+03 1.0000000000000000e+00 6.2857496178708141e+00 1.5083044489095142e+01 2.8529135036628865e+01 
1361 1362 2 1.0280000000097436e+00 -6.1330040134272031e+02 1.0000000000000000e+00 6.4968302688094575e+00 1.5175524943684799e+01 2.8555009212152541e+01 
1268 1269 2 1.0280000001033032e+00 2.2240737560407229e+03 1.0000000000000000e+00 6.1788696883880361e+00 1.9212841276963445e+01 2.8317040769735623e+01 
687 688 2 1.0280000000909744e+00 -4.5809363343806999e+03 1.0000000000000000e+00 6.2544351553889586e+00 1.9069259010728519e+01 2.8342336118890003e+01 
1473 1474 2 1.0280000000185192e+00 1.4862353354894299e+03 1.0000000000000000e+00 6.5617622151246762e+00 1.8090839810172646e+01 2.8576444632994075e+01 
1252 1253 2 1.0280000000184784e+00 5.9350530030086029e+03 1.0000000000000000e+00 6.6098954402225161e+00 1.7229468616155383e+01 2.8590111403866175e+01 
188 189 2 1.0280000000072078e+00 5.9342996489006400e+03 1.0000000000000000e+00 6.6243860001843826e+00 1.7617765977288542e+01 2.8597672089132466e+01 
1179 1180 2 1.0279999999776117e+00 9.3655583525038196e+02 1.0000000000000000e+00 6.3317067920500838e+00 1.7704239449635576e+01 2.8836428724356455e+01 
26 27 2 1.0279999990611883e+00 3.9381125123881629e+03 1.0000000000000000e+00 1.9918815025589701e+01 1.3089082663528931e+01 4.5358664578754215e+01 
727 728 2 1.0279999994459976e+00 -8.0877501799621696e+03 1.0000000000000000e+00 1.9968683467391180e+01 1.3656633922554526e+01 4.5538106026550700e+01 
1383 1384 2 1.0279999997933140e+00 4.9490006034729277e+03 1.0000000000000000e+00 1.8245297689194590e+01 1.3715547215108810e+01 4.6595885915861906e+01 
1452 1453 2 1.0279999999280531e+00 -3.1847970642692781e+03 1.0000000000000000e+00 1.9357781203488226e+01 1.2793174758164612e+01 4.6674049709846379e+01 
1299 1300 2 1.0279999998543916e+00 1.0237662629021203e+04 1.0000000000000000e+00 1.8233544810538497e+01 1.3739099424006181e+01 4.6707969985265251e+01 
1388 1389 2 1.0279999998483076e+00 -3.0696056357729967e+03 1.0000000000000000e+00 1.9008649941274236e+01 1.4787119842938736e+01 4.6071219667699332e+01 
599 600 2 1.0280000007029984e+00 -4.6950135988586462e+03 1.0000000000000000e+00 1.8135693729377657e+01 1.5492800275210241e+01 4.7173582007270269e+01 
582 583 2 1.0280000002685274e+00 2.0361077306109964e+03 1.0000000000000000e+00 1.8666697603940737e+01 1.5601774650758957e+01 4.7185726113996189e+01 
1214 1215 2 1.0279999999062537e+00 1.4240289024046156e+03 1.0000000000000000e+00 1.9565069803693309e+01 1.4217753356757969e+01 4.7393820836464940e+01 
1326 1327 2 1.0279999999603946e+00 -1.1718671971365420e+03 1.0000000000000000e+00 1.8522345198665132e+01 1.5848296383208865e+01 4.7833344897143952e+01 
1047 1048 2 1.0279999997217613e+00 4.4156513560795628e+02 1.0000000000000000e+00 1.8276260105863891e+01 1.5585801249849881e+01 4.8359399723237836e+01 
557 558 2 1.0279999992478515e+00 -2.1588137722674483e+03 1.0000000000000000e+00 1.7538768901588259e+01 1.6411143150911517e+01 4.8865170116949571e+01 
456 457 2 1.0279999997699039e+00 7.9750029745653192e+03 1.0000000000000000e+00 1.7245826184178497e+01 1.6591692818486287e+01 4.9363834370345430e+01 
453 454 2 1.0279999999130063e+00 7.9811456063181722e+03 1.0000000000000000e+00 1.7215866701459014e+01 1.6666192425765445e+01 4.9488781495205494e+01 
262 263 2 1.0279999995288074e+00 -1.0350600792516193e+03 1.0000000000000000e+00 1.7229623360740735e+01 1.6730502611631149e+01 4.9691801861033809e+01 
158 159 2 1.0280000000289635e+00 -3.7250272992489381e+03 1.0000000000000000e+00 1.6181536302397795e+01 1.6470297855480368e+01 5.1315139438977113e+01 
124 125 2 1.0279999999735985e+00 -1.0087073768500668e+04 1.0000000000000000e+00 1.5473448879347977e+01 1.6881281504684143e+01 5.1742195890463407e+01 
502 503 2 1.0279999998372595e+00 6.8285705063152727e+03 1.0000000000000000e+00 1.6450126818944746e+01 1.7304011488503335e+01 5.0615630873091973e+01 
580 581 2 1.0280000001772789e+00 -4.2480414939108533e+02 1.0000000000000000e+00 1.6693431589521936e+01 1.7436821118995741e+01 5.1410205143495645e+01 
1054 1055 2 1.0279999998678850e+00 -4.6561313821155236e+03 1.0000000000000000e+00 1.5666614088824669e+01 1.8004650959083182e+01 5.2105369296813691e+01 
222 223 2 1.0280000002032619e+00 1.0506400183974092e+04 1.0000000000000000e+00 1.5965669248882657e+01 1.6727407889703723e+01 5.2907550301458720e+01 
1036 1037 2 1.0280000001250471e+00 -4.2090230478568776e+02 1.0000000000000000e+00 1.6151959228255738e+01 1.7052137091195963e+01 5.3122708644617269e+01 
1116 1117 2 1.0280000000692389e+00 -6.7024150604975530e+03 1.0000000000000000e+00 1.5607343626405850e+01 1.6902595965137142e+01 5.3261495398766861e+01 
879 880 2 1.0279999997591434e+00 -8.0906813350988668e+03 1.0000000000000000e+00 1.4043850567602762e+01 1.8503093538784494e+01 5.5100474440712738e+01 
290 291 2 1.0279999997422902e+00 5.9610981006588354e+03 1.0000000000000000e+00 1.3360830640294147e+01 1.9568737493823853e+01 5.5437602055571453e+01 
1305 1306 2 1.0279999998450677e+00 9.7018840997622920e+02 1.0000000000000000e+00 1.3957091570752475e+01 1.8717054293181619e+01 5.5447321387064264e+01 
1177 1178 2 1.0279999998378158e+00 -5.4715693905917233e+03 1.0000000000000000e+00 1.4719684865549482e+01 1.8747226000615139e+01 5.3642663107183978e+01 
138 139 2 1.0279999998848348e+00 4.7420885403684988e+03 1.0000000000000000e+00 1.5035448878191957e+01 1.8810523152412188e+01 5.3774530168308004e+01 
392 393 2 1.0279999997747540e+00 -5.3676047304347921e+03 1.0000000000000000e+00 1.4843665688963529e+01 1.8993005810158614e+01 5.4124358752891389e+01 
1013 1014 2 1.0279999996738565e+00 -2.0847145442881083e+03 1.0000000000000000e+00 1.4749823722781469e+01 1.7908990641033213e+01 5.4421962869179687e+01 
799 800 2 1.0279999996862850e+00 5.6873151822300206e+03 1.0000000000000000e+00 1.2753833972228007e+01 1.8813386482112648e+01 5.7465463869891629e+01 
896 897 2 1.0279999999352545e+00 -4.7770850450431190e+03 1.0000000000000000e+00 1.1488694870506000e+01 1.9498444219373507e+01 5.7829811191618603e+01 
268 269 2 1.0279999998984299e+00 3.6875251940540302e+03 1.0000000000000000e+00 1.2445019503162456e+01 1.8752189240561631e+01 5.8056547475916240e+01 
490 491 2 1.0279999976127634e+00 3.3828468710768093e+03 1.0000000000000000e+00 1.6546545408973341e+00 1.9958155852152899e+01 6.0595031848336035e+01 
190 191 2 1.0279999995903644e+00 -3.8745233410689716e+03 1.0000000000000000e+00 5.5415132812636114e-01 1.9989527823941955e+01 6.1014258369307996e+01 
11 12 2 1.0279999996909397e+00 -5.7926048902362745e+03 1.0000000000000000e+00 5.0625144795537513e-01 1.9984849424403173e+01 6.1028663199619551e+01 
925 926 2 1.0279999990616719e+00 -3.5578530301404089e+03 1.0000000000000000e+00 3.2862525827058473e+00 1.9892676192618261e+01 5.9310326987467349e+01 
469 470 2 1.0279999990627968e+00 -3.5194623932941931e+03 1.0000000000000000e+00 3.2841814340229458e+00 1.9892162689464111e+01 5.9311412821311109e+01 
946 947 2 1.0279999991129938e+00 3.4154210645206495e+03 1.0000000000000000e+00 2.9615073029896211e+00 1.9920332793204260e+01 5.9444215980655741e+01 
446 447 2 1.0279999994847193e+00 -4.7798621931392991e+03 1.0000000000000000e+00 1.1416844367696111e+01 1.9702464899341010e+01 6.0468276012122210e+01 
872 873 2 1.0280000001610032e+00 -1.6359597770937908e+03 1.0000000000000000e+00 1.2157095787355511e+01 1.8858074773188598e+01 5.8748901574140078e+01 
961 962 2 1.0280000002022887e+00 -2.1493210368989858e+03 1.0000000000000000e+00 1.2236888707602995e+01 1.8953019616357171e+01 5.8909046794852166e+01 
1213 1214 2 1.0279999999776706e+00 8.0109055394675706e+03 1.0000000000000000e+00 1.1756883054218621e+01 1.9407190245355714e+01 5.9751111509197948e+01 
928 929 2 1.0280000006007606e+00 -3.5749695856301487e+03 1.0000000000000000e+00 2.5535843331107548e+00 1.9828300723138049e+01 6.3474163160677563e+01 
491 492 2 1.0280000006963035e+00 3.3650296789162903e+03 1.0000000000000000e+00 2.5335620071691545e+00 1.9913269879691512e+01 6.3474969407538737e+01 
947 948 2 1.0280000005306724e+00 3.4204068148819515e+03 1.0000000000000000e+00 2.5318884316859811e+00 1.9793021562098325e+01 6.3477259469283879e+01 
472 473 2 1.0280000001748597e+00 -3.5174690793409018e+03 1.0000000000000000e+00 2.9142327233365255e+00 1.9637628549319277e+01 6.3708652672166735e+01 
869 870 2 1.0279999994215616e+00 -1.6375072857145178e+03 1.0000000000000000e+00 1.0879698107120525e+01 1.9960679731211364e+01 6.1424199715332172e+01 
1113 1114 2 1.0279999994520161e+00 -6.6605932102508159e+03 1.0000000000000000e+00 1.0863166457565649e+01 1.9974411570865360e+01 6.1458675236039490e+01 
191 192 2 1.0279999995983746e+00 -3.8761499864655225e+03 1.0000000000000000e+00 2.1341368211123140e+00 1.9515365633435888e+01 6.4855572195062251e+01 
10 11 2 1.0279999996170672e+00 -5.7888578450079440e+03 1.0000000000000000e+00 2.0588306606211200e+00 1.9697783244611529e+01 6.5100530067396150e+01 
172 173 2 1.0280000002189755e+00 -2.5096278642251806e+02 1.0000000000000000e+00 4.9063652860274960e+00 1.9451656866695892e+01 6.4390117391657782e+01 
1236 1237 2 1.0279999997727629e+00 -2.5871861717112148e+02 1.0000000000000000e+00 5.5033172663546903e+00 1.9545836447245019e+01 6.4391259574147881e+01 
651 652 2 1.0280000002238461e+00 -3.8141745403757941e+03 1.0000000000000000e+00 5.7737717199363079e+00 1.9361858357054505e+01 6.4930897613422687e+01 
803 804 2 1.0280000002339142e+00 -3.8133718912023728e+03 1.0000000000000000e+00 5.7748139125168727e+00 1.9366000723075175e+01 6.4930925542519972e+01 
2 3 2 1.0280000002090368e+00 -9.2438227842954366e+03 1.0000000000000000e+00 5.7644828964647035e+00 1.9364918822334719e+01 6.4942240684418010e+01 
1370 1371 2 1.0280000002103187e+00 -9.2402558068079052e+03 1.0000000000000000e+00 5.7642564344315241e+00 1.9365927452413683e+01 6.4942760767110514e+01 
267 268 2 1.0279999998836635e+00 -3.8623070746521607e+03 1.0000000000000000e+00 1.2947692742570235e+01 1.9770506378947601e+01 6.5391509763978974e+01 
266 267 2 1.0279999997253249e+00 -3.8621171008240908e+03 1.0000000000000000e+00 1.1584995787730655e+01 1.9906770849003806e+01 6.5397053314685479e+01 
28 29 2 1.0280000000124798e+00 3.6490618573208167e+03 1.0000000000000000e+00 1.9601493126086655e+01 3.7407754496819043e+00 6.8311967921408922e+01 
985 986 2 1.0280000000097815e+00 -8.9419882014404538e+03 1.0000000000000000e+00 1.9633281277803029e+01 3.8094668624320005e+00 6.8320290463938406e+01 
1282 1283 2 1.0280000000271956e+00 7.3075366965727335e+03 1.0000000000000000e+00 1.9582966347182673e+01 3.7733215991581148e+00 6.8328078488632315e+01 
1205 1206 2 1.0280000000329763e+00 -7.4984518663327926e+03 1.0000000000000000e+00 1.9568044731380393e+01 3.7662474735101856e+00 6.8334318048528360e+01 
1459 1460 2 1.0280000000690352e+00 7.7256971002071768e+03 1.0000000000000000e+00 1.9850432297009061e+01 3.4346534720863522e+00 6.9071605334699939e+01 
165 166 2 1.0279999998395593e+00 1.3376422809553546e+03 1.0000000000000000e+00 1.9353072170130410e+01 2.0582742337787030e+00 7.1736404615101250e+01 
1090 1091 2 1.0280000001305054e+00 -1.8008283824914124e+03 1.0000000000000000e+00 1.9794351147737501e+01 1.9336695077898916e+00 7.2016209871737061e+01 
460 461 2 1.0279999998647813e+00 7.6575595587156722e+03 1.0000000000000000e+00 1.9897205085032560e+01 3.8618594338062557e+00 7.1490963923766358e+01 
1245 1246 2 1.0280000000106446e+00 1.1386083779760051e+04 1.0000000000000000e+00 1.9090324184094001e+01 5.2549505522811080e+00 7.2158884309678626e+01 
331 332 2 1.0279999998465421e+00 -1.7508044263641327e+03 1.0000000000000000e+00 1.8224729805887559e+01 2.1034987863061954e+00 7.2248364524069302e+01 
330 331 2 1.0280000001760141e+00 -1.7700687705645892e+03 1.0000000000000000e+00 1.8320775611313575e+01 1.8125244124768090e+00 7.2664356892933824e+01 
791 792 2 1.0280000002908605e+00 1.1314166338814166e+03 1.0000000000000000e+00 1.8369942756328090e+01 1.7676475019279367e+00 7.2680719716046895e+01 
168 169 2 1.0280000002525393e+00 1.3459622163073677e+03 1.0000000000000000e+00 1.8352974624795724e+01 1.7855363691972495e+00 7.2688390435219034e+01 
181 182 2 1.0279999999910105e+00 1.1388289829105255e+04 1.0000000000000000e+00 1.8117321347204829e+01 5.1206285783895860e+00 7.2941297425135318e+01 
457 458 2 1.0279999998542875e+00 7.6745257677980899e+03 1.0000000000000000e+00 1.8281820060475223e+01 3.4737131405599206e+00 7.3375234122169388e+01 
851 852 2 1.0279999999788150e+00 -4.6207135254839432e+03 1.0000000000000000e+00 1.8093018839288337e+01 4.8689587511364865e+00 7.3400285259414190e+01 
485 486 2 1.0280000000831588e+00 -3.7614919283946597e+02 1.0000000000000000e+00 1.8279013798934031e+01 4.5390032596833807e+00 7.3768679145103420e+01 
1150 1151 2 1.0279999999850531e+00 4.8086438211063569e+03 1.0000000000000000e+00 1.8576855806914569e+01 6.3390140061528042e+00 7.2909520526395880e+01 
694 695 2 1.0279999999667018e+00 -6.1704416630069336e+03 1.0000000000000000e+00 1.8830233761839541e+01 6.5083751896515656e+00 7.2920338105075970e+01 
1328 1329 2 1.0279999998956797e+00 6.2838405138830094e+03 1.0000000000000000e+00 1.9942499678369884e+01 6.6448238092228626e+00 7.3482399149950766e+01 
950 951 2 1.0279999999032567e+00 1.8233744780926386e+03 1.0000000000000000e+00 1.9632893881779228e+01 7.0032219789084111e+00 7.4205635946935359e+01 
167 168 2 1.0280000004840990e+00 6.0325990748548975e+03 1.0000000000000000e+00 1.9234665768489656e+01 2.7937748468235353e+00 7.5264707772862849e+01 
1401 1402 2 1.0280000001283729e+00 -1.9280606247793872e+02 1.0000000000000000e+00 1.9170412358671808e+01 1.1828390198761769e+00 7.6386117994107039e+01 
370 371 2 1.0280000019774804e+00 4.9057786474404820e+03 1.0000000000000000e+00 1.9878008044833482e+01 5.7268421038258743e-01 7.6492910367729252e+01 
391 392 2 1.0279999998512050e+00 5.1450441309477701e+03 1.0000000000000000e+00 1.9593295773697651e+01 2.6066797619695365e+00 7.6539085771602032e+01 
846 847 2 1.0279999996241374e+00 -6.0689072882253404e+03 1.0000000000000000e+00 1.9360869820874697e+01 1.9096547467643177e+00 7.6847886432756610e+01 
699 700 2 1.0280000009386172e+00 -4.5325459890588645e+03 1.0000000000000000e+00 1.9208366750530679e+01 2.8795520075410499e+00 7.5461005409120432e+01 
25 26 2 1.0280000001409055e+00 3.5420044527022546e+03 1.0000000000000000e+00 1.8900280354478433e+01 5.7389349074289875e+00 7.5639703672166362e+01 
227 228 2 1.0279999998706248e+00 1.0673161609343762e+04 1.0000000000000000e+00 1.8918376248794399e+01 6.4156669816610385e+00 7.5697077939252708e+01 
390 391 2 1.0279999998708360e+00 5.0936091708481217e+03 1.0000000000000000e+00 1.8971828879931195e+01 6.2515210395312053e+00 7.5874818276001619e+01 
30 31 2 1.0279999997091986e+00 6.6640596765749015e+03 1.0000000000000000e+00 1.9306171855968184e+01 6.5890093528217912e+00 7.6261833854854515e+01 