LAMMPS data file via write_data, version 30 Jul 2016, timestep = 50400000

1520 atoms
8 atom types

0.0000000000000000e+00 4.0000000000000000e+01 xlo xhi
0.0000000000000000e+00 4.0000000000000000e+01 ylo yhi
0.0000000000000000e+00 1.0000000000000000e+02 zlo zhi

Masses

1 3.896
2 5.36
3 20.064
4 8.378
5 8.378
6 8.378
7 8.378
8 8.378

Atoms # meso-molecular

1296 1297 2 1.0279999997318516e+00 2.3588322885779617e+03 1.0000000000000000e+00 1.9168509528973814e+01 2.8062411149421940e-01 1.4382058654016674e+00 
479 480 2 1.0279999995731957e+00 1.1179886252409508e+03 1.0000000000000000e+00 1.9109421851784390e+01 3.7439553365768491e-01 1.8647438087050079e+00 
815 816 2 1.0279999994782401e+00 -3.4580379193146064e+03 1.0000000000000000e+00 1.9202931069155103e+01 4.0126499727556419e-01 2.1157598143882712e+00 
1228 1229 2 1.0280000000535219e+00 3.3425414927734910e+03 1.0000000000000000e+00 1.7944315267249223e+01 1.2401923827440628e-01 9.7953445504616319e+00 
597 598 2 1.0280000001997354e+00 7.7209967272829226e+02 1.0000000000000000e+00 1.9580434104057872e+01 1.2642050894578896e-01 1.1676525582529100e+01 
692 693 2 1.0280000000147604e+00 5.3580157402066325e+03 1.0000000000000000e+00 1.9514137469348711e+01 4.2958307730368955e-01 1.1730948706297658e+01 
548 549 2 1.0279999998279443e+00 -9.5536133355202054e+01 1.0000000000000000e+00 1.9694203187416775e+01 1.5368121773487862e+00 1.4958912123096383e+01 
1480 1481 2 1.0279999997974298e+00 -2.4257322919324024e+03 1.0000000000000000e+00 1.9956003297257464e+01 1.3410657517611151e+00 1.5034731478573145e+01 
164 165 2 1.0279999999347333e+00 3.3895750290274095e+03 1.0000000000000000e+00 1.8953413385444065e+01 1.8259108236152082e+00 1.5713501166893542e+01 
775 776 2 1.0279999999385527e+00 1.5238954644269579e+03 1.0000000000000000e+00 1.8949611150931975e+01 1.8248392638043704e+00 1.5742204786472669e+01 
4 5 2 1.0280000000353096e+00 3.0442101352023407e+01 1.0000000000000000e+00 1.9167952466105280e+01 1.9677363031328843e+00 1.6392028850026723e+01 
389 390 2 1.0280000000069984e+00 -5.3592132975139666e+03 1.0000000000000000e+00 4.2134407827932492e+00 8.2329657343746305e+00 1.6109479399978117e+01 
135 136 2 1.0280000000097922e+00 -6.6754095796636793e+03 1.0000000000000000e+00 4.7972808569853269e+00 8.1326975237183454e+00 1.6160501911571743e+01 
1426 1427 2 1.0280000000052782e+00 3.3705974321354970e+03 1.0000000000000000e+00 4.1525917650788484e+00 8.2780277216429354e+00 1.6228125240660912e+01 
423 424 2 1.0280000000135685e+00 -2.7458804957432062e+02 1.0000000000000000e+00 4.2253079387900199e+00 8.2019139112428192e+00 1.6404809807052732e+01 
1056 1057 2 1.0280000000191609e+00 7.6714855394605092e+02 1.0000000000000000e+00 5.1985092360225966e+00 9.4551151729831453e+00 1.4710022373791599e+01 
994 995 2 1.0280000000191580e+00 2.7650528382265820e+03 1.0000000000000000e+00 5.1985431801933180e+00 9.4551614065742591e+00 1.4710044170756616e+01 
1171 1172 2 1.0280000000045564e+00 5.4715505201372489e+03 1.0000000000000000e+00 5.3226580638796834e+00 9.6413618608032738e+00 1.4853192871649583e+01 
1484 1485 2 1.0279999999855713e+00 2.8592195266547988e+03 1.0000000000000000e+00 5.4201452885630044e+00 9.7566385348457629e+00 1.5105839876676807e+01 
1011 1012 2 1.0279999999692153e+00 4.2148345727804790e+03 1.0000000000000000e+00 5.3082805004440496e+00 9.7603635492906378e+00 1.5678162513632454e+01 
752 753 2 1.0279999976102601e+00 1.9076080542702016e+02 1.0000000000000000e+00 2.7044090432174617e+00 3.1917239792468644e-01 1.6791044981762081e+01 
902 903 2 1.0279999993289368e+00 -3.9366391434623620e+03 1.0000000000000000e+00 2.6307897876452242e+00 1.0378683183285031e+00 1.7456909206228655e+01 
604 605 2 1.0279999993313076e+00 7.9724774446007114e+03 1.0000000000000000e+00 2.6297209270756561e+00 1.0423952637278775e+00 1.7459525194750327e+01 
843 844 2 1.0279999994744315e+00 -3.7834277523059718e+03 1.0000000000000000e+00 2.3815338687097332e+00 1.5878802947472179e+00 1.7799751274125430e+01 
732 733 2 1.0279999995343216e+00 -3.5446962034850458e+03 1.0000000000000000e+00 2.5527984861281650e+00 1.8775045915565081e+00 1.8359601865102420e+01 
884 885 2 1.0279999995453304e+00 -3.5422041648575778e+03 1.0000000000000000e+00 2.1072604279131051e+00 2.5563040438182925e+00 1.9430104934751867e+01 
1198 1199 2 1.0280000002696164e+00 -1.4272668224315522e+01 1.0000000000000000e+00 1.9735697318553395e+01 1.9525256841849818e+00 1.6751516337154118e+01 
739 740 2 1.0280000000072116e+00 1.3770155415637059e+03 1.0000000000000000e+00 3.7965257014987479e+00 8.5356538107221063e+00 1.8263317251497810e+01 
669 670 2 1.0280000001078800e+00 6.6060571358464349e+03 1.0000000000000000e+00 3.9518389643706278e+00 8.2502056740192149e+00 1.8978958134732075e+01 
1455 1456 2 1.0280000001095060e+00 1.5254453160291455e+03 1.0000000000000000e+00 3.9558939887591693e+00 8.2550361539196881e+00 1.8996996553900814e+01 
1423 1424 2 1.0280000001105596e+00 8.4769307304431331e+03 1.0000000000000000e+00 3.9584460869403584e+00 8.2585057196454130e+00 1.9009117074133108e+01 
524 525 2 1.0280000001110599e+00 -1.0155846447296091e+04 1.0000000000000000e+00 3.9599468764587109e+00 8.2600737088258853e+00 1.9015000964688625e+01 
831 832 2 1.0279999995441833e+00 -3.6172205699785754e+03 1.0000000000000000e+00 2.0997062286054291e+00 2.5681541515855044e+00 1.9449137070171659e+01 
1126 1127 2 1.0279999999967231e+00 3.3549030302979663e+03 1.0000000000000000e+00 1.1222804497846237e+00 2.2230762838221718e+00 1.9457371444381138e+01 
380 381 2 1.0279999999465748e+00 -4.4403777936512179e+03 1.0000000000000000e+00 1.1161594423823549e+00 1.6457939847485286e+00 2.0439974839463595e+01 
805 806 2 1.0279999999507414e+00 6.1352428989572982e+03 1.0000000000000000e+00 1.1203546533802096e+00 1.6453014752764059e+00 2.0440130533424430e+01 
1127 1128 2 1.0279999999633496e+00 3.3749623741169221e+03 1.0000000000000000e+00 1.1302296340188123e+00 1.6462409928849189e+00 2.0445721350734541e+01 
137 138 2 1.0279999991808733e+00 2.8547336896648712e+03 1.0000000000000000e+00 1.7429401443121262e+00 3.8877829491494467e+00 2.1769025747021882e+01 
202 203 2 1.0279999991325832e+00 3.0577114516411830e+03 1.0000000000000000e+00 1.7626778071333118e+00 3.9010397021947560e+00 2.1808821796628322e+01 
1284 1285 2 1.0279999991097044e+00 1.4792050272081751e+03 1.0000000000000000e+00 1.7766049052923252e+00 3.9089100173548297e+00 2.1836910252127954e+01 
808 809 2 1.0280000007075920e+00 6.0672212862909482e+03 1.0000000000000000e+00 1.6288489989095685e+00 3.4807434777274606e+00 2.1897266516139975e+01 
672 673 2 1.0279999998210154e+00 6.5470953238268112e+03 1.0000000000000000e+00 5.3710478748074921e+00 1.0229160580181286e+01 1.9961777285730943e+01 
454 455 2 1.0279999998203464e+00 1.3973014817366143e+03 1.0000000000000000e+00 5.3453386245608545e+00 1.0265865619599063e+01 1.9972331804985362e+01 
345 346 2 1.0279999998207248e+00 -7.1425632301399241e+02 1.0000000000000000e+00 5.3771678062943371e+00 1.0229271515456769e+01 1.9973372210039610e+01 
836 837 2 1.0279999998239264e+00 4.5674318769158363e+03 1.0000000000000000e+00 5.4214982125795057e+00 1.0227831762758070e+01 2.0074493689880011e+01 
867 868 2 1.0280000004879428e+00 5.1409364338788728e+03 1.0000000000000000e+00 4.5083867479877551e+00 9.8508587248936443e+00 2.0744882662813346e+01 
54 55 2 1.0280000002266871e+00 8.6817264542586581e+03 1.0000000000000000e+00 4.7735086527874300e+00 1.0074810054988644e+01 2.1686165140832319e+01 
147 148 2 1.0280000000272929e+00 7.1688851099522481e+02 1.0000000000000000e+00 5.0012830355199380e+00 1.1185619972073113e+01 2.2211190257274165e+01 
207 208 2 1.0279999997090350e+00 -8.7709585673986567e+02 1.0000000000000000e+00 1.8418659272834110e+00 4.3348372161986211e+00 2.2378507479211869e+01 
640 641 2 1.0280000001541332e+00 -3.5377398736347923e+03 1.0000000000000000e+00 2.0585704266157867e+00 4.9505569248714547e+00 2.3793153804913082e+01 
203 204 2 1.0279999994803610e+00 3.0715317113572783e+03 1.0000000000000000e+00 1.3840214072539858e+00 4.9682490818739788e+00 2.3898623160113619e+01 
255 256 2 1.0279999999713156e+00 3.3137073959774152e+03 1.0000000000000000e+00 1.9994839541746852e+00 5.4768284023904519e+00 2.4451726980285137e+01 
1505 1506 2 1.0279999996412668e+00 2.8929332674075577e+03 1.0000000000000000e+00 1.6913549142184989e+00 5.8661529586193266e+00 2.4852207729184713e+01 
140 141 2 1.0279999996389293e+00 2.8060751817387591e+03 1.0000000000000000e+00 1.6893312392780033e+00 5.8667793332406424e+00 2.4853971123065186e+01 
1508 1509 2 1.0279999995059108e+00 2.8811136785394028e+03 1.0000000000000000e+00 1.5800574060518580e+00 5.8910208992697495e+00 2.4934208303315430e+01 
741 742 2 1.0279999999850149e+00 -4.7766828048638527e+03 1.0000000000000000e+00 2.5680694984306007e+00 1.0984185386119663e+01 2.3028494183350325e+01 
291 292 2 1.0279999999950804e+00 5.9698672779670287e+03 1.0000000000000000e+00 2.5474359501532007e+00 1.0968614922623601e+01 2.3064573816022296e+01 
1207 1208 2 1.0280000000441458e+00 -4.7953653515814622e+03 1.0000000000000000e+00 2.5000841999101762e+00 1.1063084337609718e+01 2.3122825350630780e+01 
577 578 2 1.0280000000877643e+00 -4.1200659559884639e+02 1.0000000000000000e+00 2.4721568833087026e+00 1.1161351750707164e+01 2.3156193344450045e+01 
99 100 2 1.0279999999416278e+00 8.6724860819496535e+03 1.0000000000000000e+00 3.4861637458031103e+00 9.4720293934369337e+00 2.3294371039654042e+01 
1488 1489 2 1.0279999999506928e+00 -2.4480425446043848e+00 1.0000000000000000e+00 5.5637538359928298e+00 1.1212693585830172e+01 2.3353538252693440e+01 
1454 1455 2 1.0279999999427472e+00 1.4337000555863633e+03 1.0000000000000000e+00 5.5924142224813735e+00 1.1042432636963500e+01 2.3564387656627936e+01 
1422 1423 2 1.0279999999664189e+00 8.5291202293292426e+03 1.0000000000000000e+00 4.6858847542587325e+00 9.1878130625890186e+00 2.3625780880551954e+01 
1506 1507 2 1.0279999999738390e+00 4.6170032741345303e+03 1.0000000000000000e+00 4.7345949530591831e+00 9.1839753037240364e+00 2.3806875277661938e+01 
118 119 2 1.0279999999940077e+00 6.1676594083389773e+03 1.0000000000000000e+00 4.8330539096692409e+00 9.2563834010771266e+00 2.4153588880167916e+01 
374 375 2 1.0280000000128031e+00 6.7776531893303800e+03 1.0000000000000000e+00 4.3251198577108845e+00 1.2703834690311549e+01 2.2988621691919782e+01 
512 513 2 1.0280000000384806e+00 -5.9865335707124850e+03 1.0000000000000000e+00 4.9593571491020576e+00 1.2696439961572541e+01 2.3291070492083005e+01 
119 120 2 1.0280000000887444e+00 6.1695781921199450e+03 1.0000000000000000e+00 2.9354889903387114e+00 1.2901761620772335e+01 2.4035626323263667e+01 
134 135 2 1.0279999999827900e+00 -6.7522459206333569e+03 1.0000000000000000e+00 5.0108802841273130e+00 1.2902198606859436e+01 2.4044203021450176e+01 
234 235 2 1.0279999999000686e+00 1.0289909333037176e+04 1.0000000000000000e+00 4.7840831491741627e+00 1.2972982254067173e+01 2.4376556379810594e+01 
748 749 2 1.0279999997894955e+00 -7.0998068932092783e+03 1.0000000000000000e+00 3.4877573247110774e+00 1.3214162378359743e+01 2.4400498737520778e+01 
1260 1261 2 1.0280000000688567e+00 6.0504297099906216e+03 1.0000000000000000e+00 2.9998866611348789e+00 1.6155494653488169e+01 2.4565986052598241e+01 
133 134 2 1.0279999999542559e+00 -3.1501937986002640e+03 1.0000000000000000e+00 2.9830692151806302e+00 1.5597421114527560e+01 2.4740797377848033e+01 
1039 1040 2 1.0279999997789011e+00 2.1039145162304753e+03 1.0000000000000000e+00 3.0975467893548227e+00 1.5376548031741201e+01 2.4816061592322839e+01 
583 584 2 1.0279999997211380e+00 2.0596812710169252e+03 1.0000000000000000e+00 3.1403396080738561e+00 1.5327794612975316e+01 2.4854258310738210e+01 
570 571 2 1.0279999999795812e+00 2.0345964847484383e+03 1.0000000000000000e+00 4.3428533367741702e+00 1.7772621286000302e+01 2.4869553298306666e+01 
1385 1386 2 1.0279999999269189e+00 -3.0838781546345563e+03 1.0000000000000000e+00 4.3360081052712891e+00 1.7980547276086359e+01 2.4997945944504362e+01 
509 510 2 1.0280000000400045e+00 -6.0224195292842051e+03 1.0000000000000000e+00 4.1450780683945423e+00 9.9165766918219465e+00 2.5167631699466487e+01 
117 118 2 1.0280000000460234e+00 -2.6263578535658178e+02 1.0000000000000000e+00 4.1350038785175665e+00 1.0057088772931085e+01 2.5222962676051200e+01 
590 591 2 1.0280000001135139e+00 4.4319885770804774e+02 1.0000000000000000e+00 3.8850404374476288e+00 1.1084014286406736e+01 2.5337817714914035e+01 
1387 1388 2 1.0280000001175098e+00 -6.3210756864329851e+03 1.0000000000000000e+00 3.8747114235768647e+00 1.1084308660620692e+01 2.5338007244004139e+01 
1082 1083 2 1.0280000002972467e+00 -4.1968896188381723e+02 1.0000000000000000e+00 7.4927108952777177e-01 1.2304235037609351e+01 2.5187914001161296e+01 
965 966 2 1.0280000001042546e+00 -5.6519287661960625e+03 1.0000000000000000e+00 1.1531835824592085e+00 1.2774069597353742e+01 2.5438522743453337e+01 
455 456 2 1.0279999999737399e+00 1.3545771492343997e+03 1.0000000000000000e+00 1.3126534921422950e+00 1.2819604176236849e+01 2.5633279402555175e+01 
697 698 2 1.0279999991352571e+00 6.4462656573579488e+03 1.0000000000000000e+00 2.2222129349957787e-01 1.1522832745119276e+01 2.5805754404641263e+01 
1485 1486 2 1.0280000006863090e+00 -8.6364131790603011e+01 1.0000000000000000e+00 1.9085497520213937e+00 1.1882873020727519e+01 2.5998252087612336e+01 
74 75 2 1.0279999999471829e+00 1.2996184272884921e+03 1.0000000000000000e+00 8.6856525040653043e-01 1.1862270175993036e+01 2.6395998716344504e+01 
1295 1296 2 1.0279999999479295e+00 1.0553609301519087e+04 1.0000000000000000e+00 8.7007439423832400e-01 1.1863040489923886e+01 2.6396194342180767e+01 
1071 1072 2 1.0280000000036875e+00 4.2988893891465932e+02 1.0000000000000000e+00 7.3167141069747226e+00 1.3405406597831515e+01 2.6051533003913370e+01 
311 312 2 1.0279999999836080e+00 4.3437294405475279e+02 1.0000000000000000e+00 7.0565163823299599e+00 1.2971921756786529e+01 2.6167688100085265e+01 
80 81 2 1.0279999999675848e+00 -6.3273633081938042e+03 1.0000000000000000e+00 6.8441437841581507e+00 1.2871053678363314e+01 2.6252412786695544e+01 
683 684 2 1.0279999999658564e+00 -4.6908515107985859e+03 1.0000000000000000e+00 6.8139095077673248e+00 1.2865136915869060e+01 2.6263133348058123e+01 
327 328 2 1.0279999999664287e+00 6.7110630427962988e+03 1.0000000000000000e+00 6.4952374296638720e+00 1.2973160650266976e+01 2.6503715476893944e+01 
1130 1131 2 1.0280000000663174e+00 4.8083758944349092e+03 1.0000000000000000e+00 3.2760460274323981e+00 1.5739817309590096e+01 2.5477081556456881e+01 
1327 1328 2 1.0280000000814040e+00 -1.1187534171555794e+03 1.0000000000000000e+00 3.9137438465085208e+00 1.6767464179035983e+01 2.5852789051574856e+01 
792 793 2 1.0280000000902854e+00 -3.5575680634005012e+03 1.0000000000000000e+00 6.3754682659717279e+00 1.5143450414432044e+01 2.6261381168068102e+01 
104 105 2 1.0280000000598228e+00 -1.3931465508170018e+03 1.0000000000000000e+00 6.3447482995203268e+00 1.5158024235210378e+01 2.6536178601980868e+01 
970 971 2 1.0280000000330194e+00 3.5917730200584465e+03 1.0000000000000000e+00 6.2857909240872329e+00 1.5085339283950923e+01 2.6561904877819973e+01 
1361 1362 2 1.0280000000111957e+00 -6.1330040134272031e+02 1.0000000000000000e+00 6.4968735324508895e+00 1.5177820172666284e+01 2.6587779207727436e+01 
900 901 2 1.0279999999131464e+00 -6.9315492934224003e+03 1.0000000000000000e+00 4.2797991031546516e+00 1.8011992883085277e+01 2.5046803623724678e+01 
646 647 2 1.0279999999125149e+00 5.7951611158726482e+03 1.0000000000000000e+00 4.2786570992458826e+00 1.8013954925977639e+01 2.5049250576172589e+01 
1268 1269 2 1.0280000001002720e+00 2.2240737560407229e+03 1.0000000000000000e+00 6.1789267916941206e+00 1.9215138007099878e+01 2.6349795945972794e+01 
687 688 2 1.0280000000881531e+00 -4.5809363343806999e+03 1.0000000000000000e+00 6.2544919763479383e+00 1.9071554869451514e+01 2.6375092319058279e+01 
1473 1474 2 1.0280000000178904e+00 1.4862353354894299e+03 1.0000000000000000e+00 6.5618133117873834e+00 1.8093134149866984e+01 2.6609207322691255e+01 
1252 1253 2 1.0280000000181786e+00 5.9350530030086029e+03 1.0000000000000000e+00 6.6099447470917490e+00 1.7231764772486859e+01 2.6622877099164402e+01 
188 189 2 1.0280000000071179e+00 5.9342996489006400e+03 1.0000000000000000e+00 6.6244355541928135e+00 1.7620061250762259e+01 2.6630436451065723e+01 
1179 1180 2 1.0279999999786784e+00 9.3655583525038196e+02 1.0000000000000000e+00 6.3317548459290283e+00 1.7706534401696363e+01 2.6869191554305861e+01 
26 27 2 1.0279999990457160e+00 3.9381125123881629e+03 1.0000000000000000e+00 1.9911655635879654e+01 1.3089904352409034e+01 4.3388286915515494e+01 
727 728 2 1.0279999994507656e+00 -8.0877501799621696e+03 1.0000000000000000e+00 1.9961331661702602e+01 1.3657356858310619e+01 4.3567616456380165e+01 
1388 1389 2 1.0279999998500564e+00 -3.0696056357729967e+03 1.0000000000000000e+00 1.9000856685684372e+01 1.4787739226578715e+01 4.4100474593657786e+01 
1383 1384 2 1.0279999998049105e+00 4.9490006034729277e+03 1.0000000000000000e+00 1.8237585656773742e+01 1.3716222133458523e+01 4.4625140975890794e+01 
1452 1453 2 1.0279999999395379e+00 -3.1847970642692781e+03 1.0000000000000000e+00 1.9350285533431748e+01 1.2793931224314855e+01 4.4703400240183193e+01 
1299 1300 2 1.0279999998635705e+00 1.0237662629021203e+04 1.0000000000000000e+00 1.8225809521080372e+01 1.3739769006348229e+01 4.4737215241523408e+01 
1214 1215 2 1.0279999999059533e+00 1.4240289024046156e+03 1.0000000000000000e+00 1.9557250177610211e+01 1.4218406912836482e+01 4.5423040255354756e+01 
599 600 2 1.0280000006688670e+00 -4.6950135988586462e+03 1.0000000000000000e+00 1.8127369111115527e+01 1.5493410703119226e+01 4.5202627014222628e+01 
582 583 2 1.0280000002452472e+00 2.0361077306109964e+03 1.0000000000000000e+00 1.8658457540266497e+01 1.5602379877764276e+01 4.5214806839019019e+01 
1326 1327 2 1.0279999999429184e+00 -1.1718671971365420e+03 1.0000000000000000e+00 1.8513856028512631e+01 1.5848852812215560e+01 4.5862359940386277e+01 
1047 1048 2 1.0279999997084746e+00 4.4156513565343101e+02 1.0000000000000000e+00 1.8267640645510635e+01 1.5586347702231254e+01 4.6388346880034128e+01 
557 558 2 1.0279999992725046e+00 -2.1588137722674483e+03 1.0000000000000000e+00 1.7529688615730517e+01 1.6411558765210852e+01 4.6893919038716106e+01 
158 159 2 1.0280000000267644e+00 -3.7250272992489381e+03 1.0000000000000000e+00 1.6171431678572407e+01 1.6470490493541000e+01 4.9343333440374060e+01 
124 125 2 1.0279999999724536e+00 -1.0087073768500668e+04 1.0000000000000000e+00 1.5463105545733418e+01 1.6881433729921259e+01 4.9770311347123631e+01 
456 457 2 1.0279999997761708e+00 7.9750029745653192e+03 1.0000000000000000e+00 1.7236536323494519e+01 1.6592058936263360e+01 4.7392442774695503e+01 
453 454 2 1.0279999998935418e+00 7.9811456063181722e+03 1.0000000000000000e+00 1.7206530299983140e+01 1.6666545306818527e+01 4.7517359931352900e+01 
262 263 2 1.0279999994955846e+00 -1.0350600792516193e+03 1.0000000000000000e+00 1.7220219711256693e+01 1.6730832847497108e+01 4.7720338613875015e+01 
502 503 2 1.0279999998273408e+00 6.8285705063152727e+03 1.0000000000000000e+00 1.6440232640397578e+01 1.7304224631045191e+01 4.8643918838052038e+01 
580 581 2 1.0280000001596321e+00 -4.2480414937147464e+02 1.0000000000000000e+00 1.6683318987723624e+01 1.7437015798794235e+01 4.9438395600757211e+01 
222 223 2 1.0280000001969023e+00 1.0506400183974092e+04 1.0000000000000000e+00 1.5955111831954232e+01 1.6727504845576533e+01 5.0935604827715636e+01 
1036 1037 2 1.0280000001186487e+00 -4.2090230478568776e+02 1.0000000000000000e+00 1.6141354483530250e+01 1.7052237713654502e+01 5.1150745674339049e+01 
1116 1117 2 1.0280000000627085e+00 -6.7024150604975530e+03 1.0000000000000000e+00 1.5596663955266903e+01 1.6902685858606247e+01 5.1289505910083570e+01 
1054 1055 2 1.0279999998533993e+00 -4.6561313821155236e+03 1.0000000000000000e+00 1.5656084309454021e+01 1.8004754119092823e+01 5.0133432037515227e+01 
1177 1178 2 1.0279999998242009e+00 -5.4715693905917233e+03 1.0000000000000000e+00 1.4708543371851782e+01 1.8747182424795827e+01 5.1670477263693343e+01 
138 139 2 1.0279999998712368e+00 4.7420885403684988e+03 1.0000000000000000e+00 1.5024301042274260e+01 1.8810481363333313e+01 5.1802340043514448e+01 
392 393 2 1.0279999997686249e+00 -5.3676047304347921e+03 1.0000000000000000e+00 1.4832411629727178e+01 1.8992923356620945e+01 5.2152109930517234e+01 
1013 1014 2 1.0279999996788964e+00 -2.0847145442881083e+03 1.0000000000000000e+00 1.4738641389526700e+01 1.7908992477407860e+01 5.2449718750420914e+01 
879 880 2 1.0279999997677294e+00 -8.0906813350988668e+03 1.0000000000000000e+00 1.4032358731085260e+01 1.8502984548742646e+01 5.3128060953142970e+01 
290 291 2 1.0279999997211888e+00 5.9610981006588354e+03 1.0000000000000000e+00 1.3349052328563198e+01 1.9568496865775451e+01 5.3465050263012543e+01 
1305 1306 2 1.0279999998470999e+00 9.7018840997622920e+02 1.0000000000000000e+00 1.3945481231202828e+01 1.8716902268049459e+01 5.3474843893670972e+01 
799 800 2 1.0279999997045286e+00 5.6873151822300206e+03 1.0000000000000000e+00 1.2741522552034414e+01 1.8813074381324824e+01 5.5492657977131330e+01 
925 926 2 1.0279999991002258e+00 -3.5578530301404089e+03 1.0000000000000000e+00 3.2732512565550311e+00 1.9892505823241024e+01 5.7335947497913558e+01 
469 470 2 1.0279999991013051e+00 -3.5194623932941931e+03 1.0000000000000000e+00 3.2711799312621213e+00 1.9891992327845834e+01 5.7337033034316278e+01 
946 947 2 1.0279999991495010e+00 3.4154210645206495e+03 1.0000000000000000e+00 2.9484905395567647e+00 1.9920147589128259e+01 5.7469808595202544e+01 
896 897 2 1.0279999999440828e+00 -4.7770850450431190e+03 1.0000000000000000e+00 1.1476230947408842e+01 1.9498057252081562e+01 5.5856939161108116e+01 
268 269 2 1.0279999999087763e+00 3.6875251940540302e+03 1.0000000000000000e+00 1.2432591457933318e+01 1.8751832535619474e+01 5.6083691312685879e+01 
872 873 2 1.0280000001570178e+00 -1.6359597770937908e+03 1.0000000000000000e+00 1.2144545530578210e+01 1.8857673274897678e+01 5.6776015998894984e+01 
961 962 2 1.0280000001954688e+00 -2.1493210368989858e+03 1.0000000000000000e+00 1.2224321644634507e+01 1.8952613573703708e+01 5.6936159911726257e+01 
1213 1214 2 1.0279999999727962e+00 8.0109055394675706e+03 1.0000000000000000e+00 1.1744111390614425e+01 1.9406760762259569e+01 5.7778149288724897e+01 
490 491 2 1.0279999976949552e+00 3.3828468710768093e+03 1.0000000000000000e+00 1.6415191159493190e+00 1.9957964058900142e+01 5.8620494122308664e+01 
190 191 2 1.0279999996041360e+00 -3.8745233410689716e+03 1.0000000000000000e+00 5.4097609289587267e-01 1.9989283823305676e+01 5.9039576432088005e+01 
11 12 2 1.0279999997012690e+00 -5.7926048902362745e+03 1.0000000000000000e+00 4.9307562972848418e-01 1.9984604151328806e+01 5.9053976060386304e+01 
446 447 2 1.0279999995009357e+00 -4.7798621931392991e+03 1.0000000000000000e+00 1.1403875163037769e+01 1.9702032460959781e+01 5.8495222716717713e+01 
869 870 2 1.0279999994397637e+00 -1.6375072857145178e+03 1.0000000000000000e+00 1.0866489709287549e+01 1.9960220479920952e+01 5.9451033285597255e+01 
1113 1114 2 1.0279999994689200e+00 -6.6605932102508159e+03 1.0000000000000000e+00 1.0849950479436327e+01 1.9973949087816361e+01 5.9485505254623462e+01 
928 929 2 1.0280000005768444e+00 -3.5749695856301487e+03 1.0000000000000000e+00 2.5401356662599550e+00 1.9827930382495804e+01 6.1499590485418544e+01 
491 492 2 1.0280000006673933e+00 3.3650296789162903e+03 1.0000000000000000e+00 2.5201135513295823e+00 1.9912912697058903e+01 6.1500393730154038e+01 
947 948 2 1.0280000005112482e+00 3.4204068148819515e+03 1.0000000000000000e+00 2.5184371158089438e+00 1.9792646727105524e+01 6.1502687795304276e+01 
191 192 2 1.0279999996130500e+00 -3.8761499864655225e+03 1.0000000000000000e+00 2.1206321047382803e+00 1.9515005647027390e+01 6.2880996191786494e+01 
10 11 2 1.0279999996304270e+00 -5.7888578450079440e+03 1.0000000000000000e+00 2.0453213557289183e+00 1.9697417322970665e+01 6.3125936460278382e+01 
472 473 2 1.0280000001654317e+00 -3.5174690793409018e+03 1.0000000000000000e+00 2.9007829783214358e+00 1.9637239095886422e+01 6.1734115273873769e+01 
172 173 2 1.0280000002117966e+00 -2.5096278642251806e+02 1.0000000000000000e+00 4.8928626275922298e+00 1.9451241734054840e+01 6.2415618881993431e+01 
1236 1237 2 1.0279999997809968e+00 -2.5871861717112148e+02 1.0000000000000000e+00 5.4898107175645618e+00 1.9545416843962407e+01 6.2416780813863241e+01 
651 652 2 1.0280000002165026e+00 -3.8141745403757941e+03 1.0000000000000000e+00 5.7602692758857232e+00 1.9361434892527299e+01 6.2956433008328062e+01 
803 804 2 1.0280000002262843e+00 -3.8133718912023728e+03 1.0000000000000000e+00 5.7613117337029749e+00 1.9365577419735246e+01 6.2956461252413831e+01 
2 3 2 1.0280000002021874e+00 -9.2438227842954366e+03 1.0000000000000000e+00 5.7509796578622732e+00 1.9364495671186482e+01 6.2967776295616794e+01 
1370 1371 2 1.0280000002034315e+00 -9.2402558068079052e+03 1.0000000000000000e+00 5.7507532084605000e+00 1.9365504348380998e+01 6.2968296452200192e+01 
267 268 2 1.0279999998879015e+00 -3.8623070746521607e+03 1.0000000000000000e+00 1.2933602214681256e+01 1.9769978245281617e+01 6.3418292509378155e+01 
266 267 2 1.0279999997349571e+00 -3.8621171008240908e+03 1.0000000000000000e+00 1.1570891498109610e+01 1.9906239292193913e+01 6.3423845929393359e+01 
28 29 2 1.0280000000108662e+00 3.6490618573208167e+03 1.0000000000000000e+00 1.9608298375642658e+01 3.7373143094234709e+00 6.6342021980067500e+01 
985 986 2 1.0280000000083545e+00 -8.9419882014404538e+03 1.0000000000000000e+00 1.9640086647834529e+01 3.8060060547293078e+00 6.6350344676465511e+01 
1282 1283 2 1.0280000000248883e+00 7.3075366965727335e+03 1.0000000000000000e+00 1.9589771194667087e+01 3.7698607871698955e+00 6.6358132157797996e+01 
1205 1206 2 1.0280000000303939e+00 -7.4984518663327926e+03 1.0000000000000000e+00 1.9574849335368238e+01 3.7627866676453872e+00 6.6364371582288001e+01 
1459 1460 2 1.0280000000679035e+00 7.7256971002071768e+03 1.0000000000000000e+00 1.9857225576375239e+01 3.4311946471800052e+00 6.7101666217386025e+01 
165 166 2 1.0279999998466613e+00 1.3376422809553546e+03 1.0000000000000000e+00 1.9359724950889312e+01 2.0548955469485537e+00 6.9766473086900234e+01 
1090 1091 2 1.0280000001236163e+00 -1.8008283824914124e+03 1.0000000000000000e+00 1.9800997393370920e+01 1.9302725283466429e+00 7.0046276396353889e+01 
331 332 2 1.0279999998530558e+00 -1.7508044263641327e+03 1.0000000000000000e+00 1.8231375222769138e+01 2.1001300089302077e+00 7.0278417994119309e+01 
330 331 2 1.0280000001687000e+00 -1.7700687705645892e+03 1.0000000000000000e+00 1.8327384752004296e+01 1.8091474691892919e+00 7.0694407485076809e+01 
791 792 2 1.0280000002786429e+00 1.1314166338814166e+03 1.0000000000000000e+00 1.8376546963719026e+01 1.7642648842391531e+00 7.0710772058535710e+01 
168 169 2 1.0280000002419760e+00 1.3459622163073677e+03 1.0000000000000000e+00 1.8359580166052137e+01 1.7821559260399293e+00 7.0718442694545601e+01 
460 461 2 1.0279999998711011e+00 7.6575595587156722e+03 1.0000000000000000e+00 1.9903905185536050e+01 3.8584470583007362e+00 6.9521044492108516e+01 
1245 1246 2 1.0280000000103384e+00 1.1386083779760051e+04 1.0000000000000000e+00 1.9097060216498161e+01 5.2515540746282392e+00 7.0188962400199713e+01 
181 182 2 1.0279999999915597e+00 1.1388289829105255e+04 1.0000000000000000e+00 1.8124062965996444e+01 5.1172399730499070e+00 7.0971375145208398e+01 
457 458 2 1.0279999998605727e+00 7.6745257677980899e+03 1.0000000000000000e+00 1.8288500666309734e+01 3.4703463883981520e+00 7.1405294334311478e+01 
851 852 2 1.0279999999799403e+00 -4.6207135254839432e+03 1.0000000000000000e+00 1.8099752890318292e+01 4.8655769569267946e+00 7.1430360804206373e+01 
485 486 2 1.0280000000798872e+00 -3.7614919283946597e+02 1.0000000000000000e+00 1.8285725929911614e+01 4.5356259952623805e+00 7.1798758600193111e+01 
1150 1151 2 1.0279999999858684e+00 4.8086438211063569e+03 1.0000000000000000e+00 1.8583628477203913e+01 6.3356160929678556e+00 7.0939611162494629e+01 
694 695 2 1.0279999999683354e+00 -6.1704416630069336e+03 1.0000000000000000e+00 1.8837009078304671e+01 6.5049746080363171e+00 7.0950431624776257e+01 
1328 1329 2 1.0279999999004656e+00 6.2838405138830094e+03 1.0000000000000000e+00 1.9949274707021971e+01 6.6414198590238440e+00 7.1512496364757396e+01 
167 168 2 1.0280000004632031e+00 6.0325990748548975e+03 1.0000000000000000e+00 1.9241218937459717e+01 2.7904778578077640e+00 7.3294862139018491e+01 
1401 1402 2 1.0280000001248557e+00 -1.9280606247793872e+02 1.0000000000000000e+00 1.9176729932578318e+01 1.1796313675228309e+00 7.4416358176047339e+01 
370 371 2 1.0280000018820801e+00 4.9057786474404820e+03 1.0000000000000000e+00 1.9884325867131878e+01 5.6950107824865215e-01 7.4523138730043158e+01 
391 392 2 1.0279999998581950e+00 5.1450441309477701e+03 1.0000000000000000e+00 1.9599792692681930e+01 2.6034283716349926e+00 7.4569276088746150e+01 
846 847 2 1.0279999996485154e+00 -6.0689072882253404e+03 1.0000000000000000e+00 1.9367278588192193e+01 1.9064400896209150e+00 7.4878098931909804e+01 
699 700 2 1.0280000008966428e+00 -4.5325459890588645e+03 1.0000000000000000e+00 1.9214888780146499e+01 2.8762689084292288e+00 7.3491174440018256e+01 
950 951 2 1.0279999999072984e+00 1.8233744780926386e+03 1.0000000000000000e+00 1.9639698061223555e+01 6.9998049203642605e+00 7.2235731953569186e+01 
25 26 2 1.0280000001342195e+00 3.5420044527022546e+03 1.0000000000000000e+00 1.8907101671648750e+01 5.7355326074979924e+00 7.3669812538851588e+01 
227 228 2 1.0279999998759628e+00 1.0673161609343762e+04 1.0000000000000000e+00 1.8925246093087331e+01 6.4122466998831280e+00 7.3727169920206535e+01 
390 391 2 1.0279999998763658e+00 5.0936091708481217e+03 1.0000000000000000e+00 1.8978701174164645e+01 6.2481043767106925e+00 7.3904908300713842e+01 
30 31 2 1.0279999997225249e+00 6.6640596765749015e+03 1.0000000000000000e+00 1.9313075813526194e+01 6.5855623945252013e+00 7.4291905594902772e+01 