LAMMPS data file via write_data, version 30 Jul 2016, timestep = 50400000

567 atoms
2 atom types

0.0000000000000000e+00 2.0000000000000000e+01 xlo xhi
0.0000000000000000e+00 2.0000000000000000e+01 ylo yhi
0.0000000000000000e+00 2.0000000000000000e+01 zlo zhi

Masses

1 3.896
2 5

Atoms # meso-molecular

4 1 2 5.0012821125404390e+00 -5.2583974376124922e+02 1.0000000000000000e+00 5.1436368312325200e+00 2.1030628882241724e+00 1.1357947806898322e+01 
96 1 2 5.0112235425439593e+00 -3.0670424091070248e+02 1.0000000000000000e+00 5.1479655695616682e+00 2.1029407759901440e+00 1.1355975200592702e+01 
87 1 2 5.0003179727191274e+00 -4.8841146612798036e+02 1.0000000000000000e+00 5.1432894093005803e+00 2.1028916151623060e+00 1.1358172082767647e+01 
97 1 2 4.9999665447514818e+00 -3.8706702586914543e+02 1.0000000000000000e+00 5.1433046580061168e+00 2.1024649459066156e+00 1.1358321206606957e+01 
16 1 2 4.9781325256436695e+00 -3.4065481630529570e+02 1.0000000000000000e+00 5.1269169999119741e+00 2.1197080299457900e+00 1.1357941952021454e+01 
7 1 2 4.9996723551264308e+00 -3.6626855489371542e+02 1.0000000000000000e+00 5.1432025278531688e+00 2.1024481431270976e+00 1.1358411207684526e+01 
14 1 2 5.0089099503684285e+00 -3.5674707426042687e+02 1.0000000000000000e+00 5.1451756994307170e+00 2.1069700884730853e+00 1.1355307716622185e+01 
88 1 2 4.9978575934393445e+00 -4.9518525997083611e+02 1.0000000000000000e+00 6.1979765848969208e+00 2.2980259403977210e+00 1.0747252193701096e+01 
95 1 2 5.0005869360939386e+00 -3.7988387174142275e+02 1.0000000000000000e+00 5.1435346753397511e+00 2.1025304359063042e+00 1.1358167783674521e+01 
15 1 2 5.0001103779012546e+00 -3.6805987420263972e+02 1.0000000000000000e+00 6.1972272396656365e+00 2.2973526619208182e+00 1.0747914386820627e+01 
6 1 2 4.9991627764292756e+00 -4.5134988358297710e+02 1.0000000000000000e+00 5.4815182754634488e+00 2.7163516411700481e+00 1.0889917327000189e+01 
86 1 2 5.0004149646038218e+00 -4.7014614073410814e+02 1.0000000000000000e+00 6.1971585359859382e+00 2.2973325282477952e+00 1.0748078294389005e+01 
85 1 2 5.0024626241076380e+00 -5.3612580295047144e+02 1.0000000000000000e+00 6.1962301943300826e+00 2.2977932255802078e+00 1.0748428873909965e+01 
26 1 2 5.0001315090492913e+00 -2.9552059760740286e+02 1.0000000000000000e+00 6.1972515097416689e+00 2.2972668270846159e+00 1.0747963671469813e+01 
24 1 2 4.9997059963943338e+00 -4.9992233372628215e+02 1.0000000000000000e+00 6.1973119155045522e+00 2.2976177627526813e+00 1.0747730173660136e+01 
25 1 2 5.0001332466838466e+00 -3.5306455818248958e+02 1.0000000000000000e+00 6.1972341941357625e+00 2.2972919122901638e+00 1.0747937947561166e+01 
5 1 2 5.0001365263687960e+00 -5.5180696034268976e+02 1.0000000000000000e+00 6.1972963753584986e+00 2.2973853076579469e+00 1.0748074394940405e+01 
18 1 2 1.9946176136191309e+00 -4.8894463598964933e+02 1.0000000000000000e+00 5.2770847782736849e+00 1.9547016607945886e+00 1.5757772112073706e+01 
9 1 2 1.9946176136191309e+00 -5.0995861292112755e+02 1.0000000000000000e+00 5.2770847782737631e+00 1.9547016607946173e+00 1.5757772112073873e+01 
8 1 2 1.9946176136191309e+00 -4.0192605657921939e+02 1.0000000000000000e+00 5.2770847782734762e+00 1.9547016607946246e+00 1.5757772112074218e+01 
90 1 2 1.9946176136191309e+00 -4.0923081011315969e+02 1.0000000000000000e+00 5.2770847782739123e+00 1.9547016607946905e+00 1.5757772112073711e+01 
17 1 2 1.9946176136191309e+00 -2.7216043611321311e+02 1.0000000000000000e+00 5.2770847782735180e+00 1.9547016607946159e+00 1.5757772112074109e+01 
35 1 2 1.5956940908953048e+00 -1.9895367442469001e+02 1.0000000000000000e+00 5.2620687158334265e+00 8.6808478623527314e+00 1.5353669798447765e+01 
45 1 2 1.5956940908953048e+00 -1.8612944040594957e+02 1.0000000000000000e+00 5.2620687158334203e+00 8.6808478623530476e+00 1.5353669798448614e+01 
44 1 2 1.5956940908953048e+00 -2.6665754788150900e+02 1.0000000000000000e+00 5.2620687158337489e+00 8.6808478623524845e+00 1.5353669798448060e+01 
116 1 2 1.5956940908953048e+00 -3.3187736897094300e+02 1.0000000000000000e+00 5.2620687158334656e+00 8.6808478623526906e+00 1.5353669798448047e+01 
117 1 2 1.5956940908953048e+00 -3.9080863487113834e+02 1.0000000000000000e+00 5.8872747151245557e+00 6.0811596839615474e+00 1.7165898964696211e+01 
27 1 2 1.5956940908953048e+00 -4.0865181777204953e+02 1.0000000000000000e+00 5.8872747151245219e+00 6.0811596839614932e+00 1.7165898964696417e+01 
108 1 2 1.5956940908953048e+00 -4.4805617528863559e+02 1.0000000000000000e+00 5.8872747151244775e+00 6.0811596839614745e+00 1.7165898964695621e+01 
36 1 2 1.5956940908953048e+00 -4.3839405109672651e+02 1.0000000000000000e+00 5.8872747151245450e+00 6.0811596839618414e+00 1.7165898964695490e+01 
64 1 2 1.1967705681714786e+00 -3.9440582926869314e+02 1.0000000000000000e+00 5.5256039458286237e+00 1.6340980344646518e+01 8.8483802805168532e-01 
73 1 2 1.1967705681714786e+00 -3.7853262673766363e+02 1.0000000000000000e+00 5.5256039458284105e+00 1.6340980344646297e+01 8.8483802805168532e-01 
154 1 2 1.1967705681714786e+00 -3.3303985133438402e+02 1.0000000000000000e+00 5.5256039458286770e+00 1.6340980344646692e+01 8.8483802805166367e-01 
56 1 2 2.3935411363429573e+00 -3.1961919189302199e+02 1.0000000000000000e+00 4.7619881351674911e+00 1.5556391300077291e+01 4.2283592028405295e+00 
57 1 2 2.3935411363429573e+00 -3.1077958477237985e+02 1.0000000000000000e+00 4.7619881351672539e+00 1.5556391300076417e+01 4.2283592028408741e+00 
65 1 2 2.3935411363429573e+00 -3.5460043419816486e+02 1.0000000000000000e+00 4.7619881351675932e+00 1.5556391300077207e+01 4.2283592028406032e+00 
66 1 2 2.3935411363429573e+00 -3.2040771482130299e+02 1.0000000000000000e+00 4.7619881351675621e+00 1.5556391300077440e+01 4.2283592028404833e+00 
74 1 2 2.3935411363429573e+00 -3.2958703152542677e+02 1.0000000000000000e+00 4.7619881351676714e+00 1.5556391300077181e+01 4.2283592028406112e+00 
75 1 2 2.3935411363429573e+00 -3.3774451813405665e+02 1.0000000000000000e+00 4.7619881351681608e+00 1.5556391300077108e+01 4.2283592028404344e+00 
58 1 2 1.1967705681714786e+00 -2.4740231896948308e+02 1.0000000000000000e+00 4.1636164442831261e+00 1.3944479269293147e+01 7.0419828076516859e+00 
59 1 2 1.1967705681714786e+00 -3.3722848237696786e+02 1.0000000000000000e+00 4.1636164442830559e+00 1.3944479269293147e+01 7.0419828076514612e+00 
67 1 2 1.1967705681714786e+00 -1.9801450423169223e+02 1.0000000000000000e+00 4.1636164442832424e+00 1.3944479269293147e+01 7.0419828076517774e+00 
148 1 2 4.7870822726857236e+00 -4.9158538410502592e+02 1.0000000000000000e+00 6.0076557181669683e+00 1.5979168443808318e+01 9.1227469693907572e+00 
149 1 2 4.7870822726857476e+00 -4.2256006730257837e+02 1.0000000000000000e+00 6.0076557570993874e+00 1.5979168438409403e+01 9.1227469587537051e+00 
159 1 2 4.7870822726857902e+00 -3.7959576685324475e+02 1.0000000000000000e+00 6.0076558251672871e+00 1.5979168236302407e+01 9.1227469599142541e+00 
150 1 2 4.7870822726857991e+00 -3.7882515393211781e+02 1.0000000000000000e+00 6.0076558918865066e+00 1.5979168259509422e+01 9.1227469532054712e+00 
140 1 2 4.7870822726857734e+00 -3.9596813787924157e+02 1.0000000000000000e+00 6.0076558034658429e+00 1.5979168427721520e+01 9.1227469825715222e+00 
76 1 2 4.7870822726854518e+00 -3.6101869492712535e+02 1.0000000000000000e+00 6.0076560484986006e+00 1.5979168069112104e+01 9.1227472633262074e+00 
157 1 2 4.7870822726854936e+00 -3.7254031293697301e+02 1.0000000000000000e+00 6.0076560172739475e+00 1.5979168073054725e+01 9.1227472494730826e+00 
77 1 2 4.7870822726857618e+00 -3.4375947378075472e+02 1.0000000000000000e+00 6.0076557861594617e+00 1.5979168415450191e+01 9.1227469177484579e+00 
69 1 2 4.7870822726857050e+00 -3.7838189870824664e+02 1.0000000000000000e+00 6.0076560204583105e+00 1.5979168378306456e+01 9.1227468378327021e+00 
158 1 2 4.7870822726857796e+00 -4.3744778758637347e+02 1.0000000000000000e+00 6.0076558699783194e+00 1.5979168226758606e+01 9.1227470649996878e+00 
68 1 2 4.7870822726857556e+00 -3.8785705259846645e+02 1.0000000000000000e+00 6.0076557732843376e+00 1.5979168430776690e+01 9.1227469395540357e+00 
78 1 2 4.7870822726856748e+00 -3.6826268648656730e+02 1.0000000000000000e+00 6.0076559371632499e+00 1.5979168385375941e+01 9.1227467550497021e+00 
53 1 2 4.3881587499620505e+00 -4.2122226608488319e+02 1.0000000000000000e+00 5.8394292077104337e+00 1.1969897720805811e+01 1.5484478367724108e+01 
125 1 2 4.3881587499620354e+00 -2.5152127073934548e+02 1.0000000000000000e+00 5.8394292245128856e+00 1.1969897595329188e+01 1.5484478451674484e+01 
62 1 2 4.3881587499620514e+00 -3.7713689089099648e+02 1.0000000000000000e+00 5.8394292090377151e+00 1.1969897720347388e+01 1.5484478370213543e+01 
54 1 2 4.3881587499620363e+00 -2.2685066069186379e+02 1.0000000000000000e+00 5.8394292241883177e+00 1.1969897595497184e+01 1.5484478451526485e+01 
135 1 2 4.3881587499620611e+00 -2.9538262835229409e+02 1.0000000000000000e+00 5.8394292591178392e+00 1.1969897701609062e+01 1.5484478486127847e+01 
143 1 2 4.3881587499620585e+00 -3.2931474897137616e+02 1.0000000000000000e+00 5.8394292732079380e+00 1.1969897711617843e+01 1.5484478488047138e+01 
52 1 2 4.3881587499620354e+00 -3.5529501273863559e+02 1.0000000000000000e+00 5.8394292073649314e+00 1.1969897750807430e+01 1.5484478332239343e+01 
144 1 2 4.3881587499620442e+00 -3.3175268522351666e+02 1.0000000000000000e+00 5.8394292737976192e+00 1.1969897754435669e+01 1.5484478536146590e+01 
63 1 2 4.3881587499620336e+00 -3.7409057177855601e+02 1.0000000000000000e+00 5.8394292747545489e+00 1.1969897776144114e+01 1.5484478552254989e+01 
61 1 2 4.3881587499620238e+00 -2.9539346514641375e+02 1.0000000000000000e+00 5.8394292193109116e+00 1.1969897778022414e+01 1.5484478314330365e+01 
153 1 2 4.3881587499620309e+00 -3.0538172250739501e+02 1.0000000000000000e+00 5.8394292743704286e+00 1.1969897781959245e+01 1.5484478554113950e+01 
80 1 2 2.3935411363429573e+00 -4.9906685034645591e+02 1.0000000000000000e+00 6.4705704689329782e+00 1.6129214257370073e+01 1.7202830648246348e+01 
72 1 2 2.3935411363429573e+00 -3.2193857401412345e+02 1.0000000000000000e+00 6.4705704689333086e+00 1.6129214257373871e+01 1.7202830648247016e+01 
81 1 2 2.3935411363429573e+00 -4.7649908831211087e+02 1.0000000000000000e+00 6.4705704689324310e+00 1.6129214257370471e+01 1.7202830648247403e+01 
162 1 2 2.3935411363429573e+00 -4.1534934494734944e+02 1.0000000000000000e+00 6.4705704689330217e+00 1.6129214257370876e+01 1.7202830648248472e+01 
234 1 2 2.3935411363429573e+00 -4.8186786007248651e+02 1.0000000000000000e+00 6.4705704689326398e+00 1.6129214257371377e+01 1.7202830648246916e+01 
243 1 2 2.3935411363429573e+00 -4.9864830125400897e+02 1.0000000000000000e+00 6.4705704689333672e+00 1.6129214257372489e+01 1.7202830648246113e+01 
11 1 2 4.7690009478793103e+00 -3.3393617135091267e+02 1.0000000000000000e+00 1.0880814271915137e+01 7.3054474234153677e+00 1.9876800997779724e+00 
353 1 2 4.9383332177250638e+00 -3.4554151315708640e+02 1.0000000000000000e+00 1.1075073242967413e+01 7.4386013793117094e+00 1.9651896257170742e+00 
118 1 2 4.8989044707994100e+00 -5.7563898772260984e+02 1.0000000000000000e+00 1.1624487125418792e+01 7.2199012100774764e+00 1.8415390030224237e+00 
507 1 2 4.8550249568093040e+00 -3.6092932369287172e+02 1.0000000000000000e+00 1.1672589156303463e+01 7.6741515431198390e+00 1.9262653957412916e+00 
3 1 2 4.9686660197194836e+00 -4.8471999301155358e+02 1.0000000000000000e+00 1.0495811662618619e+01 5.8927953732233318e+00 3.3653896637497751e+00 
345 1 2 4.6886032017925690e+00 -2.6445324117352231e+02 1.0000000000000000e+00 1.1063605773939694e+01 5.3835993352863101e+00 3.8516515822612480e+00 
517 1 2 5.1251432040829128e+00 -3.7994143062519339e+02 1.0000000000000000e+00 1.0097278356451300e+01 5.8792726883097544e+00 3.6563670594966369e+00 
451 1 2 5.0180882781336624e+00 -3.5166938639358892e+02 1.0000000000000000e+00 1.0915367858094777e+01 7.9635873430265640e+00 2.2714970477563847e+00 
120 1 2 5.0697915723829405e+00 -4.1942037667855232e+02 1.0000000000000000e+00 9.6105859895505557e+00 6.3516105840829677e+00 3.6429335754405399e+00 
165 1 2 5.0839024640779487e+00 -4.1877159818999235e+02 1.0000000000000000e+00 9.6213486763357103e+00 6.3190670966434110e+00 3.6650787602427917e+00 
48 1 2 5.0164212900207730e+00 -6.5176478208945719e+02 1.0000000000000000e+00 9.8531086236856975e+00 6.1949829493257278e+00 3.4683626663720886e+00 
355 1 2 5.0879837234086622e+00 -1.5950116559587397e+02 1.0000000000000000e+00 1.0722589194263271e+01 6.9763003031457584e+00 2.3302440336190000e+00 
49 1 2 4.9404604072517895e+00 -5.8873504645638332e+02 1.0000000000000000e+00 1.0510260650597607e+01 7.4166275811593838e+00 2.2967642880302557e+00 
199 1 2 4.9485640187686242e+00 -3.5624057579489130e+02 1.0000000000000000e+00 1.0640900797440732e+01 7.6707174534196030e+00 2.2393336112888118e+00 
93 1 2 5.2838924767103954e+00 -3.9457900615061556e+02 1.0000000000000000e+00 1.0067982093403867e+01 6.7764502352394551e+00 3.9103948709308902e+00 
21 1 2 5.0074302852451122e+00 -4.5503832733651609e+02 1.0000000000000000e+00 9.2325591539195884e+00 7.0597182048023877e+00 3.7858100403507113e+00 
245 1 2 4.9310204513391573e+00 -4.5924112216057222e+02 1.0000000000000000e+00 9.6578837687946564e+00 6.8938221146994296e+00 3.1863133495649238e+00 
253 1 2 4.9315016949966806e+00 -4.9216413338830296e+02 1.0000000000000000e+00 9.1986275442608179e+00 7.6437884572380153e+00 3.4667250404435426e+00 
247 1 2 4.9222026154373983e+00 -3.9934511236257413e+02 1.0000000000000000e+00 9.4526533071292409e+00 6.3969646166488872e+00 3.6770505500925061e+00 
289 1 2 4.9059959935301398e+00 -2.8338240536266193e+02 1.0000000000000000e+00 9.4439410210424786e+00 7.9218991302807868e+00 3.1220772660512051e+00 
271 1 2 5.0868358492300816e+00 -5.2078004840475887e+02 1.0000000000000000e+00 1.1648134499296100e+01 6.1639924407324562e+00 3.8005207651672781e+00 
453 1 2 5.0852236414936955e+00 -3.0700066235934435e+02 1.0000000000000000e+00 1.1563384194343477e+01 6.1617047039151958e+00 3.4899394455540915e+00 
82 1 2 5.2418858764799658e+00 -5.6453596609342992e+02 1.0000000000000000e+00 1.1492396982979837e+01 6.5879581590569227e+00 2.3871357964833306e+00 
384 1 2 5.0315678096049758e+00 -3.6340380210947421e+02 1.0000000000000000e+00 1.1885626562980734e+01 6.4230535051677311e+00 2.6579053293413959e+00 
29 1 2 4.8348870790049014e+00 -5.2518480904909632e+02 1.0000000000000000e+00 1.2523477643760200e+01 7.1719541565314628e+00 2.3809917331803168e+00 
1 1 2 4.8696012895910359e+00 -5.0213019585094145e+02 1.0000000000000000e+00 1.2153076324117743e+01 6.7339534138983286e+00 2.2358440844743019e+00 
181 1 2 5.1071812142395085e+00 -4.4101117192727639e+02 1.0000000000000000e+00 1.2384417633272118e+01 7.0821373759035531e+00 2.3835482335574865e+00 
535 1 2 5.0301136697964939e+00 -4.7609941904775360e+02 1.0000000000000000e+00 1.1538669032873827e+01 6.0841904624102057e+00 3.5560945266593662e+00 
373 1 2 4.9794104642083790e+00 -3.4332509506394814e+02 1.0000000000000000e+00 1.2589604925527292e+01 7.2066501220520687e+00 2.5975876899376580e+00 
335 1 2 5.1770977684327697e+00 -5.7788476655413399e+02 1.0000000000000000e+00 1.1838856710539783e+01 6.5422610943911188e+00 2.4894762043546028e+00 
356 1 2 5.1647571747097301e+00 -1.6248373105908911e+02 1.0000000000000000e+00 1.2378097229438334e+01 7.3906896514861256e+00 2.3745830417264457e+00 
105 1 2 5.0534959834555027e+00 -2.9582388144887051e+02 1.0000000000000000e+00 1.2490811650999470e+01 7.6155015045517560e+00 2.5552409291449862e+00 
454 1 2 5.1933673528478375e+00 -3.7412571917197732e+02 1.0000000000000000e+00 1.2888185457452588e+01 7.3595963963947524e+00 3.6944499375212061e+00 
201 1 2 4.8419738120772342e+00 -3.5156820249791042e+02 1.0000000000000000e+00 1.3010682735051958e+01 7.0433307143199144e+00 3.8716941518616697e+00 
42 1 2 5.1991090637718633e+00 -3.1227330946819677e+02 1.0000000000000000e+00 1.0922246343050928e+01 8.1554875898824140e+00 2.5354982483671722e+00 
119 1 2 5.1134243836753352e+00 -3.3636330891091484e+02 1.0000000000000000e+00 9.9814878489296710e+00 8.5044127675330010e+00 2.9816206150858213e+00 
166 1 2 5.0146327169660641e+00 -3.9131642960695245e+02 1.0000000000000000e+00 9.5182098255412821e+00 8.5893704836949620e+00 3.2258201573942133e+00 
218 1 2 5.0712876146636852e+00 -1.9438769666535995e+02 1.0000000000000000e+00 9.7406090061909865e+00 8.2625668488087616e+00 3.0137658204592461e+00 
300 1 2 5.2483267304599925e+00 -4.5954435975638341e+02 1.0000000000000000e+00 1.0197326490972584e+01 9.4782003528670487e+00 3.5200192837884101e+00 
303 1 2 4.5833267586728592e+00 -4.1130341085573485e+02 1.0000000000000000e+00 9.1050122610728916e+00 8.9494684546317984e+00 3.5368766406087269e+00 
10 1 2 5.2315077629421971e+00 -3.9376789165960787e+02 1.0000000000000000e+00 9.9417935002105082e+00 9.6816648402779055e+00 3.8581831464101199e+00 
424 1 2 5.1564075909778317e+00 -4.3397837929969660e+02 1.0000000000000000e+00 9.7659680029760789e+00 8.8577401216386775e+00 3.2484618608249574e+00 
221 1 2 4.8932322763889804e+00 -4.9032299205201087e+02 1.0000000000000000e+00 1.0659352428867107e+01 9.4347303470511132e+00 3.3222448828182873e+00 
112 1 2 5.1206762851889716e+00 -3.8040189345499414e+02 1.0000000000000000e+00 1.0669231800227797e+01 9.3603189844790702e+00 3.3690802483400630e+00 
354 1 2 5.0229198529985961e+00 -3.4712787477869028e+02 1.0000000000000000e+00 1.1199472638958538e+01 8.9494680877504429e+00 3.2520059033601205e+00 
284 1 2 4.8101814110761136e+00 -3.3094113563230229e+02 1.0000000000000000e+00 1.1590245795087952e+01 8.6435967374102098e+00 2.9956234615271606e+00 
274 1 2 5.1917324437472141e+00 -3.6630721218536070e+02 1.0000000000000000e+00 1.2449430717311181e+01 8.1724351264843218e+00 3.3672107525402262e+00 
498 1 2 4.8055223795807542e+00 -4.5361490717000811e+02 1.0000000000000000e+00 1.2735932707786494e+01 8.2551518873976129e+00 3.6645876671636497e+00 
185 1 2 5.3963909974385098e+00 -2.9417495564276703e+02 1.0000000000000000e+00 1.1525173667238198e+01 8.7561662787732981e+00 3.9345320409624658e+00 
533 1 2 4.8951100140867609e+00 -5.5559632283155054e+02 1.0000000000000000e+00 1.2843637840207963e+01 8.1646604621373804e+00 3.9437821139768454e+00 
83 1 2 5.0131923474196460e+00 -3.7623255528180101e+02 1.0000000000000000e+00 8.4338548699539988e+00 5.6360710458484684e+00 5.7338082969616604e+00 
210 1 2 4.7835412682672809e+00 -5.1591152719734612e+02 1.0000000000000000e+00 8.2941922620191093e+00 5.5779373148065767e+00 5.8873358081554166e+00 
433 1 2 4.4245609340012368e+00 -4.5904654243360841e+02 1.0000000000000000e+00 8.3421529699051646e+00 4.9767038014657903e+00 5.9030529401968295e+00 
104 1 2 5.0396451252101020e+00 -3.4119761562074405e+02 1.0000000000000000e+00 8.6105877191306899e+00 5.7238430211149334e+00 5.4071901615115081e+00 
192 1 2 4.9355913687885495e+00 -4.6242686460857607e+02 1.0000000000000000e+00 8.3646325242233068e+00 5.9375963194335304e+00 5.5978550816009971e+00 
379 1 2 4.8947400896452864e+00 -4.3394369873289372e+02 1.0000000000000000e+00 1.0190723180101427e+01 5.2949449393676051e+00 4.5315448832262968e+00 
12 1 2 5.0046421699851420e+00 -4.6868508229881883e+02 1.0000000000000000e+00 9.8010087160600055e+00 5.8309171313718684e+00 4.8039974958545217e+00 
382 1 2 4.9132246025656228e+00 -3.2228346768141023e+02 1.0000000000000000e+00 1.0197572568396451e+01 5.2985271952576216e+00 4.7600397138504320e+00 
256 1 2 4.9768278452672678e+00 -4.8673939181241593e+02 1.0000000000000000e+00 1.0824634702051128e+01 5.1962862627793536e+00 4.4350238413241732e+00 
438 1 2 4.9399438291431768e+00 -4.9162895377784957e+02 1.0000000000000000e+00 1.0195498900810080e+01 4.1885937328503280e+00 5.5550365602582241e+00 
434 1 2 4.8019264228288128e+00 -3.2658949235023073e+02 1.0000000000000000e+00 9.4834993760170185e+00 4.3711370276737807e+00 5.5292410717597260e+00 
23 1 2 5.2142057819186531e+00 -3.4454084173709532e+02 1.0000000000000000e+00 9.7167570834090462e+00 5.2796406308790251e+00 5.7772095308613158e+00 
290 1 2 4.7354374810200417e+00 -3.1711118037888110e+02 1.0000000000000000e+00 1.0609901130998990e+01 5.1353722663282788e+00 4.2849450203651349e+00 
190 1 2 4.9169365824567182e+00 -4.8626725118211527e+02 1.0000000000000000e+00 1.1157460733930041e+01 4.5612147641585965e+00 5.2565267548231276e+00 
347 1 2 5.0075050030730299e+00 -4.4619143964744023e+02 1.0000000000000000e+00 1.1131673170897958e+01 5.3562949912976192e+00 4.2592346890622137e+00 
499 1 2 5.1229419670315783e+00 -3.3943254741216839e+02 1.0000000000000000e+00 1.1284464128227130e+01 4.8424323052567351e+00 5.1719872743465842e+00 
129 1 2 4.9807759319804550e+00 -4.4711651543870892e+02 1.0000000000000000e+00 1.1224929847348008e+01 4.2691001651086609e+00 5.8229803531896716e+00 
272 1 2 4.9657783123815005e+00 -5.4191525392477365e+02 1.0000000000000000e+00 1.2094861541204999e+01 5.1238942159750902e+00 5.7404046142213634e+00 
361 1 2 4.7674230234176180e+00 -4.3837628362015676e+02 1.0000000000000000e+00 1.2171765678817966e+01 5.7708862153796820e+00 4.5511415922695928e+00 
209 1 2 4.9944038231930783e+00 -2.8092367736549801e+02 1.0000000000000000e+00 1.2439966023473120e+01 5.9378881406670150e+00 5.0520051604900349e+00 
22 1 2 4.9627236413042581e+00 -4.5549218338435935e+02 1.0000000000000000e+00 1.1827962966096839e+01 5.8497640300219356e+00 4.2908838547036012e+00 
388 1 2 4.6852397038483335e+00 -4.9701768230404309e+02 1.0000000000000000e+00 1.2722526430439343e+01 5.9922266541424296e+00 5.2357857221510917e+00 
526 1 2 5.0858718938915528e+00 -5.9156511449890968e+02 1.0000000000000000e+00 1.2032062110892628e+01 5.0767048050903165e+00 5.8926443624131446e+00 
293 1 2 5.0730433603990228e+00 -3.6332497150474427e+02 1.0000000000000000e+00 8.4332323869213450e+00 6.2344485385486710e+00 5.6572412629696691e+00 
113 1 2 5.2248328854231847e+00 -3.6682950964518312e+02 1.0000000000000000e+00 8.6171739620596934e+00 6.0389942175364961e+00 5.6383297675508501e+00 
40 1 2 5.0680451582533870e+00 -4.1898721794543223e+02 1.0000000000000000e+00 8.8635812751529350e+00 7.5485338676017983e+00 4.6239296164313410e+00 
461 1 2 5.0263274902916413e+00 -3.0826826219439721e+02 1.0000000000000000e+00 7.9108408627656983e+00 7.7631408052817523e+00 5.8969574274198875e+00 
327 1 2 4.8536040224876160e+00 -5.4336310640926183e+02 1.0000000000000000e+00 8.0463650154256179e+00 7.6460780582296461e+00 5.4226740165283021e+00 
444 1 2 4.7020353705352473e+00 -4.2785977011087505e+02 1.0000000000000000e+00 8.3068936161973355e+00 6.4446524956836608e+00 5.2585952462599872e+00 
193 1 2 4.6721692044073952e+00 -3.8924928594049948e+02 1.0000000000000000e+00 8.7652385275182141e+00 6.2727402351939743e+00 4.5858142791163532e+00 
182 1 2 5.0071959455056225e+00 -3.4366153271331916e+02 1.0000000000000000e+00 8.8008358390416053e+00 6.1036395301972428e+00 4.9882736210308609e+00 
292 1 2 4.8668849483036603e+00 -4.3511231760159029e+02 1.0000000000000000e+00 9.8456807663386439e+00 7.3794452836577342e+00 4.1581706907098512e+00 
2 1 2 5.0654125152884131e+00 -5.5287340273684958e+02 1.0000000000000000e+00 9.2127665644602654e+00 7.9363566287634786e+00 4.8255659805385802e+00 
51 1 2 4.9825096876811479e+00 -5.0307738809858483e+02 1.0000000000000000e+00 1.2585634848749983e+01 6.2151401458014037e+00 4.6500718827089367e+00 
436 1 2 4.8523983904403964e+00 -1.9922009791963680e+02 1.0000000000000000e+00 1.3110026166370034e+01 7.7889569482170486e+00 4.1547190381943695e+00 
244 1 2 5.2837972694694360e+00 -4.5601239015599742e+02 1.0000000000000000e+00 1.2108318057917367e+01 6.8586283679711268e+00 5.5905695104042730e+00 
262 1 2 5.1613678231588302e+00 -4.9556837542410591e+02 1.0000000000000000e+00 1.3097412098150267e+01 7.3386498527560589e+00 5.0641274137685555e+00 
173 1 2 5.0762300022170121e+00 -4.4892874270605915e+02 1.0000000000000000e+00 1.3148860353164650e+01 7.1098208919220243e+00 4.8760270381282398e+00 
338 1 2 5.3275717300838785e+00 -3.9185788895076138e+02 1.0000000000000000e+00 1.2762403686650632e+01 6.5295648446521053e+00 5.1925021145888417e+00 
343 1 2 5.2136495174168855e+00 -6.6695271064878818e+02 1.0000000000000000e+00 1.2035580453775324e+01 6.5848732419276468e+00 5.7608657258240950e+00 
174 1 2 5.3148787404747075e+00 -4.2812356303335463e+02 1.0000000000000000e+00 1.2761253933427831e+01 6.9980996321031377e+00 5.7500693411086008e+00 
248 1 2 4.9342087141181663e+00 -4.2872622291012766e+02 1.0000000000000000e+00 1.2826523058032988e+01 7.5774876877234290e+00 5.8615676873738209e+00 
510 1 2 5.0308295208345282e+00 -3.2435513200131248e+02 1.0000000000000000e+00 1.3056379725991166e+01 6.8884318435581742e+00 5.3409666402664113e+00 
371 1 2 5.1715245077687060e+00 -3.1931357285296258e+02 1.0000000000000000e+00 1.3122323770035569e+01 7.3688105452993309e+00 4.8025702378661972e+00 
437 1 2 4.9916007289002451e+00 -2.1286165138566474e+02 1.0000000000000000e+00 1.2357801681801492e+01 7.9597656424316883e+00 5.8450653888560415e+00 
328 1 2 4.9594969056825819e+00 -5.1207404450014337e+02 1.0000000000000000e+00 8.3753376730236564e+00 8.7404855673133337e+00 4.9868739907711790e+00 
128 1 2 5.3399166610303785e+00 -4.6873087336404529e+02 1.0000000000000000e+00 8.4621584850298106e+00 8.5641034150999111e+00 5.1067636128370912e+00 
194 1 2 5.1882633534839231e+00 -3.3112585762153583e+02 1.0000000000000000e+00 8.4338084495174943e+00 8.5233857280140128e+00 4.9647772879816463e+00 
291 1 2 5.0280566201370709e+00 -5.2511197850649955e+02 1.0000000000000000e+00 7.7958108823663927e+00 8.2903749869133581e+00 5.9939089086792139e+00 
122 1 2 5.0287443343218268e+00 -4.5725876439702051e+02 1.0000000000000000e+00 8.6925026898420228e+00 8.6135799047861035e+00 4.3261908139272780e+00 
202 1 2 5.1648774835296960e+00 -3.0192704933240623e+02 1.0000000000000000e+00 8.2098479166967291e+00 8.4364177114998675e+00 5.2465761848226302e+00 
524 1 2 5.1309456928330350e+00 -4.3173745074755072e+02 1.0000000000000000e+00 8.8848597503403255e+00 8.4991369578720093e+00 4.0028022642527121e+00 
273 1 2 5.2661880328947435e+00 -3.6830296697280193e+02 1.0000000000000000e+00 8.9485901282587630e+00 8.8703713379814850e+00 4.2472816771001005e+00 
445 1 2 4.8668445607910860e+00 -3.7901179560763296e+02 1.0000000000000000e+00 9.1642039150255759e+00 9.4724721811796844e+00 4.8801518447557299e+00 
38 1 2 4.9423688951518194e+00 -3.8762256653764842e+02 1.0000000000000000e+00 9.6449747717633194e+00 9.4729665153364859e+00 5.3315410847390154e+00 
455 1 2 4.7330211486372118e+00 -3.3897596156040061e+02 1.0000000000000000e+00 9.9330654655600625e+00 9.9477454217745418e+00 4.8916579153788753e+00 
130 1 2 4.8878543053863179e+00 -6.8077586990856605e+02 1.0000000000000000e+00 1.0007802115910371e+01 8.6905243918415067e+00 5.0114198981206517e+00 
191 1 2 4.8920512060106116e+00 -3.8848291803710799e+02 1.0000000000000000e+00 9.8373672352057717e+00 9.8330778683514506e+00 4.9033057964546796e+00 
442 1 2 4.9120362395396633e+00 -4.7452291093703116e+02 1.0000000000000000e+00 1.0739763113367150e+01 9.9598651652526460e+00 4.8558262568516346e+00 
55 1 2 5.0852050637852022e+00 -5.2683885284768382e+02 1.0000000000000000e+00 1.0853462337847612e+01 9.8477341042452178e+00 4.8143411527053619e+00 
425 1 2 5.1504517839001887e+00 -4.1518260299479567e+02 1.0000000000000000e+00 1.0197867501549936e+01 9.9679356606062246e+00 4.2656012661489928e+00 
435 1 2 4.9050173365072203e+00 -3.2902767967052864e+02 1.0000000000000000e+00 1.0980150665942556e+01 9.6765780099189804e+00 5.0387692360782008e+00 
275 1 2 5.0564839755225046e+00 -3.6451173206876393e+02 1.0000000000000000e+00 1.1084980059525055e+01 9.8835646380816975e+00 4.3396615193337782e+00 
452 1 2 5.1632705182231478e+00 -2.8070084771106701e+02 1.0000000000000000e+00 1.1750489136508218e+01 8.2041974503311774e+00 4.1243362156292500e+00 
13 1 2 5.0267868295165314e+00 -4.2147213258039272e+02 1.0000000000000000e+00 1.2470241652044960e+01 8.4396425959272072e+00 4.1000582443357789e+00 
519 1 2 4.9103054926020722e+00 -4.4046902072479998e+02 1.0000000000000000e+00 1.2351257108633716e+01 8.4230973163119547e+00 4.7572550956195911e+00 
362 1 2 4.8962254046292539e+00 -4.2604817953634875e+02 1.0000000000000000e+00 1.1413392369651733e+01 9.4959636863006214e+00 4.7370294439382690e+00 
276 1 2 4.9606645422123918e+00 -3.1918302423149896e+02 1.0000000000000000e+00 1.1478397012085372e+01 8.5457251565903842e+00 4.4420533133070421e+00 
294 1 2 5.0500209951230453e+00 -4.4067266073929699e+02 1.0000000000000000e+00 1.1719130394177370e+01 9.1459878650085464e+00 4.1834598400901397e+00 
301 1 2 4.8488731140326093e+00 -3.3907746605676641e+02 1.0000000000000000e+00 1.1204023914508312e+01 9.8830763467820795e+00 4.4853575133088217e+00 
280 1 2 5.2327591488953127e+00 -2.5036133663144247e+02 1.0000000000000000e+00 1.2748905034882002e+01 8.0887087264314470e+00 4.3513270003810094e+00 
208 1 2 5.2060656917249153e+00 -2.4102356011387081e+02 1.0000000000000000e+00 9.7065908625653705e+00 3.9164579820555954e+00 6.1077032888923464e+00 
344 1 2 4.9852869174783043e+00 -3.6899557614650223e+02 1.0000000000000000e+00 9.5378115997387720e+00 3.7759815504094885e+00 6.5937218854776143e+00 
164 1 2 4.9278133904005266e+00 -3.9401931923371950e+02 1.0000000000000000e+00 1.0183989872570516e+01 3.7907116689290139e+00 6.1634221556690889e+00 
115 1 2 5.1557333555671372e+00 -3.5754757205253600e+02 1.0000000000000000e+00 9.5047505364038951e+00 3.9634890543255050e+00 6.8589540199174595e+00 
111 1 2 4.8667805587000581e+00 -2.5451269766997535e+02 1.0000000000000000e+00 9.3129138717723894e+00 3.8374129976419113e+00 6.2226649472125874e+00 
489 1 2 4.5511557934401274e+00 -4.1689480077047153e+02 1.0000000000000000e+00 9.9551155079212741e+00 3.6648259373874761e+00 6.0549635668576824e+00 
509 1 2 5.0697807589302961e+00 -3.8820540532938412e+02 1.0000000000000000e+00 8.6283757759295217e+00 4.7802406964035482e+00 6.1133121636173406e+00 
541 1 2 5.1065699290834008e+00 -4.7402254739961495e+02 1.0000000000000000e+00 8.8543855067926938e+00 5.6229625633466975e+00 6.8988070103582046e+00 
43 1 2 4.9336003575468501e+00 -3.3292892092446687e+02 1.0000000000000000e+00 9.1332141368690181e+00 4.1106452781522362e+00 6.9792964052597322e+00 