LAMMPS data file via write_data, version 30 Jul 2016, timestep = 50000000

567 atoms
2 atom types

0.0000000000000000e+00 2.0000000000000000e+01 xlo xhi
0.0000000000000000e+00 2.0000000000000000e+01 ylo yhi
0.0000000000000000e+00 2.0000000000000000e+01 zlo zhi

Masses

1 3.896
2 5

Atoms # meso-molecular

4 1 2 4.9973113419206712e+00 -5.2583971056251892e+02 1.0000000000000000e+00 5.1423076291610403e+00 2.1022610290210313e+00 1.1358881490896426e+01 
96 1 2 4.9933075199757484e+00 -3.0670457431512926e+02 1.0000000000000000e+00 5.1379043471815837e+00 2.1085667998947906e+00 1.1358026725655247e+01 
87 1 2 4.9972565021210000e+00 -4.8841142556882130e+02 1.0000000000000000e+00 5.1419036875317783e+00 2.1033204472127784e+00 1.1358745661400341e+01 
97 1 2 4.9973537630708726e+00 -3.8706698793158989e+02 1.0000000000000000e+00 5.1421601651556923e+00 2.1028675678322601e+00 1.1358873329256706e+01 
16 1 2 5.0192921392700525e+00 -3.4065549665053049e+02 1.0000000000000000e+00 5.1456359013574611e+00 2.1161524234564215e+00 1.1350336265175965e+01 
7 1 2 4.9980394051968622e+00 -3.6626853577092646e+02 1.0000000000000000e+00 5.1419440841151198e+00 2.1038476843835641e+00 1.1358344434152730e+01 
14 1 2 4.9968141997036035e+00 -3.5674737349635819e+02 1.0000000000000000e+00 5.1420649679591435e+00 2.1024704749274270e+00 1.1359026324381446e+01 
88 1 2 5.0003515866013446e+00 -4.9518539682596327e+02 1.0000000000000000e+00 6.1970039913747073e+00 2.2976225177768526e+00 1.0747898111902222e+01 
95 1 2 4.9977217393515003e+00 -3.7988384475436112e+02 1.0000000000000000e+00 5.1421237917964939e+00 2.1032163473484733e+00 1.1358640802810543e+01 
15 1 2 4.9998068970185789e+00 -3.6805997923033414e+02 1.0000000000000000e+00 6.1972712725946870e+00 2.2974952185236432e+00 1.0747841660843809e+01 
6 1 2 5.0004997138606759e+00 -4.5135000395547740e+02 1.0000000000000000e+00 5.4820721916727804e+00 2.7158758017014710e+00 1.0889892231251089e+01 
86 1 2 4.9997490313082924e+00 -4.7014624499632140e+02 1.0000000000000000e+00 6.1973048401165078e+00 2.2975645949761128e+00 1.0747861058989525e+01 
85 1 2 4.9992263867949891e+00 -5.3612592205626402e+02 1.0000000000000000e+00 6.1974326181719492e+00 2.2980238447552495e+00 1.0747679361817463e+01 
26 1 2 4.9998029832596744e+00 -2.9552070255573847e+02 1.0000000000000000e+00 6.1972925079864600e+00 2.2974460532115928e+00 1.0747867949857159e+01 
24 1 2 4.9998870626364367e+00 -4.9992244108734650e+02 1.0000000000000000e+00 6.1971834234105359e+00 2.2976970745210981e+00 1.0747794828017538e+01 
25 1 2 4.9998011017828707e+00 -3.5306466311407110e+02 1.0000000000000000e+00 6.1972858165445457e+00 2.2974507868598049e+00 1.0747854598240581e+01 
5 1 2 4.9998033385764584e+00 -5.5180706528155872e+02 1.0000000000000000e+00 6.1973399595887555e+00 2.2975560634352123e+00 1.0747977385670783e+01 
18 1 2 1.9946176136191309e+00 -4.8894463598964933e+02 1.0000000000000000e+00 5.2770847782730463e+00 1.9547016607947121e+00 1.5757772112070977e+01 
9 1 2 1.9946176136191309e+00 -5.0995861292112755e+02 1.0000000000000000e+00 5.2770847782731121e+00 1.9547016607946763e+00 1.5757772112071978e+01 
8 1 2 1.9946176136191309e+00 -4.0192605657921939e+02 1.0000000000000000e+00 5.2770847782729930e+00 1.9547016607947101e+00 1.5757772112071674e+01 
90 1 2 1.9946176136191309e+00 -4.0923081011315969e+02 1.0000000000000000e+00 5.2770847782731956e+00 1.9547016607947156e+00 1.5757772112071674e+01 
17 1 2 1.9946176136191309e+00 -2.7216043611321311e+02 1.0000000000000000e+00 5.2770847782732702e+00 1.9547016607946690e+00 1.5757772112071786e+01 
35 1 2 1.5956940908953048e+00 -1.9895367442469001e+02 1.0000000000000000e+00 5.2620687158323163e+00 8.6808478623521754e+00 1.5353669798449005e+01 
45 1 2 1.5956940908953048e+00 -1.8612944040594957e+02 1.0000000000000000e+00 5.2620687158320525e+00 8.6808478623528327e+00 1.5353669798448644e+01 
44 1 2 1.5956940908953048e+00 -2.6665754788150900e+02 1.0000000000000000e+00 5.2620687158323287e+00 8.6808478623524898e+00 1.5353669798449443e+01 
116 1 2 1.5956940908953048e+00 -3.3187736897094300e+02 1.0000000000000000e+00 5.2620687158324122e+00 8.6808478623528984e+00 1.5353669798449276e+01 
117 1 2 1.5956940908953048e+00 -3.9080863487113834e+02 1.0000000000000000e+00 5.8872747151233904e+00 6.0811596839615634e+00 1.7165898964688854e+01 
27 1 2 1.5956940908953048e+00 -4.0865181777204953e+02 1.0000000000000000e+00 5.8872747151235183e+00 6.0811596839618316e+00 1.7165898964687482e+01 
108 1 2 1.5956940908953048e+00 -4.4805617528863559e+02 1.0000000000000000e+00 5.8872747151234419e+00 6.0811596839617668e+00 1.7165898964688136e+01 
36 1 2 1.5956940908953048e+00 -4.3839405109672651e+02 1.0000000000000000e+00 5.8872747151235210e+00 6.0811596839612827e+00 1.7165898964687571e+01 
64 1 2 1.1967705681714786e+00 -3.9440582926869314e+02 1.0000000000000000e+00 5.5256039458297721e+00 1.6340980344644802e+01 8.8483802805168532e-01 
73 1 2 1.1967705681714786e+00 -3.7853262673766363e+02 1.0000000000000000e+00 5.5256039458295376e+00 1.6340980344644553e+01 8.8483802805168532e-01 
154 1 2 1.1967705681714786e+00 -3.3303985133438402e+02 1.0000000000000000e+00 5.5256039458294648e+00 1.6340980344644983e+01 8.8483802805167322e-01 
56 1 2 2.3935411363429573e+00 -3.1961919189302199e+02 1.0000000000000000e+00 4.7619881351657281e+00 1.5556391300080310e+01 4.2283592028419807e+00 
57 1 2 2.3935411363429573e+00 -3.1077958477237985e+02 1.0000000000000000e+00 4.7619881351666242e+00 1.5556391300079520e+01 4.2283592028417560e+00 
65 1 2 2.3935411363429573e+00 -3.5460043419816486e+02 1.0000000000000000e+00 4.7619881351660016e+00 1.5556391300079977e+01 4.2283592028418040e+00 
66 1 2 2.3935411363429573e+00 -3.2040771482130299e+02 1.0000000000000000e+00 4.7619881351659616e+00 1.5556391300079584e+01 4.2283592028415038e+00 
74 1 2 2.3935411363429573e+00 -3.2958703152542677e+02 1.0000000000000000e+00 4.7619881351664288e+00 1.5556391300079916e+01 4.2283592028417658e+00 
75 1 2 2.3935411363429573e+00 -3.3774451813405665e+02 1.0000000000000000e+00 4.7619881351662556e+00 1.5556391300080294e+01 4.2283592028414674e+00 
58 1 2 1.1967705681714786e+00 -2.4740231896948308e+02 1.0000000000000000e+00 4.1636164442793362e+00 1.3944479269293147e+01 7.0419828076533113e+00 
59 1 2 1.1967705681714786e+00 -3.3722848237696786e+02 1.0000000000000000e+00 4.1636164442792047e+00 1.3944479269293147e+01 7.0419828076536355e+00 
67 1 2 1.1967705681714786e+00 -1.9801450423169223e+02 1.0000000000000000e+00 4.1636164442792163e+00 1.3944479269293147e+01 7.0419828076533664e+00 
148 1 2 4.7870822726855575e+00 -4.9158538410502592e+02 1.0000000000000000e+00 6.0076560694882151e+00 1.5979168139282562e+01 9.1227470254840526e+00 
149 1 2 4.7870822726856002e+00 -4.2256006730257837e+02 1.0000000000000000e+00 6.0076560206007850e+00 1.5979168152559845e+01 9.1227470382866542e+00 
159 1 2 4.7870822726856890e+00 -3.7959576685324475e+02 1.0000000000000000e+00 6.0076559237497582e+00 1.5979168396446500e+01 9.1227470190952999e+00 
150 1 2 4.7870822726856996e+00 -3.7882515393211781e+02 1.0000000000000000e+00 6.0076558527007107e+00 1.5979168371434893e+01 9.1227470270129043e+00 
140 1 2 4.7870822726856463e+00 -3.9596813787924157e+02 1.0000000000000000e+00 6.0076559689211519e+00 1.5979168174734307e+01 9.1227470128570758e+00 
76 1 2 4.7870822726849465e+00 -3.6101869492712535e+02 1.0000000000000000e+00 6.0076556149802931e+00 1.5979168679438112e+01 9.1227465865750403e+00 
157 1 2 4.7870822726850459e+00 -3.7254031293697301e+02 1.0000000000000000e+00 6.0076556602455344e+00 1.5979168669534857e+01 9.1227466099428938e+00 
77 1 2 4.7870822726856250e+00 -3.4375947378075472e+02 1.0000000000000000e+00 6.0076559851918283e+00 1.5979168178754762e+01 9.1227470807897522e+00 
69 1 2 4.7870822726855309e+00 -3.7838189870824664e+02 1.0000000000000000e+00 6.0076556865204376e+00 1.5979168227719246e+01 9.1227471942467862e+00 
158 1 2 4.7870822726856677e+00 -4.3744778758637347e+02 1.0000000000000000e+00 6.0076558718577484e+00 1.5979168422593625e+01 9.1227468950425035e+00 
68 1 2 4.7870822726856135e+00 -3.8785705259846645e+02 1.0000000000000000e+00 6.0076560017409122e+00 1.5979168162158111e+01 9.1227470593175717e+00 
78 1 2 4.7870822726854616e+00 -3.6826268648656730e+02 1.0000000000000000e+00 6.0076557926039778e+00 1.5979168209928320e+01 9.1227473031684401e+00 
53 1 2 4.3881587499620309e+00 -4.2122226608488319e+02 1.0000000000000000e+00 5.8394291995819190e+00 1.1969897721753894e+01 1.5484478348454241e+01 
125 1 2 4.3881587499620061e+00 -2.5152127073934548e+02 1.0000000000000000e+00 5.8394292205283715e+00 1.1969897565330553e+01 1.5484478453110190e+01 
62 1 2 4.3881587499620309e+00 -3.7713689089099648e+02 1.0000000000000000e+00 5.8394292012367641e+00 1.1969897721182393e+01 1.5484478351557856e+01 
54 1 2 4.3881587499620061e+00 -2.2685066069186379e+02 1.0000000000000000e+00 5.8394292201236064e+00 1.1969897565539721e+01 1.5484478452925202e+01 
135 1 2 4.3881587499620451e+00 -2.9538262835229409e+02 1.0000000000000000e+00 5.8394292636672285e+00 1.1969897697823436e+01 1.5484478496061087e+01 
143 1 2 4.3881587499620434e+00 -3.2931474897137616e+02 1.0000000000000000e+00 5.8394292812313662e+00 1.1969897710300675e+01 1.5484478498453527e+01 
52 1 2 4.3881587499620061e+00 -3.5529501273863559e+02 1.0000000000000000e+00 5.8394291991503335e+00 1.1969897759154950e+01 1.5484478304214926e+01 
144 1 2 4.3881587499620203e+00 -3.3175268522351666e+02 1.0000000000000000e+00 5.8394292819682638e+00 1.1969897763677112e+01 1.5484478558417363e+01 
63 1 2 4.3881587499620034e+00 -3.7409057177855601e+02 1.0000000000000000e+00 5.8394292831622376e+00 1.1969897790740609e+01 1.5484478578500344e+01 
61 1 2 4.3881587499619874e+00 -2.9539346514641375e+02 1.0000000000000000e+00 5.8394292140409574e+00 1.1969897793082566e+01 1.5484478281886553e+01 
153 1 2 4.3881587499620007e+00 -3.0538172250739501e+02 1.0000000000000000e+00 5.8394292826836063e+00 1.1969897797989834e+01 1.5484478580818106e+01 
80 1 2 2.3935411363429573e+00 -4.9906685034645591e+02 1.0000000000000000e+00 6.4705704689325652e+00 1.6129214257361475e+01 1.7202830648252533e+01 
72 1 2 2.3935411363429573e+00 -3.2193857401412345e+02 1.0000000000000000e+00 6.4705704689316930e+00 1.6129214257362371e+01 1.7202830648253499e+01 
81 1 2 2.3935411363429573e+00 -4.7649908831211087e+02 1.0000000000000000e+00 6.4705704689314354e+00 1.6129214257359724e+01 1.7202830648253435e+01 
162 1 2 2.3935411363429573e+00 -4.1534934494734944e+02 1.0000000000000000e+00 6.4705704689321974e+00 1.6129214257361472e+01 1.7202830648252267e+01 
234 1 2 2.3935411363429573e+00 -4.8186786007248651e+02 1.0000000000000000e+00 6.4705704689314132e+00 1.6129214257360204e+01 1.7202830648252593e+01 
243 1 2 2.3935411363429573e+00 -4.9864830125400897e+02 1.0000000000000000e+00 6.4705704689314336e+00 1.6129214257359347e+01 1.7202830648253830e+01 
176 1 2 5.1766469644183521e+00 -3.4285445218955982e+02 1.0000000000000000e+00 9.2916032519213054e+00 5.5330742783923093e+00 3.3548446388453987e+00 
290 1 2 5.1736023528041253e+00 -3.1623165269133000e+02 1.0000000000000000e+00 9.3166408770989957e+00 5.4292360822600036e+00 3.7456520904264408e+00 
111 1 2 4.7963575406152881e+00 -2.5439159189612741e+02 1.0000000000000000e+00 1.0436227470904454e+01 4.7264757813674194e+00 3.6614478448121512e+00 
174 1 2 5.0693836421734471e+00 -4.2925948876572301e+02 1.0000000000000000e+00 1.0116159609314661e+01 5.7528798195528523e+00 2.6930365075794787e+00 
247 1 2 5.0155027483486263e+00 -3.9772347721228476e+02 1.0000000000000000e+00 1.0257627611187599e+01 5.1421750022010873e+00 3.2303209388902818e+00 
172 1 2 4.9341511275305132e+00 -3.9587190034382417e+02 1.0000000000000000e+00 1.0789936988236008e+01 4.9396975971970454e+00 3.3104294038576287e+00 
275 1 2 5.0945475915309899e+00 -3.6302358299737369e+02 1.0000000000000000e+00 1.0968804414417706e+01 5.7836689113684372e+00 2.9187277492196553e+00 
344 1 2 4.8666061233121489e+00 -3.6844161293883803e+02 1.0000000000000000e+00 9.6885446818250180e+00 5.7371341917764465e+00 2.6559232753353093e+00 
541 1 2 4.8607730346861757e+00 -4.7301380519213376e+02 1.0000000000000000e+00 9.7470126772266887e+00 5.7854055510630449e+00 2.6146395079145939e+00 
194 1 2 5.2069646972778125e+00 -3.3046055024450783e+02 1.0000000000000000e+00 1.2277226900623331e+01 5.5308739323960561e+00 3.8303674096022644e+00 
262 1 2 4.8105417404252320e+00 -4.9480167814434691e+02 1.0000000000000000e+00 1.1842132310206766e+01 5.3513342226234570e+00 3.2347965323286134e+00 
442 1 2 5.1664911556881101e+00 -4.7348680315683367e+02 1.0000000000000000e+00 1.1449966781842019e+01 4.9410828754867682e+00 3.5348459342094709e+00 
37 1 2 4.8424479105086107e+00 -3.8815885031703436e+02 1.0000000000000000e+00 1.1591031467687753e+01 4.9531003324180665e+00 3.3749914878047371e+00 
533 1 2 4.7985719338758530e+00 -5.5573472845671654e+02 1.0000000000000000e+00 1.2111041924193586e+01 5.8338330599424841e+00 3.2398091849834958e+00 
43 1 2 4.9491849723310120e+00 -3.3196594872257873e+02 1.0000000000000000e+00 1.1399783679766006e+01 5.8033320614385095e+00 2.9961886969866129e+00 
294 1 2 5.0416151530008770e+00 -4.4120415596709341e+02 1.0000000000000000e+00 8.2511140919255599e+00 6.3883839815205787e+00 3.8429212498322589e+00 
246 1 2 5.1556408576699493e+00 -6.1852051335072451e+02 1.0000000000000000e+00 8.2490395251966593e+00 6.5717689635164867e+00 3.8476723668550190e+00 
204 1 2 4.9559977879940638e+00 -3.5348034573453452e+02 1.0000000000000000e+00 8.8066889086550884e+00 7.1609472801472487e+00 3.3554194116287093e+00 
115 1 2 4.8933908586326833e+00 -3.5785178223938232e+02 1.0000000000000000e+00 8.8375726408557682e+00 6.1534441911527775e+00 3.0590699621939219e+00 
106 1 2 5.1584800191231643e+00 -3.2454858828479752e+02 1.0000000000000000e+00 8.9229166212036493e+00 6.4256108585283664e+00 3.1098145173743093e+00 
455 1 2 5.1490671020455983e+00 -3.4033906680723362e+02 1.0000000000000000e+00 9.0917199437999603e+00 6.9115646290701047e+00 3.1446102839429524e+00 
365 1 2 4.9371874613554843e+00 -3.8191930558007272e+02 1.0000000000000000e+00 1.0006340652974576e+01 6.1906299778044724e+00 2.5426430324823643e+00 
433 1 2 5.0806414627495400e+00 -4.5978024203325805e+02 1.0000000000000000e+00 9.5606153044196240e+00 6.8277857898509193e+00 2.8302653204232988e+00 
3 1 2 4.9381090002053734e+00 -4.8354980561042760e+02 1.0000000000000000e+00 1.0002728769607815e+01 7.1213529776764117e+00 2.8758341133995229e+00 
55 1 2 4.9742889577854230e+00 -5.2957167166978320e+02 1.0000000000000000e+00 1.0288792963317396e+01 7.7651737091596553e+00 3.1434081692486902e+00 
274 1 2 4.7874451447810022e+00 -3.6626569572756637e+02 1.0000000000000000e+00 9.6836540199196595e+00 6.2451626463822647e+00 2.5052686253378127e+00 
436 1 2 4.5172294522744076e+00 -1.9834459393884418e+02 1.0000000000000000e+00 1.0757028363111388e+01 6.3934840042776635e+00 2.5636326610465821e+00 
343 1 2 4.9328702319708500e+00 -6.7013632626832486e+02 1.0000000000000000e+00 1.0462039321526589e+01 7.0696840604259856e+00 2.9352454067532783e+00 
298 1 2 5.0698726258410369e+00 -5.2694414699352581e+02 1.0000000000000000e+00 1.0793224678307542e+01 7.9483977101594006e+00 3.2631164548433520e+00 
30 1 2 4.9390416202948044e+00 -3.8939725295391742e+02 1.0000000000000000e+00 1.1910001031441373e+01 6.9330250700612339e+00 3.0725119615836278e+00 
276 1 2 4.8644815628031361e+00 -3.2250303432283397e+02 1.0000000000000000e+00 1.3056945973188160e+01 7.5802271613561478e+00 3.9708238102486977e+00 
462 1 2 4.9074103405398013e+00 -4.0600678254582112e+02 1.0000000000000000e+00 1.2614683808217110e+01 7.3434044805670879e+00 3.3086298498570996e+00 
382 1 2 5.1784158048304585e+00 -3.2175073626937143e+02 1.0000000000000000e+00 1.2491132289629178e+01 6.6856528267891129e+00 3.4014070817423683e+00 
510 1 2 4.9142387036944015e+00 -3.2315903036965472e+02 1.0000000000000000e+00 1.2730116741048286e+01 7.5716449853922825e+00 3.4701673732005873e+00 
112 1 2 5.0916641472233826e+00 -3.7782148784945309e+02 1.0000000000000000e+00 1.1743153057226344e+01 6.9712125906213718e+00 3.1354324256129971e+00 
118 1 2 4.7374447794608905e+00 -5.7320742944438928e+02 1.0000000000000000e+00 1.2080200514759692e+01 7.7797824457205538e+00 3.1641222731692427e+00 
94 1 2 5.1912706517538147e+00 -4.4646002623308789e+02 1.0000000000000000e+00 1.1907551380145097e+01 7.9574016805181049e+00 3.4599584862430315e+00 
509 1 2 4.9775003775706690e+00 -3.8895997203327170e+02 1.0000000000000000e+00 9.9165087903963354e+00 8.1027463401422164e+00 3.2878880976221270e+00 
20 1 2 4.8653066889963634e+00 -3.4782264263296719e+02 1.0000000000000000e+00 1.0745786639378938e+01 9.0360353475676689e+00 3.9599490920450684e+00 
164 1 2 4.9888902729539399e+00 -3.9300999460956047e+02 1.0000000000000000e+00 1.0840609788136664e+01 8.7087031111046258e+00 3.6520652397018956e+00 
364 1 2 4.7427887525814114e+00 -4.2481986883105105e+02 1.0000000000000000e+00 9.7789312151412489e+00 8.4965392035064564e+00 3.3970228042667125e+00 
256 1 2 5.0215508718873592e+00 -4.8660417650411097e+02 1.0000000000000000e+00 9.5796309623961804e+00 8.4674350254489248e+00 3.6955379817828953e+00 
446 1 2 4.8048807223411680e+00 -4.0612713114243422e+02 1.0000000000000000e+00 9.6948548220036859e+00 8.6938890577831831e+00 3.6399238308603676e+00 
124 1 2 4.8176030910974887e+00 -3.5681414182526021e+02 1.0000000000000000e+00 1.1616133766751160e+01 8.0684549880688827e+00 3.2776341359663062e+00 
46 1 2 5.2013574139310093e+00 -4.1685136188707332e+02 1.0000000000000000e+00 1.2070882481998311e+01 8.1213344501962599e+00 3.7113298206073155e+00 
49 1 2 4.8747978081992693e+00 -5.8825247118954383e+02 1.0000000000000000e+00 8.3702502444816620e+00 5.9142317938741611e+00 4.1333531551754081e+00 
526 1 2 4.9678814416182959e+00 -5.8946407834579566e+02 1.0000000000000000e+00 8.8597781518588405e+00 5.0515295451257840e+00 5.4332820021968269e+00 
434 1 2 5.0151070567199945e+00 -3.2785518747541516e+02 1.0000000000000000e+00 8.8859131756569791e+00 5.6172967806816070e+00 4.9926578753178079e+00 
48 1 2 4.9376015218132610e+00 -6.4878000183277618e+02 1.0000000000000000e+00 8.5370920122688840e+00 5.8550110187078142e+00 5.8709610190723893e+00 
453 1 2 4.9159411510715767e+00 -3.0723817727053404e+02 1.0000000000000000e+00 8.6945466051208005e+00 5.6338632744215129e+00 4.1637534884838905e+00 
122 1 2 4.8758810589727570e+00 -4.5549399928967966e+02 1.0000000000000000e+00 8.3103431663105738e+00 5.9624690290828584e+00 4.1954827081047634e+00 
361 1 2 5.2480312526800743e+00 -4.3822425959421230e+02 1.0000000000000000e+00 1.0749303191042598e+01 4.6753678950316013e+00 4.1050503819042170e+00 
113 1 2 4.7054008918503705e+00 -3.6605961619534924e+02 1.0000000000000000e+00 1.0025662171587784e+01 4.6509857988893621e+00 4.0504558343828361e+00 
120 1 2 4.8458182751326868e+00 -4.1696498294210471e+02 1.0000000000000000e+00 8.9154507667061829e+00 4.8527659651317547e+00 5.7028378975482781e+00 
326 1 2 4.9569584089072629e+00 -4.9887978804904685e+02 1.0000000000000000e+00 9.9464037537615244e+00 4.3856822882302122e+00 5.6199782680327779e+00 
103 1 2 4.7437245318695869e+00 -3.0254642054820818e+02 1.0000000000000000e+00 9.7436499379767749e+00 4.3467691172420659e+00 5.0693134308785428e+00 
181 1 2 4.7284660966216441e+00 -4.4148784915033588e+02 1.0000000000000000e+00 1.0204277397717446e+01 4.2064040998876910e+00 5.3799737410636475e+00 
91 1 2 5.0936857947337835e+00 -5.0544245606281487e+02 1.0000000000000000e+00 9.3133919624934300e+00 4.7035782153145318e+00 5.4170512897680689e+00 
23 1 2 5.0503774816251852e+00 -3.4228163380092434e+02 1.0000000000000000e+00 8.9990782369254401e+00 5.1250813297862132e+00 5.0754617089103586e+00 
192 1 2 5.1225403750125498e+00 -4.6240929172944391e+02 1.0000000000000000e+00 1.0893174190131086e+01 4.3879867505359620e+00 5.1386833721950964e+00 
83 1 2 4.9980058166655565e+00 -3.7774380202674740e+02 1.0000000000000000e+00 9.3882446574277854e+00 5.5346280810440236e+00 4.4901098333479528e+00 
218 1 2 4.9323475274728326e+00 -1.9143293460113702e+02 1.0000000000000000e+00 1.0679711560831329e+01 4.2708162159876721e+00 4.9193821790885774e+00 
175 1 2 4.7508937280019037e+00 -4.1152697222872649e+02 1.0000000000000000e+00 1.0657502987632833e+01 4.2048346657260716e+00 4.7941423923522564e+00 
199 1 2 5.2825625542707009e+00 -3.5390560510894750e+02 1.0000000000000000e+00 1.0685929376870726e+01 4.5510770878682631e+00 5.5608424896545836e+00 
22 1 2 5.1075483245435684e+00 -4.5680794770118621e+02 1.0000000000000000e+00 1.0501497593689290e+01 4.5157314631713215e+00 5.9037223024491992e+00 
254 1 2 5.3018820890937750e+00 -5.7249380264723663e+02 1.0000000000000000e+00 1.2035591460308609e+01 5.0649065313096369e+00 4.2318839752160908e+00 
429 1 2 5.0662796543766673e+00 -4.9892943262440969e+02 1.0000000000000000e+00 1.1656009966862181e+01 4.6116886243096014e+00 4.3018613700505659e+00 
210 1 2 5.2649477093523513e+00 -5.1516064251927344e+02 1.0000000000000000e+00 1.2145004772518622e+01 5.3804565960153257e+00 4.7879726142521291e+00 
165 1 2 4.8651834586012743e+00 -4.1744528747992950e+02 1.0000000000000000e+00 1.2409944154435504e+01 5.2059990851519160e+00 4.3493044098353693e+00 
535 1 2 4.7506899289155280e+00 -4.7510821422194704e+02 1.0000000000000000e+00 1.2653534373137663e+01 5.6856298353591086e+00 5.8986641915710702e+00 
264 1 2 4.7844367203572622e+00 -3.4996449631735499e+02 1.0000000000000000e+00 1.2318495849550443e+01 5.0267569433672294e+00 4.1918174135978123e+00 
114 1 2 4.9399711229874823e+00 -4.8517128560268441e+02 1.0000000000000000e+00 1.1907967461793739e+01 4.6932655758183373e+00 4.6044643651695933e+00 
273 1 2 5.1038078413697763e+00 -3.6915755580544294e+02 1.0000000000000000e+00 1.1954845886256376e+01 5.0565128177936289e+00 5.9451205494655941e+00 
524 1 2 5.1084512656091468e+00 -4.3217140903679575e+02 1.0000000000000000e+00 1.1805626107766198e+01 4.9423908297968566e+00 5.9399307287678687e+00 
221 1 2 4.8684617553479139e+00 -4.9089609891774398e+02 1.0000000000000000e+00 7.5034840604498481e+00 7.3746694340936081e+00 4.3232183347584741e+00 
445 1 2 5.1393700293570834e+00 -3.7859463290537394e+02 1.0000000000000000e+00 7.6899853804331126e+00 6.8327715407966663e+00 4.4582398712642330e+00 
100 1 2 4.9419922166006263e+00 -5.9407116800733490e+02 1.0000000000000000e+00 7.3265490378578493e+00 7.5839589664193907e+00 5.3098313034176758e+00 
248 1 2 4.9297732734599222e+00 -4.2999201387537789e+02 1.0000000000000000e+00 7.8721617964015502e+00 7.5109713551663511e+00 4.0501424840926408e+00 
212 1 2 4.8452134227680634e+00 -3.7767958705151892e+02 1.0000000000000000e+00 7.4737648592475665e+00 7.2028518310750940e+00 5.4960342351075235e+00 
417 1 2 4.9546179206577712e+00 -3.9633002727535586e+02 1.0000000000000000e+00 7.6885797392029103e+00 7.6899118152151251e+00 4.2812088534327506e+00 
379 1 2 4.9999732158684154e+00 -4.3334793147699492e+02 1.0000000000000000e+00 7.4241333087631256e+00 7.1032587892925774e+00 4.7285377419972985e+00 
1 1 2 5.1477927800801808e+00 -4.9996202443400597e+02 1.0000000000000000e+00 7.4874038385690866e+00 7.9126593984679072e+00 4.8474980618748722e+00 
428 1 2 4.7667572037923023e+00 -4.2432095813181598e+02 1.0000000000000000e+00 7.4631430293323842e+00 6.8285695216222120e+00 4.9571138462946616e+00 
498 1 2 4.8754355437551871e+00 -4.5351757083501354e+02 1.0000000000000000e+00 7.3165790350357396e+00 7.6676252075519793e+00 5.3802731882852903e+00 
166 1 2 4.8433796314886468e+00 -3.8951926978584203e+02 1.0000000000000000e+00 8.2615384101707470e+00 6.1351641728924653e+00 5.3477276338655271e+00 
370 1 2 5.0851583608225637e+00 -4.3536003027796215e+02 1.0000000000000000e+00 7.8595124216272030e+00 7.4788464090124007e+00 5.9259983314975990e+00 
454 1 2 4.9854965770083339e+00 -3.7345844383941306e+02 1.0000000000000000e+00 1.3120740090000524e+01 7.2538851358132526e+00 4.1647556365386098e+00 
523 1 2 5.1157084269984754e+00 -5.6643169731707258e+02 1.0000000000000000e+00 1.2861845594389516e+01 7.7991816409129990e+00 4.1746062445432637e+00 
244 1 2 4.9568074473400632e+00 -4.5370776543656501e+02 1.0000000000000000e+00 1.2925878493605518e+01 7.7986902835261303e+00 4.5150388997356261e+00 
183 1 2 4.8784758135620319e+00 -3.8882065900307089e+02 1.0000000000000000e+00 1.1436025303338422e+01 7.1816323164305276e+00 4.0521912149166797e+00 
263 1 2 5.0871762324269820e+00 -4.6954405787989691e+02 1.0000000000000000e+00 1.2749263969448950e+01 6.1350741312823605e+00 4.4995651263803431e+00 
109 1 2 5.0567050435034302e+00 -3.9079728177659325e+02 1.0000000000000000e+00 1.1708457828171850e+01 7.6802567365034644e+00 4.4388371139827454e+00 
452 1 2 5.0509195041339305e+00 -2.7822073983593503e+02 1.0000000000000000e+00 1.2725691180125173e+01 7.1802659267777029e+00 5.1587628390974984e+00 
371 1 2 4.8809711650601102e+00 -3.1867021330266243e+02 1.0000000000000000e+00 1.2943834774884083e+01 6.8598113158013128e+00 5.1421660289597604e+00 
516 1 2 5.0905897828098654e+00 -4.2327250294874227e+02 1.0000000000000000e+00 1.2784217169555655e+01 6.2465560118262262e+00 4.5972179920829719e+00 
299 1 2 4.9847351573025884e+00 -3.2201606302670956e+02 1.0000000000000000e+00 1.2881313492277403e+01 6.2841135494365092e+00 4.1931263879407892e+00 
50 1 2 5.0873341114568857e+00 -6.2026611768148643e+02 1.0000000000000000e+00 1.2795442832014103e+01 7.5553665821980189e+00 4.9269395246123349e+00 
427 1 2 4.7613969306765087e+00 -3.7107319212429405e+02 1.0000000000000000e+00 1.3033499946356134e+01 7.7266428655173085e+00 4.6909550525200219e+00 
282 1 2 5.0858027491271702e+00 -2.9488082882162774e+02 1.0000000000000000e+00 1.2517806971138180e+01 6.3294266918858613e+00 5.8757901152278462e+00 
372 1 2 4.7558517739160058e+00 -3.1006481314337901e+02 1.0000000000000000e+00 7.5832514452481954e+00 8.0256614497460017e+00 5.9566999437325672e+00 
437 1 2 5.0336688631837045e+00 -2.1211457979997968e+02 1.0000000000000000e+00 7.5527250132990540e+00 8.0425945644959587e+00 4.7579240431776784e+00 
12 1 2 4.9682456265830366e+00 -4.6652894278145914e+02 1.0000000000000000e+00 8.8784935496726050e+00 8.2563631578939241e+00 4.1717832868894575e+00 
300 1 2 5.0001294842832493e+00 -4.5777290684637512e+02 1.0000000000000000e+00 8.0437538851419585e+00 8.9221444629785971e+00 5.6467871899150808e+00 
443 1 2 4.6900462170672741e+00 -4.2241191199213341e+02 1.0000000000000000e+00 8.1378325334370345e+00 9.2222417631487250e+00 5.7677168894616422e+00 
208 1 2 5.4457160571053862e+00 -2.3770273519364494e+02 1.0000000000000000e+00 8.4893643941154302e+00 8.7556576351283013e+00 5.2995952953657595e+00 
211 1 2 5.1642572532380022e+00 -3.9581904501996496e+02 1.0000000000000000e+00 8.7433839406788021e+00 8.0919691088370982e+00 4.3038079317955873e+00 
21 1 2 5.3201118066929105e+00 -4.5409761823794298e+02 1.0000000000000000e+00 8.5433114698013348e+00 9.1784002358275121e+00 5.7246598505828450e+00 
293 1 2 5.1585018165118175e+00 -3.6340786956252651e+02 1.0000000000000000e+00 9.5230223291986622e+00 9.7746887254079002e+00 5.9836620680909496e+00 
123 1 2 5.0075503177422576e+00 -3.3347818346793184e+02 1.0000000000000000e+00 9.0081684547896117e+00 8.3271772716257129e+00 4.2438293675838326e+00 
424 1 2 5.1139857299107261e+00 -4.2997165014584499e+02 1.0000000000000000e+00 9.4393533490419088e+00 8.3720838486972688e+00 4.2825085045363407e+00 
31 1 2 4.9517378351128629e+00 -3.6572094072853969e+02 1.0000000000000000e+00 9.7737110278333770e+00 9.0223022977778538e+00 4.6090855869388863e+00 
182 1 2 5.2555952359328693e+00 -3.4090400299536714e+02 1.0000000000000000e+00 1.0535232870920613e+01 8.3705640909707935e+00 4.3390174783674738e+00 
102 1 2 5.1760157145234187e+00 -2.7796679518412134e+02 1.0000000000000000e+00 1.0503615183130043e+01 9.0334503801468280e+00 4.3776731112248832e+00 
33 1 2 4.9261198601561658e+00 -3.5839357219582655e+02 1.0000000000000000e+00 9.0468390772763971e+00 9.3651970849596164e+00 5.4112865152440772e+00 
110 1 2 4.8292656535336267e+00 -3.9432826451213475e+02 1.0000000000000000e+00 1.0055075978954701e+01 9.1706780877017788e+00 4.2911227135593082e+00 
425 1 2 4.9619046371656186e+00 -4.1648004279325284e+02 1.0000000000000000e+00 1.0697193820779745e+01 9.3271456108554975e+00 4.7957709547033742e+00 
518 1 2 4.8881154747394735e+00 -4.8468069604260023e+02 1.0000000000000000e+00 1.0977341336650323e+01 9.8113693855241770e+00 5.5339427811075756e+00 
438 1 2 5.0913316984916843e+00 -4.9080163254205667e+02 1.0000000000000000e+00 9.0439108471298830e+00 9.7371557438506482e+00 5.9702265848467979e+00 
265 1 2 4.9981917088489736e+00 -4.3112120875371721e+02 1.0000000000000000e+00 1.1491833242503061e+01 9.6382022726565868e+00 5.3764037960778372e+00 
281 1 2 4.7211332793796874e+00 -3.8316891092293633e+02 1.0000000000000000e+00 1.1605400066743471e+01 9.1480139008696089e+00 4.6835829880968687e+00 
40 1 2 5.0418321541157090e+00 -4.2105996034717543e+02 1.0000000000000000e+00 1.2312635805932276e+01 8.6433560669400258e+00 5.5491389643846949e+00 
506 1 2 5.0050893810995039e+00 -3.2813865329670625e+02 1.0000000000000000e+00 1.1219069139542906e+01 8.9857819401740837e+00 4.4289619365576600e+00 
121 1 2 4.9965390296662600e+00 -4.2420709268316091e+02 1.0000000000000000e+00 1.2179993490395253e+01 9.2291011455846359e+00 5.5094908634931148e+00 
255 1 2 5.0357519155933463e+00 -4.5402056114484424e+02 1.0000000000000000e+00 1.2036164447253732e+01 9.3718564673480476e+00 5.5075838343294041e+00 
347 1 2 4.7404501042420151e+00 -4.4417832836623012e+02 1.0000000000000000e+00 1.1231201446844539e+01 9.8175491327188631e+00 5.3711776360585599e+00 
355 1 2 4.9322533103078401e+00 -1.5892942085728794e+02 1.0000000000000000e+00 8.6282222494729908e+00 5.5015740735909811e+00 6.5753146375662253e+00 
272 1 2 5.1154764883531811e+00 -5.4264765257534623e+02 1.0000000000000000e+00 8.7380519314724339e+00 5.3681258499020323e+00 6.3116392147403575e+00 
42 1 2 5.1790914428893524e+00 -3.1384479953795744e+02 1.0000000000000000e+00 8.7526059559818421e+00 5.4768567442327205e+00 6.5172632632276954e+00 
302 1 2 4.9225390156200231e+00 -4.2153235863103095e+02 1.0000000000000000e+00 8.5999142555826005e+00 5.6533481117018987e+00 6.7007236971754027e+00 
136 1 2 4.8700310812604055e+00 -4.9524270626413949e+02 1.0000000000000000e+00 8.9956335993836731e+00 5.1704524273287591e+00 6.9517014438074849e+00 