LAMMPS data file via write_data, version 30 Jul 2016, timestep = 50400000

3234 atoms
8 atom types

0.0000000000000000e+00 1.0000000000000000e+02 xlo xhi
0.0000000000000000e+00 4.0000000000000000e+01 ylo yhi
0.0000000000000000e+00 4.0000000000000000e+01 zlo zhi

Masses

1 3.896
2 5.36
3 20.064
4 8.378
5 8.378
6 8.378
7 8.378
8 8.378

Atoms # meso-molecular

225 226 2 1.0843766380276505e+00 9.2961730346575280e+00 1.0000000000000000e+00 2.8051814243717175e+00 1.0000000000000000e+01 7.0155829534848779e-01 
90 91 2 1.0843766380276505e+00 -8.5624440539938416e+00 1.0000000000000000e+00 5.1234522437129044e+00 1.0000000000000000e+01 2.6680071317629334e-01 
414 415 2 1.0843768684443118e+00 -8.8987029110781872e+00 1.0000000000000000e+00 7.3475658027582895e+00 1.0000000000000000e+01 2.9674476655958848e-01 
254 255 2 1.0843768684443118e+00 6.1462179621936848e+00 1.0000000000000000e+00 9.3994752724895214e+00 1.0000000000000000e+01 1.0218637619154967e+00 
186 187 2 1.0843766380276505e+00 -7.5966428379767947e+00 1.0000000000000000e+00 1.1929777429456683e+01 1.0000000000000000e+01 1.3499616180785277e+00 
259 260 2 1.0843766380276505e+00 8.5388513866019800e+00 1.0000000000000000e+00 1.7465191595118849e+01 1.0000000000000000e+01 4.7972285746321780e-01 
153 154 2 1.0843766380276505e+00 -5.7079118916321665e+00 1.0000000000000000e+00 2.1508108001710223e+01 1.0000000000000000e+01 1.0640347799444632e+00 
441 442 2 1.0843766380276505e+00 3.9852900585068682e+00 1.0000000000000000e+00 2.4132359790879264e+01 1.0000000000000000e+01 1.0645604899879171e+00 
419 420 2 1.0843766380276505e+00 -7.4783803528617216e+00 1.0000000000000000e+00 2.7359909394095460e+01 1.0000000000000000e+01 4.5964697305281665e-01 
496 497 2 1.0843769894422788e+00 5.0852072573674905e+00 1.0000000000000000e+00 1.2239522591665668e-01 1.3000000000000000e+01 4.7641494770447845e-01 
859 860 2 1.0843766498587688e+00 -1.8580864335911280e+00 1.0000000000000000e+00 2.3058063943195912e+00 1.3000000000000000e+01 6.2641537883754139e-01 
717 718 2 1.0843766380276505e+00 9.1426850680719980e+00 1.0000000000000000e+00 1.3050627869948109e+01 1.3000000000000000e+01 1.0768344299087227e+00 
820 821 2 1.0843769086837385e+00 5.5185458212229743e-01 1.0000000000000000e+00 1.7591676013070465e+01 1.3000000000000000e+01 1.2856551668303300e+00 
560 561 2 1.0843766380276505e+00 2.1899351438316597e+00 1.0000000000000000e+00 2.6358784175247767e+01 1.3000000000000000e+01 1.2011351615850199e+00 
474 475 2 1.0843766380276505e+00 3.7021880362768727e+00 1.0000000000000000e+00 3.3250340047296930e+01 1.3000000000000000e+01 3.0344989432111791e-01 
958 959 2 1.0843769894422788e+00 5.0852072573674905e+00 1.0000000000000000e+00 1.2239522591665668e-01 1.6000000000000000e+01 4.7641494770447845e-01 
1321 1322 2 1.0843766498587688e+00 -1.8580864335911280e+00 1.0000000000000000e+00 2.3058063943195912e+00 1.6000000000000000e+01 6.2641537883754139e-01 
1179 1180 2 1.0843766380276505e+00 9.1426850680719980e+00 1.0000000000000000e+00 1.3050627869948109e+01 1.6000000000000000e+01 1.0768344299087227e+00 
1282 1283 2 1.0843769086837385e+00 5.5185458212229743e-01 1.0000000000000000e+00 1.7591676013070465e+01 1.6000000000000000e+01 1.2856551668303300e+00 
1022 1023 2 1.0843766380276505e+00 2.1899351438316597e+00 1.0000000000000000e+00 2.6358784175247767e+01 1.6000000000000000e+01 1.2011351615850199e+00 
936 937 2 1.0843766380276505e+00 3.7021880362768727e+00 1.0000000000000000e+00 3.3250340047296930e+01 1.6000000000000000e+01 3.0344989432111791e-01 
1554 1555 2 1.0843766380276505e+00 1.0546589191970991e+01 1.0000000000000000e+00 6.2565480075282673e+00 1.9000000000000000e+01 5.8162256453471739e-01 
1430 1431 2 1.0843766380276505e+00 -5.9985970344452131e+00 1.0000000000000000e+00 1.1562407332807741e+01 1.9000000000000000e+01 8.3703766006960922e-01 
1464 1465 2 1.0843775809564669e+00 -1.1837009267791021e+01 1.0000000000000000e+00 1.5520678684490262e+01 1.9000000000000000e+01 5.7121566462752649e-01 
1406 1407 2 1.0843766380276505e+00 7.4584095468623595e+00 1.0000000000000000e+00 2.6713420942788609e+01 1.9000000000000000e+01 6.2564367872682569e-01 
1449 1450 2 1.0843766380584166e+00 -8.7641308074092574e+00 1.0000000000000000e+00 2.9122554872607530e+01 1.9000000000000000e+01 1.2930408986165509e+00 
391 392 2 1.0843766380276505e+00 -4.5933205970183479e+00 1.0000000000000000e+00 6.3942202957164032e+00 1.0000000000000000e+01 2.4198712716578932e+00 
27 28 2 1.0843766380276505e+00 8.9056453792397470e+00 1.0000000000000000e+00 1.4959573187251790e+01 1.0000000000000000e+01 1.6726650929882261e+00 
293 294 2 1.0843766380276505e+00 -2.2286240786648257e+00 1.0000000000000000e+00 1.8350607407588047e+01 1.0000000000000000e+01 2.5181549231788276e+00 
218 219 2 1.0843766380276505e+00 6.2628780352217017e+00 1.0000000000000000e+00 2.7567061314978620e+01 1.0000000000000000e+01 2.7462886809339517e+00 
810 811 2 1.0843766380276505e+00 -6.2422997910497298e+00 1.0000000000000000e+00 8.8581705491263421e+00 1.3000000000000000e+01 1.9001623404126113e+00 
504 505 2 1.0843769086837385e+00 1.5274348532423241e+01 1.0000000000000000e+00 1.9751144446348217e+01 1.3000000000000000e+01 1.5466248507698499e+00 
558 559 2 1.0843766380276505e+00 -2.7547982590083535e+00 1.0000000000000000e+00 2.2599539665819158e+01 1.3000000000000000e+01 1.5661632631592979e+00 
1272 1273 2 1.0843766380276505e+00 -6.2422997910497298e+00 1.0000000000000000e+00 8.8581705491263421e+00 1.6000000000000000e+01 1.9001623404126113e+00 
966 967 2 1.0843769086837385e+00 1.5274348532423241e+01 1.0000000000000000e+00 1.9751144446348217e+01 1.6000000000000000e+01 1.5466248507698499e+00 
1020 1021 2 1.0843766380276505e+00 -2.7547982590083535e+00 1.0000000000000000e+00 2.2599539665819158e+01 1.6000000000000000e+01 1.5661632631592979e+00 
1793 1794 2 1.0843766380276505e+00 1.5809429067564640e+00 1.0000000000000000e+00 5.9266879447342746e-01 1.9000000000000000e+01 1.5424606418614246e+00 
1619 1620 2 1.0843766380276505e+00 7.1002567887930770e+00 1.0000000000000000e+00 5.1903687274327197e+00 1.9000000000000000e+01 2.5124193281778182e+00 
1571 1572 2 1.0843766380276505e+00 -7.6317804384036325e+00 1.0000000000000000e+00 8.4717214463839099e+00 1.9000000000000000e+01 2.0481867580811004e+00 
1453 1454 2 1.0843775809564669e+00 -1.5178894287259044e+00 1.0000000000000000e+00 1.6494547137461122e+01 1.9000000000000000e+01 2.5063509556857282e+00 
1444 1445 2 1.0843766380276505e+00 -5.7980768804827196e+00 1.0000000000000000e+00 2.2531956158899838e+01 1.9000000000000000e+01 2.3928438493820829e+00 
1450 1451 2 1.0843768010920458e+00 -4.3004401106830654e+00 1.0000000000000000e+00 3.2098478610719084e+01 1.9000000000000000e+01 2.8520570038431576e+00 
215 216 2 1.0843766484168280e+00 1.0445178886168700e+00 1.0000000000000000e+00 1.4347984252443193e+00 1.0000000000000000e+01 3.5273366595673812e+00 
235 236 2 1.0843766380276505e+00 1.8736434993464586e+00 1.0000000000000000e+00 3.7476606487063906e+00 1.0000000000000000e+01 4.3401509110851508e+00 
51 52 2 1.0843766380276505e+00 1.4393455022312200e+00 1.0000000000000000e+00 8.7898597139913566e+00 1.0000000000000000e+01 3.8233106547286959e+00 
402 403 2 1.0843766380276505e+00 -5.8662645819468455e+00 1.0000000000000000e+00 1.3857053317600879e+01 1.0000000000000000e+01 3.7953798205387366e+00 
167 168 2 1.0843766723612378e+00 -5.0516928520166600e+00 1.0000000000000000e+00 1.9748509939429056e+01 1.0000000000000000e+01 4.3579972415425559e+00 
363 364 2 1.0843766723612378e+00 -5.5289064155026668e-01 1.0000000000000000e+00 2.1896625924523114e+01 1.0000000000000000e+01 3.9580044044561458e+00 
433 434 2 1.0843766380276505e+00 2.3459880691175892e+00 1.0000000000000000e+00 2.4932560342694970e+01 1.0000000000000000e+01 3.5965279652185922e+00 
58 59 2 1.0843766380276505e+00 -2.0185121288836778e+00 1.0000000000000000e+00 3.0115286315811755e+01 1.0000000000000000e+01 3.9883193197919162e+00 
334 335 2 1.0843766380276505e+00 -2.2908828175184008e+00 1.0000000000000000e+00 3.2476611177158638e+01 1.0000000000000000e+01 3.1510567459132082e+00 
697 698 2 1.0843766380276505e+00 1.6039059887665008e+00 1.0000000000000000e+00 7.9927855783512465e+00 1.3000000000000000e+01 3.9759269477140839e+00 
494 495 2 1.0843766380276505e+00 4.6425834959811549e+00 1.0000000000000000e+00 1.0214511024442292e+01 1.3000000000000000e+01 4.5164409694771708e+00 
718 719 2 1.0843766380276505e+00 -1.1757803653303425e-01 1.0000000000000000e+00 1.3228162148397841e+01 1.3000000000000000e+01 3.5621133112261854e+00 
663 664 2 1.0843766380276505e+00 -8.6303932468688060e-01 1.0000000000000000e+00 1.6037119521184707e+01 1.3000000000000000e+01 3.7605992277271767e+00 
678 679 2 1.0843766380276505e+00 -1.4392568485791264e+00 1.0000000000000000e+00 2.1819110178120170e+01 1.3000000000000000e+01 3.7031635010917183e+00 
768 769 2 1.0843766380276505e+00 3.4539647425856779e-01 1.0000000000000000e+00 2.4184569524002679e+01 1.3000000000000000e+01 3.0952007685437417e+00 
641 642 2 1.0843766380276505e+00 -3.4736201394499879e+00 1.0000000000000000e+00 2.7363270110094110e+01 1.3000000000000000e+01 4.3251143969538131e+00 
501 502 2 1.0843766380276505e+00 3.1165818728929180e+00 1.0000000000000000e+00 3.0775148006567658e+01 1.3000000000000000e+01 3.1900177031767929e+00 
1159 1160 2 1.0843766380276505e+00 1.6039059887665008e+00 1.0000000000000000e+00 7.9927855783512465e+00 1.6000000000000000e+01 3.9759269477140839e+00 
956 957 2 1.0843766380276505e+00 4.6425834959811549e+00 1.0000000000000000e+00 1.0214511024442292e+01 1.6000000000000000e+01 4.5164409694771708e+00 
1180 1181 2 1.0843766380276505e+00 -1.1757803653303425e-01 1.0000000000000000e+00 1.3228162148397841e+01 1.6000000000000000e+01 3.5621133112261854e+00 
1125 1126 2 1.0843766380276505e+00 -8.6303932468688060e-01 1.0000000000000000e+00 1.6037119521184707e+01 1.6000000000000000e+01 3.7605992277271767e+00 
1140 1141 2 1.0843766380276505e+00 -1.4392568485791264e+00 1.0000000000000000e+00 2.1819110178120170e+01 1.6000000000000000e+01 3.7031635010917183e+00 
1230 1231 2 1.0843766380276505e+00 3.4539647425856779e-01 1.0000000000000000e+00 2.4184569524002679e+01 1.6000000000000000e+01 3.0952007685437417e+00 
1103 1104 2 1.0843766380276505e+00 -3.4736201394499879e+00 1.0000000000000000e+00 2.7363270110094110e+01 1.6000000000000000e+01 4.3251143969538131e+00 
963 964 2 1.0843766380276505e+00 3.1165818728929180e+00 1.0000000000000000e+00 3.0775148006567658e+01 1.6000000000000000e+01 3.1900177031767929e+00 
1736 1737 2 1.0843766380276505e+00 3.2398435290425400e+00 1.0000000000000000e+00 1.3610818539569294e+01 1.9000000000000000e+01 3.3149078477661531e+00 
1511 1512 2 1.0843766380276505e+00 -6.9238984798140528e+00 1.0000000000000000e+00 1.9960749448336649e+01 1.9000000000000000e+01 3.2148182857485739e+00 
1537 1538 2 1.0843766380276505e+00 -5.3623330837072203e+00 1.0000000000000000e+00 2.4649733850718047e+01 1.9000000000000000e+01 3.1049888232703999e+00 
1843 1844 2 1.0843766380276505e+00 2.4009003247791090e+00 1.0000000000000000e+00 2.6926726215329040e+01 1.9000000000000000e+01 4.0631423284865003e+00 
1392 1393 2 1.0843768011228119e+00 4.2805769290950639e+00 1.0000000000000000e+00 2.9971398810601972e+01 1.9000000000000000e+01 3.3208061230764558e+00 
341 342 2 1.0843766380276505e+00 -5.8179406396525479e+00 1.0000000000000000e+00 6.7339799129794420e+00 1.0000000000000000e+01 6.1506019916355088e+00 
177 178 2 1.0843766380276505e+00 2.9524613337770944e+00 1.0000000000000000e+00 1.7042997571678988e+01 1.0000000000000000e+01 5.1549962048145836e+00 
368 369 2 1.0843766380276505e+00 5.9109255367085112e-01 1.0000000000000000e+00 2.7546891436561424e+01 1.0000000000000000e+01 5.2315933250408158e+00 
541 542 2 1.0843766380276505e+00 -5.1234546337772162e+00 1.0000000000000000e+00 2.3621380346910117e+00 1.3000000000000000e+01 4.7913651418010730e+00 
802 803 2 1.0843766380276505e+00 -7.3086899813784729e+00 1.0000000000000000e+00 5.3879073145905290e+00 1.3000000000000000e+01 5.3128145429581766e+00 
597 598 2 1.0843766380276505e+00 -6.6492706001778359e+00 1.0000000000000000e+00 1.4114876076599426e+01 1.3000000000000000e+01 5.7370581691350937e+00 
542 543 2 1.0843766380276505e+00 -5.8767733893439509e+00 1.0000000000000000e+00 1.9620915494095183e+01 1.3000000000000000e+01 4.6690366182746939e+00 
657 658 2 1.0843766380276505e+00 -4.3608081219813446e+00 1.0000000000000000e+00 2.5216124796506360e+01 1.3000000000000000e+01 5.7572462807902758e+00 
559 560 2 1.0843766380276505e+00 -5.1103471474618722e-01 1.0000000000000000e+00 3.0023033386480453e+01 1.3000000000000000e+01 5.4149110776698324e+00 
1003 1004 2 1.0843766380276505e+00 -5.1234546337772180e+00 1.0000000000000000e+00 2.3621380346910117e+00 1.6000000000000000e+01 4.7913651418010730e+00 
1264 1265 2 1.0843766380276505e+00 -7.3086899813784729e+00 1.0000000000000000e+00 5.3879073145905290e+00 1.6000000000000000e+01 5.3128145429581766e+00 
1059 1060 2 1.0843766380276505e+00 -6.6492706001778359e+00 1.0000000000000000e+00 1.4114876076599426e+01 1.6000000000000000e+01 5.7370581691350937e+00 
1004 1005 2 1.0843766380276505e+00 -5.8767733893439509e+00 1.0000000000000000e+00 1.9620915494095183e+01 1.6000000000000000e+01 4.6690366182746939e+00 
1119 1120 2 1.0843766380276505e+00 -4.3608081219813446e+00 1.0000000000000000e+00 2.5216124796506360e+01 1.6000000000000000e+01 5.7572462807902758e+00 
1021 1022 2 1.0843766380276505e+00 -5.1103471474618722e-01 1.0000000000000000e+00 3.0023033386480453e+01 1.6000000000000000e+01 5.4149110776698324e+00 
1608 1609 2 1.0843766380276505e+00 9.2589540596756770e+00 1.0000000000000000e+00 8.7085772076454919e+00 1.9000000000000000e+01 5.5054060263473676e+00 
1517 1518 2 1.0843766380276505e+00 3.2529719136559887e+00 1.0000000000000000e+00 1.0918770686800121e+01 1.9000000000000000e+01 4.8995567502716533e+00 
1403 1404 2 1.0843766380276505e+00 1.7816428782322696e+01 1.0000000000000000e+00 1.3244813859238313e+01 1.9000000000000000e+01 5.5482105006245073e+00 
1507 1508 2 1.0843766380276505e+00 -1.2041757746001288e+01 1.0000000000000000e+00 1.5374139500225864e+01 1.9000000000000000e+01 4.9873149096044367e+00 
1626 1627 2 1.0843766380276505e+00 -7.2783908840240565e+00 1.0000000000000000e+00 1.7700364793450742e+01 1.9000000000000000e+01 5.5554479478139713e+00 
1734 1735 2 1.0843766380276505e+00 -3.4296004213609734e+00 1.0000000000000000e+00 2.3603992562870403e+01 1.9000000000000000e+01 5.3254222717098036e+00 
1443 1444 2 1.0843766380276505e+00 -7.5818432707951178e-01 1.0000000000000000e+00 2.8831313518316517e+01 1.9000000000000000e+01 5.6907220003811521e+00 
59 60 2 1.0843766380276505e+00 3.0320890447901228e+00 1.0000000000000000e+00 1.7073212096674608e+00 1.0000000000000000e+01 6.3483318492440173e+00 
316 317 2 1.0843766380276505e+00 -8.3995136272234046e+00 1.0000000000000000e+00 4.1241503290686516e+00 1.0000000000000000e+01 6.6972503907967713e+00 
458 459 2 1.0843766380276505e+00 2.9784498346569919e+00 1.0000000000000000e+00 8.9956042572618919e+00 1.0000000000000000e+01 7.2036360780154336e+00 
447 448 2 1.0843766380276505e+00 5.2986765725509937e+00 1.0000000000000000e+00 1.2240156174873828e+01 1.0000000000000000e+01 6.7442193615848458e+00 
330 331 2 1.0843766380276505e+00 -4.4236327986727932e+00 1.0000000000000000e+00 2.3843107517500830e+01 1.0000000000000000e+01 7.5857716244476903e+00 
502 503 2 1.0843766380276505e+00 1.4264185669012117e+00 1.0000000000000000e+00 1.4246349582826843e+00 1.3000000000000000e+01 7.2267780962060408e+00 
809 810 2 1.0843766389077030e+00 7.3814840007224429e+00 1.0000000000000000e+00 3.6471305105254146e+00 1.3000000000000000e+01 6.9542960226888786e+00 
748 749 2 1.0843766380276505e+00 -1.8966640013155893e+00 1.0000000000000000e+00 1.6382030930524692e+01 1.3000000000000000e+01 7.2237671933403780e+00 
742 743 2 1.0843766380276505e+00 -2.5196953339183983e+00 1.0000000000000000e+00 1.9907132355108160e+01 1.3000000000000000e+01 7.0762274051770691e+00 
863 864 2 1.0843766380276505e+00 -4.8714008583158319e-01 1.0000000000000000e+00 2.2209987231884327e+01 1.3000000000000000e+01 6.5220322707550471e+00 
466 467 2 1.0843766380276505e+00 4.3065063303114988e+00 1.0000000000000000e+00 2.7653034771749795e+01 1.3000000000000000e+01 6.7992169533947235e+00 
591 592 2 1.0843766380276505e+00 -2.2008877835348910e+00 1.0000000000000000e+00 3.2195327756605870e+01 1.3000000000000000e+01 7.2583980059009248e+00 
964 965 2 1.0843766380276505e+00 1.4264185669012117e+00 1.0000000000000000e+00 1.4246349582826843e+00 1.6000000000000000e+01 7.2267780962060408e+00 
1271 1272 2 1.0843766389077030e+00 7.3814840007224429e+00 1.0000000000000000e+00 3.6471305105254146e+00 1.6000000000000000e+01 6.9542960226888786e+00 
1210 1211 2 1.0843766380276505e+00 -1.8966640013155893e+00 1.0000000000000000e+00 1.6382030930524692e+01 1.6000000000000000e+01 7.2237671933403780e+00 
1204 1205 2 1.0843766380276505e+00 -2.5196953339183983e+00 1.0000000000000000e+00 1.9907132355108160e+01 1.6000000000000000e+01 7.0762274051770691e+00 
1325 1326 2 1.0843766380276505e+00 -4.8714008583158319e-01 1.0000000000000000e+00 2.2209987231884327e+01 1.6000000000000000e+01 6.5220322707550471e+00 
928 929 2 1.0843766380276505e+00 4.3065063303114988e+00 1.0000000000000000e+00 2.7653034771749795e+01 1.6000000000000000e+01 6.7992169533947235e+00 
1053 1054 2 1.0843766380276505e+00 -2.2008877835348910e+00 1.0000000000000000e+00 3.2195327756605870e+01 1.6000000000000000e+01 7.2583980059009248e+00 
1387 1388 2 1.0843766380276505e+00 1.5257435095808553e+01 1.0000000000000000e+00 1.8032090719085363e+00 1.9000000000000000e+01 7.3569414265376398e+00 
1520 1521 2 1.0843766380276505e+00 1.6417167112339164e+00 1.0000000000000000e+00 4.9189424776903712e+00 1.9000000000000000e+01 6.4829899593895224e+00 
1503 1504 2 1.0843766380276505e+00 -1.0019994739734788e+01 1.0000000000000000e+00 7.1461250742046731e+00 1.9000000000000000e+01 7.3532431335247681e+00 
1581 1582 2 1.0843766380276505e+00 -5.8064954398512925e-01 1.0000000000000000e+00 1.0866796669605462e+01 1.9000000000000000e+01 7.3893634872290344e+00 
1730 1731 2 1.0843766380153257e+00 -6.3102500863624504e+00 1.0000000000000000e+00 1.4888445566920746e+01 1.9000000000000000e+01 7.2310293026863777e+00 
1489 1490 2 1.0843766380276505e+00 4.0059864289462812e+00 1.0000000000000000e+00 2.6108113206198247e+01 1.9000000000000000e+01 6.4889186736488575e+00 
1555 1556 2 1.0843766380276505e+00 1.4927962710369513e+01 1.0000000000000000e+00 3.0949313028292746e+01 1.9000000000000000e+01 7.2513185719260314e+00 
400 401 2 1.0843766380276505e+00 -3.6378400248435270e+00 1.0000000000000000e+00 1.8013312733441917e+00 1.0000000000000000e+01 9.0735686922709711e+00 
250 251 2 1.0843766380276505e+00 9.6943939513029631e-01 1.0000000000000000e+00 1.6786615862746469e+01 1.0000000000000000e+01 9.1652698036506415e+00 
222 223 2 1.0843766380276505e+00 8.8660071361561208e+00 1.0000000000000000e+00 1.9307225540770197e+01 1.0000000000000000e+01 8.2200307638590786e+00 
338 339 2 1.0843766380276505e+00 -7.3491261540315236e+00 1.0000000000000000e+00 2.6554191692907580e+01 1.0000000000000000e+01 8.0175372048005489e+00 
4 5 2 1.0843766380276505e+00 5.5840564528511223e+00 1.0000000000000000e+00 3.0978944491672898e+01 1.0000000000000000e+01 8.0122406080473159e+00 
532 533 2 1.0843766389077030e+00 -1.7180912023260575e+00 1.0000000000000000e+00 5.5630310238885325e+00 1.3000000000000000e+01 8.0235953065515204e+00 
876 877 2 1.0843766380276505e+00 -8.4718641183369421e+00 1.0000000000000000e+00 1.0976452554238884e+01 1.3000000000000000e+01 7.9095258553417640e+00 
711 712 2 1.0843766380276505e+00 3.6044167774404521e+00 1.0000000000000000e+00 1.4419633761021464e+01 1.3000000000000000e+01 8.8434216087386854e+00 
566 567 2 1.0843766380276505e+00 -4.7717690343199806e+00 1.0000000000000000e+00 2.2859272567760431e+01 1.3000000000000000e+01 8.7688695515062225e+00 
576 577 2 1.0843766380276505e+00 -7.0716940227378959e+00 1.0000000000000000e+00 2.5464895799802697e+01 1.3000000000000000e+01 8.5089096062507732e+00 
622 623 2 1.0843766380276505e+00 -1.0816133520863644e+01 1.0000000000000000e+00 2.7966729527528020e+01 1.3000000000000000e+01 9.1888576185543922e+00 
994 995 2 1.0843766389077030e+00 -1.7180912023260575e+00 1.0000000000000000e+00 5.5630310238885325e+00 1.6000000000000000e+01 8.0235953065515204e+00 
1338 1339 2 1.0843766380276505e+00 -8.4718641183369421e+00 1.0000000000000000e+00 1.0976452554238884e+01 1.6000000000000000e+01 7.9095258553417640e+00 
1173 1174 2 1.0843766380276505e+00 3.6044167774404521e+00 1.0000000000000000e+00 1.4419633761021464e+01 1.6000000000000000e+01 8.8434216087386854e+00 
1028 1029 2 1.0843766380276505e+00 -4.7717690343199806e+00 1.0000000000000000e+00 2.2859272567760431e+01 1.6000000000000000e+01 8.7688695515062225e+00 
1038 1039 2 1.0843766380276505e+00 -7.0716940227378959e+00 1.0000000000000000e+00 2.5464895799802697e+01 1.6000000000000000e+01 8.5089096062507732e+00 
1084 1085 2 1.0843766380276505e+00 -1.0816133520863644e+01 1.0000000000000000e+00 2.7966729527528020e+01 1.6000000000000000e+01 9.1888576185543922e+00 
1747 1748 2 1.0843766380276505e+00 -6.6720832275791881e+00 1.0000000000000000e+00 4.2322293829066897e+00 1.9000000000000000e+01 8.8099674886283772e+00 
1773 1774 2 1.0843766380142394e+00 -3.3615967326602356e+00 1.0000000000000000e+00 1.3118156182453397e+01 1.9000000000000000e+01 8.5345847116130358e+00 
1679 1680 2 1.0843766380276505e+00 -1.7670244509293231e-01 1.0000000000000000e+00 1.8452744266602569e+01 1.9000000000000000e+01 8.3595221596671809e+00 
1596 1597 2 1.0843766380276505e+00 5.7114156577908837e+00 1.0000000000000000e+00 2.1339675002914138e+01 1.9000000000000000e+01 8.2549075954807734e+00 
1445 1446 2 1.0843766380276505e+00 -1.9395766021761536e+00 1.0000000000000000e+00 2.4038889514202548e+01 1.9000000000000000e+01 8.8187870894420080e+00 
1798 1799 2 1.0843766380276505e+00 -7.7694616740686850e+00 1.0000000000000000e+00 2.6324317430844371e+01 1.9000000000000000e+01 8.8719080949643168e+00 
1839 1840 2 1.0843766380276505e+00 4.2940581879891209e+00 1.0000000000000000e+00 2.8497355714921500e+01 1.9000000000000000e+01 8.3522575745127234e+00 
1440 1441 2 1.0843766380276505e+00 -8.3590268293521053e-01 1.0000000000000000e+00 3.2945144125855379e+01 1.9000000000000000e+01 9.1756963898928579e+00 
13 14 2 1.0843766380276505e+00 7.0351205350137107e+00 1.0000000000000000e+00 4.3536438299190126e+00 1.0000000000000000e+01 1.0124054222993147e+01 
219 220 2 1.0843766380276505e+00 3.2298400011721222e+00 1.0000000000000000e+00 8.2943072770346316e+00 1.0000000000000000e+01 9.5271090900878299e+00 
148 149 2 1.0843766380276505e+00 -1.0103290085541591e+01 1.0000000000000000e+00 1.2168899253491835e+01 1.0000000000000000e+01 9.3642574259099725e+00 
285 286 2 1.0843766380276505e+00 -2.9269029361044092e+00 1.0000000000000000e+00 2.1301089142443885e+01 1.0000000000000000e+01 1.0326367188605460e+01 
418 419 2 1.0843766380276505e+00 -5.1778712712695985e+00 1.0000000000000000e+00 2.4433611136377028e+01 1.0000000000000000e+01 9.7117631156234072e+00 
237 238 2 1.0843766380276505e+00 -3.1027376282588053e+00 1.0000000000000000e+00 2.7949143794831141e+01 1.0000000000000000e+01 9.7569533489123632e+00 
262 263 2 1.0843766380276505e+00 -3.2373945994341984e+00 1.0000000000000000e+00 3.3121103571031320e+01 1.0000000000000000e+01 1.0558024915616645e+01 
789 790 2 1.0843766380276505e+00 -6.7490946749282532e+00 1.0000000000000000e+00 3.4486422316521809e-01 1.3000000000000000e+01 1.0082694140217553e+01 
595 596 2 1.0843766380276505e+00 -3.4742301741346138e+00 1.0000000000000000e+00 3.3004582370005737e+00 1.3000000000000000e+01 9.4624343077116091e+00 
556 557 2 1.0843766380276505e+00 -2.8725768533721832e+00 1.0000000000000000e+00 6.4638285892876244e+00 1.3000000000000000e+01 1.0240525215818227e+01 
613 614 2 1.0843766380276505e+00 -1.8938026088413586e+00 1.0000000000000000e+00 1.2398890126360667e+01 1.3000000000000000e+01 1.0641744285556278e+01 
757 758 2 1.0843766380276505e+00 4.5645545971496055e+00 1.0000000000000000e+00 1.6447596635062872e+01 1.3000000000000000e+01 1.0644910041598958e+01 
464 465 2 1.0843766380276505e+00 7.6937181111576614e+00 1.0000000000000000e+00 1.9532499714970470e+01 1.3000000000000000e+01 9.7977088454423491e+00 
1251 1252 2 1.0843766380276505e+00 -6.7490946749282532e+00 1.0000000000000000e+00 3.4486422316521809e-01 1.6000000000000000e+01 1.0082694140217553e+01 
1057 1058 2 1.0843766380276505e+00 -3.4742301741346138e+00 1.0000000000000000e+00 3.3004582370005737e+00 1.6000000000000000e+01 9.4624343077116091e+00 
1018 1019 2 1.0843766380276505e+00 -2.8725768533721832e+00 1.0000000000000000e+00 6.4638285892876244e+00 1.6000000000000000e+01 1.0240525215818227e+01 
1075 1076 2 1.0843766380276505e+00 -1.8938026088413373e+00 1.0000000000000000e+00 1.2398890126360667e+01 1.6000000000000000e+01 1.0641744285556278e+01 
1219 1220 2 1.0843766380276505e+00 4.5645545971496055e+00 1.0000000000000000e+00 1.6447596635062872e+01 1.6000000000000000e+01 1.0644910041598958e+01 
926 927 2 1.0843766380276505e+00 7.6937181111576614e+00 1.0000000000000000e+00 1.9532499714970470e+01 1.6000000000000000e+01 9.7977088454423491e+00 
1589 1590 2 1.0843766380276505e+00 -1.0118522644326688e+00 1.0000000000000000e+00 8.7095687831035971e+00 1.9000000000000000e+01 9.5254328937780350e+00 
1791 1792 2 1.0843766380265645e+00 -2.0071896741843348e-01 1.0000000000000000e+00 1.4171880626490145e+01 1.9000000000000000e+01 1.0460781630942428e+01 
1830 1831 2 1.0843766380276505e+00 5.6388666383370083e+00 1.0000000000000000e+00 2.0352522006391268e+01 1.9000000000000000e+01 1.0280959630575518e+01 
445 446 2 1.0843766380276505e+00 8.0153980868764378e+00 1.0000000000000000e+00 2.7085482542984294e+00 1.0000000000000000e+01 1.2085136125511468e+01 
243 244 2 1.0843766380276505e+00 9.8826763951287466e-01 1.0000000000000000e+00 1.3932153237179088e+01 1.0000000000000000e+01 1.0922890516754181e+01 
68 69 2 1.0843766380276505e+00 2.5778904664488742e+00 1.0000000000000000e+00 1.6313635046338995e+01 1.0000000000000000e+01 1.1818541245028255e+01 
8 9 2 1.0843766380276505e+00 3.1760595978022792e+00 1.0000000000000000e+00 1.9123721054081280e+01 1.0000000000000000e+01 1.1112888493306798e+01 
73 74 2 1.0843766380276505e+00 -3.1934989006971506e+00 1.0000000000000000e+00 2.6478733725869482e+01 1.0000000000000000e+01 1.1631331293676133e+01 
592 593 2 1.0843766380276505e+00 -1.9328917716143055e+00 1.0000000000000000e+00 9.4055720319109124e+00 1.3000000000000000e+01 1.1139932112540933e+01 
852 853 2 1.0843766380276505e+00 1.0783194180164760e+01 1.0000000000000000e+00 1.8253051915825164e+01 1.3000000000000000e+01 1.2135695898459574e+01 
743 744 2 1.0843766380276505e+00 -8.3134751139193401e+00 1.0000000000000000e+00 2.1503327077393777e+01 1.3000000000000000e+01 1.0835136245443108e+01 
630 631 2 1.0843766380276505e+00 9.5651340873908488e+00 1.0000000000000000e+00 2.7227588060647427e+01 1.3000000000000000e+01 1.1602290000313360e+01 
626 627 2 1.0843766380276505e+00 -5.1263893836268917e+00 1.0000000000000000e+00 3.2182864651722724e+01 1.3000000000000000e+01 1.2231568818755248e+01 
1054 1055 2 1.0843766380276505e+00 -1.9328917716143055e+00 1.0000000000000000e+00 9.4055720319109124e+00 1.6000000000000000e+01 1.1139932112540933e+01 
1314 1315 2 1.0843766380276505e+00 1.0783194180164760e+01 1.0000000000000000e+00 1.8253051915825164e+01 1.6000000000000000e+01 1.2135695898459574e+01 
1205 1206 2 1.0843766380276505e+00 -8.3134751139193401e+00 1.0000000000000000e+00 2.1503327077393777e+01 1.6000000000000000e+01 1.0835136245443108e+01 
1092 1093 2 1.0843766380276505e+00 9.5651340873908488e+00 1.0000000000000000e+00 2.7227588060647427e+01 1.6000000000000000e+01 1.1602290000313360e+01 
1088 1089 2 1.0843766380276505e+00 -5.1263893836268917e+00 1.0000000000000000e+00 3.2182864651722724e+01 1.6000000000000000e+01 1.2231568818755248e+01 
1499 1500 2 1.0843766380276505e+00 9.3765079981308936e+00 1.0000000000000000e+00 2.4026764533898808e+00 1.9000000000000000e+01 1.0864332430235441e+01 
1757 1758 2 1.0843766380276505e+00 -2.7089559238787793e+00 1.0000000000000000e+00 5.5610332058937395e+00 1.9000000000000000e+01 1.1345000449688456e+01 
1819 1820 2 1.0843766380276505e+00 1.1591593125529616e+00 1.0000000000000000e+00 1.6920257380966959e+01 1.9000000000000000e+01 1.1074249718748440e+01 
1695 1696 2 1.0843766380276505e+00 -6.4011792297880028e+00 1.0000000000000000e+00 2.4879650484267358e+01 1.9000000000000000e+01 1.1284975803532310e+01 
1600 1601 2 1.0843766380276505e+00 5.5945830709686781e+00 1.0000000000000000e+00 3.0871310295912895e+01 1.9000000000000000e+01 1.1729229450397231e+01 
236 237 2 1.0843766380276505e+00 -4.6135591209062552e+00 1.0000000000000000e+00 6.3386822062192993e-01 1.0000000000000000e+01 1.3300904386817569e+01 
431 432 2 1.0843766380276505e+00 6.9373769131204401e+00 1.0000000000000000e+00 4.9894280782647664e+00 1.0000000000000000e+01 1.2417238142745337e+01 
324 325 2 1.0843766380276505e+00 1.3448157092718986e+01 1.0000000000000000e+00 7.8980299744864162e+00 1.0000000000000000e+01 1.2658619741549046e+01 
256 257 2 1.0843766380276505e+00 3.0066854858965042e-01 1.0000000000000000e+00 1.0403695720865036e+01 1.0000000000000000e+01 1.3565101490289329e+01 
67 68 2 1.0843766380276505e+00 -2.3938757582363053e+00 1.0000000000000000e+00 2.3077960918101450e+01 1.0000000000000000e+01 1.3000212363119154e+01 
241 242 2 1.0843766380276505e+00 1.4646227262331735e+01 1.0000000000000000e+00 2.8877171836121772e+01 1.0000000000000000e+01 1.3056506442315882e+01 
112 113 2 1.0843766380276505e+00 5.4123777416353409e+00 1.0000000000000000e+00 3.1082692501474771e+01 1.0000000000000000e+01 1.2407446284580178e+01 
908 909 2 1.0843766380276505e+00 1.5416429314543389e+01 1.0000000000000000e+00 3.7273473290194823e+00 1.3000000000000000e+01 1.3100609122422187e+01 
656 657 2 1.0843766380276505e+00 -1.6213986739573514e+00 1.0000000000000000e+00 7.2409301420389376e+00 1.3000000000000000e+01 1.2678718186638687e+01 
707 708 2 1.0843766380276505e+00 5.5048212412574635e+00 1.0000000000000000e+00 1.0916133617578044e+01 1.3000000000000000e+01 1.3223836348764145e+01 