LAMMPS data file via write_data, version 30 Jul 2016, timestep = 50000000

3234 atoms
8 atom types

0.0000000000000000e+00 1.0000000000000000e+02 xlo xhi
0.0000000000000000e+00 4.0000000000000000e+01 ylo yhi
0.0000000000000000e+00 4.0000000000000000e+01 zlo zhi

Masses

1 3.896
2 5.36
3 20.064
4 8.378
5 8.378
6 8.378
7 8.378
8 8.378

Atoms # meso-molecular

215 216 2 1.0843766380276505e+00 1.0425799662314397e+00 1.0000000000000000e+00 2.4518592879923338e+00 1.0000000000000000e+01 9.1016834068238084e-01 
235 236 2 1.0843766492610707e+00 1.8748743350175014e+00 1.0000000000000000e+00 6.7367527659168482e+00 1.0000000000000000e+01 2.5935350084706943e-01 
414 415 2 1.0843766380276505e+00 -8.9149801650745850e+00 1.0000000000000000e+00 8.9363003887214507e+00 1.0000000000000000e+01 6.3718067902007258e-01 
254 255 2 1.0843766380276505e+00 6.1300678068045613e+00 1.0000000000000000e+00 1.1202708620526735e+01 1.0000000000000000e+01 1.1874974658166801e-01 
81 82 2 1.0843766380276505e+00 -5.9527263862660789e+00 1.0000000000000000e+00 1.5814861479268398e+01 1.0000000000000000e+01 6.4915481893676019e-01 
155 156 2 1.0843766380276505e+00 -4.3556112103301619e+00 1.0000000000000000e+00 2.0636411367101090e+01 1.0000000000000000e+01 2.8434734459648059e-02 
441 442 2 1.0843766380276505e+00 3.9836622406574653e+00 1.0000000000000000e+00 2.6857551396708022e+01 1.0000000000000000e+01 8.1879280060085913e-01 
460 461 2 1.0843766380276505e+00 2.5074100755281030e+00 1.0000000000000000e+00 3.2142007230419175e+01 1.0000000000000000e+01 1.0636107161362065e+00 
509 510 2 1.0843766380276505e+00 -1.1822894516816287e+01 1.0000000000000000e+00 3.7874322633806128e+00 1.3000000000000000e+01 6.8708227201287109e-01 
558 559 2 1.0843766380276505e+00 -2.7557098922956129e+00 1.0000000000000000e+00 2.3373097537311367e+01 1.3000000000000000e+01 1.2990288590755912e+00 
474 475 2 1.0843766380276505e+00 3.7006691973921120e+00 1.0000000000000000e+00 3.1713087794959872e+01 1.3000000000000000e+01 8.5937300073239087e-01 
971 972 2 1.0843766380276505e+00 -1.1822894516816287e+01 1.0000000000000000e+00 3.7874322633806128e+00 1.6000000000000000e+01 6.8708227201287109e-01 
1020 1021 2 1.0843766380276505e+00 -2.7557098922956129e+00 1.0000000000000000e+00 2.3373097537311367e+01 1.6000000000000000e+01 1.2990288590755912e+00 
936 937 2 1.0843766380276505e+00 3.7006691973921120e+00 1.0000000000000000e+00 3.1713087794959872e+01 1.6000000000000000e+01 8.5937300073239087e-01 
1487 1488 2 1.0843766380276505e+00 2.9057514867033296e+00 1.0000000000000000e+00 2.5244503430451539e+00 1.9000000000000000e+01 4.2454920417717379e-01 
1475 1476 2 1.0843766380276505e+00 -6.3055700014958074e+00 1.0000000000000000e+00 5.1788625173217726e+00 1.9000000000000000e+01 7.8554535799693248e-01 
1540 1541 2 1.0843766380276505e+00 -6.4897232101993847e+00 1.0000000000000000e+00 7.7020539325498980e+00 1.9000000000000000e+01 2.6245374194912463e-01 
1704 1705 2 1.0843766380276505e+00 -5.4192123245245920e+00 1.0000000000000000e+00 1.1255842616519642e+01 1.9000000000000000e+01 7.4349283677052824e-01 
1430 1431 2 1.0843766380276505e+00 -5.9999980305740355e+00 1.0000000000000000e+00 1.5175702543732145e+01 1.9000000000000000e+01 3.6960996308276811e-01 
1800 1801 2 1.0843766380276505e+00 -9.5919723452900882e+00 1.0000000000000000e+00 2.1810526324066529e+01 1.9000000000000000e+01 4.7988637892076597e-01 
1641 1642 2 1.0843772057930527e+00 6.3319485978167593e+00 1.0000000000000000e+00 2.4413229021993192e+01 1.9000000000000000e+01 1.2074318494642199e-01 
1537 1538 2 1.0843783545727446e+00 -5.2908500174942592e+00 1.0000000000000000e+00 2.6514817338608950e+01 1.9000000000000000e+01 1.2678664173303127e+00 
1406 1407 2 1.0843766380276505e+00 7.4580576678772452e+00 1.0000000000000000e+00 2.8932020413627175e+01 1.9000000000000000e+01 4.6879871701683895e-01 
186 187 2 1.0843766380276505e+00 -7.5969825169924405e+00 1.0000000000000000e+00 1.2863145774873564e+01 1.0000000000000000e+01 1.7755801070827735e+00 
153 154 2 1.0843766380276505e+00 -5.7103312017346450e+00 1.0000000000000000e+00 2.2867351951497707e+01 1.0000000000000000e+01 2.5286208169794633e+00 
419 420 2 1.0843766380276505e+00 -7.4790694812037195e+00 1.0000000000000000e+00 2.9450804444562344e+01 1.0000000000000000e+01 2.2374648933484114e+00 
859 860 2 1.0843767190785876e+00 -1.8530683432508577e+00 1.0000000000000000e+00 1.8061901338162138e+00 1.3000000000000000e+01 2.2694253663421713e+00 
802 803 2 1.0843766380276505e+00 -7.3101126304315489e+00 1.0000000000000000e+00 6.2491987418611474e+00 1.3000000000000000e+01 2.2713433186275109e+00 
717 718 2 1.0843766380276505e+00 9.1421418732591597e+00 1.0000000000000000e+00 1.0495301011411508e+01 1.3000000000000000e+01 2.1636222292505716e+00 
663 664 2 1.0843766380276505e+00 -8.6367462684361951e-01 1.0000000000000000e+00 1.4179037230015114e+01 1.3000000000000000e+01 2.9512020738279450e+00 
611 612 2 1.0843766380276505e+00 -9.3027940817595471e+00 1.0000000000000000e+00 1.8114076749684887e+01 1.3000000000000000e+01 1.6508958600510835e+00 
504 505 2 1.0843766451242129e+00 1.5255896704182700e+01 1.0000000000000000e+00 2.0962105081598207e+01 1.3000000000000000e+01 2.3503954692985056e+00 
641 642 2 1.0843766380276505e+00 -3.4747346800972156e+00 1.0000000000000000e+00 2.5578729800969974e+01 1.3000000000000000e+01 1.8895475285215579e+00 
1321 1322 2 1.0843767190785876e+00 -1.8530683432508577e+00 1.0000000000000000e+00 1.8061901338162138e+00 1.6000000000000000e+01 2.2694253663421713e+00 
1264 1265 2 1.0843766380276505e+00 -7.3101126304315489e+00 1.0000000000000000e+00 6.2491987418611474e+00 1.6000000000000000e+01 2.2713433186275109e+00 
1179 1180 2 1.0843766380276505e+00 9.1421418732591597e+00 1.0000000000000000e+00 1.0495301011411508e+01 1.6000000000000000e+01 2.1636222292505716e+00 
1125 1126 2 1.0843766380276505e+00 -8.6367462684361951e-01 1.0000000000000000e+00 1.4179037230015114e+01 1.6000000000000000e+01 2.9512020738279450e+00 
1073 1074 2 1.0843766380276505e+00 -9.3027940817595471e+00 1.0000000000000000e+00 1.8114076749684887e+01 1.6000000000000000e+01 1.6508958600510835e+00 
966 967 2 1.0843766451242129e+00 1.5255896704182700e+01 1.0000000000000000e+00 2.0962105081598207e+01 1.6000000000000000e+01 2.3503954692985056e+00 
1103 1104 2 1.0843766380276505e+00 -3.4747346800972156e+00 1.0000000000000000e+00 2.5578729800969974e+01 1.6000000000000000e+01 1.8895475285215579e+00 
1517 1518 2 1.0843766380276505e+00 3.2510559042098262e+00 1.0000000000000000e+00 1.3617887635239056e+01 1.9000000000000000e+01 2.4801600173024729e+00 
1453 1454 2 1.0843766380276505e+00 -1.5647270653055383e+00 1.0000000000000000e+00 1.7172844641843547e+01 1.9000000000000000e+01 1.9329249725364044e+00 
1511 1512 2 1.0843766380276505e+00 -6.9252425987209261e+00 1.0000000000000000e+00 2.0529714076162449e+01 1.9000000000000000e+01 2.6724214492756899e+00 
1444 1445 2 1.0843772057930527e+00 -5.7673491655409181e+00 1.0000000000000000e+00 2.3695992062398762e+01 1.9000000000000000e+01 2.1689059517107405e+00 
1843 1844 2 1.0843783545727446e+00 2.4713348738415544e+00 1.0000000000000000e+00 2.8039248518258511e+01 1.9000000000000000e+01 2.7990968479516374e+00 
1392 1393 2 1.0843766380276505e+00 4.2665400241084814e+00 1.0000000000000000e+00 3.2011178116132378e+01 1.9000000000000000e+01 2.2411691927272197e+00 
434 435 2 1.0843766380276505e+00 4.5713074275995655e+00 1.0000000000000000e+00 1.7944751424838707e+00 1.0000000000000000e+01 3.6611845839354324e+00 
316 317 2 1.0843766380276505e+00 -8.4002884379936571e+00 1.0000000000000000e+00 4.1895543094602283e+00 1.0000000000000000e+01 3.5020526296916494e+00 
341 342 2 1.0843766380276505e+00 -5.8182088239050511e+00 1.0000000000000000e+00 7.0827210222336285e+00 1.0000000000000000e+01 4.0730419604299559e+00 
51 52 2 1.0843766380276505e+00 1.4388217708926314e+00 1.0000000000000000e+00 9.5280870292996784e+00 1.0000000000000000e+01 3.2442379519605713e+00 
458 459 2 1.0843766380276505e+00 2.9780592560883976e+00 1.0000000000000000e+00 1.1861920580749995e+01 1.0000000000000000e+01 4.4014095071296566e+00 
447 448 2 1.0843766380276505e+00 5.2976903618405462e+00 1.0000000000000000e+00 1.4164917888953193e+01 1.0000000000000000e+01 4.1895841238299836e+00 
27 28 2 1.0843766380276505e+00 8.9048418597467247e+00 1.0000000000000000e+00 1.6269065709568132e+01 1.0000000000000000e+01 3.3763564386977434e+00 
293 294 2 1.0843766380276505e+00 -2.2298926235770127e+00 1.0000000000000000e+00 1.8828412095315556e+01 1.0000000000000000e+01 4.0729256347485849e+00 
218 219 2 1.0843766380276505e+00 6.2611630056555008e+00 1.0000000000000000e+00 2.6001246461147385e+01 1.0000000000000000e+01 3.9665421409858874e+00 
58 59 2 1.0843766380276505e+00 -2.0196273032451875e+00 1.0000000000000000e+00 3.0572800873429784e+01 1.0000000000000000e+01 4.4206305510609685e+00 
110 111 2 1.0843766380276505e+00 1.9515706546514828e+00 1.0000000000000000e+00 3.3078761172960526e+01 1.0000000000000000e+01 3.4395111816517585e+00 
541 542 2 1.0843767190785876e+00 -5.1162321212849795e+00 1.0000000000000000e+00 1.3403990821572240e+00 1.3000000000000000e+01 4.4006403691025966e+00 
809 810 2 1.0843766380276505e+00 7.3811619875682126e+00 1.0000000000000000e+00 3.5453606899592005e+00 1.3000000000000000e+01 3.7745292434697406e+00 
810 811 2 1.0843766380276505e+00 -6.2434239326675076e+00 1.0000000000000000e+00 8.3117177340390604e+00 1.3000000000000000e+01 4.0428251460942226e+00 
748 749 2 1.0843766380276505e+00 -1.8990533222624419e+00 1.0000000000000000e+00 1.8288584247156130e+01 1.3000000000000000e+01 4.1370604407689342e+00 
542 543 2 1.0843766451242129e+00 -5.8778549084901561e+00 1.0000000000000000e+00 2.1533907823669981e+01 1.3000000000000000e+01 4.4642748221790187e+00 
501 502 2 1.0843766380276505e+00 3.1159695726675674e+00 1.0000000000000000e+00 2.8191966281342427e+01 1.3000000000000000e+01 3.7638481880225552e+00 
772 773 2 1.0843766380276505e+00 -5.8718101476532070e+00 1.0000000000000000e+00 3.1539449860263829e+01 1.3000000000000000e+01 3.3091408310083894e+00 
1003 1004 2 1.0843767190785876e+00 -5.1162321212849813e+00 1.0000000000000000e+00 1.3403990821572240e+00 1.6000000000000000e+01 4.4006403691025966e+00 
1271 1272 2 1.0843766380276505e+00 7.3811619875682126e+00 1.0000000000000000e+00 3.5453606899592005e+00 1.6000000000000000e+01 3.7745292434697406e+00 
1272 1273 2 1.0843766380276505e+00 -6.2434239326675076e+00 1.0000000000000000e+00 8.3117177340390604e+00 1.6000000000000000e+01 4.0428251460942226e+00 
1210 1211 2 1.0843766380276505e+00 -1.8990533222624419e+00 1.0000000000000000e+00 1.8288584247156130e+01 1.6000000000000000e+01 4.1370604407689342e+00 
1004 1005 2 1.0843766451242129e+00 -5.8778549084901561e+00 1.0000000000000000e+00 2.1533907823669981e+01 1.6000000000000000e+01 4.4642748221790187e+00 
963 964 2 1.0843766380276505e+00 3.1159695726675674e+00 1.0000000000000000e+00 2.8191966281342427e+01 1.6000000000000000e+01 3.7638481880225552e+00 
1234 1235 2 1.0843766380276505e+00 -5.8718101476532070e+00 1.0000000000000000e+00 3.1539449860263829e+01 1.6000000000000000e+01 3.3091408310083894e+00 
1509 1510 2 1.0843766380276505e+00 -1.1677052231062092e+01 1.0000000000000000e+00 3.3875915841640656e+00 1.9000000000000000e+01 3.3775496987382545e+00 
1554 1555 2 1.0843766380276505e+00 1.0544755973231943e+01 1.0000000000000000e+00 5.9166365077510266e+00 1.9000000000000000e+01 3.8975891272306895e+00 
1571 1572 2 1.0843766380276505e+00 -7.6326771792410106e+00 1.0000000000000000e+00 1.0512756833748021e+01 1.9000000000000000e+01 3.1567341868853447e+00 
1736 1737 2 1.0843766380276505e+00 3.2389593045897245e+00 1.0000000000000000e+00 1.8111582053702460e+01 1.9000000000000000e+01 4.1853253577345040e+00 
1445 1446 2 1.0843766380276505e+00 -1.9408982631216660e+00 1.0000000000000000e+00 2.5412677732299937e+01 1.9000000000000000e+01 4.0652712629232610e+00 
338 339 2 1.0843766380276505e+00 -7.3497531841577892e+00 1.0000000000000000e+00 2.5229739277976321e+01 1.0000000000000000e+01 6.1324911736053851e+00 
368 369 2 1.0843766380276505e+00 5.9035743314187372e-01 1.0000000000000000e+00 2.8008875679550879e+01 1.0000000000000000e+01 5.1571680660590919e+00 
697 698 2 1.0843766380276505e+00 1.6020297112426354e+00 1.0000000000000000e+00 6.0217102155117077e+00 1.3000000000000000e+01 5.2143655625297356e+00 
718 719 2 1.0843766380276505e+00 -1.1873274984101670e-01 1.0000000000000000e+00 1.2738547504094095e+01 1.3000000000000000e+01 5.0182773625099903e+00 
597 598 2 1.0843766380276505e+00 -6.6497550268575392e+00 1.0000000000000000e+00 1.5116571957757014e+01 1.3000000000000000e+01 4.9454861839820241e+00 
559 560 2 1.0843766380276505e+00 -5.1196642152917393e-01 1.0000000000000000e+00 2.5249704826250834e+01 1.3000000000000000e+01 5.1988564633169378e+00 
832 833 2 1.0843766380276505e+00 -8.7323980032681980e-01 1.0000000000000000e+00 3.1570758780694145e+01 1.3000000000000000e+01 5.5211781403179927e+00 
1159 1160 2 1.0843766380276505e+00 1.6020297112426354e+00 1.0000000000000000e+00 6.0217102155117077e+00 1.6000000000000000e+01 5.2143655625297356e+00 
1180 1181 2 1.0843766380276505e+00 -1.1873274984101670e-01 1.0000000000000000e+00 1.2738547504094095e+01 1.6000000000000000e+01 5.0182773625099903e+00 
1059 1060 2 1.0843766380276505e+00 -6.6497550268575392e+00 1.0000000000000000e+00 1.5116571957757014e+01 1.6000000000000000e+01 4.9454861839820241e+00 
1021 1022 2 1.0843766380276505e+00 -5.1196642152917393e-01 1.0000000000000000e+00 2.5249704826250834e+01 1.6000000000000000e+01 5.1988564633169378e+00 
1294 1295 2 1.0843766380276505e+00 -8.7323980032681980e-01 1.0000000000000000e+00 3.1570758780694145e+01 1.6000000000000000e+01 5.5211781403179927e+00 
1793 1794 2 1.0843766380276505e+00 1.5793574932280303e+00 1.0000000000000000e+00 4.6270595584852015e-01 1.9000000000000000e+01 5.4476755184493619e+00 
1520 1521 2 1.0843766380276505e+00 1.6404446993794690e+00 1.0000000000000000e+00 8.4485636049353960e+00 1.9000000000000000e+01 4.7694701881099997e+00 
1403 1404 2 1.0843766380276505e+00 1.7814648764518225e+01 1.0000000000000000e+00 1.6229467188794398e+01 1.9000000000000000e+01 5.4153853886277714e+00 
1626 1627 2 1.0843773259770422e+00 -7.2429709382740999e+00 1.0000000000000000e+00 1.9420042576492261e+01 1.9000000000000000e+01 6.1475724762271140e+00 
1596 1597 2 1.0843766380276505e+00 5.7108805496088966e+00 1.0000000000000000e+00 2.2367827469296728e+01 1.9000000000000000e+01 5.3085809977975789e+00 
1489 1490 2 1.0843766380276505e+00 4.0048223963667944e+00 1.0000000000000000e+00 3.1675407643620218e+01 1.9000000000000000e+01 4.6245137781361088e+00 
445 446 2 1.0843766380276505e+00 8.0139985422852931e+00 1.0000000000000000e+00 3.8824145947733490e+00 1.0000000000000000e+01 6.3659444655512640e+00 
391 392 2 1.0843766380276505e+00 -4.5941894864267780e+00 1.0000000000000000e+00 8.1623225797347239e+00 1.0000000000000000e+01 6.1840844619490456e+00 
243 244 2 1.0843766380276505e+00 9.8730036700717483e-01 1.0000000000000000e+00 1.1196562175416517e+01 1.0000000000000000e+01 6.5268319752655302e+00 
250 251 2 1.0843766380276505e+00 9.6846272786023602e-01 1.0000000000000000e+00 1.5580201532262270e+01 1.0000000000000000e+01 7.6318884914563911e+00 
402 403 2 1.0843766380276505e+00 -5.8674909869116849e+00 1.0000000000000000e+00 1.7749290930410687e+01 1.0000000000000000e+01 7.1739259845854422e+00 
167 168 2 1.0843766380276505e+00 -5.0580076720849760e+00 1.0000000000000000e+00 1.9733333598108729e+01 1.0000000000000000e+01 6.2030470792211831e+00 
334 335 2 1.0843766380276505e+00 -2.2920374939943491e+00 1.0000000000000000e+00 2.8675899782774042e+01 1.0000000000000000e+01 7.6350984643423736e+00 
411 412 2 1.0843766380276505e+00 -3.7863602582412703e-01 1.0000000000000000e+00 3.1740141853142720e+01 1.0000000000000000e+01 7.1732841088589785e+00 
502 503 2 1.0843766380276505e+00 1.4254817269734357e+00 1.0000000000000000e+00 3.6115875761576564e+00 1.3000000000000000e+01 7.5150438918242246e+00 
494 495 2 1.0843766380276505e+00 4.6423470932055615e+00 1.0000000000000000e+00 1.0588934842046932e+01 1.3000000000000000e+01 7.5941902881657617e+00 
592 593 2 1.0843766380276505e+00 -1.9338424110631873e+00 1.0000000000000000e+00 1.3068240726035379e+01 1.3000000000000000e+01 7.2648514535467648e+00 
742 743 2 1.0843766380276505e+00 -2.5210962989807371e+00 1.0000000000000000e+00 1.9400478364781915e+01 1.3000000000000000e+01 7.4218355117716515e+00 
863 864 2 1.0843766380276505e+00 -4.8808578729339780e-01 1.0000000000000000e+00 2.2069135423745042e+01 1.3000000000000000e+01 7.4131028749259480e+00 
576 577 2 1.0843766380276505e+00 -7.0724020272439354e+00 1.0000000000000000e+00 3.0112757674012752e+01 1.3000000000000000e+01 7.2031842959436982e+00 
964 965 2 1.0843766380276505e+00 1.4254817269734357e+00 1.0000000000000000e+00 3.6115875761576564e+00 1.6000000000000000e+01 7.5150438918242246e+00 
956 957 2 1.0843766380276505e+00 4.6423470932055615e+00 1.0000000000000000e+00 1.0588934842046932e+01 1.6000000000000000e+01 7.5941902881657617e+00 
1054 1055 2 1.0843766380276505e+00 -1.9338424110631873e+00 1.0000000000000000e+00 1.3068240726035379e+01 1.6000000000000000e+01 7.2648514535467648e+00 
1204 1205 2 1.0843766380276505e+00 -2.5210962989807371e+00 1.0000000000000000e+00 1.9400478364781915e+01 1.6000000000000000e+01 7.4218355117716515e+00 
1325 1326 2 1.0843766380276505e+00 -4.8808578729339780e-01 1.0000000000000000e+00 2.2069135423745042e+01 1.6000000000000000e+01 7.4131028749259480e+00 
1038 1039 2 1.0843766380276505e+00 -7.0724020272439354e+00 1.0000000000000000e+00 3.0112757674012752e+01 1.6000000000000000e+01 7.2031842959436982e+00 
1619 1620 2 1.0843766380276505e+00 7.0983277471300479e+00 1.0000000000000000e+00 2.2310433364632445e+00 1.9000000000000000e+01 6.9725811454398317e+00 
1747 1748 2 1.0843766380276505e+00 -6.6738912130309025e+00 1.0000000000000000e+00 6.4439558429324446e+00 1.9000000000000000e+01 6.4527163016296578e+00 
1608 1609 2 1.0843766380276505e+00 9.2579652906506738e+00 1.0000000000000000e+00 1.0373942366511246e+01 1.9000000000000000e+01 6.1680190305915623e+00 
1798 1799 2 1.0843766380276505e+00 -7.7701795886435558e+00 1.0000000000000000e+00 2.3847693147513336e+01 1.9000000000000000e+01 7.1485071774352127e+00 
1734 1735 2 1.0843766380276505e+00 -3.4314575694258318e+00 1.0000000000000000e+00 2.6905510357785708e+01 1.9000000000000000e+01 6.5871839307034765e+00 
1555 1556 2 1.0843766380276505e+00 1.4927063327366866e+01 1.0000000000000000e+00 2.9870275194598594e+01 1.9000000000000000e+01 6.9246726137620129e+00 
400 401 2 1.0843768631378929e+00 -3.6225433194303398e+00 1.0000000000000000e+00 4.0185836991822660e-01 1.0000000000000000e+01 7.9487260643741822e+00 
219 220 2 1.0843766380276505e+00 3.2294922331945939e+00 1.0000000000000000e+00 5.9201768575597775e+00 1.0000000000000000e+01 7.7697149379929824e+00 
324 325 2 1.0843766380276505e+00 1.3447329259851148e+01 1.0000000000000000e+00 8.9058009234544500e+00 1.0000000000000000e+01 9.0134000620755312e+00 
222 223 2 1.0843766380276505e+00 8.8638735186923228e+00 1.0000000000000000e+00 1.9737653596340262e+01 1.0000000000000000e+01 8.4828766768764066e+00 
433 434 2 1.0843766380276505e+00 2.3443991276286447e+00 1.0000000000000000e+00 2.3251065064853190e+01 1.0000000000000000e+01 8.5340338007458314e+00 
237 238 2 1.0843766380276505e+00 -3.1045545436557775e+00 1.0000000000000000e+00 2.5807221919777231e+01 1.0000000000000000e+01 8.5832752569591211e+00 
780 781 2 1.0843766380276505e+00 -2.8397494388988989e+00 1.0000000000000000e+00 1.4996710642692532e+00 1.3000000000000000e+01 8.4069008828445266e+00 
532 533 2 1.0843766380276505e+00 -1.7205238085353067e+00 1.0000000000000000e+00 7.6709343169351731e+00 1.3000000000000000e+01 8.8774747923429409e+00 
711 712 2 1.0843766380276505e+00 3.6034908017023053e+00 1.0000000000000000e+00 1.4643723441910110e+01 1.3000000000000000e+01 8.8140128860819633e+00 
852 853 2 1.0843766380276505e+00 1.0782375795306063e+01 1.0000000000000000e+00 1.6902232062880493e+01 1.3000000000000000e+01 8.7263784701434144e+00 
678 679 2 1.0843766380276505e+00 -1.4404869960441467e+00 1.0000000000000000e+00 2.4445612556334098e+01 1.3000000000000000e+01 7.7629568455647622e+00 
657 658 2 1.0843766380276505e+00 -4.3618007538392192e+00 1.0000000000000000e+00 2.6874850771168230e+01 1.3000000000000000e+01 8.0833184980932735e+00 
622 623 2 1.0843766380276505e+00 -1.0816986857960494e+01 1.0000000000000000e+00 3.1982903511236895e+01 1.3000000000000000e+01 8.6567428975329026e+00 
1242 1243 2 1.0843766380276505e+00 -2.8397494388988989e+00 1.0000000000000000e+00 1.4996710642692532e+00 1.6000000000000000e+01 8.4069008828445266e+00 
994 995 2 1.0843766380276505e+00 -1.7205238085353067e+00 1.0000000000000000e+00 7.6709343169351731e+00 1.6000000000000000e+01 8.8774747923429409e+00 
1173 1174 2 1.0843766380276505e+00 3.6034908017023053e+00 1.0000000000000000e+00 1.4643723441910110e+01 1.6000000000000000e+01 8.8140128860819633e+00 
1314 1315 2 1.0843766380276505e+00 1.0782375795306063e+01 1.0000000000000000e+00 1.6902232062880493e+01 1.6000000000000000e+01 8.7263784701434144e+00 
1140 1141 2 1.0843766380276505e+00 -1.4404869960441467e+00 1.0000000000000000e+00 2.4445612556334098e+01 1.6000000000000000e+01 7.7629568455647622e+00 
1119 1120 2 1.0843766380276505e+00 -4.3618007538392192e+00 1.0000000000000000e+00 2.6874850771168230e+01 1.6000000000000000e+01 8.0833184980932735e+00 
1084 1085 2 1.0843766380276505e+00 -1.0816986857960494e+01 1.0000000000000000e+00 3.1982903511236895e+01 1.6000000000000000e+01 8.6567428975329026e+00 
1387 1388 2 1.0843766380276505e+00 1.5255940491432337e+01 1.0000000000000000e+00 2.4213800598280288e-01 1.9000000000000000e+01 8.7125124843462558e+00 
1757 1758 2 1.0843766380276505e+00 -2.7110730574335458e+00 1.0000000000000000e+00 4.7850506153638941e+00 1.9000000000000000e+01 8.8728722363234702e+00 
1503 1504 2 1.0843766380276505e+00 -1.0020744848104723e+01 1.0000000000000000e+00 8.4052615552387522e+00 1.9000000000000000e+01 8.9509666625250013e+00 
1581 1582 2 1.0843766380276505e+00 -5.8251838175702453e-01 1.0000000000000000e+00 1.1310776831154344e+01 1.9000000000000000e+01 8.2209929760301126e+00 
1773 1774 2 1.0843766380276505e+00 -3.3630853355638335e+00 1.0000000000000000e+00 1.4238740380241373e+01 1.9000000000000000e+01 7.8124626528183159e+00 
1507 1508 2 1.0843766380276505e+00 -1.2042721551286245e+01 1.0000000000000000e+00 1.7027497888449989e+01 1.9000000000000000e+01 7.7864089319372534e+00 
1730 1731 2 1.0843773259770422e+00 -6.2749826621963845e+00 1.0000000000000000e+00 1.9415143457518340e+01 1.9000000000000000e+01 8.3163708216626748e+00 
1600 1601 2 1.0843766380276505e+00 5.5929996717676698e+00 1.0000000000000000e+00 3.0330361311459146e+01 1.9000000000000000e+01 9.1679714827107777e+00 
1443 1444 2 1.0843766380276505e+00 -7.5884188589029600e-01 1.0000000000000000e+00 3.2854050196025739e+01 1.9000000000000000e+01 7.9265815250786078e+00 
236 237 2 1.0843768631378929e+00 -4.5985417361367560e+00 1.0000000000000000e+00 1.3905430221137316e+00 1.0000000000000000e+01 9.8874282020529769e+00 
148 149 2 1.0843766380276505e+00 -1.0104021394157254e+01 1.0000000000000000e+00 6.5216693757998954e+00 1.0000000000000000e+01 1.0237028589491400e+01 
256 257 2 1.0843766380276505e+00 3.0008523925374420e-01 1.0000000000000000e+00 1.4027279270035136e+01 1.0000000000000000e+01 1.0085021374378270e+01 
177 178 2 1.0843766380276505e+00 2.9509990700171187e+00 1.0000000000000000e+00 1.6756775730461495e+01 1.0000000000000000e+01 9.6049998294015175e+00 
330 331 2 1.0843766380276505e+00 -4.4247182440835591e+00 1.0000000000000000e+00 2.8128345672638719e+01 1.0000000000000000e+01 1.0605343136557542e+01 
4 5 2 1.0843766380276505e+00 5.5828127251042883e+00 1.0000000000000000e+00 3.1721049323340271e+01 1.0000000000000000e+01 9.8226054382996875e+00 
595 596 2 1.0843766380276505e+00 -3.4755328417698728e+00 1.0000000000000000e+00 2.9261171804196726e+00 1.3000000000000000e+01 1.0419385314663581e+01 
876 877 2 1.0843766380276505e+00 -8.4739482988564241e+00 1.0000000000000000e+00 9.7924663819139539e+00 1.3000000000000000e+01 1.0319240758201422e+01 
835 836 2 1.0843766380276505e+00 -7.0234639071289529e+00 1.0000000000000000e+00 1.1854164649107148e+01 1.3000000000000000e+01 9.5327365730022358e+00 
757 758 2 1.0843766380276505e+00 4.5634513059722828e+00 1.0000000000000000e+00 2.1278934836767068e+01 1.3000000000000000e+01 1.0362759408020530e+01 
566 567 2 1.0843766380276505e+00 -4.7722147654741303e+00 1.0000000000000000e+00 2.5379856877911433e+01 1.3000000000000000e+01 1.0652416158533176e+01 
630 631 2 1.0843766380276505e+00 9.5639644830564698e+00 1.0000000000000000e+00 2.8457176177579026e+01 1.3000000000000000e+01 9.8812899665232923e+00 
1057 1058 2 1.0843766380276505e+00 -3.4755328417698728e+00 1.0000000000000000e+00 2.9261171804196726e+00 1.6000000000000000e+01 1.0419385314663581e+01 
1338 1339 2 1.0843766380276505e+00 -8.4739482988564241e+00 1.0000000000000000e+00 9.7924663819139539e+00 1.6000000000000000e+01 1.0319240758201422e+01 
1297 1298 2 1.0843766380276505e+00 -7.0234639071289529e+00 1.0000000000000000e+00 1.1854164649107148e+01 1.6000000000000000e+01 9.5327365730022358e+00 
1219 1220 2 1.0843766380276505e+00 4.5634513059722828e+00 1.0000000000000000e+00 2.1278934836767068e+01 1.6000000000000000e+01 1.0362759408020530e+01 
1028 1029 2 1.0843766380276505e+00 -4.7722147654741303e+00 1.0000000000000000e+00 2.5379856877911433e+01 1.6000000000000000e+01 1.0652416158533176e+01 
1092 1093 2 1.0843766380276505e+00 9.5639644830564698e+00 1.0000000000000000e+00 2.8457176177579026e+01 1.6000000000000000e+01 9.8812899665232923e+00 
1819 1820 2 1.0843766380276505e+00 1.1584773684999012e+00 1.0000000000000000e+00 1.6295812183251130e+01 1.9000000000000000e+01 9.8779112512855978e+00 
1679 1680 2 1.0843766380276505e+00 -1.7739289025927008e-01 1.0000000000000000e+00 2.1952006531058277e+01 1.9000000000000000e+01 9.3583549404416662e+00 
1839 1840 2 1.0843766380276505e+00 4.2935631004022188e+00 1.0000000000000000e+00 2.6053025452966139e+01 1.9000000000000000e+01 1.0114970123713947e+01 
1440 1441 2 1.0843766380276505e+00 -8.3707517595344716e-01 1.0000000000000000e+00 3.2979246732085919e+01 1.9000000000000000e+01 1.0314270503097097e+01 
13 14 2 1.0843766380276505e+00 7.0341765021838185e+00 1.0000000000000000e+00 3.6741535971951484e+00 1.0000000000000000e+01 1.1064794681442711e+01 
117 118 2 1.0843766380276505e+00 -7.3706506167883017e+00 1.0000000000000000e+00 1.0370337576339617e+01 1.0000000000000000e+01 1.1987274182047962e+01 
68 69 2 1.0843766380276505e+00 2.5773161305929548e+00 1.0000000000000000e+00 1.6815306620028082e+01 1.0000000000000000e+01 1.1910829867305717e+01 
363 364 2 1.0843766380276505e+00 -5.5911253971792096e-01 1.0000000000000000e+00 2.4778192462431026e+01 1.0000000000000000e+01 1.1993903633360340e+01 
418 419 2 1.0843766380276505e+00 -5.1799167596202906e+00 1.0000000000000000e+00 3.0659455373395684e+01 1.0000000000000000e+01 1.2234802348369886e+01 
516 517 2 1.0843766380276505e+00 -1.7766626581727882e+00 1.0000000000000000e+00 4.6959284036500126e-01 1.3000000000000000e+01 1.1908009085603121e+01 
707 708 2 1.0843766380276505e+00 5.5038097415390705e+00 1.0000000000000000e+00 1.1751204719121029e+01 1.3000000000000000e+01 1.1840100395408239e+01 
779 780 2 1.0843766380276505e+00 -1.2727749938763708e+01 1.0000000000000000e+00 1.5145998736194201e+01 1.3000000000000000e+01 1.1683529053232576e+01 
480 481 2 1.0843766380276505e+00 9.5000230267687904e+00 1.0000000000000000e+00 3.0807172030638753e+01 1.3000000000000000e+01 1.1410020000026734e+01 
978 979 2 1.0843766380276505e+00 -1.7766626581727882e+00 1.0000000000000000e+00 4.6959284036500126e-01 1.6000000000000000e+01 1.1908009085603121e+01 
1169 1170 2 1.0843766380276505e+00 5.5038097415390705e+00 1.0000000000000000e+00 1.1751204719121029e+01 1.6000000000000000e+01 1.1840100395408239e+01 
1241 1242 2 1.0843766380276505e+00 -1.2727749938763708e+01 1.0000000000000000e+00 1.5145998736194201e+01 1.6000000000000000e+01 1.1683529053232576e+01 
942 943 2 1.0843766380276505e+00 9.5000230267687904e+00 1.0000000000000000e+00 3.0807172030638753e+01 1.6000000000000000e+01 1.1410020000026734e+01 
1510 1511 2 1.0843766907093229e+00 -9.5039536414739203e+00 1.0000000000000000e+00 6.5201403999066343e-01 1.9000000000000000e+01 1.1513187365659711e+01 
1610 1611 2 1.0843766907093229e+00 2.0811616144664855e+00 1.0000000000000000e+00 2.8067376635713170e+00 1.9000000000000000e+01 1.1868327379773810e+01 
1847 1848 2 1.0843766380276505e+00 1.4308571649760697e+01 1.0000000000000000e+00 7.1307741281079471e+00 1.9000000000000000e+01 1.1369626333654145e+01 
1589 1590 2 1.0843766380276505e+00 -1.0137533977227564e+00 1.0000000000000000e+00 1.1965578089790576e+01 1.9000000000000000e+01 1.1317764315639709e+01 
1405 1406 2 1.0843766380276505e+00 8.6040423158451844e+00 1.0000000000000000e+00 1.4157153250032248e+01 1.9000000000000000e+01 1.0903973946412943e+01 
1695 1696 2 1.0843766380276505e+00 -6.4019036905286910e+00 1.0000000000000000e+00 1.9326597503709809e+01 1.9000000000000000e+01 1.0864883767097178e+01 
1482 1483 2 1.0843766380276505e+00 3.9637873448438893e-01 1.0000000000000000e+00 2.7792430079005367e+01 1.9000000000000000e+01 1.1920936684539484e+01 
403 404 2 1.0843766380276505e+00 -2.4931742454981682e+00 1.0000000000000000e+00 2.6349375469826333e+00 1.0000000000000000e+01 1.3637927431119552e+01 
431 432 2 1.0843766380276505e+00 6.9360906425660982e+00 1.0000000000000000e+00 7.6670235954997352e+00 1.0000000000000000e+01 1.3084248914987272e+01 
159 160 2 1.0843766380276505e+00 -6.7691085413568270e+00 1.0000000000000000e+00 1.3652228276520864e+01 1.0000000000000000e+01 1.2728952074228522e+01 
8 9 2 1.0843766380276505e+00 3.1753122599644312e+00 1.0000000000000000e+00 1.9592071461930789e+01 1.0000000000000000e+01 1.3218021009464522e+01 
285 286 2 1.0843766380276505e+00 -2.9275426010305781e+00 1.0000000000000000e+00 2.2213639227638105e+01 1.0000000000000000e+01 1.2587641121105628e+01 
73 74 2 1.0843766380276505e+00 -3.1964525154667749e+00 1.0000000000000000e+00 2.7648488397619669e+01 1.0000000000000000e+01 1.3130449159765703e+01 