LAMMPS data file via write_data, version 30 Jul 2016, timestep = 50400000

180 atoms
2 atom types

0.0000000000000000e+00 2.0000000000000000e+01 xlo xhi
0.0000000000000000e+00 2.0000000000000000e+01 ylo yhi
0.0000000000000000e+00 2.0000000000000000e+01 zlo zhi

Masses

1 3.896
2 4.31

Atoms # meso-molecular

102 1 2 1.0279999999999945e+00 2.9026515166334576e+01 1.0000000000000000e+00 6.6343268661250461e+00 4.3778800057240943e+00 1.0695161216404180e+01 
137 1 2 1.0279999999999956e+00 -1.8942674310332580e+02 1.0000000000000000e+00 6.5120448718710522e+00 4.3899562515364492e+00 1.0998306492887139e+01 
90 1 2 1.0279999999999982e+00 2.3599031012968436e+02 1.0000000000000000e+00 6.5828135273321635e+00 5.1533399294645239e+00 1.1318403223189156e+01 
67 1 2 1.0280000000000298e+00 -3.3957528892913373e+01 1.0000000000000000e+00 1.3023488834336780e+01 9.7964641076674877e+00 6.0272884486254048e+00 
63 1 2 1.0279999999999985e+00 5.4248546936589404e-01 1.0000000000000000e+00 1.2847020078659815e+01 9.9802289568476681e+00 5.7246036769827873e+00 
171 1 2 1.0279999999999814e+00 1.3562747714537414e+02 1.0000000000000000e+00 7.3585593939055931e+00 3.8377921941987658e+00 1.0980866696948706e+01 
114 1 2 1.0279999999999963e+00 1.6606302236950316e+02 1.0000000000000000e+00 7.8508762350776662e+00 4.0129200958391396e+00 1.1367574175415642e+01 
122 1 2 1.0279999999999800e+00 1.0054870431624772e+02 1.0000000000000000e+00 7.0679968742291752e+00 3.8581700961561589e+00 1.0918536690794108e+01 
65 1 2 1.0279999999999936e+00 -2.3918289447223621e+01 1.0000000000000000e+00 7.8250525011730785e+00 4.3551370241217287e+00 1.0666589516727790e+01 
174 1 2 1.0279999999999927e+00 -2.6412591997596894e+02 1.0000000000000000e+00 6.8790186182004938e+00 4.0630709126246751e+00 1.0659199362066415e+01 
68 1 2 1.0279999999999947e+00 -1.3275980156060911e+02 1.0000000000000000e+00 6.8613059217095964e+00 4.1314087008618170e+00 1.0605274017697040e+01 
69 1 2 1.0279999999999929e+00 1.3945620484425194e+02 1.0000000000000000e+00 6.8593919217681423e+00 4.1783062644031528e+00 1.0570740545988338e+01 
138 1 2 1.0279999999999945e+00 -2.4574567923787100e+01 1.0000000000000000e+00 6.8423888835448983e+00 4.0964125136149541e+00 1.0653372900827398e+01 
17 1 2 1.0280000000000034e+00 -1.5837715642477281e+02 1.0000000000000000e+00 6.8250679764571593e+00 4.2491299578933628e+00 1.0552460898824236e+01 
25 1 2 1.0279999999999969e+00 -4.0848515294193120e+01 1.0000000000000000e+00 6.8255405964706695e+00 4.1761463583207243e+00 1.0597457958249231e+01 
39 1 2 1.0279999999999963e+00 7.8324559501922352e+01 1.0000000000000000e+00 6.8116090135734568e+00 4.1911184953219918e+00 1.0598122071395094e+01 
124 1 2 1.0279999999999916e+00 4.2431142692226572e+01 1.0000000000000000e+00 6.8134162599647530e+00 4.0223860099181774e+00 1.0785360242868709e+01 
112 1 2 1.0279999999999911e+00 -4.2589645789495492e+01 1.0000000000000000e+00 6.8079202620603070e+00 4.1902529619894278e+00 1.0601841370629597e+01 
106 1 2 1.0280000000000018e+00 -1.6103542680358890e+02 1.0000000000000000e+00 6.7967607091049338e+00 4.1906034908789813e+00 1.0611319547130330e+01 
173 1 2 1.0279999999999954e+00 -2.0333403173726498e+02 1.0000000000000000e+00 6.7917323622283261e+00 4.2197871607974378e+00 1.0595944398160373e+01 
147 1 2 1.0279999999999936e+00 -4.5838891310648862e+01 1.0000000000000000e+00 6.7885178555061847e+00 4.1269027534672027e+00 1.0674116150227324e+01 
97 1 2 1.0280000000000056e+00 1.8238424257495364e+01 1.0000000000000000e+00 6.7498718274004963e+00 4.3383887951697906e+00 1.0574750528324987e+01 
165 1 2 1.0280000000000209e+00 -4.7216068603048640e+01 1.0000000000000000e+00 6.9486482623738057e+00 4.8966097915815787e+00 1.0509796952007267e+01 
79 1 2 1.0280000000000347e+00 1.7873738875197125e+02 1.0000000000000000e+00 8.1470621303578241e+00 4.9318238290808534e+00 1.0941227661806355e+01 
136 1 2 1.0279999999999847e+00 -2.1938330460606284e+02 1.0000000000000000e+00 7.8704943160752672e+00 4.9623720149662374e+00 1.0676156235742422e+01 
150 1 2 1.0280000000000364e+00 1.0737732737266379e+02 1.0000000000000000e+00 8.4016589542915394e+00 5.4721258426853900e+00 1.2974192337461561e+01 
167 1 2 1.0280000000000364e+00 -1.0281423481677427e+02 1.0000000000000000e+00 8.4583154153544200e+00 5.4738954250730218e+00 1.2900432807237841e+01 
120 1 2 1.0280000000000353e+00 1.5833501505589052e+02 1.0000000000000000e+00 8.3774549686172737e+00 5.7378018686322116e+00 1.3203294149393727e+01 
70 1 2 1.0280000000000535e+00 -8.1180796901902198e+01 1.0000000000000000e+00 8.4526479803132535e+00 5.6688649910238755e+00 1.3074791885250162e+01 
56 1 2 1.0280000000000835e+00 -1.3613937761426449e+01 1.0000000000000000e+00 8.5026698393890889e+00 6.0462836248781704e+00 1.3295368189865332e+01 
13 1 2 1.0280000000001157e+00 -5.2257679525608879e+01 1.0000000000000000e+00 9.2805373735032770e+00 7.4590905437166901e+00 1.4479742782043967e+01 
10 1 2 1.0280000000000331e+00 5.4476034753652350e+01 1.0000000000000000e+00 8.5164757882431417e+00 6.6530770009132008e+00 1.3792015599683445e+01 
78 1 2 1.0280000000000871e+00 -4.5468747140422536e+01 1.0000000000000000e+00 8.3689761535549803e+00 6.3071540640038997e+00 1.3566378555245741e+01 
115 1 2 1.0280000000001353e+00 1.2255492140860119e+02 1.0000000000000000e+00 8.4976549678470885e+00 6.5810866013203420e+00 1.3719193944856357e+01 
58 1 2 1.0280000000000704e+00 3.6696505713365092e+01 1.0000000000000000e+00 8.5037936899162201e+00 6.6131995243575137e+00 1.3749542268643824e+01 
72 1 2 1.0279999999999292e+00 -8.3890764999770404e+00 1.0000000000000000e+00 8.5075289569894554e+00 6.6336768083821882e+00 1.3771124090150149e+01 
111 1 2 1.0279999999997445e+00 -1.6619054989516300e+01 1.0000000000000000e+00 8.2727960018441706e+00 6.4189336602219145e+00 1.3594571861794986e+01 
144 1 2 1.0280000000000387e+00 1.7816109270669656e+02 1.0000000000000000e+00 8.5541809042694759e+00 5.7815496982341008e+00 1.2239633887293770e+01 
12 1 2 1.0280000000001066e+00 1.5076468698571671e+02 1.0000000000000000e+00 8.4836410511027314e+00 7.0949572173130200e+00 1.4380572567148020e+01 
141 1 2 1.0279999999997897e+00 -4.4045169276700264e+01 1.0000000000000000e+00 8.4419792332251902e+00 7.0762941593310904e+00 1.3996389333801361e+01 
66 1 2 1.0279999999998375e+00 1.2920757830369578e+02 1.0000000000000000e+00 8.4259326386100657e+00 7.1187344974100961e+00 1.4134927055966200e+01 
135 1 2 1.0279999999998928e+00 2.0096859390932224e+02 1.0000000000000000e+00 8.5785617156984522e+00 7.2359919378597253e+00 1.3952110680389257e+01 
77 1 2 1.0279999999999907e+00 -1.0960848827393527e+02 1.0000000000000000e+00 8.8772601291170936e+00 7.2819551781714784e+00 1.4006960198229933e+01 
11 1 2 1.0279999999998770e+00 -7.0473624103302797e+01 1.0000000000000000e+00 8.4991983551827950e+00 7.2506387225052809e+00 1.4030705482638661e+01 
108 1 2 1.0280000000000844e+00 3.0713728726027534e+02 1.0000000000000000e+00 9.2713575713935690e+00 7.8974587381304389e+00 1.4406822848320159e+01 
20 1 2 1.0280000000000726e+00 -2.1032499793562852e+02 1.0000000000000000e+00 9.2109480934758583e+00 9.9900003205983428e+00 1.8963045798662339e+01 
53 1 2 1.0280000000000773e+00 -1.1051009517346606e+02 1.0000000000000000e+00 9.4327365093298052e+00 9.9762397572941186e+00 1.9314863476389739e+01 
21 1 2 1.0280000000000640e+00 3.8684628957949371e+01 1.0000000000000000e+00 8.8318210230617229e+00 7.6527797922730407e+00 1.5348370513014117e+01 
30 1 2 1.0280000000001359e+00 1.6314526869641136e+02 1.0000000000000000e+00 8.7738195351705812e+00 8.3540949920064413e+00 1.5906132167769332e+01 
34 1 2 1.0280000000001328e+00 1.0483289168169964e+02 1.0000000000000000e+00 8.5301358598730701e+00 7.8036429363636000e+00 1.5128099249214028e+01 
156 1 2 1.0280000000001313e+00 4.3403339555006244e+02 1.0000000000000000e+00 1.1080421816452166e+01 9.3069614697451648e+00 1.5455322271371614e+01 
159 1 2 1.0280000000000922e+00 -1.8423054390812132e+02 1.0000000000000000e+00 8.7738119453550780e+00 8.8547765930936535e+00 1.6219468535860841e+01 
57 1 2 1.0279999999999310e+00 -1.2568382981382192e+02 1.0000000000000000e+00 8.8393720768518662e+00 9.0739743429454194e+00 1.6594396310589023e+01 
22 1 2 1.0280000000001031e+00 1.3897802019908971e+02 1.0000000000000000e+00 1.0752795121300188e+01 9.2109623432309657e+00 1.5314334028714061e+01 
88 1 2 1.0280000000000848e+00 2.3528635416101855e+02 1.0000000000000000e+00 8.7550891782398921e+00 8.8144102623088472e+00 1.6124739470651026e+01 
176 1 2 1.0279999999999261e+00 -7.5222663251004263e+01 1.0000000000000000e+00 8.6225747372298205e+00 8.4414414073384467e+00 1.5399247579783861e+01 
172 1 2 1.0279999999999205e+00 6.1407313268665447e+01 1.0000000000000000e+00 8.8455950349731118e+00 9.1982068732867059e+00 1.6695619125074543e+01 
166 1 2 1.0279999999999194e+00 -2.3272146946800649e+02 1.0000000000000000e+00 8.8620320123914063e+00 9.3111685753352713e+00 1.6831715801784288e+01 
64 1 2 1.0279999999998957e+00 1.2746321920389411e+02 1.0000000000000000e+00 1.0742299713107114e+01 9.3373740675013579e+00 1.5277566461974720e+01 
179 1 2 1.0279999999999050e+00 -3.1163297318109318e+01 1.0000000000000000e+00 1.0469414472066774e+01 9.2251441899123616e+00 1.5199317757012858e+01 
36 1 2 1.0279999999999125e+00 -9.5213032966576094e+01 1.0000000000000000e+00 8.8774081023629883e+00 9.3866864148179090e+00 1.6946710069786832e+01 
47 1 2 1.0279999999999043e+00 -9.5124226425188851e+01 1.0000000000000000e+00 8.9288941017801449e+00 9.6768934084886258e+00 1.7359224183348033e+01 
116 1 2 1.0279999999999199e+00 7.5239881765521432e+01 1.0000000000000000e+00 8.9364499731287470e+00 9.7001160096261838e+00 1.7418661070680340e+01 
43 1 2 1.0279999999999070e+00 -5.9511621566834989e+01 1.0000000000000000e+00 1.0158738728428469e+01 9.7339002571471607e+00 1.5394065013208339e+01 
131 1 2 1.0280000000000047e+00 -1.5461770785996940e+01 1.0000000000000000e+00 1.0586126148082881e+01 1.1014316886479245e+01 1.8173443269780316e+00 
98 1 2 1.0280000000000493e+00 1.0934047537795394e+02 1.0000000000000000e+00 1.1852463909244607e+01 1.0722484851197807e+01 4.0912367283809328e+00 
24 1 2 1.0279999999999037e+00 -1.1465680614504230e+01 1.0000000000000000e+00 9.5411974183486716e+00 1.1030722172998281e+01 7.4397028264683897e-03 
37 1 2 1.0279999999999785e+00 8.3317937821130954e+00 1.0000000000000000e+00 9.3604114540581040e+00 1.0865077265553630e+01 3.6438355525825916e-02 
103 1 2 1.0279999999998777e+00 -1.5158060533530605e+02 1.0000000000000000e+00 1.0019511216273980e+01 1.1133686703680819e+01 8.6561122633984944e-01 
83 1 2 1.0279999999998719e+00 -8.8071861736716173e+00 1.0000000000000000e+00 1.0047757457746814e+01 1.1132414218146158e+01 9.1107179706538688e-01 
169 1 2 1.0279999999999743e+00 -1.7297113097321574e+02 1.0000000000000000e+00 9.5449497130576137e+00 1.0873158267950227e+01 5.9285496495345702e-01 
160 1 2 1.0279999999999516e+00 -3.9269176760785328e+01 1.0000000000000000e+00 1.0486558515468088e+01 1.1048852126529219e+01 1.6209870600707819e+00 
164 1 2 1.0279999999999581e+00 -8.5672299637487210e+00 1.0000000000000000e+00 1.0521220396973138e+01 1.1038798182872654e+01 1.6790439384985949e+00 
140 1 2 1.0279999999999669e+00 6.7055512359941343e+00 1.0000000000000000e+00 1.0527148198655958e+01 1.1038269548958000e+01 1.6819567890371743e+00 
19 1 2 1.0279999999999772e+00 -1.3285362645430899e+02 1.0000000000000000e+00 1.0530415108644185e+01 1.1036446776167351e+01 1.6924943437286295e+00 
32 1 2 1.0279999999999689e+00 -2.4125363728054259e+02 1.0000000000000000e+00 1.0540258538946389e+01 1.1033986542177860e+01 1.7064759597543226e+00 
157 1 2 1.0279999999999418e+00 -1.7960301411124470e+02 1.0000000000000000e+00 1.0618214071736183e+01 1.1026072508609653e+01 1.6805978267226003e+00 
87 1 2 1.0280000000000147e+00 1.2635244625263162e+01 1.0000000000000000e+00 1.0568644290889560e+01 1.1023216044600517e+01 1.7678918654997691e+00 
73 1 2 1.0280000000000471e+00 2.4071308277798643e+01 1.0000000000000000e+00 1.0736302904796936e+01 1.0959291763258211e+01 2.1332414002844717e+00 
51 1 2 1.0280000000000733e+00 -5.9446650270182161e+01 1.0000000000000000e+00 1.0888592183271797e+01 1.0869089544704117e+01 2.5717440635127691e+00 
153 1 2 1.0279999999999949e+00 5.6770846556334490e+01 1.0000000000000000e+00 1.0577608433138318e+01 1.0713008747643686e+01 2.2202055866099477e+00 
3 1 2 1.0280000000000062e+00 1.7727624805197627e+02 1.0000000000000000e+00 1.1720202728662269e+01 1.0792368982577523e+01 3.3210545301895467e+00 
94 1 2 1.0280000000000100e+00 -2.4053295485678913e+01 1.0000000000000000e+00 1.0778401510885971e+01 1.0483780230841269e+01 2.1387680026620184e+00 
143 1 2 1.0280000000000609e+00 9.1272642098954329e+00 1.0000000000000000e+00 1.2167364712206629e+01 1.0592046323150166e+01 4.4965737806940673e+00 
178 1 2 1.0280000000000398e+00 -1.8720925188272861e+02 1.0000000000000000e+00 1.1870996835387544e+01 1.0519200467747508e+01 4.3934604820968710e+00 
126 1 2 1.0280000000000269e+00 -9.7840923757353906e+00 1.0000000000000000e+00 1.1858136479108570e+01 1.0391463728934610e+01 3.3653670836897391e+00 
129 1 2 1.0280000000000351e+00 1.2801000573929892e+02 1.0000000000000000e+00 1.2033082192223493e+01 1.0387252841401466e+01 3.5916456872796299e+00 
14 1 2 1.0279999999999787e+00 -1.5278587011949520e+02 1.0000000000000000e+00 1.2113882984607722e+01 1.0394215966535096e+01 4.7104470049592599e+00 
162 1 2 1.0280000000000746e+00 -9.2134265250858732e+01 1.0000000000000000e+00 1.1455141832983253e+01 1.0266781575549063e+01 3.4263120031270620e+00 
4 1 2 1.0279999999999812e+00 -4.4799492938186994e+01 1.0000000000000000e+00 1.2265772831742744e+01 1.0307091916959807e+01 4.8951340228394198e+00 
29 1 2 1.0280000000000000e+00 1.1510250978490972e+00 1.0000000000000000e+00 1.1978716679993054e+01 1.0162540378513087e+01 4.4939988084445641e+00 
74 1 2 1.0279999999999929e+00 7.5501636271392812e+01 1.0000000000000000e+00 1.2636981846460419e+01 1.0148692793687182e+01 4.7137929427010921e+00 
7 1 2 1.0279999999999960e+00 -9.7729186630193766e+01 1.0000000000000000e+00 1.2151250624257154e+01 1.0099179854888922e+01 4.6607026311431321e+00 
6 1 2 1.0279999999999812e+00 3.3974056604889711e+02 1.0000000000000000e+00 1.2462704858863844e+01 1.0373584953946011e+01 4.9811843779528520e+00 
109 1 2 1.0279999999999838e+00 6.4233881699710039e+01 1.0000000000000000e+00 1.2622440297906614e+01 1.0330698962569034e+01 5.1035876185654017e+00 
5 1 2 1.0279999999999623e+00 3.7795704382711293e+01 1.0000000000000000e+00 1.2651390926402543e+01 1.0315321814309012e+01 5.1445271132229031e+00 
99 1 2 1.0279999999999676e+00 1.1958740055392154e+02 1.0000000000000000e+00 1.2661750206519333e+01 1.0309915798856778e+01 5.1595960413061954e+00 
148 1 2 1.0279999999999321e+00 -9.6269120303103378e+01 1.0000000000000000e+00 1.2708025511599207e+01 1.0287891458287600e+01 5.2260864182704942e+00 
142 1 2 1.0279999999999505e+00 -2.5051255887567601e+02 1.0000000000000000e+00 9.3770991127388523e+00 1.0308901893602711e+01 1.6977365727895691e+01 
158 1 2 1.0280000000001253e+00 -7.1286924052768740e+01 1.0000000000000000e+00 9.3778787840365254e+00 1.0916024722174992e+01 1.9768790612384223e+01 
55 1 2 1.0279999999999627e+00 6.8974137596450689e+01 1.0000000000000000e+00 1.3024172397421170e+01 1.0569059889252717e+01 1.5735676872692865e+01 
27 1 2 1.0279999999998075e+00 -5.2973287149544301e-01 1.0000000000000000e+00 1.1699336069086778e+01 1.0185029815529635e+01 1.5382257184001890e+01 
132 1 2 1.0279999999999521e+00 -8.4947543980506580e+01 1.0000000000000000e+00 1.3109992759012004e+01 1.0599781028029081e+01 1.5700124854953874e+01 
163 1 2 1.0280000000001186e+00 -1.1379226917625209e+02 1.0000000000000000e+00 9.1257303449546452e+00 1.0532345458068146e+01 1.9306667633774047e+01 
146 1 2 1.0280000000001990e+00 1.2960595274424088e+02 1.0000000000000000e+00 1.2674004908538496e+01 1.0615308778883687e+01 1.5776093475754983e+01 
91 1 2 1.0279999999998202e+00 -4.6019182420902169e+01 1.0000000000000000e+00 1.2600924046320047e+01 1.0680089641535716e+01 1.5319032923628471e+01 
119 1 2 1.0279999999999945e+00 5.9174841487211552e+01 1.0000000000000000e+00 1.3119904381251283e+01 1.0701605919489458e+01 1.5635830662193225e+01 
76 1 2 1.0280000000002685e+00 5.3494769773778131e+01 1.0000000000000000e+00 1.2698770136406200e+01 1.0507674805257210e+01 1.5850402603920973e+01 
31 1 2 1.0280000000000811e+00 -1.9793177377871399e+02 1.0000000000000000e+00 9.1397571493473464e+00 1.0565145270312209e+01 1.8916051676596496e+01 
177 1 2 1.0279999999998957e+00 -1.0900528297309845e+02 1.0000000000000000e+00 8.9913174315444504e+00 1.0009352402289890e+01 1.7877199415783561e+01 
155 1 2 1.0280000000001464e+00 7.4461640267405835e+00 1.0000000000000000e+00 1.2700584736416614e+01 1.0587656827321906e+01 1.5798038985835060e+01 
75 1 2 1.0279999999998868e+00 1.0755663020387581e+02 1.0000000000000000e+00 9.0076220240143403e+00 1.0092252716695892e+01 1.8000082579065452e+01 
123 1 2 1.0280000000000662e+00 3.4565634385831530e+01 1.0000000000000000e+00 9.1597657433118158e+00 1.0587547303115473e+01 1.8861385370860187e+01 
175 1 2 1.0280000000001750e+00 -1.6241485184126219e+02 1.0000000000000000e+00 1.2866196853763016e+01 1.0642477786503584e+01 1.5724261308379370e+01 
49 1 2 1.0280000000000367e+00 -5.8319223449127364e+01 1.0000000000000000e+00 9.1134120079134746e+00 1.0517603478619655e+01 1.8954688805436458e+01 
101 1 2 1.0280000000000380e+00 3.3872364302855054e+01 1.0000000000000000e+00 9.1402052699879768e+00 1.0548799079241192e+01 1.8806446250361994e+01 
110 1 2 1.0280000000001033e+00 1.1016981901397779e+02 1.0000000000000000e+00 9.1933085391467966e+00 1.0657354337350073e+01 1.9012116166001999e+01 
107 1 2 1.0280000000001603e+00 1.9967514864162432e+01 1.0000000000000000e+00 1.2850626658189491e+01 1.0486187410150134e+01 1.5813294574850792e+01 
33 1 2 1.0279999999999290e+00 -1.0439265738388812e+01 1.0000000000000000e+00 9.0557605928883707e+00 1.0317039647417788e+01 1.8533271739095710e+01 
8 1 2 1.0280000000001028e+00 -1.7882150252844419e+01 1.0000000000000000e+00 1.2586849962965315e+01 1.0676529362499277e+01 1.5678381590156116e+01 
50 1 2 1.0280000000001170e+00 -1.0165646888357145e+02 1.0000000000000000e+00 9.4786702993837793e+00 1.0965513185599091e+01 1.9583904866651128e+01 
130 1 2 1.0279999999999414e+00 -4.4256915203466292e+01 1.0000000000000000e+00 1.3065142379794926e+01 1.0611678831435338e+01 1.5705856983416956e+01 
61 1 2 1.0279999999999532e+00 1.6011275798138027e+02 1.0000000000000000e+00 1.3083041013788339e+01 1.0580311118714876e+01 1.5715391700920145e+01 
168 1 2 1.0279999999999532e+00 -3.2640743869280556e+02 1.0000000000000000e+00 1.3205072649086210e+01 1.0520545885897437e+01 1.5694368899967696e+01 
26 1 2 1.0279999999999534e+00 6.1930716331948162e+01 1.0000000000000000e+00 1.3214449172951513e+01 1.0566949043749442e+01 1.5681519699207168e+01 
121 1 2 1.0280000000000127e+00 -3.1762937905349791e+00 1.0000000000000000e+00 1.3880705465669859e+01 9.3001684896486285e+00 6.9609285515190091e+00 
16 1 2 1.0280000000000018e+00 -4.4642361177058930e+01 1.0000000000000000e+00 1.4208511905064990e+01 9.3132840562542842e+00 7.0132349015488735e+00 
9 1 2 1.0279999999999996e+00 4.3238621667596753e+01 1.0000000000000000e+00 1.3797038828259467e+01 9.4253708716759643e+00 6.4964691573194981e+00 
18 1 2 1.0279999999999974e+00 8.4919238906150866e+01 1.0000000000000000e+00 1.3628375228252622e+01 9.4605158783623260e+00 6.3782382306279741e+00 
100 1 2 1.0280000000000071e+00 1.6411239186687715e+02 1.0000000000000000e+00 1.4515419536349226e+01 9.2675268610717225e+00 7.9872762913343900e+00 
89 1 2 1.0279999999999885e+00 2.5641208752315038e+02 1.0000000000000000e+00 1.3449446263512424e+01 9.5211531113440042e+00 6.2485894211472566e+00 
149 1 2 1.0279999999999927e+00 1.2465429946396503e+02 1.0000000000000000e+00 1.4666802139006608e+01 9.2979230475274246e+00 7.7325107372320190e+00 
93 1 2 1.0279999999999949e+00 1.8021075378214550e+02 1.0000000000000000e+00 1.4741480385845414e+01 9.3015036727739755e+00 8.0925263113101202e+00 
81 1 2 1.0280000000000034e+00 2.0776587323567927e+01 1.0000000000000000e+00 1.4903012968460876e+01 9.3724680511526621e+00 8.1635905083141154e+00 
125 1 2 1.0279999999999936e+00 5.8131942368658642e+01 1.0000000000000000e+00 1.3582814955647462e+01 9.7273587306372047e+00 5.9740679114710389e+00 
80 1 2 1.0279999999999474e+00 -4.9837269006131407e+01 1.0000000000000000e+00 1.5353331607908485e+01 9.6427434616386023e+00 9.1800658943500952e+00 
113 1 2 1.0279999999999747e+00 -4.7503007095983179e+01 1.0000000000000000e+00 1.5627482323539709e+01 9.6675925796377875e+00 9.8140030059143264e+00 
161 1 2 1.0279999999999525e+00 1.3228419490336537e+02 1.0000000000000000e+00 1.5245779044901829e+01 9.5821340567983704e+00 8.9828967851997525e+00 
104 1 2 1.0280000000000047e+00 -4.8049414653140232e+01 1.0000000000000000e+00 1.4586386534616333e+01 9.6920243110126041e+00 7.1121209258153986e+00 
60 1 2 1.0279999999999472e+00 3.6745824667491462e+01 1.0000000000000000e+00 1.5313562598314881e+01 9.6103977105484457e+00 9.1849927490405676e+00 
62 1 2 1.0279999999999601e+00 4.5454208078677610e+01 1.0000000000000000e+00 1.5430223899517197e+01 9.6605162120989458e+00 9.3622345389639889e+00 
86 1 2 1.0279999999999403e+00 -1.5282251993776264e+01 1.0000000000000000e+00 1.5307811358265910e+01 9.6176210120155936e+00 9.1033032302673913e+00 
128 1 2 1.0279999999999792e+00 2.2917002412488674e+01 1.0000000000000000e+00 1.4888518254540591e+01 9.4484966383299955e+00 7.8501404807927884e+00 
46 1 2 1.0280000000000007e+00 1.3736131423651020e+01 1.0000000000000000e+00 1.4768239978862789e+01 9.3859102332946200e+00 8.4961168661804756e+00 
1 1 2 1.0280000000002838e+00 -5.4114412452230482e+01 1.0000000000000000e+00 1.5441441042726876e+01 9.8033028700115974e+00 9.2312667503940187e+00 
170 1 2 1.0279999999999465e+00 -1.6960210897913612e+02 1.0000000000000000e+00 1.5500308749040602e+01 9.6387671187888575e+00 9.6486869265840127e+00 
96 1 2 1.0279999999999831e+00 2.7958597284187169e+02 1.0000000000000000e+00 1.4891660288878517e+01 9.5794734917242206e+00 8.9412780114898958e+00 
15 1 2 1.0279999999999809e+00 -4.2334323003611772e+01 1.0000000000000000e+00 1.5066260747791826e+01 9.4762954968119413e+00 8.7519866449579968e+00 
52 1 2 1.0279999999999649e+00 -1.6300124337098288e+02 1.0000000000000000e+00 1.5396357590144069e+01 9.6660329001394008e+00 9.2485722925285447e+00 
139 1 2 1.0280000000000176e+00 -7.1904201011020064e+01 1.0000000000000000e+00 1.4170357254898484e+01 1.0162614278959150e+01 7.5245547239221713e+00 
152 1 2 1.0280000000000100e+00 -4.8593533902346245e+01 1.0000000000000000e+00 1.4668445887704904e+01 1.0066081687988266e+01 8.0299851822570822e+00 
41 1 2 1.0279999999999794e+00 -1.4363835800370271e+02 1.0000000000000000e+00 1.4553121641871746e+01 1.1089424772696907e+01 1.4421300002106932e+01 
23 1 2 1.0280000000000304e+00 -1.2192109745637947e+02 1.0000000000000000e+00 1.5724899334478081e+01 1.0988140703787172e+01 1.3566074817936643e+01 
28 1 2 1.0280000000000329e+00 -9.9791212186166653e+00 1.0000000000000000e+00 1.5591230326036081e+01 1.0874348727497480e+01 1.3849160695617286e+01 
59 1 2 1.0280000000000205e+00 1.4713251685570293e+02 1.0000000000000000e+00 1.5978371440752657e+01 1.0946421249155593e+01 1.3304471980574469e+01 
54 1 2 1.0280000000000067e+00 -5.4768519189102456e+00 1.0000000000000000e+00 1.5793558454733269e+01 1.0830501612796658e+01 1.3662383424865205e+01 
145 1 2 1.0280000000000189e+00 -4.3035495618951089e+01 1.0000000000000000e+00 1.6180322561973615e+01 1.0933194359048793e+01 1.2987466072598110e+01 
151 1 2 1.0279999999999803e+00 2.3327234203342819e+01 1.0000000000000000e+00 1.6192614828710674e+01 1.0930951282151222e+01 1.2966715440048823e+01 
82 1 2 1.0279999999999989e+00 1.0349190348787232e+02 1.0000000000000000e+00 1.6298865757417030e+01 1.0883113759397597e+01 1.2820499632507756e+01 
38 1 2 1.0280000000000289e+00 1.0906768172288274e+02 1.0000000000000000e+00 1.5916496641134195e+01 1.0764759941408526e+01 1.3558517333683426e+01 
154 1 2 1.0280000000000200e+00 1.1543365633264145e+01 1.0000000000000000e+00 1.6397601634610755e+01 1.0689545123222921e+01 1.2838193257248719e+01 
48 1 2 1.0280000000000078e+00 -8.1146224814716220e+01 1.0000000000000000e+00 1.6449014387194300e+01 1.0661227097873907e+01 1.2729098329951640e+01 
85 1 2 1.0280000000000367e+00 -6.8848067673834610e+00 1.0000000000000000e+00 1.6412765673348897e+01 1.0633163449476653e+01 1.2837125403196081e+01 
71 1 2 1.0280000000000049e+00 9.5633022941686470e+00 1.0000000000000000e+00 1.6488518769542615e+01 1.0615547651152035e+01 1.1504840869801123e+01 
105 1 2 1.0279999999999865e+00 8.0572095017689804e+01 1.0000000000000000e+00 1.6592821936652278e+01 1.0566823252784726e+01 1.2115283518090644e+01 
45 1 2 1.0280000000000062e+00 -1.7433320461844417e+01 1.0000000000000000e+00 1.6603270088077803e+01 1.0520969768613497e+01 1.1985983165231024e+01 
84 1 2 1.0280000000000633e+00 1.4162499740207832e+02 1.0000000000000000e+00 1.6609985816838844e+01 1.0477658182348049e+01 1.1995847925579326e+01 
133 1 2 1.0279999999999836e+00 -1.1220055841090368e+02 1.0000000000000000e+00 1.6597955021467342e+01 1.0401560142113540e+01 1.2218039325221630e+01 
44 1 2 1.0280000000001228e+00 -3.7660226078308128e+01 1.0000000000000000e+00 1.6612916764935072e+01 1.0411995448763154e+01 1.1905385818080365e+01 
118 1 2 1.0280000000001379e+00 -4.0371372173852336e+01 1.0000000000000000e+00 1.6612690072843730e+01 1.0381863502167073e+01 1.1891014798674362e+01 
180 1 2 1.0279999999999216e+00 -4.4632456749827455e+01 1.0000000000000000e+00 1.6330437297064947e+01 1.0317139055038563e+01 1.2935617635030191e+01 
134 1 2 1.0279999999998963e+00 1.3041016156890299e+01 1.0000000000000000e+00 1.6604769356964603e+01 1.0325768715986532e+01 1.2067261329884538e+01 
42 1 2 1.0279999999999370e+00 -2.1511642736378553e+02 1.0000000000000000e+00 1.6515909214945779e+01 1.0218342359352791e+01 1.1306768802978139e+01 
92 1 2 1.0279999999998870e+00 1.0365349948950134e+02 1.0000000000000000e+00 1.6337141432385586e+01 1.0049024957283185e+01 1.0846138146526476e+01 
127 1 2 1.0279999999999958e+00 1.5731505472365148e+01 1.0000000000000000e+00 1.5208177051422101e+01 1.0006833986283691e+01 1.3159217840558087e+01 
40 1 2 1.0279999999999019e+00 -1.2082269434511964e+01 1.0000000000000000e+00 1.4124862614380280e+01 1.0911040995939134e+01 1.5094385932273353e+01 
95 1 2 1.0279999999999314e+00 1.0021903542226974e+02 1.0000000000000000e+00 1.4119808796556020e+01 1.0546212693688528e+01 1.5251858013158508e+01 
117 1 2 1.0279999999999332e+00 1.8324764337592666e+02 1.0000000000000000e+00 1.3860834440907961e+01 1.0647157806727705e+01 1.5400060383809770e+01 
35 1 2 1.0279999999999427e+00 -1.1695126517433620e+02 1.0000000000000000e+00 1.3476481685059699e+01 1.0423960914472502e+01 1.5586158140360896e+01 
2 1 2 1.0279999999999385e+00 -3.2704114837013464e+01 1.0000000000000000e+00 1.3373658033121817e+01 1.0648192943051576e+01 1.5603977038385885e+01 

Velocities

102 -9.0272820540879771e-13 2.3350431388876953e-13 -2.3629366456807284e-13
137 -8.1616962502498428e-13 3.0742403179221883e-13 -4.6339400325805915e-13
90 -9.6278722109458447e-13 3.2886041378674761e-13 -1.0951834235366134e-13
67 7.0097322475016806e-13 -1.0807776664276511e-12 4.2153918787198742e-12
63 1.8208153493655965e-12 -4.6689216486953377e-13 3.8539699785352786e-12
171 -2.0815660895313845e-12 2.2160538572435873e-12 -4.3493212037057486e-13
114 -1.8443112891285831e-12 4.8618207045523307e-13 -6.8496795103126419e-13
122 -1.2307864564101336e-12 2.2140020797720648e-12 -3.5478388675980704e-13
65 -2.1545697081218126e-12 3.2665046703236859e-13 -1.2819746184793601e-13
174 -1.1739215108976306e-12 6.1458205022549594e-13 -2.2330033828369379e-13
68 -1.2282831355125139e-12 4.1827102691357040e-13 -2.5473507260036956e-13
69 -1.1565307645757576e-12 4.3846888295878345e-13 -1.0482512384734729e-13
138 -1.1929063278795241e-12 4.7583378903820341e-13 -2.9432425634986099e-13
17 -1.5883301163810684e-12 2.2416159077834644e-14 -7.6268252121290955e-13
25 -1.2881466729417022e-12 2.7760989188616110e-13 -3.7020977870064608e-13
39 -1.2425910974232565e-12 2.9672629396574633e-13 -3.2666239444678709e-13
124 -1.0018367075142278e-12 7.8017211339342686e-13 -3.4373443333529271e-13
112 -9.8903817701992593e-13 5.0506037663324024e-13 -3.1826324368944497e-14
106 -1.5097064800262911e-12 7.4731248266751917e-14 -6.5061994351730636e-13
173 -1.1752534133024399e-12 3.0978216256741659e-13 -2.6388601121792268e-13
147 -1.0801064569320174e-12 4.9204160993912275e-13 -2.6755912575839085e-13
97 -1.7243138142599414e-12 2.7536692010130177e-14 -8.6912064702821462e-13
165 -2.2431883388049894e-12 1.3443734745850094e-12 -2.3495697688202899e-12
79 2.7495311441186826e-12 9.9290080205020329e-13 -3.2092659908124062e-12
136 -2.6994325321688648e-12 -3.7457774354253167e-13 1.0518802271359240e-12
150 1.5502767222225925e-12 -1.1152635192902057e-12 2.6958152756582934e-12
167 1.9985017060919019e-12 -9.8959836823292994e-13 2.3340341431622321e-12
120 7.8118724072299500e-13 -3.1754476027297625e-13 2.9172600887849088e-12
70 2.3745654912173895e-12 -1.2291604359775543e-12 3.0929277254001815e-12
56 2.8804728242907594e-12 -6.1304582118229087e-13 3.2406721206913004e-12
13 6.1195192108172453e-12 -6.0669390869932859e-13 4.0506287047813800e-13
10 2.1286136210838663e-14 1.8900858648448710e-12 2.4677695452529173e-12
78 -2.1247297370684753e-13 2.3472025556236217e-13 3.9661861154602963e-12
115 6.3271120984271069e-13 7.2679078002603919e-13 3.5333334838176341e-12
58 2.0303945076794650e-13 1.4805738334477006e-12 2.8441170684598441e-12
72 -4.0579675775794247e-13 2.9267051482708635e-12 1.3192994534066120e-12
111 4.4099698486762941e-12 4.4390302888171923e-12 -3.2452928291706194e-12
144 3.3303270014272027e-12 2.1741929938897842e-12 -8.9823369635905620e-13
12 -3.2695265708096785e-12 7.5274878884268458e-13 4.9605863811383723e-12
141 5.4645415982264926e-12 -9.6543414042913240e-13 2.4389631379055796e-12
66 5.4842543798032547e-12 7.0395657613872913e-13 8.5739120163995668e-13
135 1.0515024542670208e-12 -9.5983015920723072e-13 4.4837817759486073e-12
77 -5.2480533792231296e-13 1.9099445727594622e-12 2.4627821299292038e-12