LAMMPS data file via write_data, version 30 Jul 2016, timestep = 50400000

180 atoms
2 atom types

0.0000000000000000e+00 2.0000000000000000e+01 xlo xhi
0.0000000000000000e+00 2.0000000000000000e+01 ylo yhi
0.0000000000000000e+00 2.0000000000000000e+01 zlo zhi

Masses

1 3.896
2 4.31

Atoms # meso-molecular

15 1 2 8.9131642251593612e-01 -5.0858498488106727e+02 1.0000000000000000e+00 6.2437263439784463e+00 8.0977560097989159e+00 4.4119101603852133e+00 
20 1 2 8.9131642251593612e-01 -5.9089618495740103e+02 1.0000000000000000e+00 6.2437263439784418e+00 8.0977560097989532e+00 4.4119101603852418e+00 
56 1 2 8.9131642251593612e-01 -6.0786301492743337e+02 1.0000000000000000e+00 6.2437263439784223e+00 8.0977560097989887e+00 4.4119101603852222e+00 
19 1 2 8.9131642251593612e-01 -6.0484746231821725e+02 1.0000000000000000e+00 6.2437263439784250e+00 8.0977560097989691e+00 4.4119101603852551e+00 
13 1 2 8.9131642251593612e-01 -6.0981370931266679e+02 1.0000000000000000e+00 6.2437263439784418e+00 8.0977560097989798e+00 4.4119101603852542e+00 
9 1 2 8.9131642251593612e-01 -3.5092320609210026e+02 1.0000000000000000e+00 6.2437263439783930e+00 8.0977560097989834e+00 4.4119101603851894e+00 
8 1 2 8.9131642251593612e-01 -3.7780893449770559e+02 1.0000000000000000e+00 6.2437263439784063e+00 8.0977560097989159e+00 4.4119101603852195e+00 
50 1 2 8.9131642251593612e-01 -5.7024199839991036e+02 1.0000000000000000e+00 6.2437263439784223e+00 8.0977560097989709e+00 4.4119101603852391e+00 
57 1 2 8.9131642251593612e-01 -5.1008777772286624e+02 1.0000000000000000e+00 6.2437263439784010e+00 8.0977560097988999e+00 4.4119101603852071e+00 
14 1 2 8.9131642251593612e-01 -5.1477916154778677e+02 1.0000000000000000e+00 6.2437263439784250e+00 8.0977560097989052e+00 4.4119101603852160e+00 
21 1 2 8.9131642251593612e-01 -5.6776648914895350e+02 1.0000000000000000e+00 6.2437263439784063e+00 8.0977560097988928e+00 4.4119101603852044e+00 
55 1 2 8.9131642251593612e-01 -5.3078680948834403e+02 1.0000000000000000e+00 6.2437263439784525e+00 8.0977560097989301e+00 4.4119101603852213e+00 
52 1 2 1.0279999769598478e+00 -3.1981460544846448e+02 1.0000000000000000e+00 5.4165294379185855e+00 5.1658771265040082e+00 1.5232083781981808e+01 
46 1 2 1.0279999769487707e+00 -3.8409037474295604e+02 1.0000000000000000e+00 5.4166344311067727e+00 5.1673993617488696e+00 1.5229055910847769e+01 
10 1 2 1.0279999769477648e+00 -4.0521607271158348e+02 1.0000000000000000e+00 5.4175455957844507e+00 5.1673756657772687e+00 1.5228651297387177e+01 
4 1 2 1.0279999769474404e+00 -5.1068539868590983e+02 1.0000000000000000e+00 5.4177443708376103e+00 5.1674329712317810e+00 1.5228446009124598e+01 
11 1 2 1.0279999769472838e+00 -4.1419334461337161e+02 1.0000000000000000e+00 5.4177861000347960e+00 5.1674752051751627e+00 1.5228345825451989e+01 
5 1 2 1.0279999769471884e+00 -4.7149430757968571e+02 1.0000000000000000e+00 5.4179143762305317e+00 5.1674910169248234e+00 1.5228254131006786e+01 
47 1 2 1.0279999770526935e+00 -4.6516460291787291e+02 1.0000000000000000e+00 5.4191933582329206e+00 5.1767966216650851e+00 1.5212080061648090e+01 
12 1 2 1.0280000229507358e+00 -4.9085362738664725e+02 1.0000000000000000e+00 5.4972818361998712e+00 5.4862413510226657e+00 1.5417124707378653e+01 
48 1 2 1.0280000230499171e+00 -4.1836027834939335e+02 1.0000000000000000e+00 5.5006747020144893e+00 5.4954204839934366e+00 1.5400081346697224e+01 
18 1 2 1.0280000230459332e+00 -6.6430587317896493e+02 1.0000000000000000e+00 5.5015029656176546e+00 5.4958940256004425e+00 1.5398753017617802e+01 
16 1 2 1.0280000230492734e+00 -3.6497326970706291e+02 1.0000000000000000e+00 5.5018371493434373e+00 5.4953255126025349e+00 1.5399694132560109e+01 
24 1 2 1.0280000230518869e+00 -6.1779473710898480e+02 1.0000000000000000e+00 5.5019219254473573e+00 5.4947650311974687e+00 1.5400728030768159e+01 
53 1 2 1.0280000230511490e+00 -4.1540352307853459e+02 1.0000000000000000e+00 5.5020512568297120e+00 5.4949000577646183e+00 1.5400406150202226e+01 
17 1 2 1.0280000230507662e+00 -4.1728943969887945e+02 1.0000000000000000e+00 5.5042342087627887e+00 5.4928438410779936e+00 1.5403157918589663e+01 
44 1 2 6.6848731688695207e-01 -5.0483689564305644e+02 1.0000000000000000e+00 1.0519039655693852e+01 6.2473805380172900e+00 2.2071974733393831e+00 
73 1 2 6.6848731688695207e-01 -3.5894109942204562e+02 1.0000000000000000e+00 1.0519039655693891e+01 6.2473805380172927e+00 2.2071974733393738e+00 
43 1 2 6.6848731688695207e-01 -4.4140204757397652e+02 1.0000000000000000e+00 1.0519039655693938e+01 6.2473805380172891e+00 2.2071974733393680e+00 
79 1 2 6.6848731688695207e-01 -4.1370580069825445e+02 1.0000000000000000e+00 1.0519039655693883e+01 6.2473805380173006e+00 2.2071974733393840e+00 
80 1 2 6.6848731688695207e-01 -4.2923125748035892e+02 1.0000000000000000e+00 1.0519039655693888e+01 6.2473805380172944e+00 2.2071974733393835e+00 
86 1 2 6.6848731688695207e-01 -4.8988325843808332e+02 1.0000000000000000e+00 1.0519039655693875e+01 6.2473805380172998e+00 2.2071974733393875e+00 
85 1 2 6.6848731688695207e-01 -5.0663154016289178e+02 1.0000000000000000e+00 1.0519039655693925e+01 6.2473805380172944e+00 2.2071974733393831e+00 
49 1 2 6.6848731688695207e-01 -5.4811184971376588e+02 1.0000000000000000e+00 1.0519039655693911e+01 6.2473805380172891e+00 2.2071974733393875e+00 
91 1 2 6.6848731688695207e-01 -3.8126021280180805e+02 1.0000000000000000e+00 1.0519039655693891e+01 6.2473805380172944e+00 2.2071974733393875e+00 
51 1 2 1.0280000057597292e+00 -3.5044389634184995e+02 1.0000000000000000e+00 1.1753819486557495e+01 4.2760929432833166e+00 1.2099912997539157e+01 
87 1 2 1.0280000057609775e+00 -4.2765353199313705e+02 1.0000000000000000e+00 1.1753820160146681e+01 4.2760959547064488e+00 1.2099909042199586e+01 
112 1 2 1.0279999532448691e+00 -5.6529496888978611e+02 1.0000000000000000e+00 1.2030988062770964e+01 3.9049939828260487e+00 1.2293278195840889e+01 
77 1 2 1.0279999682613241e+00 -4.7168563974904134e+02 1.0000000000000000e+00 1.1801479400834202e+01 4.0493731636682142e+00 1.2230064402460583e+01 
41 1 2 1.0280000049619651e+00 -4.4284935022996825e+02 1.0000000000000000e+00 1.1751011383172777e+01 4.2687328570883771e+00 1.2103808676678085e+01 
76 1 2 1.0280000050209828e+00 -4.0776693250587005e+02 1.0000000000000000e+00 1.1750920784525817e+01 4.2686037110784181e+00 1.2103693481242308e+01 
40 1 2 1.0280000053505591e+00 -4.7700087447957878e+02 1.0000000000000000e+00 1.1752510691751036e+01 4.2726887515489986e+00 1.2101831887309062e+01 
82 1 2 1.0280000057541980e+00 -4.2200682052974605e+02 1.0000000000000000e+00 1.1753783397915091e+01 4.2760079490660194e+00 1.2099949456998603e+01 
81 1 2 1.0280000057611252e+00 -4.2522339923178390e+02 1.0000000000000000e+00 1.1753810687281511e+01 4.2760756469295824e+00 1.2099914032674626e+01 
45 1 2 1.0280000057611165e+00 -4.9742107997981060e+02 1.0000000000000000e+00 1.1753813482156115e+01 4.2760816741876333e+00 1.2099912479349035e+01 
124 1 2 1.0280000057617837e+00 -3.8781533127450206e+02 1.0000000000000000e+00 1.1753822221739080e+01 4.2761014118627445e+00 1.2099905571441798e+01 
88 1 2 1.0280000057602476e+00 -4.3210272732792026e+02 1.0000000000000000e+00 1.1753819044151012e+01 4.2760926206772192e+00 1.2099911793330833e+01 
123 1 2 1.0280000057621499e+00 -3.9554831217382053e+02 1.0000000000000000e+00 1.1753822065463504e+01 4.2761015319631088e+00 1.2099904608340017e+01 
2 1 2 1.0280000171828005e+00 -3.8940452798762425e+02 1.0000000000000000e+00 9.3214334497117886e+00 1.6354068922219291e+01 6.6006116422217431e+00 
3 1 2 1.0280000171742381e+00 -3.5160509023864961e+02 1.0000000000000000e+00 9.3214673103885399e+00 1.6354050648045671e+01 6.6007047385644331e+00 
38 1 2 1.0280000171142307e+00 -3.9924194231150886e+02 1.0000000000000000e+00 9.3217091717852334e+00 1.6353806552607644e+01 6.6012280341373986e+00 
69 1 2 1.0279998716639354e+00 -5.3752134652071516e+02 1.0000000000000000e+00 8.0122412635884590e+00 1.7409362629367966e+01 5.4881652782250114e+00 
63 1 2 1.0279998830345398e+00 -4.9913617189399650e+02 1.0000000000000000e+00 8.0203699427474913e+00 1.7440093930351996e+01 5.4887345914086412e+00 
34 1 2 1.0279998777097155e+00 -6.2037308213653989e+02 1.0000000000000000e+00 8.0024403640457358e+00 1.7414277242404797e+01 5.5048312916141997e+00 
33 1 2 1.0279998782789110e+00 -5.9579379819153030e+02 1.0000000000000000e+00 7.9987703064215223e+00 1.7411772204707628e+01 5.5098610040964298e+00 
31 1 2 1.0280000179702433e+00 -4.7513652238693385e+02 1.0000000000000000e+00 8.2008658805794266e+00 1.7634156557637983e+01 5.4792916794465016e+00 
61 1 2 1.0280000178796012e+00 -4.1121531030748156e+02 1.0000000000000000e+00 8.2007455071301081e+00 1.7634076855297909e+01 5.4792583566128492e+00 
26 1 2 1.0280000180809756e+00 -4.2832687025120111e+02 1.0000000000000000e+00 8.2007368008756742e+00 1.7634271782390442e+01 5.4795146731278219e+00 
25 1 2 1.0280000180433737e+00 -4.8055543791388232e+02 1.0000000000000000e+00 8.2008066927925434e+00 1.7634231007233090e+01 5.4794217580477946e+00 
62 1 2 1.0280000187875604e+00 -4.7155736858307881e+02 1.0000000000000000e+00 8.2005539040152762e+00 1.7634964288162188e+01 5.4805172214929350e+00 
32 1 2 1.0280000199832326e+00 -6.1017350935023467e+02 1.0000000000000000e+00 8.2017695319767885e+00 1.7636037024450513e+01 5.4812122262438310e+00 
27 1 2 1.0279999229551426e+00 -6.7607726204823973e+02 1.0000000000000000e+00 8.0047278231174328e+00 1.7490484337699748e+01 5.5487414409638172e+00 
68 1 2 1.0280001309752300e+00 -5.5670028376217022e+02 1.0000000000000000e+00 8.2628210305621170e+00 1.7727425702946540e+01 5.6667219385153231e+00 
135 1 2 1.0280001704764408e+00 -4.5495084032622361e+02 1.0000000000000000e+00 9.3236414167687993e+00 1.4120052411176905e+01 8.1371833143638828e+00 
129 1 2 1.0280001690022116e+00 -3.9462643141124533e+02 1.0000000000000000e+00 9.2896700321601919e+00 1.4153687740950888e+01 8.1322554014486848e+00 
100 1 2 1.0280001705318460e+00 -5.4477252213077441e+02 1.0000000000000000e+00 9.3592504504056269e+00 1.4089289461467221e+01 8.1467594207751297e+00 
93 1 2 1.0280001688286597e+00 -4.1264873668390578e+02 1.0000000000000000e+00 9.2922166000507413e+00 1.4151531454154528e+01 8.1351605286464110e+00 
136 1 2 1.0280001695487446e+00 -4.5468798877837042e+02 1.0000000000000000e+00 9.3089432844250766e+00 1.4134778094630349e+01 8.1383819767008081e+00 
130 1 2 1.0280001675140802e+00 -3.3850371833656004e+02 1.0000000000000000e+00 9.2846096275492229e+00 1.4160916706334463e+01 8.1406651850434439e+00 
94 1 2 1.0280001662775737e+00 -3.1378447613852893e+02 1.0000000000000000e+00 9.2821447466904825e+00 1.4165358503462841e+01 8.1482545795070074e+00 
39 1 2 1.0280000053288605e+00 -4.0239109944397364e+02 1.0000000000000000e+00 9.3621180192534457e+00 1.6321228189197903e+01 6.7069132651390655e+00 
99 1 2 1.0279999934603026e+00 -4.4278729301457321e+02 1.0000000000000000e+00 1.0294799673703052e+01 1.4087694655206649e+01 8.3428597245311078e+00 
142 1 2 1.0279999190314311e+00 -5.3996801390232849e+02 1.0000000000000000e+00 1.0467725725589544e+01 1.4308354820311642e+01 8.3844952869637126e+00 
141 1 2 1.0279998941815929e+00 -5.5277450274605235e+02 1.0000000000000000e+00 1.0509486120173587e+01 1.4402512786932196e+01 8.3929144057865948e+00 
104 1 2 1.0279998244513415e+00 -6.5426168284614062e+02 1.0000000000000000e+00 1.0531976966578469e+01 1.5055043347922698e+01 8.2469223721040414e+00 
70 1 2 1.0279998243939050e+00 -4.9713847158800195e+02 1.0000000000000000e+00 1.0533015981966923e+01 1.5051491381691896e+01 8.2486634557946843e+00 
75 1 2 1.0279998241727093e+00 -4.7455441191241721e+02 1.0000000000000000e+00 1.0538184678782315e+01 1.5033148113708664e+01 8.2574352327093123e+00 
105 1 2 1.0279998240772550e+00 -5.5745906732280957e+02 1.0000000000000000e+00 1.0542871015586355e+01 1.5015406424074092e+01 8.2655768063821906e+00 
106 1 2 1.0279998240831816e+00 -5.4913418834901211e+02 1.0000000000000000e+00 1.0546539335395284e+01 1.5000624859600562e+01 8.2721156003796157e+00 
28 1 2 1.0279999999990379e+00 -5.9838458769362296e+02 1.0000000000000000e+00 9.5430527683531743e+00 1.1186272923948094e+01 1.5051648683283432e+01 
64 1 2 1.0279999999985951e+00 -4.5998778845645006e+02 1.0000000000000000e+00 9.5430509995423201e+00 1.1186272134873239e+01 1.5051645921981699e+01 
22 1 2 1.0280000000001559e+00 -5.3540597190776475e+02 1.0000000000000000e+00 9.5430465949751486e+00 1.1186271020797021e+01 1.5051622684421224e+01 
58 1 2 1.0279999999993961e+00 -4.3057685803047957e+02 1.0000000000000000e+00 9.5430484881132944e+00 1.1186271338240203e+01 1.5051635773608394e+01 
23 1 2 1.0279999999986795e+00 -4.7614023581993001e+02 1.0000000000000000e+00 9.5430408991584148e+00 1.1186269733618323e+01 1.5051589728823732e+01 
59 1 2 1.0279999999986669e+00 -4.0883961861282444e+02 1.0000000000000000e+00 9.5430432366438271e+00 1.1186270122404743e+01 1.5051605925190321e+01 
95 1 2 1.0280000000008622e+00 -3.5650553327592303e+02 1.0000000000000000e+00 9.5422197290296324e+00 1.1185894418415961e+01 1.5050531937776308e+01 
96 1 2 1.0279999999997651e+00 -4.8890851650837408e+02 1.0000000000000000e+00 9.5757127411780409e+00 1.1205164370671891e+01 1.5088579948198966e+01 
60 1 2 1.0280000000008143e+00 -4.5537313638688198e+02 1.0000000000000000e+00 9.5424035985505515e+00 1.1186008636989651e+01 1.5050211231229088e+01 
90 1 2 1.0280000000004537e+00 -3.5508794183359140e+02 1.0000000000000000e+00 9.5425235990115151e+00 1.1186059980645707e+01 1.5050422700389767e+01 
89 1 2 1.0279999999995355e+00 -3.6183663458405829e+02 1.0000000000000000e+00 9.5426339847981279e+00 1.1186110277062408e+01 1.5050563687178704e+01 
54 1 2 1.0280000000006191e+00 -4.5599594119388451e+02 1.0000000000000000e+00 9.5427316609306647e+00 1.1186154703607635e+01 1.5050691244271416e+01 
102 1 2 1.0280000000016867e+00 -4.9414978329609585e+02 1.0000000000000000e+00 9.3281169972538773e+00 1.2548725403884333e+01 1.5474719715083168e+01 
101 1 2 1.0280000000002498e+00 -4.3862544490854009e+02 1.0000000000000000e+00 9.2064830695346647e+00 1.2795811500810265e+01 1.5424775835874351e+01 
66 1 2 1.0280000000015583e+00 -5.3176794090249564e+02 1.0000000000000000e+00 7.2477641798178070e+00 1.3633461229754085e+01 1.4533154199169354e+01 
65 1 2 1.0280000000010074e+00 -3.9817385542251787e+02 1.0000000000000000e+00 7.2258796106275183e+00 1.3717759451837876e+01 1.4549968107164862e+01 
29 1 2 1.0279999999994960e+00 -4.7460765769476802e+02 1.0000000000000000e+00 7.3430006726091737e+00 1.4264980513955988e+01 1.4841592907858750e+01 
35 1 2 1.0279999999994960e+00 -5.2200956417596228e+02 1.0000000000000000e+00 7.3430006726091737e+00 1.4264980513955988e+01 1.4841592907858750e+01 
30 1 2 1.0279999999994960e+00 -6.0495349970835116e+02 1.0000000000000000e+00 7.3430006726091737e+00 1.4264980513955988e+01 1.4841592907858750e+01 
71 1 2 1.0279999999994960e+00 -5.3862443072586836e+02 1.0000000000000000e+00 7.3430006726091737e+00 1.4264980513955988e+01 1.4841592907858750e+01 
72 1 2 1.0279999999994960e+00 -5.2925819725648273e+02 1.0000000000000000e+00 7.3430006726091737e+00 1.4264980513955988e+01 1.4841592907858750e+01 
42 1 2 1.0279999999994960e+00 -5.9378901734425767e+02 1.0000000000000000e+00 7.3430006726091737e+00 1.4264980513955988e+01 1.4841592907858750e+01 
108 1 2 1.0279999999994960e+00 -4.6435630598059129e+02 1.0000000000000000e+00 7.3430006726091737e+00 1.4264980513955988e+01 1.4841592907858750e+01 
36 1 2 1.0279999999994960e+00 -6.3014151053390344e+02 1.0000000000000000e+00 7.3430006726091737e+00 1.4264980513955988e+01 1.4841592907858750e+01 
107 1 2 1.0279999999994960e+00 -4.6339950679106482e+02 1.0000000000000000e+00 7.3430006726091737e+00 1.4264980513955988e+01 1.4841592907858750e+01 
143 1 2 1.0279999999994960e+00 -3.4292982243853925e+02 1.0000000000000000e+00 7.3430006726091737e+00 1.4264980513955988e+01 1.4841592907858750e+01 
6 1 2 1.0279999999994960e+00 -5.9610498838377953e+02 1.0000000000000000e+00 7.3430006726091737e+00 1.4264980513955988e+01 1.4841592907858750e+01 
7 1 2 2.9710547417197863e-01 -5.9167914598556092e+02 1.0000000000000000e+00 6.8713899092796913e+00 1.9953121298119566e+01 1.9801871033965554e+01 
67 1 2 2.9710547417197863e-01 -4.2461372378046565e+02 1.0000000000000000e+00 6.8713899092796700e+00 1.9953121298119651e+01 1.9801871033965639e+01 
37 1 2 2.9710547417197863e-01 -5.0902271036386264e+02 1.0000000000000000e+00 6.8713899092796700e+00 1.9953121298119651e+01 1.9801871033965639e+01 
1 1 2 2.9710547417197863e-01 -6.0107911913845044e+02 1.0000000000000000e+00 6.8713899092796913e+00 1.9953121298119566e+01 1.9801871033965554e+01 
115 1 2 1.0280000000000171e+00 -4.9569650594523409e+02 1.0000000000000000e+00 1.5857909231886062e+01 4.4428203635183294e+00 3.3146565875709557e+00 
121 1 2 1.0280000000000125e+00 -4.2898192232618260e+02 1.0000000000000000e+00 1.5854687062333166e+01 4.4492289309264175e+00 3.3207966216452331e+00 
157 1 2 1.0279999999999883e+00 -5.2788637997143428e+02 1.0000000000000000e+00 1.5864285398480259e+01 4.4489600191578553e+00 3.3206596077650499e+00 
151 1 2 1.0280000000000100e+00 -6.1409581733032974e+02 1.0000000000000000e+00 1.5898560668664844e+01 4.3660519719279582e+00 3.2525234957497777e+00 
109 1 2 1.0280000000000000e+00 -3.3529721274701234e+02 1.0000000000000000e+00 1.5651101440991953e+01 3.1648985757045058e+00 3.5409411882423947e+00 
110 1 2 1.0280000000000162e+00 -5.4010146757609857e+02 1.0000000000000000e+00 1.5572496281438262e+01 3.1116146895844397e+00 3.7393029353711800e+00 
111 1 2 1.0279999999999814e+00 -6.4912552851389478e+02 1.0000000000000000e+00 1.5569475572719584e+01 3.1395198734433900e+00 4.1626356879946353e+00 
146 1 2 1.0280000000000022e+00 -5.8173133261158500e+02 1.0000000000000000e+00 1.5738610684670796e+01 3.0604975805107109e+00 3.9930573957858462e+00 
74 1 2 1.0279999999999923e+00 -5.4647619647586623e+02 1.0000000000000000e+00 1.5413417047235841e+01 3.1709665155799547e+00 3.9616449436616454e+00 
147 1 2 1.0280000000000007e+00 -5.9353695691130213e+02 1.0000000000000000e+00 1.5853416900593292e+01 3.1410740116770079e+00 4.2637149947028208e+00 
122 1 2 1.0279999999999909e+00 -4.4639114083491995e+02 1.0000000000000000e+00 1.5839466299603183e+01 4.4630398569792131e+00 3.3347541577545243e+00 
117 1 2 1.0280000000000196e+00 -5.2787794712140408e+02 1.0000000000000000e+00 1.5485855037243434e+01 3.4463901740434606e+00 4.4831856957307581e+00 
116 1 2 1.0280000000000056e+00 -6.3790908309260885e+02 1.0000000000000000e+00 1.5697666565061896e+01 3.4398758445556856e+00 4.5606619634273411e+00 
152 1 2 1.0280000000000065e+00 -6.0827201335975224e+02 1.0000000000000000e+00 1.6309786541449544e+01 4.2916720675580882e+00 4.3634601994439297e+00 
153 1 2 1.0279999999999960e+00 -4.4323184643208947e+02 1.0000000000000000e+00 1.6213050693754884e+01 4.4742040845558178e+00 4.2523754457762157e+00 
158 1 2 1.0279999999999976e+00 -3.7664791073131767e+02 1.0000000000000000e+00 1.6190084744270294e+01 4.5614840523331184e+00 4.1042042117057873e+00 
159 1 2 1.0279999999999903e+00 -3.5008164586761291e+02 1.0000000000000000e+00 1.6195876801710629e+01 4.5493089107004643e+00 4.1282007641649408e+00 
113 1 2 1.0279999874519379e+00 -6.0483556645229010e+02 1.0000000000000000e+00 1.5620726153467759e+01 3.1351273856608786e+00 1.0580984850186461e+01 
84 1 2 1.0280000549910560e+00 -5.8239481193767961e+02 1.0000000000000000e+00 1.4965514190986070e+01 3.0111688140786468e+00 1.1204969751739215e+01 
119 1 2 1.0280000456704301e+00 -6.9322924145836237e+02 1.0000000000000000e+00 1.5502176394962865e+01 2.9605013683287198e+00 1.0876818625378377e+01 
78 1 2 1.0280000588920923e+00 -6.2643373160861279e+02 1.0000000000000000e+00 1.5532254927878466e+01 3.0435888496926147e+00 1.0944380562710887e+01 
114 1 2 1.0279999734575314e+00 -5.9795623351175550e+02 1.0000000000000000e+00 1.5608010801891229e+01 3.2325851811502933e+00 1.0535663889711223e+01 
120 1 2 1.0279999786099299e+00 -6.1953709186309072e+02 1.0000000000000000e+00 1.5617166927192706e+01 3.2336200023779900e+00 1.0551268863248440e+01 
150 1 2 1.0279999617448690e+00 -5.7690637301543939e+02 1.0000000000000000e+00 1.5580394002692314e+01 3.2471102441980357e+00 1.0498963150975269e+01 
156 1 2 1.0279999625827705e+00 -6.5016683470849659e+02 1.0000000000000000e+00 1.5582445137529747e+01 3.2479594632508491e+00 1.0501569250747220e+01 
149 1 2 1.0279999607266652e+00 -6.2411471179430282e+02 1.0000000000000000e+00 1.5577356820502470e+01 3.2492823137684534e+00 1.0495621574448728e+01 
148 1 2 1.0279999603905996e+00 -7.3930017659652663e+02 1.0000000000000000e+00 1.5576259417856974e+01 3.2504316751247924e+00 1.0494489301323924e+01 
155 1 2 1.0279999603539047e+00 -7.4238309496486090e+02 1.0000000000000000e+00 1.5576061963317020e+01 3.2510307855415514e+00 1.0494340751784886e+01 
154 1 2 1.0279999601587544e+00 -4.7160129573616575e+02 1.0000000000000000e+00 1.5575380150403886e+01 3.2518983005414306e+00 1.0493669622483495e+01 
160 1 2 1.0279999601683110e+00 -4.8240973981947764e+02 1.0000000000000000e+00 1.5575403450341318e+01 3.2519169976756079e+00 1.0493699230127016e+01 
83 1 2 1.0280000191976795e+00 -5.5509912270274219e+02 1.0000000000000000e+00 1.3941354340483407e+01 3.3178431418393188e+00 1.1329412096527223e+01 
118 1 2 1.0280000044459681e+00 -5.5828824463881153e+02 1.0000000000000000e+00 1.3621440507530995e+01 3.4618396990131717e+00 1.1483128174081232e+01 
162 1 2 5.9421094834395738e-01 -5.2690050676065925e+02 1.0000000000000000e+00 1.5908052048876382e+01 8.5776504192431151e+00 1.4780340713265264e+01 
161 1 2 5.9421094834395738e-01 -3.8608913158829364e+02 1.0000000000000000e+00 1.5908052048876382e+01 8.5776504192430600e+00 1.4780340713265264e+01 
125 1 2 5.9421094834395738e-01 -5.3675887357691988e+02 1.0000000000000000e+00 1.5908052048876460e+01 8.5776504192431187e+00 1.4780340713265266e+01 
126 1 2 5.9421094834395738e-01 -4.7945787583842139e+02 1.0000000000000000e+00 1.5908052048876460e+01 8.5776504192430938e+00 1.4780340713265264e+01 
132 1 2 5.9421094834395738e-01 -5.4478971731487457e+02 1.0000000000000000e+00 1.5908052048876460e+01 8.5776504192430991e+00 1.4780340713265264e+01 
168 1 2 5.9421094834395738e-01 -4.9697670361241825e+02 1.0000000000000000e+00 1.5908052048876382e+01 8.5776504192430618e+00 1.4780340713265264e+01 
167 1 2 5.9421094834395738e-01 -5.6525928878878017e+02 1.0000000000000000e+00 1.5908052048876382e+01 8.5776504192431151e+00 1.4780340713265266e+01 
131 1 2 5.9421094834395738e-01 -3.0964377055326958e+02 1.0000000000000000e+00 1.5908052048876460e+01 8.5776504192430405e+00 1.4780340713265266e+01 
163 1 2 1.0279999999999847e+00 -6.1046252512421336e+02 1.0000000000000000e+00 1.5738813658329596e+01 1.2762027081159447e+01 4.4423122426637516e+00 
169 1 2 1.0279999999997278e+00 -5.5898768201310338e+02 1.0000000000000000e+00 1.5772758831603559e+01 1.2770973958492670e+01 4.4226923769372934e+00 
127 1 2 1.0280000000002598e+00 -5.5318858065319159e+02 1.0000000000000000e+00 1.5650569452610792e+01 1.2788888133676872e+01 4.5176034431617236e+00 
128 1 2 1.0280000000000147e+00 -4.0933282664084993e+02 1.0000000000000000e+00 1.5639883784784287e+01 1.2801153750099399e+01 4.5310747501742945e+00 
134 1 2 1.0280000000002167e+00 -6.2263087694979777e+02 1.0000000000000000e+00 1.5885127780841479e+01 1.3029028442458129e+01 4.6637899277895114e+00 
164 1 2 1.0279999999995975e+00 -6.2158317964491914e+02 1.0000000000000000e+00 1.5956062750911286e+01 1.2781850673739036e+01 4.5187299313202152e+00 
165 1 2 1.0279999999995626e+00 -4.9856094128502178e+02 1.0000000000000000e+00 1.5868236748565883e+01 1.2706812021619834e+01 4.5468618638981368e+00 
92 1 2 1.0280000000000453e+00 -4.1762520163494935e+02 1.0000000000000000e+00 1.5638401999221568e+01 1.2803161820860947e+01 4.5332218642370048e+00 
98 1 2 1.0279999999998273e+00 -4.6883739017253515e+02 1.0000000000000000e+00 1.5637587850934922e+01 1.2804437649016904e+01 4.5341568091259008e+00 
170 1 2 1.0279999999997369e+00 -5.4900354346990287e+02 1.0000000000000000e+00 1.5895299240609598e+01 1.3025524713755040e+01 4.6598564480650246e+00 
176 1 2 1.0280000000003313e+00 -4.4052918217056293e+02 1.0000000000000000e+00 1.5898769980003962e+01 1.3024433552958598e+01 4.6579977368384426e+00 
140 1 2 1.0279999999999503e+00 -4.7050575025838549e+02 1.0000000000000000e+00 1.5899121752149769e+01 1.3024306129995930e+01 4.6578258968064645e+00 
171 1 2 1.0279999999998430e+00 -4.4314319578029847e+02 1.0000000000000000e+00 1.5899053148525560e+01 1.3024926103372016e+01 4.6568839880977251e+00 
177 1 2 1.0279999999999756e+00 -4.1147517633425639e+02 1.0000000000000000e+00 1.5899474440327269e+01 1.3024843417949981e+01 4.6565589376479801e+00 
166 1 2 5.1993457980096269e-01 -5.2790754776434301e+02 1.0000000000000000e+00 1.6992069671114720e+01 1.4302005439953565e+01 1.2395883319108513e+01 
173 1 2 5.1993457980096269e-01 -6.5132516376045930e+02 1.0000000000000000e+00 1.6992069671114720e+01 1.4302005439953568e+01 1.2395883319108567e+01 
179 1 2 5.1993457980096269e-01 -6.9620499020834563e+02 1.0000000000000000e+00 1.6992069671114724e+01 1.4302005439953572e+01 1.2395883319108540e+01 
172 1 2 5.1993457980096269e-01 -5.2081231268150384e+02 1.0000000000000000e+00 1.6992069671114720e+01 1.4302005439953565e+01 1.2395883319108567e+01 
178 1 2 5.1993457980096269e-01 -4.9890907675475563e+02 1.0000000000000000e+00 1.6992069671114720e+01 1.4302005439953565e+01 1.2395883319108567e+01 
137 1 2 5.1993457980096269e-01 -6.1073415595545259e+02 1.0000000000000000e+00 1.6992069671114827e+01 1.4302005439953579e+01 1.2395883319108584e+01 
174 1 2 5.1993457980096269e-01 -6.0410731201228748e+02 1.0000000000000000e+00 1.6992069671114816e+01 1.4302005439953568e+01 1.2395883319108584e+01 
97 1 2 6.6848731688695207e-01 -6.4204567317236206e+02 1.0000000000000000e+00 1.4770594955139462e+01 1.6801956316891825e+01 1.9389781216313551e+01 
138 1 2 6.6848731688695207e-01 -4.8347568640272982e+02 1.0000000000000000e+00 1.4770594955139476e+01 1.6801956316891967e+01 1.9389781216313583e+01 
144 1 2 6.6848731688695207e-01 -4.6563437787613987e+02 1.0000000000000000e+00 1.4770594955139442e+01 1.6801956316891872e+01 1.9389781216313583e+01 
133 1 2 6.6848731688695207e-01 -5.2848338305871687e+02 1.0000000000000000e+00 1.4770594955139462e+01 1.6801956316891960e+01 1.9389781216313548e+01 
103 1 2 6.6848731688695207e-01 -5.7471978182368616e+02 1.0000000000000000e+00 1.4770594955139444e+01 1.6801956316891960e+01 1.9389781216313551e+01 
180 1 2 6.6848731688695207e-01 -6.1965304103638107e+02 1.0000000000000000e+00 1.4770594955139433e+01 1.6801956316891932e+01 1.9389781216313569e+01 
139 1 2 6.6848731688695207e-01 -5.5177529217408994e+02 1.0000000000000000e+00 1.4770594955139446e+01 1.6801956316891918e+01 1.9389781216313459e+01 
175 1 2 6.6848731688695207e-01 -5.0991910974106321e+02 1.0000000000000000e+00 1.4770594955139430e+01 1.6801956316891932e+01 1.9389781216313587e+01 
145 1 2 6.6848731688695207e-01 -3.9373695016171121e+02 1.0000000000000000e+00 1.4770594955139430e+01 1.6801956316891832e+01 1.9389781216313569e+01 

Velocities

15 -1.7835859606600472e-12 -1.9386855658579768e-12 2.0095511698392660e-13
20 -1.3715360559194890e-12 -5.3999047656783243e-12 -2.4361642733554531e-12
56 4.4148352493881910e-13 -8.6963040036025738e-12 -6.2314469249712065e-13
19 1.9425358209450196e-13 -6.8832844227442492e-12 -3.6723139875772061e-12
13 -1.3715360559194888e-12 -7.8722041941215444e-12 -3.5899040066288115e-12
9 3.1610128962262309e-12 -8.2018441179139982e-12 2.4260246025828485e-12
8 1.9248631820046940e-12 -1.9386855658579768e-12 -3.7591474965281020e-13
50 4.4148352493881905e-13 -7.0481043846404244e-12 -2.1889343305111725e-12
57 2.4193230676934623e-12 -4.5530590879206776e-13 7.7782498362066446e-13
14 1.9425358209450196e-13 -9.4976579448072753e-13 -4.6274825860386100e-14
21 1.9248631820046936e-12 2.0397393879277923e-13 1.0250549264649730e-12
55 -2.3604558272967197e-12 -3.2572452610276732e-12 -5.4073471154903709e-13
52 -2.9037343599534705e-03 3.7237032573841445e-04 4.7242605324501769e-03
46 -2.9037355823411854e-03 3.7234985299572821e-04 4.7243036373697152e-03
10 -2.9037483993647004e-03 3.7235027403604242e-04 4.7243093804798927e-03
4 -2.9037511931879699e-03 3.7234949549584673e-04 4.7243122868792248e-03
11 -2.9037517777560340e-03 3.7234891399767176e-04 4.7243137050492802e-03
5 -2.9037535832691012e-03 3.7234870000164394e-04 4.7243150010619940e-03
47 -2.9037737666892309e-03 3.7220939011959860e-04 4.7245365737892779e-03
12 -2.9038087192133377e-03 3.7222178067747980e-04 4.7245318386017511e-03
48 -2.9037591420451436e-03 3.7235879855086518e-04 4.7242977641177202e-03
18 -2.9037475659809465e-03 3.7236511843780426e-04 4.7242788937547978e-03
16 -2.9037427859979078e-03 3.7235740453418087e-04 4.7242922846455482e-03
24 -2.9037415333895635e-03 3.7234973878524593e-04 4.7243069550881632e-03
53 -2.9037397283620215e-03 3.7235157641674196e-04 4.7243023908136389e-03
17 -2.9037089999369879e-03 3.7232260140518441e-04 4.7243411012767786e-03
44 8.5458134766323277e-12 3.8315631121710116e-12 3.1034324758641530e-14
73 3.0878398863036895e-12 3.4594285491939625e-12 1.3335052951780055e-12
43 -3.3624925386302704e-12 3.9556079664966540e-12 2.1397968482947498e-12
79 4.3282884295601629e-12 2.3430248602630405e-12 -9.3010529567009728e-14
80 3.5840193036061952e-12 3.2113388405426345e-12 -3.0988102404185491e-14
86 5.3206472641654344e-12 2.4670697145886340e-12 -5.8918994686960930e-13
85 -1.6258645780711089e-12 3.2113388405426345e-12 3.1034324758641442e-14
49 3.5885309113930171e-13 3.9556079664966548e-12 -5.8918994686960930e-13
91 3.0878398863036895e-12 3.2113388405426345e-12 -5.8918994686960930e-13
51 1.2632443408098278e-03 -2.3558292807812680e-04 -2.3738868112090513e-03
87 1.2632441972595899e-03 -2.3558284697307790e-04 -2.3738868111645530e-03
112 1.2628566938621955e-03 -2.3072999208413822e-04 -2.3876626169083799e-03
77 1.2668127017336395e-03 -2.3411247535297294e-04 -2.3784688981477895e-03
41 1.2633365797973112e-03 -2.3564770567501367e-04 -2.3738679678714019e-03
76 1.2633297680706033e-03 -2.3564488174998314e-04 -2.3738666930330009e-03
40 1.2632914413126326e-03 -2.3561589302875929e-04 -2.3738775434250987e-03