LAMMPS data file via write_data, version 30 Jul 2016, timestep = 50000000

180 atoms
2 atom types

0.0000000000000000e+00 2.0000000000000000e+01 xlo xhi
0.0000000000000000e+00 2.0000000000000000e+01 ylo yhi
0.0000000000000000e+00 2.0000000000000000e+01 zlo zhi

Masses

1 3.896
2 4.31

Atoms # meso-molecular

15 1 2 8.9131642251593612e-01 -5.0858498488106727e+02 1.0000000000000000e+00 6.2437263439784463e+00 8.0977560097989159e+00 4.4119101603852133e+00 
20 1 2 8.9131642251593612e-01 -5.9089618495740103e+02 1.0000000000000000e+00 6.2437263439784418e+00 8.0977560097989532e+00 4.4119101603852418e+00 
56 1 2 8.9131642251593612e-01 -6.0786301492743337e+02 1.0000000000000000e+00 6.2437263439784223e+00 8.0977560097989887e+00 4.4119101603852222e+00 
19 1 2 8.9131642251593612e-01 -6.0484746231821725e+02 1.0000000000000000e+00 6.2437263439784250e+00 8.0977560097989691e+00 4.4119101603852551e+00 
13 1 2 8.9131642251593612e-01 -6.0981370931266679e+02 1.0000000000000000e+00 6.2437263439784418e+00 8.0977560097989798e+00 4.4119101603852542e+00 
9 1 2 8.9131642251593612e-01 -3.5092320609210026e+02 1.0000000000000000e+00 6.2437263439783930e+00 8.0977560097989834e+00 4.4119101603851894e+00 
8 1 2 8.9131642251593612e-01 -3.7780893449770559e+02 1.0000000000000000e+00 6.2437263439784063e+00 8.0977560097989159e+00 4.4119101603852195e+00 
50 1 2 8.9131642251593612e-01 -5.7024199839991036e+02 1.0000000000000000e+00 6.2437263439784223e+00 8.0977560097989709e+00 4.4119101603852391e+00 
57 1 2 8.9131642251593612e-01 -5.1008777772286624e+02 1.0000000000000000e+00 6.2437263439784010e+00 8.0977560097988999e+00 4.4119101603852071e+00 
14 1 2 8.9131642251593612e-01 -5.1477916154778677e+02 1.0000000000000000e+00 6.2437263439784250e+00 8.0977560097989052e+00 4.4119101603852160e+00 
21 1 2 8.9131642251593612e-01 -5.6776648914895350e+02 1.0000000000000000e+00 6.2437263439784063e+00 8.0977560097988928e+00 4.4119101603852044e+00 
55 1 2 8.9131642251593612e-01 -5.3078680948834403e+02 1.0000000000000000e+00 6.2437263439784525e+00 8.0977560097989301e+00 4.4119101603852213e+00 
52 1 2 1.0279999656282321e+00 -3.1981460544846448e+02 1.0000000000000000e+00 5.5326095574765848e+00 5.1509908262898305e+00 1.5043226499762168e+01 
46 1 2 1.0279999656116854e+00 -3.8409037474295604e+02 1.0000000000000000e+00 5.5327146108157610e+00 5.1525140690629669e+00 1.5040196507215743e+01 
10 1 2 1.0279999656101950e+00 -4.0521607271158348e+02 1.0000000000000000e+00 5.5336264062804625e+00 5.1524903523711254e+00 1.5039791611110493e+01 
4 1 2 1.0279999656097270e+00 -5.1068539868590983e+02 1.0000000000000000e+00 5.5338253188322453e+00 5.1525476961431140e+00 1.5039586179810273e+01 
11 1 2 1.0279999656094760e+00 -4.1419334461337161e+02 1.0000000000000000e+00 5.5338670767958282e+00 5.1525899586974671e+00 1.5039485926339752e+01 
5 1 2 1.0279999656093142e+00 -4.7149430757968571e+02 1.0000000000000000e+00 5.5339954418490640e+00 5.1526057809748318e+00 1.5039394168109174e+01 
47 1 2 1.0279999657669099e+00 -4.6516460291787291e+02 1.0000000000000000e+00 5.5352754172463996e+00 5.1619182420943028e+00 1.5023209194324227e+01 
12 1 2 1.0280000342385547e+00 -4.9085362738664725e+02 1.0000000000000000e+00 5.6133656129167218e+00 5.4713623566475320e+00 1.5228254080280108e+01 
48 1 2 1.0280000343863442e+00 -4.1836027834939335e+02 1.0000000000000000e+00 5.6167560408038186e+00 5.4805347519475367e+00 1.5211222230546536e+01 
18 1 2 1.0280000343804090e+00 -6.6430587317896493e+02 1.0000000000000000e+00 5.6175837351466207e+00 5.4810079827637761e+00 1.5209894829422932e+01 
16 1 2 1.0280000343853775e+00 -3.6497326970706291e+02 1.0000000000000000e+00 5.6179176838162928e+00 5.4804398491072570e+00 1.5210835285864716e+01 
24 1 2 1.0280000343892772e+00 -6.1779473710898480e+02 1.0000000000000000e+00 5.6180023983244203e+00 5.4798797446752125e+00 1.5211868462649859e+01 
53 1 2 1.0280000343881819e+00 -4.1540352307853459e+02 1.0000000000000000e+00 5.6181316409424777e+00 5.4800146808713253e+00 1.5211546806531913e+01 
17 1 2 1.0280000343876321e+00 -4.1728943969887945e+02 1.0000000000000000e+00 5.6203130817881046e+00 5.4779598890340022e+00 1.5214296671306291e+01 
44 1 2 6.6848731688695207e-01 -5.0483689564305644e+02 1.0000000000000000e+00 1.0519039655693852e+01 6.2473805380172900e+00 2.2071974733393831e+00 
73 1 2 6.6848731688695207e-01 -3.5894109942204562e+02 1.0000000000000000e+00 1.0519039655693891e+01 6.2473805380172927e+00 2.2071974733393738e+00 
43 1 2 6.6848731688695207e-01 -4.4140204757397652e+02 1.0000000000000000e+00 1.0519039655693938e+01 6.2473805380172891e+00 2.2071974733393680e+00 
79 1 2 6.6848731688695207e-01 -4.1370580069825445e+02 1.0000000000000000e+00 1.0519039655693883e+01 6.2473805380173006e+00 2.2071974733393840e+00 
80 1 2 6.6848731688695207e-01 -4.2923125748035892e+02 1.0000000000000000e+00 1.0519039655693888e+01 6.2473805380172944e+00 2.2071974733393835e+00 
86 1 2 6.6848731688695207e-01 -4.8988325843808332e+02 1.0000000000000000e+00 1.0519039655693875e+01 6.2473805380172998e+00 2.2071974733393875e+00 
85 1 2 6.6848731688695207e-01 -5.0663154016289178e+02 1.0000000000000000e+00 1.0519039655693925e+01 6.2473805380172944e+00 2.2071974733393831e+00 
49 1 2 6.6848731688695207e-01 -5.4811184971376588e+02 1.0000000000000000e+00 1.0519039655693911e+01 6.2473805380172891e+00 2.2071974733393875e+00 
91 1 2 6.6848731688695207e-01 -3.8126021280180805e+02 1.0000000000000000e+00 1.0519039655693891e+01 6.2473805380172944e+00 2.2071974733393875e+00 
51 1 2 1.0280000085033811e+00 -3.5044389635379156e+02 1.0000000000000000e+00 1.1702988431105117e+01 4.2854223961842743e+00 1.2193992195403490e+01 
87 1 2 1.0280000085052132e+00 -4.2765353200507877e+02 1.0000000000000000e+00 1.1702989111662369e+01 4.2854254036624422e+00 1.2193988240073701e+01 
112 1 2 1.0279999319675128e+00 -5.6529496888978611e+02 1.0000000000000000e+00 1.1980173622329714e+01 3.9140866206571485e+00 1.2388025213675261e+01 
77 1 2 1.0279999535747346e+00 -4.7168563976563695e+02 1.0000000000000000e+00 1.1750473898533588e+01 4.0586308739639509e+00 1.2324366081566415e+01 
41 1 2 1.0280000073116009e+00 -4.4284935024174854e+02 1.0000000000000000e+00 1.1700175796861055e+01 4.2780655004540300e+00 1.2197886967001812e+01 
76 1 2 1.0280000073959803e+00 -4.0776693251764931e+02 1.0000000000000000e+00 1.1700085526105024e+01 4.2779362190398800e+00 1.2197771710980517e+01 
40 1 2 1.0280000078942182e+00 -4.7700087449144172e+02 1.0000000000000000e+00 1.1701677326582637e+01 4.2820198260953362e+00 1.2195910637787556e+01 
82 1 2 1.0280000084949741e+00 -4.2200682054168573e+02 1.0000000000000000e+00 1.1702952310980356e+01 4.2853374303030476e+00 1.2194028640268044e+01 
81 1 2 1.0280000085053569e+00 -4.2522339924372517e+02 1.0000000000000000e+00 1.1702979639456636e+01 4.2854050985490275e+00 1.2193993226346388e+01 
45 1 2 1.0280000085053540e+00 -4.9742107999175198e+02 1.0000000000000000e+00 1.1702982434294086e+01 4.2854111249367186e+00 1.2193991674253757e+01 
124 1 2 1.0280000085064196e+00 -3.8781533128644389e+02 1.0000000000000000e+00 1.1702991177757379e+01 4.2854308577512521e+00 1.2193984770039178e+01 
88 1 2 1.0280000085041521e+00 -4.3210272733986187e+02 1.0000000000000000e+00 1.1702987991529733e+01 4.2854220722032750e+00 1.2193990990882781e+01 
123 1 2 1.0280000085069787e+00 -3.9554831218576237e+02 1.0000000000000000e+00 1.1702991023529822e+01 4.2854309768050953e+00 1.2193983806784223e+01 
2 1 2 1.0280000246438425e+00 -3.8940452841288140e+02 1.0000000000000000e+00 9.3139425197395909e+00 1.6357122973890782e+01 6.6109938359035052e+00 
3 1 2 1.0280000246298664e+00 -3.5160509066391234e+02 1.0000000000000000e+00 9.3139761976128099e+00 1.6357104288299272e+01 6.6110865442138786e+00 
38 1 2 1.0280000245340335e+00 -3.9924194273680968e+02 1.0000000000000000e+00 9.3142167714929087e+00 1.6356857279859316e+01 6.6116071794157287e+00 
69 1 2 1.0279998059840132e+00 -5.3752134661652349e+02 1.0000000000000000e+00 8.0078429745322453e+00 1.7421250190275902e+01 5.5038323731356433e+00 
63 1 2 1.0279998227497313e+00 -4.9913617199502977e+02 1.0000000000000000e+00 8.0161089979001847e+00 1.7452111163284908e+01 5.5044883421049180e+00 
34 1 2 1.0279998144990219e+00 -6.2037308223340187e+02 1.0000000000000000e+00 7.9980410370928139e+00 1.7426178280032996e+01 5.5205941503149116e+00 
33 1 2 1.0279998152340679e+00 -5.9579379828885203e+02 1.0000000000000000e+00 7.9943556154975912e+00 1.7423659408344779e+01 5.5256421775935340e+00 
31 1 2 1.0280000265972480e+00 -4.7513652248654228e+02 1.0000000000000000e+00 8.1976615126629433e+00 1.7646074390082855e+01 5.4957603487603395e+00 
61 1 2 1.0280000264606461e+00 -4.1121531040708840e+02 1.0000000000000000e+00 8.1975409472943017e+00 1.7645995309232479e+01 5.4957266005980019e+00 
26 1 2 1.0280000267532190e+00 -4.2832687035081000e+02 1.0000000000000000e+00 8.1975326431426030e+00 1.7646188949031593e+01 5.4959838687826128e+00 
25 1 2 1.0280000267013178e+00 -4.8055543801349120e+02 1.0000000000000000e+00 8.1976024659021718e+00 1.7646148391054769e+01 5.4958907745644190e+00 
62 1 2 1.0280000277738728e+00 -4.7155736868269406e+02 1.0000000000000000e+00 8.1973511474860992e+00 1.7646876967634959e+01 5.4969897353658519e+00 
32 1 2 1.0280000295608331e+00 -6.1017350944414807e+02 1.0000000000000000e+00 8.1985692149281277e+00 1.7647941526680434e+01 5.4976902787723452e+00 
27 1 2 1.0279998805023969e+00 -6.7607726214640070e+02 1.0000000000000000e+00 8.0007058025786293e+00 1.7502592440405444e+01 5.5648702960917467e+00 
68 1 2 1.0280001922348114e+00 -5.5670028386063473e+02 1.0000000000000000e+00 8.2596743367081533e+00 1.7738132533410663e+01 5.6831520662215871e+00 
135 1 2 1.0280002593189255e+00 -4.5495084042988645e+02 1.0000000000000000e+00 9.3124437988851927e+00 1.4114802813850977e+01 8.1375953828957766e+00 
129 1 2 1.0280002574065388e+00 -3.9462643151907702e+02 1.0000000000000000e+00 9.2786851436415638e+00 1.4148312227009260e+01 8.1327139555384740e+00 
100 1 2 1.0280002591219577e+00 -5.4477252222343748e+02 1.0000000000000000e+00 9.3478154841385575e+00 1.4084130732310731e+01 8.1470997375675562e+00 
93 1 2 1.0280002571407922e+00 -4.1264873679150668e+02 1.0000000000000000e+00 9.2812121735018103e+00 1.4146156624763107e+01 8.1355996591417696e+00 
136 1 2 1.0280002580788266e+00 -4.5468798888435725e+02 1.0000000000000000e+00 9.2978340121192602e+00 1.4129464426260540e+01 8.1387928172411748e+00 
130 1 2 1.0280002552810164e+00 -3.3850371844480964e+02 1.0000000000000000e+00 9.2736405175006720e+00 1.4155485552358623e+01 8.1410745848541453e+00 
94 1 2 1.0280002535021631e+00 -3.1378447624698100e+02 1.0000000000000000e+00 9.2711767373435077e+00 1.4159885716787208e+01 8.1486192440690015e+00 
39 1 2 1.0280000057083338e+00 -4.0239109987550023e+02 1.0000000000000000e+00 9.3544014167093668e+00 1.6323777433824475e+01 6.7168209585583574e+00 
99 1 2 1.0279999875991661e+00 -4.4278729310976172e+02 1.0000000000000000e+00 1.0280564047259444e+01 1.4078915824833599e+01 8.3434183086843916e+00 
142 1 2 1.0279998752382180e+00 -5.3996801399327796e+02 1.0000000000000000e+00 1.0454816472224035e+01 1.4298873736598424e+01 8.3857995776393928e+00 
141 1 2 1.0279998378488300e+00 -5.5277450283700182e+02 1.0000000000000000e+00 1.0497132543443744e+01 1.4393095208621070e+01 8.3945212326301828e+00 
104 1 2 1.0279997342679073e+00 -6.5426168295309299e+02 1.0000000000000000e+00 1.0521540922228041e+01 1.5048895465492922e+01 8.2494582835709682e+00 
70 1 2 1.0279997341702454e+00 -4.9713847169742456e+02 1.0000000000000000e+00 1.0522580086708420e+01 1.5045320771047525e+01 8.2511993627576281e+00 
75 1 2 1.0279997337794105e+00 -4.7455441202065157e+02 1.0000000000000000e+00 1.0527748149597731e+01 1.5026859731844073e+01 8.2599707343016302e+00 
105 1 2 1.0279997335792284e+00 -5.5745906742470720e+02 1.0000000000000000e+00 1.0532431518446844e+01 1.5009003691379824e+01 8.2681111157640341e+00 
106 1 2 1.0279997335408178e+00 -5.4913418844915441e+02 1.0000000000000000e+00 1.0536095481381839e+01 1.4994126725421028e+01 8.2746481609689368e+00 
28 1 2 1.0280000000013891e+00 -5.9838458769362296e+02 1.0000000000000000e+00 9.5539260308941998e+00 1.1296641019073261e+01 1.5046848094286974e+01 
64 1 2 1.0279999999998319e+00 -4.5998778845645006e+02 1.0000000000000000e+00 9.5539242620572313e+00 1.1296640229976923e+01 1.5046845332970879e+01 
22 1 2 1.0280000000001965e+00 -5.3540597190776475e+02 1.0000000000000000e+00 9.5539198574937672e+00 1.1296639115893184e+01 1.5046822095418957e+01 
58 1 2 1.0280000000006817e+00 -4.3057685803047957e+02 1.0000000000000000e+00 9.5539217506507530e+00 1.1296639433355777e+01 1.5046835184604920e+01 
23 1 2 1.0279999999998515e+00 -4.7614023581993001e+02 1.0000000000000000e+00 9.5539141616800620e+00 1.1296637828725045e+01 1.5046789139815866e+01 
59 1 2 1.0280000000020919e+00 -4.0883961861282444e+02 1.0000000000000000e+00 9.5539164991638081e+00 1.1296638217527185e+01 1.5046805336191984e+01 
95 1 2 1.0280000000014964e+00 -3.5650553327592303e+02 1.0000000000000000e+00 9.5530929915534699e+00 1.1296262513523830e+01 1.5045731348781787e+01 
96 1 2 1.0279999999993301e+00 -4.8890851650837408e+02 1.0000000000000000e+00 9.5865860037477049e+00 1.1315532465595309e+01 1.5083779359143348e+01 
60 1 2 1.0279999999994569e+00 -4.5537313638688198e+02 1.0000000000000000e+00 9.5532768610907191e+00 1.1296376732091062e+01 1.5045410642231763e+01 
90 1 2 1.0279999999992933e+00 -3.5508794183359140e+02 1.0000000000000000e+00 9.5533968615540559e+00 1.1296428075749684e+01 1.5045622111381055e+01 
89 1 2 1.0280000000013931e+00 -3.6183663458405829e+02 1.0000000000000000e+00 9.5535072473722664e+00 1.1296478372205405e+01 1.5045763098168324e+01 
54 1 2 1.0280000000012375e+00 -4.5599594119388451e+02 1.0000000000000000e+00 9.5536049234793037e+00 1.1296522798726015e+01 1.5045890655283253e+01 
102 1 2 1.0279999999974196e+00 -4.9414978329609585e+02 1.0000000000000000e+00 9.3389902637858793e+00 1.2659093499844039e+01 1.5469919128680473e+01 
101 1 2 1.0279999999975040e+00 -4.3862544490854009e+02 1.0000000000000000e+00 9.2173563367427125e+00 1.2906179597289579e+01 1.5419975249864066e+01 
66 1 2 1.0280000000003049e+00 -5.3176794090249564e+02 1.0000000000000000e+00 7.2586374494676500e+00 1.3743829330055366e+01 1.4528353615395975e+01 
65 1 2 1.0280000000003173e+00 -3.9817385542251787e+02 1.0000000000000000e+00 7.2367528803593162e+00 1.3828127552453402e+01 1.4545167523541659e+01 
29 1 2 1.0279999999995784e+00 -4.7460765769476802e+02 1.0000000000000000e+00 7.3538739439439818e+00 1.4375348615599542e+01 1.4836792325646119e+01 
35 1 2 1.0279999999995784e+00 -5.2200956417596228e+02 1.0000000000000000e+00 7.3538739439439818e+00 1.4375348615599542e+01 1.4836792325646119e+01 
30 1 2 1.0279999999995784e+00 -6.0495349970835116e+02 1.0000000000000000e+00 7.3538739439439818e+00 1.4375348615599542e+01 1.4836792325646119e+01 
71 1 2 1.0279999999995784e+00 -5.3862443072586836e+02 1.0000000000000000e+00 7.3538739439439818e+00 1.4375348615599542e+01 1.4836792325646119e+01 
72 1 2 1.0279999999995784e+00 -5.2925819725648273e+02 1.0000000000000000e+00 7.3538739439439818e+00 1.4375348615599542e+01 1.4836792325646119e+01 
42 1 2 1.0279999999995784e+00 -5.9378901734425767e+02 1.0000000000000000e+00 7.3538739439439818e+00 1.4375348615599542e+01 1.4836792325646119e+01 
108 1 2 1.0279999999995784e+00 -4.6435630598059129e+02 1.0000000000000000e+00 7.3538739439439818e+00 1.4375348615599542e+01 1.4836792325646119e+01 
36 1 2 1.0279999999995784e+00 -6.3014151053390344e+02 1.0000000000000000e+00 7.3538739439439818e+00 1.4375348615599542e+01 1.4836792325646119e+01 
107 1 2 1.0279999999995784e+00 -4.6339950679106482e+02 1.0000000000000000e+00 7.3538739439439818e+00 1.4375348615599542e+01 1.4836792325646119e+01 
143 1 2 1.0279999999995784e+00 -3.4292982243853925e+02 1.0000000000000000e+00 7.3538739439439818e+00 1.4375348615599542e+01 1.4836792325646119e+01 
6 1 2 1.0279999999995784e+00 -5.9610498838377953e+02 1.0000000000000000e+00 7.3538739439439818e+00 1.4375348615599542e+01 1.4836792325646119e+01 
7 1 2 2.9710547417197863e-01 -5.9167914598556092e+02 1.0000000000000000e+00 6.8713899092796913e+00 1.9953121298119566e+01 1.9801871033965554e+01 
67 1 2 2.9710547417197863e-01 -4.2461372378046565e+02 1.0000000000000000e+00 6.8713899092796700e+00 1.9953121298119651e+01 1.9801871033965639e+01 
37 1 2 2.9710547417197863e-01 -5.0902271036386264e+02 1.0000000000000000e+00 6.8713899092796700e+00 1.9953121298119651e+01 1.9801871033965639e+01 
1 1 2 2.9710547417197863e-01 -6.0107911913845044e+02 1.0000000000000000e+00 6.8713899092796913e+00 1.9953121298119566e+01 1.9801871033965554e+01 
115 1 2 1.0280000000000042e+00 -4.9569650594523409e+02 1.0000000000000000e+00 1.5857909232596604e+01 4.4428203628087068e+00 3.3146565881038628e+00 
121 1 2 1.0279999999999876e+00 -4.2898192232618260e+02 1.0000000000000000e+00 1.5854687063043709e+01 4.4492289302176875e+00 3.3207966221781402e+00 
157 1 2 1.0279999999999865e+00 -5.2788637997143428e+02 1.0000000000000000e+00 1.5864285399190802e+01 4.4489600184494380e+00 3.3206596082979569e+00 
151 1 2 1.0279999999999994e+00 -6.1409581733032974e+02 1.0000000000000000e+00 1.5898560669375387e+01 4.3660519712174155e+00 3.2525234962896801e+00 
109 1 2 1.0279999999999887e+00 -3.3529721274701234e+02 1.0000000000000000e+00 1.5651101441702496e+01 3.1648985750805734e+00 3.5409411887753017e+00 
110 1 2 1.0280000000000271e+00 -5.4010146757609857e+02 1.0000000000000000e+00 1.5572496282148805e+01 3.1116146889494933e+00 3.7393029359040870e+00 
111 1 2 1.0280000000000040e+00 -6.4912552851389478e+02 1.0000000000000000e+00 1.5569475573430127e+01 3.1395198728466043e+00 4.1626356887051781e+00 
146 1 2 1.0279999999999774e+00 -5.8173133261158500e+02 1.0000000000000000e+00 1.5738610685381339e+01 3.0604975798531733e+00 3.9930573963187532e+00 
74 1 2 1.0279999999999843e+00 -5.4647619647586623e+02 1.0000000000000000e+00 1.5413417047946384e+01 3.1709665149362962e+00 3.9616449441945525e+00 
147 1 2 1.0280000000000025e+00 -5.9353695691130213e+02 1.0000000000000000e+00 1.5853416901303834e+01 3.1410740110868698e+00 4.2637149954133635e+00 
122 1 2 1.0279999999999909e+00 -4.4639114083491995e+02 1.0000000000000000e+00 1.5839466300313726e+01 4.4630398562717213e+00 3.3347541582874314e+00 
117 1 2 1.0279999999999945e+00 -5.2787794712140408e+02 1.0000000000000000e+00 1.5485855037953977e+01 3.4463901735105535e+00 4.4831856963799384e+00 
116 1 2 1.0280000000000120e+00 -6.3790908309260885e+02 1.0000000000000000e+00 1.5697666565772439e+01 3.4398758440227786e+00 4.5606619640802233e+00 
152 1 2 1.0279999999999938e+00 -6.0827201335975224e+02 1.0000000000000000e+00 1.6309786542224153e+01 4.2916720668475454e+00 4.3634602000401612e+00 
153 1 2 1.0280000000000198e+00 -4.4323184643208947e+02 1.0000000000000000e+00 1.6213050694808569e+01 4.4742040838452750e+00 4.2523754461314871e+00 
158 1 2 1.0279999999999982e+00 -3.7664791073131767e+02 1.0000000000000000e+00 1.6190084745017810e+01 4.5614840516225756e+00 4.1042042124163300e+00 
159 1 2 1.0279999999999836e+00 -3.5008164586761291e+02 1.0000000000000000e+00 1.6195876802448414e+01 4.5493089099899215e+00 4.1282007648754835e+00 
113 1 2 1.0279999817352425e+00 -6.0483556645229010e+02 1.0000000000000000e+00 1.5573931421899793e+01 3.1455352948222317e+00 1.0684631490984197e+01 
84 1 2 1.0280000800020983e+00 -5.8239481196932877e+02 1.0000000000000000e+00 1.4917996013069128e+01 3.0219212858551838e+00 1.1307298109333960e+01 
119 1 2 1.0280000664161788e+00 -6.9322924145836237e+02 1.0000000000000000e+00 1.5454887939153776e+01 2.9712126371135907e+00 1.0980268301003349e+01 
78 1 2 1.0280000852984295e+00 -6.2643373160861279e+02 1.0000000000000000e+00 1.5484835438571046e+01 3.0542850617760653e+00 1.1047676507132174e+01 
114 1 2 1.0279999612301425e+00 -5.9795623351175550e+02 1.0000000000000000e+00 1.5561303638939409e+01 3.2430663659799883e+00 1.0639205872976182e+01 
120 1 2 1.0279999686645762e+00 -6.1953709186309072e+02 1.0000000000000000e+00 1.5570434986027797e+01 3.2441012470841475e+00 1.0654848714507704e+01 
150 1 2 1.0279999442997325e+00 -5.7690637301543939e+02 1.0000000000000000e+00 1.5533723742161728e+01 3.2576130002228600e+00 1.0602393293368031e+01 
156 1 2 1.0279999455057129e+00 -6.5016683470849659e+02 1.0000000000000000e+00 1.5535772955067438e+01 3.2584630611632579e+00 1.0605007852345580e+01 
149 1 2 1.0279999428271225e+00 -6.2411471179430282e+02 1.0000000000000000e+00 1.5530688050568379e+01 3.2597885861717453e+00 1.0599040035370464e+01 
148 1 2 1.0279999423402137e+00 -7.3930017659652663e+02 1.0000000000000000e+00 1.5529590977068029e+01 3.2609397543535295e+00 1.0597903671849945e+01 
155 1 2 1.0279999422859762e+00 -7.4238309496486090e+02 1.0000000000000000e+00 1.5529393453872558e+01 3.2615397479925372e+00 1.0597754493449223e+01 
154 1 2 1.0279999420028239e+00 -4.7160129573806120e+02 1.0000000000000000e+00 1.5528711761891001e+01 3.2624086138855279e+00 1.0597080886884013e+01 
160 1 2 1.0279999420164965e+00 -4.8240973982137365e+02 1.0000000000000000e+00 1.5528735042657168e+01 3.2624273334277922e+00 1.0597110592424155e+01 
83 1 2 1.0280000276854184e+00 -5.5509912279369166e+02 1.0000000000000000e+00 1.3892752784710513e+01 3.3280232198400919e+00 1.1429568274255191e+01 
118 1 2 1.0280000052303482e+00 -5.5828824472976100e+02 1.0000000000000000e+00 1.3572344542046327e+01 3.4717918692874190e+00 1.1582149739379402e+01 
162 1 2 5.9421094834395738e-01 -5.2690050676065925e+02 1.0000000000000000e+00 1.5908052048876382e+01 8.5776504192431151e+00 1.4780340713975807e+01 
161 1 2 5.9421094834395738e-01 -3.8608913158829364e+02 1.0000000000000000e+00 1.5908052048876382e+01 8.5776504192430600e+00 1.4780340713975807e+01 
125 1 2 5.9421094834395738e-01 -5.3675887357691988e+02 1.0000000000000000e+00 1.5908052048876460e+01 8.5776504192431187e+00 1.4780340713975809e+01 
126 1 2 5.9421094834395738e-01 -4.7945787583842139e+02 1.0000000000000000e+00 1.5908052048876460e+01 8.5776504192430938e+00 1.4780340713975807e+01 
132 1 2 5.9421094834395738e-01 -5.4478971731487457e+02 1.0000000000000000e+00 1.5908052048876460e+01 8.5776504192430991e+00 1.4780340713975807e+01 
168 1 2 5.9421094834395738e-01 -4.9697670361241825e+02 1.0000000000000000e+00 1.5908052048876382e+01 8.5776504192430618e+00 1.4780340713975807e+01 
167 1 2 5.9421094834395738e-01 -5.6525928878878017e+02 1.0000000000000000e+00 1.5908052048876382e+01 8.5776504192431151e+00 1.4780340713975809e+01 
131 1 2 5.9421094834395738e-01 -3.0964377055326958e+02 1.0000000000000000e+00 1.5908052048876460e+01 8.5776504192430405e+00 1.4780340713975809e+01 
163 1 2 1.0279999999997633e+00 -6.1046252512421336e+02 1.0000000000000000e+00 1.5742762187182695e+01 1.2763729754935785e+01 4.4424430890866020e+00 
169 1 2 1.0279999999993623e+00 -5.5898768201310338e+02 1.0000000000000000e+00 1.5776707360440916e+01 1.2772676632309393e+01 4.4228232233266818e+00 
127 1 2 1.0280000000009830e+00 -5.5318858065319159e+02 1.0000000000000000e+00 1.5654517981456719e+01 1.2790590807510222e+01 4.5177342895640491e+00 
128 1 2 1.0280000000006380e+00 -4.0933282664084993e+02 1.0000000000000000e+00 1.5643832313644419e+01 1.2802856423898421e+01 4.5312055965894240e+00 
134 1 2 1.0279999999996285e+00 -6.2263087694979777e+02 1.0000000000000000e+00 1.5889076309691175e+01 1.3030731116262615e+01 4.6639207742089281e+00 
164 1 2 1.0279999999993421e+00 -6.2158317964491914e+02 1.0000000000000000e+00 1.5960011279728908e+01 1.2783553347501083e+01 4.5188607777163901e+00 
165 1 2 1.0279999999998224e+00 -4.9856094128502178e+02 1.0000000000000000e+00 1.5872185277427560e+01 1.2708514695440758e+01 4.5469927102858598e+00 
92 1 2 1.0279999999988636e+00 -4.1762520163494935e+02 1.0000000000000000e+00 1.5642350528065018e+01 1.2804864494638466e+01 4.5333527106260725e+00 
98 1 2 1.0279999999997187e+00 -4.6883739017253515e+02 1.0000000000000000e+00 1.5641536379750635e+01 1.2806140322883506e+01 4.5342876555380300e+00 
170 1 2 1.0279999999997147e+00 -5.4900354346990287e+02 1.0000000000000000e+00 1.5899247769464745e+01 1.3027227387569772e+01 4.6599872944433400e+00 
176 1 2 1.0279999999999347e+00 -4.4052918217056293e+02 1.0000000000000000e+00 1.5902718508861204e+01 1.3026136226767017e+01 4.6581285832372323e+00 
140 1 2 1.0279999999999052e+00 -4.7050575025838549e+02 1.0000000000000000e+00 1.5903070280988709e+01 1.3026008803812863e+01 4.6579567431987225e+00 
171 1 2 1.0279999999996179e+00 -4.4314319578029847e+02 1.0000000000000000e+00 1.5903001677374546e+01 1.3026628777184403e+01 4.6570148344928031e+00 
177 1 2 1.0279999999995633e+00 -4.1147517633425639e+02 1.0000000000000000e+00 1.5903422969192821e+01 1.3026546091753165e+01 4.6566897840467529e+00 
166 1 2 5.1993457980096269e-01 -5.2790754776434301e+02 1.0000000000000000e+00 1.6992069671114720e+01 1.4302005440664107e+01 1.2395883319108513e+01 
173 1 2 5.1993457980096269e-01 -6.5132516376045930e+02 1.0000000000000000e+00 1.6992069671114720e+01 1.4302005440664111e+01 1.2395883319108567e+01 
179 1 2 5.1993457980096269e-01 -6.9620499020834563e+02 1.0000000000000000e+00 1.6992069671114724e+01 1.4302005440664114e+01 1.2395883319108540e+01 
172 1 2 5.1993457980096269e-01 -5.2081231268150384e+02 1.0000000000000000e+00 1.6992069671114720e+01 1.4302005440664107e+01 1.2395883319108567e+01 
178 1 2 5.1993457980096269e-01 -4.9890907675475563e+02 1.0000000000000000e+00 1.6992069671114720e+01 1.4302005440664107e+01 1.2395883319108567e+01 
137 1 2 5.1993457980096269e-01 -6.1073415595545259e+02 1.0000000000000000e+00 1.6992069671114827e+01 1.4302005440664121e+01 1.2395883319108584e+01 
174 1 2 5.1993457980096269e-01 -6.0410731201228748e+02 1.0000000000000000e+00 1.6992069671114816e+01 1.4302005440664111e+01 1.2395883319108584e+01 
97 1 2 6.6848731688695207e-01 -6.4204567317236206e+02 1.0000000000000000e+00 1.4770594955139462e+01 1.6801956316891825e+01 1.9389781216313551e+01 
138 1 2 6.6848731688695207e-01 -4.8347568640272982e+02 1.0000000000000000e+00 1.4770594955139476e+01 1.6801956316891967e+01 1.9389781216313583e+01 
144 1 2 6.6848731688695207e-01 -4.6563437787613987e+02 1.0000000000000000e+00 1.4770594955139442e+01 1.6801956316891872e+01 1.9389781216313583e+01 
133 1 2 6.6848731688695207e-01 -5.2848338305871687e+02 1.0000000000000000e+00 1.4770594955139462e+01 1.6801956316891960e+01 1.9389781216313548e+01 
103 1 2 6.6848731688695207e-01 -5.7471978182368616e+02 1.0000000000000000e+00 1.4770594955139444e+01 1.6801956316891960e+01 1.9389781216313551e+01 
180 1 2 6.6848731688695207e-01 -6.1965304103638107e+02 1.0000000000000000e+00 1.4770594955139433e+01 1.6801956316891932e+01 1.9389781216313569e+01 
139 1 2 6.6848731688695207e-01 -5.5177529217408994e+02 1.0000000000000000e+00 1.4770594955139446e+01 1.6801956316891918e+01 1.9389781216313459e+01 
175 1 2 6.6848731688695207e-01 -5.0991910974106321e+02 1.0000000000000000e+00 1.4770594955139430e+01 1.6801956316891932e+01 1.9389781216313587e+01 
145 1 2 6.6848731688695207e-01 -3.9373695016171121e+02 1.0000000000000000e+00 1.4770594955139430e+01 1.6801956316891832e+01 1.9389781216313569e+01 

Velocities

15 -1.7847147899305086e-12 -1.9319800912677912e-12 2.0228986820671724e-13
20 -1.3725276380651571e-12 -5.3943521669363392e-12 -2.4357079037311285e-12
56 4.4109583014209393e-13 -8.6918493818606102e-12 -6.2208443552386294e-13
19 1.9378353902291714e-13 -6.8782259136513025e-12 -3.6722693593270762e-12
13 -1.3725276380651569e-12 -7.8674750781278881e-12 -3.5898319289540588e-12
9 3.1615310324530144e-12 -8.1972247996275462e-12 2.4281004882793168e-12
8 1.9249695768571717e-12 -1.9319800912677912e-12 -3.7477214440468953e-13
50 4.4109583014209388e-13 -7.0431007743974698e-12 -2.1883956126119684e-12
57 2.4195941590954892e-12 -4.4810634455269523e-13 7.7935188081812921e-13
14 1.9378353902291714e-13 -9.4273092679104342e-13 -4.5022422912454091e-14
21 1.9249695768571713e-12 2.1139309843177715e-13 1.0266641719373244e-12
55 -2.3617768025419456e-12 -3.2509789772366521e-12 -5.3964700515079048e-13
52 -2.8998089921823044e-03 3.7188668683182827e-04 4.7178492288830051e-03
46 -2.8998108178005313e-03 3.7185610427913036e-04 4.7179136249509241e-03
10 -2.8998299653729995e-03 3.7185673322491985e-04 4.7179222046451700e-03
4 -2.8998341390769709e-03 3.7185557028203620e-04 4.7179265466303381e-03
11 -2.8998350123466913e-03 3.7185470167683488e-04 4.7179286653118721e-03
5 -2.8998377095747810e-03 3.7185438221261623e-04 4.7179306015664967e-03
47 -2.8998678663855033e-03 3.7164624799710229e-04 4.7182615995127178e-03
12 -2.8999199321995046e-03 3.7166506250600870e-04 4.7182540896338237e-03
48 -2.8998459894156118e-03 3.7186941415042851e-04 4.7179049461337072e-03
18 -2.8998287231868118e-03 3.7187884112476730e-04 4.7178768006720913e-03
16 -2.8998215938307579e-03 3.7186733503709725e-04 4.7178967733728259e-03
24 -2.8998197256372752e-03 3.7185590090413643e-04 4.7179186546091817e-03
53 -2.8998170333364771e-03 3.7185864196639392e-04 4.7179118469342519e-03
17 -2.8997712008187642e-03 3.7181542508138134e-04 4.7179695850640769e-03
44 8.5437654657663883e-12 3.8272495745956008e-12 3.0751012882331711e-14
73 3.0844639343568044e-12 3.4550244701812340e-12 1.3335388783324093e-12
43 -3.3674378754910448e-12 3.9513246094514703e-12 2.1400266045633868e-12
79 4.3252142824043170e-12 2.3383491569384091e-12 -9.3324021922432742e-14
80 3.5807640735758382e-12 3.2068744005716401e-12 -3.1286504520050831e-14
86 5.3178145608426788e-12 2.4624241917431271e-12 -5.8962416114147575e-13
85 -1.6303873882242287e-12 3.2068744005716401e-12 3.0751012882331610e-14
49 3.5481316865196076e-13 3.9513246094514711e-12 -5.8962416114147575e-13
91 3.0844639343568044e-12 3.2068744005716401e-12 -5.8962416114147575e-13
51 1.2791192053052708e-03 -2.3062299895585487e-04 -2.3270304411728429e-03
87 1.2791189965420378e-03 -2.3062288056873746e-04 -2.3270304418270943e-03
112 1.2786802687498921e-03 -2.2348918786172100e-04 -2.3470300433935869e-03
77 1.2843822969277577e-03 -2.2846111450775103e-04 -2.3337020987206666e-03
41 1.2792564910208784e-03 -2.3071982291153646e-04 -2.3270034211648554e-03
76 1.2792467343236389e-03 -2.3071580712917625e-04 -2.3270016397639779e-03
40 1.2791890867719041e-03 -2.3067216355202627e-04 -2.3270170935481760e-03