LAMMPS data file via write_data, version 30 Jul 2016, timestep = 50400000

180 atoms
2 atom types

0.0000000000000000e+00 2.0000000000000000e+01 xlo xhi
0.0000000000000000e+00 2.0000000000000000e+01 ylo yhi
0.0000000000000000e+00 2.0000000000000000e+01 zlo zhi

Masses

1 3.896
2 4.31

Atoms # meso-molecular

5 1 2 1.0303287681341362e+00 -5.7416054910849755e+02 1.0000000000000000e+00 4.0566732696359926e+00 6.8984112253727154e+00 4.9726533984536472e+00 
22 1 2 1.0280282341059661e+00 -4.5091569367480821e+02 1.0000000000000000e+00 3.9911986400379034e+00 6.4885210891190876e+00 4.9637324734262318e+00 
36 1 2 1.0274639444065365e+00 -3.8075146674465668e+02 1.0000000000000000e+00 4.5672629211560141e+00 7.5132513673016357e+00 3.0053386202050532e+00 
30 1 2 1.0274889085913088e+00 -3.4692420947320318e+02 1.0000000000000000e+00 4.5706884111337747e+00 7.5127462065951756e+00 2.9903472356740295e+00 
67 1 2 1.0275074410486682e+00 -3.9373330679294429e+02 1.0000000000000000e+00 4.5743922083236299e+00 7.5120426320282450e+00 2.9733248551608011e+00 
72 1 2 1.0275087070483824e+00 -3.4650990491439279e+02 1.0000000000000000e+00 4.5747374439359607e+00 7.5119674071325013e+00 2.9716906502993785e+00 
31 1 2 1.0275120687926285e+00 -3.6320678777592684e+02 1.0000000000000000e+00 4.5757892466820520e+00 7.5117270356705399e+00 2.9666584521360342e+00 
25 1 2 1.0275178965823726e+00 -4.7181243288077707e+02 1.0000000000000000e+00 4.5799511889920357e+00 7.5105926922152673e+00 2.9459053816002139e+00 
1 1 2 1.0282174825313146e+00 -5.6951408692024074e+02 1.0000000000000000e+00 5.6133433054433883e+00 6.3985118037647712e+00 3.4093473623699713e+00 
140 1 2 1.0296614001180227e+00 -5.9446518138655620e+02 1.0000000000000000e+00 6.3990965227228038e+00 6.5831823441608250e+00 1.1382413324629523e+00 
18 1 2 1.0280092045066973e+00 -5.3766994651624259e+02 1.0000000000000000e+00 6.2879862865457916e+00 6.7357746680388813e+00 9.6425453881078893e-01 
157 1 2 1.0278372253159107e+00 -4.9977424961264109e+02 1.0000000000000000e+00 6.3256826946758720e+00 6.8732478480818910e+00 9.5533281805292425e-01 
41 1 2 1.0278666990793373e+00 -4.6506736631299373e+02 1.0000000000000000e+00 6.3291535919305151e+00 6.8724377303041617e+00 9.5739755272843485e-01 
79 1 2 1.0279278996453818e+00 -4.1260285846540523e+02 1.0000000000000000e+00 6.3367691294705901e+00 6.8706016805246382e+00 9.6202112817178653e-01 
2 1 2 1.0280341710706800e+00 -5.1004822092263788e+02 1.0000000000000000e+00 6.3497039955646697e+00 6.8623181778540525e+00 9.7062616650586064e-01 
91 1 2 1.0280603742004089e+00 -4.2526720396032835e+02 1.0000000000000000e+00 6.3564506200938382e+00 6.8662668725710319e+00 9.7451128489531613e-01 
97 1 2 1.0282592309910663e+00 -3.3809035452405044e+02 1.0000000000000000e+00 6.3602719034051400e+00 6.7361708283346600e+00 1.0050391691798382e+00 
48 1 2 1.0282706834101685e+00 -4.7122550106348007e+02 1.0000000000000000e+00 6.3689377793495900e+00 6.7356869082174509e+00 1.0109616672762445e+00 
103 1 2 1.0282698540319404e+00 -4.5105573360007924e+02 1.0000000000000000e+00 6.3711427533667857e+00 6.7380953050500025e+00 1.0115806580216025e+00 
160 1 2 1.0281640942389676e+00 -3.7841369370709543e+02 1.0000000000000000e+00 6.3697561062520656e+00 6.8458152825165941e+00 9.8532640867226207e-01 
50 1 2 1.0282702822770398e+00 -4.1983252600278394e+02 1.0000000000000000e+00 6.3719507717844301e+00 6.7384258753139799e+00 1.0120125947440206e+00 
127 1 2 1.0282704652741974e+00 -4.2204029721730791e+02 1.0000000000000000e+00 6.3722882391803903e+00 6.7385587506734641e+00 1.0121954618848390e+00 
128 1 2 1.0282710436634399e+00 -4.4473629125530687e+02 1.0000000000000000e+00 6.3734905217673035e+00 6.7390844057234460e+00 1.0128310423213838e+00 
62 1 2 1.0282789539009423e+00 -3.5882079712341294e+02 1.0000000000000000e+00 6.3977974208306829e+00 6.7531654113612918e+00 1.0255448364891977e+00 
61 1 2 1.0305543122545833e+00 -3.8040309442892448e+02 1.0000000000000000e+00 6.3602044936235851e+00 7.4762767766251041e+00 1.7274512272015559e+00 
6 1 2 1.0282794920698506e+00 -5.0327014572076240e+02 1.0000000000000000e+00 6.4445085853847273e+00 6.8909247277960466e+00 1.0400597833876823e+00 
99 1 2 1.0283162130699273e+00 -3.5627763026854768e+02 1.0000000000000000e+00 6.4590872210932631e+00 6.8307045747767532e+00 1.0592652813866252e+00 
74 1 2 1.0282687266447414e+00 -3.7335118641782532e+02 1.0000000000000000e+00 6.4653874816824697e+00 6.9078764856844828e+00 1.0597286980622829e+00 
96 1 2 1.0282774644377173e+00 -4.8787959709586949e+02 1.0000000000000000e+00 6.4665815156587394e+00 6.9036157194843781e+00 1.0609104354627275e+00 
29 1 2 1.0282705090125062e+00 -5.1597868863839403e+02 1.0000000000000000e+00 6.4680599572181530e+00 6.9077873207276976e+00 1.0624104079022478e+00 
177 1 2 1.0283477734331516e+00 -5.7208554960968320e+02 1.0000000000000000e+00 3.8602971651642779e+00 6.5407891570417007e+00 5.1014701458298140e+00 
58 1 2 1.0283462133617591e+00 -3.0867767869705318e+02 1.0000000000000000e+00 3.8599757416346430e+00 6.5404176029256309e+00 5.1015140448075975e+00 
165 1 2 1.0283440877092853e+00 -4.0743436111375428e+02 1.0000000000000000e+00 3.8595470583158846e+00 6.5400686139289563e+00 5.1016606865958085e+00 
52 1 2 1.0283425735048579e+00 -3.4284309663715953e+02 1.0000000000000000e+00 3.8592399016515366e+00 6.5397888736101644e+00 5.1017475198669544e+00 
40 1 2 1.0283412914514571e+00 -4.0051319458124919e+02 1.0000000000000000e+00 3.8589812789081792e+00 6.5395589706898178e+00 5.1018239149480422e+00 
100 1 2 1.0283406247266760e+00 -3.4781433062188950e+02 1.0000000000000000e+00 3.8588462784607045e+00 6.5394289994681607e+00 5.1018576801445059e+00 
12 1 2 1.0283347924837560e+00 -4.6956147310921386e+02 1.0000000000000000e+00 3.8576840385961888e+00 6.5387469210561315e+00 5.1024122612083316e+00 
136 1 2 1.0283327588305695e+00 -3.7954391000687860e+02 1.0000000000000000e+00 3.8572720839103170e+00 6.5380977558263655e+00 5.1023605439459780e+00 
42 1 2 1.0283295936849317e+00 -4.3926677977934065e+02 1.0000000000000000e+00 3.8566415708905670e+00 6.5375625517718179e+00 5.1025592814126215e+00 
37 1 2 1.0283286452768154e+00 -4.5069780721403134e+02 1.0000000000000000e+00 3.8564528576773180e+00 6.5373949680650334e+00 5.1026140797107127e+00 
168 1 2 1.0283271522872377e+00 -6.0794505924078078e+02 1.0000000000000000e+00 3.8561560339430097e+00 6.5371439055894687e+00 5.1027077579399922e+00 
132 1 2 1.0283271522864499e+00 -6.1045109495572478e+02 1.0000000000000000e+00 3.8561560337860894e+00 6.5371439054543501e+00 5.1027077579879832e+00 
89 1 2 1.0283271522858588e+00 -3.3207084825538027e+02 1.0000000000000000e+00 3.8561560336665490e+00 6.5371439053516367e+00 5.1027077580245850e+00 
167 1 2 1.0283271522875459e+00 -5.1972895730405321e+02 1.0000000000000000e+00 3.8561560340044032e+00 6.5371439056409129e+00 5.1027077579203457e+00 
133 1 2 1.0283182164471458e+00 -4.7747891822062275e+02 1.0000000000000000e+00 3.8543833664795293e+00 6.5355940340004324e+00 5.1032320671305138e+00 
125 1 2 1.0283152431303157e+00 -4.6344392762473080e+02 1.0000000000000000e+00 3.8537945110132772e+00 6.5350565163187513e+00 5.1033905669521280e+00 
76 1 2 1.0282156747927600e+00 -3.8950831436184541e+02 1.0000000000000000e+00 8.9530566625545552e-02 7.1242670643912316e+00 5.7633456150303468e+00 
106 1 2 1.0282156763874177e+00 -4.4953725849622907e+02 1.0000000000000000e+00 8.9529913851525408e-02 7.1242673447137665e+00 5.7633456879109994e+00 
82 1 2 1.0282156737803878e+00 -3.6389279243974386e+02 1.0000000000000000e+00 8.9530980684150288e-02 7.1242668863806946e+00 5.7633455700982124e+00 
83 1 2 1.0282156787254433e+00 -4.0290130160631054e+02 1.0000000000000000e+00 8.9528957312889026e-02 7.1242677556458114e+00 5.7633457935447803e+00 
148 1 2 1.0282156776202369e+00 -4.9374156044977929e+02 1.0000000000000000e+00 8.9529409731835777e-02 7.1242675614217852e+00 5.7633457426931853e+00 
142 1 2 1.0282156806575404e+00 -5.0228346312359571e+02 1.0000000000000000e+00 8.9528167136042225e-02 7.1242680951625781e+00 5.7633458803721860e+00 
124 1 2 1.0282156825318722e+00 -3.7700507177545484e+02 1.0000000000000000e+00 8.9527400457960968e-02 7.1242684244485028e+00 5.7633459654367645e+00 
39 1 2 1.0282156735151784e+00 -4.6898179370021478e+02 1.0000000000000000e+00 8.9531089257135765e-02 7.1242668397505851e+00 5.7633455580025608e+00 
153 1 2 1.0282156773197393e+00 -4.4149822205898249e+02 1.0000000000000000e+00 8.9529532498746234e-02 7.1242675085963008e+00 5.7633457296923840e+00 
154 1 2 1.0282156787115209e+00 -4.2704662284462677e+02 1.0000000000000000e+00 8.9528963078086318e-02 7.1242677532027558e+00 5.7633457926858425e+00 
147 1 2 1.0282156806985030e+00 -4.6483049266510551e+02 1.0000000000000000e+00 8.9528150504228715e-02 7.1242681023674965e+00 5.7633458818125520e+00 
88 1 2 1.0282156759685048e+00 -3.6573188105626457e+02 1.0000000000000000e+00 8.9530085598000950e-02 7.1242672710927462e+00 5.7633456678653605e+00 
117 1 2 1.0282156757701235e+00 -4.2123913553492662e+02 1.0000000000000000e+00 8.9530166616792223e-02 7.1242672362105957e+00 5.7633456594151129e+00 
118 1 2 1.0282156789955414e+00 -4.4036174965565368e+02 1.0000000000000000e+00 8.9528846860507522e-02 7.1242678031139155e+00 5.7633458056209825e+00 
105 1 2 1.0282156773003404e+00 -4.1694854253297183e+02 1.0000000000000000e+00 8.9529540477186031e-02 7.1242675051877358e+00 5.7633457286847287e+00 
112 1 2 1.0282156784763381e+00 -4.1413546492716182e+02 1.0000000000000000e+00 8.9529059272734871e-02 7.1242677118703401e+00 5.7633457821124265e+00 
75 1 2 1.0282156771551703e+00 -4.3272280247684336e+02 1.0000000000000000e+00 8.9529599977735880e-02 7.1242674796784025e+00 5.7633457217687116e+00 
111 1 2 1.0282156765402279e+00 -4.5053719204944844e+02 1.0000000000000000e+00 8.9529851602692237e-02 7.1242673715890854e+00 5.7633456939097529e+00 
57 1 2 1.0286273042135574e+00 -3.9028825233391524e+02 1.0000000000000000e+00 1.1755048324589474e+01 3.4535072137223843e+00 1.6132107744769790e+01 
152 1 2 1.0282540837959360e+00 -4.4456815425098370e+02 1.0000000000000000e+00 1.1820241913015066e+01 3.5932030751000017e+00 1.6123242818490912e+01 
7 1 2 1.0294525422128273e+00 -4.4905329297685887e+02 1.0000000000000000e+00 1.2127486678023969e+01 3.6985679839658689e+00 1.6075855371291663e+01 
121 1 2 1.0289287543757035e+00 -3.8078361507026852e+02 1.0000000000000000e+00 1.1786105143898229e+01 3.4582145738852397e+00 1.6184636594970687e+01 
87 1 2 1.0273681811005826e+00 -2.7799410839465173e+02 1.0000000000000000e+00 1.1876601012445617e+01 3.1573712944465209e+00 1.6256718037977986e+01 
38 1 2 1.0282528590779176e+00 -4.4813578444320046e+02 1.0000000000000000e+00 1.1822589672034992e+01 3.5957594533195265e+00 1.6123261533704838e+01 
17 1 2 1.0281291270365911e+00 -4.3068756036543397e+02 1.0000000000000000e+00 1.2438194909967327e+01 3.2888585445244849e+00 1.6310775034565157e+01 
151 1 2 1.0282540838016885e+00 -5.3037969728191217e+02 1.0000000000000000e+00 1.1820241904866265e+01 3.5932030661546275e+00 1.6123242818301694e+01 
172 1 2 1.0282538789502631e+00 -4.6132033037367387e+02 1.0000000000000000e+00 1.1820456815044171e+01 3.5934300888892152e+00 1.6123268404265211e+01 
3 1 2 1.0282540281833370e+00 -5.1398665837924273e+02 1.0000000000000000e+00 1.1820274109943696e+01 3.5932333835458659e+00 1.6123255618805640e+01 
115 1 2 1.0282540838180394e+00 -4.5443930284976437e+02 1.0000000000000000e+00 1.1820241880716331e+01 3.5932030395514158e+00 1.6123242817966588e+01 
146 1 2 1.0282540837814476e+00 -4.4135198190696502e+02 1.0000000000000000e+00 1.1820241935194032e+01 3.5932030996098154e+00 1.6123242818611438e+01 
176 1 2 1.0283534780027748e+00 -7.1182517041457777e+02 1.0000000000000000e+00 1.1786652604954069e+01 3.5470280174421589e+00 1.6122279033366684e+01 
92 1 2 1.0282581615202206e+00 -3.2310512178226344e+02 1.0000000000000000e+00 1.1816051822664008e+01 3.5884973152846174e+00 1.6123119289461659e+01 
163 1 2 1.0282557717674097e+00 -4.4726211152451998e+02 1.0000000000000000e+00 1.1818472096429739e+01 3.5912797252313524e+00 1.6123106776019238e+01 
80 1 2 1.0282534629602595e+00 -3.4770318723298169e+02 1.0000000000000000e+00 1.1821077770149596e+01 3.5941048054895273e+00 1.6123289323780757e+01 
145 1 2 1.0282540838108838e+00 -4.8481061564044495e+02 1.0000000000000000e+00 1.1820241892068617e+01 3.5932030521360279e+00 1.6123242817934013e+01 
116 1 2 1.0282540838110241e+00 -4.1138053504787058e+02 1.0000000000000000e+00 1.1820241892365921e+01 3.5932030525142649e+00 1.6123242817816180e+01 
9 1 2 1.0282541023790586e+00 -4.8690558931080648e+02 1.0000000000000000e+00 1.1820202890878271e+01 3.5931588709743520e+00 1.6123245171868795e+01 
73 1 2 1.0282540837998353e+00 -3.6381165139341084e+02 1.0000000000000000e+00 1.1820241907861067e+01 3.5932030694828030e+00 1.6123242818274118e+01 
98 1 2 1.0282537009722881e+00 -3.2557493989708024e+02 1.0000000000000000e+00 1.1820761018218885e+01 3.5937660048638551e+00 1.6123267219328497e+01 
110 1 2 1.0282540838197560e+00 -4.5488561671037786e+02 1.0000000000000000e+00 1.1820241879682088e+01 3.5932030385652705e+00 1.6123242817584639e+01 
109 1 2 1.0282540838022134e+00 -3.7268341697908937e+02 1.0000000000000000e+00 1.1820241903415068e+01 3.5932030644855364e+00 1.6123242818450269e+01 
13 1 2 1.0296160364057021e+00 -4.4831722277405021e+02 1.0000000000000000e+00 1.6187978152941145e+01 7.0668162045627350e+00 5.8587041145025545e+00 
162 1 2 1.0279537791540572e+00 -5.9716984012574710e+02 1.0000000000000000e+00 1.6075892609675261e+01 6.7675395736908648e+00 6.1659440094961928e+00 
126 1 2 1.0279537791665978e+00 -5.0990692906329645e+02 1.0000000000000000e+00 1.6075892604366370e+01 6.7675396544617312e+00 6.1659440345495966e+00 
90 1 2 1.0279537791676094e+00 -4.2112398952381909e+02 1.0000000000000000e+00 1.6075892603912248e+01 6.7675396613329157e+00 6.1659440366641807e+00 
161 1 2 1.0279537791599191e+00 -5.7983182725465997e+02 1.0000000000000000e+00 1.6075892607211731e+01 6.7675396111982487e+00 6.1659440211419652e+00 
94 1 2 1.0279515684973457e+00 -3.0747702094579216e+02 1.0000000000000000e+00 1.6074825835047626e+01 6.7714054069702332e+00 6.1604034382802402e+00 
70 1 2 1.0279513833797915e+00 -4.3784648487343816e+02 1.0000000000000000e+00 1.6074756951945641e+01 6.7714779327798817e+00 6.1598683625048247e+00 
169 1 2 1.0279510616198972e+00 -5.9148483610194114e+02 1.0000000000000000e+00 1.6074631415345280e+01 6.7716160599324828e+00 6.1588846157183736e+00 
141 1 2 1.0279506231903670e+00 -5.0868458408403370e+02 1.0000000000000000e+00 1.6074854024443606e+01 6.7684962602263870e+00 6.1580881510103502e+00 
24 1 2 1.0279503757895159e+00 -5.2719912641048961e+02 1.0000000000000000e+00 1.6074389531292084e+01 6.7715430334641100e+00 6.1566351056867044e+00 
85 1 2 1.0279503725859651e+00 -3.5000881147695151e+02 1.0000000000000000e+00 1.6074424006543044e+01 6.7712738977729643e+00 6.1567118067386497e+00 
43 1 2 1.0279547005426666e+00 -3.9316212976836016e+02 1.0000000000000000e+00 1.6076969412795879e+01 6.7577331524902009e+00 6.1655110244653537e+00 
46 1 2 1.0279541452323733e+00 -3.3890620193232564e+02 1.0000000000000000e+00 1.6076772680209267e+01 6.7584977814810179e+00 6.1647076740326439e+00 
68 1 2 1.0279511924831717e+00 -3.8529787726784940e+02 1.0000000000000000e+00 1.6075373692891183e+01 6.7653049560863536e+00 6.1596787484800144e+00 
33 1 2 1.0279511924815743e+00 -3.6175283148872074e+02 1.0000000000000000e+00 1.6075373691798251e+01 6.7653049627321575e+00 6.1596787453235313e+00 
69 1 2 1.0279511925272338e+00 -3.0281421566332466e+02 1.0000000000000000e+00 1.6075373726068609e+01 6.7653047552498720e+00 6.1596788454846143e+00 
26 1 2 1.0279511925272480e+00 -4.1510604044100461e+02 1.0000000000000000e+00 1.6075373726072616e+01 6.7653047552286383e+00 6.1596788454986475e+00 
63 1 2 1.0279511924832447e+00 -3.0625568463136972e+02 1.0000000000000000e+00 1.6075373692984300e+01 6.7653049555191291e+00 6.1596787487522802e+00 
27 1 2 1.0279511925272473e+00 -3.4876953511049402e+02 1.0000000000000000e+00 1.6075373726073074e+01 6.7653047552230063e+00 6.1596788454973179e+00 
32 1 2 1.0279511924515865e+00 -4.4471504862868159e+02 1.0000000000000000e+00 1.6075373669210389e+01 6.7653050994253565e+00 6.1596786792402600e+00 
122 1 2 1.0279519040693368e+00 -3.8646452213933776e+02 1.0000000000000000e+00 1.6075824163090964e+01 6.7627120742374727e+00 6.1610461559457743e+00 
53 1 2 1.0280803687815983e+00 -3.8863401912982465e+02 1.0000000000000000e+00 1.6081567608243958e+01 6.7168461310651049e+00 6.0644237057059946e+00 
51 1 2 1.0282155365515719e+00 -3.1390323585733921e+02 1.0000000000000000e+00 1.9463243805710707e+01 6.9644554226901985e+00 6.2672042243257842e+00 
86 1 2 1.0275428224907466e+00 -3.4191510022019588e+02 1.0000000000000000e+00 1.9759370157689972e+01 7.2773890150031182e+00 5.9169746106173502e+00 
123 1 2 1.0276930738655736e+00 -3.2301932749639269e+02 1.0000000000000000e+00 1.6066264183839984e+01 9.7192887306476727e-01 1.3974737084544060e+01 
175 1 2 1.0271249228062076e+00 -6.3943311380794387e+02 1.0000000000000000e+00 1.6261603894658794e+01 7.3096540260999643e-01 1.4216297292966201e+01 
93 1 2 1.0300590528279849e+00 -2.8932196675315475e+02 1.0000000000000000e+00 1.5692950566707076e+01 1.0461948052851764e+00 1.3366825644172971e+01 
130 1 2 1.0295362828109735e+00 -3.7402925943099262e+02 1.0000000000000000e+00 1.5260067261300733e+01 9.4454628223010573e-01 1.3253158787065077e+01 
143 1 2 1.0290216651239965e+00 -3.9495239837199296e+02 1.0000000000000000e+00 1.5174926335011500e+01 1.0045872171501360e+00 1.3365882069622803e+01 
138 1 2 1.0290216651250093e+00 -3.5696376971791625e+02 1.0000000000000000e+00 1.5174926334950335e+01 1.0045872171321391e+00 1.3365882069656529e+01 
108 1 2 1.0290216651249466e+00 -3.2589634094861361e+02 1.0000000000000000e+00 1.5174926334982223e+01 1.0045872171232986e+00 1.3365882069625753e+01 
173 1 2 1.0290216651228188e+00 -4.9442990521327971e+02 1.0000000000000000e+00 1.5174926335047378e+01 1.0045872171830472e+00 1.3365882069619053e+01 
144 1 2 1.0290216651239010e+00 -3.8278721546026264e+02 1.0000000000000000e+00 1.5174926335011712e+01 1.0045872171539090e+00 1.3365882069625403e+01 
179 1 2 1.0290216651236701e+00 -4.0643931200992694e+02 1.0000000000000000e+00 1.5174926335016183e+01 1.0045872171608274e+00 1.3365882069626835e+01 
137 1 2 1.0290216651214421e+00 -3.8945173343869436e+02 1.0000000000000000e+00 1.5174926335109177e+01 1.0045872172152182e+00 1.3365882069595145e+01 
174 1 2 1.0290216651258088e+00 -3.6242302011046144e+02 1.0000000000000000e+00 1.5174926334922676e+01 1.0045872171103476e+00 1.3365882069661820e+01 
180 1 2 1.0290216651235067e+00 -4.1153303840644463e+02 1.0000000000000000e+00 1.5174926335022301e+01 1.0045872171642132e+00 1.3365882069624357e+01 
54 1 2 1.0290356605937641e+00 -4.6080357071729060e+02 1.0000000000000000e+00 1.5185402104505412e+01 1.0005117619910977e+00 1.3354986207159065e+01 
59 1 2 1.0290802495779710e+00 -5.2837707807259392e+02 1.0000000000000000e+00 1.5140110399116807e+01 1.0334802349160872e+00 1.3418691483326381e+01 
34 1 2 1.0291382034842120e+00 -4.7470925941255894e+02 1.0000000000000000e+00 1.5110569090623896e+01 1.0437300143186556e+00 1.3449031109673180e+01 
20 1 2 1.0281664889411146e+00 -5.2885693079529176e+02 1.0000000000000000e+00 1.4672123283929475e+01 1.0874802784415596e+00 1.3846485500918257e+01 
81 1 2 1.0275871593445975e+00 -3.0380814388114771e+02 1.0000000000000000e+00 1.4495969974929215e+01 1.0974877672057295e+00 1.4040393851204046e+01 
102 1 2 1.0277267481146124e+00 -4.0464214670710135e+02 1.0000000000000000e+00 1.4498319701800302e+01 1.1366823031807340e+00 1.4037259791688822e+01 
10 1 2 1.0276044920491731e+00 -3.9381084254547471e+02 1.0000000000000000e+00 1.4487882294332371e+01 1.1087443761885512e+00 1.4049462845615468e+01 
11 1 2 1.0286909109288565e+00 -5.6783282338491654e+02 1.0000000000000000e+00 1.4584598836279653e+01 1.7291749370103473e+00 1.4329849553570453e+01 
134 1 2 1.0242128136083257e+00 -4.5169779271497526e+02 1.0000000000000000e+00 1.5707363822702481e+01 1.1082120802330440e+00 1.6579156047132557e+01 
45 1 2 1.0248150392022608e+00 -3.2833896637140862e+02 1.0000000000000000e+00 1.4510103551994485e+01 8.5610891258454958e-01 1.6283947875660715e+01 
104 1 2 1.0264310070802993e+00 -4.1462720148406044e+02 1.0000000000000000e+00 1.5968451720999969e+01 5.2938230458888524e-01 1.7482783252637081e+01 
166 1 2 1.0259220016822206e+00 -4.2462535026345080e+02 1.0000000000000000e+00 1.3567223291715933e+01 1.7218420500304679e+00 1.5161297510104305e+01 
14 1 2 1.0286129142267035e+00 -3.6801223767640369e+02 1.0000000000000000e+00 1.7524451685703955e+01 1.8106743538864134e+01 1.1663960188595206e+01 
84 1 2 1.0270131816488708e+00 -3.4807790620776211e+02 1.0000000000000000e+00 1.7521697402077663e+01 1.8094063638128986e+01 1.1613249225377279e+01 
4 1 2 1.0282015674553129e+00 -5.1093940391055531e+02 1.0000000000000000e+00 1.7527495098615820e+01 1.8107530167471531e+01 1.1747206799881212e+01 
56 1 2 1.0271966581232645e+00 -3.9440982339164748e+02 1.0000000000000000e+00 1.7458539267180576e+01 1.8210692581421874e+01 1.1328654744769366e+01 
164 1 2 1.0270987893041983e+00 -5.1097080963833287e+02 1.0000000000000000e+00 1.7453807276772849e+01 1.8208391241206396e+01 1.1326204907073270e+01 
129 1 2 1.0270020816632126e+00 -3.5959688057597862e+02 1.0000000000000000e+00 1.7454434105952949e+01 1.8213313797781414e+01 1.1321299359214974e+01 
158 1 2 1.0269886415150480e+00 -4.9184091697852159e+02 1.0000000000000000e+00 1.7453017674733182e+01 1.8213518450548719e+01 1.1320034181272954e+01 
149 1 2 1.0269885951756696e+00 -4.4652171198618004e+02 1.0000000000000000e+00 1.7452871386828253e+01 1.8213598388231965e+01 1.1319871714042533e+01 
77 1 2 1.0269885951756679e+00 -4.0534190317750284e+02 1.0000000000000000e+00 1.7452871386828257e+01 1.8213598388231965e+01 1.1319871714042515e+01 
78 1 2 1.0269885951756701e+00 -3.9576282220049853e+02 1.0000000000000000e+00 1.7452871386828242e+01 1.8213598388231954e+01 1.1319871714042545e+01 
150 1 2 1.0269885951756705e+00 -5.2656267559162529e+02 1.0000000000000000e+00 1.7452871386828217e+01 1.8213598388231961e+01 1.1319871714042527e+01 
159 1 2 1.0269885951674833e+00 -4.0204075548992711e+02 1.0000000000000000e+00 1.7452871450415557e+01 1.8213598355519100e+01 1.1319871782610349e+01 
156 1 2 1.0269885951756685e+00 -4.0082295616967878e+02 1.0000000000000000e+00 1.7452871386828278e+01 1.8213598388231965e+01 1.1319871714042533e+01 
119 1 2 1.0269885951756696e+00 -3.9352836008613724e+02 1.0000000000000000e+00 1.7452871386828239e+01 1.8213598388231954e+01 1.1319871714042538e+01 
155 1 2 1.0269885951756679e+00 -4.3170343318554870e+02 1.0000000000000000e+00 1.7452871386828278e+01 1.8213598388231954e+01 1.1319871714042540e+01 
49 1 2 1.0269885952557780e+00 -4.1784237276266646e+02 1.0000000000000000e+00 1.7452871471497549e+01 1.8213598291269360e+01 1.1319871850509886e+01 
113 1 2 1.0269885951756685e+00 -4.2776771264827107e+02 1.0000000000000000e+00 1.7452871386828257e+01 1.8213598388231944e+01 1.1319871714042538e+01 
120 1 2 1.0269885951756683e+00 -4.2929980205336983e+02 1.0000000000000000e+00 1.7452871386828292e+01 1.8213598388231972e+01 1.1319871714042538e+01 
114 1 2 1.0269885951756665e+00 -4.5016809603439691e+02 1.0000000000000000e+00 1.7452871386828264e+01 1.8213598388231929e+01 1.1319871714042540e+01 
71 1 2 1.0269885841596580e+00 -5.0033596731655683e+02 1.0000000000000000e+00 1.7452829579342488e+01 1.8213631061535668e+01 1.1319817228758732e+01 
171 1 2 1.0269883677574958e+00 -4.9468916314190483e+02 1.0000000000000000e+00 1.7452579775184844e+01 1.8213915570047966e+01 1.1319416675220632e+01 
35 1 2 1.0257286961935532e+00 -4.8438865935302755e+02 1.0000000000000000e+00 1.7334959775526542e+01 1.8351646479386822e+01 1.2379791256034508e+01 
8 1 2 1.0285257546998603e+00 -4.6403541244954454e+02 1.0000000000000000e+00 1.6983713923886668e+01 1.8652892178053708e+01 1.2763830524206215e+01 
107 1 2 1.0290136241300072e+00 -4.3009671403007940e+02 1.0000000000000000e+00 1.6192436110303319e+01 1.9633905113949982e+01 1.7712741353864747e+01 
28 1 2 1.0282755458534703e+00 -4.6399269641100807e+02 1.0000000000000000e+00 1.6165982765521864e+01 1.9678700866575582e+01 1.7759854125997837e+01 
135 1 2 1.0282844339914279e+00 -4.8836704012904744e+02 1.0000000000000000e+00 1.6165799508360337e+01 1.9678527809296501e+01 1.7759730481630985e+01 
19 1 2 1.0282872605743787e+00 -4.2823792762758143e+02 1.0000000000000000e+00 1.6165390649887410e+01 1.9678289451312924e+01 1.7759718022867681e+01 
178 1 2 1.0282958298748885e+00 -4.6451618907944089e+02 1.0000000000000000e+00 1.6160144798474271e+01 1.9675190441574575e+01 1.7759787099098592e+01 
21 1 2 1.0283118445581816e+00 -2.9225801394602018e+02 1.0000000000000000e+00 1.6165061543236558e+01 1.9678005631866348e+01 1.7759415129272725e+01 
65 1 2 1.0283217714355188e+00 -4.8995726967068214e+02 1.0000000000000000e+00 1.6162359763185485e+01 1.9676337750529711e+01 1.7759360642649703e+01 
55 1 2 1.0283204450556129e+00 -3.8319571258205224e+02 1.0000000000000000e+00 1.6167090466192736e+01 1.9679138708791964e+01 1.7759200352528303e+01 
64 1 2 1.0283110389542589e+00 -4.4526920786083235e+02 1.0000000000000000e+00 1.6160012336383694e+01 1.9674911585309086e+01 1.7759515826370258e+01 
60 1 2 1.0282980120541416e+00 -4.9212272200180473e+02 1.0000000000000000e+00 1.6158920740535244e+01 1.9674322717057702e+01 1.7759709187908673e+01 
131 1 2 1.0283194299877432e+00 -5.1257299394025642e+02 1.0000000000000000e+00 1.6165671164901180e+01 1.9678335974415340e+01 1.7759292081433575e+01 
139 1 2 1.0268306464398202e+00 -4.9300557433014910e+02 1.0000000000000000e+00 1.6190546672824325e+01 1.9647570711564995e+01 1.7748313802899190e+01 
47 1 2 1.0282945795282077e+00 -4.5946989543869802e+02 1.0000000000000000e+00 1.6158835813777635e+01 1.9674432089867913e+01 1.7759834323862510e+01 
23 1 2 1.0282934185957799e+00 -5.4451042880874616e+02 1.0000000000000000e+00 1.6158014257173864e+01 1.9674219496347199e+01 1.7760007529242728e+01 
101 1 2 1.0282931548265604e+00 -4.0893305662709480e+02 1.0000000000000000e+00 1.6157849399849269e+01 1.9674138607589043e+01 1.7760021721072409e+01 
95 1 2 1.0282931356914493e+00 -4.7318923460896161e+02 1.0000000000000000e+00 1.6157841945925174e+01 1.9674134703545509e+01 1.7760022305901369e+01 
15 1 2 1.0282923326570199e+00 -3.6216953387396291e+02 1.0000000000000000e+00 1.6157520262037913e+01 1.9673966982171933e+01 1.7760047533985947e+01 
44 1 2 1.0283792235672213e+00 -4.8412693580798805e+02 1.0000000000000000e+00 1.6157082624736763e+01 1.9667529611598553e+01 1.7755685186874128e+01 
170 1 2 1.0276078059380562e+00 -5.9550051964432021e+02 1.0000000000000000e+00 1.6190345616061986e+01 1.9665060182412414e+01 1.7750179221435662e+01 
66 1 2 1.0275785777885820e+00 -4.9890025555820722e+02 1.0000000000000000e+00 1.6190449252158697e+01 1.9688431886226205e+01 1.7763044047338912e+01 
16 1 2 1.0274906243656852e+00 -3.6677586553354968e+02 1.0000000000000000e+00 1.6200882998780628e+01 1.9691285860672895e+01 1.7760941189298055e+01 

Velocities

5 -8.6377145144119649e-02 8.0144623832653514e-02 1.5615555221737194e-02
22 -6.6163380535089730e-02 6.6309690601756024e-02 2.7967730129278656e-03
36 -9.0349997688042305e-02 6.1636244359960457e-02 8.2943388051748175e-03
30 -9.0492009680373950e-02 6.2102007639614792e-02 8.0942738061277643e-03
67 -9.0654543843382590e-02 6.2617308854252041e-02 7.8676318294284217e-03
72 -9.0670000896880834e-02 6.2665662201050798e-02 7.8459465761672644e-03
31 -9.0717292362526541e-02 6.2813121661921503e-02 7.7791695437094098e-03
25 -9.0904935266828371e-02 6.3394696732777520e-02 7.5034652374287225e-03
1 -9.7373979601920360e-02 6.4925806823491292e-02 -1.0034871557056261e-03
140 -8.6511250899751105e-02 8.5760705861521527e-02 -7.2970323897058589e-03
18 -1.3265314947539744e-01 7.3444108811609871e-02 -2.5014753142399999e-02
157 -1.3140904614225504e-01 7.5223976985576521e-02 -2.8733085570777372e-02
41 -1.3120368296202764e-01 7.5172970537055642e-02 -2.8665030816395532e-02
79 -1.3077778172014773e-01 7.5063133750794139e-02 -2.8475116933383570e-02
2 -1.3016460316037839e-01 7.4781172423514716e-02 -2.7854683221243886e-02
91 -1.2982083334819561e-01 7.4809603256638338e-02 -2.7794580200405795e-02
97 -1.3073748879814048e-01 7.3350329688718893e-02 -2.2239610195314511e-02
48 -1.3057675526203893e-01 7.3348721096861136e-02 -2.1887861344136353e-02
103 -1.3051411331366172e-01 7.3352173683717631e-02 -2.1910630088091354e-02
160 -1.2946635057988037e-01 7.4329981665822581e-02 -2.6535368376318348e-02
50 -1.3049602410082836e-01 7.3352433288224952e-02 -2.1894846939073537e-02
127 -1.3048851210596676e-01 7.3352522007075247e-02 -2.1888041800542865e-02
128 -1.3046119914277901e-01 7.3352865026296288e-02 -2.1866167781312597e-02
62 -1.2984762086810014e-01 7.3353536197769922e-02 -2.1579858262007468e-02
61 -1.3365391289820758e-01 1.0709970962278165e-01 3.6380594133039166e-03
6 -1.2622740310150482e-01 7.4842148716975324e-02 -2.4906566235215279e-02
99 -1.2732929801999546e-01 7.3739542292826407e-02 -2.2070060521578578e-02
74 -1.2514098553766095e-01 7.5163405765540203e-02 -2.4452304815281902e-02
96 -1.2523917332948714e-01 7.5045829151590790e-02 -2.4242145742767500e-02
29 -1.2506675616658455e-01 7.5147485119600649e-02 -2.4310284884895648e-02
177 -7.1605774200846059e-02 6.5873972589781796e-02 1.0305042066484202e-02
58 -7.1608682303281587e-02 6.5860749916792763e-02 1.0325299366678069e-02
165 -7.1612088295843632e-02 6.5843926839045039e-02 1.0354950834612124e-02
52 -7.1614504205261206e-02 6.5831550209983020e-02 1.0375842729838592e-02
40 -7.1616480888696793e-02 6.5821094627534021e-02 1.0393606262431467e-02
100 -7.1617516182838528e-02 6.5815538909761731e-02 1.0402744148606823e-02
12 -7.1625139431233706e-02 6.5770209331353108e-02 1.0489298474014853e-02
136 -7.1628406438697403e-02 6.5750683853056630e-02 1.0513818099955512e-02
42 -7.1632376941661760e-02 6.5723969349381225e-02 1.0559045705473689e-02
37 -7.1633538734605401e-02 6.5715833250680089e-02 1.0572548336028132e-02
168 -7.1635306987970090e-02 6.5703058979942761e-02 1.0594067172741441e-02
132 -7.1635306988913530e-02 6.5703058973164474e-02 1.0594067184078036e-02