LAMMPS data file via write_data, version 30 Jul 2016, timestep = 50000000

180 atoms
2 atom types

0.0000000000000000e+00 2.0000000000000000e+01 xlo xhi
0.0000000000000000e+00 2.0000000000000000e+01 ylo yhi
0.0000000000000000e+00 2.0000000000000000e+01 zlo zhi

Masses

1 3.896
2 4.31

Atoms # meso-molecular

86 1 2 1.0274512487036458e+00 -3.4191801583388360e+02 1.0000000000000000e+00 2.7903015879929525e+00 2.9059109400520824e+00 4.4909894617576516e+00 
106 1 2 1.0276391870273645e+00 -4.4953849387820202e+02 1.0000000000000000e+00 2.7193666130063017e+00 2.8690227966459307e+00 4.5171023318980428e+00 
82 1 2 1.0276391872537289e+00 -3.6389402782229899e+02 1.0000000000000000e+00 2.7193665259992468e+00 2.8690227513983730e+00 4.5171023370193826e+00 
51 1 2 1.0278272261580765e+00 -3.1390471208248522e+02 1.0000000000000000e+00 2.6782950158215386e+00 2.8542688746138278e+00 4.5700989987423792e+00 
83 1 2 1.0276391868243795e+00 -4.0290253698768231e+02 1.0000000000000000e+00 2.7193666910189327e+00 2.8690228372156805e+00 4.5171023273063025e+00 
148 1 2 1.0276391869203061e+00 -4.9374279583147847e+02 1.0000000000000000e+00 2.7193666541134776e+00 2.8690228180188320e+00 4.5171023293814052e+00 
142 1 2 1.0276391866566796e+00 -5.0228469850450216e+02 1.0000000000000000e+00 2.7193667554599856e+00 2.8690228707257579e+00 4.5171023234656245e+00 
124 1 2 1.0276391864940113e+00 -3.7700630715596833e+02 1.0000000000000000e+00 2.7193668179918875e+00 2.8690229032467962e+00 4.5171023198283047e+00 
39 1 2 1.0276391872767767e+00 -4.6898302908285007e+02 1.0000000000000000e+00 2.7193665171433619e+00 2.8690227467926599e+00 4.5171023375289128e+00 
153 1 2 1.0276391869463966e+00 -4.4149945744073943e+02 1.0000000000000000e+00 2.7193666441056594e+00 2.8690228128170130e+00 4.5171023300312285e+00 
154 1 2 1.0276391868255779e+00 -4.2704785822600752e+02 1.0000000000000000e+00 2.7193666905468881e+00 2.8690228369689987e+00 4.5171023273098347e+00 
147 1 2 1.0276391866531152e+00 -4.6483172804601855e+02 1.0000000000000000e+00 2.7193667568131867e+00 2.8690228714274819e+00 4.5171023233427094e+00 
88 1 2 1.0276391870637056e+00 -3.6573311643831289e+02 1.0000000000000000e+00 2.7193665989903315e+00 2.8690227893514808e+00 4.5171023326051998e+00 
117 1 2 1.0276391870809500e+00 -4.2124037091700768e+02 1.0000000000000000e+00 2.7193665923867987e+00 2.8690227859199933e+00 4.5171023330482010e+00 
118 1 2 1.0276391868009325e+00 -4.4036298503697429e+02 1.0000000000000000e+00 2.7193667000260571e+00 2.8690228418991732e+00 4.5171023267627817e+00 
105 1 2 1.0276391869480752e+00 -4.1694977791472900e+02 1.0000000000000000e+00 2.7193666434539350e+00 2.8690228124774015e+00 4.5171023300556792e+00 
112 1 2 1.0276391868460000e+00 -4.1413670030861454e+02 1.0000000000000000e+00 2.7193666827018599e+00 2.8690228328895722e+00 4.5171023277768647e+00 
75 1 2 1.0276391869606836e+00 -4.3272403785863247e+02 1.0000000000000000e+00 2.7193666385982631e+00 2.8690228099506951e+00 4.5171023303039721e+00 
111 1 2 1.0276391870140817e+00 -4.5053842743138023e+02 1.0000000000000000e+00 2.7193666180759055e+00 2.8690227992779880e+00 4.5171023315041028e+00 
76 1 2 1.0276391871658181e+00 -3.8950954974417704e+02 1.0000000000000000e+00 2.7193665597616481e+00 2.8690227689525569e+00 4.5171023349454211e+00 
22 1 2 1.0289905150538867e+00 -4.5091740240847639e+02 1.0000000000000000e+00 6.0868467782854809e+00 4.3742465255683065e+00 3.9231407718876299e+00 
177 1 2 1.0272614481955145e+00 -5.7208663221998006e+02 1.0000000000000000e+00 6.4134845036863695e+00 4.3191934628151580e+00 3.9272702747635497e+00 
58 1 2 1.0272604769250526e+00 -3.0867876184013022e+02 1.0000000000000000e+00 6.4139160733751162e+00 4.3196102090298973e+00 3.9266568340578774e+00 
165 1 2 1.0272599836540137e+00 -4.0743544494568397e+02 1.0000000000000000e+00 6.4145934233395030e+00 4.3199467011418458e+00 3.9259796465698118e+00 
52 1 2 1.0272595267941027e+00 -3.4284418099351518e+02 1.0000000000000000e+00 6.4150570139114311e+00 4.3202306090438496e+00 3.9254652900591656e+00 
40 1 2 1.0272591913487699e+00 -4.0051427938741324e+02 1.0000000000000000e+00 6.4154508182963417e+00 4.3204605127387889e+00 3.9250375733193805e+00 
100 1 2 1.0272589768391940e+00 -3.4781541567132876e+02 1.0000000000000000e+00 6.4156491433757745e+00 4.3205949232040943e+00 3.9248045653135315e+00 
12 1 2 1.0272595009580314e+00 -4.6956256019220558e+02 1.0000000000000000e+00 6.4176631060884581e+00 4.3211017578846613e+00 3.9232211393501895e+00 
136 1 2 1.0272578320921382e+00 -3.7954499803279936e+02 1.0000000000000000e+00 6.4180843458292411e+00 4.3218750929467777e+00 3.9222641942785041e+00 
42 1 2 1.0272576051968181e+00 -4.3926786911265975e+02 1.0000000000000000e+00 6.4190543398496471e+00 4.3223827235603247e+00 3.9212436188464204e+00 
37 1 2 1.0272575289716470e+00 -4.5069889695500922e+02 1.0000000000000000e+00 6.4193389255475859e+00 4.3225444883108466e+00 3.9209308587483158e+00 
168 1 2 1.0272574951433584e+00 -6.0794614962970934e+02 1.0000000000000000e+00 6.4197951938823588e+00 4.3227797853616590e+00 3.9204509949905262e+00 
132 1 2 1.0272574951433351e+00 -6.1045218534465516e+02 1.0000000000000000e+00 6.4197951941214884e+00 4.3227797854897281e+00 3.9204509947341899e+00 
89 1 2 1.0272574951433242e+00 -3.3207193864425892e+02 1.0000000000000000e+00 6.4197951943040312e+00 4.3227797855864472e+00 3.9204509945393990e+00 
167 1 2 1.0272574951433591e+00 -5.1973004769298063e+02 1.0000000000000000e+00 6.4197951937877757e+00 4.3227797853143253e+00 3.9204509950887840e+00 
133 1 2 1.0272577336333661e+00 -4.7748001282178211e+02 1.0000000000000000e+00 6.4224763539575456e+00 4.3242324335395361e+00 3.9175344119881639e+00 
125 1 2 1.0272579758930889e+00 -4.6344502376350619e+02 1.0000000000000000e+00 6.4233477809566670e+00 4.3247372593287787e+00 3.9165428879597446e+00 
5 1 2 1.0308620204742276e+00 -5.7416669381976374e+02 1.0000000000000000e+00 6.6357029646206831e+00 4.1470848227708323e+00 3.6011632059073087e+00 
91 1 2 1.0276262287015774e+00 -4.2528478140647547e+02 1.0000000000000000e+00 1.1041923351648263e+01 3.9473124195139802e+00 1.7187313755983280e+00 
103 1 2 1.0275036656318246e+00 -4.5107528985863632e+02 1.0000000000000000e+00 1.1129069741234876e+01 4.1232834829757836e+00 1.6502190108929105e+00 
50 1 2 1.0275009163750464e+00 -4.1985209320426389e+02 1.0000000000000000e+00 1.1129240899084117e+01 4.1224898567139521e+00 1.6491815189510233e+00 
99 1 2 1.0274348851518371e+00 -3.5629825118087825e+02 1.0000000000000000e+00 1.1108846668858437e+01 3.9843759638401908e+00 1.5418391124038353e+00 
62 1 2 1.0274249135725280e+00 -3.5884068667563622e+02 1.0000000000000000e+00 1.1131949571641648e+01 4.0927245860590427e+00 1.6169154974047220e+00 
128 1 2 1.0274957105750293e+00 -4.4475587896809640e+02 1.0000000000000000e+00 1.1129549424675384e+01 4.1209434868732773e+00 1.6472149354794061e+00 
127 1 2 1.0274997855216461e+00 -4.2205986912952181e+02 1.0000000000000000e+00 1.1129314545685013e+01 4.1221662227129308e+00 1.6487441656741146e+00 
2 1 2 1.0276270235592038e+00 -5.1006565824001274e+02 1.0000000000000000e+00 1.1041330896035461e+01 3.9537568878832201e+00 1.7292846341869663e+00 
160 1 2 1.0275563751045746e+00 -3.7843171231252092e+02 1.0000000000000000e+00 1.1063446586940664e+01 3.9727883916298885e+00 1.6947250543643944e+00 
157 1 2 1.0276990578242047e+00 -4.9979106701459995e+02 1.0000000000000000e+00 1.1019255546817176e+01 3.9434974276177739e+00 1.7698532599639398e+00 
41 1 2 1.0276897619310048e+00 -4.6508426908774652e+02 1.0000000000000000e+00 1.1021992847385402e+01 3.9438577999794799e+00 1.7639797072461492e+00 
74 1 2 1.0276248310831231e+00 -3.7337166294290517e+02 1.0000000000000000e+00 1.1061395212891521e+01 3.9011733220373017e+00 1.5383118401260329e+00 
29 1 2 1.0276226370506745e+00 -5.1599925180485377e+02 1.0000000000000000e+00 1.1062474282561604e+01 3.9016990128297193e+00 1.5336202846221316e+00 
6 1 2 1.0275939234757319e+00 -5.0328999171864507e+02 1.0000000000000000e+00 1.1064624616004753e+01 3.9160401963380522e+00 1.5746196204598923e+00 
96 1 2 1.0276124219509675e+00 -4.8790011466961585e+02 1.0000000000000000e+00 1.1064682003459898e+01 3.9056235737863085e+00 1.5363326107909241e+00 
79 1 2 1.0276710168782126e+00 -4.1261994916090731e+02 1.0000000000000000e+00 1.1027879265415132e+01 3.9448253818823336e+00 1.7512063779532958e+00 
61 1 2 1.0328910332041699e+00 -3.8043334744709057e+02 1.0000000000000000e+00 1.0116794008766428e+01 3.6177928228247938e+00 1.1896632620416008e+00 
48 1 2 1.0275141091111351e+00 -4.7124506099705144e+02 1.0000000000000000e+00 1.1129330124972592e+01 4.1275624811759277e+00 1.6520731437697258e+00 
25 1 2 1.0268938055779107e+00 -4.7181819450548880e+02 1.0000000000000000e+00 8.1001779532412570e+00 4.4863439738502580e+00 2.7957830993024411e+00 
31 1 2 1.0269456097270884e+00 -3.6321252151866338e+02 1.0000000000000000e+00 8.0995804411446048e+00 4.4849953370606386e+00 2.7964699201405838e+00 
72 1 2 1.0269583569029093e+00 -3.4651563148158414e+02 1.0000000000000000e+00 8.0994341425556797e+00 4.4846626445292967e+00 2.7966388051523183e+00 
67 1 2 1.0269625134672591e+00 -3.9373903099557174e+02 1.0000000000000000e+00 8.0993865528085731e+00 4.4845541324741696e+00 2.7966939106210025e+00 
30 1 2 1.0270063494599200e+00 -3.4692990806533726e+02 1.0000000000000000e+00 8.0988903856707015e+00 4.4834107877518319e+00 2.7972781310874457e+00 
36 1 2 1.0270457976356036e+00 -3.8075714142457269e+02 1.0000000000000000e+00 8.0984545039666589e+00 4.4823850040003190e+00 2.7978104714908558e+00 
1 1 2 1.0291262092316924e+00 -5.6952361886639335e+02 1.0000000000000000e+00 9.6665826378291850e+00 4.2029448379656840e+00 2.7359494505896556e+00 
140 1 2 1.0217694139877287e+00 -5.9447839534466743e+02 1.0000000000000000e+00 9.5351194665931018e+00 3.6656108432899237e+00 1.3953021510364445e+00 
18 1 2 1.0278121973571479e+00 -5.3768802076007535e+02 1.0000000000000000e+00 1.1089096875495205e+01 4.1661234619419458e+00 1.7688739383129009e+00 
97 1 2 1.0275381980643632e+00 -3.3810971620020496e+02 1.0000000000000000e+00 1.1125408721348442e+01 4.1305787203387982e+00 1.6655717916834940e+00 
34 1 2 1.0270721325979739e+00 -4.7470624278562354e+02 1.0000000000000000e+00 1.1260112409782312e+01 4.4780001128690694e+00 1.4396946811026119e+01 
59 1 2 1.0269132391470503e+00 -5.2837365258430600e+02 1.0000000000000000e+00 1.1317945327018336e+01 4.5408158785716166e+00 1.4367552759238235e+01 
20 1 2 1.0289797225069528e+00 -5.2885454900099637e+02 1.0000000000000000e+00 1.1020288362286164e+01 3.9821049359445611e+00 1.4849085056377488e+01 
54 1 2 1.0278568649762119e+00 -4.6079852893379649e+02 1.0000000000000000e+00 1.1619198212503434e+01 4.7639706264140793e+00 1.4356347084386723e+01 
143 1 2 1.0279833843465245e+00 -3.9494736047228497e+02 1.0000000000000000e+00 1.1638502058254579e+01 4.7823852471788628e+00 1.4376978949091397e+01 
138 1 2 1.0279833843481476e+00 -3.5695873181820645e+02 1.0000000000000000e+00 1.1638502058641565e+01 4.7823852474042869e+00 1.4376978949256717e+01 
108 1 2 1.0279833843477157e+00 -3.2589130304890551e+02 1.0000000000000000e+00 1.1638502058564578e+01 4.7823852473420070e+00 1.4376978949190839e+01 
173 1 2 1.0279833843451309e+00 -4.9442486731357218e+02 1.0000000000000000e+00 1.1638502057875398e+01 4.7823852469795938e+00 1.4376978948970976e+01 
144 1 2 1.0279833843464565e+00 -3.8278217756055454e+02 1.0000000000000000e+00 1.1638502058227322e+01 4.7823852471666566e+00 1.4376978949086954e+01 
179 1 2 1.0279833843462045e+00 -4.0643427411021963e+02 1.0000000000000000e+00 1.1638502058163979e+01 4.7823852471352337e+00 1.4376978949070027e+01 
137 1 2 1.0279833843432580e+00 -3.8944669553898694e+02 1.0000000000000000e+00 1.1638502057386786e+01 4.7823852467080750e+00 1.4376978948788061e+01 
174 1 2 1.0279833843491382e+00 -3.6241798221075334e+02 1.0000000000000000e+00 1.1638502058911405e+01 4.7823852475485102e+00 1.4376978949346809e+01 
180 1 2 1.0279833843460118e+00 -4.1152800050673699e+02 1.0000000000000000e+00 1.1638502058111639e+01 4.7823852471063519e+00 1.4376978949050887e+01 
130 1 2 1.0276505422781932e+00 -3.7402428798136822e+02 1.0000000000000000e+00 1.1831834468426615e+01 4.7972533987684356e+00 1.4302675498875118e+01 
87 1 2 1.0340464232647968e+00 -2.7803698802186875e+02 1.0000000000000000e+00 1.2164751461326132e+01 4.0647633747787033e+00 1.6785746001316173e+01 
10 1 2 1.0286416560943910e+00 -3.9381156947551750e+02 1.0000000000000000e+00 1.0993314752016792e+01 3.9013331597412297e+00 1.5037382175177108e+01 
81 1 2 1.0285775070899834e+00 -3.0380888939460777e+02 1.0000000000000000e+00 1.0996025093027006e+01 3.8947315719493067e+00 1.5030910203598546e+01 
102 1 2 1.0287645456747017e+00 -4.0464240448359652e+02 1.0000000000000000e+00 1.0988976562180227e+01 3.9326131294930313e+00 1.5021987829923221e+01 
134 1 2 1.0248855027488089e+00 -4.5169462501327848e+02 1.0000000000000000e+00 1.2721711074252211e+01 4.2278471574045344e+00 1.6359332118396850e+01 
11 1 2 1.0338982227817228e+00 -5.6784682330589010e+02 1.0000000000000000e+00 1.0850679727199934e+01 4.1564052983412498e+00 1.6096989774228703e+01 
175 1 2 1.0277319816544159e+00 -6.3942713412312719e+02 1.0000000000000000e+00 1.2995678290361374e+01 4.4352828882904554e+00 1.5181120033418065e+01 
123 1 2 1.0271501660017659e+00 -3.2301187462675779e+02 1.0000000000000000e+00 1.2819551239970057e+01 4.5866485901065879e+00 1.5069930546853337e+01 
17 1 2 1.0255396304041804e+00 -4.3072931877690309e+02 1.0000000000000000e+00 1.0317142290228860e+01 4.9836367354281936e+00 1.6392898228487720e+01 
45 1 2 1.0125197181054069e+00 -3.2836601732352352e+02 1.0000000000000000e+00 1.1628790862392135e+01 4.2987916194943114e+00 1.7019898485467827e+01 
166 1 2 1.0364404763983410e+00 -4.2466506693308958e+02 1.0000000000000000e+00 1.1266398587395653e+01 4.8218965616907887e+00 1.6919682446074791e+01 
93 1 2 1.0276152955493123e+00 -2.8936144604972611e+02 1.0000000000000000e+00 1.1488821764264515e+01 5.0395730442481739e+00 1.6691453233125159e+01 
121 1 2 1.0286548494403667e+00 -3.8081877499128245e+02 1.0000000000000000e+00 9.4509416377859363e+00 6.4659521265013478e+00 1.8284230568193692e+01 
57 1 2 1.0285758393702347e+00 -3.9032463801149879e+02 1.0000000000000000e+00 9.4128968577020213e+00 6.4724687664652745e+00 1.8405644163134077e+01 
152 1 2 1.0284047132098479e+00 -4.4460489772294733e+02 1.0000000000000000e+00 9.3084915457026529e+00 6.4173670207232325e+00 1.8474899088094443e+01 
172 1 2 1.0284045074264911e+00 -4.6135707368667516e+02 1.0000000000000000e+00 9.3083316909652556e+00 6.4172464992736655e+00 1.8474926542913455e+01 
3 1 2 1.0284046871032582e+00 -5.1402340166973238e+02 1.0000000000000000e+00 9.3084701936905461e+00 6.4173494437860565e+00 1.8474893127707194e+01 
115 1 2 1.0284047132426175e+00 -4.5447604632170902e+02 1.0000000000000000e+00 9.3084915707237013e+00 6.4173670390276616e+00 1.8474899080209980e+01 
146 1 2 1.0284047131872494e+00 -4.4138872537895833e+02 1.0000000000000000e+00 9.3084915284521834e+00 6.4173670081412721e+00 1.8474899093777452e+01 
98 1 2 1.0284041974184126e+00 -3.2561168364475560e+02 1.0000000000000000e+00 9.3080950909319728e+00 6.4170740982377854e+00 1.8475007013904591e+01 
73 1 2 1.0284047132150180e+00 -3.6384839486537834e+02 1.0000000000000000e+00 9.3084915496569653e+00 6.4173670236373184e+00 1.8474899086987033e+01 
9 1 2 1.0284047543655013e+00 -4.8694233268884312e+02 1.0000000000000000e+00 9.3085226525589135e+00 6.4173892998656594e+00 1.8474886196371706e+01 
116 1 2 1.0284047132305989e+00 -4.1141727851982421e+02 1.0000000000000000e+00 9.3084915616002881e+00 6.4173670324075553e+00 1.8474899083435613e+01 
145 1 2 1.0284047132309535e+00 -4.8484735911239630e+02 1.0000000000000000e+00 9.3084915618659831e+00 6.4173670325826100e+00 1.8474899083225829e+01 
80 1 2 1.0284038884020748e+00 -3.4773993102656499e+02 1.0000000000000000e+00 9.3078562652164205e+00 6.4168961391426294e+00 1.8475063972097654e+01 
163 1 2 1.0284064716362407e+00 -4.4729885503882366e+02 1.0000000000000000e+00 9.3098419524317091e+00 6.4183678862180145e+00 1.8474577759290554e+01 
92 1 2 1.0284090569066651e+00 -3.2314186197923709e+02 1.0000000000000000e+00 9.3117845021834853e+00 6.4197605751315860e+00 1.8473879052797638e+01 
176 1 2 1.0284494862140636e+00 -7.1186189391310631e+02 1.0000000000000000e+00 9.3399548659683180e+00 6.4383750481609994e+00 1.8462129362814633e+01 
110 1 2 1.0284047132434693e+00 -4.5492236018232762e+02 1.0000000000000000e+00 9.3084915714179619e+00 6.4173670395937528e+00 1.8474899080368637e+01 
109 1 2 1.0284047132196545e+00 -3.7272016045104971e+02 1.0000000000000000e+00 9.3084915531734538e+00 6.4173670261702407e+00 1.8474899085621562e+01 
151 1 2 1.0284047132180758e+00 -5.3041644075391423e+02 1.0000000000000000e+00 9.3084915519987224e+00 6.4173670253385939e+00 1.8474899086170900e+01 
38 1 2 1.0284023631190733e+00 -4.4817253084712786e+02 1.0000000000000000e+00 9.3066881549384650e+00 6.4160437804110266e+00 1.8475477491946510e+01 
7 1 2 1.0282623419768735e+00 -4.4909190761255246e+02 1.0000000000000000e+00 9.1685645450490796e+00 6.2577425694004827e+00 1.8473227266654938e+01 
94 1 2 1.0275541740562095e+00 -3.0747718495165958e+02 1.0000000000000000e+00 1.8822117911301739e+01 3.5832650804045927e+00 4.8909739423815264e+00 
70 1 2 1.0275542575872778e+00 -4.3784664840894226e+02 1.0000000000000000e+00 1.8822139974445054e+01 3.5831720307239130e+00 4.8916789335510114e+00 
169 1 2 1.0275544040742131e+00 -5.9148499881678390e+02 1.0000000000000000e+00 1.8822181654610429e+01 3.5829948016513931e+00 4.8929747909108441e+00 
24 1 2 1.0275547188599896e+00 -5.2719928807990050e+02 1.0000000000000000e+00 1.8822385039141025e+01 3.5830895498100177e+00 4.8959261311225228e+00 
85 1 2 1.0275547176407593e+00 -3.5000897358795237e+02 1.0000000000000000e+00 1.8822445764603955e+01 3.5834355573548899e+00 4.8958188398555471e+00 
162 1 2 1.0275531960039903e+00 -5.9717001536874500e+02 1.0000000000000000e+00 1.8822742894372258e+01 3.5882326934395414e+00 4.8835899857951324e+00 
126 1 2 1.0275531959987869e+00 -5.0990710430611574e+02 1.0000000000000000e+00 1.8822742871784516e+01 3.5882325896167040e+00 4.8835899548761583e+00 
90 1 2 1.0275531959983379e+00 -4.2112416476662850e+02 1.0000000000000000e+00 1.8822742869863848e+01 3.5882325807843776e+00 4.8835899522680490e+00 
161 1 2 1.0275531960015769e+00 -5.7983200249760512e+02 1.0000000000000000e+00 1.8822742883882604e+01 3.5882326452275999e+00 4.8835899714216842e+00 
141 1 2 1.0275545839676488e+00 -5.0868475136251692e+02 1.0000000000000000e+00 1.8823038204079335e+01 3.5870057795530252e+00 4.8939421022537140e+00 
68 1 2 1.0275543233583895e+00 -3.8529805129062879e+02 1.0000000000000000e+00 1.8823753833025826e+01 3.5911055541512860e+00 4.8917690339060771e+00 
33 1 2 1.0275543233590934e+00 -3.6175300551148547e+02 1.0000000000000000e+00 1.8823753831484314e+01 3.5911055456163004e+00 4.8917690382315948e+00 
69 1 2 1.0275543233389584e+00 -3.0281438968656300e+02 1.0000000000000000e+00 1.8823753879500341e+01 3.5911058120663322e+00 4.8917689010692254e+00 
26 1 2 1.0275543233389399e+00 -4.1510621446424295e+02 1.0000000000000000e+00 1.8823753879504892e+01 3.5911058120938062e+00 4.8917689010501322e+00 
63 1 2 1.0275543233583599e+00 -3.0625585865415070e+02 1.0000000000000000e+00 1.8823753833157323e+01 3.5911055548792881e+00 4.8917690335334214e+00 
27 1 2 1.0275543233389384e+00 -3.4876970913373248e+02 1.0000000000000000e+00 1.8823753879506448e+01 3.5911058121008468e+00 4.8917689010517185e+00 
32 1 2 1.0275543233723492e+00 -4.4471522265113811e+02 1.0000000000000000e+00 1.8823753799857545e+01 3.5911053700737603e+00 4.8917691287212977e+00 
122 1 2 1.0275540150569826e+00 -3.8646470232849788e+02 1.0000000000000000e+00 1.8824357792472995e+01 3.5944332908262759e+00 4.8899019835661681e+00 
46 1 2 1.0275530673842226e+00 -3.3890639472951096e+02 1.0000000000000000e+00 1.8825303014300289e+01 3.5998317369022956e+00 4.8849736234908514e+00 
43 1 2 1.0275528369433775e+00 -3.9316232522418551e+02 1.0000000000000000e+00 1.8825476351510360e+01 3.6008096250786603e+00 4.8838964257020647e+00 
53 1 2 1.0275188529189079e+00 -3.8863460362757883e+02 1.0000000000000000e+00 1.8860236708614096e+01 3.6515141811718470e+00 5.0105910959046582e+00 
13 1 2 1.0267111882388855e+00 -4.4832111208554585e+02 1.0000000000000000e+00 1.9154797519909344e+01 3.1280143213405860e+00 5.3384413078218387e+00 
8 1 2 1.0260919357862739e+00 -4.6403886505161489e+02 1.0000000000000000e+00 1.3704447324921986e+01 1.9284418782491253e+00 1.2860569039521863e+01 
35 1 2 1.0339383572598240e+00 -4.8439044192637442e+02 1.0000000000000000e+00 1.3641403952636180e+01 1.9445970672212936e+00 1.2570456032736997e+01 
4 1 2 1.0246666171299641e+00 -5.1094175508864924e+02 1.0000000000000000e+00 1.3610222695136999e+01 1.9111088491204302e+00 1.2185535486524984e+01 
84 1 2 1.0268874619586636e+00 -3.4808032658116508e+02 1.0000000000000000e+00 1.3580578670643854e+01 1.9680786402037254e+00 1.2009227240822096e+01 
14 1 2 1.0247460566134163e+00 -3.6801222168055943e+02 1.0000000000000000e+00 1.3554674103966082e+01 1.9093195654302251e+00 1.2085342391256221e+01 
164 1 2 1.0276328488891240e+00 -5.1097205016392434e+02 1.0000000000000000e+00 1.3494265905814887e+01 2.2951091994442101e+00 1.1624921883300464e+01 
71 1 2 1.0275636167601445e+00 -5.0033734331884580e+02 1.0000000000000000e+00 1.3432465639501427e+01 2.3139632566287172e+00 1.1595305218801707e+01 
149 1 2 1.0275603740242851e+00 -4.4652308424724430e+02 1.0000000000000000e+00 1.3432448567167741e+01 2.3133460248816782e+00 1.1595465529736352e+01 
77 1 2 1.0275603740242845e+00 -4.0534327543856722e+02 1.0000000000000000e+00 1.3432448567167818e+01 2.3133460248818762e+00 1.1595465529736305e+01 
78 1 2 1.0275603740242845e+00 -3.9576419446156279e+02 1.0000000000000000e+00 1.3432448567167873e+01 2.3133460248817150e+00 1.1595465529736378e+01 
150 1 2 1.0275603740242860e+00 -5.2656404785271639e+02 1.0000000000000000e+00 1.3432448567167834e+01 2.3133460248818980e+00 1.1595465529736318e+01 
159 1 2 1.0275603697699323e+00 -4.0204212774610937e+02 1.0000000000000000e+00 1.3432448332648990e+01 2.3133451065588559e+00 1.1595465711905694e+01 
156 1 2 1.0275603740242822e+00 -4.0082432843074304e+02 1.0000000000000000e+00 1.3432448567168061e+01 2.3133460248815085e+00 1.1595465529736474e+01 
119 1 2 1.0275603740242856e+00 -3.9352973234720150e+02 1.0000000000000000e+00 1.3432448567167866e+01 2.3133460248818718e+00 1.1595465529736330e+01 
155 1 2 1.0275603740242851e+00 -4.3170480544661297e+02 1.0000000000000000e+00 1.3432448567167832e+01 2.3133460248818651e+00 1.1595465529736320e+01 
49 1 2 1.0275603662691730e+00 -4.1784374501466129e+02 1.0000000000000000e+00 1.3432448942950217e+01 2.3133447435420122e+00 1.1595465976102316e+01 
113 1 2 1.0275603740242851e+00 -4.2776908490933533e+02 1.0000000000000000e+00 1.3432448567167921e+01 2.3133460248818687e+00 1.1595465529736348e+01 
120 1 2 1.0275603740242869e+00 -4.2930117431443421e+02 1.0000000000000000e+00 1.3432448567167681e+01 2.3133460248818563e+00 1.1595465529736289e+01 
114 1 2 1.0275603740242818e+00 -4.5016946829546129e+02 1.0000000000000000e+00 1.3432448567168056e+01 2.3133460248817097e+00 1.1595465529736407e+01 
158 1 2 1.0275506754244730e+00 -4.9184227793263625e+02 1.0000000000000000e+00 1.3432000404255247e+01 2.3112383004759787e+00 1.1595915573006662e+01 
171 1 2 1.0275864525087779e+00 -4.9469056529777885e+02 1.0000000000000000e+00 1.3431672607565337e+01 2.3177395105290852e+00 1.1594102152368324e+01 
129 1 2 1.0275245423052923e+00 -3.5959818272831518e+02 1.0000000000000000e+00 1.3420917799957955e+01 2.2909458457569554e+00 1.1599438929418561e+01 
56 1 2 1.0277966097887534e+00 -3.9441106196642392e+02 1.0000000000000000e+00 1.3415456162623469e+01 2.2230152874849418e+00 1.1630298869039860e+01 
104 1 2 1.0274869390374166e+00 -4.1462671003577611e+02 1.0000000000000000e+00 1.3946218967497346e+01 2.5306372334145211e+00 1.6827089662229088e+01 
139 1 2 1.0188866302225488e+00 -4.9299896893668802e+02 1.0000000000000000e+00 1.3640927002420302e+01 1.4883179434853149e+00 1.7112957636391815e+01 
178 1 2 1.0259734114905896e+00 -4.6451164367653917e+02 1.0000000000000000e+00 1.3829202624486676e+01 1.3919660854752485e+00 1.6760469079229093e+01 
15 1 2 1.0260107158976406e+00 -3.6216516662102765e+02 1.0000000000000000e+00 1.3817254919277575e+01 1.4257215777910286e+00 1.6849338795123760e+01 
60 1 2 1.0261584801602939e+00 -4.9211832134655526e+02 1.0000000000000000e+00 1.3822268506282455e+01 1.4124070635704775e+00 1.6814672092704789e+01 
95 1 2 1.0260274317375546e+00 -4.7318487130871898e+02 1.0000000000000000e+00 1.3816627594925489e+01 1.4246033002129781e+00 1.6847777848108024e+01 
101 1 2 1.0260278119109385e+00 -4.0892869341874842e+02 1.0000000000000000e+00 1.3816612745951875e+01 1.4245774574407790e+00 1.6847742128405233e+01 
64 1 2 1.0261647035479740e+00 -4.4526477146718895e+02 1.0000000000000000e+00 1.3824491972377963e+01 1.4017344804227936e+00 1.6787954511677196e+01 
23 1 2 1.0260376862760441e+00 -5.4450606707499639e+02 1.0000000000000000e+00 1.3816389029546029e+01 1.4238986752190319e+00 1.6846605094683909e+01 
44 1 2 1.0249665218342705e+00 -4.8412296044494155e+02 1.0000000000000000e+00 1.3775692868378279e+01 1.4824540128514481e+00 1.6981298195370595e+01 
47 1 2 1.0261274071704305e+00 -4.5946552030132517e+02 1.0000000000000000e+00 1.3818735101297630e+01 1.4168588538346611e+00 1.6828839448495113e+01 
65 1 2 1.0262006145604090e+00 -4.8995287329182219e+02 1.0000000000000000e+00 1.3817027197555628e+01 1.3944546168866763e+00 1.6780985014887946e+01 
19 1 2 1.0259124104537833e+00 -4.2823342758848196e+02 1.0000000000000000e+00 1.3811752172089124e+01 1.3756084083979845e+00 1.6745883121600638e+01 
21 1 2 1.0261099258562520e+00 -2.9225361173977808e+02 1.0000000000000000e+00 1.3810031560746433e+01 1.3823345703601595e+00 1.6762747923017002e+01 
135 1 2 1.0258969910789841e+00 -4.8836253766019354e+02 1.0000000000000000e+00 1.3810344525989459e+01 1.3742718255039370e+00 1.6744725933612628e+01 
28 1 2 1.0258122001844143e+00 -4.6398814619581964e+02 1.0000000000000000e+00 1.3810500360062111e+01 1.3717863771106260e+00 1.6739183906948821e+01 
131 1 2 1.0262848180886581e+00 -5.1256870992497943e+02 1.0000000000000000e+00 1.3798188653777650e+01 1.3950277675447886e+00 1.6806525618664015e+01 
55 1 2 1.0262236945622645e+00 -3.8319139613309022e+02 1.0000000000000000e+00 1.3798750800775284e+01 1.3828269189889904e+00 1.6778233166702172e+01 
107 1 2 1.0282445665755908e+00 -4.3009418559216186e+02 1.0000000000000000e+00 1.3713848394677445e+01 1.5325297802926383e+00 1.7032584704877035e+01 
170 1 2 1.0210668018100393e+00 -5.9549391663217409e+02 1.0000000000000000e+00 1.3648536363980215e+01 1.5822274976177106e+00 1.7160758917881420e+01 
66 1 2 1.0230926409745862e+00 -4.9889574837093971e+02 1.0000000000000000e+00 1.3634210915073005e+01 1.5053140143443340e+00 1.7090533105887054e+01 
16 1 2 1.0226065594289973e+00 -3.6677113868985015e+02 1.0000000000000000e+00 1.3623202210741777e+01 1.4985340248026799e+00 1.7092155108338265e+01 

Velocities

86 -6.7360772822609161e-02 1.0913304245746749e-01 2.5977274784859870e-02
106 -7.7460497662568878e-02 9.8819992911005128e-02 3.0245451248087220e-02
82 -7.7460509845822964e-02 9.8819980379811781e-02 3.0245452429123167e-02
51 -8.3636276963851286e-02 9.3175577338501958e-02 3.9697064040958588e-02
83 -7.7460486738827661e-02 9.8820004146722887e-02 3.0245450189147916e-02
148 -7.7460491907069676e-02 9.8819998832475844e-02 3.0245450674898335e-02
142 -7.7460477715634343e-02 9.8820013428298173e-02 3.0245449306984685e-02
124 -7.7460468959498513e-02 9.8820022434273042e-02 3.0245448464963749e-02
39 -7.7460511085830797e-02 9.8819979104353806e-02 3.0245452547501862e-02
153 -7.7460493308119382e-02 9.8819997390496961e-02 3.0245450820241042e-02
154 -7.7460486805033688e-02 9.8820004078962104e-02 3.0245450191760857e-02
147 -7.7460477526373667e-02 9.8820013623586028e-02 3.0245449281842997e-02
88 -7.7460499625747609e-02 9.8819990893424844e-02 3.0245451419880515e-02
117 -7.7460500550131636e-02 9.8819989941840700e-02 3.0245451518010627e-02
118 -7.7460485477718222e-02 9.8820005444226380e-02 3.0245450064806716e-02
105 -7.7460493399420391e-02 9.8819997296710482e-02 3.0245450826953915e-02
112 -7.7460487903615427e-02 9.8820002949253291e-02 3.0245450299088279e-02
75 -7.7460494079443110e-02 9.8819996597625082e-02 3.0245450886943009e-02
111 -7.7460496953155808e-02 9.8819993642004611e-02 3.0245451164291101e-02
76 -7.7460505118567585e-02 9.8819985243184860e-02 3.0245451957266221e-02
22 -6.2489521128537527e-02 5.8702590182319839e-02 5.9940468841500623e-02
177 -4.9133873632646000e-02 5.2973289289784252e-02 5.2182947082974392e-02
58 -4.9102237015549242e-02 5.3038037583689919e-02 5.2228985000523892e-02
165 -4.9062270144442290e-02 5.3108787726933719e-02 5.2279167349453710e-02
52 -4.9033095078694341e-02 5.3163037450437406e-02 5.2317333127892621e-02
40 -4.9008542121138407e-02 5.3208338979052583e-02 5.2349058002208640e-02
100 -4.8995553307406563e-02 5.3233169880788141e-02 5.2366348542323429e-02
12 -4.8889869091146385e-02 5.3399033595289039e-02 5.2482237250042980e-02
136 -4.8845695739496299e-02 5.3505814328610776e-02 5.2553898428498447e-02
42 -4.8785006043544035e-02 5.3617086031903113e-02 5.2628932059668850e-02
37 -4.8766655401778450e-02 5.3651466939904364e-02 5.2651898733707007e-02
168 -4.8737917675151919e-02 5.3704245430841333e-02 5.2687057553319851e-02
132 -4.8737917659893742e-02 5.3704245459144657e-02 5.2687057572110146e-02
89 -4.8737917648284196e-02 5.3704245480604644e-02 5.2687057586353662e-02
167 -4.8737917681063163e-02 5.3704245420061525e-02 5.2687057546158517e-02
133 -4.8563681951935569e-02 5.4030147109487038e-02 5.2899363190067029e-02
125 -4.8504781541104811e-02 5.4142951811875707e-02 5.2970885277438491e-02
5 -3.1284114342860138e-02 4.3117798468785357e-02 4.3194357631493270e-02
91 -8.9355628555980171e-02 5.9080735806603855e-02 3.6711936920387225e-02
103 -8.9303556356980868e-02 6.1387972109520371e-02 3.3165469513817672e-02
50 -8.9241347776239294e-02 6.1374997169475143e-02 3.3167927648734080e-02
99 -8.1951556526078106e-02 5.7392107612936193e-02 3.3255994920896106e-02