LAMMPS data file via write_data, version 30 Jul 2016, timestep = 50400000

384 atoms
2 atom types

0.0000000000000000e+00 2.0000000000000000e+01 xlo xhi
0.0000000000000000e+00 2.0000000000000000e+01 ylo yhi
0.0000000000000000e+00 2.0000000000000000e+01 zlo zhi

Masses

1 3.896
2 4.31

Atoms # meso-molecular

18 1 2 1.1605682584842913e+00 -1.6992551626783261e+01 1.0000000000000000e+00 4.2345791381283551e+00 3.1889245988830101e-03 6.4244888615259377e-01 
384 1 2 1.1605682584842913e+00 1.0423418459327017e+01 1.0000000000000000e+00 1.8381513431916059e+00 1.9459924727524227e+00 1.0448439558627343e-01 
372 1 2 1.1605682584842913e+00 1.2124024256369395e+01 1.0000000000000000e+00 4.3658337153818367e+00 3.3957464507309605e+00 5.8236068955274045e-01 
326 1 2 1.1605682584842913e+00 1.1132344612366687e+01 1.0000000000000000e+00 6.0290441546005908e+00 4.8365387487013694e+00 1.0511338838359960e+00 
145 1 2 1.1605682584842913e+00 9.2811602305916647e+00 1.0000000000000000e+00 5.6233575913789986e+00 8.0264512649310866e+00 1.1137358198051059e+00 
257 1 2 1.1605682584842913e+00 1.8711332509623219e+01 1.0000000000000000e+00 2.3130544810353069e+00 9.0777752562761442e+00 1.4072857471000335e+00 
59 1 2 1.1605682584842913e+00 1.2832451781511303e+01 1.0000000000000000e+00 4.2078233395682485e+00 1.6305321764551644e+00 1.9025605874845337e+00 
224 1 2 1.1605682701721887e+00 1.6438028248305166e+01 1.0000000000000000e+00 6.2449654256478411e+00 2.6300132265814384e+00 2.7315861955504150e+00 
66 1 2 1.1605682584842913e+00 1.6218025515813807e+01 1.0000000000000000e+00 3.1258553986416313e+00 4.4500522301374223e+00 2.7368127796183330e+00 
97 1 2 1.1605682584842913e+00 1.1741382262885050e+01 1.0000000000000000e+00 1.0448754197613832e+00 6.2663956360871804e+00 2.4568384892873540e+00 
235 1 2 1.1605682584842913e+00 9.0510573802751502e+00 1.0000000000000000e+00 6.0910994947241974e+00 4.5766062856712025e-01 3.9502104906530020e+00 
54 1 2 1.1605682584842913e+00 1.5928378183643892e+01 1.0000000000000000e+00 5.4045962327449022e+00 9.3666548379028960e+00 3.2070811999359927e+00 
156 1 2 1.1605682903615608e+00 -1.0737795947722217e+01 1.0000000000000000e+00 6.7063543510344270e-01 6.3794980830311421e-01 4.6005115197767399e+00 
159 1 2 1.1605682602482403e+00 1.4947866576799889e+01 1.0000000000000000e+00 3.2085687110931937e+00 1.0090115510829114e+00 4.3780597624120521e+00 
197 1 2 1.1605682602482403e+00 9.0514481727800646e+00 1.0000000000000000e+00 4.3895192976430604e+00 2.5861458378580253e+00 4.6832843851757682e+00 
294 1 2 1.1605697995459709e+00 1.1187283656886352e+01 1.0000000000000000e+00 2.3398618621572314e+00 2.9399873068782911e+00 4.4133989920338594e+00 
231 1 2 1.1605697995459709e+00 -6.8540197834055068e+00 1.0000000000000000e+00 3.1592542616826140e+00 4.3646398555500028e+00 5.4919089259607787e+00 
352 1 2 1.1605682584842913e+00 2.0333376913743166e+01 1.0000000000000000e+00 5.2462091345074695e+00 4.7873417197219279e+00 4.3514355027442040e+00 
216 1 2 1.1605682584842913e+00 -8.0826177609420398e+01 1.0000000000000000e+00 3.7193969251027741e+00 8.2633865903867854e+00 4.8285357811180196e+00 
44 1 2 1.1605682584842913e+00 1.1691707204523377e+01 1.0000000000000000e+00 5.6228045515363334e+00 7.5953318377503010e+00 5.0095215823698558e+00 
114 1 2 1.1605682584842913e+00 1.1955772733238579e+01 1.0000000000000000e+00 6.0690516011271951e+00 9.8730473587743486e+00 5.4343815196108682e+00 
68 1 2 1.1605682903615608e+00 1.2781260822307678e+01 1.0000000000000000e+00 1.4016815107222780e+00 1.6243559004326771e+00 6.1628205494574244e+00 
277 1 2 1.1605682584842913e+00 1.4451881864525213e+01 1.0000000000000000e+00 2.4167038192241999e-01 3.7762397457462225e+00 5.9488235112465029e+00 
50 1 2 1.1605682584842913e+00 1.3843414395320067e+01 1.0000000000000000e+00 2.2085396760596989e+00 7.2927232662681760e+00 6.6556409623452355e+00 
212 1 2 1.1605682584842913e+00 7.2041082597679988e+00 1.0000000000000000e+00 5.1431996926726091e+00 7.7166654294774428e+00 7.0468538240796352e+00 
179 1 2 1.1605851235802647e+00 1.0270794292936568e+01 1.0000000000000000e+00 3.1140091318403953e+00 2.9036793241680905e+00 8.0882783667517497e+00 
32 1 2 1.1605682584842913e+00 9.0594660269892451e+00 1.0000000000000000e+00 5.8400584845568195e+00 3.4807084136046376e+00 7.8513261738741402e+00 
245 1 2 1.1605682584842913e+00 9.7280203608193823e+00 1.0000000000000000e+00 1.0822518933958902e+00 5.5236659253144076e+00 7.5500527219821079e+00 
3 1 2 1.1605851235802647e+00 1.3351968040688295e+01 1.0000000000000000e+00 3.4969676404982444e+00 4.6882899032214826e+00 7.4389735794678558e+00 
88 1 2 1.1605682584842913e+00 1.7156059738717360e+01 1.0000000000000000e+00 2.0877405444773354e+00 9.2359258217700777e+00 8.3127277221223768e+00 
134 1 2 1.1605682584842913e+00 1.4307841538908850e+01 1.0000000000000000e+00 6.2493475246588464e+00 9.4364337967287018e+00 8.4493796246358119e+00 
223 1 2 1.1605682666501271e+00 1.0963935613871751e+01 1.0000000000000000e+00 3.9112620477721198e+00 2.5958507404743991e-01 8.5824304881142570e+00 
151 1 2 1.1605682584842913e+00 1.8474257222848870e+01 1.0000000000000000e+00 6.8946373914051728e-01 2.6634212545540019e+00 9.6835416308224733e+00 
321 1 2 1.1605682584842913e+00 1.7134382666444409e+01 1.0000000000000000e+00 5.9377630858751624e+00 1.9038728893994066e+00 9.8858708369952311e+00 
170 1 2 1.1605682584842913e+00 1.2010851844279792e+01 1.0000000000000000e+00 4.2525853470961685e+00 4.3491162186204910e+00 9.9557870465831879e+00 
310 1 2 1.1605682584842913e+00 1.6267247655699606e+01 1.0000000000000000e+00 1.6437892712794788e+00 6.3305945215328725e+00 9.8241428530418204e+00 
49 1 2 1.1605682584842913e+00 1.6973926069638942e+01 1.0000000000000000e+00 5.1387731689236320e+00 7.0107090620867281e+00 9.3538821025318164e+00 
204 1 2 1.1605682584842913e+00 9.8879647148299661e+00 1.0000000000000000e+00 3.8278651132418577e+00 8.6511551501700144e+00 9.5555380107525281e+00 
210 1 2 1.1605682666501271e+00 1.7820537014668789e+00 1.0000000000000000e+00 3.4430553404900386e+00 5.1666513480900311e-01 1.0500017459555599e+01 
228 1 2 1.1605682584842913e+00 -2.4518178604243971e+01 1.0000000000000000e+00 8.6296063505717002e-01 4.9169097444578140e+00 1.1213422587609353e+01 
214 1 2 1.1605792915513762e+00 8.2637961406197888e+00 1.0000000000000000e+00 5.2867070690352591e+00 5.7726806313519594e+00 1.1376728483328657e+01 
316 1 2 1.1605682584842913e+00 -2.5599857649973778e+01 1.0000000000000000e+00 4.3056024840730496e+00 3.2407054404331261e+00 1.2191850913867217e+01 
11 1 2 1.1605682584842913e+00 1.6646175551958343e+01 1.0000000000000000e+00 3.0778642043706972e+00 6.7410959771759025e+00 1.2650956511490040e+01 
81 1 2 1.1605682584842913e+00 1.3879874716008022e+01 1.0000000000000000e+00 3.5786506910605778e+00 9.7792452056904668e+00 1.2751843998303430e+01 
361 1 2 1.1605682584842913e+00 1.2853471210703020e+01 1.0000000000000000e+00 6.1703241250924377e+00 9.9085671779198758e+00 1.2037894502319981e+01 
141 1 2 1.1605682584842913e+00 9.9542630466082436e+00 1.0000000000000000e+00 2.2967334746022723e+00 9.6392786166359834e-01 1.3441179068385336e+01 
348 1 2 1.1605682634210337e+00 1.1774909435392161e+01 1.0000000000000000e+00 5.5578229776071151e+00 7.5333998824211523e+00 1.4060292022817020e+01 
173 1 2 1.1605682584842913e+00 1.1757590988254091e+01 1.0000000000000000e+00 4.7661127897947457e+00 3.5522613604781745e+00 1.4952750892308934e+01 
268 1 2 1.1605682584842913e+00 1.1562060901485513e+01 1.0000000000000000e+00 2.4068089036599356e+00 4.2857888740848367e+00 1.4330944517673533e+01 
146 1 2 1.1605682584842913e+00 1.4926449839340545e+01 1.0000000000000000e+00 1.2771163111255082e+00 6.1886044360096193e+00 1.4411399466925236e+01 
138 1 2 1.1605682634210337e+00 -1.1841474561888911e+02 1.0000000000000000e+00 4.0221698082168604e+00 7.0581324752787502e+00 1.5235789760176939e+01 
31 1 2 1.1605682584842913e+00 -1.0102732993315058e+01 1.0000000000000000e+00 6.6161397032425864e+00 6.3053203166563456e+00 1.5460103749194968e+01 
264 1 2 1.1605682584842913e+00 1.0595942150096185e+01 1.0000000000000000e+00 1.2126430976593916e+00 1.4963718487475981e+00 1.6171748954157078e+01 
21 1 2 1.1605682584842913e+00 1.0579504688092975e+01 1.0000000000000000e+00 2.8724913673027501e+00 3.3402642746474207e+00 1.6061768787651982e+01 
27 1 2 1.1605695005422245e+00 1.3266627316051004e+01 1.0000000000000000e+00 2.8612005667999574e+00 8.3289907233361866e+00 1.7072258452046107e+01 
91 1 2 1.1605682584842913e+00 1.2346296396046355e+01 1.0000000000000000e+00 2.1041620718503586e+00 1.8027630708241047e+00 1.8025136483224507e+01 
133 1 2 1.1605682584842913e+00 1.2538537174732014e+01 1.0000000000000000e+00 5.6937657890178777e+00 2.1768658380956358e+00 1.8522917740906085e+01 
267 1 2 1.1605682584842913e+00 4.6060399480879227e+01 1.0000000000000000e+00 2.9974393485793192e+00 5.3961774987658018e+00 1.7850474457828962e+01 
362 1 2 1.1605682584842913e+00 1.2143776201527775e+01 1.0000000000000000e+00 5.7257116206841712e+00 4.7995702662131015e+00 1.7591421547515488e+01 
10 1 2 1.1605682584842913e+00 6.0283525175574706e+00 1.0000000000000000e+00 1.0457745359197435e+00 7.0621169892786630e+00 1.8059844094312165e+01 
226 1 2 1.1605695005422245e+00 2.5163451582453318e+00 1.0000000000000000e+00 4.7577893740168991e+00 8.2715307176289734e+00 1.7593043834257227e+01 
233 1 2 1.1605682584842913e+00 -1.2620977712928448e+02 1.0000000000000000e+00 3.7392355207243941e+00 6.4971577282699773e+00 1.9944227832566177e+01 
16 1 2 1.1605682584842913e+00 1.2909225267478412e+01 1.0000000000000000e+00 5.5861463605999235e+00 6.7888844204683112e+00 1.8729632989286500e+01 
303 1 2 1.1605682584842913e+00 1.6960404769089417e+00 1.0000000000000000e+00 1.8270677118919012e+00 9.6891171202265767e+00 1.9182077582589493e+01 
158 1 2 1.1605682584842913e+00 -1.6079322618007033e+01 1.0000000000000000e+00 4.9587168215233444e+00 1.0393512593709398e+01 1.2729428455963403e+00 
58 1 2 1.1605682584842913e+00 2.6340171768493541e+01 1.0000000000000000e+00 3.6359970477378298e+00 1.4337963741740783e+01 1.3115907018433752e+00 
272 1 2 1.1605682584842913e+00 1.7126035296435674e+01 1.0000000000000000e+00 4.5869774892262694e+00 1.6987176724949940e+01 4.4178744747249993e-01 
308 1 2 1.1605682584842913e+00 -1.5717212577868503e+01 1.0000000000000000e+00 1.7158555116620204e+00 1.8223688497865869e+01 1.1491904922289697e+00 
120 1 2 1.1605682584842913e+00 1.1822733946179309e+01 1.0000000000000000e+00 3.4109599584147112e+00 1.1978569073106595e+01 1.9650171633888647e+00 
250 1 2 1.1605682584842913e+00 1.7536235449918237e+01 1.0000000000000000e+00 1.4083061769114664e+00 1.6487848835563039e+01 2.6993041307668704e+00 
123 1 2 1.1605682584842913e+00 1.3077476069104964e+01 1.0000000000000000e+00 4.5565270165728604e+00 1.8483640901809530e+01 2.2956210686316099e+00 
378 1 2 1.1605682584842913e+00 7.1883717269369285e+00 1.0000000000000000e+00 1.3930403820619830e-01 1.9786960907256098e+01 1.5699429562425911e+00 
255 1 2 1.1605682584842913e+00 1.0135154625153444e+01 1.0000000000000000e+00 6.0075635189826357e+00 1.2605061228656314e+01 3.2312759589865232e+00 
236 1 2 1.1605682584842913e+00 1.3979244785817095e+01 1.0000000000000000e+00 6.5413814518950000e+00 1.7080648249628087e+01 2.9683008915716695e+00 
340 1 2 1.1605682584842913e+00 1.3587061933651814e+01 1.0000000000000000e+00 1.6640186544808135e+00 1.1165163855887076e+01 4.5855422244397239e+00 
2 1 2 1.1605682584842913e+00 1.0968660196028573e+01 1.0000000000000000e+00 4.8653284135705475e+00 1.1763719485934653e+01 4.9055032821503399e+00 
377 1 2 1.1606151903686157e+00 1.0950444510482088e+01 1.0000000000000000e+00 4.5563759951259506e+00 1.8342956121044946e+01 4.7966930820491287e+00 
329 1 2 1.1606151903686157e+00 1.4967263468127422e+01 1.0000000000000000e+00 2.7065495815966036e+00 1.8827357439579927e+01 4.9535716756175203e+00 
376 1 2 1.1605682584842913e+00 1.9855655863852881e+01 1.0000000000000000e+00 3.5207507422075951e-01 1.0237520954651536e+01 5.7786150310628006e+00 
198 1 2 1.1605682584842913e+00 1.6180037357930324e+01 1.0000000000000000e+00 6.2780967312696632e+00 1.2568701161864871e+01 6.6294776105190643e+00 
252 1 2 1.1605682584842913e+00 1.1584590554015929e+01 1.0000000000000000e+00 6.9543793595172076e-01 1.6021121963883719e+01 6.9568866768959303e+00 
289 1 2 1.1605682584842913e+00 1.2916913929851427e+01 1.0000000000000000e+00 2.9680046461966230e+00 1.7063510302311251e+01 5.9918802875257207e+00 
149 1 2 1.1605682584842913e+00 1.1634744996819194e+01 1.0000000000000000e+00 5.2420473619665864e-01 1.8795995938605866e+01 6.2935352343353923e+00 
147 1 2 1.1605682615214215e+00 -1.9138948125184041e+02 1.0000000000000000e+00 6.1548292945691552e+00 1.9514790821367086e+01 6.0679755648263320e+00 
234 1 2 1.1605682584842913e+00 -1.2947109425756827e+02 1.0000000000000000e+00 1.9696084526131290e+00 1.1428710152188611e+01 8.3787715307347792e+00 
375 1 2 1.1605682584842913e+00 1.3694326588692554e+01 1.0000000000000000e+00 3.4461508294685981e+00 1.3736873988573127e+01 8.0878644512780475e+00 
217 1 2 1.1605682584842913e+00 6.6954262742068087e+00 1.0000000000000000e+00 4.8567291006708979e+00 1.7832018323692793e+01 7.7687270670829367e+00 
55 1 2 1.1605682584842913e+00 1.5390430457543431e+01 1.0000000000000000e+00 5.3785007766936328e+00 1.1358534920294801e+01 8.5840701008439293e+00 
189 1 2 1.1605682584842913e+00 1.6610539478567734e+00 1.0000000000000000e+00 7.6881070038721833e-01 1.2677249176313149e+01 9.4369786084344778e+00 
148 1 2 1.1605682584842913e+00 -1.6815615092796031e+02 1.0000000000000000e+00 6.1863137506432109e+00 1.4285115048353813e+01 8.8647277699772111e+00 
302 1 2 1.1605682584842913e+00 1.1937252399781777e+01 1.0000000000000000e+00 1.1089117406012934e+00 1.5880770463011499e+01 9.4189673088048220e+00 
33 1 2 1.1605682584842913e+00 -1.7218242242338486e+00 1.0000000000000000e+00 6.4357552339414417e+00 1.7014617950900885e+01 9.3123581257347414e+00 
353 1 2 1.1605682584842913e+00 -4.0677514217327385e+01 1.0000000000000000e+00 4.5049516681012465e+00 1.7616300127122127e+01 9.8554857528909796e+00 
122 1 2 1.1605682584842913e+00 1.6828282679725341e+01 1.0000000000000000e+00 2.5010712450343342e+00 1.8575439117719267e+01 8.6843400705245735e+00 
256 1 2 1.1605682584842913e+00 1.4406023475105176e+01 1.0000000000000000e+00 1.7729696366044188e+00 1.0930522284061414e+01 1.0446226806657648e+01 
292 1 2 1.1605682584842913e+00 3.7831532932197287e-01 1.0000000000000000e+00 4.2890566441437405e+00 1.3596580009859219e+01 1.0037784140269400e+01 
34 1 2 1.1605682584842913e+00 -5.4216501704414100e+00 1.0000000000000000e+00 5.7780109121140322e-01 1.0273917055677627e+01 1.2481542146013402e+01 
315 1 2 1.1605682584842913e+00 1.9616525310811106e+01 1.0000000000000000e+00 4.0279586887327250e+00 1.2117826968600708e+01 1.1779356368426484e+01 
351 1 2 1.1605682584842913e+00 -6.2379067388808968e-02 1.0000000000000000e+00 1.4205601885299757e+00 1.3881907046063567e+01 1.1526281457049629e+01 
190 1 2 1.1605682584842913e+00 1.2850143855634236e+01 1.0000000000000000e+00 6.5843633906058425e+00 1.4548554955511099e+01 1.1825760315096067e+01 
84 1 2 1.1605682584842913e+00 -4.9229522358708246e+00 1.0000000000000000e+00 2.3206372134707021e+00 1.6974006294818558e+01 1.1429470899851143e+01 
186 1 2 1.1605682584740791e+00 9.4841113860009756e+00 1.0000000000000000e+00 5.0551578632325143e+00 1.6349120613151499e+01 1.1689228460299695e+01 
325 1 2 1.1605682584740791e+00 8.7629497557232305e+00 1.0000000000000000e+00 5.6778195148126844e+00 1.8055522362996186e+01 1.2521232959783415e+01 
61 1 2 1.1605682584842913e+00 1.2051973325013236e+01 1.0000000000000000e+00 2.1842417640173410e+00 1.1671307250996961e+01 1.3554124663382865e+01 
63 1 2 1.1605791286781302e+00 1.3922083966219546e+01 1.0000000000000000e+00 3.7152505192207750e+00 1.4368011928061359e+01 1.3300284983650219e+01 
168 1 2 1.1605791286781302e+00 1.0986124061175570e+01 1.0000000000000000e+00 3.0284743410276067e+00 1.6127907258084115e+01 1.3758359362556828e+01 
104 1 2 1.1605682584842913e+00 6.7994020626418976e+00 1.0000000000000000e+00 1.1483653989926537e+00 1.8832585425808411e+01 1.2896445708537863e+01 
328 1 2 1.1605682584842913e+00 1.6825349556287144e+01 1.0000000000000000e+00 3.2099691366056224e+00 1.0283856638788412e+01 1.5159761523639327e+01 
350 1 2 1.1605682584842913e+00 -1.4562114613277402e+02 1.0000000000000000e+00 4.8729565684149083e+00 1.2200426154340869e+01 1.4856611371969239e+01 
1 1 2 1.1605682584842913e+00 1.4694619718465098e+01 1.0000000000000000e+00 1.3032267595330123e+00 1.4531435259296677e+01 1.4413082030762379e+01 
312 1 2 1.1605682584842913e+00 1.0330374302520919e+01 1.0000000000000000e+00 4.8461212859873957e+00 1.5552704899266024e+01 1.4810814779227432e+01 
184 1 2 1.1605682584842913e+00 1.2624871602765630e+01 1.0000000000000000e+00 6.0406054663906374e+00 1.9698667387912298e+01 1.5614653685680809e+01 
356 1 2 1.1605682584842913e+00 1.7905909736940700e+01 1.0000000000000000e+00 4.0217846858773854e-01 1.0708870878987078e+01 1.5941292563993695e+01 
167 1 2 1.1605682584842913e+00 1.5471979593617334e+01 1.0000000000000000e+00 4.6548515709463245e-01 1.3128649354723638e+01 1.5906385288828620e+01 
140 1 2 1.1605682584842913e+00 1.5892540346544148e+01 1.0000000000000000e+00 3.4784481076411669e+00 1.3488279044735084e+01 1.6361030507938356e+01 
286 1 2 1.1605682584842913e+00 1.1461694605446226e+01 1.0000000000000000e+00 6.0366704107387292e+00 1.6327909752390443e+01 1.6236287800360778e+01 
269 1 2 1.1605682584842913e+00 1.4987216875530406e+01 1.0000000000000000e+00 3.3926549526565029e+00 1.9981563001606435e+01 1.5860517466895242e+01 
242 1 2 1.1605682584842913e+00 1.7349370769975451e+01 1.0000000000000000e+00 5.5336754788544775e+00 1.0240909236052406e+01 1.8031988086796559e+01 
206 1 2 1.1605682584842913e+00 3.4768539367801781e+00 1.0000000000000000e+00 6.4351134592220927e+00 1.3490185666497446e+01 1.8366367198613887e+01 
275 1 2 1.1605682584842913e+00 1.5982275910315318e+01 1.0000000000000000e+00 3.3018537375397314e+00 1.4871862472580164e+01 1.8368912265102558e+01 
132 1 2 1.1605682584842913e+00 1.1982987605498177e+01 1.0000000000000000e+00 3.7341829699983995e+00 1.1122514518731140e+01 1.8767616790595330e+01 
115 1 2 1.1605682584842913e+00 1.3848195762761282e+01 1.0000000000000000e+00 1.0701514391606006e+00 1.1817581645333451e+01 1.8693579140265737e+01 
106 1 2 1.1605682584842913e+00 7.6837425001260264e+00 1.0000000000000000e+00 1.5841988528927282e+00 1.3967254691490455e+01 1.9524693340014515e+01 
195 1 2 1.1605682584842913e+00 1.4027399287201355e+01 1.0000000000000000e+00 6.2988518625332937e+00 1.5614064870315442e+01 1.8821188643719371e+01 
103 1 2 1.1605682584842913e+00 1.3296105106291801e+01 1.0000000000000000e+00 3.2155225497421941e-01 1.6314230580246033e+01 1.9755088029041143e+01 
12 1 2 1.1605682584842913e+00 1.0450156260553634e+01 1.0000000000000000e+00 2.5450917974400697e+00 1.6109691522611538e+01 1.9941059602038301e+01 
300 1 2 1.1605682584842913e+00 -2.0700270080107366e+01 1.0000000000000000e+00 1.8623616904993656e+00 1.9734247660565252e+01 1.9540295733229318e+01 
89 1 2 1.1605682584842913e+00 1.5571516475623234e+01 1.0000000000000000e+00 1.0319408208330907e+01 1.0484515795479090e+00 7.8615384646067676e-01 
185 1 2 1.1605682584848478e+00 9.2042817386534672e+00 1.0000000000000000e+00 1.1492126625226691e+01 3.6836550767656786e+00 3.0645957724138428e-01 
265 1 2 1.1605682584842913e+00 7.7625864914196834e+00 1.0000000000000000e+00 1.2368801267032358e+01 6.2389676625252450e+00 8.4752194004828718e-01 
183 1 2 1.1605682587376069e+00 1.3017625281668197e+01 1.0000000000000000e+00 1.0274715399503636e+01 7.3916196414689210e+00 2.3858785278829667e-01 
290 1 2 1.1605682584842913e+00 -3.1123734165174572e+01 1.0000000000000000e+00 7.6389538424678678e+00 9.1691814420957645e+00 5.8549763000927935e-01 
142 1 2 1.1605682584842913e+00 2.8079152908526721e+00 1.0000000000000000e+00 1.3012052587117086e+01 1.2640363282309750e+00 1.7304022735272067e+00 
346 1 2 1.1605682584842913e+00 -4.2762058312936261e+01 1.0000000000000000e+00 8.2375330190214449e+00 3.6199118296448045e+00 1.5261331235504003e+00 
246 1 2 1.1605682584848478e+00 1.2874888401322035e+01 1.0000000000000000e+00 1.0939267529055577e+01 4.9667838815972249e+00 1.7359313401336582e+00 
105 1 2 1.1605682584842913e+00 1.3721945922736108e+01 1.0000000000000000e+00 9.4374430201162696e+00 6.6655202038208845e+00 2.0382333254064635e+00 
335 1 2 1.1605682584842913e+00 1.1095192231492678e+01 1.0000000000000000e+00 7.3711110494000955e+00 7.6337916893577704e+00 2.6734170557722075e+00 
260 1 2 1.1605682584842913e+00 9.8825234813415932e+00 1.0000000000000000e+00 1.2652155314056962e+01 8.5873634254201487e+00 1.6222270677569839e+00 
160 1 2 1.1605824916106584e+00 1.3582240339999531e+01 1.0000000000000000e+00 9.3689516452090977e+00 7.8458230395468964e-01 2.9776642863186211e+00 
94 1 2 1.1605682584842913e+00 1.3921044696294999e+01 1.0000000000000000e+00 1.2452459741118181e+01 4.8147609307414008e-01 4.2516937883629264e+00 
263 1 2 1.1605825032985557e+00 -1.0226174488880859e+02 1.0000000000000000e+00 7.8093766320663063e+00 1.7573659527858418e+00 3.5981163513077545e+00 
381 1 2 1.1605682584842913e+00 1.5610156804718237e+01 1.0000000000000000e+00 1.1838222491450749e+01 2.3077810887652093e+00 2.9691174735923704e+00 
371 1 2 1.1605682584842913e+00 -3.8393019302265925e+00 1.0000000000000000e+00 8.7261240805490754e+00 6.1110527533244712e+00 3.8638119439367395e+00 
219 1 2 1.1605682584842913e+00 5.9697224567763296e+00 1.0000000000000000e+00 9.5715213553142817e+00 8.5339685114541410e+00 3.3868425394731227e+00 
251 1 2 1.1605682584842913e+00 8.0112330898672788e+00 1.0000000000000000e+00 1.1879398992910454e+01 7.2150458610002470e+00 2.9649574550259330e+00 
135 1 2 1.1605682584842913e+00 1.1053463769833133e+01 1.0000000000000000e+00 8.3676710124651663e+00 4.3989735955446016e-02 4.7619048858291473e+00 
297 1 2 1.1605686621798998e+00 8.3674082945359984e+00 1.0000000000000000e+00 1.1577476319886269e+01 5.7914876260094701e+00 5.3362411983719964e+00 
232 1 2 1.1605682584842913e+00 -7.1231393752152776e+00 1.0000000000000000e+00 1.0727614907236601e+01 7.1480484598107452e-01 6.9858237703843029e+00 
19 1 2 1.1605682584842913e+00 1.9815476540871849e+01 1.0000000000000000e+00 8.5439816558687678e+00 1.5761308809284098e+00 6.6857830541029513e+00 
152 1 2 1.1605682584842913e+00 9.8543702783892471e+00 1.0000000000000000e+00 8.3563487262529481e+00 3.5477398177635542e+00 6.9786594696050344e+00 
28 1 2 1.1605682584842913e+00 1.0268274268690489e+00 1.0000000000000000e+00 1.1081427707027697e+01 3.8525399036255839e+00 5.9852552036172630e+00 
258 1 2 1.1605682584842913e+00 1.5822381417980544e+01 1.0000000000000000e+00 8.5043050042973860e+00 7.1078084833407349e+00 5.8749177612721395e+00 
14 1 2 1.1605697677646922e+00 -1.6702055658243981e+02 1.0000000000000000e+00 1.0536017392843240e+01 7.3297161602099825e+00 6.6093867797996655e+00 
193 1 2 1.1605682584842913e+00 1.5390234821039442e+01 1.0000000000000000e+00 1.2907080943735053e+01 8.3627249363327874e+00 6.6355353234620438e+00 
47 1 2 1.1605682584842913e+00 1.9660220168795263e+01 1.0000000000000000e+00 7.8501509452607428e+00 9.0766596521651408e+00 6.7996123942446518e+00 
111 1 2 1.1605682584842913e+00 -1.1177118125293268e+00 1.0000000000000000e+00 1.1832815986669321e+01 6.7676721339483841e+00 8.2295237159960575e+00 
101 1 2 1.1605697677646922e+00 9.8587696545177810e+00 1.0000000000000000e+00 1.1023148479068597e+01 8.8656192092114789e+00 7.7357527944000957e+00 
244 1 2 1.1605682584842913e+00 1.3112602004861118e+01 1.0000000000000000e+00 1.0012240447352283e+01 2.5137864330549120e+00 9.1688367259319357e+00 
368 1 2 1.1605682584842913e+00 1.2251287803806942e+01 1.0000000000000000e+00 1.2545797464046409e+01 1.5613636153708061e+00 9.2451759954682533e+00 
181 1 2 1.1605682584842913e+00 4.6151340164537871e+00 1.0000000000000000e+00 7.9760113071880330e+00 3.4982321860581629e+00 9.9966874514543917e+00 
349 1 2 1.1605682584842913e+00 -4.2757064751900671e+01 1.0000000000000000e+00 1.3132738201939999e+01 3.8637765734034950e+00 8.9200597294331327e+00 
249 1 2 1.1605732998723950e+00 -2.7264802999477872e-01 1.0000000000000000e+00 8.1863463910474223e+00 7.0385316971999128e+00 9.3641603689260737e+00 
344 1 2 1.1605686548959573e+00 1.6157199922326178e+01 1.0000000000000000e+00 9.6232324915159371e+00 5.8026501800615806e+00 8.8061812124789700e+00 
194 1 2 1.1605682584842913e+00 5.7889501874514231e+00 1.0000000000000000e+00 7.2959042952906721e+00 1.0449137956247176e-01 1.1172273256081681e+01 
248 1 2 1.1605792915513762e+00 1.2883708329434766e+01 1.0000000000000000e+00 6.9567729201492243e+00 5.3197654078781342e+00 1.0491427752762677e+01 
281 1 2 1.1605682584842913e+00 1.8184564524991359e+01 1.0000000000000000e+00 1.0763887335539920e+01 4.8928366815914908e+00 1.0964877316545950e+01 
144 1 2 1.1605729034607291e+00 1.3086271525214224e+01 1.0000000000000000e+00 7.3393468873688823e+00 8.1627645251040093e+00 1.0720554769744469e+01 
201 1 2 1.1605682584842913e+00 1.0866226421274973e+01 1.0000000000000000e+00 1.3266872647947460e+01 9.5747510427020757e+00 1.0508579240956069e+01 
285 1 2 1.1605682584842913e+00 -3.7456742844513414e+01 1.0000000000000000e+00 1.0603805971693260e+01 6.3444734176406267e-03 1.1444174630049920e+01 
343 1 2 1.1605682584842913e+00 4.1561506834953708e+00 1.0000000000000000e+00 9.4493861404524235e+00 2.6654278812590624e+00 1.1435793234631207e+01 
109 1 2 1.1605682584842913e+00 1.3323791697040217e+01 1.0000000000000000e+00 1.2982930044401890e+01 3.0590681211127539e+00 1.2196436427484612e+01 
182 1 2 1.1605682584842913e+00 9.1223251975892232e+00 1.0000000000000000e+00 1.2171837066636892e+01 8.5163281476646855e+00 1.1877622579993867e+01 
309 1 2 1.1605682584842913e+00 2.5092241881249535e+01 1.0000000000000000e+00 9.7663670288253144e+00 1.3081957767199331e-01 1.4231885650027809e+01 
243 1 2 1.1605682584842913e+00 7.4528898502890639e+00 1.0000000000000000e+00 7.3979224435936688e+00 3.9316869760580717e+00 1.3997130310224708e+01 
254 1 2 1.1605682584842913e+00 1.2142942745474198e+01 1.0000000000000000e+00 1.0138538989274863e+01 4.0752144485038340e+00 1.2947128266848010e+01 
369 1 2 1.1605682584842913e+00 1.6115643194266539e+01 1.0000000000000000e+00 1.1542087322929550e+01 5.5038686501650353e+00 1.3977302639588586e+01 
118 1 2 1.1605682584842913e+00 1.1985667447100901e+01 1.0000000000000000e+00 8.3816145730951721e+00 6.6452019996056997e+00 1.3326787775423645e+01 
57 1 2 1.1605682584842913e+00 1.2082087286049564e+01 1.0000000000000000e+00 1.2086384139935511e+01 1.4908964819109289e+00 1.4784412543519279e+01 
69 1 2 1.1605682584842913e+00 1.4088028085069020e+01 1.0000000000000000e+00 1.3003831584298174e+01 3.5084239340447874e+00 1.4925497282047324e+01 
70 1 2 1.1605682584842913e+00 1.2525379019830321e+01 1.0000000000000000e+00 9.1620642611426408e+00 5.8358304628227557e+00 1.5525168862604374e+01 
313 1 2 1.1605682584842913e+00 1.3004130945457597e+01 1.0000000000000000e+00 1.1904096373977378e+01 9.0763204553403245e+00 1.4673701458043672e+01 
137 1 2 1.1605682584842913e+00 1.4341146378737101e+01 1.0000000000000000e+00 7.7444800175120578e+00 1.7795875906096068e+00 1.6031194804514072e+01 
176 1 2 1.1605682584842913e+00 1.4425815019207750e+01 1.0000000000000000e+00 1.0572972658613468e+01 2.6898737554120320e+00 1.5756515391685427e+01 
17 1 2 1.1605682584842913e+00 -1.2154184257947943e+01 1.0000000000000000e+00 1.2882988070819016e+01 5.0874333920201291e+00 1.6478837132626008e+01 
174 1 2 1.1605682584842913e+00 1.0535880704823111e+01 1.0000000000000000e+00 6.8805358637762151e+00 8.4982599097632026e+00 1.6495530655277932e+01 
367 1 2 1.1605682584842913e+00 1.2357914411027885e+01 1.0000000000000000e+00 9.3170292859952930e+00 8.1584675023788389e+00 1.5817485268070003e+01 
304 1 2 1.1605682584842913e+00 1.6687090356177585e+01 1.0000000000000000e+00 7.6160401748116859e+00 1.9306186630573513e-01 1.7316801431823446e+01 
116 1 2 1.1605682584842913e+00 -1.6224572669892375e+01 1.0000000000000000e+00 8.8050918906963620e+00 2.1231857329295361e+00 1.7804611139299347e+01 
319 1 2 1.1605682584842913e+00 -3.3786014419421264e+01 1.0000000000000000e+00 7.8616955105305175e+00 3.9569015148471514e+00 1.8162671056897405e+01 
322 1 2 1.1605682584842913e+00 1.8923405880013583e+01 1.0000000000000000e+00 1.2069336894447892e+01 3.6673013448025471e+00 1.7960474515569938e+01 
317 1 2 1.1605682584842913e+00 -2.2210792224852646e+01 1.0000000000000000e+00 8.3287947162844773e+00 7.4101004675053970e+00 1.8026554042017324e+01 
51 1 2 1.1605682587376069e+00 1.3463904410554633e+01 1.0000000000000000e+00 1.1118704312597222e+01 7.8248245214432481e+00 1.8482178569599036e+01 
330 1 2 1.1605682584842913e+00 -5.3016394759007444e+00 1.0000000000000000e+00 1.2765275746016675e+01 9.2957485237183448e+00 1.9440805128975601e+01 
363 1 2 1.1605787920337980e+00 1.5586161770154671e+01 1.0000000000000000e+00 9.4303131331531116e+00 1.2570518683011169e+01 2.1019812396563475e-01 
73 1 2 1.1605682584842913e+00 1.2513656138491140e+01 1.0000000000000000e+00 1.1791617005692590e+01 1.5672272672166814e+01 6.9185358966607968e-01 
339 1 2 1.1605844229654412e+00 1.2304885555514705e+01 1.0000000000000000e+00 6.8223752705295810e+00 1.8060848164604131e+01 8.5247607419074012e-01 
117 1 2 1.1605682584842913e+00 8.1236036207387023e+00 1.0000000000000000e+00 1.0197575183834962e+01 1.0556497390087637e+01 2.1409742589905707e+00 
380 1 2 1.1605682584842913e+00 7.7188378183840278e+00 1.0000000000000000e+00 9.5391994619989280e+00 1.7866187055725618e+01 1.4472842910393942e+00 
274 1 2 1.1605844229654412e+00 1.6208392304058112e+01 1.0000000000000000e+00 6.9935065862574772e+00 1.9228579239298927e+01 2.3896303269458112e+00 
247 1 2 1.1605682584842913e+00 1.1553142002857824e+01 1.0000000000000000e+00 7.8523049956272892e+00 1.0102394430582230e+01 3.2974188993452094e+00 
60 1 2 1.1605682584842913e+00 1.1091520690180218e+01 1.0000000000000000e+00 8.8029654801961694e+00 1.2100735517851765e+01 4.0130836711342948e+00 
92 1 2 1.1605685572262470e+00 1.3810739341043000e+01 1.0000000000000000e+00 9.1403728255478036e+00 1.4087637927139912e+01 3.7892366672436424e+00 