LAMMPS data file via write_data, version 30 Jul 2016, timestep = 50400000

4620 atoms
8 atom types

0.0000000000000000e+00 1.0000000000000000e+02 xlo xhi
0.0000000000000000e+00 4.0000000000000000e+01 ylo yhi
0.0000000000000000e+00 4.0000000000000000e+01 zlo zhi

Masses

1 3.896
2 5.36
3 20.064
4 8.378
5 8.378
6 8.378
7 8.378
8 8.378

Atoms # meso-molecular

382 383 2 1.2467813888044947e+00 -1.4636501109450264e+00 1.0000000000000000e+00 1.4229695054899429e+00 1.0000000000000000e+01 1.2906569803275544e-01 
228 229 2 1.2467813888044947e+00 3.2454306373405721e+00 1.0000000000000000e+00 3.5753749809437974e+00 1.0000000000000000e+01 2.0582732131575721e-01 
363 364 2 1.2467813888044947e+00 -4.2488560345135769e+00 1.0000000000000000e+00 5.8220356489956187e+00 1.0000000000000000e+01 6.4734416544110107e-01 
181 182 2 1.2467813888044947e+00 -2.2806635518976703e+00 1.0000000000000000e+00 9.2791023783219195e+00 1.0000000000000000e+01 1.8621543830386742e+00 
271 272 2 1.2467813888044947e+00 -1.9626533153773686e+00 1.0000000000000000e+00 1.0726008723053731e+01 1.0000000000000000e+01 3.2067239342141607e-01 
61 62 2 1.2467813888044947e+00 -2.6847142950487903e+00 1.0000000000000000e+00 1.2689475177519860e+01 1.0000000000000000e+01 1.5440214676587742e+00 
93 94 2 1.2467813888044947e+00 -2.9932579295035082e+00 1.0000000000000000e+00 1.6506813641507240e+01 1.0000000000000000e+01 1.2415933546231779e+00 
34 35 2 1.2467813888044947e+00 7.0132104734111902e+00 1.0000000000000000e+00 2.1873214977232276e+01 1.0000000000000000e+01 3.7808617106915843e-01 
320 321 2 1.2467813888044947e+00 -4.1146247074242472e+00 1.0000000000000000e+00 2.3658196738759681e+01 1.0000000000000000e+01 2.0484401460342667e+00 
368 369 2 1.2467813888044947e+00 -1.6680922537351406e+00 1.0000000000000000e+00 2.5610203936502845e+01 1.0000000000000000e+01 6.9329643317708289e-01 
46 47 2 1.2467813888044947e+00 -4.5087221311677822e-01 1.0000000000000000e+00 2.8023364985080825e+01 1.0000000000000000e+01 1.5155330032623571e-01 
31 32 2 1.2467813888044947e+00 3.8003394220264051e+00 1.0000000000000000e+00 3.0806229731994247e+01 1.0000000000000000e+01 2.1504235682651824e+00 
844 845 2 1.2467813888044947e+00 -1.4636501109450264e+00 1.0000000000000000e+00 1.4229695054899429e+00 1.2199999999999999e+01 1.2906569803275544e-01 
690 691 2 1.2467813888044947e+00 3.2454306373405721e+00 1.0000000000000000e+00 3.5753749809437974e+00 1.2199999999999999e+01 2.0582732131575721e-01 
825 826 2 1.2467813888044947e+00 -4.2488560345135769e+00 1.0000000000000000e+00 5.8220356489956187e+00 1.2199999999999999e+01 6.4734416544110107e-01 
643 644 2 1.2467813888044947e+00 -2.2806635518976703e+00 1.0000000000000000e+00 9.2791023783219195e+00 1.2199999999999999e+01 1.8621543830386742e+00 
733 734 2 1.2467813888044947e+00 -1.9626533153773686e+00 1.0000000000000000e+00 1.0726008723053731e+01 1.2199999999999999e+01 3.2067239342141607e-01 
523 524 2 1.2467813888044947e+00 -2.6847142950487903e+00 1.0000000000000000e+00 1.2689475177519860e+01 1.2199999999999999e+01 1.5440214676587742e+00 
555 556 2 1.2467813888044947e+00 -2.9932579295035082e+00 1.0000000000000000e+00 1.6506813641507240e+01 1.2199999999999999e+01 1.2415933546231779e+00 
496 497 2 1.2467813888044947e+00 7.0132104734111902e+00 1.0000000000000000e+00 2.1873214977232276e+01 1.2199999999999999e+01 3.7808617106915843e-01 
782 783 2 1.2467813888044947e+00 -4.1146247074242472e+00 1.0000000000000000e+00 2.3658196738759681e+01 1.2199999999999999e+01 2.0484401460342667e+00 
830 831 2 1.2467813888044947e+00 -1.6680922537351406e+00 1.0000000000000000e+00 2.5610203936502845e+01 1.2199999999999999e+01 6.9329643317708289e-01 
508 509 2 1.2467813888044947e+00 -4.5087221311677822e-01 1.0000000000000000e+00 2.8023364985080825e+01 1.2199999999999999e+01 1.5155330032623571e-01 
493 494 2 1.2467813888044947e+00 3.8003394220264051e+00 1.0000000000000000e+00 3.0806229731994247e+01 1.2199999999999999e+01 2.1504235682651824e+00 
1306 1307 2 1.2467813888044947e+00 -1.4636501109450264e+00 1.0000000000000000e+00 1.4229695054899429e+00 1.4400000000000000e+01 1.2906569803275544e-01 
1152 1153 2 1.2467813888044947e+00 3.2454306373405721e+00 1.0000000000000000e+00 3.5753749809437974e+00 1.4400000000000000e+01 2.0582732131575721e-01 
1287 1288 2 1.2467813888044947e+00 -4.2488560345135769e+00 1.0000000000000000e+00 5.8220356489956187e+00 1.4400000000000000e+01 6.4734416544110107e-01 
1105 1106 2 1.2467813888044947e+00 -2.2806635518976703e+00 1.0000000000000000e+00 9.2791023783219195e+00 1.4400000000000000e+01 1.8621543830386742e+00 
1195 1196 2 1.2467813888044947e+00 -1.9626533153773686e+00 1.0000000000000000e+00 1.0726008723053731e+01 1.4400000000000000e+01 3.2067239342141607e-01 
985 986 2 1.2467813888044947e+00 -2.6847142950487903e+00 1.0000000000000000e+00 1.2689475177519860e+01 1.4400000000000000e+01 1.5440214676587742e+00 
1017 1018 2 1.2467813888044947e+00 -2.9932579295035082e+00 1.0000000000000000e+00 1.6506813641507240e+01 1.4400000000000000e+01 1.2415933546231779e+00 
958 959 2 1.2467813888044947e+00 7.0132104734111902e+00 1.0000000000000000e+00 2.1873214977232276e+01 1.4400000000000000e+01 3.7808617106915843e-01 
1244 1245 2 1.2467813888044947e+00 -4.1146247074242472e+00 1.0000000000000000e+00 2.3658196738759681e+01 1.4400000000000000e+01 2.0484401460342667e+00 
1292 1293 2 1.2467813888044947e+00 -1.6680922537351406e+00 1.0000000000000000e+00 2.5610203936502845e+01 1.4400000000000000e+01 6.9329643317708289e-01 
970 971 2 1.2467813888044947e+00 -4.5087221311677822e-01 1.0000000000000000e+00 2.8023364985080825e+01 1.4400000000000000e+01 1.5155330032623571e-01 
955 956 2 1.2467813888044947e+00 3.8003394220264051e+00 1.0000000000000000e+00 3.0806229731994247e+01 1.4400000000000000e+01 2.1504235682651824e+00 
1768 1769 2 1.2467813888044947e+00 -1.4636501109450264e+00 1.0000000000000000e+00 1.4229695054899429e+00 1.6600000000000001e+01 1.2906569803275544e-01 
1614 1615 2 1.2467813888044947e+00 3.2454306373405721e+00 1.0000000000000000e+00 3.5753749809437974e+00 1.6600000000000001e+01 2.0582732131575721e-01 
1749 1750 2 1.2467813888044947e+00 -4.2488560345135769e+00 1.0000000000000000e+00 5.8220356489956187e+00 1.6600000000000001e+01 6.4734416544110107e-01 
1567 1568 2 1.2467813888044947e+00 -2.2806635518976703e+00 1.0000000000000000e+00 9.2791023783219195e+00 1.6600000000000001e+01 1.8621543830386742e+00 
1657 1658 2 1.2467813888044947e+00 -1.9626533153773686e+00 1.0000000000000000e+00 1.0726008723053731e+01 1.6600000000000001e+01 3.2067239342141607e-01 
1447 1448 2 1.2467813888044947e+00 -2.6847142950487903e+00 1.0000000000000000e+00 1.2689475177519860e+01 1.6600000000000001e+01 1.5440214676587742e+00 
1479 1480 2 1.2467813888044947e+00 -2.9932579295035082e+00 1.0000000000000000e+00 1.6506813641507240e+01 1.6600000000000001e+01 1.2415933546231779e+00 
1420 1421 2 1.2467813888044947e+00 7.0132104734111902e+00 1.0000000000000000e+00 2.1873214977232276e+01 1.6600000000000001e+01 3.7808617106915843e-01 
1706 1707 2 1.2467813888044947e+00 -4.1146247074242472e+00 1.0000000000000000e+00 2.3658196738759681e+01 1.6600000000000001e+01 2.0484401460342667e+00 
1754 1755 2 1.2467813888044947e+00 -1.6680922537351406e+00 1.0000000000000000e+00 2.5610203936502845e+01 1.6600000000000001e+01 6.9329643317708289e-01 
1432 1433 2 1.2467813888044947e+00 -4.5087221311677822e-01 1.0000000000000000e+00 2.8023364985080825e+01 1.6600000000000001e+01 1.5155330032623571e-01 
1417 1418 2 1.2467813888044947e+00 3.8003394220264051e+00 1.0000000000000000e+00 3.0806229731994247e+01 1.6600000000000001e+01 2.1504235682651824e+00 
2258 2259 2 1.2467813888044947e+00 -4.6013083024317218e+00 1.0000000000000000e+00 6.9650921651820203e+00 1.8800000000000001e+01 8.4666357363129630e-01 
2260 2261 2 1.2467813948615383e+00 -3.8278686706810428e+00 1.0000000000000000e+00 1.4715540347019880e+01 1.8800000000000001e+01 1.3341362419772562e+00 
2006 2007 2 1.2467813888044947e+00 -3.0427000806473270e+00 1.0000000000000000e+00 1.7712064448414022e+01 1.8800000000000001e+01 1.8608677033142618e+00 
2103 2104 2 1.2467813888044947e+00 -3.5292667888922855e+00 1.0000000000000000e+00 2.1616553213493908e+01 1.8800000000000001e+01 4.2384033724844183e-01 
1943 1944 2 1.2467813886430013e+00 -2.6295800673377183e+00 1.0000000000000000e+00 2.6152336349307181e+01 1.8800000000000001e+01 1.4331256507534742e+00 
2104 2105 2 1.2467813886430013e+00 -1.8976834880967721e+00 1.0000000000000000e+00 2.8118515699835175e+01 1.8800000000000001e+01 7.0260953054896003e-01 
1932 1933 2 1.2467813888044947e+00 5.6790830167258548e+00 1.0000000000000000e+00 3.2400635042384728e+01 1.8800000000000001e+01 1.5422812013823437e+00 
325 326 2 1.2467813888044947e+00 -4.0047512358998381e+00 1.0000000000000000e+00 7.8070103808533597e-01 1.0000000000000000e+01 3.5036494726934255e+00 
374 375 2 1.2467813888044947e+00 -3.0370358714193677e+00 1.0000000000000000e+00 3.0267950634847267e+00 1.0000000000000000e+01 3.0887923382772660e+00 
330 331 2 1.2467813888044947e+00 -3.0715724503041999e+00 1.0000000000000000e+00 5.3900601140795485e+00 1.0000000000000000e+01 2.9426503025796089e+00 
286 287 2 1.2467813888044947e+00 -4.5639579470723239e+00 1.0000000000000000e+00 7.9444927248295514e+00 1.0000000000000000e+01 3.6921370768155879e+00 
162 163 2 1.2467813888044947e+00 -7.9512490208318909e-01 1.0000000000000000e+00 1.0416707371167339e+01 1.0000000000000000e+01 3.8716707313705436e+00 
98 99 2 1.2467813888044947e+00 -1.7940045014236201e+00 1.0000000000000000e+00 1.4237055588544589e+01 1.0000000000000000e+01 3.4737937791436484e+00 
119 120 2 1.2467813888044947e+00 -3.7891492092050845e+00 1.0000000000000000e+00 2.0918261283182595e+01 1.0000000000000000e+01 2.3056620436379665e+00 
787 788 2 1.2467813888044947e+00 -4.0047512358998381e+00 1.0000000000000000e+00 7.8070103808533597e-01 1.2199999999999999e+01 3.5036494726934255e+00 
836 837 2 1.2467813888044947e+00 -3.0370358714193677e+00 1.0000000000000000e+00 3.0267950634847267e+00 1.2199999999999999e+01 3.0887923382772660e+00 
792 793 2 1.2467813888044947e+00 -3.0715724503041999e+00 1.0000000000000000e+00 5.3900601140795485e+00 1.2199999999999999e+01 2.9426503025796089e+00 
748 749 2 1.2467813888044947e+00 -4.5639579470723239e+00 1.0000000000000000e+00 7.9444927248295514e+00 1.2199999999999999e+01 3.6921370768155879e+00 
624 625 2 1.2467813888044947e+00 -7.9512490208318909e-01 1.0000000000000000e+00 1.0416707371167339e+01 1.2199999999999999e+01 3.8716707313705436e+00 
560 561 2 1.2467813888044947e+00 -1.7940045014236201e+00 1.0000000000000000e+00 1.4237055588544589e+01 1.2199999999999999e+01 3.4737937791436484e+00 
581 582 2 1.2467813888044947e+00 -3.7891492092050845e+00 1.0000000000000000e+00 2.0918261283182595e+01 1.2199999999999999e+01 2.3056620436379665e+00 
1249 1250 2 1.2467813888044947e+00 -4.0047512358998381e+00 1.0000000000000000e+00 7.8070103808533597e-01 1.4400000000000000e+01 3.5036494726934255e+00 
1298 1299 2 1.2467813888044947e+00 -3.0370358714193677e+00 1.0000000000000000e+00 3.0267950634847267e+00 1.4400000000000000e+01 3.0887923382772660e+00 
1254 1255 2 1.2467813888044947e+00 -3.0715724503041999e+00 1.0000000000000000e+00 5.3900601140795485e+00 1.4400000000000000e+01 2.9426503025796089e+00 
1210 1211 2 1.2467813888044947e+00 -4.5639579470723239e+00 1.0000000000000000e+00 7.9444927248295514e+00 1.4400000000000000e+01 3.6921370768155879e+00 
1086 1087 2 1.2467813888044947e+00 -7.9512490208318909e-01 1.0000000000000000e+00 1.0416707371167339e+01 1.4400000000000000e+01 3.8716707313705436e+00 
1022 1023 2 1.2467813888044947e+00 -1.7940045014236201e+00 1.0000000000000000e+00 1.4237055588544589e+01 1.4400000000000000e+01 3.4737937791436484e+00 
1043 1044 2 1.2467813888044947e+00 -3.7891492092050845e+00 1.0000000000000000e+00 2.0918261283182595e+01 1.4400000000000000e+01 2.3056620436379665e+00 
1711 1712 2 1.2467813888044947e+00 -4.0047512358998381e+00 1.0000000000000000e+00 7.8070103808533597e-01 1.6600000000000001e+01 3.5036494726934255e+00 
1760 1761 2 1.2467813888044947e+00 -3.0370358714193677e+00 1.0000000000000000e+00 3.0267950634847267e+00 1.6600000000000001e+01 3.0887923382772660e+00 
1716 1717 2 1.2467813888044947e+00 -3.0715724503041999e+00 1.0000000000000000e+00 5.3900601140795485e+00 1.6600000000000001e+01 2.9426503025796089e+00 
1672 1673 2 1.2467813888044947e+00 -4.5639579470723239e+00 1.0000000000000000e+00 7.9444927248295514e+00 1.6600000000000001e+01 3.6921370768155879e+00 
1548 1549 2 1.2467813888044947e+00 -7.9512490208318909e-01 1.0000000000000000e+00 1.0416707371167339e+01 1.6600000000000001e+01 3.8716707313705436e+00 
1484 1485 2 1.2467813888044947e+00 -1.7940045014236201e+00 1.0000000000000000e+00 1.4237055588544589e+01 1.6600000000000001e+01 3.4737937791436484e+00 
1505 1506 2 1.2467813888044947e+00 -3.7891492092050845e+00 1.0000000000000000e+00 2.0918261283182595e+01 1.6600000000000001e+01 2.3056620436379665e+00 
2230 2231 2 1.2467813888044947e+00 -2.2921424901927496e+00 1.0000000000000000e+00 4.3226087033912336e-01 1.8800000000000001e+01 2.2464623754271722e+00 
1993 1994 2 1.2467813888044947e+00 -2.5565512137234103e+00 1.0000000000000000e+00 1.5839221157869663e+00 1.8800000000000001e+01 4.2142003226675282e+00 
2212 2213 2 1.2467813888044947e+00 -3.4568799135195842e+00 1.0000000000000000e+00 4.6075828863509418e+00 1.8800000000000001e+01 2.2377680623540535e+00 
1910 1911 2 1.2467813888044947e+00 -1.8032095515213148e-01 1.0000000000000000e+00 6.9636303466067204e+00 1.8800000000000001e+01 4.2785978072641404e+00 
2169 2170 2 1.2467813888044947e+00 -4.5659189758481302e+00 1.0000000000000000e+00 1.0499890536640777e+01 1.8800000000000001e+01 3.1759074318835361e+00 
2245 2246 2 1.2467813888044947e+00 -1.6366756741877047e+00 1.0000000000000000e+00 1.2959218729466484e+01 1.8800000000000001e+01 3.0224818956862651e+00 
2088 2089 2 1.2467813888044947e+00 -3.4512008348085237e+00 1.0000000000000000e+00 1.9999939615311074e+01 1.8800000000000001e+01 2.6486435243108462e+00 
2252 2253 2 1.2467813888044947e+00 -3.2221008471632562e+00 1.0000000000000000e+00 2.3116750756577567e+01 1.8800000000000001e+01 3.7216333197704570e+00 
2142 2143 2 1.2467813888044947e+00 3.0890912564766748e+00 1.0000000000000000e+00 3.0260428102624601e+01 1.8800000000000001e+01 3.3786158997624498e+00 
157 158 2 1.2467813888044947e+00 -4.0255573420990656e+00 1.0000000000000000e+00 1.1202966528616443e+00 1.0000000000000000e+01 6.3852036270371739e+00 
234 235 2 1.2467813888044947e+00 -1.2100720709804098e-01 1.0000000000000000e+00 3.1365205052203464e+00 1.0000000000000000e+01 5.3771507958228026e+00 
104 105 2 1.2467813888044947e+00 -2.4887588663720432e+00 1.0000000000000000e+00 6.4388542268575923e+00 1.0000000000000000e+01 5.3106335474934783e+00 
296 297 2 1.2467813888044947e+00 -1.4658662104315663e+00 1.0000000000000000e+00 1.1954223840240815e+01 1.0000000000000000e+01 5.3361458596163542e+00 
38 39 2 1.2467813888044947e+00 4.3577791891706568e+00 1.0000000000000000e+00 1.8187378347834009e+01 1.0000000000000000e+01 6.6278890444902894e+00 
167 168 2 1.2467813888044947e+00 -1.1906079138138759e+00 1.0000000000000000e+00 2.0826151207385774e+01 1.0000000000000000e+01 5.5029748543577419e+00 
44 45 2 1.2467813888044947e+00 -3.4543809479307050e+00 1.0000000000000000e+00 2.3148713763507814e+01 1.0000000000000000e+01 5.8678992894105324e+00 
397 398 2 1.2467819210039528e+00 -3.2092696245862480e+00 1.0000000000000000e+00 2.6301113732231975e+01 1.0000000000000000e+01 5.2863782712511567e+00 
152 153 2 1.2467813888044947e+00 -2.7726106473389471e+00 1.0000000000000000e+00 2.8706716812928370e+01 1.0000000000000000e+01 4.6342159634685594e+00 
321 322 2 1.2467813888044947e+00 -2.4478715174370556e+00 1.0000000000000000e+00 3.1400034460189712e+01 1.0000000000000000e+01 4.5193404437822871e+00 
619 620 2 1.2467813888044947e+00 -4.0255573420990656e+00 1.0000000000000000e+00 1.1202966528616443e+00 1.2199999999999999e+01 6.3852036270371739e+00 
696 697 2 1.2467813888044947e+00 -1.2100720709804098e-01 1.0000000000000000e+00 3.1365205052203464e+00 1.2199999999999999e+01 5.3771507958228026e+00 
566 567 2 1.2467813888044947e+00 -2.4887588663720432e+00 1.0000000000000000e+00 6.4388542268575923e+00 1.2199999999999999e+01 5.3106335474934783e+00 
758 759 2 1.2467813888044947e+00 -1.4658662104315663e+00 1.0000000000000000e+00 1.1954223840240815e+01 1.2199999999999999e+01 5.3361458596163542e+00 
500 501 2 1.2467813888044947e+00 4.3577791891706568e+00 1.0000000000000000e+00 1.8187378347834009e+01 1.2199999999999999e+01 6.6278890444902894e+00 
629 630 2 1.2467813888044947e+00 -1.1906079138138759e+00 1.0000000000000000e+00 2.0826151207385774e+01 1.2199999999999999e+01 5.5029748543577419e+00 
506 507 2 1.2467813888044947e+00 -3.4543809479307050e+00 1.0000000000000000e+00 2.3148713763507814e+01 1.2199999999999999e+01 5.8678992894105324e+00 
859 860 2 1.2467819210039528e+00 -3.2092696245862480e+00 1.0000000000000000e+00 2.6301113732231975e+01 1.2199999999999999e+01 5.2863782712511567e+00 
614 615 2 1.2467813888044947e+00 -2.7726106473389471e+00 1.0000000000000000e+00 2.8706716812928370e+01 1.2199999999999999e+01 4.6342159634685594e+00 
783 784 2 1.2467813888044947e+00 -2.4478715174370556e+00 1.0000000000000000e+00 3.1400034460189712e+01 1.2199999999999999e+01 4.5193404437822871e+00 
1081 1082 2 1.2467813888044947e+00 -4.0255573420990656e+00 1.0000000000000000e+00 1.1202966528616443e+00 1.4400000000000000e+01 6.3852036270371739e+00 
1158 1159 2 1.2467813888044947e+00 -1.2100720709804098e-01 1.0000000000000000e+00 3.1365205052203464e+00 1.4400000000000000e+01 5.3771507958228026e+00 
1028 1029 2 1.2467813888044947e+00 -2.4887588663720432e+00 1.0000000000000000e+00 6.4388542268575923e+00 1.4400000000000000e+01 5.3106335474934783e+00 
1220 1221 2 1.2467813888044947e+00 -1.4658662104315663e+00 1.0000000000000000e+00 1.1954223840240815e+01 1.4400000000000000e+01 5.3361458596163542e+00 
962 963 2 1.2467813888044947e+00 4.3577791891706568e+00 1.0000000000000000e+00 1.8187378347834009e+01 1.4400000000000000e+01 6.6278890444902894e+00 
1091 1092 2 1.2467813888044947e+00 -1.1906079138138759e+00 1.0000000000000000e+00 2.0826151207385774e+01 1.4400000000000000e+01 5.5029748543577419e+00 
968 969 2 1.2467813888044947e+00 -3.4543809479307050e+00 1.0000000000000000e+00 2.3148713763507814e+01 1.4400000000000000e+01 5.8678992894105324e+00 
1321 1322 2 1.2467819210039528e+00 -3.2092696245862480e+00 1.0000000000000000e+00 2.6301113732231975e+01 1.4400000000000000e+01 5.2863782712511567e+00 
1076 1077 2 1.2467813888044947e+00 -2.7726106473389471e+00 1.0000000000000000e+00 2.8706716812928370e+01 1.4400000000000000e+01 4.6342159634685594e+00 
1245 1246 2 1.2467813888044947e+00 -2.4478715174370556e+00 1.0000000000000000e+00 3.1400034460189712e+01 1.4400000000000000e+01 4.5193404437822871e+00 
1543 1544 2 1.2467813888044947e+00 -4.0255573420990656e+00 1.0000000000000000e+00 1.1202966528616443e+00 1.6600000000000001e+01 6.3852036270371739e+00 
1620 1621 2 1.2467813888044947e+00 -1.2100720709804098e-01 1.0000000000000000e+00 3.1365205052203464e+00 1.6600000000000001e+01 5.3771507958228026e+00 
1490 1491 2 1.2467813888044947e+00 -2.4887588663720432e+00 1.0000000000000000e+00 6.4388542268575923e+00 1.6600000000000001e+01 5.3106335474934783e+00 
1682 1683 2 1.2467813888044947e+00 -1.4658662104315663e+00 1.0000000000000000e+00 1.1954223840240815e+01 1.6600000000000001e+01 5.3361458596163542e+00 
1424 1425 2 1.2467813888044947e+00 4.3577791891706568e+00 1.0000000000000000e+00 1.8187378347834009e+01 1.6600000000000001e+01 6.6278890444902894e+00 
1553 1554 2 1.2467813888044947e+00 -1.1906079138138759e+00 1.0000000000000000e+00 2.0826151207385774e+01 1.6600000000000001e+01 5.5029748543577419e+00 
1430 1431 2 1.2467813888044947e+00 -3.4543809479307050e+00 1.0000000000000000e+00 2.3148713763507814e+01 1.6600000000000001e+01 5.8678992894105324e+00 
1783 1784 2 1.2467819210039528e+00 -3.2092696245862480e+00 1.0000000000000000e+00 2.6301113732231975e+01 1.6600000000000001e+01 5.2863782712511567e+00 
1538 1539 2 1.2467813888044947e+00 -2.7726106473389471e+00 1.0000000000000000e+00 2.8706716812928370e+01 1.6600000000000001e+01 4.6342159634685594e+00 
1707 1708 2 1.2467813888044947e+00 -2.4478715174370556e+00 1.0000000000000000e+00 3.1400034460189712e+01 1.6600000000000001e+01 4.5193404437822871e+00 
1895 1896 2 1.2467813888044947e+00 1.2431834256823644e+00 1.0000000000000000e+00 5.0028377194237743e+00 1.8800000000000001e+01 5.7047137739219407e+00 
2144 2145 2 1.2467813888044947e+00 -2.1271616235530537e+00 1.0000000000000000e+00 7.0382676795556911e+00 1.8800000000000001e+01 6.3936108814289154e+00 
2203 2204 2 1.2467813888044947e+00 -3.1359767695002958e+00 1.0000000000000000e+00 1.2214665479488584e+01 1.8800000000000001e+01 6.0988709467379536e+00 
2133 2134 2 1.2467813888044947e+00 -2.6335251548470930e+00 1.0000000000000000e+00 1.5075496089288354e+01 1.8800000000000001e+01 4.7667667813235415e+00 
2217 2218 2 1.2467813888044947e+00 -6.0536319823299711e-01 1.0000000000000000e+00 1.9007685104884249e+01 1.8800000000000001e+01 5.2118199757097505e+00 
1955 1956 2 1.2467813888044947e+00 -4.3364289233482136e+00 1.0000000000000000e+00 2.2125417153791336e+01 1.8800000000000001e+01 6.6216327310919327e+00 
1948 1949 2 1.2467813888044947e+00 -3.5261511754920161e+00 1.0000000000000000e+00 2.4758870070690552e+01 1.8800000000000001e+01 6.4151853909783094e+00 
1988 1989 2 1.2467813888044947e+00 -3.7897014136651936e+00 1.0000000000000000e+00 2.6714854364116476e+01 1.8800000000000001e+01 4.8986171438856392e+00 
1913 1914 2 1.2467815946402037e+00 -1.6650304804192924e+00 1.0000000000000000e+00 2.9364622361358315e+01 1.8800000000000001e+01 5.6538232298690501e+00 
450 451 2 1.2467813888044947e+00 5.8341349391524950e+00 1.0000000000000000e+00 4.4458480791948034e+00 1.0000000000000000e+01 7.3566806628579613e+00 
295 296 2 1.2467813888044947e+00 4.6607692846943127e+00 1.0000000000000000e+00 7.6191186441173215e+00 1.0000000000000000e+01 7.2314030365355073e+00 
437 438 2 1.2467813888044947e+00 4.4502775051557038e+00 1.0000000000000000e+00 1.7146670881907902e+01 1.0000000000000000e+01 8.6251573701617996e+00 
272 273 2 1.2467813888044947e+00 -2.4728204794394899e+00 1.0000000000000000e+00 2.0935164410106374e+01 1.0000000000000000e+01 7.7912174324542791e+00 
264 265 2 1.2467819210039528e+00 -1.5524241901409064e+00 1.0000000000000000e+00 2.4999511249203433e+01 1.0000000000000000e+01 6.9000300188568993e+00 
282 283 2 1.2467813888044947e+00 -4.0760216120622434e+00 1.0000000000000000e+00 2.8113485687587776e+01 1.0000000000000000e+01 7.2847542485388850e+00 
249 250 2 1.2467813888044947e+00 -4.4276496465273061e+00 1.0000000000000000e+00 3.0324171832778742e+01 1.0000000000000000e+01 7.2862380974130110e+00 
912 913 2 1.2467813888044947e+00 5.8341349391524950e+00 1.0000000000000000e+00 4.4458480791948034e+00 1.2199999999999999e+01 7.3566806628579613e+00 
757 758 2 1.2467813888044947e+00 4.6607692846943127e+00 1.0000000000000000e+00 7.6191186441173215e+00 1.2199999999999999e+01 7.2314030365355073e+00 
899 900 2 1.2467813888044947e+00 4.4502775051557038e+00 1.0000000000000000e+00 1.7146670881907902e+01 1.2199999999999999e+01 8.6251573701617996e+00 
734 735 2 1.2467813888044947e+00 -2.4728204794394899e+00 1.0000000000000000e+00 2.0935164410106374e+01 1.2199999999999999e+01 7.7912174324542791e+00 
726 727 2 1.2467819210039528e+00 -1.5524241901409064e+00 1.0000000000000000e+00 2.4999511249203433e+01 1.2199999999999999e+01 6.9000300188568993e+00 
744 745 2 1.2467813888044947e+00 -4.0760216120622434e+00 1.0000000000000000e+00 2.8113485687587776e+01 1.2199999999999999e+01 7.2847542485388850e+00 
711 712 2 1.2467813888044947e+00 -4.4276496465273061e+00 1.0000000000000000e+00 3.0324171832778742e+01 1.2199999999999999e+01 7.2862380974130110e+00 
1374 1375 2 1.2467813888044947e+00 5.8341349391524950e+00 1.0000000000000000e+00 4.4458480791948034e+00 1.4400000000000000e+01 7.3566806628579613e+00 
1219 1220 2 1.2467813888044947e+00 4.6607692846943127e+00 1.0000000000000000e+00 7.6191186441173215e+00 1.4400000000000000e+01 7.2314030365355073e+00 
1361 1362 2 1.2467813888044947e+00 4.4502775051557038e+00 1.0000000000000000e+00 1.7146670881907902e+01 1.4400000000000000e+01 8.6251573701617996e+00 
1196 1197 2 1.2467813888044947e+00 -2.4728204794394899e+00 1.0000000000000000e+00 2.0935164410106374e+01 1.4400000000000000e+01 7.7912174324542791e+00 
1188 1189 2 1.2467819210039528e+00 -1.5524241901409064e+00 1.0000000000000000e+00 2.4999511249203433e+01 1.4400000000000000e+01 6.9000300188568993e+00 
1206 1207 2 1.2467813888044947e+00 -4.0760216120622434e+00 1.0000000000000000e+00 2.8113485687587776e+01 1.4400000000000000e+01 7.2847542485388850e+00 
1173 1174 2 1.2467813888044947e+00 -4.4276496465273061e+00 1.0000000000000000e+00 3.0324171832778742e+01 1.4400000000000000e+01 7.2862380974130110e+00 
1836 1837 2 1.2467813888044947e+00 5.8341349391524950e+00 1.0000000000000000e+00 4.4458480791948034e+00 1.6600000000000001e+01 7.3566806628579613e+00 
1681 1682 2 1.2467813888044947e+00 4.6607692846943127e+00 1.0000000000000000e+00 7.6191186441173215e+00 1.6600000000000001e+01 7.2314030365355073e+00 
1823 1824 2 1.2467813888044947e+00 4.4502775051557038e+00 1.0000000000000000e+00 1.7146670881907902e+01 1.6600000000000001e+01 8.6251573701617996e+00 
1658 1659 2 1.2467813888044947e+00 -2.4728204794394899e+00 1.0000000000000000e+00 2.0935164410106374e+01 1.6600000000000001e+01 7.7912174324542791e+00 
1650 1651 2 1.2467819210039528e+00 -1.5524241901409064e+00 1.0000000000000000e+00 2.4999511249203433e+01 1.6600000000000001e+01 6.9000300188568993e+00 
1668 1669 2 1.2467813888044947e+00 -4.0760216120622434e+00 1.0000000000000000e+00 2.8113485687587776e+01 1.6600000000000001e+01 7.2847542485388850e+00 
1635 1636 2 1.2467813888044947e+00 -4.4276496465273061e+00 1.0000000000000000e+00 3.0324171832778742e+01 1.6600000000000001e+01 7.2862380974130110e+00 
2096 2097 2 1.2467813888044947e+00 -2.8754706914433821e+00 1.0000000000000000e+00 1.5307051008763595e+00 1.8800000000000001e+01 7.5688036822444138e+00 
2219 2220 2 1.2467813888044947e+00 -2.9450808750320077e+00 1.0000000000000000e+00 8.8202527530329107e+00 1.8800000000000001e+01 8.0965422703384693e+00 
2086 2087 2 1.2467813888044947e+00 -5.0383631406758134e-01 1.0000000000000000e+00 1.1290640945034694e+01 1.8800000000000001e+01 8.0809443240100691e+00 
2098 2099 2 1.2467813888044947e+00 -3.0789584934421983e+00 1.0000000000000000e+00 1.5028381376914870e+01 1.8800000000000001e+01 6.9005689466210862e+00 
2239 2240 2 1.2467816581439128e+00 -2.0396801355305296e+00 1.0000000000000000e+00 1.7534377498729580e+01 1.8800000000000001e+01 7.2130913525459954e+00 
2117 2118 2 1.2467816581439128e+00 -1.2840552583532894e+00 1.0000000000000000e+00 1.8932632162525167e+01 1.8800000000000001e+01 8.7495115264513466e+00 
2164 2165 2 1.2467813888044947e+00 -5.1215439718161022e+00 1.0000000000000000e+00 2.1043041376128247e+01 1.8800000000000001e+01 8.8507350069240065e+00 
2262 2263 2 1.2467813888044947e+00 -2.6649784318857339e+00 1.0000000000000000e+00 2.4101708870126302e+01 1.8800000000000001e+01 8.7763387007577052e+00 
1933 1934 2 1.2467815946402037e+00 6.6783341811780073e+00 1.0000000000000000e+00 2.8389012321322031e+01 1.8800000000000001e+01 7.4891627979848963e+00 
2070 2071 2 1.2467813888044947e+00 -2.3834249693241532e+00 1.0000000000000000e+00 3.2778326184213675e+01 1.8800000000000001e+01 6.9548856141154616e+00 
2294 2295 2 1.2467813888130990e+00 2.8368012741250719e+00 1.0000000000000000e+00 3.1128455148062624e+01 1.8800000000000001e+01 8.2971989649296578e+00 
150 151 2 1.2467813888044947e+00 -2.9545832923262338e+00 1.0000000000000000e+00 1.0249173216243009e-01 1.0000000000000000e+01 1.0478624369078906e+01 
278 279 2 1.2467813888044947e+00 -1.7550306818480514e+00 1.0000000000000000e+00 2.1352205291277846e+00 1.0000000000000000e+01 9.8768562528877055e+00 
354 355 2 1.2467813888044947e+00 -1.9255891433982173e+00 1.0000000000000000e+00 7.4853771127453470e+00 1.0000000000000000e+01 1.1091107695746853e+01 
218 219 2 1.2467813888044947e+00 -4.9162574962323173e+00 1.0000000000000000e+00 1.0285737320693093e+01 1.0000000000000000e+01 8.8905694180585169e+00 
185 186 2 1.2467813888044947e+00 -1.7687048252457109e+00 1.0000000000000000e+00 1.2844277676289426e+01 1.0000000000000000e+01 9.5553146569754634e+00 
143 144 2 1.2467813888044947e+00 -4.7121463652900335e+00 1.0000000000000000e+00 1.5526998842227515e+01 1.0000000000000000e+01 1.0285298418805201e+01 
179 180 2 1.2467813888044947e+00 -3.6448571436180810e+00 1.0000000000000000e+00 2.1703753768047150e+01 1.0000000000000000e+01 1.1048881983467199e+01 
231 232 2 1.2467813888044947e+00 -2.3569819949263326e+00 1.0000000000000000e+00 2.2773370661430015e+01 1.0000000000000000e+01 9.1684669355689188e+00 
123 124 2 1.2467813888044947e+00 -3.2304512256049307e+00 1.0000000000000000e+00 2.6277297113947085e+01 1.0000000000000000e+01 9.3641009999528002e+00 
412 413 2 1.2467813888044947e+00 -3.7089996885010441e+00 1.0000000000000000e+00 2.4477978870497768e+01 1.0000000000000000e+01 1.0681752326875344e+01 
16 17 2 1.2467813888044947e+00 4.8991346161076965e+00 1.0000000000000000e+00 2.8785278271939017e+01 1.0000000000000000e+01 9.8996502175950223e+00 
241 242 2 1.2467813888044947e+00 -2.6835837242655423e+00 1.0000000000000000e+00 3.1576288630386724e+01 1.0000000000000000e+01 1.0253294586975331e+01 
612 613 2 1.2467813888044947e+00 -2.9545832923262338e+00 1.0000000000000000e+00 1.0249173216243009e-01 1.2199999999999999e+01 1.0478624369078906e+01 
740 741 2 1.2467813888044947e+00 -1.7550306818480514e+00 1.0000000000000000e+00 2.1352205291277846e+00 1.2199999999999999e+01 9.8768562528877055e+00 
816 817 2 1.2467813888044947e+00 -1.9255891433982173e+00 1.0000000000000000e+00 7.4853771127453470e+00 1.2199999999999999e+01 1.1091107695746853e+01 
680 681 2 1.2467813888044947e+00 -4.9162574962323173e+00 1.0000000000000000e+00 1.0285737320693093e+01 1.2199999999999999e+01 8.8905694180585169e+00 