LAMMPS data file via write_data, version 30 Jul 2016, timestep = 50000000

4620 atoms
8 atom types

0.0000000000000000e+00 1.0000000000000000e+02 xlo xhi
0.0000000000000000e+00 4.0000000000000000e+01 ylo yhi
0.0000000000000000e+00 4.0000000000000000e+01 zlo zhi

Masses

1 3.896
2 5.36
3 20.064
4 8.378
5 8.378
6 8.378
7 8.378
8 8.378

Atoms # meso-molecular

333 334 2 1.2467813888044947e+00 -2.3987520691434447e+00 1.0000000000000000e+00 4.1025694881924730e+00 1.0000000000000000e+01 1.8780542451143323e+00 
271 272 2 1.2467813888044947e+00 -1.9674423740728324e+00 1.0000000000000000e+00 8.5209085331937615e+00 1.0000000000000000e+01 2.0275731198484461e+00 
351 352 2 1.2467813888044947e+00 -3.1538430411850324e+00 1.0000000000000000e+00 1.0683741563014296e+01 1.0000000000000000e+01 1.7341950716162742e+00 
38 39 2 1.2467813888044947e+00 4.3517884096892239e+00 1.0000000000000000e+00 1.2447909676062761e+01 1.0000000000000000e+01 4.0486456504069696e-01 
98 99 2 1.2467813888044947e+00 -1.7991843797397089e+00 1.0000000000000000e+00 1.4937719253145733e+01 1.0000000000000000e+01 3.5387297689039793e-01 
119 120 2 1.2467813888044947e+00 -3.7945104678653347e+00 1.0000000000000000e+00 1.9938274408878179e+01 1.0000000000000000e+01 4.5402065129076441e-01 
323 324 2 1.2467813888044947e+00 -4.4063056832410012e+00 1.0000000000000000e+00 2.6713041459083584e+01 1.0000000000000000e+01 3.7561225745236693e-01 
92 93 2 1.2467813888044947e+00 -4.9797629194745546e-01 1.0000000000000000e+00 3.1143597225560008e+01 1.0000000000000000e+01 1.6556056458570230e+00 
795 796 2 1.2467813888044947e+00 -2.3987520691434447e+00 1.0000000000000000e+00 4.1025694881924730e+00 1.2199999999999999e+01 1.8780542451143323e+00 
733 734 2 1.2467813888044947e+00 -1.9674423740728324e+00 1.0000000000000000e+00 8.5209085331937615e+00 1.2199999999999999e+01 2.0275731198484461e+00 
813 814 2 1.2467813888044947e+00 -3.1538430411850324e+00 1.0000000000000000e+00 1.0683741563014296e+01 1.2199999999999999e+01 1.7341950716162742e+00 
500 501 2 1.2467813888044947e+00 4.3517884096892239e+00 1.0000000000000000e+00 1.2447909676062761e+01 1.2199999999999999e+01 4.0486456504069696e-01 
560 561 2 1.2467813888044947e+00 -1.7991843797397089e+00 1.0000000000000000e+00 1.4937719253145733e+01 1.2199999999999999e+01 3.5387297689039793e-01 
581 582 2 1.2467813888044947e+00 -3.7945104678653347e+00 1.0000000000000000e+00 1.9938274408878179e+01 1.2199999999999999e+01 4.5402065129076441e-01 
785 786 2 1.2467813888044947e+00 -4.4063056832410012e+00 1.0000000000000000e+00 2.6713041459083584e+01 1.2199999999999999e+01 3.7561225745236693e-01 
554 555 2 1.2467813888044947e+00 -4.9797629194745546e-01 1.0000000000000000e+00 3.1143597225560008e+01 1.2199999999999999e+01 1.6556056458570230e+00 
1257 1258 2 1.2467813888044947e+00 -2.3987520691434447e+00 1.0000000000000000e+00 4.1025694881924730e+00 1.4400000000000000e+01 1.8780542451143323e+00 
1195 1196 2 1.2467813888044947e+00 -1.9674423740728324e+00 1.0000000000000000e+00 8.5209085331937615e+00 1.4400000000000000e+01 2.0275731198484461e+00 
1275 1276 2 1.2467813888044947e+00 -3.1538430411850324e+00 1.0000000000000000e+00 1.0683741563014296e+01 1.4400000000000000e+01 1.7341950716162742e+00 
962 963 2 1.2467813888044947e+00 4.3517884096892239e+00 1.0000000000000000e+00 1.2447909676062761e+01 1.4400000000000000e+01 4.0486456504069696e-01 
1022 1023 2 1.2467813888044947e+00 -1.7991843797397089e+00 1.0000000000000000e+00 1.4937719253145733e+01 1.4400000000000000e+01 3.5387297689039793e-01 
1043 1044 2 1.2467813888044947e+00 -3.7945104678653347e+00 1.0000000000000000e+00 1.9938274408878179e+01 1.4400000000000000e+01 4.5402065129076441e-01 
1247 1248 2 1.2467813888044947e+00 -4.4063056832410012e+00 1.0000000000000000e+00 2.6713041459083584e+01 1.4400000000000000e+01 3.7561225745236693e-01 
1016 1017 2 1.2467813888044947e+00 -4.9797629194745546e-01 1.0000000000000000e+00 3.1143597225560008e+01 1.4400000000000000e+01 1.6556056458570230e+00 
1719 1720 2 1.2467813888044947e+00 -2.3987520691434447e+00 1.0000000000000000e+00 4.1025694881924730e+00 1.6600000000000001e+01 1.8780542451143323e+00 
1657 1658 2 1.2467813888044947e+00 -1.9674423740728324e+00 1.0000000000000000e+00 8.5209085331937615e+00 1.6600000000000001e+01 2.0275731198484461e+00 
1737 1738 2 1.2467813888044947e+00 -3.1538430411850324e+00 1.0000000000000000e+00 1.0683741563014296e+01 1.6600000000000001e+01 1.7341950716162742e+00 
1424 1425 2 1.2467813888044947e+00 4.3517884096892239e+00 1.0000000000000000e+00 1.2447909676062761e+01 1.6600000000000001e+01 4.0486456504069696e-01 
1484 1485 2 1.2467813888044947e+00 -1.7991843797397089e+00 1.0000000000000000e+00 1.4937719253145733e+01 1.6600000000000001e+01 3.5387297689039793e-01 
1505 1506 2 1.2467813888044947e+00 -3.7945104678653347e+00 1.0000000000000000e+00 1.9938274408878179e+01 1.6600000000000001e+01 4.5402065129076441e-01 
1709 1710 2 1.2467813888044947e+00 -4.4063056832410012e+00 1.0000000000000000e+00 2.6713041459083584e+01 1.6600000000000001e+01 3.7561225745236693e-01 
1478 1479 2 1.2467813888044947e+00 -4.9797629194745546e-01 1.0000000000000000e+00 3.1143597225560008e+01 1.6600000000000001e+01 1.6556056458570230e+00 
2057 2058 2 1.2467813888044947e+00 -1.7804056193705839e+00 1.0000000000000000e+00 2.7515001431259209e+00 1.8800000000000001e+01 1.5363387719506916e+00 
1895 1896 2 1.2467813888044947e+00 1.2390330165955796e+00 1.0000000000000000e+00 4.9816990064788937e+00 1.8800000000000001e+01 1.5141693658914508e+00 
2212 2213 2 1.2467813888044947e+00 -3.4642609508396727e+00 1.0000000000000000e+00 7.2072659619948904e+00 1.8800000000000001e+01 1.0154630273010106e+00 
2144 2145 2 1.2467813888044947e+00 -2.1337454929086301e+00 1.0000000000000000e+00 9.7806977742149321e+00 1.8800000000000001e+01 3.5287467065158568e-01 
2086 2087 2 1.2467813888044947e+00 -5.1043568654334237e-01 1.0000000000000000e+00 1.5564308756107700e+01 1.8800000000000001e+01 1.5949286839676460e+00 
2252 2253 2 1.2467813888044947e+00 -3.2325636537319080e+00 1.0000000000000000e+00 1.7495225900885796e+01 1.8800000000000001e+01 4.8097128900255914e-01 
1948 1949 2 1.2467813888044947e+00 -3.5304378528512412e+00 1.0000000000000000e+00 2.1566719991311977e+01 1.8800000000000001e+01 3.7679346804663016e-01 
1955 1956 2 1.2467813888044947e+00 -4.3423354258597211e+00 1.0000000000000000e+00 2.5252575963708978e+01 1.8800000000000001e+01 2.1162680707793471e+00 
2142 2143 2 1.2467813888044947e+00 3.0816172573432929e+00 1.0000000000000000e+00 3.1977386966822394e+01 1.8800000000000001e+01 8.7306078949383456e-02 
183 184 2 1.2467813888044947e+00 5.3705621675687251e-02 1.0000000000000000e+00 7.6868693055703774e-01 1.0000000000000000e+01 4.2664078966969559e+00 
363 364 2 1.2467813888044947e+00 -4.2536193290954616e+00 1.0000000000000000e+00 6.3659279180900477e+00 1.0000000000000000e+01 2.2484344625408572e+00 
295 296 2 1.2467813888044947e+00 4.6513480634307225e+00 1.0000000000000000e+00 9.8333314236674205e+00 1.0000000000000000e+01 3.6744347300498221e+00 
162 163 2 1.2467813888044947e+00 -8.0320969021986255e-01 1.0000000000000000e+00 1.2619809661077594e+01 1.0000000000000000e+01 3.5241745314747477e+00 
343 344 2 1.2467813888044947e+00 -1.8535198700806719e+00 1.0000000000000000e+00 2.0755613658539900e+01 1.0000000000000000e+01 2.5098230268383581e+00 
159 160 2 1.2467813888044947e+00 -1.5347758072948925e+00 1.0000000000000000e+00 2.5033107248312128e+01 1.0000000000000000e+01 2.6285917240325820e+00 
31 32 2 1.2467813888044947e+00 3.7950977065339364e+00 1.0000000000000000e+00 2.7205947126035898e+01 1.0000000000000000e+01 3.2764680151069148e+00 
397 398 2 1.2467813888044947e+00 -3.3580335598459659e+00 1.0000000000000000e+00 3.0359196820174546e+01 1.0000000000000000e+01 3.6669884312788534e+00 
412 413 2 1.2467813888044947e+00 -3.7126627746079039e+00 1.0000000000000000e+00 3.3260121708536417e+01 1.0000000000000000e+01 4.3734468725028561e+00 
645 646 2 1.2467813888044947e+00 5.3705621675687251e-02 1.0000000000000000e+00 7.6868693055703774e-01 1.2199999999999999e+01 4.2664078966969559e+00 
825 826 2 1.2467813888044947e+00 -4.2536193290954616e+00 1.0000000000000000e+00 6.3659279180900477e+00 1.2199999999999999e+01 2.2484344625408572e+00 
757 758 2 1.2467813888044947e+00 4.6513480634307225e+00 1.0000000000000000e+00 9.8333314236674205e+00 1.2199999999999999e+01 3.6744347300498221e+00 
624 625 2 1.2467813888044947e+00 -8.0320969021986255e-01 1.0000000000000000e+00 1.2619809661077594e+01 1.2199999999999999e+01 3.5241745314747477e+00 
805 806 2 1.2467813888044947e+00 -1.8535198700806719e+00 1.0000000000000000e+00 2.0755613658539900e+01 1.2199999999999999e+01 2.5098230268383581e+00 
621 622 2 1.2467813888044947e+00 -1.5347758072948925e+00 1.0000000000000000e+00 2.5033107248312128e+01 1.2199999999999999e+01 2.6285917240325820e+00 
493 494 2 1.2467813888044947e+00 3.7950977065339364e+00 1.0000000000000000e+00 2.7205947126035898e+01 1.2199999999999999e+01 3.2764680151069148e+00 
859 860 2 1.2467813888044947e+00 -3.3580335598459659e+00 1.0000000000000000e+00 3.0359196820174546e+01 1.2199999999999999e+01 3.6669884312788534e+00 
874 875 2 1.2467813888044947e+00 -3.7126627746079039e+00 1.0000000000000000e+00 3.3260121708536417e+01 1.2199999999999999e+01 4.3734468725028561e+00 
1107 1108 2 1.2467813888044947e+00 5.3705621675687251e-02 1.0000000000000000e+00 7.6868693055703774e-01 1.4400000000000000e+01 4.2664078966969559e+00 
1287 1288 2 1.2467813888044947e+00 -4.2536193290954616e+00 1.0000000000000000e+00 6.3659279180900477e+00 1.4400000000000000e+01 2.2484344625408572e+00 
1219 1220 2 1.2467813888044947e+00 4.6513480634307225e+00 1.0000000000000000e+00 9.8333314236674205e+00 1.4400000000000000e+01 3.6744347300498221e+00 
1086 1087 2 1.2467813888044947e+00 -8.0320969021986255e-01 1.0000000000000000e+00 1.2619809661077594e+01 1.4400000000000000e+01 3.5241745314747477e+00 
1267 1268 2 1.2467813888044947e+00 -1.8535198700806719e+00 1.0000000000000000e+00 2.0755613658539900e+01 1.4400000000000000e+01 2.5098230268383581e+00 
1083 1084 2 1.2467813888044947e+00 -1.5347758072948925e+00 1.0000000000000000e+00 2.5033107248312128e+01 1.4400000000000000e+01 2.6285917240325820e+00 
955 956 2 1.2467813888044947e+00 3.7950977065339364e+00 1.0000000000000000e+00 2.7205947126035898e+01 1.4400000000000000e+01 3.2764680151069148e+00 
1321 1322 2 1.2467813888044947e+00 -3.3580335598459659e+00 1.0000000000000000e+00 3.0359196820174546e+01 1.4400000000000000e+01 3.6669884312788534e+00 
1336 1337 2 1.2467813888044947e+00 -3.7126627746079039e+00 1.0000000000000000e+00 3.3260121708536417e+01 1.4400000000000000e+01 4.3734468725028561e+00 
1569 1570 2 1.2467813888044947e+00 5.3705621675687251e-02 1.0000000000000000e+00 7.6868693055703774e-01 1.6600000000000001e+01 4.2664078966969559e+00 
1749 1750 2 1.2467813888044947e+00 -4.2536193290954616e+00 1.0000000000000000e+00 6.3659279180900477e+00 1.6600000000000001e+01 2.2484344625408572e+00 
1681 1682 2 1.2467813888044947e+00 4.6513480634307225e+00 1.0000000000000000e+00 9.8333314236674205e+00 1.6600000000000001e+01 3.6744347300498221e+00 
1548 1549 2 1.2467813888044947e+00 -8.0320969021986255e-01 1.0000000000000000e+00 1.2619809661077594e+01 1.6600000000000001e+01 3.5241745314747477e+00 
1729 1730 2 1.2467813888044947e+00 -1.8535198700806719e+00 1.0000000000000000e+00 2.0755613658539900e+01 1.6600000000000001e+01 2.5098230268383581e+00 
1545 1546 2 1.2467813888044947e+00 -1.5347758072948925e+00 1.0000000000000000e+00 2.5033107248312128e+01 1.6600000000000001e+01 2.6285917240325820e+00 
1417 1418 2 1.2467813888044947e+00 3.7950977065339364e+00 1.0000000000000000e+00 2.7205947126035898e+01 1.6600000000000001e+01 3.2764680151069148e+00 
1783 1784 2 1.2467813888044947e+00 -3.3580335598459659e+00 1.0000000000000000e+00 3.0359196820174546e+01 1.6600000000000001e+01 3.6669884312788534e+00 
1798 1799 2 1.2467813888044947e+00 -3.7126627746079039e+00 1.0000000000000000e+00 3.3260121708536417e+01 1.6600000000000001e+01 4.3734468725028561e+00 
2230 2231 2 1.2467813888044947e+00 -2.2965438952701867e+00 1.0000000000000000e+00 3.9178327859886846e+00 1.8800000000000001e+01 3.3759914799566557e+00 
2135 2136 2 1.2467813888044947e+00 -2.7259586847480541e+00 1.0000000000000000e+00 5.8427090674723612e+00 1.8800000000000001e+01 4.3405980662731949e+00 
1984 1985 2 1.2467813888044947e+00 -2.1467712221178998e+00 1.0000000000000000e+00 9.5085806526455823e+00 1.8800000000000001e+01 3.4552100329713018e+00 
1864 1865 2 1.2467813888044947e+00 4.3660340130916104e+00 1.0000000000000000e+00 1.6149455008744155e+01 1.8800000000000001e+01 4.2941803166271351e+00 
2169 2170 2 1.2467813888044947e+00 -4.5720096650207553e+00 1.0000000000000000e+00 1.8332297184476850e+01 1.8800000000000001e+01 2.5258923262238864e+00 
2239 2240 2 1.2467813888044947e+00 -2.1327666754658652e+00 1.0000000000000000e+00 2.0015544990889293e+01 1.8800000000000001e+01 4.1926002113039553e+00 
1988 1989 2 1.2467813959372314e+00 -3.7968326903397607e+00 1.0000000000000000e+00 2.3733664917386417e+01 1.8800000000000001e+01 4.1616436473447793e+00 
2070 2071 2 1.2467815941113780e+00 -2.3135090892305703e+00 1.0000000000000000e+00 3.0446588723117657e+01 1.8800000000000001e+01 2.7558119317337315e+00 
2128 2129 2 1.2467813888044947e+00 -1.6325321023037289e+00 1.0000000000000000e+00 3.3260719211215957e+01 1.8800000000000001e+01 2.6011964130843230e+00 
325 326 2 1.2467813888044947e+00 -4.0078944580468807e+00 1.0000000000000000e+00 2.4378742767039592e+00 1.0000000000000000e+01 5.6467518485878747e+00 
330 331 2 1.2467813888044947e+00 -3.0765212619473346e+00 1.0000000000000000e+00 7.1871836679198733e+00 1.0000000000000000e+01 4.6499885082908339e+00 
437 438 2 1.2467813888044947e+00 4.4443035268261362e+00 1.0000000000000000e+00 1.2206606497056363e+01 1.0000000000000000e+01 6.0895773452205697e+00 
185 186 2 1.2467813888044947e+00 -1.7762643942366458e+00 1.0000000000000000e+00 1.5581024046318820e+01 1.0000000000000000e+01 5.9420789053715524e+00 
167 168 2 1.2467813888044947e+00 -1.1992014514625673e+00 1.0000000000000000e+00 1.8984098766238034e+01 1.0000000000000000e+01 5.0050559311209799e+00 
34 35 2 1.2467813888044947e+00 7.0089050019868591e+00 1.0000000000000000e+00 2.1997710230295844e+01 1.0000000000000000e+01 5.0892769139832952e+00 
152 153 2 1.2467813888044947e+00 -2.7774166615413423e+00 1.0000000000000000e+00 2.5210211101419500e+01 1.0000000000000000e+01 5.4677233506025704e+00 
787 788 2 1.2467813888044947e+00 -4.0078944580468807e+00 1.0000000000000000e+00 2.4378742767039592e+00 1.2199999999999999e+01 5.6467518485878747e+00 
792 793 2 1.2467813888044947e+00 -3.0765212619473346e+00 1.0000000000000000e+00 7.1871836679198733e+00 1.2199999999999999e+01 4.6499885082908339e+00 
899 900 2 1.2467813888044947e+00 4.4443035268261362e+00 1.0000000000000000e+00 1.2206606497056363e+01 1.2199999999999999e+01 6.0895773452205697e+00 
647 648 2 1.2467813888044947e+00 -1.7762643942366458e+00 1.0000000000000000e+00 1.5581024046318820e+01 1.2199999999999999e+01 5.9420789053715524e+00 
629 630 2 1.2467813888044947e+00 -1.1992014514625673e+00 1.0000000000000000e+00 1.8984098766238034e+01 1.2199999999999999e+01 5.0050559311209799e+00 
496 497 2 1.2467813888044947e+00 7.0089050019868591e+00 1.0000000000000000e+00 2.1997710230295844e+01 1.2199999999999999e+01 5.0892769139832952e+00 
614 615 2 1.2467813888044947e+00 -2.7774166615413423e+00 1.0000000000000000e+00 2.5210211101419500e+01 1.2199999999999999e+01 5.4677233506025704e+00 
1249 1250 2 1.2467813888044947e+00 -4.0078944580468807e+00 1.0000000000000000e+00 2.4378742767039592e+00 1.4400000000000000e+01 5.6467518485878747e+00 
1254 1255 2 1.2467813888044947e+00 -3.0765212619473346e+00 1.0000000000000000e+00 7.1871836679198733e+00 1.4400000000000000e+01 4.6499885082908339e+00 
1361 1362 2 1.2467813888044947e+00 4.4443035268261362e+00 1.0000000000000000e+00 1.2206606497056363e+01 1.4400000000000000e+01 6.0895773452205697e+00 
1109 1110 2 1.2467813888044947e+00 -1.7762643942366458e+00 1.0000000000000000e+00 1.5581024046318820e+01 1.4400000000000000e+01 5.9420789053715524e+00 
1091 1092 2 1.2467813888044947e+00 -1.1992014514625673e+00 1.0000000000000000e+00 1.8984098766238034e+01 1.4400000000000000e+01 5.0050559311209799e+00 
958 959 2 1.2467813888044947e+00 7.0089050019868591e+00 1.0000000000000000e+00 2.1997710230295844e+01 1.4400000000000000e+01 5.0892769139832952e+00 
1076 1077 2 1.2467813888044947e+00 -2.7774166615413423e+00 1.0000000000000000e+00 2.5210211101419500e+01 1.4400000000000000e+01 5.4677233506025704e+00 
1711 1712 2 1.2467813888044947e+00 -4.0078944580468807e+00 1.0000000000000000e+00 2.4378742767039592e+00 1.6600000000000001e+01 5.6467518485878747e+00 
1716 1717 2 1.2467813888044947e+00 -3.0765212619473346e+00 1.0000000000000000e+00 7.1871836679198733e+00 1.6600000000000001e+01 4.6499885082908339e+00 
1823 1824 2 1.2467813888044947e+00 4.4443035268261362e+00 1.0000000000000000e+00 1.2206606497056363e+01 1.6600000000000001e+01 6.0895773452205697e+00 
1571 1572 2 1.2467813888044947e+00 -1.7762643942366458e+00 1.0000000000000000e+00 1.5581024046318820e+01 1.6600000000000001e+01 5.9420789053715524e+00 
1553 1554 2 1.2467813888044947e+00 -1.1992014514625673e+00 1.0000000000000000e+00 1.8984098766238034e+01 1.6600000000000001e+01 5.0050559311209799e+00 
1420 1421 2 1.2467813888044947e+00 7.0089050019868591e+00 1.0000000000000000e+00 2.1997710230295844e+01 1.6600000000000001e+01 5.0892769139832952e+00 
1538 1539 2 1.2467813888044947e+00 -2.7774166615413423e+00 1.0000000000000000e+00 2.5210211101419500e+01 1.6600000000000001e+01 5.4677233506025704e+00 
1993 1994 2 1.2467813888044947e+00 -2.5642633667469110e+00 1.0000000000000000e+00 5.4045064337017479e-01 1.8800000000000001e+01 4.5885590775195446e+00 
2145 2146 2 1.2467813888044947e+00 -2.3729840064956500e+00 1.0000000000000000e+00 2.6867367117182939e+00 1.8800000000000001e+01 6.3464843284898453e+00 
2219 2220 2 1.2467813888044947e+00 -2.9500436979055915e+00 1.0000000000000000e+00 8.8534215249574473e+00 1.8800000000000001e+01 5.7753999941186329e+00 
2089 2090 2 1.2467813888044947e+00 -2.4682167433176381e+00 1.0000000000000000e+00 1.1405232748039184e+01 1.8800000000000001e+01 5.2281181712425013e+00 
2133 2134 2 1.2467813888044947e+00 -2.6399298153554569e+00 1.0000000000000000e+00 1.4183726827515319e+01 1.8800000000000001e+01 5.2342489230090754e+00 
2248 2249 2 1.2467813959372314e+00 -7.9219274099929893e-01 1.0000000000000000e+00 2.4932910262395296e+01 1.8800000000000001e+01 5.8756198184265616e+00 
2199 2200 2 1.2467815941113780e+00 -1.3574332643589124e+00 1.0000000000000000e+00 3.0027688918738519e+01 1.8800000000000001e+01 4.7913653106459781e+00 
374 375 2 1.2467813888044947e+00 -3.0439415882356071e+00 1.0000000000000000e+00 4.5505591214376242e+00 1.0000000000000000e+01 6.6689835186977362e+00 
146 147 2 1.2467814260324650e+00 -4.0861852312381703e+00 1.0000000000000000e+00 1.4049354794673530e+01 1.0000000000000000e+01 8.1107298582855289e+00 
188 189 2 1.2467813888044947e+00 -2.3521656787424985e+00 1.0000000000000000e+00 1.8199764484853059e+01 1.0000000000000000e+01 7.4482751645030127e+00 
368 369 2 1.2467813888044947e+00 -1.6748773173597165e+00 1.0000000000000000e+00 2.3072235334456330e+01 1.0000000000000000e+01 7.5772933300499350e+00 
44 45 2 1.2467813888044947e+00 -3.4590777276356839e+00 1.0000000000000000e+00 2.5366353440451487e+01 1.0000000000000000e+01 7.7450866245090655e+00 
264 265 2 1.2467813888044947e+00 -1.7002893419125296e+00 1.0000000000000000e+00 2.9664738264840061e+01 1.0000000000000000e+01 7.1849058750380124e+00 
836 837 2 1.2467813888044947e+00 -3.0439415882356071e+00 1.0000000000000000e+00 4.5505591214376242e+00 1.2199999999999999e+01 6.6689835186977362e+00 
608 609 2 1.2467814260324650e+00 -4.0861852312381703e+00 1.0000000000000000e+00 1.4049354794673530e+01 1.2199999999999999e+01 8.1107298582855289e+00 
650 651 2 1.2467813888044947e+00 -2.3521656787424985e+00 1.0000000000000000e+00 1.8199764484853059e+01 1.2199999999999999e+01 7.4482751645030127e+00 
830 831 2 1.2467813888044947e+00 -1.6748773173597165e+00 1.0000000000000000e+00 2.3072235334456330e+01 1.2199999999999999e+01 7.5772933300499350e+00 
506 507 2 1.2467813888044947e+00 -3.4590777276356839e+00 1.0000000000000000e+00 2.5366353440451487e+01 1.2199999999999999e+01 7.7450866245090655e+00 
726 727 2 1.2467813888044947e+00 -1.7002893419125296e+00 1.0000000000000000e+00 2.9664738264840061e+01 1.2199999999999999e+01 7.1849058750380124e+00 
1298 1299 2 1.2467813888044947e+00 -3.0439415882356071e+00 1.0000000000000000e+00 4.5505591214376242e+00 1.4400000000000000e+01 6.6689835186977362e+00 
1070 1071 2 1.2467814260324650e+00 -4.0861852312381703e+00 1.0000000000000000e+00 1.4049354794673530e+01 1.4400000000000000e+01 8.1107298582855289e+00 
1112 1113 2 1.2467813888044947e+00 -2.3521656787424985e+00 1.0000000000000000e+00 1.8199764484853059e+01 1.4400000000000000e+01 7.4482751645030127e+00 
1292 1293 2 1.2467813888044947e+00 -1.6748773173597165e+00 1.0000000000000000e+00 2.3072235334456330e+01 1.4400000000000000e+01 7.5772933300499350e+00 
968 969 2 1.2467813888044947e+00 -3.4590777276356839e+00 1.0000000000000000e+00 2.5366353440451487e+01 1.4400000000000000e+01 7.7450866245090655e+00 
1188 1189 2 1.2467813888044947e+00 -1.7002893419125296e+00 1.0000000000000000e+00 2.9664738264840061e+01 1.4400000000000000e+01 7.1849058750380124e+00 
1760 1761 2 1.2467813888044947e+00 -3.0439415882356071e+00 1.0000000000000000e+00 4.5505591214376242e+00 1.6600000000000001e+01 6.6689835186977362e+00 
1532 1533 2 1.2467814260324650e+00 -4.0861852312381703e+00 1.0000000000000000e+00 1.4049354794673530e+01 1.6600000000000001e+01 8.1107298582855289e+00 
1574 1575 2 1.2467813888044947e+00 -2.3521656787424985e+00 1.0000000000000000e+00 1.8199764484853059e+01 1.6600000000000001e+01 7.4482751645030127e+00 
1754 1755 2 1.2467813888044947e+00 -1.6748773173597165e+00 1.0000000000000000e+00 2.3072235334456330e+01 1.6600000000000001e+01 7.5772933300499350e+00 
1430 1431 2 1.2467813888044947e+00 -3.4590777276356839e+00 1.0000000000000000e+00 2.5366353440451487e+01 1.6600000000000001e+01 7.7450866245090655e+00 
1650 1651 2 1.2467813888044947e+00 -1.7002893419125296e+00 1.0000000000000000e+00 2.9664738264840061e+01 1.6600000000000001e+01 7.1849058750380124e+00 
2146 2147 2 1.2467813888044947e+00 -1.4852804222587985e+00 1.0000000000000000e+00 4.6857176666156022e+00 1.8800000000000001e+01 7.0474290427088064e+00 
2203 2204 2 1.2467813888044947e+00 -3.1403394267024582e+00 1.0000000000000000e+00 7.0487383672333843e+00 1.8800000000000001e+01 7.7499332712335205e+00 
1928 1929 2 1.2467813888044947e+00 -1.1953811527418132e+00 1.0000000000000000e+00 9.2076223766479774e+00 1.8800000000000001e+01 8.2700817390814230e+00 
1962 1963 2 1.2467813888044947e+00 -3.8803345626269392e+00 1.0000000000000000e+00 1.3094947132671816e+01 1.8800000000000001e+01 7.2542270383343572e+00 
2098 2099 2 1.2467813888044947e+00 -3.0841339558812004e+00 1.0000000000000000e+00 1.6011748923879750e+01 1.8800000000000001e+01 8.4809881184865610e+00 
2058 2059 2 1.2467813888044947e+00 6.1294897021796810e+00 1.0000000000000000e+00 1.8378897698923122e+01 1.8800000000000001e+01 7.0749102539306747e+00 
2262 2263 2 1.2467813888044947e+00 -2.6765504085467247e+00 1.0000000000000000e+00 2.2967897254754849e+01 1.8800000000000001e+01 8.8207449643049110e+00 
1933 1934 2 1.2467813888044947e+00 6.5985011363805111e+00 1.0000000000000000e+00 2.5316740801704761e+01 1.8800000000000001e+01 8.8181846085109346e+00 
1913 1914 2 1.2467813888044947e+00 -1.7471209493172686e+00 1.0000000000000000e+00 2.9152686229269303e+01 1.8800000000000001e+01 7.1296032819464159e+00 
2200 2201 2 1.2467813888044947e+00 -4.2939936465415018e-01 1.0000000000000000e+00 3.1414579903789228e+01 1.8800000000000001e+01 7.3806244912082581e+00 
354 355 2 1.2467813888044947e+00 -1.9367884016749208e+00 1.0000000000000000e+00 3.7442281356451748e+00 1.0000000000000000e+01 1.0034462769977848e+01 
181 182 2 1.2467813888044947e+00 -2.2888054977143959e+00 1.0000000000000000e+00 8.2939827450746009e+00 1.0000000000000000e+01 9.7222883795408421e+00 
326 327 2 1.2467818582400143e+00 -1.6178122974634803e+00 1.0000000000000000e+00 1.0466133858141365e+01 1.0000000000000000e+01 1.0862343411629739e+01 
179 180 2 1.2467813888044947e+00 -3.6489289360166159e+00 1.0000000000000000e+00 1.2472784458534411e+01 1.0000000000000000e+01 9.5703284217630209e+00 
417 418 2 1.2467814260324650e+00 -1.4904721879359970e+00 1.0000000000000000e+00 1.5706704393180559e+01 1.0000000000000000e+01 9.3774533393699198e+00 
272 273 2 1.2467813888044947e+00 -2.4799576192587574e+00 1.0000000000000000e+00 2.0462165808486262e+01 1.0000000000000000e+01 9.5158086836152282e+00 
16 17 2 1.2467813888044947e+00 4.8942499927618481e+00 1.0000000000000000e+00 2.4504722789027685e+01 1.0000000000000000e+01 9.8403484010180655e+00 
204 205 2 1.2467813888044947e+00 -3.6198267441216903e+00 1.0000000000000000e+00 2.8447663738020072e+01 1.0000000000000000e+01 1.0041973687032744e+01 
163 164 2 1.2467813888044947e+00 -1.7666916755905242e+00 1.0000000000000000e+00 3.0610475138816717e+01 1.0000000000000000e+01 9.4465633841263372e+00 
35 36 2 1.2467813888044947e+00 8.6538638202191613e+00 1.0000000000000000e+00 3.2908451278418397e+01 1.0000000000000000e+01 9.4028870475559465e+00 
816 817 2 1.2467813888044947e+00 -1.9367884016749208e+00 1.0000000000000000e+00 3.7442281356451748e+00 1.2199999999999999e+01 1.0034462769977848e+01 
643 644 2 1.2467813888044947e+00 -2.2888054977143959e+00 1.0000000000000000e+00 8.2939827450746009e+00 1.2199999999999999e+01 9.7222883795408421e+00 
788 789 2 1.2467818582400143e+00 -1.6178122974634803e+00 1.0000000000000000e+00 1.0466133858141365e+01 1.2199999999999999e+01 1.0862343411629739e+01 
641 642 2 1.2467813888044947e+00 -3.6489289360166159e+00 1.0000000000000000e+00 1.2472784458534411e+01 1.2199999999999999e+01 9.5703284217630209e+00 
879 880 2 1.2467814260324650e+00 -1.4904721879359970e+00 1.0000000000000000e+00 1.5706704393180559e+01 1.2199999999999999e+01 9.3774533393699198e+00 
734 735 2 1.2467813888044947e+00 -2.4799576192587574e+00 1.0000000000000000e+00 2.0462165808486262e+01 1.2199999999999999e+01 9.5158086836152282e+00 
478 479 2 1.2467813888044947e+00 4.8942499927618481e+00 1.0000000000000000e+00 2.4504722789027685e+01 1.2199999999999999e+01 9.8403484010180655e+00 
666 667 2 1.2467813888044947e+00 -3.6198267441216903e+00 1.0000000000000000e+00 2.8447663738020072e+01 1.2199999999999999e+01 1.0041973687032744e+01 
625 626 2 1.2467813888044947e+00 -1.7666916755905242e+00 1.0000000000000000e+00 3.0610475138816717e+01 1.2199999999999999e+01 9.4465633841263372e+00 
497 498 2 1.2467813888044947e+00 8.6538638202191613e+00 1.0000000000000000e+00 3.2908451278418397e+01 1.2199999999999999e+01 9.4028870475559465e+00 
1278 1279 2 1.2467813888044947e+00 -1.9367884016749208e+00 1.0000000000000000e+00 3.7442281356451748e+00 1.4400000000000000e+01 1.0034462769977848e+01 
1105 1106 2 1.2467813888044947e+00 -2.2888054977143959e+00 1.0000000000000000e+00 8.2939827450746009e+00 1.4400000000000000e+01 9.7222883795408421e+00 
1250 1251 2 1.2467818582400143e+00 -1.6178122974634803e+00 1.0000000000000000e+00 1.0466133858141365e+01 1.4400000000000000e+01 1.0862343411629739e+01 
1103 1104 2 1.2467813888044947e+00 -3.6489289360166159e+00 1.0000000000000000e+00 1.2472784458534411e+01 1.4400000000000000e+01 9.5703284217630209e+00 
1341 1342 2 1.2467814260324650e+00 -1.4904721879359970e+00 1.0000000000000000e+00 1.5706704393180559e+01 1.4400000000000000e+01 9.3774533393699198e+00 
1196 1197 2 1.2467813888044947e+00 -2.4799576192587574e+00 1.0000000000000000e+00 2.0462165808486262e+01 1.4400000000000000e+01 9.5158086836152282e+00 
940 941 2 1.2467813888044947e+00 4.8942499927618481e+00 1.0000000000000000e+00 2.4504722789027685e+01 1.4400000000000000e+01 9.8403484010180655e+00 
1128 1129 2 1.2467813888044947e+00 -3.6198267441216903e+00 1.0000000000000000e+00 2.8447663738020072e+01 1.4400000000000000e+01 1.0041973687032744e+01 
1087 1088 2 1.2467813888044947e+00 -1.7666916755905242e+00 1.0000000000000000e+00 3.0610475138816717e+01 1.4400000000000000e+01 9.4465633841263372e+00 
959 960 2 1.2467813888044947e+00 8.6538638202191613e+00 1.0000000000000000e+00 3.2908451278418397e+01 1.4400000000000000e+01 9.4028870475559465e+00 
1740 1741 2 1.2467813888044947e+00 -1.9367884016749208e+00 1.0000000000000000e+00 3.7442281356451748e+00 1.6600000000000001e+01 1.0034462769977848e+01 
1567 1568 2 1.2467813888044947e+00 -2.2888054977143959e+00 1.0000000000000000e+00 8.2939827450746009e+00 1.6600000000000001e+01 9.7222883795408421e+00 
1712 1713 2 1.2467818582400143e+00 -1.6178122974634803e+00 1.0000000000000000e+00 1.0466133858141365e+01 1.6600000000000001e+01 1.0862343411629739e+01 
1565 1566 2 1.2467813888044947e+00 -3.6489289360166159e+00 1.0000000000000000e+00 1.2472784458534411e+01 1.6600000000000001e+01 9.5703284217630209e+00 
1803 1804 2 1.2467814260324650e+00 -1.4904721879359970e+00 1.0000000000000000e+00 1.5706704393180559e+01 1.6600000000000001e+01 9.3774533393699198e+00 
1658 1659 2 1.2467813888044947e+00 -2.4799576192587574e+00 1.0000000000000000e+00 2.0462165808486262e+01 1.6600000000000001e+01 9.5158086836152282e+00 
1402 1403 2 1.2467813888044947e+00 4.8942499927618481e+00 1.0000000000000000e+00 2.4504722789027685e+01 1.6600000000000001e+01 9.8403484010180655e+00 
1590 1591 2 1.2467813888044947e+00 -3.6198267441216903e+00 1.0000000000000000e+00 2.8447663738020072e+01 1.6600000000000001e+01 1.0041973687032744e+01 
1549 1550 2 1.2467813888044947e+00 -1.7666916755905242e+00 1.0000000000000000e+00 3.0610475138816717e+01 1.6600000000000001e+01 9.4465633841263372e+00 
1421 1422 2 1.2467813888044947e+00 8.6538638202191613e+00 1.0000000000000000e+00 3.2908451278418397e+01 1.6600000000000001e+01 9.4028870475559465e+00 
2101 2102 2 1.2467813888044947e+00 3.1003233098585712e+00 1.0000000000000000e+00 1.2531224309354236e+00 1.8800000000000001e+01 8.9210909983746376e+00 