LAMMPS data file via write_data, version 30 Jul 2016, timestep = 50000000

180 atoms
2 atom types

0.0000000000000000e+00 2.0000000000000000e+01 xlo xhi
0.0000000000000000e+00 2.0000000000000000e+01 ylo yhi
0.0000000000000000e+00 2.0000000000000000e+01 zlo zhi

Masses

1 3.896
2 4.31

Atoms # meso-molecular

30 1 2 1.0279998780462014e+00 -6.4846902317709493e+01 1.0000000000000000e+00 1.2135898026528764e+00 2.5021273505512966e+00 6.7481043780702432e-01 
163 1 2 1.0280000953480439e+00 -6.7288975400362190e+01 1.0000000000000000e+00 3.5722812166410262e-01 2.6491378131033003e+00 7.9778347290337848e-01 
127 1 2 1.0280000460299412e+00 -9.6482140515864202e+01 1.0000000000000000e+00 1.5867202235283279e-01 2.8395529518947509e+00 1.2869987198970561e+00 
64 1 2 1.0279993281985538e+00 -1.1589246723833794e+02 1.0000000000000000e+00 2.1838163346579118e+00 4.5911019170764558e+00 8.2146850137656879e-01 
54 1 2 1.0280006151209886e+00 -1.0910376970554621e+02 1.0000000000000000e+00 2.8455178777911296e+00 4.5098339583244877e+00 8.0801863568199817e-01 
164 1 2 1.0280006128130597e+00 -6.0893074958092321e+01 1.0000000000000000e+00 2.8459811623068840e+00 4.5053858813918346e+00 8.0822948599300659e-01 
92 1 2 1.0279998346811217e+00 -1.5217670169519988e+02 1.0000000000000000e+00 3.7082244314789778e+00 9.6966187037598690e+00 1.1586320949753239e+00 
60 1 2 1.0280001155920253e+00 -5.2717358263592956e+01 1.0000000000000000e+00 1.1610819534888848e+00 2.9674817035653467e+00 2.2248108140496283e+00 
63 1 2 1.0280003247413427e+00 2.0046169266296079e+01 1.0000000000000000e+00 9.3009754136117639e-01 3.6571087343579229e+00 2.3988371891655436e+00 
40 1 2 1.0279989156534799e+00 -7.1375574515095277e+00 1.0000000000000000e+00 1.5686873486499482e+00 4.2493798467264758e+00 3.0185779836385356e+00 
162 1 2 1.0280003281335259e+00 1.4330403161342678e+01 1.0000000000000000e+00 2.4083632673478257e+00 4.7090502892380526e+00 3.8394168036057739e+00 
111 1 2 1.0280019314228048e+00 -9.3161314266378056e+01 1.0000000000000000e+00 2.5908593736388230e+00 4.5556424037620582e+00 2.8111909593650632e+00 
96 1 2 1.0279993385664601e+00 -9.8592709412399046e+01 1.0000000000000000e+00 3.3556566047179701e+00 5.8493925687669153e+00 3.5393902357267262e+00 
141 1 2 1.0280001148977236e+00 -2.7405464706565169e+01 1.0000000000000000e+00 3.9368064865162369e+00 5.0765029912946096e+00 3.9957607079376962e+00 
180 1 2 1.0279994363373346e+00 -6.1292655606055128e+01 1.0000000000000000e+00 1.2821606403646499e+00 6.4528857084319933e+00 2.5234395157645100e+00 
113 1 2 1.0279997144118349e+00 -5.5941156508439754e+01 1.0000000000000000e+00 1.1760048160835581e+00 6.6941795108828845e+00 3.0385921990907661e+00 
3 1 2 1.0279999386969148e+00 -7.1848188616251832e+01 1.0000000000000000e+00 9.0453386937973379e-01 7.4285559270473094e+00 2.4285000047612835e+00 
143 1 2 1.0280001335751607e+00 7.0934727792791303e+00 1.0000000000000000e+00 2.5501441439815871e+00 7.5681338483492882e+00 2.0537449030021269e+00 
102 1 2 1.0280002087215134e+00 -3.1759448219479008e+01 1.0000000000000000e+00 2.5634276373476594e+00 7.6486820659774057e+00 2.0664769089102690e+00 
145 1 2 1.0280003285037231e+00 -6.4538595190689421e+01 1.0000000000000000e+00 4.1269014747245159e+00 6.6720808372712588e+00 3.8948953090422793e+00 
110 1 2 1.0279999599628167e+00 -6.4981896840325831e+01 1.0000000000000000e+00 4.4559099964169047e+00 7.8283585701768166e+00 3.6402840700367340e+00 
132 1 2 1.0280002983393182e+00 -8.3216818179035727e+01 1.0000000000000000e+00 4.5094867482323799e+00 7.8062315196991605e+00 3.7232104260945418e+00 
19 1 2 1.0280006135804234e+00 -1.0374772549535946e+02 1.0000000000000000e+00 2.0005294714474555e+00 8.1476643673984270e+00 3.2952843451913960e+00 
42 1 2 1.0279995660667873e+00 -5.2179760652061688e+01 1.0000000000000000e+00 8.6637802028969046e-01 9.5229810164029391e+00 3.1995596060073161e+00 
24 1 2 1.0279999805744822e+00 -4.9260097472694312e+01 1.0000000000000000e+00 4.7139583459855217e-01 9.4073288692625336e+00 3.5181858616881385e+00 
61 1 2 1.0279995153161474e+00 -6.9731582331454703e+01 1.0000000000000000e+00 3.3218723581953848e+00 9.3146081872724089e+00 3.7640537985842961e+00 
32 1 2 1.0279994506036441e+00 -6.8687054642858683e+01 1.0000000000000000e+00 3.8272939969524251e+00 9.1038604065781286e+00 2.3884586009281290e+00 
152 1 2 1.0280001020046998e+00 -5.0620608709374892e+01 1.0000000000000000e+00 5.2858628107903805e+00 2.9130433531640056e+00 5.3237487179929568e+00 
77 1 2 1.0280001003247754e+00 -8.3618499096285007e+01 1.0000000000000000e+00 5.2842860854789828e+00 2.9054883019460416e+00 5.3296221923693965e+00 
21 1 2 1.0280002720933865e+00 4.8316740196334944e+00 1.0000000000000000e+00 3.0938000506210663e+00 5.0081954923636518e+00 5.2349337492643393e+00 
123 1 2 1.0280005651006490e+00 -5.8518500993420460e+01 1.0000000000000000e+00 3.7222424573076180e+00 5.0466170122698157e+00 5.7180511798606490e+00 
94 1 2 1.0280001554676190e+00 -3.5510820320760899e+01 1.0000000000000000e+00 3.9729319632720070e+00 5.7753806578744351e+00 5.5210577651606467e+00 
44 1 2 1.0279996860831202e+00 -6.4204179373964095e+01 1.0000000000000000e+00 5.9203897652070383e+00 6.6548957586793165e+00 5.4567059920741601e+00 
27 1 2 1.0280002130960824e+00 -1.3818890248095663e+01 1.0000000000000000e+00 5.8448391917113813e+00 6.6872728540337238e+00 5.5087788233869821e+00 
23 1 2 1.0279997466718738e+00 -9.0762848271802426e+01 1.0000000000000000e+00 2.5552884416241956e-01 9.5801864913081101e+00 4.8526624413463404e+00 
114 1 2 1.0279995790447753e+00 4.4022501312837372e+00 1.0000000000000000e+00 2.5548182001503522e-01 9.6539299258003002e+00 5.4845284459321979e+00 
140 1 2 1.0280012325266144e+00 5.8406772739579615e+00 1.0000000000000000e+00 2.3750436549103604e+00 9.1768399718814972e+00 4.5458145145322293e+00 
135 1 2 1.0279997707745148e+00 -5.5379181081656370e+01 1.0000000000000000e+00 4.2428054124544827e+00 8.2540824574876819e+00 5.6424162550397510e+00 
16 1 2 1.0280011505172892e+00 -5.6297944969146322e+01 1.0000000000000000e+00 4.5450037037423190e+00 8.7696603248411780e+00 5.4102674912385824e+00 
125 1 2 1.0279998614409438e+00 -2.9296946384437973e+01 1.0000000000000000e+00 5.8283641660796883e+00 8.8337376064137523e+00 5.8602680010239565e+00 
50 1 2 1.0279998331709173e+00 -1.0718623762726924e+02 1.0000000000000000e+00 5.4497547184328834e+00 2.9526771989504317e+00 6.0652378036564700e+00 
108 1 2 1.0279999044569792e+00 -6.9619749000707145e+01 1.0000000000000000e+00 5.5973871822446144e+00 4.4857961785770373e+00 6.2726384846076284e+00 
1 1 2 1.0280002811331053e+00 -7.5319288068690724e+01 1.0000000000000000e+00 5.4875356630996981e+00 4.7683405819041269e+00 6.1934600872340075e+00 
43 1 2 1.0279999044334673e+00 -6.3334253385273350e+01 1.0000000000000000e+00 5.1105538372665782e+00 7.8134252526687753e+00 7.1755282168593313e+00 
17 1 2 1.0280003617873867e+00 -4.7666956709490286e+01 1.0000000000000000e+00 6.0720442605253035e+00 6.5391181415446233e+00 7.4367925613755581e+00 
45 1 2 1.0280001886693282e+00 -6.5560229849391945e+01 1.0000000000000000e+00 6.0859422337373896e+00 6.5936188698380613e+00 7.4838224426523379e+00 
159 1 2 1.0280002294436319e+00 -7.1791662353884519e+01 1.0000000000000000e+00 9.7482410053490498e-01 8.1167226014834331e+00 6.1216848730252993e+00 
15 1 2 1.0280002257364571e+00 -1.0358547259893967e+01 1.0000000000000000e+00 9.6048961301533620e-01 8.1210179639441744e+00 6.1289779800561792e+00 
147 1 2 1.0280002104673132e+00 -9.3091177498310827e+01 1.0000000000000000e+00 1.2821196417237917e+00 8.9441094628367903e+00 6.8613638039497529e+00 
67 1 2 1.0279998466561775e+00 -1.8961808346914228e+00 1.0000000000000000e+00 2.4023051603036896e+00 9.5444366974183836e+00 6.4025827733928278e+00 
161 1 2 1.0279991500715502e+00 -1.0807903320720453e+02 1.0000000000000000e+00 2.7134656144856182e+00 8.9917029522548990e+00 6.2642183991802680e+00 
174 1 2 1.0280003131638988e+00 -6.0880389946768226e+01 1.0000000000000000e+00 5.0136850454548192e+00 8.4564178506662842e+00 6.9734504330795382e+00 
138 1 2 1.0280009587942278e+00 -2.7210029083735726e+01 1.0000000000000000e+00 5.8209160758676379e+00 3.7462199858424836e+00 9.9132340130443097e+00 
52 1 2 1.0280009428498131e+00 -6.1412026548557748e+01 1.0000000000000000e+00 5.8352947504758177e+00 3.7416468103673228e+00 9.9078981554941414e+00 
131 1 2 1.0280002093857208e+00 -9.2097493268594903e+01 1.0000000000000000e+00 6.4419462692115559e+00 7.7456124315083255e+00 9.5298624653062110e+00 
22 1 2 1.0280005393478182e+00 -6.9171751801884099e+01 1.0000000000000000e+00 3.8182622253884877e+00 4.7807787651976845e+00 1.1718762432392769e+01 
51 1 2 1.0280023327312446e+00 -5.9744220647295727e+01 1.0000000000000000e+00 4.5751066133801084e+00 4.3780829443032170e+00 1.1238621052760699e+01 
167 1 2 1.0279970924686217e+00 -7.9173112017321785e+01 1.0000000000000000e+00 4.9885404800792568e+00 4.4627235883685561e+00 1.1566453040208959e+01 
25 1 2 1.0280000381178558e+00 -1.6547507225295401e+01 1.0000000000000000e+00 3.3499664749227192e+00 5.8912359464604247e+00 1.2687528702984766e+01 
74 1 2 1.0279995374075110e+00 -9.6565275165929691e+01 1.0000000000000000e+00 4.0428558431573354e+00 5.5189670218350644e+00 1.2573534142121581e+01 
165 1 2 1.0279997708635795e+00 -5.9336444588774341e+01 1.0000000000000000e+00 1.9960655475317188e+00 7.8551458742671754e+00 1.3505250574447972e+01 
26 1 2 1.0279997154936735e+00 -7.7517488481335945e+01 1.0000000000000000e+00 1.9384798380513304e+00 7.6054690160567135e+00 1.3338827716819820e+01 
72 1 2 1.0279997841210822e+00 -1.1475642149106720e+01 1.0000000000000000e+00 2.9662415312498438e+00 6.3622971051057240e+00 1.2940963896328952e+01 
37 1 2 1.0280003067025643e+00 -2.0730300894128408e+01 1.0000000000000000e+00 2.5143829294099063e+00 6.6222237420327490e+00 1.4698951620269552e+01 
49 1 2 1.0279999905984869e+00 -1.8101795269061842e+01 1.0000000000000000e+00 2.5642176450658614e+00 7.8431763157379404e+00 1.4455827315501603e+01 
2 1 2 1.0280003915905969e+00 -7.1062069106068463e+01 1.0000000000000000e+00 2.6805295428632405e+00 6.6339709824417854e+00 1.4686113780334386e+01 
171 1 2 1.0280006070948120e+00 5.0301626007985352e+00 1.0000000000000000e+00 1.7363608410920299e+00 3.8300995575222521e+00 1.9160197938989231e+01 
35 1 2 1.0280001352398043e+00 -5.0931494697333527e+01 1.0000000000000000e+00 1.4770603644973035e+00 3.5564511900857028e+00 1.8735481275630704e+01 
29 1 2 1.0279997740491569e+00 -6.1837663684950193e+01 1.0000000000000000e+00 1.7298104153863381e+00 2.3747127793869485e+00 1.9216634500575356e+01 
156 1 2 1.0279997780323420e+00 -5.7011192684567064e+01 1.0000000000000000e+00 1.7905957295230310e+00 2.6068998078546235e+00 1.8687019696912309e+01 
78 1 2 1.0279999233054595e+00 -9.5449920099957044e+00 1.0000000000000000e+00 4.0833162870417432e+00 1.0012862597608230e+01 1.2061181479980259e+00 
65 1 2 1.0279999849170403e+00 -1.2438374288763536e+02 1.0000000000000000e+00 1.0036964440630982e+00 1.0595562992096603e+01 3.7378989471484152e+00 
5 1 2 1.0279999154703960e+00 -9.1861452900420915e+01 1.0000000000000000e+00 2.4905446164310545e+00 1.0597959204055725e+01 2.2733790713127875e+00 
104 1 2 1.0279997639894378e+00 -2.2455451090422571e+02 1.0000000000000000e+00 2.5446769350870970e+00 1.0490525883403176e+01 2.0823792329749784e+00 
31 1 2 1.0280013048923031e+00 -5.7107778335585600e+01 1.0000000000000000e+00 4.2032427542995352e+00 1.0688177109072901e+01 2.1351541341352642e+00 
172 1 2 1.0279999994558018e+00 -1.1991115011397289e+02 1.0000000000000000e+00 3.8042418136460321e+00 1.1091196258464185e+01 3.4334144834920406e+00 
89 1 2 1.0280002878158798e+00 -3.2345852165543029e+01 1.0000000000000000e+00 1.7632117471806192e+00 1.2050040513426433e+01 3.6175515844385537e+00 
83 1 2 1.0280002858390906e+00 -7.3402356488392599e+01 1.0000000000000000e+00 1.7632166100380851e+00 1.2049486414669975e+01 3.6180096501760288e+00 
144 1 2 1.0279997437463340e+00 -7.4752064935356245e+01 1.0000000000000000e+00 2.7402286798975091e+00 1.3035043048544500e+01 3.1989503482336423e+00 
148 1 2 1.0279993434514301e+00 -1.0063342321068712e+01 1.0000000000000000e+00 3.1094765615430298e+00 1.2985746438226540e+01 3.4838984701306392e+00 
58 1 2 1.0279999797762169e+00 -7.6086296259736201e+01 1.0000000000000000e+00 4.0962059184337987e+00 1.2993883856842938e+01 2.5686977142776564e+00 
150 1 2 1.0280003512690599e+00 -7.2246402920629123e+01 1.0000000000000000e+00 4.9052736758740849e+00 1.2966049962574736e+01 2.4461193685405584e+00 
20 1 2 1.0279995326901656e+00 -8.2550102898493620e+01 1.0000000000000000e+00 5.5118992441422083e+00 1.2380069169356904e+01 3.0605941259674960e+00 
146 1 2 1.0280016962247078e+00 -6.3504059728691267e+01 1.0000000000000000e+00 5.6054990070490840e+00 1.3236990724014790e+01 3.8634247608331767e+00 
103 1 2 1.0280016941294954e+00 -9.2855033833203493e+01 1.0000000000000000e+00 5.6055593711756728e+00 1.3236854499736031e+01 3.8634953375036112e+00 
69 1 2 1.0279998182270675e+00 -7.0781515631022415e+01 1.0000000000000000e+00 2.1260721057118599e+00 1.0266092524731912e+01 5.1944084927198819e+00 
97 1 2 1.0280015113386627e+00 -5.7767183627613058e+01 1.0000000000000000e+00 3.8096227193470926e+00 1.0865800483209004e+01 4.5692331750483026e+00 
106 1 2 1.0279990857248094e+00 -6.9843115288427796e+01 1.0000000000000000e+00 3.3638100235752617e+00 1.0779057411712930e+01 4.8924368453041396e+00 
139 1 2 1.0280025692175747e+00 -7.8387122661179674e+01 1.0000000000000000e+00 5.6307073435494521e+00 1.1307178203864957e+01 5.2637653684625851e+00 
173 1 2 1.0280012242225771e+00 -4.4465415352669716e+01 1.0000000000000000e+00 5.7069541185049140e+00 1.0927866749623792e+01 5.0746186211157989e+00 
124 1 2 1.0279975802254437e+00 -5.9743557444869523e+01 1.0000000000000000e+00 6.6159441752111858e+00 1.1129314183235882e+01 4.9228393719056864e+00 
81 1 2 1.0279928680522374e+00 -5.5671317041866580e+01 1.0000000000000000e+00 4.5158675759719200e+00 1.4878656350201261e+01 5.3901021849533164e+00 
47 1 2 1.0279944075766969e+00 -7.4609055977102742e+01 1.0000000000000000e+00 4.5595591661755526e+00 1.4956984297065137e+01 5.4396851123776093e+00 
66 1 2 1.0280137241897036e+00 -1.1130165752513409e+02 1.0000000000000000e+00 4.9386103258697736e+00 1.4698530514304547e+01 5.4271109804699664e+00 
95 1 2 1.0280014659576528e+00 -6.5136635202045241e+01 1.0000000000000000e+00 6.5957329048559012e+00 1.1559324993261727e+01 6.9374265488658260e+00 
112 1 2 1.0280009150598897e+00 -4.8851338096970451e+01 1.0000000000000000e+00 6.5730832507247170e+00 1.1537115435492485e+01 6.9590970342194094e+00 
117 1 2 1.0279998175047604e+00 -7.2291393418254344e+01 1.0000000000000000e+00 2.8779466730146890e+00 1.3974158155416342e+01 7.9195946776444233e+00 
59 1 2 1.0279987960576973e+00 -1.0633136729777031e+02 1.0000000000000000e+00 4.3404246354603808e+00 1.2805570151136905e+01 7.7464441323687865e+00 
18 1 2 1.0279987653347717e+00 -1.5316578151831504e+01 1.0000000000000000e+00 4.3378789894753149e+00 1.2801850162562532e+01 7.7298295144128319e+00 
129 1 2 1.0279993028089438e+00 -8.0751373310134340e+01 1.0000000000000000e+00 5.8511733742085479e+00 1.3241782952961461e+01 7.6021379993329221e+00 
120 1 2 1.0279994883255894e+00 -8.5002164285314109e+01 1.0000000000000000e+00 5.8480063819742423e+00 1.3225959421896352e+01 7.6251605706002685e+00 
178 1 2 1.0279994370440042e+00 -9.2333324287325709e+01 1.0000000000000000e+00 2.8401942729038585e+00 1.4045405323567602e+01 7.4253336290389775e+00 
168 1 2 1.0280020336395066e+00 -6.9920311876174921e+01 1.0000000000000000e+00 3.4144356038613739e+00 1.4119904574615257e+01 7.0893274370560455e+00 
118 1 2 1.0280008978630655e+00 -3.2197900206013010e+01 1.0000000000000000e+00 5.7521663495528124e+00 1.5256290134374616e+01 7.7735894830790242e+00 
122 1 2 1.0280008972401677e+00 -7.6331227551454830e+01 1.0000000000000000e+00 5.7519471904789423e+00 1.5257104566294169e+01 7.7729071267928198e+00 
121 1 2 1.0280002720794310e+00 -7.1159251843387949e+01 1.0000000000000000e+00 6.5266429810819648e+00 1.5157136448712540e+01 6.7950389770942721e+00 
179 1 2 1.0279987172449829e+00 -2.6915061503488669e+01 1.0000000000000000e+00 2.4983511937187575e+00 1.5752013321358493e+01 9.5771394091090674e+00 
170 1 2 1.0279987172451481e+00 -2.4783780906194302e+01 1.0000000000000000e+00 2.4983511441710236e+00 1.5752012131566921e+01 9.5771391622206394e+00 
136 1 2 1.0280028407161572e+00 -9.9793432451435976e+01 1.0000000000000000e+00 2.9235885327649083e+00 1.5330536792451962e+01 9.0677677144542450e+00 
75 1 2 1.0279999559365331e+00 -8.9498135467470163e+01 1.0000000000000000e+00 4.2546524369588843e+00 1.7599023923457526e+01 8.7467686367430488e+00 
158 1 2 1.0279997277318940e+00 -9.6341155988763887e+01 1.0000000000000000e+00 3.7606616751234170e+00 1.6992737249238530e+01 8.8051769723302549e+00 
6 1 2 1.0280002666959960e+00 -1.0687384426916151e+02 1.0000000000000000e+00 3.9588643814503839e+00 1.7064612918299172e+01 9.4706385071703973e+00 
109 1 2 1.0280025948495488e+00 -6.7621284219714084e+01 1.0000000000000000e+00 6.1088922911950156e+00 1.6078232488065439e+01 9.2964966414148140e+00 
53 1 2 1.0280004166592309e+00 -9.0199582494610382e+01 1.0000000000000000e+00 6.2817617480568106e+00 1.7775402349240036e+01 8.1329736032927400e+00 
160 1 2 1.0279991883436417e+00 -1.1090409306126153e+02 1.0000000000000000e+00 5.6796523358268942e+00 1.6631543091458866e+01 9.8983593913895600e+00 
36 1 2 1.0279994076312282e+00 -6.2157903825916982e+01 1.0000000000000000e+00 6.0906526946305704e+00 1.6714226017651360e+01 9.7920932728485219e+00 
157 1 2 1.0279980696879181e+00 -3.3175777572467283e+01 1.0000000000000000e+00 6.2237240884165033e+00 1.7743972278174724e+01 8.1934140027929168e+00 
154 1 2 1.0280008601629067e+00 -3.4223421668020293e+01 1.0000000000000000e+00 4.9243839713676465e+00 1.9175385846852635e+01 8.7702010446982488e+00 
119 1 2 1.0279998333893048e+00 -7.2333285074001935e+01 1.0000000000000000e+00 5.0422217959303586e+00 1.9474735928456845e+01 8.1098864153215224e+00 
84 1 2 1.0280000995524925e+00 -6.2241827435062959e+01 1.0000000000000000e+00 5.1062679342769739e+00 1.9543129594750230e+01 8.2187984833645586e+00 
48 1 2 1.0280000314484905e+00 -6.2330217478230765e+01 1.0000000000000000e+00 8.2850887086911200e+00 4.5091374070203996e+00 5.8789978814111965e+00 
176 1 2 1.0279999505280217e+00 -7.0126106830735011e+01 1.0000000000000000e+00 8.4717424380650872e+00 5.0082601990521445e+00 5.8030632471538821e+00 
11 1 2 1.0279993647760026e+00 -1.1079071146822619e+02 1.0000000000000000e+00 6.9736408490505131e+00 5.7581877378007444e+00 4.7638155902566668e+00 
87 1 2 1.0280004205490050e+00 -1.7984095426105135e+01 1.0000000000000000e+00 8.4765260701069263e+00 6.2965030265424167e+00 4.6940096915118028e+00 
155 1 2 1.0280001091189621e+00 -7.0241372213092149e+01 1.0000000000000000e+00 8.1223832205903950e+00 6.3978066686776378e+00 4.1360563112105790e+00 
134 1 2 1.0279995854683996e+00 -3.5724705198232527e+01 1.0000000000000000e+00 7.5799123725229922e+00 7.9832529739299760e+00 5.6172449982815129e+00 
28 1 2 1.0280002175183693e+00 -6.2766045297683434e+01 1.0000000000000000e+00 7.4226458989416759e+00 6.8533275893891306e+00 4.2020854615683723e+00 
99 1 2 1.0279995058649694e+00 -1.3389585960217099e+02 1.0000000000000000e+00 8.4647605209646173e+00 8.9612807273300223e+00 4.0764339222663555e+00 
68 1 2 1.0279994841903242e+00 -7.5948920616678166e+01 1.0000000000000000e+00 8.4892006192189502e+00 8.9917704634437730e+00 4.0731482721750725e+00 
56 1 2 1.0280007934436466e+00 -1.0437843967705633e+02 1.0000000000000000e+00 8.0042149956164881e+00 9.6851443594865199e+00 5.3034846304208880e+00 
80 1 2 1.0280005235794818e+00 -8.9870059991636012e+01 1.0000000000000000e+00 7.0468313217724017e+00 8.7085360759500396e+00 5.9501563961638162e+00 
101 1 2 1.0280001160842105e+00 -6.2421282414042921e+01 1.0000000000000000e+00 9.1410095759844801e+00 3.0540855685162347e+00 6.8418506013383640e+00 
71 1 2 1.0280000980525905e+00 -1.0514624900417725e+02 1.0000000000000000e+00 9.1677950158913362e+00 3.0251819136673639e+00 6.9006213822572935e+00 
130 1 2 1.0280001338530604e+00 -4.3646781488701414e+01 1.0000000000000000e+00 9.5029592066612931e+00 3.9240976716421891e+00 7.1310632671967786e+00 
34 1 2 1.0280002570743141e+00 -5.9451095312313335e+01 1.0000000000000000e+00 7.7594358437818522e+00 5.6468952490561550e+00 7.6591579350634431e+00 
79 1 2 1.0280005849609668e+00 -6.4789881390114331e+01 1.0000000000000000e+00 7.7534490227973842e+00 5.6381610716422434e+00 7.6740208442426141e+00 
90 1 2 1.0280003832988249e+00 -1.0611931665122968e+02 1.0000000000000000e+00 7.2079681590378168e+00 4.7756808631515382e+00 6.1680077311292578e+00 
151 1 2 1.0279997304113162e+00 -4.7111204492289339e+01 1.0000000000000000e+00 8.3780007190179777e+00 7.0771173544945372e+00 6.5874211518984316e+00 
55 1 2 1.0280003972033449e+00 -2.1471171084296525e+01 1.0000000000000000e+00 9.4131940216111047e+00 7.1803849122097079e+00 6.4909218818746535e+00 
133 1 2 1.0280009320770669e+00 -5.7098168755943057e+01 1.0000000000000000e+00 6.8874344592309820e+00 8.1713138416400124e+00 7.6973055395489345e+00 
73 1 2 1.0279999390434296e+00 -5.4268107410188172e+01 1.0000000000000000e+00 9.4974213694256431e+00 8.1145904180920443e+00 6.6790623759095418e+00 
33 1 2 1.0279997668809313e+00 -2.9042927822952670e+01 1.0000000000000000e+00 9.4706916143776585e+00 8.1757802255390750e+00 6.4951711973266910e+00 
105 1 2 1.0279997725988499e+00 -7.6469619465024380e+01 1.0000000000000000e+00 8.8285488915162844e+00 3.6033121395550856e+00 8.6934428995361621e+00 
142 1 2 1.0279997683397324e+00 -9.9320434172718961e+01 1.0000000000000000e+00 8.8227049093783574e+00 3.6069190605191914e+00 8.6980942496104010e+00 
10 1 2 1.0280007206088417e+00 -6.6809461456054564e+01 1.0000000000000000e+00 7.3839012910699671e+00 4.8404193519995191e+00 9.1306096659835383e+00 
116 1 2 1.0280004163220204e+00 -6.2839812920631893e+01 1.0000000000000000e+00 9.5068207154831939e+00 5.0371126457074888e+00 8.9201723999640841e+00 
9 1 2 1.0279999583494979e+00 -7.7729722935843597e+01 1.0000000000000000e+00 9.7205539264550680e+00 5.8617411997230553e+00 9.9764999457516605e+00 
88 1 2 1.0279999624115419e+00 -3.9991520105544701e+01 1.0000000000000000e+00 9.7384842845637358e+00 5.8530779038655396e+00 9.9729855343879148e+00 
115 1 2 1.0279998685553449e+00 -4.8073501925529442e+01 1.0000000000000000e+00 6.9310472385451325e+00 7.6370649560657657e+00 9.7349945236988553e+00 
91 1 2 1.0280001356893118e+00 -6.8246080767210131e+01 1.0000000000000000e+00 7.0595652833646927e+00 6.0320047026439960e+00 9.7964170584082453e+00 
41 1 2 1.0280000441867114e+00 -9.9466465708583399e+01 1.0000000000000000e+00 7.0597343584686891e+00 6.0448642852214176e+00 9.7958437061640229e+00 
62 1 2 1.0279999777600239e+00 -7.6089404442241090e+01 1.0000000000000000e+00 6.7138086730356745e+00 8.6946570553260063e+00 9.2691765622213769e+00 
177 1 2 1.0279991430364941e+00 -7.3647550971944625e+01 1.0000000000000000e+00 6.6837957602065634e+00 9.5323728312796252e+00 8.0264754694631826e+00 
82 1 2 1.0279991430358495e+00 -2.2822162818941212e+01 1.0000000000000000e+00 6.6837958578519920e+00 9.5323728419786651e+00 8.0264754373146854e+00 
153 1 2 1.0279991938753226e+00 -4.9275533377704058e+01 1.0000000000000000e+00 6.8341013832604141e+00 3.8468700396986795e+00 1.0967005083331639e+01 
86 1 2 1.0279989781735790e+00 -7.1984112405147414e+01 1.0000000000000000e+00 6.6729938790995265e+00 3.8068834193133925e+00 1.1077361133814524e+01 
85 1 2 1.0279994029219868e+00 -8.2534019115722529e+01 1.0000000000000000e+00 8.3566238654898175e+00 4.6687864839568514e+00 1.0328559702557882e+01 
12 1 2 1.0279999832120106e+00 9.1702269171070849e+00 1.0000000000000000e+00 9.3606973562516504e+00 4.6734535358713858e+00 1.0369613840867245e+01 
169 1 2 1.0280002836965036e+00 -3.6983649231725359e+01 1.0000000000000000e+00 8.3162579893864876e+00 1.1532712987833751e+01 3.9803693502369835e+00 
57 1 2 1.0280002114574007e+00 -5.0510242964728536e-01 1.0000000000000000e+00 8.0666419955748712e+00 1.0034343576803366e+01 4.1300166781446093e+00 
107 1 2 1.0280003181663697e+00 -4.3485579755509903e+01 1.0000000000000000e+00 7.9248901211038074e+00 1.2833230490836698e+01 4.2456877974141198e+00 
175 1 2 1.0280003145029202e+00 9.6669179997678523e+00 1.0000000000000000e+00 7.9244428856014348e+00 1.2832845356546311e+01 4.2457241541159272e+00 
76 1 2 1.0279997719447560e+00 -5.4696031523999416e+01 1.0000000000000000e+00 9.4184510265368466e+00 1.2266768091608510e+01 4.3375197170600703e+00 
166 1 2 1.0279998209220840e+00 -1.1915558788852884e+02 1.0000000000000000e+00 9.4189348350595026e+00 1.2277783832948556e+01 4.3474244836416869e+00 
93 1 2 1.0279993775475613e+00 -1.2385710337016339e+02 1.0000000000000000e+00 7.1043833514858621e+00 1.0529823645997999e+01 6.4447333488064507e+00 
100 1 2 1.0280082014985854e+00 -6.8527865642408102e+01 1.0000000000000000e+00 9.3986171324773125e+00 1.1412821811965360e+01 6.4242623051626557e+00 
8 1 2 1.0279935134099099e+00 2.2843936099799002e+01 1.0000000000000000e+00 9.5604104570040143e+00 1.1649319324651861e+01 6.6531066539009469e+00 
7 1 2 1.0279951333482702e+00 -5.1832493324364917e+00 1.0000000000000000e+00 9.5558067931843489e+00 1.1593339834797623e+01 6.6602915423928666e+00 
98 1 2 1.0279931674603422e+00 -9.6057180064405955e+01 1.0000000000000000e+00 8.8892533903280224e+00 1.4178720859228990e+01 6.3533775233973584e+00 
38 1 2 1.0280014017044110e+00 -6.7692302525614579e+01 1.0000000000000000e+00 9.1532680373167121e+00 1.4130935050174337e+01 6.2931088619463846e+00 
39 1 2 1.0280119986130254e+00 -5.5486079820358225e-01 1.0000000000000000e+00 9.1171170008547886e+00 1.4143881321888339e+01 6.1864243609148462e+00 
128 1 2 1.0279996742785551e+00 -7.7477021204181327e+01 1.0000000000000000e+00 7.7238940199430983e+00 1.6037037811707485e+01 7.1798879267414364e+00 
14 1 2 1.0279996741358592e+00 -8.0111799767204161e+01 1.0000000000000000e+00 7.7233673701735359e+00 1.6036562330044255e+01 7.1811848169924408e+00 
126 1 2 1.0279999853531125e+00 -3.0909191645266965e+01 1.0000000000000000e+00 6.9102434777008268e+00 1.6644046919646428e+01 6.5035668593958320e+00 
149 1 2 1.0279999928673071e+00 -7.2337288831440972e+01 1.0000000000000000e+00 7.4985318477942711e+00 1.8034508837447145e+01 6.3733742190016045e+00 
4 1 2 1.0280000777713174e+00 3.9322217998318090e+00 1.0000000000000000e+00 7.2756628707986630e+00 1.8469466494260793e+01 6.4523584013177846e+00 
70 1 2 1.0280006109344355e+00 -3.5461668741871485e+01 1.0000000000000000e+00 6.9601016474758497e+00 1.8690184165658344e+01 7.0042735248244510e+00 
13 1 2 1.0280002084199917e+00 -7.9444838401523299e+01 1.0000000000000000e+00 1.9123011590628064e+01 9.7911505779359835e+00 6.9412649550653285e+00 
137 1 2 1.0279998039113014e+00 -3.5889410625652078e+00 1.0000000000000000e+00 1.9161952105222607e+01 1.0341556847862272e+01 6.8847951170487756e+00 
46 1 2 1.0279999166294429e+00 -6.8246880818287153e+01 1.0000000000000000e+00 1.8975792910534327e+01 1.0191624504460263e+01 6.9639265391222533e+00 

Velocities

30 3.0413407720949198e-01 2.1730054382113098e-01 7.0000984193959601e-02
163 3.0409755096269675e-01 2.1729558556969658e-01 6.9988772547153896e-02
127 3.0407071711304490e-01 2.1733457763476188e-01 6.9987787738696558e-02
64 3.0423053999030436e-01 2.1740411292255418e-01 6.9677038900742130e-02
54 3.0435986704660545e-01 2.1748198095273436e-01 6.9576138469676502e-02
164 3.0435994740479128e-01 2.1747986414815096e-01 6.9576456089845334e-02
92 3.0321284185495029e-01 2.1795498176932263e-01 6.7784155238562904e-02
60 3.0404685561229078e-01 2.1742182220082429e-01 6.9933956582684823e-02
63 3.0394984031000533e-01 2.1753214893686734e-01 6.9892649915837962e-02
40 3.0389345462213413e-01 2.1763155918532343e-01 6.9489690926088407e-02
162 3.0373778236953464e-01 2.1784343792633912e-01 6.9362008659469898e-02
111 3.0411906446333403e-01 2.1765591645130428e-01 6.9378029985533676e-02
96 3.0383658109497996e-01 2.1804004616752071e-01 6.8961435633738494e-02
141 3.0394552949322934e-01 2.1803089864382155e-01 6.8900265030966384e-02
180 3.0368078253351638e-01 2.1801599040943656e-01 6.8804734112483820e-02
113 3.0365973194856610e-01 2.1791846485229974e-01 6.8635897560327314e-02
3 3.0358623645032001e-01 2.1787566347681456e-01 6.8662556144213835e-02
143 3.0358775932700921e-01 2.1793261426613403e-01 6.8458771383459377e-02
102 3.0359306122941421e-01 2.1794864143982021e-01 6.8434915190868501e-02
145 3.0368271037818201e-01 2.1804505041250699e-01 6.8356873093157897e-02
110 3.0354421928591985e-01 2.1817188763627740e-01 6.7980129199373643e-02
132 3.0358473132341218e-01 2.1817083262293463e-01 6.7955177468286942e-02
19 3.0345369103818559e-01 2.1801667285905862e-01 6.8446826741554001e-02
42 3.0329420664115991e-01 2.1829535750970289e-01 6.8365899583132050e-02
24 3.0330304545142256e-01 2.1831519631706273e-01 6.8368878892561422e-02
61 3.0331638337096395e-01 2.1818076916392265e-01 6.7742003762259972e-02
32 3.0324326895458387e-01 2.1810024311696410e-01 6.7873611631996317e-02
152 3.0394560085266409e-01 2.1793093135268421e-01 6.7989968577461174e-02
77 3.0394558115314230e-01 2.1793071850806484e-01 6.7990606423158934e-02
21 3.0368056438565244e-01 2.1798596730953435e-01 6.8945743109930402e-02
123 3.0375150638936049e-01 2.1798392376191944e-01 6.8853554381004850e-02
94 3.0380105962294207e-01 2.1814612102307082e-01 6.8629722251658379e-02
44 3.0379059407155357e-01 2.1814796423167859e-01 6.7468213306670854e-02
27 3.0377205467988849e-01 2.1814383878705954e-01 6.7450937598166172e-02
23 3.0342761837691373e-01 2.1836269268515204e-01 6.8403946997568896e-02
114 3.0350066558501781e-01 2.1835861742175228e-01 6.8421846820603746e-02
140 3.0332153807676970e-01 2.1812409294961344e-01 6.8067553925508520e-02
135 3.0342934424460460e-01 2.1818964758728976e-01 6.7784336086571598e-02
16 3.0342398722052411e-01 2.1828237007092291e-01 6.7625573950665166e-02
125 3.0359676431017524e-01 2.1811020505807355e-01 6.7204495095793126e-02
50 3.0393574932918205e-01 2.1796897912163332e-01 6.7965627383953953e-02
108 3.0387511019928498e-01 2.1799858736538694e-01 6.7881537796572522e-02
1 3.0386563491176355e-01 2.1802668360736185e-01 6.7916058367416071e-02