LAMMPS data file via write_data, version 30 Jul 2016, timestep = 1000000

2080 atoms
8 atom types

0.0000000000000000e+00 4.0000000000000000e+01 xlo xhi
0.0000000000000000e+00 4.0000000000000000e+01 ylo yhi
0.0000000000000000e+00 1.0000000000000000e+02 zlo zhi

Masses

1 3.896
2 8.612
3 20.064
4 8.378
5 8.378
6 8.378
7 8.378
8 8.378

Atoms # meso-molecular

1 2 4 2.2559723595316457e+00 1.9908872089802215e-02 1.0000000000000000e+00 0.0000000000000000e+00 0.0000000000000000e+00 2.5000000000000000e+00 
2 2 4 2.2559723595424837e+00 2.9233077470816241e-04 1.0000000000000000e+00 0.0000000000000000e+00 2.0000000000000000e+00 2.5000000000000000e+00 
21 2 4 2.2559723595316457e+00 1.6113539332357612e-04 1.0000000000000000e+00 2.0000000000000000e+00 0.0000000000000000e+00 2.5000000000000000e+00 
22 2 4 2.2559723595316457e+00 6.6478614360098703e-07 1.0000000000000000e+00 2.0000000000000000e+00 2.0000000000000000e+00 2.5000000000000000e+00 
41 2 4 2.2559723595370129e+00 3.2591101126151859e-04 1.0000000000000000e+00 4.0000000000000000e+00 0.0000000000000000e+00 2.5000000000000000e+00 
42 2 4 2.2559723595316457e+00 7.8159642416871227e-05 1.0000000000000000e+00 4.0000000000000000e+00 2.0000000000000000e+00 2.5000000000000000e+00 
61 2 4 2.2559723595316834e+00 1.1491424531574695e-05 1.0000000000000000e+00 6.0000000000000000e+00 0.0000000000000000e+00 2.5000000000000000e+00 
62 2 4 2.2559723595316457e+00 2.9999140697307925e-05 1.0000000000000000e+00 6.0000000000000000e+00 2.0000000000000000e+00 2.5000000000000000e+00 
81 2 4 2.2559723595316457e+00 3.5455694314104824e-07 1.0000000000000000e+00 8.0000000000000000e+00 0.0000000000000000e+00 2.5000000000000000e+00 
82 2 4 2.2559723595316457e+00 5.1993629810605231e-06 1.0000000000000000e+00 8.0000000000000000e+00 2.0000000000000000e+00 2.5000000000000000e+00 
101 2 4 2.2559723595316457e+00 5.9121708720418025e-07 1.0000000000000000e+00 1.0000000000000000e+01 0.0000000000000000e+00 2.5000000000000000e+00 
102 2 4 2.2559723595316457e+00 7.9001720709566910e-07 1.0000000000000000e+00 1.0000000000000000e+01 2.0000000000000000e+00 2.5000000000000000e+00 
121 2 4 2.2559723595316457e+00 4.1212005688758360e-08 1.0000000000000000e+00 1.2000000000000000e+01 0.0000000000000000e+00 2.5000000000000000e+00 
122 2 4 2.2559723595316457e+00 9.6973541463033983e-08 1.0000000000000000e+00 1.2000000000000000e+01 2.0000000000000000e+00 2.5000000000000000e+00 
141 2 4 2.2559723595316457e+00 1.3152459795258937e-08 1.0000000000000000e+00 1.4000000000000000e+01 0.0000000000000000e+00 2.5000000000000000e+00 
142 2 4 2.2559723595317234e+00 1.3464791775471379e-05 1.0000000000000000e+00 1.4000000000000000e+01 2.0000000000000000e+00 2.5000000000000000e+00 
161 2 4 2.2559723595316457e+00 0.0000000000000000e+00 1.0000000000000000e+00 1.6000000000000000e+01 0.0000000000000000e+00 2.5000000000000000e+00 
162 2 4 2.2559723595316457e+00 0.0000000000000000e+00 1.0000000000000000e+00 1.6000000000000000e+01 2.0000000000000000e+00 2.5000000000000000e+00 
181 2 4 2.2559723595316457e+00 0.0000000000000000e+00 1.0000000000000000e+00 1.8000000000000000e+01 0.0000000000000000e+00 2.5000000000000000e+00 
182 2 4 2.2559723595316457e+00 0.0000000000000000e+00 1.0000000000000000e+00 1.8000000000000000e+01 2.0000000000000000e+00 2.5000000000000000e+00 
3 2 4 2.2559723595316457e+00 7.0074959718907301e-04 1.0000000000000000e+00 0.0000000000000000e+00 4.0000000000000000e+00 2.5000000000000000e+00 
4 2 4 2.2559723595316457e+00 -2.1170197693658188e-01 1.0000000000000000e+00 0.0000000000000000e+00 6.0000000000000000e+00 2.5000000000000000e+00 
23 2 4 2.2559723595316457e+00 6.8187857203906801e-06 1.0000000000000000e+00 2.0000000000000000e+00 4.0000000000000000e+00 2.5000000000000000e+00 
24 2 4 2.2559723595316457e+00 0.0000000000000000e+00 1.0000000000000000e+00 2.0000000000000000e+00 6.0000000000000000e+00 2.5000000000000000e+00 
43 2 4 2.2559723595336822e+00 1.7600168490492798e-04 1.0000000000000000e+00 4.0000000000000000e+00 4.0000000000000000e+00 2.5000000000000000e+00 
44 2 4 2.2559723595335668e+00 1.6573162982155308e-04 1.0000000000000000e+00 4.0000000000000000e+00 6.0000000000000000e+00 2.5000000000000000e+00 
63 2 4 2.2559723595316457e+00 -1.8763702705385520e-08 1.0000000000000000e+00 6.0000000000000000e+00 4.0000000000000000e+00 2.5000000000000000e+00 
64 2 4 2.2559723595651713e+00 1.2875462441051704e-03 1.0000000000000000e+00 6.0000000000000000e+00 6.0000000000000000e+00 2.5000000000000000e+00 
83 2 4 2.2559723595316457e+00 2.6836371181721613e-07 1.0000000000000000e+00 8.0000000000000000e+00 4.0000000000000000e+00 2.5000000000000000e+00 
84 2 4 2.2559723595316457e+00 6.6418719327273164e-07 1.0000000000000000e+00 8.0000000000000000e+00 6.0000000000000000e+00 2.5000000000000000e+00 
103 2 4 2.2559723595316457e+00 5.5213661567459064e-08 1.0000000000000000e+00 1.0000000000000000e+01 4.0000000000000000e+00 2.5000000000000000e+00 
104 2 4 2.2559723595318073e+00 1.9757681099758916e-05 1.0000000000000000e+00 1.0000000000000000e+01 6.0000000000000000e+00 2.5000000000000000e+00 
123 2 4 2.2559723595316457e+00 4.2945162496130250e-08 1.0000000000000000e+00 1.2000000000000000e+01 4.0000000000000000e+00 2.5000000000000000e+00 
124 2 4 2.2559723595345518e+00 2.4609604711651280e-04 1.0000000000000000e+00 1.2000000000000000e+01 6.0000000000000000e+00 2.5000000000000000e+00 
143 2 4 2.2559723595316457e+00 0.0000000000000000e+00 1.0000000000000000e+00 1.4000000000000000e+01 4.0000000000000000e+00 2.5000000000000000e+00 
144 2 4 2.2559723595316457e+00 0.0000000000000000e+00 1.0000000000000000e+00 1.4000000000000000e+01 6.0000000000000000e+00 2.5000000000000000e+00 
163 2 4 2.2559723595316457e+00 0.0000000000000000e+00 1.0000000000000000e+00 1.6000000000000000e+01 4.0000000000000000e+00 2.5000000000000000e+00 
164 2 4 2.2559723595316457e+00 0.0000000000000000e+00 1.0000000000000000e+00 1.6000000000000000e+01 6.0000000000000000e+00 2.5000000000000000e+00 
183 2 4 2.2559723595316457e+00 0.0000000000000000e+00 1.0000000000000000e+00 1.8000000000000000e+01 4.0000000000000000e+00 2.5000000000000000e+00 
184 2 4 2.2559723595316457e+00 0.0000000000000000e+00 1.0000000000000000e+00 1.8000000000000000e+01 6.0000000000000000e+00 2.5000000000000000e+00 
5 2 4 2.2559723595653041e+00 2.0135495207295926e-03 1.0000000000000000e+00 0.0000000000000000e+00 8.0000000000000000e+00 2.5000000000000000e+00 
6 2 4 2.2559723596165315e+00 3.3233572799966755e-03 1.0000000000000000e+00 0.0000000000000000e+00 1.0000000000000000e+01 2.5000000000000000e+00 
25 2 4 2.2559723595335970e+00 1.4846239415992746e-04 1.0000000000000000e+00 2.0000000000000000e+00 8.0000000000000000e+00 2.5000000000000000e+00 
26 2 4 2.2559723596524939e+00 2.8318857288744184e-03 1.0000000000000000e+00 2.0000000000000000e+00 1.0000000000000000e+01 2.5000000000000000e+00 
45 2 4 2.2559723595316457e+00 1.8571627477995697e-06 1.0000000000000000e+00 4.0000000000000000e+00 8.0000000000000000e+00 2.5000000000000000e+00 
46 2 4 2.2559723595328793e+00 1.2779371341632383e-04 1.0000000000000000e+00 4.0000000000000000e+00 1.0000000000000000e+01 2.5000000000000000e+00 
65 2 4 2.2559723595386600e+00 3.3529874534996571e-04 1.0000000000000000e+00 6.0000000000000000e+00 8.0000000000000000e+00 2.5000000000000000e+00 
66 2 4 2.2559723595316457e+00 2.1336523033351585e-07 1.0000000000000000e+00 6.0000000000000000e+00 1.0000000000000000e+01 2.5000000000000000e+00 
85 2 4 2.2559723595395607e+00 4.6639476173857610e-04 1.0000000000000000e+00 8.0000000000000000e+00 8.0000000000000000e+00 2.5000000000000000e+00 
86 2 4 2.2559723595395891e+00 4.5983272172690824e-04 1.0000000000000000e+00 8.0000000000000000e+00 1.0000000000000000e+01 2.5000000000000000e+00 
105 2 4 2.2559723595317545e+00 1.7145693065859077e-05 1.0000000000000000e+00 1.0000000000000000e+01 8.0000000000000000e+00 2.5000000000000000e+00 
106 2 4 2.2559723595316457e+00 0.0000000000000000e+00 1.0000000000000000e+00 1.0000000000000000e+01 1.0000000000000000e+01 2.5000000000000000e+00 
125 2 4 2.2559723595316457e+00 0.0000000000000000e+00 1.0000000000000000e+00 1.2000000000000000e+01 8.0000000000000000e+00 2.5000000000000000e+00 
126 2 4 2.2559723595316457e+00 0.0000000000000000e+00 1.0000000000000000e+00 1.2000000000000000e+01 1.0000000000000000e+01 2.5000000000000000e+00 
145 2 4 2.2559723595316457e+00 -1.1954715176228711e+02 1.0000000000000000e+00 1.4000000000000000e+01 8.0000000000000000e+00 2.5000000000000000e+00 
146 2 4 2.2559723595316457e+00 -5.6919220585344681e+02 1.0000000000000000e+00 1.4000000000000000e+01 1.0000000000000000e+01 2.5000000000000000e+00 
165 2 4 2.2559723595316457e+00 -5.6930591565792975e+02 1.0000000000000000e+00 1.6000000000000000e+01 8.0000000000000000e+00 2.5000000000000000e+00 
166 2 4 2.2559723595316457e+00 -2.2033227203941606e+03 1.0000000000000000e+00 1.6000000000000000e+01 1.0000000000000000e+01 2.5000000000000000e+00 
185 2 4 2.2559723595316457e+00 -7.1166823732076330e+02 1.0000000000000000e+00 1.8000000000000000e+01 8.0000000000000000e+00 2.5000000000000000e+00 
186 2 4 2.2559723595316457e+00 -2.8500112468885668e+03 1.0000000000000000e+00 1.8000000000000000e+01 1.0000000000000000e+01 2.5000000000000000e+00 
7 2 4 2.2559723595316457e+00 0.0000000000000000e+00 1.0000000000000000e+00 0.0000000000000000e+00 1.2000000000000000e+01 2.5000000000000000e+00 
8 2 4 2.2559723599096797e+00 8.7162775584808568e-03 1.0000000000000000e+00 0.0000000000000000e+00 1.4000000000000000e+01 2.5000000000000000e+00 
27 2 4 2.2559723595316457e+00 -2.5506766506631385e-06 1.0000000000000000e+00 2.0000000000000000e+00 1.2000000000000000e+01 2.5000000000000000e+00 
28 2 4 2.2559723595350727e+00 2.0781868154157591e-04 1.0000000000000000e+00 2.0000000000000000e+00 1.4000000000000000e+01 2.5000000000000000e+00 
47 2 4 2.2559723595801620e+00 1.8185938255266851e-03 1.0000000000000000e+00 4.0000000000000000e+00 1.2000000000000000e+01 2.5000000000000000e+00 
48 2 4 2.2559723595316457e+00 9.4821572729554410e-08 1.0000000000000000e+00 4.0000000000000000e+00 1.4000000000000000e+01 2.5000000000000000e+00 
67 2 4 2.2559723595407659e+00 5.2551111729640695e-04 1.0000000000000000e+00 6.0000000000000000e+00 1.2000000000000000e+01 2.5000000000000000e+00 
68 2 4 2.2559723595639567e+00 1.0524759956493438e-03 1.0000000000000000e+00 6.0000000000000000e+00 1.4000000000000000e+01 2.5000000000000000e+00 
87 2 4 2.2559723595466887e+00 8.2729400319059244e-04 1.0000000000000000e+00 8.0000000000000000e+00 1.2000000000000000e+01 2.5000000000000000e+00 
88 2 4 2.2559723595316457e+00 0.0000000000000000e+00 1.0000000000000000e+00 8.0000000000000000e+00 1.4000000000000000e+01 2.5000000000000000e+00 
107 2 4 2.2559723595316457e+00 0.0000000000000000e+00 1.0000000000000000e+00 1.0000000000000000e+01 1.2000000000000000e+01 2.5000000000000000e+00 
108 2 4 2.2559723595316457e+00 0.0000000000000000e+00 1.0000000000000000e+00 1.0000000000000000e+01 1.4000000000000000e+01 2.5000000000000000e+00 
127 2 4 2.2559723595316457e+00 0.0000000000000000e+00 1.0000000000000000e+00 1.2000000000000000e+01 1.2000000000000000e+01 2.5000000000000000e+00 
128 2 4 2.2559723595316457e+00 0.0000000000000000e+00 1.0000000000000000e+00 1.2000000000000000e+01 1.4000000000000000e+01 2.5000000000000000e+00 
147 2 4 2.2559723595316457e+00 -7.1143731729473166e+02 1.0000000000000000e+00 1.4000000000000000e+01 1.2000000000000000e+01 2.5000000000000000e+00 
148 2 4 2.2559723595316457e+00 -7.1849616246543110e+02 1.0000000000000000e+00 1.4000000000000000e+01 1.4000000000000000e+01 2.5000000000000000e+00 
167 2 4 2.2559723595316457e+00 -2.8481860860813481e+03 1.0000000000000000e+00 1.6000000000000000e+01 1.2000000000000000e+01 2.5000000000000000e+00 
168 2 4 2.2559723595316457e+00 -2.8772837325131700e+03 1.0000000000000000e+00 1.6000000000000000e+01 1.4000000000000000e+01 2.5000000000000000e+00 
187 2 4 2.2559723595316457e+00 -3.6466510469142795e+03 1.0000000000000000e+00 1.8000000000000000e+01 1.2000000000000000e+01 2.5000000000000000e+00 
188 2 4 2.2559723595316457e+00 -3.6726472510322074e+03 1.0000000000000000e+00 1.8000000000000000e+01 1.4000000000000000e+01 2.5000000000000000e+00 
9 2 4 2.2559723595410071e+00 5.0476438987586737e-04 1.0000000000000000e+00 0.0000000000000000e+00 1.6000000000000000e+01 2.5000000000000000e+00 
10 2 4 2.2559723595316457e+00 9.4098249234139026e-07 1.0000000000000000e+00 0.0000000000000000e+00 1.8000000000000000e+01 2.5000000000000000e+00 
29 2 4 2.2559723595565382e+00 8.9763327143009075e-04 1.0000000000000000e+00 2.0000000000000000e+00 1.6000000000000000e+01 2.5000000000000000e+00 
30 2 4 2.2559723595811878e+00 2.0452256773696061e-03 1.0000000000000000e+00 2.0000000000000000e+00 1.8000000000000000e+01 2.5000000000000000e+00 
49 2 4 2.2559723595316457e+00 0.0000000000000000e+00 1.0000000000000000e+00 4.0000000000000000e+00 1.6000000000000000e+01 2.5000000000000000e+00 
50 2 4 2.2559723595316457e+00 0.0000000000000000e+00 1.0000000000000000e+00 4.0000000000000000e+00 1.8000000000000000e+01 2.5000000000000000e+00 
69 2 4 2.2559723595316457e+00 0.0000000000000000e+00 1.0000000000000000e+00 6.0000000000000000e+00 1.6000000000000000e+01 2.5000000000000000e+00 
70 2 4 2.2559723595316457e+00 0.0000000000000000e+00 1.0000000000000000e+00 6.0000000000000000e+00 1.8000000000000000e+01 2.5000000000000000e+00 
89 2 4 2.2559723595316457e+00 0.0000000000000000e+00 1.0000000000000000e+00 8.0000000000000000e+00 1.6000000000000000e+01 2.5000000000000000e+00 
90 2 4 2.2559723595316457e+00 0.0000000000000000e+00 1.0000000000000000e+00 8.0000000000000000e+00 1.8000000000000000e+01 2.5000000000000000e+00 
109 2 4 2.2559723595316457e+00 0.0000000000000000e+00 1.0000000000000000e+00 1.0000000000000000e+01 1.6000000000000000e+01 2.5000000000000000e+00 
110 2 4 2.2559723595316457e+00 0.0000000000000000e+00 1.0000000000000000e+00 1.0000000000000000e+01 1.8000000000000000e+01 2.5000000000000000e+00 
129 2 4 2.2559723595316457e+00 0.0000000000000000e+00 1.0000000000000000e+00 1.2000000000000000e+01 1.6000000000000000e+01 2.5000000000000000e+00 
130 2 4 2.2559723595316457e+00 0.0000000000000000e+00 1.0000000000000000e+00 1.2000000000000000e+01 1.8000000000000000e+01 2.5000000000000000e+00 
149 2 4 2.2559723595316457e+00 -7.1851448694139219e+02 1.0000000000000000e+00 1.4000000000000000e+01 1.6000000000000000e+01 2.5000000000000000e+00 
150 2 4 2.2559723595316457e+00 -7.1857212788538027e+02 1.0000000000000000e+00 1.4000000000000000e+01 1.8000000000000000e+01 2.5000000000000000e+00 
169 2 4 2.2559723595316457e+00 -2.8787090595595910e+03 1.0000000000000000e+00 1.6000000000000000e+01 1.6000000000000000e+01 2.5000000000000000e+00 
170 2 4 2.2559723595316457e+00 -2.8783711020428564e+03 1.0000000000000000e+00 1.6000000000000000e+01 1.8000000000000000e+01 2.5000000000000000e+00 
189 2 4 2.2559723595316457e+00 -3.6725926291056667e+03 1.0000000000000000e+00 1.8000000000000000e+01 1.6000000000000000e+01 2.5000000000000000e+00 
190 2 4 2.2559723595316457e+00 -3.6723300931316971e+03 1.0000000000000000e+00 1.8000000000000000e+01 1.8000000000000000e+01 2.5000000000000000e+00 
605 207 2 1.0280034793576209e+00 1.9362706857103851e+03 1.0000000000000000e+00 1.0684850835626209e+01 1.5597635179358800e+01 8.3175350683698227e+01 
422 24 2 1.0280034776736424e+00 1.1945074749829037e+03 1.0000000000000000e+00 1.0670147197944395e+01 1.5513612113056706e+01 8.3196896997831644e+01 
449 51 2 1.0280033879644832e+00 -8.9120574949816864e+02 1.0000000000000000e+00 1.0617884142325291e+01 1.5507192255413653e+01 8.3198291943163468e+01 
576 178 2 1.0280023179187874e+00 -1.9094837098002338e+02 1.0000000000000000e+00 9.7926703512427373e+00 1.5433305040832030e+01 8.3244618829678160e+01 
433 35 2 1.0280021498139791e+00 -2.3560397874014461e+03 1.0000000000000000e+00 9.3547286940657983e+00 1.5422555103760580e+01 8.3307999317858389e+01 
545 147 2 1.0280078217237318e+00 -2.8181163502407486e+02 1.0000000000000000e+00 1.4744257516835305e+01 1.5886194561233767e+01 8.2508973160758543e+01 
727 329 2 1.0280097111575168e+00 -2.4916367939949919e+03 1.0000000000000000e+00 1.4651701113806462e+01 1.5836124367017986e+01 8.2743900938299774e+01 
736 338 2 1.0280007737333867e+00 -3.7631488822629713e+01 1.0000000000000000e+00 1.7613381891943856e+01 1.5495304354539481e+01 8.1499976521457128e+01 
1734 1336 2 1.0280004213504248e+00 -1.7877620552142475e+03 1.0000000000000000e+00 1.6510579048375778e+01 1.5535711142447600e+01 8.1744154563463539e+01 
1921 1523 2 1.0280002791493723e+00 4.6683286818498067e+02 1.0000000000000000e+00 1.7209222273172880e+01 1.5403716184183789e+01 8.1886636835584611e+01 
614 216 2 1.0280011880331537e+00 -2.4526732400387077e+03 1.0000000000000000e+00 8.9706826835352373e+00 1.6009444166269940e+01 8.3245615850248626e+01 
1146 748 2 1.0279987023279276e+00 -3.2072274311309457e+02 1.0000000000000000e+00 1.5618367287833061e+01 1.8630510539247947e+01 8.0844396837103147e+01 
1314 916 2 1.0279986626247135e+00 -3.2072442133616283e+02 1.0000000000000000e+00 1.5619515658777200e+01 1.9399015204592633e+01 8.0850886413637909e+01 
592 194 2 1.0279993650588546e+00 1.1987785273912195e+03 1.0000000000000000e+00 1.5461066659528450e+01 1.7158115646751458e+01 8.0824672866322558e+01 
1575 1177 2 1.0279989609445859e+00 -6.9737611688065169e+02 1.0000000000000000e+00 1.5496737473613365e+01 1.8733818664185982e+01 8.0952791675174240e+01 
1071 673 2 1.0279989314628772e+00 -6.9736958561612300e+02 1.0000000000000000e+00 1.5498268512289483e+01 1.9294881525703321e+01 8.0957157766718183e+01 
747 349 2 1.0279996759279368e+00 -5.6715911408245665e+02 1.0000000000000000e+00 1.5265901907549463e+01 1.7138693387821437e+01 8.0976216185327573e+01 
714 316 2 1.0280008373211384e+00 -1.5479304359452285e+03 1.0000000000000000e+00 1.5468639303350963e+01 1.6202989129240265e+01 8.1263574325376666e+01 
434 36 2 1.0280018135468845e+00 -1.9914245274106001e+03 1.0000000000000000e+00 1.5280368770257519e+01 1.6086458552418208e+01 8.1562128912386939e+01 
1281 883 2 1.0280039331264699e+00 2.4660358979906555e+03 1.0000000000000000e+00 1.9489547983565011e+01 1.7362383930775273e+01 8.0580367596312399e+01 
1284 886 2 1.0280039039015469e+00 2.4660389378214522e+03 1.0000000000000000e+00 1.8499535920711661e+01 1.7362177377997760e+01 8.0581309088274693e+01 
938 540 2 1.0280042773449316e+00 1.2801827096983050e+03 1.0000000000000000e+00 1.9235522048551619e+01 1.7286865362076711e+01 8.0594217200113917e+01 
939 541 2 1.0280042625031849e+00 1.2801826899890366e+03 1.0000000000000000e+00 1.8753651085800907e+01 1.7286843541359531e+01 8.0594697297135951e+01 
1588 1190 2 1.0279999516860971e+00 8.4039752363439834e+02 1.0000000000000000e+00 1.6204352043029878e+01 1.6571444148778181e+01 8.0614113308638593e+01 
1936 1538 2 1.0280032489988673e+00 6.9579313952652399e+02 1.0000000000000000e+00 1.9063794711288697e+01 1.6268762439247290e+01 8.0721265204150271e+01 
1933 1535 2 1.0280032471791116e+00 6.9579315239188077e+02 1.0000000000000000e+00 1.8924981323834086e+01 1.6268779020616503e+01 8.0721373403433049e+01 
943 545 2 1.0279996625112267e+00 -3.1710789750848004e+01 1.0000000000000000e+00 4.9881257620250680e-01 3.7020103386117218e+00 8.7331854010352572e+01 
1756 1358 2 1.0279982966077490e+00 1.5158490479847628e+03 1.0000000000000000e+00 5.4486246906460889e-01 6.4408836715476223e+00 8.7123254625503776e+01 
933 535 2 1.0279994533383010e+00 1.4021276816718237e+03 1.0000000000000000e+00 5.3801186408762447e-01 6.0713095813919074e+00 8.7077852085348113e+01 
506 108 2 1.0279999868169674e+00 2.5226358204007961e+03 1.0000000000000000e+00 6.0647909145658663e-01 5.2564073979119383e+00 8.7109893143212645e+01 
1775 1377 2 1.0279991018012549e+00 7.1087906536638070e+02 1.0000000000000000e+00 6.1272027777330438e+00 7.7284307524437539e+00 8.7394363193186592e+01 
1115 717 2 1.0279973961691160e+00 1.7772503288333596e+03 1.0000000000000000e+00 3.9104296562736547e+00 1.0262220899026195e+01 8.5752217450766551e+01 
1787 1389 2 1.0279975690449348e+00 -1.4165936927561490e+03 1.0000000000000000e+00 3.0089174977459252e+00 9.7058037856245871e+00 8.5692255077719196e+01 
1133 735 2 1.0279977277801662e+00 7.1435812185813845e+01 1.0000000000000000e+00 3.2714408047008932e+00 9.5587084563826519e+00 8.5708440233131157e+01 
420 22 2 1.0279967198131466e+00 2.2861950054090225e+03 1.0000000000000000e+00 3.2550395092966160e+00 8.9140123388558958e+00 8.5978963600673481e+01 
619 221 2 1.0279912946114584e+00 -2.6897230369376539e+03 1.0000000000000000e+00 1.3887165697645549e+00 1.1029416231044600e+01 8.6285924652398165e+01 
1327 929 2 1.0279857312685294e+00 4.6971008154319458e+02 1.0000000000000000e+00 1.4297091608497217e+00 9.5504203900426337e+00 8.6288970684267952e+01 
986 588 2 1.0279922051907595e+00 -1.3016979802720476e+02 1.0000000000000000e+00 1.0425916264799333e+00 1.1186240988687015e+01 8.6549714981956441e+01 
555 157 2 1.0279958663868907e+00 -7.0598421825354706e+02 1.0000000000000000e+00 3.8582081529557986e+00 8.2606639641163451e+00 8.6883264097861598e+01 
595 197 2 1.0279596814648826e+00 -2.1346422941697674e+02 1.0000000000000000e+00 5.3082379906795440e-01 1.0026920568222810e+01 8.7069037759463868e+01 
772 374 2 1.0280034866200516e+00 -5.8057277717766351e+02 1.0000000000000000e+00 4.6026422777098974e-01 9.8022763768631069e+00 8.7498624026094348e+01 
788 390 2 1.0279225438483903e+00 -8.4961393818841699e+00 1.0000000000000000e+00 3.5292178498957660e-01 8.6710285662434217e+00 8.7191205717394524e+01 
1130 732 2 1.0279967371882264e+00 -2.4286878524991153e+02 1.0000000000000000e+00 4.0388286790327008e+00 1.0489230990113183e+01 8.5812592149119666e+01 
1746 1348 2 1.0279960864424407e+00 -3.8655111475069284e+03 1.0000000000000000e+00 4.3797434976846938e+00 8.4579953426598582e+00 8.6656070339547000e+01 
1974 1576 2 1.0279976858319353e+00 1.6205035908402635e+03 1.0000000000000000e+00 4.4969647786635889e+00 1.0210198018338062e+01 8.5904196971643742e+01 
957 559 2 1.0279961064046956e+00 1.2331311396638847e+02 1.0000000000000000e+00 4.7805811761858106e+00 1.0828687891627393e+01 8.6069634776813743e+01 
450 52 2 1.0279841874871452e+00 1.5929944366116820e+03 1.0000000000000000e+00 6.5590258425832868e+00 1.1207506957714395e+01 8.7231487955517039e+01 
1249 851 2 1.0279836385220693e+00 1.8826294125005609e+03 1.0000000000000000e+00 6.3610874184689434e+00 9.7193131244412818e+00 8.7389485950616859e+01 
1093 695 2 1.0279960534676504e+00 5.1675639382769041e+03 1.0000000000000000e+00 5.4021550153830127e+00 8.5869770274342940e+00 8.6950680179053506e+01 
574 176 2 1.0280027440391075e+00 -4.2657591292698504e+02 1.0000000000000000e+00 5.1021338544140926e+00 8.0948369072640762e+00 8.7205840742878507e+01 
1956 1558 2 1.0279886863261840e+00 -1.2362811276537711e+03 1.0000000000000000e+00 1.7504306229942019e+00 1.4884117515206741e+01 8.6471532534934028e+01 
1506 1108 2 1.0279905036024100e+00 -1.1124082157198145e+03 1.0000000000000000e+00 1.6337248336765404e+00 1.5022327467243812e+01 8.6460545897700641e+01 
1773 1375 2 1.0279922357346254e+00 1.9318307545712977e+02 1.0000000000000000e+00 1.1638607952839075e+00 1.4393476245964420e+01 8.6440718049057622e+01 
1462 1064 2 1.0279968283543883e+00 -1.9407865845573851e+03 1.0000000000000000e+00 8.3014543689996656e-01 1.3977867784129634e+01 8.6458773666531442e+01 
1745 1347 2 1.0280011762395456e+00 -3.3258288864717242e+03 1.0000000000000000e+00 4.1121732737157324e-01 1.4673270435273841e+01 8.6302223444767336e+01 
794 396 2 1.0279999451834092e+00 -1.8446026290246398e+03 1.0000000000000000e+00 7.3808352165202540e-01 1.3738621574871582e+01 8.6509657998090319e+01 
797 399 2 1.0280070525918235e+00 1.4559356490057917e+03 1.0000000000000000e+00 6.1573803705713348e-01 1.3505102585525583e+01 8.6572797286616222e+01 
1126 728 2 1.0279734248313603e+00 1.2970978668320663e+03 1.0000000000000000e+00 1.4990588230476307e+00 1.2753770234902893e+01 8.6827580066849450e+01 
1199 801 2 1.0279882872434647e+00 -8.8650108843586725e+02 1.0000000000000000e+00 1.4586309300159208e+00 1.2362458456768112e+01 8.6787639339869685e+01 
897 499 2 1.0280211499198664e+00 -2.2229688948752282e+03 1.0000000000000000e+00 7.4477122045826727e+00 1.3745568484956118e+01 8.5656594884128381e+01 
1121 723 2 1.0280072345372380e+00 1.4230063245919569e+03 1.0000000000000000e+00 7.4851624926239060e+00 1.3256198528941589e+01 8.6216608302778724e+01 
1006 608 2 1.0280087908014595e+00 -2.6731703066421250e+02 1.0000000000000000e+00 6.4272173740808798e+00 1.3744000741497333e+01 8.6028734236765146e+01 
1262 864 2 1.0279920471275545e+00 1.0600667442313077e+03 1.0000000000000000e+00 7.4647234264268540e+00 1.3039665711101918e+01 8.6613421567776868e+01 
1665 1267 2 1.0279919293872368e+00 1.6219188698516898e+03 1.0000000000000000e+00 7.4692260774420287e+00 1.3043855967218846e+01 8.6614677207763961e+01 
625 227 2 1.0280009914684227e+00 9.0245987238748069e+02 1.0000000000000000e+00 6.4972081390843428e+00 1.2575395644614101e+01 8.6368057137907456e+01 
724 326 2 1.0280086244380449e+00 7.1529903254594228e+02 1.0000000000000000e+00 5.9677629581485894e+00 1.4637812370427483e+01 8.6916129651867450e+01 
1389 991 2 1.0280059696359525e+00 3.2753681927768284e+03 1.0000000000000000e+00 5.7962620192595473e+00 1.4593086316854558e+01 8.7326651179287694e+01 
445 47 2 1.0280163059712091e+00 3.1297623438104574e+02 1.0000000000000000e+00 8.1154854564592522e+00 1.3664882287507533e+01 8.5690165539159295e+01 
623 225 2 1.0280030409130336e+00 -1.7401089373627613e+03 1.0000000000000000e+00 1.1142793132466666e+01 1.3934844424952127e+01 8.5416455903097017e+01 
479 81 2 1.0280011558243649e+00 2.2161889381902292e+03 1.0000000000000000e+00 1.1997126967091630e+01 1.3836383905320545e+01 8.5640798472770797e+01 
1970 1572 2 1.0280006882671913e+00 1.4074929839191493e+03 1.0000000000000000e+00 1.1824340638958034e+01 1.3757127167954041e+01 8.5779449371128450e+01 
1958 1560 2 1.0279910189746782e+00 2.5382888407567348e+03 1.0000000000000000e+00 1.0160830639909157e+01 1.4268866417784283e+01 8.5927812586030328e+01 
729 331 2 1.0279813456076250e+00 6.5598991607101539e+02 1.0000000000000000e+00 1.0702822686611444e+01 1.4047430287954352e+01 8.6040806821123596e+01 
1788 1390 2 1.0280080363247688e+00 2.8984068292238694e+03 1.0000000000000000e+00 8.8154461879925936e+00 1.3802948306475168e+01 8.5858497884273234e+01 
696 298 2 1.0280134115928938e+00 1.3374806485552037e+03 1.0000000000000000e+00 1.4266238919971448e+01 1.5636576989802478e+01 8.3831917842890348e+01 
1227 829 2 1.0280049092667067e+00 1.1212353157905998e+03 1.0000000000000000e+00 1.2260818522852574e+01 1.4667840549938974e+01 8.3999798468088201e+01 
853 455 2 1.0280002704960174e+00 1.7246297366338397e+03 1.0000000000000000e+00 1.3177955335022553e+01 1.4058077296422058e+01 8.5820789477189777e+01 
773 375 2 1.0279986835616499e+00 -4.2109391272723747e+02 1.0000000000000000e+00 1.3547355556534930e+01 1.3990800941690592e+01 8.6165159361458308e+01 
456 58 2 1.0279984839312393e+00 7.5978005730085556e+02 1.0000000000000000e+00 1.4305952675803679e+01 1.3824574436213124e+01 8.6919465255095247e+01 
1053 655 2 1.0280024545974658e+00 2.5827504493582110e+03 1.0000000000000000e+00 1.8932138999470972e+01 1.5519000533721734e+01 8.4159801677084303e+01 
1056 658 2 1.0280017173035074e+00 2.5827504314947837e+03 1.0000000000000000e+00 1.9058241613345448e+01 1.5520097726863332e+01 8.4161359401169790e+01 
1552 1154 2 1.0279953564786404e+00 3.0019509246311304e+03 1.0000000000000000e+00 1.8369834428155450e+01 1.5458304659000536e+01 8.4613174208810918e+01 
1549 1151 2 1.0279945392599581e+00 3.0019518671913202e+03 1.0000000000000000e+00 1.9616272241843166e+01 1.5458982982953380e+01 8.4615305372458209e+01 
521 123 2 1.0279922584452810e+00 3.2411532926288180e+02 1.0000000000000000e+00 1.8422916582306513e+01 1.5622537313150827e+01 8.4648042690802527e+01 
524 126 2 1.0279916546848051e+00 3.2411493853800778e+02 1.0000000000000000e+00 1.9563786041729252e+01 1.5620718315866354e+01 8.4649647283638771e+01 
1043 645 2 1.0279988949756267e+00 -4.4210755357230852e+02 1.0000000000000000e+00 1.7567271994072279e+01 1.5237962131483215e+01 8.5465203445748415e+01 
1792 1394 2 1.0279996468468222e+00 1.3467638830799413e+03 1.0000000000000000e+00 1.8205237019410344e+01 1.3578341994171936e+01 8.7483489272945334e+01 
1789 1391 2 1.0279996547481649e+00 1.3467638952324096e+03 1.0000000000000000e+00 1.9783267297257947e+01 1.3577727163382137e+01 8.7481831088160888e+01 
925 527 2 1.0279961879147372e+00 1.7426338538980676e+03 1.0000000000000000e+00 3.9609682965595390e+00 1.8221946647012125e+01 8.5860006310199381e+01 
1429 1031 2 1.0279971421204075e+00 1.7426294762837404e+03 1.0000000000000000e+00 3.9613036733092226e+00 1.9754015785972545e+01 8.5852240486264236e+01 
966 568 2 1.0280013222338793e+00 -1.8323475861119248e+03 1.0000000000000000e+00 3.3260931040498156e+00 1.9233733922914574e+01 8.6728664318508535e+01 
1470 1072 2 1.0279987504576471e+00 -1.8323502660861614e+03 1.0000000000000000e+00 3.3322796989483203e+00 1.8733675852049295e+01 8.6732820241607413e+01 
626 228 2 1.0280045556643094e+00 -2.3725634095553282e+03 1.0000000000000000e+00 3.3563870576751169e+00 1.7929086548275677e+01 8.6740842331085872e+01 
565 167 2 1.0279861816019278e+00 -4.1374255290817600e+03 1.0000000000000000e+00 3.7969322409389141e+00 1.6469691150108535e+01 8.6787236857531866e+01 
813 415 2 1.0280194125868163e+00 1.3590689157444995e+03 1.0000000000000000e+00 2.8929679870092948e+00 1.7355410394264510e+01 8.6992059846525208e+01 
718 320 2 1.0279828865888208e+00 -1.5028457257014324e+02 1.0000000000000000e+00 3.8105005133305010e+00 1.6140481605043146e+01 8.6771103079470393e+01 
893 495 2 1.0280021027304607e+00 -2.0223081133810549e+03 1.0000000000000000e+00 7.9784334919438304e+00 1.6113265523393178e+01 8.3759114798704047e+01 
1450 1052 2 1.0280015780077612e+00 5.1936146530610642e+02 1.0000000000000000e+00 7.0790794840769360e+00 1.8566821444634733e+01 8.3909880490929766e+01 
946 548 2 1.0280010525548771e+00 5.1936131113187457e+02 1.0000000000000000e+00 7.0812087792147187e+00 1.9450182215581812e+01 8.3912108063035404e+01 