LAMMPS data file via write_data, version 30 Jul 2016, timestep = 50400000

567 atoms
2 atom types

0.0000000000000000e+00 2.0000000000000000e+01 xlo xhi
0.0000000000000000e+00 2.0000000000000000e+01 ylo yhi
0.0000000000000000e+00 2.0000000000000000e+01 zlo zhi

Masses

1 3.896
2 4.31

Atoms # meso-molecular

206 1 2 1.0279999999999447e+00 -4.2564681978089681e+01 1.0000000000000000e+00 1.7492760126379125e-01 2.9471345802118241e+00 3.4209747448970313e+00 
479 1 2 1.0280000000001333e+00 -8.2676555873035355e+01 1.0000000000000000e+00 1.7557209051909947e-01 2.9476564022086551e+00 3.4210340985886334e+00 
139 1 2 1.0280000000000311e+00 -7.1416991925057488e+01 1.0000000000000000e+00 1.7545525268741977e-01 2.9476662947529841e+00 3.4210261460239355e+00 
8 1 2 1.0280000000000271e+00 -4.0703057726068664e+01 1.0000000000000000e+00 1.7536968089369998e-01 2.9476567367941753e+00 3.4210198656639950e+00 
561 1 2 1.0280000000001530e+00 -2.3404374036879481e+01 1.0000000000000000e+00 2.4904564834747067e-01 2.9375808714204759e+00 3.4270883285188019e+00 
259 1 2 1.0279999999999270e+00 -5.8501022930612748e+01 1.0000000000000000e+00 1.7223542462249770e+00 2.8559339387224574e+00 4.9560561342704981e+00 
89 1 2 1.0279999999999321e+00 -3.9508360610884985e+01 1.0000000000000000e+00 1.7300058236430296e+00 2.8678015506435401e+00 5.0126856225704728e+00 
442 1 2 1.0280000000000979e+00 -5.8494631147148908e+01 1.0000000000000000e+00 1.7300059215251997e+00 2.8678106640674570e+00 5.0126945497929478e+00 
110 1 2 1.0279999999999461e+00 -7.7909051176550193e+01 1.0000000000000000e+00 1.7300121967376065e+00 2.8685003677346188e+00 5.0133644342943979e+00 
296 1 2 1.0279999999999332e+00 -2.6735900799848110e+01 1.0000000000000000e+00 1.7300086027310595e+00 2.8680737823036742e+00 5.0129515883846025e+00 
431 1 2 1.0280000000001048e+00 -5.4873919361319949e+01 1.0000000000000000e+00 1.9065078266777280e+00 7.1259876976620307e-01 6.5791709409995836e+00 
34 1 2 1.0280000000000959e+00 -9.3230917759452979e+01 1.0000000000000000e+00 3.3120615032893532e+00 7.3058469215305635e-02 5.4280229504134718e+00 
545 1 2 1.0279999999999774e+00 -5.8204594114913867e+01 1.0000000000000000e+00 3.3128395444646044e+00 6.6744701180735347e-02 5.4232396637187881e+00 
358 1 2 1.0280000000001461e+00 -4.9870713454122964e+01 1.0000000000000000e+00 3.3136631613613421e+00 5.8692789672136939e-02 5.4159578611902521e+00 
506 1 2 1.0279999999999418e+00 -8.7353020068454384e+01 1.0000000000000000e+00 6.6507330105627382e-01 5.5179285981051205e+00 5.7629510024468624e+00 
356 1 2 1.0279999999999689e+00 -5.2725252176342721e+01 1.0000000000000000e+00 7.7607895163024088e-01 5.3745487089686366e+00 5.7536195817398648e+00 
355 1 2 1.0279999999999474e+00 -3.2933181337994512e+01 1.0000000000000000e+00 8.3685461843547349e-01 5.2801034237886721e+00 5.7374649026884228e+00 
227 1 2 1.0279999999999201e+00 -4.1698038831939854e+01 1.0000000000000000e+00 2.0932908117797284e+00 1.1115397555249626e+00 7.0721159972460246e+00 
267 1 2 1.0279999999999323e+00 -5.3038315415944666e+01 1.0000000000000000e+00 2.0934127345331355e+00 1.1107589410241556e+00 7.0717805619236005e+00 
391 1 2 1.0279999999997544e+00 -4.7988095630216414e+01 1.0000000000000000e+00 2.0934143215629484e+00 1.1107487756588126e+00 7.0717761940966524e+00 
308 1 2 1.0279999999998330e+00 -5.4423542948000758e+01 1.0000000000000000e+00 2.0929101692927543e+00 1.1139775800883787e+00 7.0731626512755907e+00 
68 1 2 1.0280000000000133e+00 -5.4186397794925540e+01 1.0000000000000000e+00 1.0013363611923392e+00 3.1982145902058350e+00 7.6217767343896776e+00 
528 1 2 1.0280000000000487e+00 -1.0236073895112489e+02 1.0000000000000000e+00 1.0452740478271398e+00 3.2810614077684277e+00 7.8808654076806341e+00 
107 1 2 1.0280000000000238e+00 -2.7915881539002136e+01 1.0000000000000000e+00 1.0375493102379809e+00 3.2886601089007894e+00 7.8876163935375425e+00 
192 1 2 1.0280000000000620e+00 -5.6398864478131586e+01 1.0000000000000000e+00 4.2978652665225718e+00 2.2175700294851377e+00 8.9408091506910736e+00 
457 1 2 1.0280000000000620e+00 -5.3819480596460636e+01 1.0000000000000000e+00 4.2978653679402727e+00 2.2175700733490902e+00 8.9408092698339559e+00 
290 1 2 1.0280000000000815e+00 -2.0140856663023520e+01 1.0000000000000000e+00 4.2978653314103896e+00 2.2175700575574795e+00 8.9408092260527372e+00 
515 1 2 1.0280000000000613e+00 -9.6869317740777461e+01 1.0000000000000000e+00 4.2978649565558236e+00 2.2175698953691190e+00 8.9408087922526072e+00 
103 1 2 1.0280000000000604e+00 -6.2741696345623254e+01 1.0000000000000000e+00 4.2978638229198873e+00 2.2175694048878980e+00 8.9408074788438583e+00 
19 1 2 1.0279999999997738e+00 -8.4139641005948818e+01 1.0000000000000000e+00 5.9933359529380317e+00 2.9507320564905188e+00 8.3183031866666521e+00 
201 1 2 1.0280000000000062e+00 -3.1315726225013087e+01 1.0000000000000000e+00 5.9935819309050702e+00 2.9508626920225058e+00 8.3181950895709207e+00 
226 1 2 1.0279999999995613e+00 -4.0361691839266509e+00 1.0000000000000000e+00 6.3772011318306339e+00 3.1473852914026206e+00 8.1262499005897357e+00 
249 1 2 1.0279999999999072e+00 -3.7938951396065335e+01 1.0000000000000000e+00 2.1385899763520153e+00 5.2302532735943457e+00 7.3561048500236286e+00 
527 1 2 1.0279999999998031e+00 -2.0217809421986935e+01 1.0000000000000000e+00 2.1217362818677348e+00 5.2807213801637385e+00 7.6397167127856456e+00 
169 1 2 1.0279999999998450e+00 -4.4279807860332340e+01 1.0000000000000000e+00 7.1396773611459102e-02 5.6677043344831777e+00 8.9432801891397116e+00 
142 1 2 1.0279999999999456e+00 -4.1389884366846189e+01 1.0000000000000000e+00 2.1216913996397664e+00 5.2807747178412408e+00 7.6400793060402865e+00 
354 1 2 1.0279999999999294e+00 -5.0507697806956358e+01 1.0000000000000000e+00 2.1294105696076375e+00 5.2642855571215739e+00 7.6456902695139179e+00 
16 1 2 1.0280000000001788e+00 -4.6857251155575028e+01 1.0000000000000000e+00 2.1218281336322997e+00 5.2806123690535820e+00 7.6389690811094670e+00 
221 1 2 1.0279999999999656e+00 -3.8099941292946625e+01 1.0000000000000000e+00 7.5889748537610768e-01 3.4506355216963596e+00 7.7931013767479156e+00 
150 1 2 1.0280000000000091e+00 -9.5265167456158892e+01 1.0000000000000000e+00 2.5924463175960386e+00 5.4222224985412559e-01 1.2676321981484815e+01 
148 1 2 1.0279999999997520e+00 -2.4328510604460682e+01 1.0000000000000000e+00 2.8202484753071007e+00 5.4164890877827221e-01 1.2596957405364636e+01 
188 1 2 1.0280000000001077e+00 -3.8988800599063524e+01 1.0000000000000000e+00 1.9731125631884772e+00 1.5457659136564315e+00 1.0182531069323593e+01 
291 1 2 1.0279999999998073e+00 -3.0257499507725363e+01 1.0000000000000000e+00 1.9156318279029036e+00 1.5179057784754062e+00 1.0143889473842451e+01 
456 1 2 1.0279999999997824e+00 -7.6183443668086454e+01 1.0000000000000000e+00 1.9153566755136309e+00 1.5177283067305556e+00 1.0143674965463093e+01 
497 1 2 1.0279999999999656e+00 -1.2898343890038757e+02 1.0000000000000000e+00 1.9076414239986601e+00 1.5125907823332783e+00 1.0137541199335800e+01 
109 1 2 1.0280000000000764e+00 -6.1655170824538573e+01 1.0000000000000000e+00 1.9074325463404567e+00 1.5133698677959415e+00 1.0137334726945356e+01 
498 1 2 1.0280000000002147e+00 -6.0316859098319824e+01 1.0000000000000000e+00 4.6440530045539514e+00 7.8024368387506926e-01 1.2922624434396072e+01 
446 1 2 1.0280000000000857e+00 -2.7056763906684658e+01 1.0000000000000000e+00 4.6448786529425456e+00 7.7723391547039622e-01 1.2915988312716133e+01 
261 1 2 1.0279999999998961e+00 -3.4164005316477002e+01 1.0000000000000000e+00 4.4546955828644226e+00 5.3426646446012571e-01 1.3329965752275754e+01 
328 1 2 1.0280000000000444e+00 -2.1704597601029441e+01 1.0000000000000000e+00 5.5046907996868466e+00 2.6231810510912581e+00 1.2705704016913781e+01 
66 1 2 1.0280000000000606e+00 -8.9827871615512692e+01 1.0000000000000000e+00 5.5243152464013479e+00 2.7089652341674557e+00 1.2622226676051406e+01 
359 1 2 1.0280000000001590e+00 -3.0811930609853409e+01 1.0000000000000000e+00 5.8022299945403306e+00 2.2247079537642209e+00 1.2800755651423325e+01 
102 1 2 1.0280000000000196e+00 -6.0213337790917613e+01 1.0000000000000000e+00 6.1758711391300434e+00 2.9816376813731647e+00 1.2261617720831621e+01 
316 1 2 1.0280000000000591e+00 -4.0067355359450893e+01 1.0000000000000000e+00 6.1766417233480118e+00 2.9806340398508029e+00 1.2261863301463862e+01 
159 1 2 1.0280000000000200e+00 -3.8552255934308711e+01 1.0000000000000000e+00 6.1766417284594812e+00 2.9806340330972616e+00 1.2261863303216838e+01 
362 1 2 1.0280000000000546e+00 -1.6786696363174855e+01 1.0000000000000000e+00 6.1766417276909058e+00 2.9806340341313353e+00 1.2261863302917016e+01 
346 1 2 1.0280000000000120e+00 -2.7794379386232073e+01 1.0000000000000000e+00 4.4963333672913883e+00 1.3417010917519739e-01 1.3233899118196568e+01 
47 1 2 1.0279999999999425e+00 -5.7043137331907992e+01 1.0000000000000000e+00 1.6763528897513635e+00 4.8663150572743161e+00 1.0675496964727756e+01 
423 1 2 1.0279999999999903e+00 -1.0539204730890583e+02 1.0000000000000000e+00 1.1233189570426845e+00 4.8781845335148919e+00 1.0643623245497734e+01 
443 1 2 1.0279999999999627e+00 -3.7056251228954395e+01 1.0000000000000000e+00 1.1233418724213851e+00 4.8781843804086416e+00 1.0643637025629923e+01 
140 1 2 1.0279999999999387e+00 -3.9086857535367002e+01 1.0000000000000000e+00 1.1233189858015868e+00 4.8781845335015053e+00 1.0643623262671335e+01 
269 1 2 1.0279999999999974e+00 -4.0109871750329368e+01 1.0000000000000000e+00 1.0305196879384406e+00 4.8432650446693941e+00 1.0600092637267604e+01 
522 1 2 1.0279999999998763e+00 -6.9358242486662888e+01 1.0000000000000000e+00 2.1927597155851823e+00 3.8007153225794221e+00 1.0554500880888153e+01 
224 1 2 1.0279999999999641e+00 -2.3565090890989982e+01 1.0000000000000000e+00 2.1927592726610041e+00 3.8006910492226784e+00 1.0554503314030953e+01 
96 1 2 1.0279999999998857e+00 -4.6715095965013603e+01 1.0000000000000000e+00 2.1922285241056372e+00 3.8170653003091108e+00 1.0554036944245523e+01 
386 1 2 1.0279999999999923e+00 -4.8999797692145535e+01 1.0000000000000000e+00 5.0557739563703596e-01 9.8902727995460005e+00 1.1598533789229844e+01 
124 1 2 1.0279999999998850e+00 -7.3956251245001681e+01 1.0000000000000000e+00 5.0590299499028391e-01 9.8901727923023888e+00 1.1598185530684038e+01 
263 1 2 1.0280000000000484e+00 -6.4235418046809016e+01 1.0000000000000000e+00 5.0607691058596049e-01 9.8901192545320757e+00 1.1597999068772138e+01 
82 1 2 1.0280000000000735e+00 -4.0734268732260674e+01 1.0000000000000000e+00 5.0612928730085327e-01 9.8901031330344598e+00 1.1597942884728175e+01 
397 1 2 1.0279999999998917e+00 -3.0993712864003342e+01 1.0000000000000000e+00 2.5081744385445797e+00 9.3763827892825287e+00 1.0852289124598222e+01 
512 1 2 1.0280000000000231e+00 -4.1434072982726278e+01 1.0000000000000000e+00 2.7220802638055557e+00 9.4819930171556877e+00 1.1354786836151318e+01 
511 1 2 1.0280000000000729e+00 -6.6022193397738661e+01 1.0000000000000000e+00 2.7220783319312352e+00 9.4819929512325238e+00 1.1354786065195890e+01 
532 1 2 1.0279999999998568e+00 -7.7441306007290962e+01 1.0000000000000000e+00 3.8966865528877022e+00 8.9846934519655868e+00 1.0957377056520372e+01 
394 1 2 1.0279999999999152e+00 -3.9475044958454021e+01 1.0000000000000000e+00 4.3892203211310541e+00 9.1662241738070804e+00 1.0301269016380795e+01 
44 1 2 1.0279999999999427e+00 -1.0186591032149676e+02 1.0000000000000000e+00 4.3892387612604455e+00 9.1662607036866408e+00 1.0301221489649206e+01 
45 1 2 1.0279999999999501e+00 -1.2448097924745340e+02 1.0000000000000000e+00 4.3892419796916142e+00 9.1662670506026966e+00 1.0301213259288181e+01 
398 1 2 1.0279999999999772e+00 -5.1936258277020876e+01 1.0000000000000000e+00 4.3892428250147288e+00 9.1662687150452182e+00 1.0301211103323658e+01 
99 1 2 1.0280000000001512e+00 -5.0545236578448097e+01 1.0000000000000000e+00 1.8062238944616515e+00 6.9490901863944310e-01 1.3975801332378717e+01 
408 1 2 1.0279999999999441e+00 -2.0819257850081598e+01 1.0000000000000000e+00 2.3986529248479127e+00 6.0569468785974945e-01 1.4777922506732878e+01 
466 1 2 1.0279999999999596e+00 -4.1196177238774297e+01 1.0000000000000000e+00 2.5405970391114114e+00 1.3125137658982222e+00 1.4412079231387859e+01 
543 1 2 1.0280000000001108e+00 -6.5690198723303510e+01 1.0000000000000000e+00 2.5479825228676112e+00 1.3171138183762205e+00 1.4408411211373570e+01 
21 1 2 1.0279999999999718e+00 -9.0349890694218828e+01 1.0000000000000000e+00 2.5442647698811451e+00 1.3148235721242869e+00 1.4410242105296769e+01 
427 1 2 1.0279999999999545e+00 -3.9894747551237671e+01 1.0000000000000000e+00 2.5441596425901842e+00 1.3147578916890224e+00 1.4410294571780302e+01 
185 1 2 1.0280000000001963e+00 -3.5214078619771904e+01 1.0000000000000000e+00 7.7839809045390995e-01 1.4828078224400747e+01 3.7508286908297435e+00 
338 1 2 1.0280000000000189e+00 -3.1169233276263906e+01 1.0000000000000000e+00 1.9628283919075015e-01 1.4327282882811447e+01 4.0230784988213442e+00 
334 1 2 1.0280000000000020e+00 -5.3358964375112500e+01 1.0000000000000000e+00 1.9628067163893095e-01 1.4327282669120473e+01 4.0230803651645148e+00 
247 1 2 1.0280000000000573e+00 -4.7031993457036265e+01 1.0000000000000000e+00 1.9628283721566533e-01 1.4327282882455115e+01 4.0230785006248801e+00 
7 1 2 1.0280000000002372e+00 -3.7529349483010726e+01 1.0000000000000000e+00 1.9628177509023809e-01 1.4327282757468746e+01 4.0230794280478550e+00 
505 1 2 1.0280000000000629e+00 -1.0540428919749809e+02 1.0000000000000000e+00 1.3353062585386988e+00 1.4142409904142783e+01 5.3752920015683063e+00 
454 1 2 1.0279999999998655e+00 -2.3023540213280725e+01 1.0000000000000000e+00 5.8996532374765362e-02 1.5691002173123010e+01 5.4839860248408669e+00 
156 1 2 1.0280000000000538e+00 -6.8934773855113107e+01 1.0000000000000000e+00 7.5090815409441902e-02 1.5706487023307307e+01 5.5039327133685667e+00 
13 1 2 1.0279999999999505e+00 -5.1753969050663159e+01 1.0000000000000000e+00 7.5675761290304858e-02 1.5707091112172968e+01 5.5045922210322740e+00 
2 1 2 1.0280000000002196e+00 -3.3169003100614752e+01 1.0000000000000000e+00 1.4943531945664250e+00 1.4253167208006884e+01 5.4206760709950785e+00 
133 1 2 1.0279999999999823e+00 -3.7577266112144500e+01 1.0000000000000000e+00 2.3147027422365269e+00 1.5095434608578199e+01 4.7033020550006812e+00 
154 1 2 1.0280000000001450e+00 -4.7002912043941748e+01 1.0000000000000000e+00 2.3175506451929277e+00 1.5085769640899402e+01 4.7118042102037210e+00 
288 1 2 1.0280000000001863e+00 -5.8942667450545684e+01 1.0000000000000000e+00 2.3868360385773109e+00 1.5023112073773168e+01 4.8872859327939029e+00 
518 1 2 1.0279999999996987e+00 -2.9936145737750714e+01 1.0000000000000000e+00 3.2467278500998376e+00 1.6665066930109660e+01 5.4278309758363177e+00 
341 1 2 1.0279999999999418e+00 -4.8040903226563984e+01 1.0000000000000000e+00 3.8688937755292940e+00 1.6089787166672668e+01 5.6225396544899136e+00 
39 1 2 1.0280000000000271e+00 -5.5060192709451712e+01 1.0000000000000000e+00 3.8690195454336127e+00 1.6089923664590451e+01 5.6226221910273386e+00 
214 1 2 1.0279999999999556e+00 -2.8258628724461182e+01 1.0000000000000000e+00 5.5616921764249296e+00 1.4019909580164859e+01 6.2557867687833930e+00 
516 1 2 1.0279999999998330e+00 -8.3705961347865340e+01 1.0000000000000000e+00 5.5842033613486555e+00 1.3978447303609492e+01 6.2595314421833601e+00 
504 1 2 1.0279999999998473e+00 -6.3231681724774262e+01 1.0000000000000000e+00 5.5912708620805320e+00 1.3966182682171310e+01 6.2595402405719689e+00 
517 1 2 1.0279999999999221e+00 -2.7918275580979266e+01 1.0000000000000000e+00 5.5918508068453923e+00 1.3965180836300428e+01 6.2595437713212947e+00 
29 1 2 1.0279999999998390e+00 -1.1136861284537761e+02 1.0000000000000000e+00 3.2484156327577756e+00 1.6668812935811545e+01 5.4311327789027022e+00 
191 1 2 1.0279999999998797e+00 -3.6807840505040453e+01 1.0000000000000000e+00 6.5329326662452158e-01 1.9715148858553686e+01 3.6102667733308249e+00 
492 1 2 1.0279999999998124e+00 -4.9889817276733609e+01 1.0000000000000000e+00 6.5369114318669419e-01 1.9714227172457853e+01 3.6087878999173517e+00 
486 1 2 1.0279999999997922e+00 -3.0305738642506732e+01 1.0000000000000000e+00 6.5407445907133488e-01 1.9713317622678158e+01 3.6073466300030037e+00 
554 1 2 1.0279999999998297e+00 -5.4358143876923059e+01 1.0000000000000000e+00 6.5423967321605370e-01 1.9712910327278269e+01 3.6067107019482498e+00 
475 1 2 1.0280000000000105e+00 -5.9001110820980941e+01 1.0000000000000000e+00 2.5573217505086001e+00 1.8462141633334717e+01 3.9428463984320494e+00 
363 1 2 1.0280000000001561e+00 -5.6436691215620414e+01 1.0000000000000000e+00 2.5573220139901434e+00 1.8462117431133731e+01 3.9428649587584137e+00 
379 1 2 1.0280000000000016e+00 -5.7064602025705810e+01 1.0000000000000000e+00 2.5573216294187331e+00 1.8462148779227356e+01 3.9428408847734788e+00 
168 1 2 1.0280000000000140e+00 -3.5543214605847325e+01 1.0000000000000000e+00 2.5573214897845871e+00 1.8462154766201017e+01 3.9428362356159012e+00 
503 1 2 1.0279999999999594e+00 -4.8337588144111216e+01 1.0000000000000000e+00 6.7513136555519715e-01 1.9872011483229144e+01 4.0996018430269379e+00 
22 1 2 1.0280000000002796e+00 -4.3985013858637693e+01 1.0000000000000000e+00 5.1274193609643726e-01 1.8394807546547760e+01 4.1349811863237464e+00 
208 1 2 1.0280000000001703e+00 -4.1455788954794386e+01 1.0000000000000000e+00 5.0812455615936103e-01 1.8402849499632371e+01 4.1243875691947984e+00 
132 1 2 1.0279999999996767e+00 -4.8234270299032076e+01 1.0000000000000000e+00 3.2726437220069160e+00 1.9601736267109839e+01 5.7083946797048029e+00 
114 1 2 1.0280000000002465e+00 -5.5630952112294601e+01 1.0000000000000000e+00 3.3191166596783002e+00 1.9972325357470059e+01 5.3223993448598801e+00 
304 1 2 1.0280000000000213e+00 -1.7382216361614915e+01 1.0000000000000000e+00 3.4098632365554753e+00 1.7137599305538565e+01 6.1676422134054594e+00 
310 1 2 1.0280000000000580e+00 -4.4846785072843730e+01 1.0000000000000000e+00 1.9464606768049217e+00 1.3208080737751175e+01 8.7794761103031842e+00 
236 1 2 1.0279999999995115e+00 -3.0330346899528323e+01 1.0000000000000000e+00 2.2198045703317018e+00 1.2652117390233919e+01 9.8964904253838757e+00 
371 1 2 1.0280000000001099e+00 -3.5156014506057659e+01 1.0000000000000000e+00 6.4615718158807809e+00 1.1200556450101477e+01 8.3282474291217614e+00 
470 1 2 1.0280000000000828e+00 -4.4100142480491023e+01 1.0000000000000000e+00 6.4581445795756176e+00 1.1199884270778119e+01 8.3321400137987407e+00 
130 1 2 1.0280000000000407e+00 -3.6292029972728812e+01 1.0000000000000000e+00 6.4663417279642292e+00 1.1199400304148275e+01 8.3227783537650435e+00 
207 1 2 1.0279999999999416e+00 -4.4681438979302541e+01 1.0000000000000000e+00 6.4581398942757389e+00 1.1199887996398308e+01 8.3321454400449664e+00 
178 1 2 1.0280000000001082e+00 -6.0775272551162857e+01 1.0000000000000000e+00 1.2694467884642315e+00 1.3525449576939037e+01 8.2450379454719513e+00 
417 1 2 1.0279999999996114e+00 -3.9492235395998122e+01 1.0000000000000000e+00 9.2904102905738439e-01 1.3610919852591946e+01 8.1644323871322122e+00 
329 1 2 1.0279999999994933e+00 -4.2135642107113497e+01 1.0000000000000000e+00 9.4344641821443043e-01 1.3603948593112783e+01 8.1730584691772670e+00 
531 1 2 1.0280000000002469e+00 -1.5273455707785150e+01 1.0000000000000000e+00 2.4778632619288712e+00 1.3658148591229352e+01 9.2438701157057430e+00 
64 1 2 1.0280000000005154e+00 -7.6857683872890902e+01 1.0000000000000000e+00 3.7246771984302918e-01 1.4298607077990555e+01 7.4892832895433328e+00 
233 1 2 1.0279999999997538e+00 -2.4200411360149388e+01 1.0000000000000000e+00 7.2478285470394521e-01 1.5128726187282478e+01 9.2163822928820167e+00 
372 1 2 1.0279999999998790e+00 -1.6171379086840595e+01 1.0000000000000000e+00 2.4564200964037535e+00 1.4335233401115342e+01 9.2691466434435270e+00 
375 1 2 1.0280000000000860e+00 -3.9169379825043137e+01 1.0000000000000000e+00 2.4812093483591799e+00 1.3740248135028711e+01 9.2421290109893182e+00 
361 1 2 1.0280000000002107e+00 -4.2011430312186263e+01 1.0000000000000000e+00 2.4965908382559681e+00 1.6248427103751709e+01 7.7765060432358988e+00 
250 1 2 1.0280000000000911e+00 -6.3159837077936999e+01 1.0000000000000000e+00 2.5000978940792851e+00 1.6253189959067651e+01 7.7840961547340184e+00 
414 1 2 1.0280000000002865e+00 -3.6196090836084885e+01 1.0000000000000000e+00 2.5007252283192312e+00 1.6253992639700858e+01 7.7853700976129003e+00 
86 1 2 1.0280000000002105e+00 -3.0262361936374596e+01 1.0000000000000000e+00 2.5029447806228786e+00 1.6256935064902482e+01 7.7900070265239112e+00 
63 1 2 1.0279999999998559e+00 -5.4729829838232249e+01 1.0000000000000000e+00 5.1873885486098974e+00 1.5285862351881264e+01 6.9966188012334367e+00 
265 1 2 1.0280000000000957e+00 -4.0402142035883216e+01 1.0000000000000000e+00 5.4713960598666400e+00 1.5849654492735052e+01 7.2203930322337628e+00 
565 1 2 1.0280000000000298e+00 -7.8184331780937427e+01 1.0000000000000000e+00 5.5168605127202532e+00 1.5965988502601638e+01 7.2950333190766017e+00 
418 1 2 1.0280000000000273e+00 -4.9236553035807468e+01 1.0000000000000000e+00 5.5177069083325891e+00 1.5967954969700132e+01 7.2963971740657882e+00 
380 1 2 1.0280000000000304e+00 -3.8625920910299790e+01 1.0000000000000000e+00 5.8550221030935417e+00 1.6428072443300607e+01 9.9040704110153062e+00 
445 1 2 1.0280000000000240e+00 -5.4039300828327825e+01 1.0000000000000000e+00 5.8986498257828792e+00 1.6419497870141523e+01 9.9331856752618428e+00 
276 1 2 1.0280000000000238e+00 -2.1385842140190672e+01 1.0000000000000000e+00 5.8986581970806551e+00 1.6419496935244997e+01 9.9331913164846579e+00 
26 1 2 1.0279999999999487e+00 -3.6389562047459464e+01 1.0000000000000000e+00 5.8986499977835152e+00 1.6419497883981109e+01 9.9331857651133184e+00 
97 1 2 1.0279999999999454e+00 -3.7088711607433723e+01 1.0000000000000000e+00 5.8986549025499748e+00 1.6419497428197172e+01 9.9331889977926267e+00 
533 1 2 1.0279999999999729e+00 -3.4964524205839638e+01 1.0000000000000000e+00 5.8986499874654328e+00 1.6419497188996228e+01 9.9331863069330346e+00 
318 1 2 1.0279999999999432e+00 -5.6984455850262265e+01 1.0000000000000000e+00 5.2822456161737308e-01 1.7997547392541772e+01 7.4411295691104176e+00 
115 1 2 1.0279999999999994e+00 -7.6855827398327691e+01 1.0000000000000000e+00 5.3560605760228319e-01 1.7997645789148958e+01 7.4469327683748681e+00 
377 1 2 1.0280000000003306e+00 -3.5049650425816125e+01 1.0000000000000000e+00 9.2605109682944539e-02 1.7083590442884628e+01 9.9833696374815126e+00 
384 1 2 1.0280000000001948e+00 -3.6607865186527349e+01 1.0000000000000000e+00 7.0249635103062469e-01 1.8010263286805536e+01 7.5568592439839017e+00 
426 1 2 1.0280000000001273e+00 -5.4158759533620440e+01 1.0000000000000000e+00 2.3155423484842537e+00 1.8932877714959766e+01 9.0392521212840791e+00 
550 1 2 1.0280000000000533e+00 -8.4011590345083562e+01 1.0000000000000000e+00 2.3752725642835002e+00 1.8839862518980606e+01 9.1548589817445567e+00 
129 1 2 1.0280000000000162e+00 -5.2398886132013672e+01 1.0000000000000000e+00 2.3760336384542176e+00 1.8838287276839999e+01 9.1566220242501704e+00 
392 1 2 1.0280000000001552e+00 -2.7720990105528102e+01 1.0000000000000000e+00 2.4741887644367129e+00 1.8112678642814494e+01 9.6558765812443514e+00 
364 1 2 1.0279999999997709e+00 -4.9176098697140731e+01 1.0000000000000000e+00 2.8106232680094179e+00 1.7059607585042315e+01 8.2925232587389406e+00 
46 1 2 1.0279999999997966e+00 -7.5765588530960002e+01 1.0000000000000000e+00 6.5702446899680593e+00 1.8252749612608596e+01 7.1745195555718579e+00 
175 1 2 1.0280000000000054e+00 -3.5483106113716701e+01 1.0000000000000000e+00 4.5898994695390476e+00 1.8501083610437693e+01 8.2392997761711122e+00 
278 1 2 1.0280000000001446e+00 -2.6489293998696038e+01 1.0000000000000000e+00 5.1934022757851519e+00 1.9816777629489955e+01 8.7982287536989521e+00 
555 1 2 1.0280000000001350e+00 -8.8477033266257138e+01 1.0000000000000000e+00 5.1925253098796373e+00 1.9814370186859797e+01 8.8000089932332948e+00 
551 1 2 1.0280000000001011e+00 -6.8080075227110925e+01 1.0000000000000000e+00 5.7900597532356617e+00 1.7768197355950964e+01 7.0917269237595457e+00 
382 1 2 1.0280000000000367e+00 -5.1908605844715268e+01 1.0000000000000000e+00 5.1911587531501198e+00 1.9815761331661619e+01 8.8000139220425773e+00 
199 1 2 1.0280000000000271e+00 -1.2934210489486892e+02 1.0000000000000000e+00 6.2718809219864315e+00 1.8207078851297073e+01 7.1227921237703749e+00 
343 1 2 1.0280000000001981e+00 -4.6282563699658063e+01 1.0000000000000000e+00 5.1913555336595314e+00 1.9815674140818150e+01 8.7999526455807970e+00 
302 1 2 1.0279999999999672e+00 -4.1371757663115403e+01 1.0000000000000000e+00 6.4843812686141664e+00 1.8180387422593334e+01 7.1658219786001274e+00 
370 1 2 1.0279999999999945e+00 -4.2737741864227203e+01 1.0000000000000000e+00 5.1925593185082661e+00 1.9814421099520413e+01 8.7999630651627729e+00 
257 1 2 1.0280000000000287e+00 -1.2554504735722382e+01 1.0000000000000000e+00 4.6924924046939269e+00 1.8000367071519886e+01 7.7428627921817492e+00 
488 1 2 1.0280000000000353e+00 -7.3245780435020109e+01 1.0000000000000000e+00 2.3657665731444433e+00 1.1417902732760373e+01 1.0726582312184453e+01 
509 1 2 1.0280000000000773e+00 -1.0440141659018613e+02 1.0000000000000000e+00 2.3657622305356147e+00 1.1418289381724648e+01 1.0725639024117021e+01 
525 1 2 1.0280000000001785e+00 -9.5540309315736664e+01 1.0000000000000000e+00 2.3661653861167360e+00 1.1420157806704331e+01 1.0722007634438041e+01 
396 1 2 1.0279999999999769e+00 -5.1471972347117052e+01 1.0000000000000000e+00 2.9758983097953413e+00 1.1710984003036195e+01 1.0171726354823791e+01 
189 1 2 1.0280000000001230e+00 -2.3785601218865821e+01 1.0000000000000000e+00 4.3991137602411046e+00 1.1025763690335253e+01 1.0354085218036690e+01 
478 1 2 1.0279999999999103e+00 -4.2852368024103328e+01 1.0000000000000000e+00 4.3996183524747128e+00 1.1025282825331050e+01 1.0354005156641954e+01 
160 1 2 1.0280000000000187e+00 -4.3468151216835267e+01 1.0000000000000000e+00 4.3996202539171110e+00 1.1025281012516427e+01 1.0354004854989219e+01 
246 1 2 1.0280000000000831e+00 -5.5063801802060240e+01 1.0000000000000000e+00 6.3265742621007988e+00 1.3165600123752663e+01 1.0163030078990351e+01 
253 1 2 1.0280000000001246e+00 -5.9421713033225402e+01 1.0000000000000000e+00 6.3495776307136458e+00 1.3163250103573462e+01 1.0157846302944154e+01 
381 1 2 1.0280000000001186e+00 -5.8141294670046463e+01 1.0000000000000000e+00 6.3494445688052608e+00 1.3163157478401269e+01 1.0157736243261413e+01 
352 1 2 1.0280000000001308e+00 -5.1814146295125695e+01 1.0000000000000000e+00 6.3491772281714738e+00 1.3163015492058916e+01 1.0157569544774606e+01 
9 1 2 1.0280000000000848e+00 -5.3453077138514004e+01 1.0000000000000000e+00 6.3491798099683958e+00 1.3163016833797235e+01 1.0157571117154482e+01 
56 1 2 1.0280000000000977e+00 -7.3100787684803322e+01 1.0000000000000000e+00 6.3423944570549500e+00 1.3161955342496206e+01 1.0156596365757006e+01 
222 1 2 1.0279999999999176e+00 -1.6991577282819501e+00 1.0000000000000000e+00 1.4876283192321660e+00 1.5545733972109193e+01 1.3074156839130278e+01 
119 1 2 1.0280000000000313e+00 -4.9597509154704923e+01 1.0000000000000000e+00 2.0655273153546356e+00 1.4400232304279299e+01 1.1912909804289574e+01 
128 1 2 1.0279999999999876e+00 -4.6672584681936854e+01 1.0000000000000000e+00 2.0646958181993429e+00 1.4399936156918525e+01 1.1912257661211605e+01 
403 1 2 1.0279999999998672e+00 -3.8717811276408831e+01 1.0000000000000000e+00 2.0646643107581744e+00 1.4399924976118456e+01 1.1912232960580802e+01 
268 1 2 1.0280000000000826e+00 -5.6742315017889077e+01 1.0000000000000000e+00 2.0646902264962184e+00 1.4399934172607933e+01 1.1912253277814649e+01 
387 1 2 1.0279999999998504e+00 -8.1538798608006118e+01 1.0000000000000000e+00 2.0647169931867477e+00 1.4399943672873830e+01 1.1912274262161510e+01 
536 1 2 1.0280000000003540e+00 -6.9101999504481597e+01 1.0000000000000000e+00 1.9100529425840760e+00 1.6064442410425130e+01 1.0767446740496679e+01 
337 1 2 1.0280000000000113e+00 -3.6992737348305965e+01 1.0000000000000000e+00 2.2246759117172670e+00 1.5893476091795893e+01 1.0663257984368032e+01 
105 1 2 1.0279999999999625e+00 -6.5475143819794212e+01 1.0000000000000000e+00 3.1260644520969056e+00 1.6225006833472531e+01 1.1378311890362733e+01 
513 1 2 1.0280000000000036e+00 -2.8373546822345070e+01 1.0000000000000000e+00 3.7834760921117141e+00 1.6495869355181711e+01 1.1829736395171977e+01 
95 1 2 1.0280000000002338e+00 -5.1341457759680765e+01 1.0000000000000000e+00 4.8956513747995594e+00 1.6100089530643622e+01 1.2490885138770818e+01 
209 1 2 1.0279999999995655e+00 -3.9961199657761327e+01 1.0000000000000000e+00 5.0340999203787886e+00 1.5515369366615161e+01 1.2474300992096188e+01 
451 1 2 1.0280000000000085e+00 -6.4866194351240395e+01 1.0000000000000000e+00 5.4914020454569554e+00 1.4614833186722750e+01 1.3046824085227328e+01 
1 1 2 1.0280000000000062e+00 -9.1650855619856287e+01 1.0000000000000000e+00 5.4913815435900171e+00 1.4614864384801558e+01 1.3046802812398900e+01 
20 1 2 1.0279999999998828e+00 -7.1275812120032242e+01 1.0000000000000000e+00 5.4913867265757323e+00 1.4614856501739883e+01 1.3046808191850797e+01 
434 1 2 1.0279999999999889e+00 -3.6247642584012581e+01 1.0000000000000000e+00 5.5827614308818800e+00 1.5767656957075657e+01 1.2885937255667606e+01 
284 1 2 1.0279999999998422e+00 -4.0951393637921804e+01 1.0000000000000000e+00 1.9451050419312221e-01 1.6683581514481123e+01 1.2284608375574418e+01 
55 1 2 1.0280000000000475e+00 -6.6708419628802233e+01 1.0000000000000000e+00 1.5463607491556999e+00 1.8215795231835862e+01 1.1500073477950119e+01 
193 1 2 1.0279999999999423e+00 -4.0216559494157522e+01 1.0000000000000000e+00 1.9871611606689847e+00 1.8867149632131586e+01 1.2777698794322916e+01 
49 1 2 1.0280000000000513e+00 -6.1008643485640150e+01 1.0000000000000000e+00 2.5073379903212580e+00 1.7442779283911353e+01 1.1592268816606227e+01 
141 1 2 1.0279999999997806e+00 -7.2568562757605719e+01 1.0000000000000000e+00 9.4200174570686923e-01 1.9424505039453095e+01 1.0118092670901063e+01 