LAMMPS data file via write_data, version 30 Jul 2016, timestep = 50000000

567 atoms
2 atom types

0.0000000000000000e+00 2.0000000000000000e+01 xlo xhi
0.0000000000000000e+00 2.0000000000000000e+01 ylo yhi
0.0000000000000000e+00 2.0000000000000000e+01 zlo zhi

Masses

1 3.896
2 4.31

Atoms # meso-molecular

27 1 2 1.0280000000007841e+00 -6.3218561639473265e+01 1.0000000000000000e+00 6.1856475115531113e+00 6.3229540753763613e+00 1.5279791282201474e-01 
448 1 2 1.0279999999998992e+00 -6.1567848222363608e+01 1.0000000000000000e+00 1.2262396648721745e+00 9.6120643437535627e+00 6.9579819843618740e-01 
151 1 2 1.0279999999999012e+00 -4.1667792813847456e+01 1.0000000000000000e+00 1.2262397453812224e+00 9.6120648234823829e+00 6.9579799130283571e-01 
283 1 2 1.0279999999999125e+00 -3.6898727398276350e+01 1.0000000000000000e+00 1.2262321933395366e+00 9.6120283962991611e+00 6.9580231937989945e-01 
490 1 2 1.0279999999999012e+00 -5.3751934975707705e+01 1.0000000000000000e+00 1.2262396654635324e+00 9.6120643463205955e+00 6.9579819859251690e-01 
440 1 2 1.0279999999999014e+00 -5.1705533029806887e+01 1.0000000000000000e+00 1.2262396666359232e+00 9.6120643517764766e+00 6.9579819826004419e-01 
367 1 2 1.0279999999999123e+00 -3.5972288541481390e+01 1.0000000000000000e+00 1.2262396665871134e+00 9.6120643516171516e+00 6.9579819815304833e-01 
433 1 2 1.0279999999998986e+00 -4.2545572452578696e+01 1.0000000000000000e+00 1.2262396655240211e+00 9.6120643465340194e+00 6.9579819869527892e-01 
122 1 2 1.0280000000003473e+00 -2.1921430596317293e+01 1.0000000000000000e+00 4.4799923475655126e+00 8.8873884408284436e+00 2.0768730702443157e+00 
271 1 2 1.0279999999998921e+00 -7.9672784363983681e+01 1.0000000000000000e+00 5.0445477277688635e+00 8.3530384383080616e+00 2.4600022513855007e+00 
326 1 2 1.0279999999998257e+00 -4.0810507783175098e+01 1.0000000000000000e+00 5.0513543443587459e+00 8.3272933158775988e+00 2.4435519542542701e+00 
539 1 2 1.0280000000000764e+00 -5.6523037773216089e+01 1.0000000000000000e+00 5.0513531849999129e+00 8.3273552123810628e+00 2.4436019596035705e+00 
314 1 2 1.0280000000001572e+00 -8.6818742269870995e+01 1.0000000000000000e+00 5.6142692747809857e+00 7.8118462498383243e+00 1.7498718191707656e+00 
121 1 2 1.0279999999997438e+00 -5.1002894509463076e+01 1.0000000000000000e+00 5.8411748815088735e+00 8.5621776019733602e+00 2.7081086924677940e+00 
210 1 2 1.0280000000002647e+00 -2.9543750849124603e+01 1.0000000000000000e+00 4.2635525309191831e+00 9.1109011200072416e+00 5.2710835039355752e-01 
342 1 2 1.0280000000004101e+00 -5.0723324329961457e+01 1.0000000000000000e+00 4.2635525273312904e+00 9.1109010940795567e+00 5.2710834342348856e-01 
172 1 2 1.0280000000001663e+00 -5.6290619510636773e+01 1.0000000000000000e+00 4.2635519987788157e+00 9.1108972704680191e+00 5.2710731403948097e-01 
93 1 2 1.0279999999999661e+00 -8.7405304789310520e+01 1.0000000000000000e+00 6.4673090236256172e+00 6.8497339966550621e+00 3.6416571950950727e-01 
333 1 2 1.0279999999998324e+00 -2.3892146628703159e+01 1.0000000000000000e+00 6.5767756694577812e+00 9.1906369666078511e+00 1.7954237134871993e+00 
244 1 2 1.0280000000000364e+00 -4.9588452715848732e+01 1.0000000000000000e+00 1.8972280029433153e+00 6.3427957286663847e+00 1.6251230623133999e+01 
332 1 2 1.0279999999998832e+00 -4.3523924888326576e+01 1.0000000000000000e+00 1.8973049376926803e+00 6.3448502578550459e+00 1.6250008087932223e+01 
32 1 2 1.0279999999998470e+00 -5.2671023215990687e+01 1.0000000000000000e+00 1.8984227969200269e+00 6.3517272773703954e+00 1.6245873684389615e+01 
153 1 2 1.0279999999998892e+00 -2.1055285624294257e+01 1.0000000000000000e+00 1.8994086667459320e+00 6.3531758167667505e+00 1.6244934770310966e+01 
455 1 2 1.0279999999997937e+00 -4.3808590654590546e+01 1.0000000000000000e+00 5.2804205119651948e-01 1.5429429380872264e+00 1.9580973723293070e+01 
38 1 2 1.0279999999998537e+00 -3.8018634187167436e+01 1.0000000000000000e+00 7.9677278233428994e-01 3.3204093130509458e+00 1.9459522637593217e+01 
495 1 2 1.0280000000000311e+00 -5.7191225132995896e+01 1.0000000000000000e+00 1.3581618402914108e+00 8.2594379693656494e-01 1.8877062561026467e+01 
541 1 2 1.0280000000000862e+00 -5.2046020153647518e+01 1.0000000000000000e+00 1.3581629049744222e+00 8.2594452582115030e-01 1.8877061478733353e+01 
422 1 2 1.0280000000000908e+00 -5.6259717420674654e+01 1.0000000000000000e+00 1.3581600895046286e+00 8.2594259833918182e-01 1.8877064340810655e+01 
30 1 2 1.0279999999999823e+00 -5.6655014087880232e+01 1.0000000000000000e+00 1.3528136871758671e+00 8.2260572765339179e-01 1.8881765027604867e+01 
432 1 2 1.0280000000000773e+00 -5.7957622739251860e+01 1.0000000000000000e+00 1.7421251098230108e+00 2.9908463435716675e+00 1.9044050483351370e+01 
50 1 2 1.0279999999997445e+00 -7.9232415303487727e+01 1.0000000000000000e+00 3.1490400856043288e+00 3.1315840980537542e+00 1.8819743579627154e+01 
72 1 2 1.0279999999998204e+00 -2.4403245669097021e+01 1.0000000000000000e+00 4.4826975047047304e+00 3.2075211242431392e+00 1.8273907035320963e+01 
281 1 2 1.0279999999999239e+00 -2.2362355481190367e+01 1.0000000000000000e+00 4.2928596263376120e+00 3.2677635908534191e+00 1.8335598105894960e+01 
252 1 2 1.0280000000001945e+00 -3.3395795697750259e+01 1.0000000000000000e+00 4.2914064218993921e+00 3.2691141869657021e+00 1.8336858533017626e+01 
165 1 2 1.0280000000000342e+00 -3.7313683916048653e+01 1.0000000000000000e+00 4.0836301815164067e+00 3.2687271615222468e+00 1.8374515461761792e+01 
87 1 2 1.0280000000000877e+00 -3.5430288304056013e+01 1.0000000000000000e+00 3.4465562657061768e+00 1.3158355533038721e+00 1.9191921289241609e+01 
106 1 2 1.0280000000000291e+00 -6.4223907640643148e+01 1.0000000000000000e+00 3.4464193209347544e+00 1.3158107811050948e+00 1.9191892605307878e+01 
275 1 2 1.0280000000000107e+00 -4.2973636876186220e+01 1.0000000000000000e+00 3.4463942060171551e+00 1.3158062509699135e+00 1.9191887391163739e+01 
534 1 2 1.0280000000000480e+00 -6.6238919853520542e+01 1.0000000000000000e+00 3.4463634390641182e+00 1.3158007025097751e+00 1.9191881008380665e+01 
300 1 2 1.0280000000003748e+00 -5.4687404632891933e+01 1.0000000000000000e+00 5.6805182921161759e+00 2.1931048856685980e+00 1.9657717350998261e+01 
406 1 2 1.0280000000001845e+00 -2.8181513609213319e+01 1.0000000000000000e+00 5.7802475085518381e+00 2.2368226707063168e+00 1.9581720618961345e+01 
319 1 2 1.0280000000002492e+00 -6.0404777694966988e+01 1.0000000000000000e+00 5.7867030790104028e+00 2.2413291801689375e+00 1.9576271660189416e+01 
181 1 2 1.0280000000003922e+00 -3.2050066838482522e+01 1.0000000000000000e+00 5.7869002737080226e+00 2.2414684585762314e+00 1.9576102977102707e+01 
211 1 2 1.0280000000003391e+00 -2.6477722871253103e+01 1.0000000000000000e+00 5.7869379007325845e+00 2.2414950499705815e+00 1.9576070776604386e+01 
411 1 2 1.0279999999999399e+00 -3.5278969543531545e+01 1.0000000000000000e+00 2.9194318213296651e+00 6.5290533040216268e+00 1.6723937756998378e+01 
436 1 2 1.0280000000000189e+00 -2.9496167046980791e+01 1.0000000000000000e+00 7.1905048399383720e-01 3.3910173740466272e+00 1.9469019395202288e+01 
235 1 2 1.0279999999999851e+00 -5.9986286715273430e+01 1.0000000000000000e+00 5.6971269847305750e-01 3.5188788107572551e+00 1.9487656485473039e+01 
415 1 2 1.0280000000004463e+00 -4.3430421121592900e+01 1.0000000000000000e+00 1.1347880045082308e+00 3.5519602966952792e+00 1.9043956802127820e+01 
459 1 2 1.0280000000000533e+00 -4.3914641850567733e+01 1.0000000000000000e+00 1.7303296037409535e-01 5.4786840014558402e+00 1.7944162157186796e+01 
92 1 2 1.0280000000002294e+00 -8.9777846869528503e+01 1.0000000000000000e+00 4.9128135723500233e-01 6.1017875741046748e+00 1.8783961412073964e+01 
477 1 2 1.0280000000000453e+00 -2.4255229687108535e+01 1.0000000000000000e+00 8.5418339061690851e-01 6.0969945104422463e+00 1.8755013580449791e+01 
385 1 2 1.0279999999999823e+00 -1.6270719600860108e+01 1.0000000000000000e+00 9.2659536614580196e-01 5.8996792984058475e+00 1.8799737892107181e+01 
120 1 2 1.0280000000000782e+00 -6.3958729226412260e+01 1.0000000000000000e+00 9.3420004999422945e-01 5.9109802297112681e+00 1.8796912604762930e+01 
170 1 2 1.0279999999998362e+00 -6.2331075110450023e+01 1.0000000000000000e+00 2.7219529119908823e+00 6.0823790719410127e+00 1.9048136641669309e+01 
462 1 2 1.0280000000001845e+00 -4.7880761926290617e+01 1.0000000000000000e+00 3.5830185376091794e+00 5.9388488997729674e+00 1.9258107631791027e+01 
484 1 2 1.0280000000001397e+00 -5.1678337222426805e+01 1.0000000000000000e+00 3.5830333393522151e+00 5.9388574096053528e+00 1.9258117355822336e+01 
212 1 2 1.0280000000002352e+00 -1.6843946911167340e+01 1.0000000000000000e+00 4.1221708078103845e+00 6.0019868952319424e+00 1.9415454504171858e+01 
81 1 2 1.0280000000001421e+00 -3.0816859137602052e+01 1.0000000000000000e+00 4.1308746880720646e+00 6.0033938063186785e+00 1.9417523300481850e+01 
553 1 2 1.0280000000002232e+00 -8.3417080534088626e+01 1.0000000000000000e+00 4.1354786947505620e+00 6.0042339069889081e+00 1.9418720060410973e+01 
496 1 2 1.0279999999999856e+00 -1.1527860920505040e+02 1.0000000000000000e+00 2.3618168284544976e+00 7.7265658476085228e+00 1.7356433599719963e+01 
116 1 2 1.0280000000003546e+00 -5.1102631564301234e+01 1.0000000000000000e+00 7.9053172385354420e-01 8.1801740836170165e+00 1.7383812039979379e+01 
293 1 2 1.0279999999997773e+00 -3.3386579750407904e+01 1.0000000000000000e+00 8.8799625774193380e-01 8.1674295312549408e+00 1.7387498560604392e+01 
48 1 2 1.0279999999995260e+00 -5.8850575260220225e+01 1.0000000000000000e+00 8.9306746655482250e-01 8.1667353876898208e+00 1.7387593115632633e+01 
507 1 2 1.0280000000000686e+00 -6.2050356902190401e+01 1.0000000000000000e+00 3.0501157775268561e+00 7.0933848540995932e+00 1.7112659459620684e+01 
538 1 2 1.0279999999999960e+00 -6.3313527791383720e+01 1.0000000000000000e+00 3.0515678070678254e+00 7.0785888645830068e+00 1.7096373486028032e+01 
552 1 2 1.0279999999999587e+00 -7.3189385923143249e+01 1.0000000000000000e+00 4.8524069536305099e+00 7.8789030998955756e+00 1.9158700127587519e+01 
461 1 2 1.0279999999998943e+00 -1.7776642189084257e+01 1.0000000000000000e+00 4.9265798474403999e+00 7.8756384194429243e+00 1.9143063489857187e+01 
460 1 2 1.0279999999999814e+00 -2.3628750088742066e+01 1.0000000000000000e+00 6.1407281706516583e+00 8.3751304911662814e+00 1.9219854804756963e+01 
564 1 2 1.0280000000001024e+00 -9.8037739193496336e+01 1.0000000000000000e+00 5.4727781211372646e+00 8.0044527823222538e+00 1.9148236318657034e+01 
520 1 2 1.0280000000001750e+00 -7.2230902690485777e+01 1.0000000000000000e+00 1.3596091704879765e-01 1.2350863312829913e+01 3.2301765361932913e+00 
84 1 2 1.0280000000001999e+00 -7.5597342586903594e+01 1.0000000000000000e+00 1.5311089326787700e-01 1.2375312938206019e+01 3.2598120536250357e+00 
347 1 2 1.0280000000002127e+00 -3.7855917112291266e+01 1.0000000000000000e+00 1.5507523228061887e-01 1.2378430692928868e+01 3.2631711057116592e+00 
88 1 2 1.0280000000001850e+00 -3.2363640663760727e+01 1.0000000000000000e+00 1.5506285311839127e-01 1.2378410691926840e+01 3.2631501272776831e+00 
240 1 2 1.0280000000000049e+00 -4.0882411873837398e+01 1.0000000000000000e+00 4.4849596987544214e+00 1.2650588803829322e+01 3.1550626822090932e+00 
70 1 2 1.0279999999997691e+00 -8.5513401535654708e+01 1.0000000000000000e+00 4.5142430173520012e+00 1.2718479910421213e+01 3.1256986143475136e+00 
535 1 2 1.0279999999999128e+00 -5.3157623908675660e+01 1.0000000000000000e+00 4.5142443839478110e+00 1.2718391931859909e+01 3.1256788759697978e+00 
272 1 2 1.0279999999997091e+00 -6.4397842633931646e+01 1.0000000000000000e+00 4.5142481826022403e+00 1.2718247812510782e+01 3.1256442901979962e+00 
33 1 2 1.0280000000000109e+00 -8.7968060308255531e+01 1.0000000000000000e+00 4.5588701329703945e+00 1.3028848312245046e+01 3.1694990327676527e+00 
260 1 2 1.0280000000000886e+00 -6.6002831229817275e+01 1.0000000000000000e+00 5.8520554554090216e+00 1.0978179335787940e+01 2.7318129828063960e+00 
312 1 2 1.0280000000001270e+00 -1.5134809010587645e+01 1.0000000000000000e+00 5.0608887437854273e+00 1.0706831159064219e+01 6.4452410493318801e-01 
430 1 2 1.0279999999999840e+00 -3.8319943232719183e+01 1.0000000000000000e+00 5.0278566410989818e+00 1.0586469588573385e+01 5.7722235846397518e-01 
282 1 2 1.0280000000000100e+00 -2.5183140913276183e+01 1.0000000000000000e+00 6.1712652318858296e+00 1.0902582076812649e+01 2.7524125309203629e+00 
200 1 2 1.0280000000000051e+00 -2.7630368011703737e+01 1.0000000000000000e+00 6.1713034590713747e+00 1.0902575056477582e+01 2.7524246505490759e+00 
52 1 2 1.0279999999999923e+00 -7.6364426526530622e+01 1.0000000000000000e+00 5.4952948308901792e+00 1.2198387363877343e+01 3.6184607211792130e-01 
162 1 2 1.0279999999995217e+00 -2.0066762741250372e+01 1.0000000000000000e+00 6.5143430906424840e+00 1.1277215221828264e+01 9.2000777470713868e-01 
464 1 2 1.0279999999997846e+00 -4.3422209818164006e+01 1.0000000000000000e+00 5.5896265000739991e+00 1.2027725808238712e+01 4.8078981652994408e-02 
425 1 2 1.0279999999990446e+00 -6.1448590428351331e+01 1.0000000000000000e+00 5.6679691732091158e+00 1.1166139118022421e+01 4.7494442530663136e-02 
499 1 2 1.0280000000002951e+00 -1.1711927702577475e+02 1.0000000000000000e+00 5.0942215512712838e+00 1.4695378393523644e+01 2.8532880191963046e+00 
441 1 2 1.0280000000000828e+00 -4.1797172565564111e+01 1.0000000000000000e+00 6.0234080525543217e+00 1.5610776106941293e+01 3.0646121781017555e+00 
373 1 2 1.0280000000001335e+00 -8.0088858075022415e+01 1.0000000000000000e+00 6.0644054214888934e+00 1.4642571907611114e+01 1.2808241054260785e+00 
234 1 2 1.0280000000000233e+00 -9.0742880435445585e+01 1.0000000000000000e+00 1.0856745474550791e+00 1.2795939375753774e+01 5.7319086258525331e+00 
321 1 2 1.0280000000000240e+00 -5.4809088000964991e+01 1.0000000000000000e+00 1.0841974199586266e+00 1.2795579760257203e+01 5.7329859790262256e+00 
437 1 2 1.0279999999999729e+00 -2.5587804597823059e+01 1.0000000000000000e+00 1.0848478151848806e+00 1.2795704713036240e+01 5.7325458106747309e+00 
58 1 2 1.0280000000000917e+00 -8.6102679531531351e+01 1.0000000000000000e+00 2.5798324066483818e+00 1.2181278350789960e+01 5.3107099544609726e+00 
73 1 2 1.0280000000000924e+00 -6.0843548841811071e+01 1.0000000000000000e+00 2.5809744326429351e+00 1.2180626561370971e+01 5.3106722272840328e+00 
174 1 2 1.0279999999999738e+00 -3.8796509433182962e+01 1.0000000000000000e+00 3.0578879492347966e+00 1.2471553751110541e+01 5.4055648262798695e+00 
419 1 2 1.0279999999997786e+00 -7.9740415404386852e+01 1.0000000000000000e+00 3.0592351206779727e+00 1.2473570294025260e+01 5.4033819289422071e+00 
521 1 2 1.0280000000000100e+00 -7.6112056512947845e+01 1.0000000000000000e+00 3.0598958199671036e+00 1.2474637231715203e+01 5.4022207796752451e+00 
152 1 2 1.0279999999998954e+00 -1.8596469533963074e+01 1.0000000000000000e+00 4.8261070374092050e+00 1.1084906290865430e+01 5.3163972928254868e+00 
113 1 2 1.0279999999997560e+00 -6.8453791531803716e+01 1.0000000000000000e+00 4.8261032421537404e+00 1.1084904765564419e+01 5.3163913634430342e+00 
309 1 2 1.0279999999999612e+00 -5.3872660691715922e+01 1.0000000000000000e+00 4.8261117730529435e+00 1.1084908321906392e+01 5.3164048727664266e+00 
292 1 2 1.0279999999998446e+00 -6.1443413457793064e+01 1.0000000000000000e+00 4.8261116475563579e+00 1.1084908156286371e+01 5.3164045130696946e+00 
322 1 2 1.0280000000001959e+00 -4.0945742833908199e+01 1.0000000000000000e+00 6.6101795071102138e+00 1.1033845934379970e+01 5.7228088861956969e+00 
395 1 2 1.0280000000001916e+00 -5.6643221268685110e+01 1.0000000000000000e+00 6.3581747872473526e+00 1.5316482576718418e+01 3.7716779879422626e+00 
126 1 2 1.0280000000001730e+00 -4.1716568963181373e+01 1.0000000000000000e+00 6.2328018034475878e+00 1.5392003578823655e+01 3.6977525470988275e+00 
526 1 2 1.0280000000001353e+00 -6.5771374047272573e+01 1.0000000000000000e+00 6.2300629959597256e+00 1.5398185669993445e+01 3.6898933720775031e+00 
12 1 2 1.0279999999996958e+00 -8.2863853149284836e+01 1.0000000000000000e+00 6.2327940786044689e+00 1.5392073859195845e+01 3.6976639248664407e+00 
228 1 2 1.0279999999998639e+00 -3.4280045550231023e+01 1.0000000000000000e+00 6.3243532998257432e+00 1.3321066917928519e+01 1.6058313584341381e+01 
157 1 2 1.0280000000000546e+00 -4.5359712410895582e+01 1.0000000000000000e+00 6.3486564156856646e+00 1.3294191549548312e+01 1.6034367861114390e+01 
388 1 2 1.0280000000002394e+00 -4.3939559825020567e+01 1.0000000000000000e+00 6.4734590998478510e+00 1.3098709817734241e+01 1.6057975764068289e+01 
65 1 2 1.0279999999998732e+00 -7.2831055210912623e+01 1.0000000000000000e+00 6.1418386937251617e+00 1.3529420877776916e+01 1.6229786385912611e+01 
147 1 2 1.0280000000001297e+00 -2.4943784244253997e+01 1.0000000000000000e+00 6.0616456735204363e+00 1.3594600569055334e+01 1.6324709635570382e+01 
146 1 2 1.0280000000001419e+00 -6.1928074324510789e+01 1.0000000000000000e+00 6.1109219213338439e-01 1.4820362311404825e+01 1.8533494067476642e+01 
28 1 2 1.0279999999999414e+00 -8.6493874119853018e+01 1.0000000000000000e+00 5.6576403302544298e-01 1.4806116765442262e+01 1.8547463105007395e+01 
447 1 2 1.0280000000002116e+00 -4.9118317615458963e+01 1.0000000000000000e+00 4.7459829833918887e-01 1.4776160695457181e+01 1.8588568023994121e+01 
229 1 2 1.0279999999999765e+00 -2.2554776599501686e+01 1.0000000000000000e+00 1.5924415052638273e-02 1.4425894333378418e+01 1.8718537428805199e+01 
438 1 2 1.0280000000003495e+00 -2.5576138422049784e+01 1.0000000000000000e+00 2.0681305381800335e+00 1.5075842159684695e+01 1.8147956428040825e+01 
311 1 2 1.0279999999997529e+00 -2.9710336980866138e+01 1.0000000000000000e+00 2.3573168448802875e+00 1.4829455455750464e+01 1.7956038968677525e+01 
508 1 2 1.0280000000002032e+00 -6.2861256145395672e+01 1.0000000000000000e+00 2.8379249663837993e+00 1.4242327284006064e+01 1.9301815667493273e+01 
155 1 2 1.0280000000002021e+00 -3.7306147060546280e+01 1.0000000000000000e+00 2.8379269150450845e+00 1.4242325267551166e+01 1.9301814874277653e+01 
76 1 2 1.0280000000001750e+00 -8.1011575242847186e+01 1.0000000000000000e+00 2.8379269814143910e+00 1.4242325198988045e+01 1.9301814847336381e+01 
11 1 2 1.0280000000001301e+00 -7.6074938864748475e+01 1.0000000000000000e+00 2.8379222298673481e+00 1.4242330114354903e+01 1.9301816780504559e+01 
487 1 2 1.0280000000001390e+00 -1.0380446755179126e+02 1.0000000000000000e+00 3.0090239860275538e+00 1.5205564609700337e+01 1.7775234330974747e+01 
452 1 2 1.0279999999998348e+00 7.5499613165191415e-01 1.0000000000000000e+00 5.2596918218727939e+00 1.4415123707854669e+01 1.9354117582243560e+01 
420 1 2 1.0279999999999683e+00 -6.6724110425844060e+01 1.0000000000000000e+00 4.3171117840102289e+00 1.5724373761650392e+01 1.7947751852999833e+01 
428 1 2 1.0279999999998968e+00 -6.2785670515018062e+01 1.0000000000000000e+00 5.2205121579880176e+00 1.5106566219511473e+01 1.7116025977426418e+01 
405 1 2 1.0279999999996305e+00 -2.9515886672599386e+01 1.0000000000000000e+00 5.2206941693547222e+00 1.5106485175701891e+01 1.7115938436094439e+01 
529 1 2 1.0280000000001905e+00 -6.8985307551285132e+01 1.0000000000000000e+00 5.2206440020986111e+00 1.5106507389982605e+01 1.7115962438121603e+01 
289 1 2 1.0280000000001801e+00 -3.3555618084832432e+01 1.0000000000000000e+00 5.7044622216762093e+00 1.3685814567743568e+01 1.8736984344531482e+01 
182 1 2 1.0280000000002696e+00 -3.7074220473378659e+01 1.0000000000000000e+00 5.0418660384680711e+00 1.3828454820823753e+01 1.9514470573919780e+01 
14 1 2 1.0280000000000895e+00 -5.0435986563954970e+01 1.0000000000000000e+00 4.8060963500329255e+00 1.3901621052621117e+01 1.9423792740794781e+01 
286 1 2 1.0280000000000087e+00 -3.5463327272362946e+01 1.0000000000000000e+00 4.3172667255234085e+00 1.5724362296039146e+01 1.7947809149581058e+01 
429 1 2 1.0280000000000502e+00 -7.1095170219565347e+01 1.0000000000000000e+00 4.3135846797365671e+00 1.5724835109137246e+01 1.7948016483134538e+01 
472 1 2 1.0279999999998273e+00 -5.5797716140634989e+01 1.0000000000000000e+00 8.4382836374631349e+00 1.5404171264130102e+00 9.7360120623400492e-01 
325 1 2 1.0279999999998817e+00 -2.5338514146334951e+01 1.0000000000000000e+00 8.3707137898997974e+00 1.5809952304674471e+00 9.4962102603797116e-01 
353 1 2 1.0279999999999299e+00 -4.0541377300962182e+01 1.0000000000000000e+00 7.8956010200867590e+00 1.9536051120516109e+00 5.9011444506849176e-01 
277 1 2 1.0279999999993925e+00 -1.6266006498862971e+01 1.0000000000000000e+00 7.8922892321976352e+00 1.9579546431743713e+00 5.8678832226691846e-01 
42 1 2 1.0280000000003160e+00 -1.0113032854466564e+02 1.0000000000000000e+00 9.4548368017248325e+00 1.1707983221077882e+00 9.3285648244017472e-01 
444 1 2 1.0280000000000424e+00 -6.1031770954000400e+01 1.0000000000000000e+00 9.9317137969612563e+00 2.2416059333535205e+00 1.3021781310638989e+00 
458 1 2 1.0280000000000808e+00 -4.5150038003205260e+01 1.0000000000000000e+00 9.9315022459190736e+00 2.2425371480244429e+00 1.3021808718540810e+00 
270 1 2 1.0280000000000460e+00 -5.2238306604601867e+01 1.0000000000000000e+00 9.9315588516012543e+00 2.2422883471420998e+00 1.3021801212145738e+00 
423 1 2 1.0280000000001537e+00 -1.0539204730890583e+02 1.0000000000000000e+00 1.2401958419460934e+01 2.0581723260029133e-01 1.6326969303387096e+00 
443 1 2 1.0280000000001410e+00 -3.7056251228954395e+01 1.0000000000000000e+00 1.2401981334837455e+01 2.0581707949357256e-01 1.6327107104698373e+00 
140 1 2 1.0280000000001417e+00 -3.9086857535367002e+01 1.0000000000000000e+00 1.2401958448219261e+01 2.0581723258689039e-01 1.6326969475117628e+00 
269 1 2 1.0279999999999805e+00 -4.0109871750329368e+01 1.0000000000000000e+00 1.2309159150359603e+01 1.7089774374997982e-01 1.5891663221098136e+00 
47 1 2 1.0280000000002172e+00 -5.7043137331907992e+01 1.0000000000000000e+00 1.2954992352161899e+01 1.9394775635536363e-01 1.6645706495896380e+00 
559 1 2 1.0280000000002205e+00 -1.0022802196089475e+02 1.0000000000000000e+00 8.0861589273790972e+00 4.7311347638755663e+00 1.1945480526244145e+00 
349 1 2 1.0280000000003287e+00 -5.6525993169736708e+01 1.0000000000000000e+00 8.0063261482025929e+00 4.8151570390386569e+00 1.1627238822195021e+00 
365 1 2 1.0279999999997929e+00 -3.9112175815537192e+01 1.0000000000000000e+00 7.9541961173509703e+00 4.8684027357135227e+00 1.1405033674142100e+00 
501 1 2 1.0279999999998635e+00 -6.6150912852907197e+01 1.0000000000000000e+00 8.7727140266838077e+00 4.1382991009441508e+00 1.3975484096433888e+00 
131 1 2 1.0279999999996974e+00 -2.9931257865233349e+01 1.0000000000000000e+00 9.0806827169094468e+00 3.7497909178339350e+00 1.4033796977825750e+00 
424 1 2 1.0280000000004479e+00 -3.5826635564159233e+01 1.0000000000000000e+00 7.2988849579679478e+00 4.8654672889222041e+00 3.5315846115974009e-01 
35 1 2 1.0279999999998837e+00 -8.7503723615472424e+01 1.0000000000000000e+00 1.0147880482820096e+01 6.0104931751286674e+00 2.4438493112627864e+00 
298 1 2 1.0280000000001637e+00 -3.8690127068984964e+01 1.0000000000000000e+00 1.0240358218880115e+01 6.0958542427033828e+00 2.3872729190643929e+00 
297 1 2 1.0279999999998357e+00 -1.1183818335066288e+01 1.0000000000000000e+00 1.0240349627953252e+01 6.0958424102763429e+00 2.3872995671636277e+00 
118 1 2 1.0280000000002405e+00 -4.8554864619204778e+01 1.0000000000000000e+00 1.0240358218896120e+01 6.0958542426996081e+00 2.3872729191123181e+00 
324 1 2 1.0280000000000298e+00 -3.4111012450631975e+01 1.0000000000000000e+00 1.0240358218891949e+01 6.0958542427092484e+00 2.3872729190699955e+00 
386 1 2 1.0279999999997542e+00 -4.8999797692145535e+01 1.0000000000000000e+00 1.1784216858048049e+01 5.2179054986618381e+00 2.5876074741487951e+00 
124 1 2 1.0279999999996823e+00 -7.3956251245001681e+01 1.0000000000000000e+00 1.1784542457393087e+01 5.2178054914182264e+00 2.5872592156071481e+00 
263 1 2 1.0279999999997504e+00 -6.4235418046809016e+01 1.0000000000000000e+00 1.1784716372991062e+01 5.2177519536479142e+00 2.5870727536948843e+00 
82 1 2 1.0279999999997862e+00 -4.0734268732260674e+01 1.0000000000000000e+00 1.1784768749700152e+01 5.2177358321502982e+00 2.5870165696539726e+00 
80 1 2 1.0280000000001013e+00 -4.2254864485088902e+01 1.0000000000000000e+00 7.2634564888817765e+00 9.2633845320478994e+00 3.1815588355038837e+00 
548 1 2 1.0280000000000113e+00 -1.3252491306430574e+02 1.0000000000000000e+00 7.5105824350018917e+00 9.2924766593715376e+00 3.2528812903356257e+00 
23 1 2 1.0279999999997260e+00 -8.1579080793952357e+01 1.0000000000000000e+00 8.6874901127828945e+00 9.9436837266463858e+00 3.7043341613894714e+00 
145 1 2 1.0279999999997145e+00 -5.4602731865089268e+01 1.0000000000000000e+00 8.6858263923769456e+00 9.9403995627641208e+00 3.7013537001222065e+00 
167 1 2 1.0279999999997238e+00 -2.8337107553999580e+01 1.0000000000000000e+00 8.6877125906791228e+00 9.9440794633349920e+00 3.7048071379183711e+00 
77 1 2 1.0280000000000264e+00 -9.9085557882516085e+01 1.0000000000000000e+00 6.9183447123732256e+00 2.4729771616167375e+00 1.6576884537040826e+01 
43 1 2 1.0280000000001264e+00 -1.2974901453692780e+02 1.0000000000000000e+00 8.0617060253156083e+00 2.1090836452799473e+00 1.6597186872804524e+01 
453 1 2 1.0280000000001372e+00 -5.1872596199762768e+01 1.0000000000000000e+00 8.0609184467902786e+00 2.1089076518379413e+00 1.6597143915079741e+01 
279 1 2 1.0280000000000384e+00 -6.6841970559338577e+01 1.0000000000000000e+00 8.1336497463139850e+00 2.1254454476692062e+00 1.6602907413326569e+01 
523 1 2 1.0280000000001386e+00 -5.9148312578460505e+01 1.0000000000000000e+00 1.0469246781267657e+01 3.3088596196589228e+00 1.6589209391349737e+01 
127 1 2 1.0279999999995222e+00 -5.2596197711457449e+01 1.0000000000000000e+00 1.0714688698579877e+01 2.5422381350196330e+00 1.6655643948297371e+01 
166 1 2 1.0279999999997289e+00 -5.1911548920962758e+01 1.0000000000000000e+00 1.0322189558055459e+01 3.3982002291704214e+00 1.6555177781091935e+01 
567 1 2 1.0279999999998124e+00 -2.8084202559498564e+01 1.0000000000000000e+00 1.0322438241503697e+01 3.3980954220146682e+00 1.6555204575567341e+01 
421 1 2 1.0279999999999470e+00 -5.0936811117323018e+01 1.0000000000000000e+00 1.0429148865102153e+01 3.4965176689720292e+00 1.6568806708722821e+01 
196 1 2 1.0279999999996914e+00 -1.8705282070556116e+01 1.0000000000000000e+00 1.0813140022277675e+01 5.7713352445772665e+00 1.6476073777945210e+01 
378 1 2 1.0280000000000538e+00 -2.3820580630348154e+01 1.0000000000000000e+00 1.0813135301711178e+01 5.7906497230366023e+00 1.6477043541012058e+01 
338 1 2 1.0280000000000629e+00 -3.1169233276263906e+01 1.0000000000000000e+00 1.1474922301659966e+01 9.6549155819272858e+00 1.5012152183623728e+01 
334 1 2 1.0279999999999627e+00 -5.3358964375112500e+01 1.0000000000000000e+00 1.1474920134095306e+01 9.6549153682363116e+00 1.5012154049976848e+01 
247 1 2 1.0280000000001570e+00 -4.7031993457036265e+01 1.0000000000000000e+00 1.1474922299674693e+01 9.6549155815709540e+00 1.5012152185435594e+01 
7 1 2 1.0280000000001202e+00 -3.7529349483010726e+01 1.0000000000000000e+00 1.1474921237543198e+01 9.6549154565845843e+00 1.5012153112862638e+01 
505 1 2 1.0279999999998937e+00 -1.0540428919749809e+02 1.0000000000000000e+00 1.2613945720970190e+01 9.4700426032659788e+00 1.6364365686393104e+01 
2 1 2 1.0279999999997147e+00 -3.3169003100614752e+01 1.0000000000000000e+00 1.2772992656998502e+01 9.5807999071280783e+00 1.6409749755822411e+01 
31 1 2 1.0279999999997946e+00 -6.4359552689268469e+01 1.0000000000000000e+00 6.9132144032104188e+00 2.6963823573315571e+00 1.6669620050286397e+01 
390 1 2 1.0279999999998137e+00 -7.2724847622177549e+01 1.0000000000000000e+00 6.9436941233410963e+00 2.7516095828377551e+00 1.6697630154943642e+01 
216 1 2 1.0279999999999951e+00 -4.1197026794955107e+01 1.0000000000000000e+00 6.9436942128089676e+00 2.7516097111074176e+00 1.6697630228091757e+01 
112 1 2 1.0279999999999248e+00 -3.8706769636795329e+01 1.0000000000000000e+00 6.9436891428537164e+00 2.7516024436357496e+00 1.6697626086210036e+01 
547 1 2 1.0279999999992959e+00 -6.2848445719098848e+01 1.0000000000000000e+00 8.8310049580030583e+00 1.8561356888089116e+00 1.9622554533371655e+01 
187 1 2 1.0280000000003631e+00 -7.4177377390581157e+01 1.0000000000000000e+00 9.8356921288763530e+00 2.5316901308038546e+00 1.8480547780295531e+01 
416 1 2 1.0279999999996681e+00 -7.7794858896221854e+01 1.0000000000000000e+00 1.1203826424483166e+01 1.7622128336535789e+00 1.6683175607710357e+01 
355 1 2 1.0279999999998757e+00 -3.2933181337994512e+01 1.0000000000000000e+00 1.2115494080852521e+01 6.0773612286415979e-01 1.6726538587467029e+01 
506 1 2 1.0279999999999787e+00 -8.7353020068454384e+01 1.0000000000000000e+00 1.1943712763463923e+01 8.4556129718479844e-01 1.6752024687227170e+01 
356 1 2 1.0280000000000378e+00 -5.2725252176342721e+01 1.0000000000000000e+00 1.2054718414045155e+01 7.0218140804266904e-01 1.6742693266518511e+01 
24 1 2 1.0279999999998781e+00 -9.5218855111806846e+01 1.0000000000000000e+00 1.0159044530019184e+01 3.0273331391436065e+00 1.9604846394411876e+01 
469 1 2 1.0280000000002101e+00 -7.2486387173411018e+01 1.0000000000000000e+00 1.0733025086360964e+01 1.0575889578923379e+00 1.8910719781050222e+01 
18 1 2 1.0279999999995149e+00 -6.4738425129322550e+01 1.0000000000000000e+00 1.0845435298177195e+01 1.0794995029273786e+00 1.9146460711252548e+01 
91 1 2 1.0279999999994527e+00 -6.5222119955600405e+01 1.0000000000000000e+00 1.0884785959526251e+01 1.1091429651332212e+00 1.9207980244308924e+01 
169 1 2 1.0280000000000369e+00 -4.4279807860332340e+01 1.0000000000000000e+00 1.1350036236064234e+01 9.9533703358259051e-01 1.9932353873949776e+01 
15 1 2 1.0279999999999907e+00 -9.2923013346266316e+01 1.0000000000000000e+00 6.8521772953595468e+00 5.5372390125092590e+00 1.9672761041980824e+01 
491 1 2 1.0279999999996303e+00 -8.8864600474555488e+01 1.0000000000000000e+00 7.6218944815590852e+00 6.0274459152508681e+00 1.8943939264153091e+01 