LAMMPS data file via write_data, version 30 Jul 2016, timestep = 50000000

5620 atoms
8 atom types

0.0000000000000000e+00 1.0000000000000000e+02 xlo xhi
0.0000000000000000e+00 4.0000000000000000e+01 ylo yhi
0.0000000000000000e+00 4.0000000000000000e+01 zlo zhi

Masses

1 3.896
2 5.36
3 20.064
4 8.378
5 8.378
6 8.378
7 8.378
8 8.378

Atoms # meso-molecular

1 2 4 2.2559723595316457e+00 0.0000000000000000e+00 1.0000000000000000e+00 0.0000000000000000e+00 0.0000000000000000e+00 1.0000000000000000e+00 
21 2 4 2.2559723595316457e+00 0.0000000000000000e+00 1.0000000000000000e+00 2.0000000000000000e+00 0.0000000000000000e+00 1.0000000000000000e+00 
41 2 4 2.2559723595316457e+00 0.0000000000000000e+00 1.0000000000000000e+00 4.0000000000000000e+00 0.0000000000000000e+00 1.0000000000000000e+00 
61 2 4 2.2559723595316457e+00 0.0000000000000000e+00 1.0000000000000000e+00 6.0000000000000000e+00 0.0000000000000000e+00 1.0000000000000000e+00 
81 2 4 2.2559723595316457e+00 0.0000000000000000e+00 1.0000000000000000e+00 8.0000000000000000e+00 0.0000000000000000e+00 1.0000000000000000e+00 
101 2 4 2.2559723595316457e+00 0.0000000000000000e+00 1.0000000000000000e+00 1.0000000000000000e+01 0.0000000000000000e+00 1.0000000000000000e+00 
121 2 4 2.2559723595316457e+00 0.0000000000000000e+00 1.0000000000000000e+00 1.2000000000000000e+01 0.0000000000000000e+00 1.0000000000000000e+00 
141 2 4 2.2559723595316457e+00 0.0000000000000000e+00 1.0000000000000000e+00 1.4000000000000000e+01 0.0000000000000000e+00 1.0000000000000000e+00 
161 2 4 2.2559723595316457e+00 0.0000000000000000e+00 1.0000000000000000e+00 1.6000000000000000e+01 0.0000000000000000e+00 1.0000000000000000e+00 
181 2 4 2.2559723595316457e+00 0.0000000000000000e+00 1.0000000000000000e+00 1.8000000000000000e+01 0.0000000000000000e+00 1.0000000000000000e+00 
201 2 4 2.2559723595316457e+00 0.0000000000000000e+00 1.0000000000000000e+00 2.0000000000000000e+01 0.0000000000000000e+00 1.0000000000000000e+00 
221 2 4 2.2559723595316457e+00 0.0000000000000000e+00 1.0000000000000000e+00 2.2000000000000000e+01 0.0000000000000000e+00 1.0000000000000000e+00 
241 2 4 2.2559723595316457e+00 0.0000000000000000e+00 1.0000000000000000e+00 2.4000000000000000e+01 0.0000000000000000e+00 1.0000000000000000e+00 
261 2 4 2.2559723595316457e+00 0.0000000000000000e+00 1.0000000000000000e+00 2.6000000000000000e+01 0.0000000000000000e+00 1.0000000000000000e+00 
281 2 4 2.2559723595316457e+00 0.0000000000000000e+00 1.0000000000000000e+00 2.8000000000000000e+01 0.0000000000000000e+00 1.0000000000000000e+00 
301 2 4 2.2559723595316457e+00 0.0000000000000000e+00 1.0000000000000000e+00 3.0000000000000000e+01 0.0000000000000000e+00 1.0000000000000000e+00 
321 2 4 2.2559723595316457e+00 0.0000000000000000e+00 1.0000000000000000e+00 3.2000000000000000e+01 0.0000000000000000e+00 1.0000000000000000e+00 
2 2 4 2.2559723595316457e+00 0.0000000000000000e+00 1.0000000000000000e+00 0.0000000000000000e+00 2.0000000000000000e+00 1.0000000000000000e+00 
22 2 4 2.2559723595316457e+00 0.0000000000000000e+00 1.0000000000000000e+00 2.0000000000000000e+00 2.0000000000000000e+00 1.0000000000000000e+00 
42 2 4 2.2559723595316457e+00 0.0000000000000000e+00 1.0000000000000000e+00 4.0000000000000000e+00 2.0000000000000000e+00 1.0000000000000000e+00 
62 2 4 2.2559723595316457e+00 0.0000000000000000e+00 1.0000000000000000e+00 6.0000000000000000e+00 2.0000000000000000e+00 1.0000000000000000e+00 
82 2 4 2.2559723595316457e+00 0.0000000000000000e+00 1.0000000000000000e+00 8.0000000000000000e+00 2.0000000000000000e+00 1.0000000000000000e+00 
102 2 4 2.2559723595316457e+00 0.0000000000000000e+00 1.0000000000000000e+00 1.0000000000000000e+01 2.0000000000000000e+00 1.0000000000000000e+00 
122 2 4 2.2559723595316457e+00 0.0000000000000000e+00 1.0000000000000000e+00 1.2000000000000000e+01 2.0000000000000000e+00 1.0000000000000000e+00 
142 2 4 2.2559723595316457e+00 0.0000000000000000e+00 1.0000000000000000e+00 1.4000000000000000e+01 2.0000000000000000e+00 1.0000000000000000e+00 
162 2 4 2.2559723595316457e+00 0.0000000000000000e+00 1.0000000000000000e+00 1.6000000000000000e+01 2.0000000000000000e+00 1.0000000000000000e+00 
182 2 4 2.2559723595316457e+00 0.0000000000000000e+00 1.0000000000000000e+00 1.8000000000000000e+01 2.0000000000000000e+00 1.0000000000000000e+00 
202 2 4 2.2559723595316457e+00 0.0000000000000000e+00 1.0000000000000000e+00 2.0000000000000000e+01 2.0000000000000000e+00 1.0000000000000000e+00 
222 2 4 2.2559723595316457e+00 0.0000000000000000e+00 1.0000000000000000e+00 2.2000000000000000e+01 2.0000000000000000e+00 1.0000000000000000e+00 
242 2 4 2.2559723595316457e+00 0.0000000000000000e+00 1.0000000000000000e+00 2.4000000000000000e+01 2.0000000000000000e+00 1.0000000000000000e+00 
262 2 4 2.2559723595316457e+00 0.0000000000000000e+00 1.0000000000000000e+00 2.6000000000000000e+01 2.0000000000000000e+00 1.0000000000000000e+00 
282 2 4 2.2559723595316457e+00 0.0000000000000000e+00 1.0000000000000000e+00 2.8000000000000000e+01 2.0000000000000000e+00 1.0000000000000000e+00 
302 2 4 2.2559723595316457e+00 0.0000000000000000e+00 1.0000000000000000e+00 3.0000000000000000e+01 2.0000000000000000e+00 1.0000000000000000e+00 
322 2 4 2.2559723595316457e+00 0.0000000000000000e+00 1.0000000000000000e+00 3.2000000000000000e+01 2.0000000000000000e+00 1.0000000000000000e+00 
3 2 4 2.2559723595316457e+00 0.0000000000000000e+00 1.0000000000000000e+00 0.0000000000000000e+00 4.0000000000000000e+00 1.0000000000000000e+00 
23 2 4 2.2559723595316457e+00 0.0000000000000000e+00 1.0000000000000000e+00 2.0000000000000000e+00 4.0000000000000000e+00 1.0000000000000000e+00 
43 2 4 2.2559723595316457e+00 0.0000000000000000e+00 1.0000000000000000e+00 4.0000000000000000e+00 4.0000000000000000e+00 1.0000000000000000e+00 
63 2 4 2.2559723595316457e+00 0.0000000000000000e+00 1.0000000000000000e+00 6.0000000000000000e+00 4.0000000000000000e+00 1.0000000000000000e+00 
83 2 4 2.2559723595316457e+00 0.0000000000000000e+00 1.0000000000000000e+00 8.0000000000000000e+00 4.0000000000000000e+00 1.0000000000000000e+00 
103 2 4 2.2559723595316457e+00 0.0000000000000000e+00 1.0000000000000000e+00 1.0000000000000000e+01 4.0000000000000000e+00 1.0000000000000000e+00 
123 2 4 2.2559723595316457e+00 0.0000000000000000e+00 1.0000000000000000e+00 1.2000000000000000e+01 4.0000000000000000e+00 1.0000000000000000e+00 
143 2 4 2.2559723595316457e+00 0.0000000000000000e+00 1.0000000000000000e+00 1.4000000000000000e+01 4.0000000000000000e+00 1.0000000000000000e+00 
163 2 4 2.2559723595316457e+00 0.0000000000000000e+00 1.0000000000000000e+00 1.6000000000000000e+01 4.0000000000000000e+00 1.0000000000000000e+00 
183 2 4 2.2559723595316457e+00 0.0000000000000000e+00 1.0000000000000000e+00 1.8000000000000000e+01 4.0000000000000000e+00 1.0000000000000000e+00 
203 2 4 2.2559723595316457e+00 0.0000000000000000e+00 1.0000000000000000e+00 2.0000000000000000e+01 4.0000000000000000e+00 1.0000000000000000e+00 
223 2 4 2.2559723595316457e+00 0.0000000000000000e+00 1.0000000000000000e+00 2.2000000000000000e+01 4.0000000000000000e+00 1.0000000000000000e+00 
243 2 4 2.2559723595316457e+00 0.0000000000000000e+00 1.0000000000000000e+00 2.4000000000000000e+01 4.0000000000000000e+00 1.0000000000000000e+00 
263 2 4 2.2559723595316457e+00 0.0000000000000000e+00 1.0000000000000000e+00 2.6000000000000000e+01 4.0000000000000000e+00 1.0000000000000000e+00 
283 2 4 2.2559723595316457e+00 0.0000000000000000e+00 1.0000000000000000e+00 2.8000000000000000e+01 4.0000000000000000e+00 1.0000000000000000e+00 
303 2 4 2.2559723595316457e+00 0.0000000000000000e+00 1.0000000000000000e+00 3.0000000000000000e+01 4.0000000000000000e+00 1.0000000000000000e+00 
323 2 4 2.2559723595316457e+00 0.0000000000000000e+00 1.0000000000000000e+00 3.2000000000000000e+01 4.0000000000000000e+00 1.0000000000000000e+00 
4 2 4 2.2559723595316457e+00 0.0000000000000000e+00 1.0000000000000000e+00 0.0000000000000000e+00 6.0000000000000000e+00 1.0000000000000000e+00 
24 2 4 2.2559723595316457e+00 0.0000000000000000e+00 1.0000000000000000e+00 2.0000000000000000e+00 6.0000000000000000e+00 1.0000000000000000e+00 
44 2 4 2.2559723595316457e+00 0.0000000000000000e+00 1.0000000000000000e+00 4.0000000000000000e+00 6.0000000000000000e+00 1.0000000000000000e+00 
64 2 4 2.2559723595316457e+00 0.0000000000000000e+00 1.0000000000000000e+00 6.0000000000000000e+00 6.0000000000000000e+00 1.0000000000000000e+00 
84 2 4 2.2559723595316457e+00 0.0000000000000000e+00 1.0000000000000000e+00 8.0000000000000000e+00 6.0000000000000000e+00 1.0000000000000000e+00 
104 2 4 2.2559723595316457e+00 0.0000000000000000e+00 1.0000000000000000e+00 1.0000000000000000e+01 6.0000000000000000e+00 1.0000000000000000e+00 
124 2 4 2.2559723595316457e+00 0.0000000000000000e+00 1.0000000000000000e+00 1.2000000000000000e+01 6.0000000000000000e+00 1.0000000000000000e+00 
144 2 4 2.2559723595316457e+00 0.0000000000000000e+00 1.0000000000000000e+00 1.4000000000000000e+01 6.0000000000000000e+00 1.0000000000000000e+00 
164 2 4 2.2559723595316457e+00 0.0000000000000000e+00 1.0000000000000000e+00 1.6000000000000000e+01 6.0000000000000000e+00 1.0000000000000000e+00 
184 2 4 2.2559723595316457e+00 0.0000000000000000e+00 1.0000000000000000e+00 1.8000000000000000e+01 6.0000000000000000e+00 1.0000000000000000e+00 
204 2 4 2.2559723595316457e+00 0.0000000000000000e+00 1.0000000000000000e+00 2.0000000000000000e+01 6.0000000000000000e+00 1.0000000000000000e+00 
224 2 4 2.2559723595316457e+00 0.0000000000000000e+00 1.0000000000000000e+00 2.2000000000000000e+01 6.0000000000000000e+00 1.0000000000000000e+00 
244 2 4 2.2559723595316457e+00 0.0000000000000000e+00 1.0000000000000000e+00 2.4000000000000000e+01 6.0000000000000000e+00 1.0000000000000000e+00 
264 2 4 2.2559723595316457e+00 0.0000000000000000e+00 1.0000000000000000e+00 2.6000000000000000e+01 6.0000000000000000e+00 1.0000000000000000e+00 
284 2 4 2.2559723595316457e+00 0.0000000000000000e+00 1.0000000000000000e+00 2.8000000000000000e+01 6.0000000000000000e+00 1.0000000000000000e+00 
304 2 4 2.2559723595316457e+00 0.0000000000000000e+00 1.0000000000000000e+00 3.0000000000000000e+01 6.0000000000000000e+00 1.0000000000000000e+00 
324 2 4 2.2559723595316457e+00 0.0000000000000000e+00 1.0000000000000000e+00 3.2000000000000000e+01 6.0000000000000000e+00 1.0000000000000000e+00 
5 2 4 2.2559723595316457e+00 0.0000000000000000e+00 1.0000000000000000e+00 0.0000000000000000e+00 8.0000000000000000e+00 1.0000000000000000e+00 
25 2 4 2.2559723595316457e+00 0.0000000000000000e+00 1.0000000000000000e+00 2.0000000000000000e+00 8.0000000000000000e+00 1.0000000000000000e+00 
45 2 4 2.2559723595316457e+00 0.0000000000000000e+00 1.0000000000000000e+00 4.0000000000000000e+00 8.0000000000000000e+00 1.0000000000000000e+00 
65 2 4 2.2559723595316457e+00 0.0000000000000000e+00 1.0000000000000000e+00 6.0000000000000000e+00 8.0000000000000000e+00 1.0000000000000000e+00 
85 2 4 2.2559723595316457e+00 0.0000000000000000e+00 1.0000000000000000e+00 8.0000000000000000e+00 8.0000000000000000e+00 1.0000000000000000e+00 
105 2 4 2.2559723595316457e+00 0.0000000000000000e+00 1.0000000000000000e+00 1.0000000000000000e+01 8.0000000000000000e+00 1.0000000000000000e+00 
125 2 4 2.2559723595316457e+00 0.0000000000000000e+00 1.0000000000000000e+00 1.2000000000000000e+01 8.0000000000000000e+00 1.0000000000000000e+00 
145 2 4 2.2559723595316457e+00 0.0000000000000000e+00 1.0000000000000000e+00 1.4000000000000000e+01 8.0000000000000000e+00 1.0000000000000000e+00 
165 2 4 2.2559723595316457e+00 0.0000000000000000e+00 1.0000000000000000e+00 1.6000000000000000e+01 8.0000000000000000e+00 1.0000000000000000e+00 
185 2 4 2.2559723595316457e+00 0.0000000000000000e+00 1.0000000000000000e+00 1.8000000000000000e+01 8.0000000000000000e+00 1.0000000000000000e+00 
205 2 4 2.2559723595316457e+00 0.0000000000000000e+00 1.0000000000000000e+00 2.0000000000000000e+01 8.0000000000000000e+00 1.0000000000000000e+00 
225 2 4 2.2559723595316457e+00 0.0000000000000000e+00 1.0000000000000000e+00 2.2000000000000000e+01 8.0000000000000000e+00 1.0000000000000000e+00 
245 2 4 2.2559723595316457e+00 0.0000000000000000e+00 1.0000000000000000e+00 2.4000000000000000e+01 8.0000000000000000e+00 1.0000000000000000e+00 
265 2 4 2.2559723595316457e+00 0.0000000000000000e+00 1.0000000000000000e+00 2.6000000000000000e+01 8.0000000000000000e+00 1.0000000000000000e+00 
285 2 4 2.2559723595316457e+00 0.0000000000000000e+00 1.0000000000000000e+00 2.8000000000000000e+01 8.0000000000000000e+00 1.0000000000000000e+00 
305 2 4 2.2559723595316457e+00 0.0000000000000000e+00 1.0000000000000000e+00 3.0000000000000000e+01 8.0000000000000000e+00 1.0000000000000000e+00 
325 2 4 2.2559723595316457e+00 0.0000000000000000e+00 1.0000000000000000e+00 3.2000000000000000e+01 8.0000000000000000e+00 1.0000000000000000e+00 
6 2 4 2.2559723595316457e+00 0.0000000000000000e+00 1.0000000000000000e+00 0.0000000000000000e+00 1.0000000000000000e+01 1.0000000000000000e+00 
26 2 4 2.2559723595316457e+00 0.0000000000000000e+00 1.0000000000000000e+00 2.0000000000000000e+00 1.0000000000000000e+01 1.0000000000000000e+00 
46 2 4 2.2559723595316457e+00 0.0000000000000000e+00 1.0000000000000000e+00 4.0000000000000000e+00 1.0000000000000000e+01 1.0000000000000000e+00 
66 2 4 2.2559723595316457e+00 0.0000000000000000e+00 1.0000000000000000e+00 6.0000000000000000e+00 1.0000000000000000e+01 1.0000000000000000e+00 
1001 3 2 1.1546442441718426e+01 0.0000000000000000e+00 1.0000000000000000e+00 7.0000000000000000e+00 1.0000000000000000e+01 4.1250007128849564e-01 
86 2 4 2.2559723595316457e+00 0.0000000000000000e+00 1.0000000000000000e+00 8.0000000000000000e+00 1.0000000000000000e+01 1.0000000000000000e+00 
1002 4 2 1.1546442441718426e+01 0.0000000000000000e+00 1.0000000000000000e+00 9.0000000000000000e+00 1.0000000000000000e+01 4.1250007128849564e-01 
106 2 4 2.2559723595316457e+00 0.0000000000000000e+00 1.0000000000000000e+00 1.0000000000000000e+01 1.0000000000000000e+01 1.0000000000000000e+00 
1003 5 2 1.1546442441718426e+01 0.0000000000000000e+00 1.0000000000000000e+00 1.1000000000000000e+01 1.0000000000000000e+01 4.1250007128849564e-01 
126 2 4 2.2559723595316457e+00 0.0000000000000000e+00 1.0000000000000000e+00 1.2000000000000000e+01 1.0000000000000000e+01 1.0000000000000000e+00 
1004 6 2 1.1546442441718426e+01 0.0000000000000000e+00 1.0000000000000000e+00 1.3000000000000000e+01 1.0000000000000000e+01 4.1250007128849564e-01 
146 2 4 2.2559723595316457e+00 0.0000000000000000e+00 1.0000000000000000e+00 1.4000000000000000e+01 1.0000000000000000e+01 1.0000000000000000e+00 
1005 7 2 1.1546442441718426e+01 0.0000000000000000e+00 1.0000000000000000e+00 1.5000000000000000e+01 1.0000000000000000e+01 4.1250007128849564e-01 
166 2 4 2.2559723595316457e+00 0.0000000000000000e+00 1.0000000000000000e+00 1.6000000000000000e+01 1.0000000000000000e+01 1.0000000000000000e+00 
1006 8 2 1.1546442441718426e+01 0.0000000000000000e+00 1.0000000000000000e+00 1.7000000000000000e+01 1.0000000000000000e+01 4.1250007128849564e-01 
186 2 4 2.2559723595316457e+00 0.0000000000000000e+00 1.0000000000000000e+00 1.8000000000000000e+01 1.0000000000000000e+01 1.0000000000000000e+00 
1007 9 2 1.1546442441718426e+01 0.0000000000000000e+00 1.0000000000000000e+00 1.9000000000000000e+01 1.0000000000000000e+01 4.1250007128849564e-01 
206 2 4 2.2559723595316457e+00 0.0000000000000000e+00 1.0000000000000000e+00 2.0000000000000000e+01 1.0000000000000000e+01 1.0000000000000000e+00 
1008 10 2 1.1546442441718426e+01 0.0000000000000000e+00 1.0000000000000000e+00 2.1000000000000000e+01 1.0000000000000000e+01 4.1250007128849564e-01 
226 2 4 2.2559723595316457e+00 0.0000000000000000e+00 1.0000000000000000e+00 2.2000000000000000e+01 1.0000000000000000e+01 1.0000000000000000e+00 
1009 11 2 1.1546442441718426e+01 0.0000000000000000e+00 1.0000000000000000e+00 2.3000000000000000e+01 1.0000000000000000e+01 4.1250007128849564e-01 
246 2 4 2.2559723595316457e+00 0.0000000000000000e+00 1.0000000000000000e+00 2.4000000000000000e+01 1.0000000000000000e+01 1.0000000000000000e+00 
266 2 4 2.2559723595316457e+00 0.0000000000000000e+00 1.0000000000000000e+00 2.6000000000000000e+01 1.0000000000000000e+01 1.0000000000000000e+00 
1010 12 2 1.1546442441718426e+01 0.0000000000000000e+00 1.0000000000000000e+00 2.5000000000000000e+01 1.0000000000000000e+01 4.1250007128849564e-01 
1011 13 2 1.1546442441718426e+01 0.0000000000000000e+00 1.0000000000000000e+00 2.7000000000000000e+01 1.0000000000000000e+01 4.1250007128849564e-01 
286 2 4 2.2559723595316457e+00 0.0000000000000000e+00 1.0000000000000000e+00 2.8000000000000000e+01 1.0000000000000000e+01 1.0000000000000000e+00 
1012 14 2 1.1546442441718426e+01 0.0000000000000000e+00 1.0000000000000000e+00 2.9000000000000000e+01 1.0000000000000000e+01 4.1250007128849564e-01 
306 2 4 2.2559723595316457e+00 0.0000000000000000e+00 1.0000000000000000e+00 3.0000000000000000e+01 1.0000000000000000e+01 1.0000000000000000e+00 
326 2 4 2.2559723595316457e+00 0.0000000000000000e+00 1.0000000000000000e+00 3.2000000000000000e+01 1.0000000000000000e+01 1.0000000000000000e+00 
1013 15 2 1.1546442441718426e+01 0.0000000000000000e+00 1.0000000000000000e+00 3.1000000000000000e+01 1.0000000000000000e+01 4.1250007128849564e-01 
1014 16 2 1.1546442441718426e+01 0.0000000000000000e+00 1.0000000000000000e+00 3.3000000000000000e+01 1.0000000000000000e+01 4.1250007128849564e-01 
7 2 4 2.2559723595316457e+00 0.0000000000000000e+00 1.0000000000000000e+00 0.0000000000000000e+00 1.2000000000000000e+01 1.0000000000000000e+00 
27 2 4 2.2559723595316457e+00 0.0000000000000000e+00 1.0000000000000000e+00 2.0000000000000000e+00 1.2000000000000000e+01 1.0000000000000000e+00 
47 2 4 2.2559723595316457e+00 0.0000000000000000e+00 1.0000000000000000e+00 4.0000000000000000e+00 1.2000000000000000e+01 1.0000000000000000e+00 
67 2 4 2.2559723595316457e+00 0.0000000000000000e+00 1.0000000000000000e+00 6.0000000000000000e+00 1.2000000000000000e+01 1.0000000000000000e+00 
1463 465 2 1.1546442441718426e+01 0.0000000000000000e+00 1.0000000000000000e+00 7.0000000000000000e+00 1.2000000000000000e+01 4.1250007128849564e-01 
87 2 4 2.2559723595316457e+00 0.0000000000000000e+00 1.0000000000000000e+00 8.0000000000000000e+00 1.2000000000000000e+01 1.0000000000000000e+00 
1464 466 2 1.1546442441718426e+01 0.0000000000000000e+00 1.0000000000000000e+00 9.0000000000000000e+00 1.2000000000000000e+01 4.1250007128849564e-01 
107 2 4 2.2559723595316457e+00 0.0000000000000000e+00 1.0000000000000000e+00 1.0000000000000000e+01 1.2000000000000000e+01 1.0000000000000000e+00 
1465 467 2 1.1546442441718426e+01 0.0000000000000000e+00 1.0000000000000000e+00 1.1000000000000000e+01 1.2000000000000000e+01 4.1250007128849564e-01 
127 2 4 2.2559723595316457e+00 0.0000000000000000e+00 1.0000000000000000e+00 1.2000000000000000e+01 1.2000000000000000e+01 1.0000000000000000e+00 
1466 468 2 1.1546442441718426e+01 0.0000000000000000e+00 1.0000000000000000e+00 1.3000000000000000e+01 1.2000000000000000e+01 4.1250007128849564e-01 
147 2 4 2.2559723595316457e+00 0.0000000000000000e+00 1.0000000000000000e+00 1.4000000000000000e+01 1.2000000000000000e+01 1.0000000000000000e+00 
1467 469 2 1.1546442441718426e+01 0.0000000000000000e+00 1.0000000000000000e+00 1.5000000000000000e+01 1.2000000000000000e+01 4.1250007128849564e-01 
167 2 4 2.2559723595316457e+00 0.0000000000000000e+00 1.0000000000000000e+00 1.6000000000000000e+01 1.2000000000000000e+01 1.0000000000000000e+00 
1468 470 2 1.1546442441718426e+01 0.0000000000000000e+00 1.0000000000000000e+00 1.7000000000000000e+01 1.2000000000000000e+01 4.1250007128849564e-01 
187 2 4 2.2559723595316457e+00 0.0000000000000000e+00 1.0000000000000000e+00 1.8000000000000000e+01 1.2000000000000000e+01 1.0000000000000000e+00 
1469 471 2 1.1546442441718426e+01 0.0000000000000000e+00 1.0000000000000000e+00 1.9000000000000000e+01 1.2000000000000000e+01 4.1250007128849564e-01 
207 2 4 2.2559723595316457e+00 0.0000000000000000e+00 1.0000000000000000e+00 2.0000000000000000e+01 1.2000000000000000e+01 1.0000000000000000e+00 
1470 472 2 1.1546442441718426e+01 0.0000000000000000e+00 1.0000000000000000e+00 2.1000000000000000e+01 1.2000000000000000e+01 4.1250007128849564e-01 
227 2 4 2.2559723595316457e+00 0.0000000000000000e+00 1.0000000000000000e+00 2.2000000000000000e+01 1.2000000000000000e+01 1.0000000000000000e+00 
1471 473 2 1.1546442441718426e+01 0.0000000000000000e+00 1.0000000000000000e+00 2.3000000000000000e+01 1.2000000000000000e+01 4.1250007128849564e-01 
247 2 4 2.2559723595316457e+00 0.0000000000000000e+00 1.0000000000000000e+00 2.4000000000000000e+01 1.2000000000000000e+01 1.0000000000000000e+00 
267 2 4 2.2559723595316457e+00 0.0000000000000000e+00 1.0000000000000000e+00 2.6000000000000000e+01 1.2000000000000000e+01 1.0000000000000000e+00 
1472 474 2 1.1546442441718426e+01 0.0000000000000000e+00 1.0000000000000000e+00 2.5000000000000000e+01 1.2000000000000000e+01 4.1250007128849564e-01 
1473 475 2 1.1546442441718426e+01 0.0000000000000000e+00 1.0000000000000000e+00 2.7000000000000000e+01 1.2000000000000000e+01 4.1250007128849564e-01 
287 2 4 2.2559723595316457e+00 0.0000000000000000e+00 1.0000000000000000e+00 2.8000000000000000e+01 1.2000000000000000e+01 1.0000000000000000e+00 
1474 476 2 1.1546442441718426e+01 0.0000000000000000e+00 1.0000000000000000e+00 2.9000000000000000e+01 1.2000000000000000e+01 4.1250007128849564e-01 
307 2 4 2.2559723595316457e+00 0.0000000000000000e+00 1.0000000000000000e+00 3.0000000000000000e+01 1.2000000000000000e+01 1.0000000000000000e+00 
327 2 4 2.2559723595316457e+00 0.0000000000000000e+00 1.0000000000000000e+00 3.2000000000000000e+01 1.2000000000000000e+01 1.0000000000000000e+00 
1475 477 2 1.1546442441718426e+01 0.0000000000000000e+00 1.0000000000000000e+00 3.1000000000000000e+01 1.2000000000000000e+01 4.1250007128849564e-01 
1476 478 2 1.1546442441718426e+01 0.0000000000000000e+00 1.0000000000000000e+00 3.3000000000000000e+01 1.2000000000000000e+01 4.1250007128849564e-01 
8 2 4 2.2559723595316457e+00 0.0000000000000000e+00 1.0000000000000000e+00 0.0000000000000000e+00 1.4000000000000000e+01 1.0000000000000000e+00 
28 2 4 2.2559723595316457e+00 0.0000000000000000e+00 1.0000000000000000e+00 2.0000000000000000e+00 1.4000000000000000e+01 1.0000000000000000e+00 
48 2 4 2.2559723595316457e+00 0.0000000000000000e+00 1.0000000000000000e+00 4.0000000000000000e+00 1.4000000000000000e+01 1.0000000000000000e+00 
68 2 4 2.2559723595316457e+00 0.0000000000000000e+00 1.0000000000000000e+00 6.0000000000000000e+00 1.4000000000000000e+01 1.0000000000000000e+00 
1925 927 2 1.1546442441718426e+01 0.0000000000000000e+00 1.0000000000000000e+00 7.0000000000000000e+00 1.4000000000000000e+01 4.1250007128849564e-01 
88 2 4 2.2559723595316457e+00 0.0000000000000000e+00 1.0000000000000000e+00 8.0000000000000000e+00 1.4000000000000000e+01 1.0000000000000000e+00 
1926 928 2 1.1546442441718426e+01 0.0000000000000000e+00 1.0000000000000000e+00 9.0000000000000000e+00 1.4000000000000000e+01 4.1250007128849564e-01 
108 2 4 2.2559723595316457e+00 0.0000000000000000e+00 1.0000000000000000e+00 1.0000000000000000e+01 1.4000000000000000e+01 1.0000000000000000e+00 
1927 929 2 1.1546442441718426e+01 0.0000000000000000e+00 1.0000000000000000e+00 1.1000000000000000e+01 1.4000000000000000e+01 4.1250007128849564e-01 
128 2 4 2.2559723595316457e+00 0.0000000000000000e+00 1.0000000000000000e+00 1.2000000000000000e+01 1.4000000000000000e+01 1.0000000000000000e+00 
1928 930 2 1.1546442441718426e+01 0.0000000000000000e+00 1.0000000000000000e+00 1.3000000000000000e+01 1.4000000000000000e+01 4.1250007128849564e-01 
148 2 4 2.2559723595316457e+00 0.0000000000000000e+00 1.0000000000000000e+00 1.4000000000000000e+01 1.4000000000000000e+01 1.0000000000000000e+00 
1929 931 2 1.1546442441718426e+01 0.0000000000000000e+00 1.0000000000000000e+00 1.5000000000000000e+01 1.4000000000000000e+01 4.1250007128849564e-01 
168 2 4 2.2559723595316457e+00 0.0000000000000000e+00 1.0000000000000000e+00 1.6000000000000000e+01 1.4000000000000000e+01 1.0000000000000000e+00 
1930 932 2 1.1546442441718426e+01 0.0000000000000000e+00 1.0000000000000000e+00 1.7000000000000000e+01 1.4000000000000000e+01 4.1250007128849564e-01 
188 2 4 2.2559723595316457e+00 0.0000000000000000e+00 1.0000000000000000e+00 1.8000000000000000e+01 1.4000000000000000e+01 1.0000000000000000e+00 
1931 933 2 1.1546442441718426e+01 0.0000000000000000e+00 1.0000000000000000e+00 1.9000000000000000e+01 1.4000000000000000e+01 4.1250007128849564e-01 
208 2 4 2.2559723595316457e+00 0.0000000000000000e+00 1.0000000000000000e+00 2.0000000000000000e+01 1.4000000000000000e+01 1.0000000000000000e+00 
1932 934 2 1.1546442441718426e+01 0.0000000000000000e+00 1.0000000000000000e+00 2.1000000000000000e+01 1.4000000000000000e+01 4.1250007128849564e-01 
228 2 4 2.2559723595316457e+00 0.0000000000000000e+00 1.0000000000000000e+00 2.2000000000000000e+01 1.4000000000000000e+01 1.0000000000000000e+00 
1933 935 2 1.1546442441718426e+01 0.0000000000000000e+00 1.0000000000000000e+00 2.3000000000000000e+01 1.4000000000000000e+01 4.1250007128849564e-01 
248 2 4 2.2559723595316457e+00 0.0000000000000000e+00 1.0000000000000000e+00 2.4000000000000000e+01 1.4000000000000000e+01 1.0000000000000000e+00 
268 2 4 2.2559723595316457e+00 0.0000000000000000e+00 1.0000000000000000e+00 2.6000000000000000e+01 1.4000000000000000e+01 1.0000000000000000e+00 
1934 936 2 1.1546442441718426e+01 0.0000000000000000e+00 1.0000000000000000e+00 2.5000000000000000e+01 1.4000000000000000e+01 4.1250007128849564e-01 
1935 937 2 1.1546442441718426e+01 0.0000000000000000e+00 1.0000000000000000e+00 2.7000000000000000e+01 1.4000000000000000e+01 4.1250007128849564e-01 
288 2 4 2.2559723595316457e+00 0.0000000000000000e+00 1.0000000000000000e+00 2.8000000000000000e+01 1.4000000000000000e+01 1.0000000000000000e+00 
1936 938 2 1.1546442441718426e+01 0.0000000000000000e+00 1.0000000000000000e+00 2.9000000000000000e+01 1.4000000000000000e+01 4.1250007128849564e-01 
308 2 4 2.2559723595316457e+00 0.0000000000000000e+00 1.0000000000000000e+00 3.0000000000000000e+01 1.4000000000000000e+01 1.0000000000000000e+00 
328 2 4 2.2559723595316457e+00 0.0000000000000000e+00 1.0000000000000000e+00 3.2000000000000000e+01 1.4000000000000000e+01 1.0000000000000000e+00 
1937 939 2 1.1546442441718426e+01 0.0000000000000000e+00 1.0000000000000000e+00 3.1000000000000000e+01 1.4000000000000000e+01 4.1250007128849564e-01 
1938 940 2 1.1546442441718426e+01 0.0000000000000000e+00 1.0000000000000000e+00 3.3000000000000000e+01 1.4000000000000000e+01 4.1250007128849564e-01 
9 2 4 2.2559723595316457e+00 0.0000000000000000e+00 1.0000000000000000e+00 0.0000000000000000e+00 1.6000000000000000e+01 1.0000000000000000e+00 
29 2 4 2.2559723595316457e+00 0.0000000000000000e+00 1.0000000000000000e+00 2.0000000000000000e+00 1.6000000000000000e+01 1.0000000000000000e+00 
49 2 4 2.2559723595316457e+00 0.0000000000000000e+00 1.0000000000000000e+00 4.0000000000000000e+00 1.6000000000000000e+01 1.0000000000000000e+00 
69 2 4 2.2559723595316457e+00 0.0000000000000000e+00 1.0000000000000000e+00 6.0000000000000000e+00 1.6000000000000000e+01 1.0000000000000000e+00 
2387 1389 2 1.1546442441718426e+01 0.0000000000000000e+00 1.0000000000000000e+00 7.0000000000000000e+00 1.6000000000000000e+01 4.1250007128849564e-01 
89 2 4 2.2559723595316457e+00 0.0000000000000000e+00 1.0000000000000000e+00 8.0000000000000000e+00 1.6000000000000000e+01 1.0000000000000000e+00 
2388 1390 2 1.1546442441718426e+01 0.0000000000000000e+00 1.0000000000000000e+00 9.0000000000000000e+00 1.6000000000000000e+01 4.1250007128849564e-01 
109 2 4 2.2559723595316457e+00 0.0000000000000000e+00 1.0000000000000000e+00 1.0000000000000000e+01 1.6000000000000000e+01 1.0000000000000000e+00 
2389 1391 2 1.1546442441718426e+01 0.0000000000000000e+00 1.0000000000000000e+00 1.1000000000000000e+01 1.6000000000000000e+01 4.1250007128849564e-01 
129 2 4 2.2559723595316457e+00 0.0000000000000000e+00 1.0000000000000000e+00 1.2000000000000000e+01 1.6000000000000000e+01 1.0000000000000000e+00 
2390 1392 2 1.1546442441718426e+01 0.0000000000000000e+00 1.0000000000000000e+00 1.3000000000000000e+01 1.6000000000000000e+01 4.1250007128849564e-01 
149 2 4 2.2559723595316457e+00 0.0000000000000000e+00 1.0000000000000000e+00 1.4000000000000000e+01 1.6000000000000000e+01 1.0000000000000000e+00 
2391 1393 2 1.1546442441718426e+01 0.0000000000000000e+00 1.0000000000000000e+00 1.5000000000000000e+01 1.6000000000000000e+01 4.1250007128849564e-01 
169 2 4 2.2559723595316457e+00 0.0000000000000000e+00 1.0000000000000000e+00 1.6000000000000000e+01 1.6000000000000000e+01 1.0000000000000000e+00 
2392 1394 2 1.1546442441718426e+01 0.0000000000000000e+00 1.0000000000000000e+00 1.7000000000000000e+01 1.6000000000000000e+01 4.1250007128849564e-01 
189 2 4 2.2559723595316457e+00 0.0000000000000000e+00 1.0000000000000000e+00 1.8000000000000000e+01 1.6000000000000000e+01 1.0000000000000000e+00 
2393 1395 2 1.1546442441718426e+01 0.0000000000000000e+00 1.0000000000000000e+00 1.9000000000000000e+01 1.6000000000000000e+01 4.1250007128849564e-01 
209 2 4 2.2559723595316457e+00 0.0000000000000000e+00 1.0000000000000000e+00 2.0000000000000000e+01 1.6000000000000000e+01 1.0000000000000000e+00 
2394 1396 2 1.1546442441718426e+01 0.0000000000000000e+00 1.0000000000000000e+00 2.1000000000000000e+01 1.6000000000000000e+01 4.1250007128849564e-01 
229 2 4 2.2559723595316457e+00 0.0000000000000000e+00 1.0000000000000000e+00 2.2000000000000000e+01 1.6000000000000000e+01 1.0000000000000000e+00 
2395 1397 2 1.1546442441718426e+01 0.0000000000000000e+00 1.0000000000000000e+00 2.3000000000000000e+01 1.6000000000000000e+01 4.1250007128849564e-01 
249 2 4 2.2559723595316457e+00 0.0000000000000000e+00 1.0000000000000000e+00 2.4000000000000000e+01 1.6000000000000000e+01 1.0000000000000000e+00 
269 2 4 2.2559723595316457e+00 0.0000000000000000e+00 1.0000000000000000e+00 2.6000000000000000e+01 1.6000000000000000e+01 1.0000000000000000e+00 