LAMMPS data file via write_data, version 30 Jul 2016, timestep = 50400000

4620 atoms
8 atom types

0.0000000000000000e+00 1.0000000000000000e+02 xlo xhi
0.0000000000000000e+00 4.0000000000000000e+01 ylo yhi
0.0000000000000000e+00 4.0000000000000000e+01 zlo zhi

Masses

1 3.896
2 5.36
3 20.064
4 8.378
5 8.378
6 8.378
7 8.378
8 8.378

Atoms # meso-molecular

2062 2063 2 1.0280000000000042e+00 -1.4759105421042764e+03 1.0000000000000000e+00 1.2891551403104116e+00 2.0900009372889210e+00 1.2919968090648114e+01 
2522 2523 2 1.0280000000000022e+00 -3.3966209948028463e+03 1.0000000000000000e+00 1.2851039711363768e+00 2.0985664121239940e+00 1.2919962611562198e+01 
631 632 2 1.0280000000000038e+00 6.6614327402183199e+02 1.0000000000000000e+00 1.2703150066100417e+00 2.1191421919884736e+00 1.2979886845674276e+01 
715 716 2 1.0280000000000014e+00 6.6614236685532933e+02 1.0000000000000000e+00 1.2703000659398003e+00 2.1191136441710836e+00 1.2860014622480991e+01 
3446 3447 2 1.0280000000000009e+00 -6.0868139924196339e+02 1.0000000000000000e+00 1.2612544898799376e+00 2.1427356741835282e+00 1.2919941068540899e+01 
1141 1142 2 1.0279999999999894e+00 3.8333631393612650e+03 1.0000000000000000e+00 1.6359935000665673e+00 1.9833434660152435e+01 1.3019867741417123e+01 
1010 1011 2 1.0280000000000071e+00 -3.2198598914087679e+03 1.0000000000000000e+00 1.3255686253356394e+00 1.8921642887737818e+01 1.3090869298512601e+01 
1262 1263 2 1.0280000000000087e+00 -3.2198595900868486e+03 1.0000000000000000e+00 1.3255609718758468e+00 1.8921647405437145e+01 1.2948856940681418e+01 
3907 3908 2 1.0280000000000180e+00 -1.1758153478382624e+03 1.0000000000000000e+00 1.0027458736245283e+00 1.8365056748429549e+01 1.3019851688828465e+01 
1891 1892 2 1.0279999999999947e+00 -3.6846563708466706e+03 1.0000000000000000e+00 4.2328878888879179e-02 1.7346435237371434e+01 1.3027629630943402e+01 
2227 2228 2 1.0279999999999954e+00 -3.6846570863945044e+03 1.0000000000000000e+00 4.2305392901543365e-02 1.7346424168107553e+01 1.3012139339749218e+01 
1138 1139 2 1.0280000000000098e+00 -2.2090133984467718e+02 1.0000000000000000e+00 1.7140209304801861e-02 1.7332430662460261e+01 1.3020050487365262e+01 
313 314 2 1.0280000000000009e+00 1.2260963283125302e+03 1.0000000000000000e+00 3.2566650012576069e+01 1.6234311948768262e+01 2.5492666427656200e+01 
146 147 2 1.0280000000000009e+00 1.3145813363256329e+03 1.0000000000000000e+00 3.2652447508791539e+01 1.6120227752716353e+01 2.5367012587795887e+01 
1993 1994 2 1.0280000000000009e+00 7.3447704628979909e+02 1.0000000000000000e+00 3.2918562184027316e+01 1.6061534340439682e+01 2.5139485000352966e+01 
776 777 2 1.0279999999999947e+00 -2.2079899517815375e+03 1.0000000000000000e+00 3.3287083629175797e+01 1.5962145368071980e+01 2.5447479617120926e+01 
1642 1643 2 1.0280000000000045e+00 8.3686431341672342e+03 1.0000000000000000e+00 5.3362069259032863e-01 1.5262991333904960e+01 2.7553932384346197e+01 
4328 4329 2 1.0280000000000089e+00 -3.8584789705524590e+03 1.0000000000000000e+00 6.4789292365680165e-02 1.4851917159152762e+01 2.7099264633257754e+01 
903 904 2 1.0280000000000000e+00 6.0343516739778579e+02 1.0000000000000000e+00 3.2991220430776636e+01 1.6416875664226755e+01 2.6173365405584288e+01 
4038 4039 2 1.0279999999999911e+00 1.7471149855967628e+03 1.0000000000000000e+00 2.0227310176032098e+00 1.2379857648075600e+01 3.1126183638931565e+01 
4420 4421 2 1.0280000000000058e+00 -1.3799685319660671e+03 1.0000000000000000e+00 2.7055788296244176e+00 1.2464925567175927e+01 3.1361586595856686e+01 
426 427 2 1.0280000000000016e+00 -2.2942786088196763e+03 1.0000000000000000e+00 2.6195773573522754e+00 1.2565091647695084e+01 3.1320102908128028e+01 
1554 1555 2 1.0280000000000231e+00 -1.3567245768027710e+03 1.0000000000000000e+00 4.9317882641528962e-02 1.4144997076057621e+01 3.1272137775123429e+01 
3443 3444 2 1.0280000000000185e+00 1.1545218938039996e+02 1.0000000000000000e+00 4.0008322932292367e-01 1.4729311821550443e+01 2.9069316976989601e+01 
2616 2617 2 1.0280000000000005e+00 -1.3123238798163143e+03 1.0000000000000000e+00 2.9271008152961311e+01 1.6626432112814065e+01 3.0420468058884655e+01 
2380 2381 2 1.0280000000000002e+00 5.9742823979983132e+03 1.0000000000000000e+00 3.0145942917911960e+01 1.6644188300182815e+01 3.1123861006517537e+01 
1656 1657 2 1.0279999999999991e+00 -2.9100366829797194e+03 1.0000000000000000e+00 2.9339153056715730e+01 1.6950024346234919e+01 2.9389127383045587e+01 
2414 2415 2 1.0280000000000007e+00 -2.8175445085905112e+03 1.0000000000000000e+00 3.1494512460454569e+01 1.6780756737784237e+01 3.0945651169327469e+01 
1570 1571 2 1.0280000000000007e+00 -2.9145729420651205e+03 1.0000000000000000e+00 3.1585140171439043e+01 1.6900423894545643e+01 3.0185184669731154e+01 
1405 1406 2 1.0280000000000000e+00 -2.9320514539996857e+03 1.0000000000000000e+00 3.1777183209311019e+01 1.6914852878452304e+01 3.0726926410659544e+01 
395 396 2 1.0279999999999991e+00 1.6555817049311122e+03 1.0000000000000000e+00 2.7316903081693667e+01 1.8149639560425324e+01 3.0511855471722630e+01 
4553 4554 2 1.0279999999999994e+00 1.6532333308820203e+03 1.0000000000000000e+00 2.7340082936848827e+01 1.8301744274306603e+01 3.0592838134296084e+01 
2446 2447 2 1.0280000000000002e+00 8.1446155249202934e+02 1.0000000000000000e+00 2.7427088675458581e+01 1.7731333964623087e+01 3.0143307812890033e+01 
1984 1985 2 1.0280000000000000e+00 8.0775004140649799e+02 1.0000000000000000e+00 2.7477896155177696e+01 1.8751484566670189e+01 3.0289244191685587e+01 
733 734 2 1.0279999999999996e+00 8.1023032509994064e+03 1.0000000000000000e+00 2.8575013475978775e+01 1.8830917113094273e+01 3.1295769725128590e+01 
3967 3968 2 1.0280000000000005e+00 8.1008354576817746e+03 1.0000000000000000e+00 2.8277539357855357e+01 1.7614507254515125e+01 3.1299243382915655e+01 
3964 3965 2 1.0280000000000007e+00 1.9779241151136239e+03 1.0000000000000000e+00 2.9340117717644535e+01 1.7205562872888983e+01 2.9198278449084707e+01 
2030 2031 2 1.0280000000000007e+00 -2.2161807573921669e+03 1.0000000000000000e+00 2.9351252624007266e+01 1.7215164753118980e+01 2.9193225456482921e+01 
730 731 2 1.0280000000000000e+00 1.9738533393054477e+03 1.0000000000000000e+00 2.9539804515959524e+01 1.9361175891742345e+01 2.9369744787755081e+01 
2492 2493 2 1.0279999999999998e+00 -2.2226842424118386e+03 1.0000000000000000e+00 2.9569879445867482e+01 1.9356293121006061e+01 2.9369077670330448e+01 
3042 3043 2 1.0280000000000002e+00 -2.9104017058053996e+03 1.0000000000000000e+00 2.9490625204361585e+01 1.9535802822705197e+01 2.9547986376226103e+01 
2154 2155 2 1.0280000000000018e+00 -1.3121887380239687e+03 1.0000000000000000e+00 2.9579332654956232e+01 1.9674365956462037e+01 3.0500416406020317e+01 
2619 2620 2 1.0280000000000000e+00 5.4864005589713315e+02 1.0000000000000000e+00 3.2135170158265062e+01 1.7219053881331490e+01 3.0234212142210080e+01 
3374 3375 2 1.0279999999999974e+00 3.5319894255559025e+03 1.0000000000000000e+00 3.2373674367387501e+01 1.9002977081486460e+01 2.9627884929355396e+01 
1918 1919 2 1.0279999999999996e+00 5.9757993784591599e+03 1.0000000000000000e+00 3.0682175014510527e+01 1.9518020672362788e+01 3.0909862449249559e+01 
2956 2957 2 1.0279999999999998e+00 -2.9136174182665191e+03 1.0000000000000000e+00 3.1882461325828487e+01 1.9633985381746765e+01 3.0212460452273284e+01 
2157 2158 2 1.0280000000000002e+00 5.5062332770967396e+02 1.0000000000000000e+00 3.2922983544056784e+01 1.9833404958298491e+01 2.9922429607709262e+01 
845 846 2 1.0280000000000000e+00 -6.0640889504713891e+02 1.0000000000000000e+00 2.7627099028929805e+00 1.2448158535191705e+01 3.1432509621317465e+01 
3657 3658 2 1.0280000000000007e+00 -3.0708915334974972e+03 1.0000000000000000e+00 2.1909536340887330e+00 1.1543821837276207e+01 3.3518050333473774e+01 
3237 3238 2 1.0279999999999869e+00 -3.0708864430693638e+03 1.0000000000000000e+00 2.1928726567549717e+00 1.1544014714934418e+01 3.2773147373115002e+01 
2439 2440 2 1.0280000000000049e+00 -1.5971155226765068e+03 1.0000000000000000e+00 6.0301198204732154e-01 1.2027120879838023e+01 3.2718427383361046e+01 
2607 2608 2 1.0280000000000078e+00 -1.5971128422746679e+03 1.0000000000000000e+00 6.0127892041710795e-01 1.2025881282704386e+01 3.3563055466943688e+01 
302 303 2 1.0280000000000049e+00 1.6889317722315755e+03 1.0000000000000000e+00 2.7832814941868440e+00 1.2413637186220386e+01 3.1453416340506323e+01 
3361 3362 2 1.0280000000000302e+00 -5.1675806412159022e+02 1.0000000000000000e+00 1.6635241926096062e-01 1.5538860077610932e+01 3.3051297805299441e+01 
3529 3530 2 1.0280000000000318e+00 -5.1677330594270745e+02 1.0000000000000000e+00 1.6563086656984138e-01 1.5538938985259851e+01 3.3222322285080843e+01 
2716 2717 2 1.0280000000000054e+00 5.9813469343361339e+03 1.0000000000000000e+00 2.9799569639614081e+01 1.6113501132291955e+01 3.3567802238034695e+01 
2666 2667 2 1.0279999999999985e+00 -2.8152213974010274e+03 1.0000000000000000e+00 3.0082040170295031e+01 1.5918724432994937e+01 3.3605950427855554e+01 
1825 1826 2 1.0279999999999985e+00 -2.9215470165212309e+03 1.0000000000000000e+00 3.0177841186079650e+01 1.5827520545977899e+01 3.3708824137108301e+01 
1024 1025 2 1.0279999999999951e+00 -2.6210399813434506e+03 1.0000000000000000e+00 3.0327320611816980e+01 1.7588730764971007e+01 3.2927393704903494e+01 
3334 3335 2 1.0279999999999989e+00 -2.6188928926845647e+03 1.0000000000000000e+00 3.0469250880565447e+01 1.7846747477328496e+01 3.3425116323149282e+01 
3586 3587 2 1.0279999999999994e+00 -2.6266647785605219e+03 1.0000000000000000e+00 3.1436353335530409e+01 1.9236735040320021e+01 3.1620424011584607e+01 
1276 1277 2 1.0280000000000016e+00 -2.6233659709249287e+03 1.0000000000000000e+00 3.2143675233298737e+01 1.8134300372231259e+01 3.1611388867980786e+01 
2204 2205 2 1.0280000000000009e+00 -2.8161614982090514e+03 1.0000000000000000e+00 3.3048772120611716e+01 1.9657692588890576e+01 3.3735098225159120e+01 
3786 3787 2 1.0280000000000045e+00 1.7470902191474897e+03 1.0000000000000000e+00 2.0192340815086145e+00 1.2378582076125982e+01 3.5166047981471479e+01 
509 510 2 1.0280000000000047e+00 -6.0640039216767946e+02 1.0000000000000000e+00 2.7592630667058131e+00 1.2446314264738874e+01 3.4860162586935353e+01 
4336 4337 2 1.0280000000000011e+00 -1.3799547523532342e+03 1.0000000000000000e+00 2.7020737870014022e+00 1.2462862194656456e+01 3.4931128110961843e+01 
6 7 2 1.0279999999999980e+00 -2.2942799673714153e+03 1.0000000000000000e+00 2.6158445929582155e+00 1.2563467112714472e+01 3.4972796704915460e+01 
1722 1723 2 1.0280000000000347e+00 -1.3567552539649132e+03 1.0000000000000000e+00 4.7379564130143326e-02 1.4144812631894967e+01 3.5012307430561322e+01 
134 135 2 1.0279999999999863e+00 1.6889302315824998e+03 1.0000000000000000e+00 2.7798116970601252e+00 1.2411717612667678e+01 3.4839267006462613e+01 
483 484 2 1.0280000000000011e+00 6.0547347702574211e+02 1.0000000000000000e+00 2.8128091228994769e+01 1.6672731706282203e+01 3.6647949337657302e+01 
2614 2615 2 1.0280000000000016e+00 8.1130056809885502e+02 1.0000000000000000e+00 2.9290466242920722e+01 1.6916917346405690e+01 3.5404500226900439e+01 
2448 2449 2 1.0279999999999998e+00 -1.3120461570895395e+03 1.0000000000000000e+00 3.0944515739561826e+01 1.5482642877736705e+01 3.4316042540572113e+01 
1654 1655 2 1.0279999999999991e+00 -2.9153393954488465e+03 1.0000000000000000e+00 3.1964529904459514e+01 1.5614299800292811e+01 3.4709207589039984e+01 
1572 1573 2 1.0279999999999963e+00 -2.9138567139120778e+03 1.0000000000000000e+00 3.2148363243570572e+01 1.5770140269001814e+01 3.5372561154503074e+01 
2451 2452 2 1.0279999999999963e+00 5.4972553087670428e+02 1.0000000000000000e+00 3.2266644233467204e+01 1.5792770217545069e+01 3.4911086680979466e+01 
3880 3881 2 1.0280000000000131e+00 1.9738065767829623e+03 1.0000000000000000e+00 3.2445954082365382e+01 1.6215507693910499e+01 3.5654014813476685e+01 
2114 2115 2 1.0279999999999836e+00 -2.2193202544041478e+03 1.0000000000000000e+00 3.2608389573468415e+01 1.6343465036526528e+01 3.5699484153242452e+01 
59 60 2 1.0279999999999969e+00 1.6548274654207585e+03 1.0000000000000000e+00 2.9057668942835704e+01 1.7486095920485965e+01 3.4527444627972947e+01 
4217 4218 2 1.0280000000000000e+00 1.6755451607033590e+03 1.0000000000000000e+00 2.9428257742566146e+01 1.8323312364449752e+01 3.4346409029575938e+01 
2152 2153 2 1.0280000000000009e+00 8.2547881176404917e+02 1.0000000000000000e+00 2.9530094448804114e+01 1.8548732925484000e+01 3.4627175569378409e+01 
2158 2159 2 1.0280000000000036e+00 3.2977409009201892e+02 1.0000000000000000e+00 2.9783616594735783e+01 1.8427204724879495e+01 3.5655403178789221e+01 
3717 3718 2 1.0279999999999998e+00 6.0784243184973877e+02 1.0000000000000000e+00 3.0671232675398191e+01 1.9707468756937732e+01 3.7035164596671578e+01 
4218 4219 2 1.0280000000000011e+00 2.0242789750518832e+03 1.0000000000000000e+00 3.2854178988965494e+01 1.9059336626461722e+01 3.6893545319836271e+01 
614 615 2 1.0280000000000016e+00 -1.0940883568858462e+03 1.0000000000000000e+00 3.3005705645863415e+01 1.9518375903694697e+01 3.4734014235590010e+01 
2620 2621 2 1.0280000000000062e+00 3.3342557394116386e+02 1.0000000000000000e+00 3.3078326857088946e+01 1.7486989856184227e+01 3.6419610834012765e+01 
1558 1559 2 1.0280000000000122e+00 8.3686431331118420e+03 1.0000000000000000e+00 5.3574106104438002e-01 1.5270297824960810e+01 3.8725663192186524e+01 
3527 3528 2 1.0280000000000160e+00 1.1545460880831226e+02 1.0000000000000000e+00 4.0311558916086848e-01 1.4735881632891584e+01 3.7208527129521372e+01 
4412 4413 2 1.0280000000000014e+00 -3.8584809063402845e+03 1.0000000000000000e+00 6.7419375399806483e-02 1.4859921444514852e+01 3.9180053469817537e+01 
145 146 2 1.0280000000000009e+00 1.2245960625628888e+03 1.0000000000000000e+00 2.7833786944298584e+01 1.6342352468725320e+01 3.7533693381553192e+01 
314 315 2 1.0280000000000011e+00 1.3131796278343591e+03 1.0000000000000000e+00 2.7866941312507294e+01 1.6306785119190071e+01 3.7600095462925523e+01 
2161 2162 2 1.0280000000000007e+00 7.3353697565311813e+02 1.0000000000000000e+00 2.7934999281401794e+01 1.6290284955526730e+01 3.7714962676771826e+01 
485 486 2 1.0279999999999982e+00 2.5073605367921039e+02 1.0000000000000000e+00 2.8461872395620599e+01 1.6499848255589342e+01 3.8040810487742746e+01 
608 609 2 1.0280000000000000e+00 -2.2069467922692393e+03 1.0000000000000000e+00 2.8952025435197530e+01 1.6123239820472204e+01 3.7160263177620628e+01 
148 149 2 1.0279999999999971e+00 1.4094084418466205e+03 1.0000000000000000e+00 2.9705322750295654e+01 1.7458641852983195e+01 3.7569495621974326e+01 
4306 4307 2 1.0280000000000022e+00 1.4081260665686455e+03 1.0000000000000000e+00 3.0253699381049142e+01 1.7911452209737888e+01 3.7740667781122887e+01 
4303 4304 2 1.0280000000000011e+00 1.2245223869652259e+03 1.0000000000000000e+00 3.0495189866114288e+01 1.8942462326777289e+01 3.8242713026806761e+01 
4472 4473 2 1.0280000000000011e+00 1.3130537559221229e+03 1.0000000000000000e+00 3.0709711519210380e+01 1.8981301683731409e+01 3.8340444663156433e+01 
2623 2624 2 1.0279999999999976e+00 7.3346916617392935e+02 1.0000000000000000e+00 3.0982232417610458e+01 1.8972066815084776e+01 3.8396587699944881e+01 
3719 3720 2 1.0279999999999900e+00 2.5130208074358239e+02 1.0000000000000000e+00 3.2044905783914807e+01 1.8795063074861066e+01 3.7931425281709672e+01 
3842 3843 2 1.0280000000000002e+00 -2.2055055329556353e+03 1.0000000000000000e+00 3.2386749929226269e+01 1.9166593854521697e+01 3.7484364868972207e+01 
3320 3321 2 1.0280000000000020e+00 -3.2198587654089433e+03 1.0000000000000000e+00 1.3253669217701818e+00 2.1175354480140214e+01 1.3090847104639376e+01 
3572 3573 2 1.0280000000000076e+00 -3.2198584436879833e+03 1.0000000000000000e+00 1.3253562665467220e+00 2.1175346327993239e+01 1.2948921244223408e+01 
3451 3452 2 1.0279999999999863e+00 3.8333628803232887e+03 1.0000000000000000e+00 1.6359304979370684e+00 2.0263785536699281e+01 1.3019871248164407e+01 
673 674 2 1.0280000000000000e+00 -1.1758133834616183e+03 1.0000000000000000e+00 1.0025858208556766e+00 2.1731844357243958e+01 1.3019882539346373e+01 
2353 2354 2 1.0279999999999982e+00 -3.6846586864339961e+03 1.0000000000000000e+00 4.2125714680548883e-02 2.2750873351979887e+01 1.3027745091092926e+01 
2689 2690 2 1.0279999999999960e+00 -3.6846593090435990e+03 1.0000000000000000e+00 4.2101925562196434e-02 2.2750885314490127e+01 1.3012226814503114e+01 
3448 3449 2 1.0279999999999994e+00 -2.2090285989533595e+02 1.0000000000000000e+00 1.7208867375790929e-02 2.2764734010044577e+01 1.3020177733948795e+01 
2060 2061 2 1.0280000000000029e+00 -3.3966215026671989e+03 1.0000000000000000e+00 1.2851266694104639e+00 3.7551656984496525e+01 1.2920406232739206e+01 
2524 2525 2 1.0280000000000047e+00 -1.4759120356172821e+03 1.0000000000000000e+00 1.2891789309872608e+00 3.7560228964500077e+01 1.2920410800080365e+01 
1136 1137 2 1.0279999999999989e+00 -6.0868097369750421e+02 1.0000000000000000e+00 1.2612266932206750e+00 3.7507385194673326e+01 1.2920395734297129e+01 
3949 3950 2 1.0279999999999967e+00 6.6613968393590062e+02 1.0000000000000000e+00 1.2702577240900166e+00 3.7530993027451586e+01 1.2860391679620792e+01 
3865 3866 2 1.0280000000000065e+00 6.6614158283306119e+02 1.0000000000000000e+00 1.2702666981722672e+00 3.7530962697287052e+01 1.2980397249786366e+01 
3028 3029 2 1.0280000000000145e+00 8.3686437155174917e+03 1.0000000000000000e+00 5.3344971499597760e-01 2.4875254906844912e+01 2.7550449672378395e+01 
170 171 2 1.0280000000000020e+00 -3.8584781035990736e+03 1.0000000000000000e+00 6.4521612702279643e-02 2.5286333985107589e+01 2.7095632067518096e+01 
1133 1134 2 1.0280000000000120e+00 1.1545318250535945e+02 1.0000000000000000e+00 3.9916729408743118e-01 2.5408801800057518e+01 2.9065697127239854e+01 
4584 4585 2 1.0280000000000047e+00 -2.2942757547047686e+03 1.0000000000000000e+00 2.6161034578272591e+00 2.7572318395918227e+01 3.1315969856837334e+01 
262 263 2 1.0280000000000025e+00 -1.3799637964186622e+03 1.0000000000000000e+00 2.7020269419321692e+00 2.7672391988616607e+01 3.1357406089894212e+01 
4079 4080 2 1.0280000000000025e+00 -6.0641227231906691e+02 1.0000000000000000e+00 2.7591166936460811e+00 2.7689157354697745e+01 3.1428312459002075e+01 
804 805 2 1.0279999999999971e+00 1.7471195714018381e+03 1.0000000000000000e+00 2.0196248953020111e+00 2.7757712960309433e+01 3.1121296830217489e+01 
2940 2941 2 1.0280000000000187e+00 -1.3567252650149890e+03 1.0000000000000000e+00 4.6320859839729910e-02 2.5996795925511581e+01 3.1267566191020272e+01 
2254 2255 2 1.0279999999999987e+00 5.9783235863374666e+03 1.0000000000000000e+00 3.1656112121074859e+01 2.0030223256956852e+01 3.3253638031706750e+01 
1986 1987 2 1.0279999999999998e+00 -1.3130141985116197e+03 1.0000000000000000e+00 3.1122029690622519e+01 2.0682484068794718e+01 3.4178881243894850e+01 
1051 1052 2 1.0280000000000316e+00 -5.1676286195865009e+02 1.0000000000000000e+00 1.6593096007388558e-01 2.4604236604411838e+01 3.3049127394126657e+01 
1219 1220 2 1.0280000000000282e+00 -5.1677413387980596e+02 1.0000000000000000e+00 1.6520310248664799e-01 2.4604395306630810e+01 3.3220168536399996e+01 
1977 1978 2 1.0279999999999969e+00 -1.5971140893335992e+03 1.0000000000000000e+00 5.9973957958545887e-01 2.8117120053512455e+01 3.2717923065832501e+01 
2145 2146 2 1.0280000000000118e+00 -1.5971113066376865e+03 1.0000000000000000e+00 5.9803264466134542e-01 2.8118331277912979e+01 3.3559687241508868e+01 
4460 4461 2 1.0280000000000036e+00 1.6889274709183433e+03 1.0000000000000000e+00 2.7796891300855298e+00 2.7723657282728748e+01 3.1449189030696679e+01 
927 928 2 1.0279999999999943e+00 -3.0708880414973337e+03 1.0000000000000000e+00 2.1894938713390242e+00 2.8595020704212320e+01 3.2767892586395568e+01 
1347 1348 2 1.0279999999999998e+00 -3.0708870243706151e+03 1.0000000000000000e+00 2.1876146400711143e+00 2.8595215759703748e+01 3.3513361542453069e+01 
646 647 2 1.0280000000000009e+00 1.9749641108905114e+03 1.0000000000000000e+00 3.0505326711616554e+01 2.0096774982086213e+01 3.5355911500120328e+01 
2576 2577 2 1.0280000000000014e+00 -2.2182367341304280e+03 1.0000000000000000e+00 3.0668717476939218e+01 2.0004353311923968e+01 3.5758192582396546e+01 
2958 2959 2 1.0279999999999991e+00 -2.9127180006425451e+03 1.0000000000000000e+00 3.0901673062261580e+01 2.0673667752202462e+01 3.4796026160832419e+01 
3040 3041 2 1.0280000000000000e+00 -2.9166344027159557e+03 1.0000000000000000e+00 3.2069913587724997e+01 2.1018974688224116e+01 3.4434547483109213e+01 
1989 1990 2 1.0279999999999994e+00 5.4860238613237061e+02 1.0000000000000000e+00 3.2629496095363905e+01 2.0899692635228288e+01 3.4623850104648490e+01 
178 179 2 1.0280000000000014e+00 -1.3799544469364955e+03 1.0000000000000000e+00 2.7000400782774228e+00 2.7674026471478520e+01 3.4925569939067884e+01 
3743 3744 2 1.0279999999999974e+00 -6.0640106211559873e+02 1.0000000000000000e+00 2.7570120847120259e+00 2.7690555475558568e+01 3.4854678810794368e+01 
552 553 2 1.0280000000000296e+00 1.7470910435155565e+03 1.0000000000000000e+00 2.0180298392545861e+00 2.7757888370318074e+01 3.5162316446548537e+01 
4292 4293 2 1.0279999999999974e+00 1.6889284258985576e+03 1.0000000000000000e+00 2.7775089428722621e+00 2.7725083068835360e+01 3.4833843423229347e+01 
4164 4165 2 1.0279999999999949e+00 -2.2942821566274224e+03 1.0000000000000000e+00 2.6140331713108171e+00 2.7573560232249605e+01 3.4967216105616970e+01 
3108 3109 2 1.0280000000000247e+00 -1.3567562270702833e+03 1.0000000000000000e+00 4.4169360571044015e-02 2.5997715202378796e+01 3.5012556145159600e+01 
2944 2945 2 1.0280000000000216e+00 8.3686442974867659e+03 1.0000000000000000e+00 5.3561493663855186e-01 2.4868330753299329e+01 3.8724783444702211e+01 
1217 1218 2 1.0280000000000082e+00 1.1545402503901275e+02 1.0000000000000000e+00 4.0232442701907906e-01 2.5402674681079329e+01 3.7208025532982340e+01 
254 255 2 1.0280000000000014e+00 -3.8584795353428672e+03 1.0000000000000000e+00 6.7202382510210656e-02 2.5278778585771189e+01 3.9179367575315396e+01 
3661 3662 2 1.0280000000000007e+00 -2.9792151676970298e+03 1.0000000000000000e+00 4.1047918138666731e+01 5.5660972176916035e-01 2.4861775190280149e+00 
2359 2360 2 1.0280000000000020e+00 3.4673252111506406e+02 1.0000000000000000e+00 4.0931368032289654e+01 1.9238876224657255e+00 6.5722829098183311e-01 
13 14 2 1.0280000000000025e+00 -1.5414766297017941e+03 1.0000000000000000e+00 4.0980878782610283e+01 1.6710414433690348e+00 6.5063530821830884e-01 
2872 2873 2 1.0280000000000036e+00 3.3319906986791847e+02 1.0000000000000000e+00 4.1915557250175979e+01 2.8818959263311311e-01 2.8158424104769528e+00 
2835 2836 2 1.0279999999999987e+00 8.0295568842004122e+03 1.0000000000000000e+00 4.2046966515601675e+01 8.8382379618070994e-01 9.0227906668531777e-01 
3203 3204 2 1.0279999999999974e+00 -2.6744178941898344e+03 1.0000000000000000e+00 4.2139264665561591e+01 2.0683583947867197e+00 1.8012071311017865e+00 
3550 3551 2 1.0279999999999976e+00 3.0027915434020297e+03 1.0000000000000000e+00 4.3988241162095413e+01 2.3632797258227436e+00 2.3752874008896687e+00 
2712 2713 2 1.0280000000000005e+00 -9.6369178014709746e+02 1.0000000000000000e+00 4.4263876580665418e+01 1.0938241821481263e+00 9.9364153513667863e-01 
1814 1815 2 1.0280000000000002e+00 -4.2025122169095685e+03 1.0000000000000000e+00 4.3497226306740444e+01 2.0805942642645538e+00 1.6419579293014072e-01 
3591 3592 2 1.0280000000000042e+00 -1.6844436206718754e+03 1.0000000000000000e+00 4.4481208862249765e+01 8.4341014598029840e-01 2.5690506543678624e+00 
2839 2840 2 1.0280000000000009e+00 3.8251458008150994e+03 1.0000000000000000e+00 4.4801461902060417e+01 1.1527327558507168e+00 2.7122458015367150e+00 
1754 1755 2 1.0279999999999980e+00 4.3397099600432412e+03 1.0000000000000000e+00 4.6823930793057357e+01 1.2755154188708175e+00 2.0570458436900276e+00 
3431 3432 2 1.0279999999999967e+00 3.0807520899651931e+03 1.0000000000000000e+00 4.7248035441974359e+01 5.0342569730264963e-01 2.0508752636311640e+00 
3416 3417 2 1.0279999999999989e+00 3.0834118504231565e+03 1.0000000000000000e+00 4.7883827689306656e+01 2.2014996322910496e-01 1.7909262310434775e+00 
1733 1734 2 1.0279999999999978e+00 4.3378015403863083e+03 1.0000000000000000e+00 4.7779131785417363e+01 1.9457517966020690e+00 1.9700964024573449e+00 
947 948 2 1.0280000000000069e+00 -4.7945773386384008e+03 1.0000000000000000e+00 4.9690974652448375e+01 2.2711642855325564e-01 3.9512814341378188e-01 
3257 3258 2 1.0279999999999869e+00 -4.7945725613808754e+03 1.0000000000000000e+00 4.9913154017734016e+01 5.5441478450209347e-01 8.8043160216584782e-01 
2707 2708 2 1.0279999999999807e+00 -9.5988649858611507e+02 1.0000000000000000e+00 5.1064298842974324e+01 8.0589038305488758e-01 2.4426553584963107e+00 
3549 3550 2 1.0280000000000049e+00 2.9982035654821057e+03 1.0000000000000000e+00 5.0843393818955207e+01 2.0400248691911416e+00 2.2877977761598873e+00 
571 572 2 1.0280000000000140e+00 3.6436211673149614e+03 1.0000000000000000e+00 5.0911465089991047e+01 2.0300113351106233e+00 1.8712643113494554e+00 
1968 1969 2 1.0280000000000005e+00 -4.0097427115973042e+03 1.0000000000000000e+00 5.2543407028059633e+01 2.6357942614596337e+00 1.5584583854468664e-01 
2245 2246 2 1.0280000000000122e+00 -9.6644057870062352e+02 1.0000000000000000e+00 5.0744759416522079e+01 7.5055494067284611e-03 2.3232711809789484e+00 
30 31 2 1.0280000000000018e+00 -1.5424437093565625e+03 1.0000000000000000e+00 5.4388443627977914e+01 1.4744018201201781e+00 7.2773629619547320e-01 
2805 2806 2 1.0279999999999982e+00 -4.7878693760631741e+03 1.0000000000000000e+00 5.4425654407222233e+01 1.4139446668636108e-01 1.8147718233080499e+00 
2388 2389 2 1.0280000000000014e+00 3.4624732222054695e+02 1.0000000000000000e+00 5.4411142857174980e+01 1.7675152062518804e+00 6.0592592154354952e-01 
4271 4272 2 1.0280000000000005e+00 1.8254229272224857e+03 1.0000000000000000e+00 5.4589739731044546e+01 1.1848959711862104e+00 5.2262545847242925e-01 
1433 1434 2 1.0280000000000025e+00 1.0028489807474446e+03 1.0000000000000000e+00 4.3481950114319638e+01 2.8698247904774972e+00 3.9284349609071906e-01 
564 565 2 1.0279999999999987e+00 3.6419220603254089e+03 1.0000000000000000e+00 4.4115182077385029e+01 2.8997843732875688e+00 1.8767773747958778e+00 
1939 1940 2 1.0280000000000000e+00 -4.0068327554383422e+03 1.0000000000000000e+00 4.2164339364259909e+01 3.0845579333136217e+00 5.1827335571336219e-01 
473 474 2 1.0279999999999998e+00 1.1604416435444525e+03 1.0000000000000000e+00 4.5277764510981697e+01 3.3723967732538167e+00 1.2010025335510537e+00 
188 189 2 1.0279999999999998e+00 -1.2932216493696651e+03 1.0000000000000000e+00 4.6743788259338778e+01 3.5107490424859433e+00 2.5456372333866271e+00 
4176 4177 2 1.0279999999999994e+00 -1.8393194483590655e+03 1.0000000000000000e+00 4.5126205419348999e+01 3.5640497225362515e+00 1.2687106626483142e+00 
3800 3801 2 1.0279999999999985e+00 2.0973663172706197e+03 1.0000000000000000e+00 4.5078158714422123e+01 5.5695090691132876e+00 2.2436717276235791e+00 
1321 1322 2 1.0279999999999985e+00 -4.3510087486314042e+03 1.0000000000000000e+00 4.6606266430154292e+01 5.1078883858018447e+00 2.1501465889054328e+00 
1745 1746 2 1.0280000000000000e+00 6.0289211093048943e+03 1.0000000000000000e+00 4.6678108737897389e+01 3.6085083439326442e+00 7.9076339963583542e-01 
117 118 2 1.0279999999999945e+00 -2.7218319141452491e+02 1.0000000000000000e+00 4.9250915845253914e+01 3.0265732648053287e+00 2.6772238751442834e+00 
191 192 2 1.0280000000000002e+00 -1.2869876413878787e+03 1.0000000000000000e+00 4.7665536022768975e+01 3.4874327429293182e+00 9.2019346110153677e-01 
1326 1327 2 1.0280000000000022e+00 -4.3523890520136702e+03 1.0000000000000000e+00 4.8518998611262752e+01 4.7144844596770579e+00 2.3523833150793600e+00 
1742 1743 2 1.0280000000000002e+00 6.0288210808424465e+03 1.0000000000000000e+00 4.8011301093295664e+01 3.7078658544026752e+00 8.0978733932967761e-01 
3803 3804 2 1.0280000000000009e+00 2.0987256715172525e+03 1.0000000000000000e+00 4.9614945430499503e+01 5.4467739226082275e+00 2.1320477988314157e+00 
3610 3611 2 1.0279999999999989e+00 8.1514679478949220e+03 1.0000000000000000e+00 4.7936602229854770e+01 4.7622232574069923e+00 2.5012032475453816e-01 
4183 4184 2 1.0280000000000000e+00 -1.8461727832983347e+03 1.0000000000000000e+00 5.0036300345357425e+01 3.8422274941058085e+00 1.7036497515277980e+00 
494 495 2 1.0279999999999982e+00 1.1514503294261194e+03 1.0000000000000000e+00 5.0096794006277854e+01 3.9287846952625864e+00 1.0594489319552132e+00 
1841 1842 2 1.0280000000000018e+00 -4.1956184343527284e+03 1.0000000000000000e+00 5.1602167189153370e+01 3.1774019539293570e+00 2.8549226837383340e-01 
2577 2578 2 1.0280000000000005e+00 -4.8794526158446870e+03 1.0000000000000000e+00 4.5126885579330818e+01 5.7399291764582108e+00 2.1972532225326353e+00 
2582 2583 2 1.0279999999999998e+00 -4.5877209407563405e+03 1.0000000000000000e+00 4.5178527159412852e+01 5.8337817756892303e+00 2.2698273999857257e+00 
1518 1519 2 1.0280000000000020e+00 7.1206606110842276e+03 1.0000000000000000e+00 4.5251797319232594e+01 6.0844559847466533e+00 1.9384022724603625e+00 
3420 3421 2 1.0279999999999996e+00 4.2322523874676854e+03 1.0000000000000000e+00 4.6031480859449502e+01 7.7753294669727380e+00 1.8409812024516050e+00 
43 44 2 1.0279999999999885e+00 -3.9322002282138892e+03 1.0000000000000000e+00 4.5354929442829764e+01 8.2839808470244680e+00 1.5975276336660593e-01 
2610 2611 2 1.0279999999999949e+00 8.2070660385988940e+03 1.0000000000000000e+00 4.6614313921818464e+01 6.4427330766133579e+00 9.1327943701197525e-02 
1432 1433 2 1.0280000000000031e+00 -3.5719864518955883e+03 1.0000000000000000e+00 4.6634875729264081e+01 5.9649636099185752e+00 3.5785798450468934e-02 
2590 2591 2 1.0280000000000014e+00 -4.8779536812329316e+03 1.0000000000000000e+00 4.9607643960343388e+01 5.8475700699231083e+00 1.9557237929065929e+00 
2585 2586 2 1.0280000000000011e+00 -4.5891762614708186e+03 1.0000000000000000e+00 4.9560437655011690e+01 6.2228083500376350e+00 1.8521599972126312e+00 