LAMMPS data file via write_data, version 30 Jul 2016, timestep = 50000000

4620 atoms
8 atom types

0.0000000000000000e+00 1.0000000000000000e+02 xlo xhi
0.0000000000000000e+00 4.0000000000000000e+01 ylo yhi
0.0000000000000000e+00 4.0000000000000000e+01 zlo zhi

Masses

1 3.896
2 5.36
3 20.064
4 8.378
5 8.378
6 8.378
7 8.378
8 8.378

Atoms # meso-molecular

2062 2063 2 1.0280000000000031e+00 -1.4759105421042764e+03 1.0000000000000000e+00 1.2901530836655206e+00 2.0905957413171743e+00 1.2920603031626278e+01 
2522 2523 2 1.0280000000000056e+00 -3.3966209948028463e+03 1.0000000000000000e+00 1.2861019144908004e+00 2.0991612161522473e+00 1.2920597552544020e+01 
631 632 2 1.0280000000000022e+00 6.6614327402183199e+02 1.0000000000000000e+00 1.2713129500422464e+00 2.1197369960167269e+00 1.2980521785952408e+01 
715 716 2 1.0280000000000091e+00 6.6614236685532933e+02 1.0000000000000000e+00 1.2712980093565920e+00 2.1197084481209725e+00 1.2860649563469666e+01 
3446 3447 2 1.0280000000000031e+00 -6.0868139924196339e+02 1.0000000000000000e+00 1.2622524333008478e+00 2.1433304780934099e+00 1.2920576009529372e+01 
1141 1142 2 1.0279999999999927e+00 3.8333631393612650e+03 1.0000000000000000e+00 1.6265406553330362e+00 1.9832253131350573e+01 1.3019709392705202e+01 
1010 1011 2 1.0279999999999974e+00 -3.2198598914087679e+03 1.0000000000000000e+00 1.3161157802511199e+00 1.8920461360140212e+01 1.3090710949800680e+01 
1262 1263 2 1.0279999999999987e+00 -3.2198595900868486e+03 1.0000000000000000e+00 1.3161081267912771e+00 1.8920465877839440e+01 1.2948698591969498e+01 
3907 3908 2 1.0280000000000087e+00 -1.1758153478382624e+03 1.0000000000000000e+00 9.9329302836032551e-01 1.8363875221020304e+01 1.3019693340116545e+01 
1891 1892 2 1.0279999999999931e+00 -3.6846563708466706e+03 1.0000000000000000e+00 3.2876033772535042e-02 1.7345253708985123e+01 1.3027471282231481e+01 
2227 2228 2 1.0280000000000029e+00 -3.6846570863945044e+03 1.0000000000000000e+00 3.2852547785180770e-02 1.7345242639721256e+01 1.3011980991037298e+01 
1138 1139 2 1.0279999999999996e+00 -2.2090133984467718e+02 1.0000000000000000e+00 7.6873641661203140e-03 1.7331249134046015e+01 1.3019892138653342e+01 
313 314 2 1.0280000000000014e+00 1.2260963283125302e+03 1.0000000000000000e+00 3.2566696493439672e+01 1.6234312886684677e+01 2.5492702824497297e+01 
146 147 2 1.0280000000000009e+00 1.3145813363256329e+03 1.0000000000000000e+00 3.2652493989655142e+01 1.6120228690632764e+01 2.5367048984636984e+01 
1993 1994 2 1.0280000000000009e+00 7.3447704628979909e+02 1.0000000000000000e+00 3.2918608664890918e+01 1.6061535278356093e+01 2.5139521397194063e+01 
776 777 2 1.0279999999999945e+00 -2.2079899517815375e+03 1.0000000000000000e+00 3.3287130110039399e+01 1.5962146305988391e+01 2.5447516013962023e+01 
1642 1643 2 1.0280000000000187e+00 8.3686431341672342e+03 1.0000000000000000e+00 5.1996999648804620e-01 1.5261639317450612e+01 2.7552804390647751e+01 
4328 4329 2 1.0280000000000116e+00 -3.8584789705524590e+03 1.0000000000000000e+00 5.1138597344537490e-02 1.4850565143408957e+01 2.7098136639565407e+01 
903 904 2 1.0279999999999998e+00 6.0343516739778579e+02 1.0000000000000000e+00 3.2991266911640238e+01 1.6416876602143166e+01 2.6173401802425385e+01 
4038 4039 2 1.0279999999999905e+00 1.7471149855967628e+03 1.0000000000000000e+00 2.0090803219182796e+00 1.2378505632331795e+01 3.1125055644032269e+01 
4420 4421 2 1.0280000000000082e+00 -1.3799685319660671e+03 1.0000000000000000e+00 2.6919281337683469e+00 1.2463573551432122e+01 3.1360458600785712e+01 
426 427 2 1.0279999999999960e+00 -2.2942786088196763e+03 1.0000000000000000e+00 2.6059266615274015e+00 1.2563739631951279e+01 3.1318974913135182e+01 
1554 1555 2 1.0280000000000289e+00 -1.3567245768027710e+03 1.0000000000000000e+00 3.5667187408653406e-02 1.4143645060313816e+01 3.1271009781424983e+01 
3443 3444 2 1.0280000000000196e+00 1.1545218938039996e+02 1.0000000000000000e+00 3.8643253339579181e-01 1.4727959805806638e+01 2.9068188981870069e+01 
2616 2617 2 1.0280000000000005e+00 -1.3123238798163143e+03 1.0000000000000000e+00 2.9271054633824914e+01 1.6626433050730476e+01 3.0420504455725752e+01 
2380 2381 2 1.0280000000000002e+00 5.9742823979983132e+03 1.0000000000000000e+00 3.0145989398775562e+01 1.6644189238099226e+01 3.1123897403358633e+01 
1656 1657 2 1.0279999999999991e+00 -2.9100366829797194e+03 1.0000000000000000e+00 2.9339199537579333e+01 1.6950025284151330e+01 2.9389163779886683e+01 
2414 2415 2 1.0280000000000007e+00 -2.8175445085905112e+03 1.0000000000000000e+00 3.1494558941318171e+01 1.6780757675700649e+01 3.0945687566168566e+01 
1570 1571 2 1.0280000000000007e+00 -2.9145729420651205e+03 1.0000000000000000e+00 3.1585186652302646e+01 1.6900424832462054e+01 3.0185221066572250e+01 
1405 1406 2 1.0280000000000000e+00 -2.9320514539996857e+03 1.0000000000000000e+00 3.1777229690174622e+01 1.6914853816368716e+01 3.0726962807500641e+01 
395 396 2 1.0279999999999991e+00 1.6555817049311122e+03 1.0000000000000000e+00 2.7316949562557269e+01 1.8149640498341736e+01 3.0511891868563726e+01 
4553 4554 2 1.0279999999999994e+00 1.6532333308820203e+03 1.0000000000000000e+00 2.7340129417712429e+01 1.8301745212223015e+01 3.0592874531137181e+01 
2446 2447 2 1.0280000000000002e+00 8.1446155249202934e+02 1.0000000000000000e+00 2.7427135156322183e+01 1.7731334902539498e+01 3.0143344209731129e+01 
1984 1985 2 1.0280000000000000e+00 8.0775004140649799e+02 1.0000000000000000e+00 2.7477942636041298e+01 1.8751485504586601e+01 3.0289280588526683e+01 
733 734 2 1.0279999999999996e+00 8.1023032509994064e+03 1.0000000000000000e+00 2.8575059956842377e+01 1.8830918051010684e+01 3.1295806121969687e+01 
3967 3968 2 1.0280000000000005e+00 8.1008354576817746e+03 1.0000000000000000e+00 2.8277585838718959e+01 1.7614508192431536e+01 3.1299279779756752e+01 
3964 3965 2 1.0280000000000007e+00 1.9779241151136239e+03 1.0000000000000000e+00 2.9340164198508138e+01 1.7205563810805394e+01 2.9198314845925804e+01 
2030 2031 2 1.0280000000000007e+00 -2.2161807573921669e+03 1.0000000000000000e+00 2.9351299104870868e+01 1.7215165691035391e+01 2.9193261853324017e+01 
730 731 2 1.0280000000000000e+00 1.9738533393054477e+03 1.0000000000000000e+00 2.9539850996823127e+01 1.9361176829658756e+01 2.9369781184596178e+01 
2492 2493 2 1.0279999999999998e+00 -2.2226842424118386e+03 1.0000000000000000e+00 2.9569925926731084e+01 1.9356294058922472e+01 2.9369114067171544e+01 
3042 3043 2 1.0280000000000002e+00 -2.9104017058053996e+03 1.0000000000000000e+00 2.9490671685225188e+01 1.9535803760621608e+01 2.9548022773067199e+01 
2154 2155 2 1.0280000000000018e+00 -1.3121887380239687e+03 1.0000000000000000e+00 2.9579379135819835e+01 1.9674366894378448e+01 3.0500452802861414e+01 
2619 2620 2 1.0280000000000000e+00 5.4864005589713315e+02 1.0000000000000000e+00 3.2135216639128664e+01 1.7219054819247901e+01 3.0234248539051176e+01 
3374 3375 2 1.0279999999999974e+00 3.5319894255559025e+03 1.0000000000000000e+00 3.2373720848251104e+01 1.9002978019402871e+01 2.9627921326196493e+01 
1918 1919 2 1.0279999999999996e+00 5.9757993784591599e+03 1.0000000000000000e+00 3.0682221495374129e+01 1.9518021610279199e+01 3.0909898846090655e+01 
2956 2957 2 1.0279999999999998e+00 -2.9136174182665191e+03 1.0000000000000000e+00 3.1882507806692090e+01 1.9633986319663176e+01 3.0212496849114380e+01 
2157 2158 2 1.0280000000000005e+00 5.5062332770967396e+02 1.0000000000000000e+00 3.2923030024920386e+01 1.9833405896214902e+01 2.9922466004550358e+01 
845 846 2 1.0279999999999938e+00 -6.0640889504713891e+02 1.0000000000000000e+00 2.7490592070363791e+00 1.2446806519447900e+01 3.1431381626211959e+01 
302 303 2 1.0279999999999971e+00 1.6889317722315755e+03 1.0000000000000000e+00 2.7696307983326673e+00 1.2412285170476581e+01 3.1452288345389974e+01 
3657 3658 2 1.0280000000000056e+00 -3.0708915334974972e+03 1.0000000000000000e+00 2.1773029378709876e+00 1.1542469821613283e+01 3.3516922338354242e+01 
3237 3238 2 1.0279999999999982e+00 -3.0708864430693638e+03 1.0000000000000000e+00 2.1792219607346324e+00 1.1542662699186781e+01 3.2772019377995470e+01 
2439 2440 2 1.0280000000000000e+00 -1.5971155226765068e+03 1.0000000000000000e+00 5.8936128641884367e-01 1.2025768864138335e+01 3.2717299388241514e+01 
2607 2608 2 1.0279999999999974e+00 -1.5971128422746679e+03 1.0000000000000000e+00 5.8762822461168096e-01 1.2024529267030186e+01 3.3561927471824156e+01 
3361 3362 2 1.0280000000000300e+00 -5.1675806412159022e+02 1.0000000000000000e+00 1.5270172311844876e-01 1.5537508060446042e+01 3.3050169810179909e+01 
3529 3530 2 1.0280000000000282e+00 -5.1677330594270745e+02 1.0000000000000000e+00 1.5198017040949277e-01 1.5537586968094960e+01 3.3221194289961311e+01 
2716 2717 2 1.0280000000000056e+00 5.9813469343361339e+03 1.0000000000000000e+00 2.9799616120477683e+01 1.6113502070208366e+01 3.3567838634875791e+01 
2666 2667 2 1.0279999999999985e+00 -2.8152213974010274e+03 1.0000000000000000e+00 3.0082086651158633e+01 1.5918725370911348e+01 3.3605986824696650e+01 
1825 1826 2 1.0279999999999985e+00 -2.9215470165212309e+03 1.0000000000000000e+00 3.0177887666943253e+01 1.5827521483894310e+01 3.3708860533949398e+01 
1024 1025 2 1.0279999999999951e+00 -2.6210399813434506e+03 1.0000000000000000e+00 3.0327367092680582e+01 1.7588731702887419e+01 3.2927430101744591e+01 
3334 3335 2 1.0279999999999989e+00 -2.6188928926845647e+03 1.0000000000000000e+00 3.0469297361429049e+01 1.7846748415244907e+01 3.3425152719990379e+01 
3586 3587 2 1.0279999999999994e+00 -2.6266647785605219e+03 1.0000000000000000e+00 3.1436399816394012e+01 1.9236735978236432e+01 3.1620460408425703e+01 
1276 1277 2 1.0280000000000016e+00 -2.6233659709249287e+03 1.0000000000000000e+00 3.2143721714162339e+01 1.8134301310147670e+01 3.1611425264821882e+01 
2204 2205 2 1.0280000000000009e+00 -2.8161614982090514e+03 1.0000000000000000e+00 3.3048818601475318e+01 1.9657693526806987e+01 3.3735134622000217e+01 
134 135 2 1.0279999999999974e+00 1.6889302315824998e+03 1.0000000000000000e+00 2.7661610007871125e+00 1.2410365597554408e+01 3.4838139011343081e+01 
3786 3787 2 1.0279999999999940e+00 1.7470902191474897e+03 1.0000000000000000e+00 2.0055833852907772e+00 1.2377230060423981e+01 3.5164919986351947e+01 
509 510 2 1.0280000000000022e+00 -6.0640039216767946e+02 1.0000000000000000e+00 2.7456123704372541e+00 1.2444962249522485e+01 3.4859034591815821e+01 
4336 4337 2 1.0279999999999967e+00 -1.3799547523532342e+03 1.0000000000000000e+00 2.6884230907288353e+00 1.2461510179425538e+01 3.4930000115842311e+01 
6 7 2 1.0280000000000018e+00 -2.2942799673714153e+03 1.0000000000000000e+00 2.6021938967245584e+00 1.2562115097342382e+01 3.4971668709795928e+01 
1722 1723 2 1.0280000000000329e+00 -1.3567552539649132e+03 1.0000000000000000e+00 3.3728868599372713e-02 1.4143460616140294e+01 3.5011179435441790e+01 
483 484 2 1.0280000000000011e+00 6.0547347702574211e+02 1.0000000000000000e+00 2.8128137709858372e+01 1.6672732644198614e+01 3.6647985734498398e+01 
2614 2615 2 1.0280000000000016e+00 8.1130056809885502e+02 1.0000000000000000e+00 2.9290512723784325e+01 1.6916918284322101e+01 3.5404536623741535e+01 
2448 2449 2 1.0279999999999998e+00 -1.3120461570895395e+03 1.0000000000000000e+00 3.0944562220425428e+01 1.5482643815653116e+01 3.4316078937413209e+01 
1654 1655 2 1.0279999999999991e+00 -2.9153393954488465e+03 1.0000000000000000e+00 3.1964576385323117e+01 1.5614300738209222e+01 3.4709243985881081e+01 
1572 1573 2 1.0279999999999965e+00 -2.9138567139120778e+03 1.0000000000000000e+00 3.2148409724434174e+01 1.5770141206918229e+01 3.5372597551344171e+01 
2451 2452 2 1.0279999999999960e+00 5.4972553087670428e+02 1.0000000000000000e+00 3.2266690714330807e+01 1.5792771155461480e+01 3.4911123077820562e+01 
3880 3881 2 1.0280000000000129e+00 1.9738065767829623e+03 1.0000000000000000e+00 3.2446000563228985e+01 1.6215508631826911e+01 3.5654051210317782e+01 
2114 2115 2 1.0279999999999836e+00 -2.2193202544041478e+03 1.0000000000000000e+00 3.2608436054332017e+01 1.6343465974442939e+01 3.5699520550083548e+01 
59 60 2 1.0279999999999969e+00 1.6548274654207585e+03 1.0000000000000000e+00 2.9057715423699307e+01 1.7486096858402377e+01 3.4527481024814044e+01 
4217 4218 2 1.0280000000000000e+00 1.6755451607033590e+03 1.0000000000000000e+00 2.9428304223429748e+01 1.8323313302366163e+01 3.4346445426417034e+01 
2152 2153 2 1.0280000000000009e+00 8.2547881176404917e+02 1.0000000000000000e+00 2.9530140929667716e+01 1.8548733863400411e+01 3.4627211966219505e+01 
2158 2159 2 1.0280000000000036e+00 3.2977409009201892e+02 1.0000000000000000e+00 2.9783663075599385e+01 1.8427205662795906e+01 3.5655439575630318e+01 
3717 3718 2 1.0279999999999998e+00 6.0784243184973877e+02 1.0000000000000000e+00 3.0671279156261793e+01 1.9707469694854144e+01 3.7035200993512674e+01 
4218 4219 2 1.0280000000000011e+00 2.0242789750518832e+03 1.0000000000000000e+00 3.2854225469829096e+01 1.9059337564378133e+01 3.6893581716677367e+01 
614 615 2 1.0280000000000016e+00 -1.0940883568858462e+03 1.0000000000000000e+00 3.3005752126727018e+01 1.9518376841611108e+01 3.4734050632431106e+01 
2620 2621 2 1.0280000000000065e+00 3.3342557394116386e+02 1.0000000000000000e+00 3.3078373337952549e+01 1.7486990794100638e+01 3.6419647230853862e+01 
1558 1559 2 1.0280000000000042e+00 8.3686431331118420e+03 1.0000000000000000e+00 5.2209036568614453e-01 1.5268945808506462e+01 3.8724535194684172e+01 
3527 3528 2 1.0280000000000122e+00 1.1545460880831226e+02 1.0000000000000000e+00 3.8946489334625767e-01 1.4734529617147778e+01 3.7207399134401840e+01 
4412 4413 2 1.0279999999999849e+00 -3.8584809063402845e+03 1.0000000000000000e+00 5.3768680638389937e-02 1.4858569428070989e+01 3.9178925473376999e+01 
145 146 2 1.0280000000000009e+00 1.2245960625628888e+03 1.0000000000000000e+00 2.7833833425162187e+01 1.6342353406641731e+01 3.7533729778394289e+01 
314 315 2 1.0280000000000011e+00 1.3131796278343591e+03 1.0000000000000000e+00 2.7866987793370896e+01 1.6306786057106482e+01 3.7600131859766620e+01 
2161 2162 2 1.0280000000000007e+00 7.3353697565311813e+02 1.0000000000000000e+00 2.7935045762265396e+01 1.6290285893443141e+01 3.7714999073612923e+01 
485 486 2 1.0279999999999982e+00 2.5073605367921039e+02 1.0000000000000000e+00 2.8461918876484201e+01 1.6499849193505753e+01 3.8040846884583843e+01 
608 609 2 1.0280000000000000e+00 -2.2069467922692393e+03 1.0000000000000000e+00 2.8952071916061133e+01 1.6123240758388615e+01 3.7160299574461725e+01 
148 149 2 1.0279999999999971e+00 1.4094084418466205e+03 1.0000000000000000e+00 2.9705369231159256e+01 1.7458642790899606e+01 3.7569532018815423e+01 
4306 4307 2 1.0280000000000022e+00 1.4081260665686455e+03 1.0000000000000000e+00 3.0253745861912744e+01 1.7911453147654299e+01 3.7740704177963984e+01 
4303 4304 2 1.0280000000000011e+00 1.2245223869652259e+03 1.0000000000000000e+00 3.0495236346977890e+01 1.8942463264693700e+01 3.8242749423647858e+01 
4472 4473 2 1.0280000000000011e+00 1.3130537559221229e+03 1.0000000000000000e+00 3.0709758000073982e+01 1.8981302621647821e+01 3.8340481059997529e+01 
2623 2624 2 1.0279999999999976e+00 7.3346916617392935e+02 1.0000000000000000e+00 3.0982278898474060e+01 1.8972067753001188e+01 3.8396624096785978e+01 
3719 3720 2 1.0279999999999898e+00 2.5130208074358239e+02 1.0000000000000000e+00 3.2044952264778409e+01 1.8795064012777477e+01 3.7931461678550768e+01 
3842 3843 2 1.0280000000000002e+00 -2.2055055329556353e+03 1.0000000000000000e+00 3.2386796410089872e+01 1.9166594792438108e+01 3.7484401265813304e+01 
3320 3321 2 1.0280000000000005e+00 -3.2198587654089433e+03 1.0000000000000000e+00 1.3159140765093553e+00 2.1174172952172995e+01 1.3090688755927456e+01 
3572 3573 2 1.0280000000000034e+00 -3.2198584436879833e+03 1.0000000000000000e+00 1.3159034212858605e+00 2.1174164800026119e+01 1.2948762895511488e+01 
3451 3452 2 1.0279999999999889e+00 3.8333628803232887e+03 1.0000000000000000e+00 1.6264776532314149e+00 2.0262604009290037e+01 1.3019712899452486e+01 
673 674 2 1.0279999999999996e+00 -1.1758133834616183e+03 1.0000000000000000e+00 9.9313297585988236e-01 2.1730662828413628e+01 1.3019724190634452e+01 
2353 2354 2 1.0279999999999885e+00 -3.6846586864339961e+03 1.0000000000000000e+00 3.2672869541761768e-02 2.2749691824499653e+01 1.3027586742381006e+01 
2689 2690 2 1.0279999999999976e+00 -3.6846593090435990e+03 1.0000000000000000e+00 3.2649080423391777e-02 2.2749703787009956e+01 1.3012068465791193e+01 
3448 3449 2 1.0279999999999894e+00 -2.2090285989533595e+02 1.0000000000000000e+00 7.7560222179841407e-03 2.2763552482586167e+01 1.3020019385236875e+01 
2060 2061 2 1.0280000000000100e+00 -3.3966215026671989e+03 1.0000000000000000e+00 1.2861246125618557e+00 3.7552251788369809e+01 1.2921041173505804e+01 
2524 2525 2 1.0280000000000025e+00 -1.4759120356172821e+03 1.0000000000000000e+00 1.2901768741377417e+00 3.7560823768369843e+01 1.2921045740727068e+01 
1136 1137 2 1.0280000000000018e+00 -6.0868097369750421e+02 1.0000000000000000e+00 1.2622246364598311e+00 3.7507979998700357e+01 1.2921030675278010e+01 
3949 3950 2 1.0280000000000011e+00 6.6613968393590062e+02 1.0000000000000000e+00 1.2712556673205861e+00 3.7531587831409844e+01 1.2861026620609467e+01 
3865 3866 2 1.0280000000000002e+00 6.6614158283306119e+02 1.0000000000000000e+00 1.2712646413986879e+00 3.7531557501180167e+01 1.2981032190064498e+01 
3028 3029 2 1.0280000000000025e+00 8.3686437155174917e+03 1.0000000000000000e+00 5.1979901904487869e-01 2.4873902890390564e+01 2.7549321678679949e+01 
170 171 2 1.0280000000000147e+00 -3.8584781035990736e+03 1.0000000000000000e+00 5.0870917881667761e-02 2.5284981968653241e+01 2.7094504073739930e+01 
1133 1134 2 1.0280000000000229e+00 1.1545318250535945e+02 1.0000000000000000e+00 3.8551659792339510e-01 2.5407449783061985e+01 2.9064569132120322e+01 
4584 4585 2 1.0280000000000018e+00 -2.2942757547047686e+03 1.0000000000000000e+00 2.6024527620962550e+00 2.7570966378042794e+01 3.1314841861744725e+01 
262 263 2 1.0279999999999991e+00 -1.3799637964186622e+03 1.0000000000000000e+00 2.6883762462279974e+00 2.7671039970741173e+01 3.1356278094774680e+01 
4079 4080 2 1.0279999999999958e+00 -6.0641227231906691e+02 1.0000000000000000e+00 2.7454659979593807e+00 2.7687805336822311e+01 3.1427184463882543e+01 
804 805 2 1.0280000000000007e+00 1.7471195714018381e+03 1.0000000000000000e+00 2.0059741999723522e+00 2.7756360942434000e+01 3.1120168835186739e+01 
2940 2941 2 1.0280000000000200e+00 -1.3567252650149890e+03 1.0000000000000000e+00 3.2670164575154551e-02 2.5995443908100530e+01 3.1266438197321825e+01 
2254 2255 2 1.0279999999999987e+00 5.9783235863374666e+03 1.0000000000000000e+00 3.1656158601938461e+01 2.0030224194873263e+01 3.3253674428547846e+01 
1986 1987 2 1.0279999999999998e+00 -1.3130141985116197e+03 1.0000000000000000e+00 3.1122076171486121e+01 2.0682485006711129e+01 3.4178917640735946e+01 
1051 1052 2 1.0280000000000236e+00 -5.1676286195865009e+02 1.0000000000000000e+00 1.5228026381366250e-01 2.4602884587957490e+01 3.3047999399007125e+01 
1219 1220 2 1.0280000000000220e+00 -5.1677413387980596e+02 1.0000000000000000e+00 1.5155240622051358e-01 2.4603043290176462e+01 3.3219040541280464e+01 
4460 4461 2 1.0279999999999960e+00 1.6889274709183433e+03 1.0000000000000000e+00 2.7660384344070605e+00 2.7722305264853315e+01 3.1448061035577147e+01 
1977 1978 2 1.0280000000000027e+00 -1.5971140893335992e+03 1.0000000000000000e+00 5.8608888409693272e-01 2.8115768035637021e+01 3.2716795070712969e+01 
2145 2146 2 1.0280000000000096e+00 -1.5971113066376865e+03 1.0000000000000000e+00 5.8438194922913445e-01 2.8116979260037546e+01 3.3558559246389336e+01 
927 928 2 1.0279999999999943e+00 -3.0708880414973337e+03 1.0000000000000000e+00 2.1758431755005976e+00 2.8593668686425353e+01 3.2766764591276036e+01 
1347 1348 2 1.0279999999999976e+00 -3.0708870243706151e+03 1.0000000000000000e+00 2.1739639440759522e+00 2.8593863741939131e+01 3.3512233547333537e+01 
646 647 2 1.0280000000000009e+00 1.9749641108905114e+03 1.0000000000000000e+00 3.0505373192480157e+01 2.0096775920002624e+01 3.5355947896961425e+01 
2576 2577 2 1.0280000000000014e+00 -2.2182367341304280e+03 1.0000000000000000e+00 3.0668763957802820e+01 2.0004354249840379e+01 3.5758228979237643e+01 
2958 2959 2 1.0279999999999991e+00 -2.9127180006425451e+03 1.0000000000000000e+00 3.0901719543125182e+01 2.0673668690118873e+01 3.4796062557673515e+01 
3040 3041 2 1.0280000000000002e+00 -2.9166344027159557e+03 1.0000000000000000e+00 3.2069960068588600e+01 2.1018975626140527e+01 3.4434583879950310e+01 
1989 1990 2 1.0279999999999994e+00 5.4860238613237061e+02 1.0000000000000000e+00 3.2629542576227507e+01 2.0899693573144699e+01 3.4623886501489586e+01 
178 179 2 1.0279999999999945e+00 -1.3799544469364955e+03 1.0000000000000000e+00 2.6863893823718001e+00 2.7672674453603086e+01 3.4924441943948352e+01 
3743 3744 2 1.0280000000000036e+00 -6.0640106211559873e+02 1.0000000000000000e+00 2.7433613888149524e+00 2.7689203457683135e+01 3.4853550815674836e+01 
552 553 2 1.0280000000000169e+00 1.7470910435155565e+03 1.0000000000000000e+00 2.0043791433664131e+00 2.7756536352442641e+01 3.5161188451429005e+01 
4292 4293 2 1.0279999999999969e+00 1.6889284258985576e+03 1.0000000000000000e+00 2.7638582469809783e+00 2.7723731050959927e+01 3.4832715428109815e+01 
4164 4165 2 1.0279999999999976e+00 -2.2942821566274224e+03 1.0000000000000000e+00 2.6003824753409570e+00 2.7572208214374172e+01 3.4966088110530514e+01 
3108 3109 2 1.0280000000000296e+00 -1.3567562270702833e+03 1.0000000000000000e+00 3.0518665330504714e-02 2.5996363184845990e+01 3.5011428150040068e+01 
2944 2945 2 1.0280000000000222e+00 8.3686442974867659e+03 1.0000000000000000e+00 5.2196424121732721e-01 2.4866978736844981e+01 3.8723655447726514e+01 
1217 1218 2 1.0280000000000000e+00 1.1545402503901275e+02 1.0000000000000000e+00 3.8867373130810556e-01 2.5401322664544967e+01 3.7206897537862808e+01 
254 255 2 1.0279999999999976e+00 -3.8584795353428672e+03 1.0000000000000000e+00 5.3551687862230586e-02 2.5277426569316841e+01 3.9178239579010658e+01 
3661 3662 2 1.0280000000000009e+00 -2.9792151676970298e+03 1.0000000000000000e+00 4.1047964619530333e+01 5.5661065968557155e-01 2.4862139158691114e+00 
2359 2360 2 1.0280000000000020e+00 3.4673252111506406e+02 1.0000000000000000e+00 4.0931414513153257e+01 1.9238885603821354e+00 6.5726468782292968e-01 
13 14 2 1.0280000000000027e+00 -1.5414766297017941e+03 1.0000000000000000e+00 4.0980925263473885e+01 1.6710423812854465e+00 6.5067170505940541e-01 
2872 2873 2 1.0280000000000036e+00 3.3319906986791847e+02 1.0000000000000000e+00 4.1915603731039582e+01 2.8819053054952432e-01 2.8158788073180494e+00 
2835 2836 2 1.0279999999999989e+00 8.0295568842004122e+03 1.0000000000000000e+00 4.2047012996465277e+01 8.8382473409712115e-01 9.0231546352641434e-01 
3203 3204 2 1.0279999999999971e+00 -2.6744178941898344e+03 1.0000000000000000e+00 4.2139311146425193e+01 2.0683593327031309e+00 1.8012435279428838e+00 
3550 3551 2 1.0279999999999976e+00 3.0027915434020297e+03 1.0000000000000000e+00 4.3988287642959015e+01 2.3632806637391548e+00 2.3753237977307653e+00 
2712 2713 2 1.0280000000000005e+00 -9.6369178014709746e+02 1.0000000000000000e+00 4.4263923061529020e+01 1.0938251200645375e+00 9.9367793197777521e-01 
1814 1815 2 1.0280000000000005e+00 -4.2025122169095685e+03 1.0000000000000000e+00 4.3497272787604047e+01 2.0805952021809651e+00 1.6423218977123738e-01 
3591 3592 2 1.0280000000000045e+00 -1.6844436206718754e+03 1.0000000000000000e+00 4.4481255343113368e+01 8.4341108389670960e-01 2.5690870512089590e+00 
2839 2840 2 1.0280000000000011e+00 3.8251458008150994e+03 1.0000000000000000e+00 4.4801508382924020e+01 1.1527336937671280e+00 2.7122821983778116e+00 
1754 1755 2 1.0279999999999980e+00 4.3397099600432412e+03 1.0000000000000000e+00 4.6823977273920960e+01 1.2755163567872287e+00 2.0570822405311242e+00 
3431 3432 2 1.0279999999999967e+00 3.0807520899651931e+03 1.0000000000000000e+00 4.7248081922837962e+01 5.0342663521906084e-01 2.0509116604722606e+00 
3416 3417 2 1.0279999999999989e+00 3.0834118504231565e+03 1.0000000000000000e+00 4.7883874170170259e+01 2.2015090114551616e-01 1.7909626278845741e+00 
1733 1734 2 1.0279999999999978e+00 4.3378015403863083e+03 1.0000000000000000e+00 4.7779178266280965e+01 1.9457527345184802e+00 1.9701327992984414e+00 
947 948 2 1.0280000000000069e+00 -4.7945773386384008e+03 1.0000000000000000e+00 4.9691021133311978e+01 2.2711736646966685e-01 3.9516454025487974e-01 
3257 3258 2 1.0279999999999869e+00 -4.7945725613808754e+03 1.0000000000000000e+00 4.9913200498597618e+01 5.5441572241850468e-01 8.8046799900694439e-01 
2707 2708 2 1.0279999999999807e+00 -9.5988649858611507e+02 1.0000000000000000e+00 5.1064345323837927e+01 8.0589132097129879e-01 2.4426917553374072e+00 
3549 3550 2 1.0280000000000049e+00 2.9982035654821057e+03 1.0000000000000000e+00 5.0843440299818809e+01 2.0400258071075528e+00 2.2878341730009839e+00 
571 572 2 1.0280000000000140e+00 3.6436211673149614e+03 1.0000000000000000e+00 5.0911511570854650e+01 2.0300122730270345e+00 1.8713007081905519e+00 
1968 1969 2 1.0280000000000007e+00 -4.0097427115973042e+03 1.0000000000000000e+00 5.2543453508923236e+01 2.6357951993760449e+00 1.5588223538578308e-01 
2245 2246 2 1.0280000000000120e+00 -9.6644057870062352e+02 1.0000000000000000e+00 5.0744805897385682e+01 7.5064873231378559e-03 2.3233075778200449e+00 
30 31 2 1.0280000000000022e+00 -1.5424437093565625e+03 1.0000000000000000e+00 5.4388490108841516e+01 1.4744027580365893e+00 7.2777269303656977e-01 
2805 2806 2 1.0279999999999980e+00 -4.7878693760631741e+03 1.0000000000000000e+00 5.4425700888085835e+01 1.4139540460276820e-01 1.8148082201491464e+00 
2388 2389 2 1.0280000000000016e+00 3.4624732222054695e+02 1.0000000000000000e+00 5.4411189338038582e+01 1.7675161441682874e+00 6.0596231838464665e-01 
4271 4272 2 1.0280000000000000e+00 1.8254229272224857e+03 1.0000000000000000e+00 5.4589786211908148e+01 1.1848969091026285e+00 5.2266185531352805e-01 
1433 1434 2 1.0280000000000025e+00 1.0028489807474446e+03 1.0000000000000000e+00 4.3481996595183240e+01 2.8698257283939084e+00 3.9287989293181563e-01 
564 565 2 1.0279999999999985e+00 3.6419220603254089e+03 1.0000000000000000e+00 4.4115228558248631e+01 2.8997853112039800e+00 1.8768137716369773e+00 
1939 1940 2 1.0280000000000002e+00 -4.0068327554383422e+03 1.0000000000000000e+00 4.2164385845123512e+01 3.0845588712300320e+00 5.1830975255445877e-01 
473 474 2 1.0279999999999998e+00 1.1604416435444525e+03 1.0000000000000000e+00 4.5277810991845300e+01 3.3723977111702279e+00 1.2010389303921503e+00 
188 189 2 1.0279999999999998e+00 -1.2932216493696651e+03 1.0000000000000000e+00 4.6743834740202381e+01 3.5107499804023545e+00 2.5456736302277236e+00 
4176 4177 2 1.0279999999999991e+00 -1.8393194483590655e+03 1.0000000000000000e+00 4.5126251900212601e+01 3.5640506604526627e+00 1.2687470594894108e+00 
3800 3801 2 1.0279999999999985e+00 2.0973663172706197e+03 1.0000000000000000e+00 4.5078205195285726e+01 5.5695100070296988e+00 2.2437081244646757e+00 
1321 1322 2 1.0279999999999987e+00 -4.3510087486314042e+03 1.0000000000000000e+00 4.6606312911017895e+01 5.1078893237182559e+00 2.1501829857465293e+00 
1745 1746 2 1.0280000000000000e+00 6.0289211093048943e+03 1.0000000000000000e+00 4.6678155218760992e+01 3.6085092818490554e+00 7.9079979647693199e-01 
117 118 2 1.0279999999999943e+00 -2.7218319141452491e+02 1.0000000000000000e+00 4.9250962326117516e+01 3.0265742027217399e+00 2.6772602719853800e+00 
191 192 2 1.0280000000000002e+00 -1.2869876413878787e+03 1.0000000000000000e+00 4.7665582503632578e+01 3.4874336808457294e+00 9.2022985794263334e-01 
1326 1327 2 1.0280000000000022e+00 -4.3523890520136702e+03 1.0000000000000000e+00 4.8519045092126355e+01 4.7144853975934691e+00 2.3524197119204566e+00 
1742 1743 2 1.0280000000000002e+00 6.0288210808424465e+03 1.0000000000000000e+00 4.8011347574159267e+01 3.7078667923190864e+00 8.0982373617077419e-01 
3803 3804 2 1.0280000000000009e+00 2.0987256715172525e+03 1.0000000000000000e+00 4.9614991911363106e+01 5.4467748605246387e+00 2.1320841956725123e+00 
3610 3611 2 1.0279999999999989e+00 8.1514679478949220e+03 1.0000000000000000e+00 4.7936648710718373e+01 4.7622241953234035e+00 2.5015672159563473e-01 
4183 4184 2 1.0280000000000000e+00 -1.8461727832983347e+03 1.0000000000000000e+00 5.0036346826221028e+01 3.8422284320222198e+00 1.7036861483688945e+00 
494 495 2 1.0279999999999982e+00 1.1514503294261194e+03 1.0000000000000000e+00 5.0096840487141456e+01 3.9287856331789976e+00 1.0594853287963097e+00 
1841 1842 2 1.0280000000000018e+00 -4.1956184343527284e+03 1.0000000000000000e+00 5.1602213670016972e+01 3.1774028918457682e+00 2.8552866521492998e-01 
2577 2578 2 1.0280000000000007e+00 -4.8794526158446870e+03 1.0000000000000000e+00 4.5126932060194420e+01 5.7399301143746220e+00 2.1972896193737319e+00 
2582 2583 2 1.0280000000000000e+00 -4.5877209407563405e+03 1.0000000000000000e+00 4.5178573640276454e+01 5.8337827136056415e+00 2.2698637968268223e+00 
1518 1519 2 1.0280000000000022e+00 7.1206606110842276e+03 1.0000000000000000e+00 4.5251843800096196e+01 6.0844569226630645e+00 1.9384386693014590e+00 
3420 3421 2 1.0279999999999996e+00 4.2322523874676854e+03 1.0000000000000000e+00 4.6031527340313104e+01 7.7753304048891492e+00 1.8410175992927016e+00 
43 44 2 1.0279999999999885e+00 -3.9322002282138892e+03 1.0000000000000000e+00 4.5354975923693367e+01 8.2839817849408792e+00 1.5978916020770251e-01 
2610 2611 2 1.0279999999999949e+00 8.2070660385988940e+03 1.0000000000000000e+00 4.6614360402682067e+01 6.4427340145297691e+00 9.1364340542294101e-02 
1432 1433 2 1.0280000000000034e+00 -3.5719864518955883e+03 1.0000000000000000e+00 4.6634922210127684e+01 5.9649645478349864e+00 3.5822195291568895e-02 
2590 2591 2 1.0280000000000014e+00 -4.8779536812329316e+03 1.0000000000000000e+00 4.9607690441206991e+01 5.8475710078395196e+00 1.9557601897476895e+00 
2585 2586 2 1.0280000000000011e+00 -4.5891762614708186e+03 1.0000000000000000e+00 4.9560484135875292e+01 6.2228092879540462e+00 1.8521963940537278e+00 