LAMMPS data file via write_data, version 30 Jul 2016, timestep = 50000000

384 atoms
2 atom types

0.0000000000000000e+00 2.0000000000000000e+01 xlo xhi
0.0000000000000000e+00 2.0000000000000000e+01 ylo yhi
0.0000000000000000e+00 2.0000000000000000e+01 zlo zhi

Masses

1 3.896
2 4.31

Atoms # meso-molecular

67 1 2 1.0279999999815430e+00 -8.2691919369939114e+01 1.0000000000000000e+00 1.2024297112468112e+00 6.5390042449907444e+00 3.7366548257641932e+00 
112 1 2 1.0279999999431848e+00 -1.0493977924238830e+02 1.0000000000000000e+00 1.4689991835593359e+00 5.9344228335988367e+00 4.5974576862368020e+00 
41 1 2 1.0279999999431646e+00 -1.0051662828557080e+02 1.0000000000000000e+00 1.4689991871743278e+00 5.9344228322686572e+00 4.5974576870727759e+00 
272 1 2 1.0279999999435925e+00 -1.1403230638097040e+02 1.0000000000000000e+00 1.4690121675050081e+00 5.9344180437276890e+00 4.5974611022579106e+00 
253 1 2 1.0279999999436129e+00 -7.7787671384202326e+01 1.0000000000000000e+00 1.4691279706723441e+00 5.9343753210093686e+00 4.5974918360012156e+00 
328 1 2 1.0279999999365361e+00 -1.2481815009406449e+02 1.0000000000000000e+00 1.4930601590160311e+00 5.9255675124524263e+00 4.6112457392791653e+00 
283 1 2 1.0279999998502876e+00 -7.1202695413701903e+01 1.0000000000000000e+00 3.8229427263794675e+00 5.8620704362952170e+00 4.9899788678386994e+00 
200 1 2 1.0280000001331198e+00 -1.1283216947576403e+02 1.0000000000000000e+00 4.4682906065498154e+00 5.4448522227870191e+00 5.2389854044500082e+00 
280 1 2 1.0280000001331204e+00 -1.4378993941897335e+02 1.0000000000000000e+00 4.4682905518368594e+00 5.4448522597735298e+00 5.2389853341553394e+00 
209 1 2 1.0280000001331207e+00 -1.1858058385469172e+02 1.0000000000000000e+00 4.4682907693748541e+00 5.4448521127054628e+00 5.2389856136653998e+00 
265 1 2 1.0280000001331200e+00 -1.2655065704272954e+02 1.0000000000000000e+00 4.4682905709122167e+00 5.4448522468836833e+00 5.2389853586531752e+00 
122 1 2 1.0280000000139826e+00 -1.2176100617326128e+02 1.0000000000000000e+00 1.7078878780915214e+00 8.8642385094272722e+00 4.4669000115758291e+00 
186 1 2 1.0280000000448544e+00 -1.2043737512727168e+02 1.0000000000000000e+00 1.8998327537372959e+00 8.2039090235631456e+00 4.2100563014363486e+00 
187 1 2 1.0280000000449099e+00 -1.0765097939790462e+02 1.0000000000000000e+00 1.8998357601945837e+00 8.2038966610641477e+00 4.2100474154480096e+00 
179 1 2 1.0280000000448872e+00 -7.4723651313163458e+01 1.0000000000000000e+00 1.8977827409058736e+00 8.2117021006664697e+00 4.2152783132487732e+00 
330 1 2 1.0280000000448550e+00 -1.1842839130191474e+02 1.0000000000000000e+00 1.8999834906308037e+00 8.2031615177869224e+00 4.2094389849350717e+00 
299 1 2 1.0279999999658298e+00 -6.6437597129248161e+01 1.0000000000000000e+00 5.7111055645541740e+00 6.9055409329368072e+00 4.0517504160065805e+00 
247 1 2 1.0279999999658305e+00 -7.3452495028331683e+01 1.0000000000000000e+00 5.7111725492878218e+00 6.9054331269933362e+00 4.0517559642773637e+00 
274 1 2 1.0279999999658289e+00 -7.3554934243168162e+01 1.0000000000000000e+00 5.7130819116040028e+00 6.9024758475555794e+00 4.0519131821081418e+00 
24 1 2 1.0280000000737162e+00 -1.0546903875657134e+02 1.0000000000000000e+00 5.9370525138862380e+00 8.1308968254173699e+00 5.1636072845478385e+00 
169 1 2 1.0280000000737859e+00 -1.0410152579742939e+02 1.0000000000000000e+00 5.9370505285808122e+00 8.1308969458366427e+00 5.1636057454903552e+00 
170 1 2 1.0280000000737521e+00 -4.4005528275983529e+01 1.0000000000000000e+00 5.9370508618138595e+00 8.1308969256247128e+00 5.1636060038219620e+00 
292 1 2 1.0280000000737668e+00 -7.2908347886217868e+01 1.0000000000000000e+00 5.9370482202729340e+00 8.1308970858366703e+00 5.1636039560598164e+00 
44 1 2 1.0280000001323850e+00 -9.7848823299962589e+01 1.0000000000000000e+00 1.5531029489197434e+00 5.2476608991556306e+00 9.3436599713581856e+00 
294 1 2 1.0280000001320622e+00 -3.0493533164262768e+01 1.0000000000000000e+00 1.5531442389634773e+00 5.2475293266656564e+00 9.3445989254575039e+00 
249 1 2 1.0280000001216871e+00 -1.4905675565539806e+02 1.0000000000000000e+00 1.5569755902890678e+00 5.2262705127389202e+00 9.5311586711549658e+00 
335 1 2 1.0280000001216942e+00 -1.8033770759507172e+02 1.0000000000000000e+00 1.5569684253463556e+00 5.2262784190533660e+00 9.5310772164330260e+00 
359 1 2 1.0280000001216938e+00 -1.2588774076105008e+02 1.0000000000000000e+00 1.5569718215747197e+00 5.2262757677114724e+00 9.5311037432176260e+00 
279 1 2 1.0280000001005072e+00 -7.6727552740509864e+01 1.0000000000000000e+00 2.8776284675536559e+00 5.3379540573124595e+00 7.4777670182688594e+00 
215 1 2 1.0280000001005090e+00 -5.9081042311495388e+01 1.0000000000000000e+00 2.8776266529572698e+00 5.3379548723328636e+00 7.4777772227075836e+00 
361 1 2 1.0280000001005951e+00 -1.0136995863693292e+02 1.0000000000000000e+00 2.8776201602579210e+00 5.3379619412925905e+00 7.4779388808851168e+00 
363 1 2 1.0280000000965444e+00 -6.2875400060024596e+01 1.0000000000000000e+00 2.8794340455471601e+00 5.3369563284194772e+00 7.4614489830297215e+00 
144 1 2 1.0279999999597018e+00 -1.1048095070636120e+02 1.0000000000000000e+00 4.5102011729471894e+00 6.4513118841201891e+00 7.4030335324016407e+00 
136 1 2 1.0279999999753311e+00 -1.2958847962940848e+02 1.0000000000000000e+00 4.5226050419217101e+00 6.4945543293021180e+00 7.3764311570760004e+00 
74 1 2 1.0279999999754730e+00 -9.0940215797589218e+01 1.0000000000000000e+00 4.5229470334575801e+00 6.4960244170529471e+00 7.3755415600559173e+00 
201 1 2 1.0280000000947489e+00 -1.2448033561105521e+02 1.0000000000000000e+00 1.0185164520353600e+00 7.3343578066403810e+00 7.0069100576224077e+00 
373 1 2 1.0279999999134524e+00 -1.3659650036831252e+02 1.0000000000000000e+00 1.3735080523981062e+00 7.8655398433519821e+00 7.2614671041824499e+00 
121 1 2 1.0279999999134528e+00 -1.2495823863698840e+02 1.0000000000000000e+00 1.3735080030852431e+00 7.8655400069631902e+00 7.2614670062398226e+00 
305 1 2 1.0279999999132188e+00 -1.0679508368631770e+02 1.0000000000000000e+00 1.3735608077652317e+00 7.8653660385478901e+00 7.2615706021341806e+00 
346 1 2 1.0279999999128513e+00 -1.4188466079415105e+02 1.0000000000000000e+00 1.3736419527451256e+00 7.8651020505596509e+00 7.2617263329470179e+00 
180 1 2 1.0279999998907139e+00 -9.2958500572646301e+01 1.0000000000000000e+00 1.4342584716101368e+00 7.9995691444655730e+00 7.0242154197148254e+00 
61 1 2 1.0279999999169120e+00 -1.2615542432050633e+02 1.0000000000000000e+00 5.2039888771351828e-01 6.9554711998071808e+00 9.3369096419440023e+00 
133 1 2 1.0279999999784022e+00 -7.0737115966747254e+01 1.0000000000000000e+00 4.5797642274493688e-01 7.0821836493619497e+00 9.5713804130103686e+00 
327 1 2 1.0280000000113032e+00 -1.3537871780900247e+02 1.0000000000000000e+00 4.2279164619296594e+00 6.9442697078726585e+00 7.1235380524336414e+00 
336 1 2 1.0280000000183158e+00 -1.6249898356197485e+02 1.0000000000000000e+00 4.2396462614232897e+00 6.9452781220616711e+00 7.1165877134349254e+00 
345 1 2 1.0280000000043557e+00 -1.0247036095433232e+02 1.0000000000000000e+00 2.8361616840526649e+00 2.6731551037944943e+00 1.2225273154983581e+01 
189 1 2 1.0280000000204699e+00 -1.1596457322659373e+02 1.0000000000000000e+00 1.9125348121684880e+00 2.0104582377514819e+00 1.3011730701473724e+01 
303 1 2 1.0280000000204701e+00 -9.2178052970348915e+01 1.0000000000000000e+00 1.9125350094416971e+00 2.0104583901996844e+00 1.3011730603222290e+01 
33 1 2 1.0280000000204699e+00 -1.1457345127216249e+02 1.0000000000000000e+00 1.9125351842051832e+00 2.0104585256086800e+00 1.3011730516270829e+01 
73 1 2 1.0280000000204697e+00 -1.1170385167472230e+02 1.0000000000000000e+00 1.9125348658141652e+00 2.0104582783478353e+00 1.3011730674540415e+01 
248 1 2 1.0280000000203686e+00 -1.6987581645814535e+02 1.0000000000000000e+00 1.9130319803342015e+00 2.0120224499733776e+00 1.3011781073283007e+01 
140 1 2 1.0279999999837584e+00 -5.9016363903829088e+01 1.0000000000000000e+00 4.5865710673054787e+00 1.1955725232382168e+00 1.2837997458074481e+01 
342 1 2 1.0279999999855487e+00 -7.6561906304519937e+01 1.0000000000000000e+00 4.6041536592602892e+00 1.1850832541221274e+00 1.2862980114901353e+01 
27 1 2 1.0279999999855494e+00 -6.0396776340674982e+01 1.0000000000000000e+00 4.6041961087800667e+00 1.1850158514767313e+00 1.2863079989549915e+01 
62 1 2 1.0279999999855496e+00 -1.3308051563878033e+02 1.0000000000000000e+00 4.6041961100672486e+00 1.1850158494830016e+00 1.2863079992531489e+01 
341 1 2 1.0279999999855498e+00 -3.1905704623283697e+01 1.0000000000000000e+00 4.6041961041196009e+00 1.1850158586863038e+00 1.2863079978763130e+01 
31 1 2 1.0279999999855507e+00 -1.0941970111100778e+02 1.0000000000000000e+00 4.6041986156894374e+00 1.1850117925235157e+00 1.2863085961508666e+01 
110 1 2 1.0280000001332981e+00 -5.9343035175646953e+01 1.0000000000000000e+00 1.0446169593815130e-01 6.6619552017328214e+00 1.2295888990937673e+01 
50 1 2 1.0279999999617426e+00 -8.6910277931305586e+01 1.0000000000000000e+00 2.5456174712504058e+00 6.3721637452116395e+00 1.1815385420587448e+01 
82 1 2 1.0279999999616443e+00 -7.0666705746532060e+01 1.0000000000000000e+00 2.5456174713062136e+00 6.3721637452221511e+00 1.1815385420816968e+01 
176 1 2 1.0279999999616447e+00 -9.9586209002874114e+01 1.0000000000000000e+00 2.5456174731041887e+00 6.3721637453324940e+00 1.1815385427873178e+01 
119 1 2 1.0279999999617366e+00 -1.0565305195261250e+02 1.0000000000000000e+00 2.5456174713097535e+00 6.3721637452230446e+00 1.1815385420834035e+01 
58 1 2 1.0279999999617435e+00 -8.2712011886135699e+01 1.0000000000000000e+00 2.5456174712261999e+00 6.3721637452268665e+00 1.1815385420522174e+01 
216 1 2 1.0280000000232561e+00 -6.2827648511272947e+01 1.0000000000000000e+00 3.9537026724875610e+00 3.8282036337699927e+00 1.1418671498485303e+01 
161 1 2 1.0280000000232576e+00 -1.0669312212488109e+02 1.0000000000000000e+00 3.9536926132423762e+00 3.8282111031550974e+00 1.1418669595167287e+01 
120 1 2 1.0280000000232552e+00 -1.3497554100866182e+02 1.0000000000000000e+00 3.9537054067033335e+00 3.8282016030866233e+00 1.1418672016006942e+01 
127 1 2 1.0280000000232550e+00 -1.1148689429078817e+02 1.0000000000000000e+00 3.9537053767236960e+00 3.8282016253422841e+00 1.1418672010336318e+01 
65 1 2 1.0280000000232556e+00 -1.7028889487911781e+02 1.0000000000000000e+00 3.9537045911811459e+00 3.8282022085290275e+00 1.1418671861739666e+01 
369 1 2 1.0279999999894096e+00 -8.6329122898516488e+01 1.0000000000000000e+00 5.1952020860741772e+00 5.1236860373419466e+00 1.2893356486188788e+01 
195 1 2 1.0279999999894482e+00 -1.0569860306563697e+02 1.0000000000000000e+00 5.1969550937814484e+00 5.1249150718206495e+00 1.2890729532017870e+01 
234 1 2 1.0279999999893583e+00 -5.4371842950731917e+01 1.0000000000000000e+00 5.1969551026587215e+00 5.1249150744580065e+00 1.2890729520878349e+01 
204 1 2 1.0279999999894360e+00 -6.5287435589600591e+01 1.0000000000000000e+00 5.1969550928497643e+00 5.1249150715489122e+00 1.2890729533183926e+01 
225 1 2 1.0279999999893688e+00 -7.5531904807667217e+01 1.0000000000000000e+00 5.1969551048242195e+00 5.1249150750730212e+00 1.2890729518178629e+01 
128 1 2 1.0279999999894380e+00 -1.5912642485539772e+02 1.0000000000000000e+00 5.1969550943414990e+00 5.1249150719905083e+00 1.2890729531312942e+01 
94 1 2 1.0280000000584257e+00 -3.6275376524793600e+01 1.0000000000000000e+00 1.5111448064336902e-01 6.7220986786012622e+00 1.1700316186845091e+01 
75 1 2 1.0280000000398295e+00 -8.3783343994292352e+01 1.0000000000000000e+00 1.2938500861263103e-01 6.7346302096098043e+00 1.1567893376852778e+01 
43 1 2 1.0280000000262586e+00 -7.3480226422599571e+01 1.0000000000000000e+00 1.0711518730038015e-01 6.7454829054505261e+00 1.1457615287003394e+01 
21 1 2 1.0279999999758984e+00 -1.4533398587758705e+02 1.0000000000000000e+00 8.0423818524586785e-02 6.9460587574048711e+00 1.0168701508339323e+01 
54 1 2 1.0279999999861660e+00 -1.1499847544225061e+02 1.0000000000000000e+00 8.6469262872896246e-02 7.0517075166086691e+00 1.0363830057872198e+01 
307 1 2 1.0280000000225182e+00 -7.9688982767009577e+01 1.0000000000000000e+00 3.3285289735558181e+00 8.9337318835890667e+00 1.3061670162688252e+01 
298 1 2 1.0280000000279652e+00 -8.0240164546466715e+01 1.0000000000000000e+00 3.3884844194606072e+00 8.9230601750675866e+00 1.3147401553780778e+01 
250 1 2 1.0280000000286100e+00 -7.4124338011290831e+01 1.0000000000000000e+00 3.3927102904452604e+00 8.9209875176429669e+00 1.3155717412812333e+01 
103 1 2 1.0280000000286482e+00 -7.0622192902610976e+01 1.0000000000000000e+00 3.3928685499697733e+00 8.9209151232746251e+00 1.3156085920497979e+01 
72 1 2 1.0279999999574514e+00 -1.2559934934814218e+02 1.0000000000000000e+00 5.0927172306880397e-01 2.8303314277093445e+00 1.4858330414871334e+01 
366 1 2 1.0279999999843958e+00 -1.6765651887965009e+02 1.0000000000000000e+00 6.4161801757661019e-01 2.3139821270552932e+00 1.5270204357332430e+01 
37 1 2 1.0279999999843965e+00 -1.0206222611436306e+02 1.0000000000000000e+00 6.4423074445845063e-01 2.3136874214509007e+00 1.5274119499207748e+01 
28 1 2 1.0279999999844032e+00 -1.3039005662171010e+02 1.0000000000000000e+00 6.4423074445207962e-01 2.3136874215494485e+00 1.5274119499302060e+01 
295 1 2 1.0279999999844052e+00 -8.2440571796237720e+01 1.0000000000000000e+00 6.4423074446672068e-01 2.3136874213433352e+00 1.5274119499106764e+01 
96 1 2 1.0279999999844056e+00 -1.3183141322215212e+02 1.0000000000000000e+00 6.4423074426471194e-01 2.3136874222497559e+00 1.5274119499744671e+01 
224 1 2 1.0279999999763947e+00 -6.9538669473372039e+01 1.0000000000000000e+00 4.3440990101355270e+00 2.4302748996796595e+00 1.6008827770057227e+01 
47 1 2 1.0279999999764564e+00 -1.2500789850327598e+02 1.0000000000000000e+00 4.3439991563774001e+00 2.4303549748890707e+00 1.6008834832384018e+01 
171 1 2 1.0279999999764020e+00 -5.3035174907730806e+01 1.0000000000000000e+00 4.3440935608011424e+00 2.4302798012018414e+00 1.6008828371161925e+01 
255 1 2 1.0279999999764080e+00 -8.4849072678661656e+01 1.0000000000000000e+00 4.3440870033416745e+00 2.4302857442056971e+00 1.6008829112709297e+01 
18 1 2 1.0279999999764577e+00 -1.1177972331275436e+02 1.0000000000000000e+00 4.3439981670045880e+00 2.4303582266994943e+00 1.6008835900859026e+01 
158 1 2 1.0280000000270353e+00 -9.7528497526464150e+01 1.0000000000000000e+00 6.1236163514120596e+00 4.2543952859200984e-01 1.4972881700454321e+01 
10 1 2 1.0280000000270348e+00 -7.5984047000047639e+01 1.0000000000000000e+00 6.1236164605541559e+00 4.2544132857110528e-01 1.4972880729638829e+01 
3 1 2 1.0280000000270362e+00 -9.4448761539490121e+01 1.0000000000000000e+00 6.1236180954311878e+00 4.2546442465102507e-01 1.4972868167394722e+01 
107 1 2 1.0280000000270344e+00 -7.3067916935729471e+01 1.0000000000000000e+00 6.1236154029891541e+00 4.2542149499369625e-01 1.4972891361601295e+01 
239 1 2 1.0280000000270353e+00 -8.4902908085164597e+01 1.0000000000000000e+00 6.1236166664617064e+00 4.2544461166150505e-01 1.4972878955835101e+01 
16 1 2 1.0280000000348726e+00 -1.4035442780181921e+02 1.0000000000000000e+00 1.2438798000733444e+00 5.3956032971113359e+00 1.4023899979593057e+01 
356 1 2 1.0280000000347156e+00 -7.2880445321919666e+01 1.0000000000000000e+00 1.2434540041577966e+00 5.3952546565323969e+00 1.4024025534889702e+01 
193 1 2 1.0280000000347138e+00 -1.1903439039927574e+02 1.0000000000000000e+00 1.2434678596062883e+00 5.3952653724662873e+00 1.4024016778007429e+01 
286 1 2 1.0280000000348128e+00 -1.0708814983995256e+02 1.0000000000000000e+00 1.2435341082025215e+00 5.3953147407372368e+00 1.4023960813838718e+01 
185 1 2 1.0280000000346710e+00 -8.1848153798667596e+01 1.0000000000000000e+00 1.2435022652158265e+00 5.3952909893611345e+00 1.4023987553066947e+01 
95 1 2 1.0280000000309550e+00 -1.2458369151047046e+02 1.0000000000000000e+00 1.6362137437188589e+00 4.4796598612100667e+00 1.6574968387849211e+01 
159 1 2 1.0280000000309550e+00 -1.1628166462320493e+02 1.0000000000000000e+00 1.6362137446464071e+00 4.4796598502760459e+00 1.6574968412937292e+01 
357 1 2 1.0280000000309470e+00 -1.0386539439646297e+02 1.0000000000000000e+00 1.6362138477699697e+00 4.4796586331399926e+00 1.6574971205636899e+01 
222 1 2 1.0280000000309548e+00 -1.0031402450371584e+02 1.0000000000000000e+00 1.6362137450124703e+00 4.4796598459274870e+00 1.6574968422914875e+01 
52 1 2 1.0280000000380312e+00 -8.2392194710703748e+01 1.0000000000000000e+00 3.2016020979368869e+00 8.7227926918603256e+00 1.3482983121412644e+01 
212 1 2 1.0280000000380600e+00 -5.3932022805166540e+01 1.0000000000000000e+00 3.2026735950182106e+00 8.7232778585512474e+00 1.3482871337957132e+01 
86 1 2 1.0280000000380947e+00 -1.0237864232742314e+02 1.0000000000000000e+00 3.2038660679899582e+00 8.7238177347894634e+00 1.3482742531724970e+01 
22 1 2 1.0280000000202465e+00 -1.4612944708873084e+02 1.0000000000000000e+00 3.8532325909433354e+00 2.1331797900036258e+00 1.7904074841738542e+01 
68 1 2 1.0280000000202474e+00 -1.1445618039612103e+02 1.0000000000000000e+00 3.8532532046151866e+00 2.1331750668257192e+00 1.7904071235782219e+01 
348 1 2 1.0280000000202487e+00 -9.5870343391673316e+01 1.0000000000000000e+00 3.8532347370560802e+00 2.1331792980221551e+00 1.7904074466239326e+01 
113 1 2 1.0280000000202481e+00 -7.9668520042125735e+01 1.0000000000000000e+00 3.8532354870824030e+00 2.1331791261229824e+00 1.7904074335024482e+01 
123 1 2 1.0280000000202476e+00 -1.0440249326999567e+02 1.0000000000000000e+00 3.8532354765572614e+00 2.1331791285368880e+00 1.7904074336866518e+01 
382 1 2 1.0279999999896754e+00 -1.3540097779994545e+02 1.0000000000000000e+00 2.0582300353269005e+00 3.7239822005292615e+00 1.7341518219459040e+01 
177 1 2 1.0279999999893723e+00 -6.2888661622168101e+01 1.0000000000000000e+00 2.0607184417590689e+00 3.7211668746437736e+00 1.7343027840512491e+01 
6 1 2 1.0279999999893425e+00 -1.4872339104087987e+02 1.0000000000000000e+00 2.0642671581314573e+00 3.7171379610106805e+00 1.7345177012103633e+01 
197 1 2 1.0279999999781275e+00 -8.5514254577752297e+01 1.0000000000000000e+00 1.9529384577714182e+00 7.8555407862041156e+00 1.7712164685598417e+01 
80 1 2 1.0279999999781300e+00 -5.4197107786714867e+01 1.0000000000000000e+00 1.9529364166319425e+00 7.8555440420871472e+00 1.7712169415821229e+01 
60 1 2 1.0279999999794520e+00 -9.6019907892182943e+01 1.0000000000000000e+00 1.9514400147788082e+00 7.8570476937620910e+00 1.7715271202371991e+01 
333 1 2 1.0279999999781300e+00 -3.4785131983323851e+01 1.0000000000000000e+00 1.9529364166864880e+00 7.8555440419959215e+00 1.7712169415693744e+01 
296 1 2 1.0279999999781766e+00 -1.3223743383703462e+02 1.0000000000000000e+00 1.9528997738860305e+00 7.8556019106996162e+00 1.7712254062998731e+01 
116 1 2 1.0279999999781300e+00 -1.1542699168247711e+02 1.0000000000000000e+00 1.9529364166205103e+00 7.8555440421059206e+00 1.7712169415847860e+01 
310 1 2 1.0279999999781300e+00 -7.8432267059153475e+01 1.0000000000000000e+00 1.9529364143342116e+00 7.8555440459723984e+00 1.7712169421202294e+01 
339 1 2 1.0280000000032026e+00 -7.9265826015918719e+01 1.0000000000000000e+00 1.2054930549249855e-01 1.0939637303289329e+01 3.4175212774717800e-01 
338 1 2 1.0280000000031537e+00 -7.5922021415641524e+01 1.0000000000000000e+00 1.2060961215141332e-01 1.0939553159800244e+01 3.4179903167882114e-01 
178 1 2 1.0280000000030962e+00 -7.1376977960873418e+01 1.0000000000000000e+00 1.2074923249165469e-01 1.0939359634897095e+01 3.4191210471123012e-01 
331 1 2 1.0280000000031311e+00 -9.8780636053198862e+01 1.0000000000000000e+00 1.2064978602744118e-01 1.0939497292221109e+01 3.4183092561544509e-01 
8 1 2 1.0279999999941762e+00 -1.1467302535114374e+02 1.0000000000000000e+00 2.1939041552771615e-01 1.0689077969882760e+01 8.5197413772276964e-01 
281 1 2 1.0279999999939005e+00 -9.0164581536175746e+01 1.0000000000000000e+00 2.1597898172845914e-01 1.0681782588028279e+01 8.8926496696449953e-01 
344 1 2 1.0279999999814970e+00 -1.8997594236856597e+02 1.0000000000000000e+00 7.0821072625114523e-01 1.0674292803100647e+01 3.8886718856084790e+00 
252 1 2 1.0280000000082408e+00 -1.3334127466674136e+02 1.0000000000000000e+00 1.2516141327912682e+00 1.1782857001032481e+01 4.8283673884813796e+00 
85 1 2 1.0280000000087068e+00 -9.4154879452323627e+01 1.0000000000000000e+00 1.2789723692328312e+00 1.1419109585790039e+01 4.4916201471991499e+00 
324 1 2 1.0280000000081122e+00 -1.4607131466458017e+02 1.0000000000000000e+00 1.2791302909506104e+00 1.1414639812059521e+01 4.4883359761584138e+00 
277 1 2 1.0280000000343987e+00 -3.7014177639487968e+01 1.0000000000000000e+00 1.7407163323117214e+00 1.0927270544914460e+01 5.6986413614957643e+00 
77 1 2 1.0280000000364795e+00 -1.0317976171654659e+02 1.0000000000000000e+00 1.7772180310431283e+00 1.1000714665962485e+01 5.7706548881193429e+00 
129 1 2 1.0279999999279001e+00 -1.5910510096522671e+02 1.0000000000000000e+00 1.0489853855257558e+00 1.0673478586192143e+01 5.8856827171279509e+00 
372 1 2 1.0279999999923009e+00 -9.5995865557473522e+01 1.0000000000000000e+00 1.4842103262460388e-01 1.2967791064663366e+01 5.9685101251946451e+00 
105 1 2 1.0279999999726326e+00 -9.5342247785715969e+01 1.0000000000000000e+00 1.0675199743424525e-01 1.2889435155598727e+01 5.9942528263090136e+00 
263 1 2 1.0280000000262295e+00 -9.6397327254077794e+01 1.0000000000000000e+00 1.9750818686192402e+00 1.1222908290642033e+01 6.1347532528301718e+00 
228 1 2 1.0280000000034435e+00 -6.6997346599723954e+01 1.0000000000000000e+00 2.1988583219423909e+00 1.2317013042931684e+01 8.0491692258512160e+00 
259 1 2 1.0280000000034550e+00 -1.1712998901001838e+02 1.0000000000000000e+00 2.1994215581327947e+00 1.2316164188916517e+01 8.0491928916641253e+00 
48 1 2 1.0280000000033931e+00 -1.2677514150544920e+02 1.0000000000000000e+00 2.1949922146393543e+00 1.2323755371018994e+01 8.0493051566934728e+00 
260 1 2 1.0280000000033847e+00 -8.2665066464560937e+01 1.0000000000000000e+00 2.1953208494306287e+00 1.2323235259902702e+01 8.0493149893624150e+00 
229 1 2 1.0279999999899729e+00 -7.0618208249700473e+01 1.0000000000000000e+00 3.6763043282056378e+00 1.2484454647632161e+01 7.1321682124858041e+00 
141 1 2 1.0279999999893157e+00 -9.1157867056022539e+01 1.0000000000000000e+00 3.6996899263566019e+00 1.2515740576251327e+01 7.1661101690161875e+00 
154 1 2 1.0279999999892646e+00 -8.6563222465656978e+01 1.0000000000000000e+00 3.6997191601594661e+00 1.2515782838619549e+01 7.1661542487458627e+00 
167 1 2 1.0279999999889913e+00 -9.0153295865613444e+01 1.0000000000000000e+00 3.7158694446183085e+00 1.2540239510579287e+01 7.1913580429722295e+00 
214 1 2 1.0280000000167269e+00 -7.9626460300229553e+01 1.0000000000000000e+00 6.2031642975105781e+00 1.2314506152508695e+01 9.0690822097538533e+00 
213 1 2 1.0280000000167269e+00 -8.4200607425817878e+01 1.0000000000000000e+00 6.2031642571886225e+00 1.2314506153741116e+01 9.0690822641246758e+00 
99 1 2 1.0280000000167302e+00 -4.7869110862957371e+01 1.0000000000000000e+00 6.2031567409792681e+00 1.2314504535643971e+01 9.0690921334866754e+00 
256 1 2 1.0280000000167269e+00 -1.2845121632099702e+02 1.0000000000000000e+00 6.2031642602682915e+00 1.2314506153781938e+01 9.0690822599913101e+00 
221 1 2 1.0280000000167271e+00 -9.2671332530025239e+01 1.0000000000000000e+00 6.2031642971899128e+00 1.2314506152523352e+01 9.0690822101869362e+00 
150 1 2 1.0280000000167275e+00 -7.3970020804332762e+01 1.0000000000000000e+00 6.2031632812789042e+00 1.2314505622265594e+01 9.0690834997416854e+00 
220 1 2 1.0280000000167271e+00 -1.1638755345509838e+02 1.0000000000000000e+00 6.2031642949520958e+00 1.2314506152624700e+01 9.0690822132091604e+00 
66 1 2 1.0280000000005314e+00 -9.2834943835311350e+01 1.0000000000000000e+00 1.4892683754556210e-01 1.4872265889431651e+01 6.7348843568942707e+00 
306 1 2 1.0280000000005332e+00 -8.8627400312187035e+01 1.0000000000000000e+00 1.4893212014822338e-01 1.4872276316436869e+01 6.7348977118449520e+00 
126 1 2 1.0280000000005336e+00 -1.0708487276680569e+02 1.0000000000000000e+00 1.4893060779922607e-01 1.4872273326844621e+01 6.7348938833057383e+00 
202 1 2 1.0280000000005265e+00 -8.6338131333346212e+01 1.0000000000000000e+00 1.4891822520936382e-01 1.4872248891217518e+01 6.7348625852921664e+00 
102 1 2 1.0280000000010863e+00 -8.7900252554954093e+01 1.0000000000000000e+00 2.3094505523319322e+00 1.4311422848881687e+01 7.5291210817952292e+00 
313 1 2 1.0280000000008518e+00 -1.1467729192408169e+02 1.0000000000000000e+00 2.3016853173319616e+00 1.5559229299500011e+01 7.8116466952589816e+00 
34 1 2 1.0280000000008522e+00 -7.0593974627647384e+01 1.0000000000000000e+00 2.3016853172578173e+00 1.5559229297986981e+01 7.8116466933344144e+00 
358 1 2 1.0280000000008518e+00 -9.7243457699374176e+01 1.0000000000000000e+00 2.3016853173319527e+00 1.5559229299499751e+01 7.8116466952586343e+00 
125 1 2 1.0280000000008518e+00 -1.2882388488825265e+02 1.0000000000000000e+00 2.3016853173322911e+00 1.5559229299506358e+01 7.8116466952669708e+00 
290 1 2 1.0279999999954506e+00 -6.5453685730978464e+01 1.0000000000000000e+00 3.3581677876133562e+00 1.3518438261914270e+01 7.5063844324640012e+00 
312 1 2 1.0279999999976059e+00 -1.2046600875556197e+02 1.0000000000000000e+00 1.5977354611981107e+00 1.7360175729737612e+01 8.0848261624938420e+00 
320 1 2 1.0279999999976055e+00 -9.6397670239204444e+01 1.0000000000000000e+00 1.5977486822749312e+00 1.7360168815730834e+01 8.0848272513995454e+00 
362 1 2 1.0279999999982798e+00 -1.0175156635969603e+02 1.0000000000000000e+00 1.4255776683677297e+00 1.7451769085318315e+01 8.1150870583330690e+00 
271 1 2 1.0279999999976006e+00 -6.2389967078158264e+01 1.0000000000000000e+00 1.5981122426008239e+00 1.7359978552154683e+01 8.0848570418519579e+00 
308 1 2 1.0279999999976055e+00 -9.3276624858433522e+01 1.0000000000000000e+00 1.5977433030871391e+00 1.7360171628831491e+01 8.0848268083873371e+00 
149 1 2 1.0280000000200000e+00 -6.6349890372021932e+01 1.0000000000000000e+00 2.5540903533731825e-03 1.1920001757715529e+01 1.0502773011853332e+01 
206 1 2 1.0280000000200002e+00 -5.1621209832217090e+01 1.0000000000000000e+00 2.5541120013060337e-03 1.1920001792648778e+01 1.0502773009044388e+01 
134 1 2 1.0280000000200005e+00 -4.8051753977882541e+01 1.0000000000000000e+00 2.5540972811722551e-03 1.1920001769156272e+01 1.0502773011056245e+01 
135 1 2 1.0280000000199998e+00 -3.8925496735376001e+01 1.0000000000000000e+00 2.5540914286595676e-03 1.1920001759380757e+01 1.0502773011686548e+01 
71 1 2 1.0279999999626117e+00 -1.0825497234087024e+02 1.0000000000000000e+00 3.3800437572812297e-01 1.0436631802943738e+01 1.3491364683416782e+01 
284 1 2 1.0279999999626119e+00 -7.3330981268280524e+01 1.0000000000000000e+00 3.3800437705349823e-01 1.0436631806648315e+01 1.3491364682881882e+01 
59 1 2 1.0279999999626097e+00 -7.9843210583184543e+01 1.0000000000000000e+00 3.3800375289161072e-01 1.0436630067010212e+01 1.3491364929773924e+01 
118 1 2 1.0279999999626117e+00 -8.1159854045684455e+01 1.0000000000000000e+00 3.3800437675125794e-01 1.0436631806096759e+01 1.3491364682710467e+01 
7 1 2 1.0279999999626117e+00 -1.3960115551487155e+02 1.0000000000000000e+00 3.3800437647265574e-01 1.0436631805048414e+01 1.3491364683092666e+01 
230 1 2 1.0279999999625795e+00 -6.6810683868573506e+01 1.0000000000000000e+00 3.3799545634404110e-01 1.0436606911142635e+01 1.3491368235380403e+01 
143 1 2 1.0280000000308895e+00 -9.5882621033779145e+01 1.0000000000000000e+00 5.2410334425226734e-01 1.0475660116517936e+01 1.3472911292476377e+01 
101 1 2 1.0279999999981362e+00 -3.2152293354381356e+01 1.0000000000000000e+00 8.8758401991178160e-01 1.7878950999860191e+01 1.4125574531853561e+01 
383 1 2 1.0279999999952527e+00 -1.2354273008027597e+02 1.0000000000000000e+00 3.6754753636448534e-01 1.9148991984549301e+01 1.4961808467505531e+01 
257 1 2 1.0280000000228773e+00 -1.3161711993103216e+02 1.0000000000000000e+00 1.1794857306876427e+00 1.9509700076164734e+01 1.3498896459910057e+01 
196 1 2 1.0279999999965619e+00 -7.9489695471134951e+01 1.0000000000000000e+00 1.0726631990469783e-01 1.7619048066780810e+01 1.3673250253291615e+01 
377 1 2 1.0279999999888410e+00 -1.3433791767673500e+02 1.0000000000000000e+00 1.5964502292787458e-01 1.9496418423361025e+01 1.4725222660402899e+01 
115 1 2 1.0280000000003184e+00 -9.5007987635875907e+01 1.0000000000000000e+00 8.8989099260257343e-01 1.7877662630591900e+01 1.4114473134875219e+01 
365 1 2 1.0279999999952645e+00 -1.2158184588451164e+02 1.0000000000000000e+00 3.6761686002723176e-01 1.9148833315608517e+01 1.4961860094773042e+01 
194 1 2 1.0280000000229248e+00 -1.1689174564211790e+02 1.0000000000000000e+00 1.1794858364795926e+00 1.9509698686871896e+01 1.3498895667015102e+01 
329 1 2 1.0280000000229368e+00 -1.1224976769077716e+02 1.0000000000000000e+00 1.1794857337760192e+00 1.9509700022830589e+01 1.3498896427989820e+01 
237 1 2 1.0279999999950904e+00 -8.4942552167717338e+01 1.0000000000000000e+00 3.7215829228090591e-01 1.9041944545210686e+01 1.4983564399172888e+01 
241 1 2 1.0280000000681404e+00 -8.1158956891285243e+01 1.0000000000000000e+00 1.2304729709494497e+01 5.4965712273368448e+00 1.9398488459169430e+00 
314 1 2 1.0280000000665623e+00 -8.5878985882028445e+01 1.0000000000000000e+00 1.2843302923315266e+01 6.2645947867986953e+00 1.9347599271827951e+00 
40 1 2 1.0280000000986536e+00 -9.6445990294664881e+01 1.0000000000000000e+00 1.3089495066018991e+01 5.5078800330435138e+00 1.5094745767008428e+00 
32 1 2 1.0280000000986536e+00 -1.2177229749587787e+02 1.0000000000000000e+00 1.3089495066057026e+01 5.5078800330428077e+00 1.5094745767208528e+00 
251 1 2 1.0280000000986533e+00 -1.5903064485884443e+02 1.0000000000000000e+00 1.3089495054723802e+01 5.5078800332283659e+00 1.5094745707688928e+00 
104 1 2 1.0280000000986536e+00 -1.0376729333176581e+02 1.0000000000000000e+00 1.3089495066022431e+01 5.5078800330436488e+00 1.5094745767025719e+00 
203 1 2 1.0280000000986531e+00 -6.1508916359080658e+01 1.0000000000000000e+00 1.3089495066049576e+01 5.5078800330429205e+00 1.5094745767169420e+00 