LAMMPS data file via write_data, version 30 Jul 2016, timestep = 50400000

384 atoms
2 atom types

0.0000000000000000e+00 2.0000000000000000e+01 xlo xhi
0.0000000000000000e+00 2.0000000000000000e+01 ylo yhi
0.0000000000000000e+00 2.0000000000000000e+01 zlo zhi

Masses

1 3.896
2 4.31

Atoms # meso-molecular

164 1 2 1.0280000000049074e+00 -8.1884140697931116e+01 1.0000000000000000e+00 5.3608740163099462e+00 1.8161619402648832e+00 2.2437114756121663e+00 
64 1 2 1.0280000000048022e+00 -1.7916124606121912e+02 1.0000000000000000e+00 5.3679461292525019e+00 1.8188700684135883e+00 2.2359895537717120e+00 
63 1 2 1.0280000000048031e+00 -1.3539905868010527e+02 1.0000000000000000e+00 5.3679302936980804e+00 1.8188752630407088e+00 2.2360217598422039e+00 
36 1 2 1.0280000000045797e+00 -1.0918078631754878e+02 1.0000000000000000e+00 5.3698533988421282e+00 1.8182523697580442e+00 2.2322010325540096e+00 
98 1 2 1.0280000000045875e+00 -5.8904839743478576e+01 1.0000000000000000e+00 5.3698583305391923e+00 1.8182507169030053e+00 2.2321913552226569e+00 
343 1 2 1.0279999999793030e+00 -2.0391480046736837e+02 1.0000000000000000e+00 5.4133986526662907e+00 8.9724232403528648e-01 2.0509557187487681e+00 
231 1 2 1.0279999999788143e+00 -7.5321883666180710e+01 1.0000000000000000e+00 5.4595608192081952e+00 8.2657828712287240e-01 2.0230413012492181e+00 
326 1 2 1.0280000000001157e+00 -6.9469158650596256e+01 1.0000000000000000e+00 3.1703370117622041e+00 8.9049613387206108e+00 1.9140189724979280e-02 
349 1 2 1.0280000000000553e+00 -6.6362889586039643e+01 1.0000000000000000e+00 3.1710485554794481e+00 8.9049068752089990e+00 2.0563923462474983e-02 
56 1 2 1.0280000000000544e+00 -1.3747389007222810e+02 1.0000000000000000e+00 3.1710589684002604e+00 8.9049061099567837e+00 2.0584798494104193e-02 
350 1 2 1.0280000000000553e+00 -9.3299540996327153e+01 1.0000000000000000e+00 3.1710484940616044e+00 8.9049068796959503e+00 2.0563800548307965e-02 
266 1 2 1.0280000000014871e+00 -1.5002959022832050e+02 1.0000000000000000e+00 3.2001716846699906e+00 8.9149093605106753e+00 1.7939867495592302e-01 
267 1 2 1.0280000000018648e+00 -1.3560849477886958e+02 1.0000000000000000e+00 3.2853947906305496e+00 9.0566784376552487e+00 4.0946366895703418e-01 
131 1 2 1.0279999999573193e+00 -6.1107609500371311e+01 1.0000000000000000e+00 2.1436046095046288e+00 5.8282888217330440e+00 4.6941155207333312e+00 
227 1 2 1.0279999999573193e+00 -7.3259760589923104e+01 1.0000000000000000e+00 2.1436046095046639e+00 5.8282888217330502e+00 4.6941155207332681e+00 
130 1 2 1.0279999999573188e+00 -1.0960861637362885e+02 1.0000000000000000e+00 2.1436046095046457e+00 5.8282888217330298e+00 4.6941155207332903e+00 
157 1 2 1.0279999999573193e+00 -1.0514166081049066e+02 1.0000000000000000e+00 2.1436046095226575e+00 5.8282888216727331e+00 4.6941155206614305e+00 
325 1 2 1.0279999999573193e+00 -9.3615996723569680e+01 1.0000000000000000e+00 2.1436046095046288e+00 5.8282888217330440e+00 4.6941155207333312e+00 
91 1 2 1.0279999999573193e+00 -4.0223925913486113e+01 1.0000000000000000e+00 2.1436046095046639e+00 5.8282888217330502e+00 4.6941155207332681e+00 
38 1 2 1.0279999999573193e+00 -9.7595568685329397e+01 1.0000000000000000e+00 2.1436046095046639e+00 5.8282888217330502e+00 4.6941155207332681e+00 
12 1 2 1.0280000000037266e+00 -1.7081200990907359e+02 1.0000000000000000e+00 5.5312811617895212e+00 5.9214182462334728e+00 4.3396469845596171e+00 
190 1 2 1.0280000000035692e+00 -7.8974580918832245e+01 1.0000000000000000e+00 5.5327304799367232e+00 5.9209360640367263e+00 4.3425806712184638e+00 
289 1 2 1.0280000000035698e+00 -7.9263649715771294e+01 1.0000000000000000e+00 5.5327304816143306e+00 5.9209360622410339e+00 4.3425806777348619e+00 
168 1 2 1.0280000000035698e+00 -1.0709801419825534e+02 1.0000000000000000e+00 5.5327303863653281e+00 5.9209361644222174e+00 4.3425803071751119e+00 
297 1 2 1.0280000000035694e+00 -9.1347019489092645e+01 1.0000000000000000e+00 5.5327304808262632e+00 5.9209360630849996e+00 4.3425806746726554e+00 
175 1 2 1.0279999999922842e+00 -8.4327271717127218e+01 1.0000000000000000e+00 5.9636926959549568e+00 4.2916519546162775e+00 3.4252135074412462e+00 
378 1 2 1.0279999999922842e+00 -1.6080703161100860e+02 1.0000000000000000e+00 5.9636926768445138e+00 4.2916519522783041e+00 3.4252134941077754e+00 
332 1 2 1.0279999999922833e+00 -5.4682478526039532e+01 1.0000000000000000e+00 5.9636999224894476e+00 4.2916248197130358e+00 3.4252564582479041e+00 
17 1 2 1.0279999999922838e+00 -7.2274080241595101e+01 1.0000000000000000e+00 5.9636926933962879e+00 4.2916519542702334e+00 3.4252135057007083e+00 
323 1 2 1.0279999999854008e+00 -1.5168531559372360e+02 1.0000000000000000e+00 5.9935881402632871e+00 4.2458474307829244e+00 3.5760679631578847e+00 
132 1 2 1.0280000000462826e+00 -5.9921506981752330e+01 1.0000000000000000e+00 4.1209406631065182e+00 4.3759383651793051e+00 6.9706029131608798e+00 
355 1 2 1.0280000000460006e+00 -1.3016711114135802e+02 1.0000000000000000e+00 4.1236265342794987e+00 4.3687719075662219e+00 6.9621263853355790e+00 
184 1 2 1.0280000000466332e+00 -1.3483603291928122e+02 1.0000000000000000e+00 4.1247513926603983e+00 4.3689705249348965e+00 6.9620588551961209e+00 
183 1 2 1.0280000000466021e+00 -7.6462176961803806e+01 1.0000000000000000e+00 4.1247111625158768e+00 4.3689330129155639e+00 6.9620255577171370e+00 
236 1 2 1.0280000000379099e+00 -7.8153185428483511e+01 1.0000000000000000e+00 4.1248573763122556e+00 4.5028918758688912e+00 7.0086106574951925e+00 
211 1 2 1.0280000000432956e+00 -5.9343924240600359e+01 1.0000000000000000e+00 4.1267129804384064e+00 4.4825116014021855e+00 7.0102794158745390e+00 
318 1 2 1.0280000000599758e+00 -4.9083731071449762e+01 1.0000000000000000e+00 4.1413808798150873e+00 4.4001603695317524e+00 6.9846846208191780e+00 
337 1 2 1.0280000000132430e+00 -1.2611399109790713e+02 1.0000000000000000e+00 4.4912900833510188e+00 8.3421727079001027e+00 9.6506301500743294e+00 
87 1 2 1.0280000000187892e+00 -9.3408422168164904e+01 1.0000000000000000e+00 4.5791628441301304e+00 8.4709640810866489e+00 9.7537760578093291e+00 
232 1 2 1.0279999999883600e+00 -1.1081801891918747e+02 1.0000000000000000e+00 4.1264142007597338e+00 7.1379326798676672e+00 9.9036157161309877e+00 
217 1 2 1.0279999999883505e+00 -9.9567419408702250e+01 1.0000000000000000e+00 4.1264152086525572e+00 7.1379314345801115e+00 9.9036249805060894e+00 
288 1 2 1.0279999999883538e+00 -1.1611783167647853e+02 1.0000000000000000e+00 4.1264138918357345e+00 7.1379330614959793e+00 9.9036128775565970e+00 
223 1 2 1.0279999999883569e+00 -7.5909004248426101e+01 1.0000000000000000e+00 4.1264141600419286e+00 7.1379327301740281e+00 9.9036153419214443e+00 
269 1 2 1.0279999999883433e+00 -5.2506788191364990e+01 1.0000000000000000e+00 4.1264152028567098e+00 7.1379314417218067e+00 9.9036249274266694e+00 
40 1 2 1.0280000000869829e+00 -9.6445990294664881e+01 1.0000000000000000e+00 9.4080090908128533e-01 6.4529780147339322e+00 1.2478560528577692e+01 
32 1 2 1.0280000000869829e+00 -1.2177229749587787e+02 1.0000000000000000e+00 9.4080090911932668e-01 6.4529780147332350e+00 1.2478560528597701e+01 
251 1 2 1.0280000000869831e+00 -1.5903064485884443e+02 1.0000000000000000e+00 9.4080089778606701e-01 6.4529780149187435e+00 1.2478560522645742e+01 
104 1 2 1.0280000000869831e+00 -1.0376729333176581e+02 1.0000000000000000e+00 9.4080090908473435e-01 6.4529780147340583e+00 1.2478560528579429e+01 
203 1 2 1.0280000000869822e+00 -6.1508916359080658e+01 1.0000000000000000e+00 9.4080090911190417e-01 6.4529780147333433e+00 1.2478560528593805e+01 
241 1 2 1.0280000000601555e+00 -8.1158956891285243e+01 1.0000000000000000e+00 1.5603493653600198e-01 6.4416692367412072e+00 1.2908934936296994e+01 
314 1 2 1.0280000000580960e+00 -8.5878985882028445e+01 1.0000000000000000e+00 6.9460857520740171e-01 7.2096934301631990e+00 1.2903846067330733e+01 
287 1 2 1.0280000000355063e+00 -1.3773935749848698e+02 1.0000000000000000e+00 4.4824824240372285e+00 8.7107316333383409e+00 1.0205341401292488e+01 
92 1 2 1.0279999999690779e+00 -8.6505561247892359e+01 1.0000000000000000e+00 4.9523263108607685e+00 8.5658591258609249e+00 1.0785655284864438e+01 
13 1 2 1.0279999999875300e+00 -1.2757405969075187e+02 1.0000000000000000e+00 6.5108545793981767e+00 9.7030760661026783e+00 1.0995162991128005e+01 
156 1 2 1.0279999999875298e+00 -9.2889477469607257e+01 1.0000000000000000e+00 6.5108567546936049e+00 9.7030778476854209e+00 1.0995162034258515e+01 
191 1 2 1.0279999999873108e+00 -8.4995822392294912e+01 1.0000000000000000e+00 6.5108615157154199e+00 9.7030817469778352e+00 1.0995159940020413e+01 
268 1 2 1.0279999999288287e+00 -7.2136262166691182e+01 1.0000000000000000e+00 3.1259545907299713e-01 7.0155030874404138e+00 1.4920591062535198e+01 
81 1 2 1.0279999999284515e+00 -7.6880860692114652e+01 1.0000000000000000e+00 3.1172917016147789e-01 7.0160272290627752e+00 1.4921768127442625e+01 
142 1 2 1.0279999999284459e+00 -1.1003347587086654e+02 1.0000000000000000e+00 3.1172048346477038e-01 7.0160325935100456e+00 1.4921779956916740e+01 
198 1 2 1.0279999999283609e+00 -1.0096463300631754e+02 1.0000000000000000e+00 3.1150907083977269e-01 7.0161640164796220e+00 1.4922068074755147e+01 
273 1 2 1.0280000000095486e+00 -9.6976951373366774e+01 1.0000000000000000e+00 5.8413735928715642e+00 8.8510648843751216e+00 1.3582156265275394e+01 
146 1 2 1.0280000000103360e+00 -8.4355685931093234e+01 1.0000000000000000e+00 5.8409117320386761e+00 8.8514605023151649e+00 1.3582108815036200e+01 
240 1 2 1.0280000000100105e+00 -1.4550692076841696e+02 1.0000000000000000e+00 5.8429280417168359e+00 8.8509211811891078e+00 1.3584924978039419e+01 
238 1 2 1.0280000000097020e+00 -4.3869332763749711e+01 1.0000000000000000e+00 5.8413825410479747e+00 8.8510308731180576e+00 1.3582099284382936e+01 
139 1 2 1.0279999999950287e+00 -5.6540864318389268e+01 1.0000000000000000e+00 2.6986182073846088e+00 1.0903286470702657e+01 7.3600037589011535e-01 
155 1 2 1.0279999999950746e+00 -9.0536511335340947e+01 1.0000000000000000e+00 2.7016193526620111e+00 1.0942818771054251e+01 7.3909556865293968e-01 
246 1 2 1.0280000000042049e+00 -6.2405388189937639e+01 1.0000000000000000e+00 3.1127480347064287e+00 1.2911904719329756e+01 1.0810910558487048e+00 
254 1 2 1.0280000000041865e+00 -5.1434879760554381e+01 1.0000000000000000e+00 3.1127478821850154e+00 1.2911904554804424e+01 1.0810909801853605e+00 
276 1 2 1.0280000000042295e+00 -3.8156581210633419e+01 1.0000000000000000e+00 3.1127484249161950e+00 1.2911905140234245e+01 1.0810912494324145e+00 
182 1 2 1.0280000000041669e+00 -6.3709165382282691e+01 1.0000000000000000e+00 3.1127480101581457e+00 1.2911904692845084e+01 1.0810910436727914e+00 
370 1 2 1.0280000000016010e+00 -1.5104578323883132e+02 1.0000000000000000e+00 5.1340371608169226e+00 1.1997544819167759e+01 6.0728948829879448e-01 
162 1 2 1.0280000000016070e+00 -8.3122217129181379e+01 1.0000000000000000e+00 5.1341701625914880e+00 1.1997514391035130e+01 6.0716714300918084e-01 
264 1 2 1.0280000000016072e+00 -1.3898390359323227e+02 1.0000000000000000e+00 5.1341705138295097e+00 1.1997514314951193e+01 6.0716682342551798e-01 
39 1 2 1.0280000000016132e+00 -1.2914585238026541e+02 1.0000000000000000e+00 5.1342894257843028e+00 1.1997487069851369e+01 6.0705740906739092e-01 
226 1 2 1.0279999999978355e+00 -1.1952474205020283e+02 1.0000000000000000e+00 4.4615233941440620e+00 1.4202116901362908e+01 1.7996549915137836e-01 
319 1 2 1.0279999999980061e+00 -8.7390301126216912e+01 1.0000000000000000e+00 4.4615234060977498e+00 1.4202116902878942e+01 1.7996549718625426e-01 
243 1 2 1.0279999999976306e+00 -6.2277256449095660e+01 1.0000000000000000e+00 4.4615233941357202e+00 1.4202116901362499e+01 1.7996549915249718e-01 
302 1 2 1.0279999999980700e+00 -8.2957349262555653e+01 1.0000000000000000e+00 4.4615233941600954e+00 1.4202116901363873e+01 1.7996549915021531e-01 
78 1 2 1.0280000000079155e+00 -1.1448753796827552e+02 1.0000000000000000e+00 6.6328919945407225e+00 1.6470182971486146e+01 3.9496048037583226e-01 
347 1 2 1.0279999999995959e+00 -9.7821944167945546e+01 1.0000000000000000e+00 6.2714490948768509e+00 1.1092241599543332e+01 9.3666577108403946e+00 
108 1 2 1.0279999999999518e+00 -9.4277360194983402e+01 1.0000000000000000e+00 6.2717890238363898e+00 1.1091854028556085e+01 9.3655110287220769e+00 
29 1 2 1.0279999999998597e+00 -1.0572626676131415e+02 1.0000000000000000e+00 6.2717974649159487e+00 1.1091844024664100e+01 9.3654818238146600e+00 
309 1 2 1.0279999999999299e+00 -7.0270768953711070e+01 1.0000000000000000e+00 6.2717848453487983e+00 1.1091858969320199e+01 9.3655254639099326e+00 
1 1 2 1.0280000000006020e+00 -1.9150334013112257e+02 1.0000000000000000e+00 6.2719424046799537e+00 1.1091668583246209e+01 9.3649733029201307e+00 
35 1 2 1.0280000000025984e+00 -4.7489445942701067e+01 1.0000000000000000e+00 4.5372332293738404e+00 1.0575507004640141e+01 1.2252160465999319e+01 
42 1 2 1.0280000000026568e+00 -6.3953540282633170e+01 1.0000000000000000e+00 4.5377994808755062e+00 1.0578998583963109e+01 1.2251761582678810e+01 
46 1 2 1.0279999999993381e+00 -7.8138301762152466e+01 1.0000000000000000e+00 4.5280316322059697e+00 1.0480362135831715e+01 1.2355041789092279e+01 
70 1 2 1.0279999999992997e+00 -1.2311794559106258e+02 1.0000000000000000e+00 4.5280320819897835e+00 1.0480366906034858e+01 1.2355042124303438e+01 
14 1 2 1.0279999999995204e+00 -1.4434474280458787e+02 1.0000000000000000e+00 4.5280318988451498e+00 1.0480364964406826e+01 1.2355041986977945e+01 
270 1 2 1.0280000000163421e+00 -6.0656825958498757e+01 1.0000000000000000e+00 5.7526216381480406e+00 1.2305906853772344e+01 1.2333220830833353e+01 
322 1 2 1.0280000000154415e+00 -1.3544548474481996e+02 1.0000000000000000e+00 5.7528783983048148e+00 1.2306420052395865e+01 1.2334072728216992e+01 
317 1 2 1.0280000000159089e+00 -6.2099621671443202e+01 1.0000000000000000e+00 5.7572633221312923e+00 1.2306008797610058e+01 1.2328432238243067e+01 
381 1 2 1.0280000000136262e+00 -8.0876986601102629e+01 1.0000000000000000e+00 5.9030779819008847e+00 1.2734984464196618e+01 1.4024559674122450e+01 
76 1 2 1.0280000000136267e+00 -1.5367763165354299e+02 1.0000000000000000e+00 5.9030779822123494e+00 1.2734984465002377e+01 1.4024559677894485e+01 
5 1 2 1.0280000000136267e+00 -1.8273790328267785e+02 1.0000000000000000e+00 5.9030779499887140e+00 1.2734984381175167e+01 1.4024559281885560e+01 
4 1 2 1.0280000000136267e+00 -1.6351641055459066e+02 1.0000000000000000e+00 5.9030779282641310e+00 1.2734984324663877e+01 1.4024559014946062e+01 
380 1 2 1.0280000000158835e+00 -1.1521804854831817e+02 1.0000000000000000e+00 6.0768127317732290e+00 1.3780506435941511e+01 1.5872453235109083e+01 
374 1 2 1.0280000000160514e+00 -1.4523269663646624e+02 1.0000000000000000e+00 6.0787608636965818e+00 1.3784884827592665e+01 1.5878611137539906e+01 
83 1 2 1.0280000000160507e+00 -6.7053969941332596e+01 1.0000000000000000e+00 6.0787608636965631e+00 1.3784884827592624e+01 1.5878611137539863e+01 
174 1 2 1.0280000000160512e+00 -9.5484297334727017e+01 1.0000000000000000e+00 6.0787608636966066e+00 1.3784884827592725e+01 1.5878611137539853e+01 
258 1 2 1.0280000000397709e+00 -1.5148863222145837e+02 1.0000000000000000e+00 6.1461035711216576e+00 1.3989246030130071e+01 1.6237409579566652e+01 
53 1 2 1.0280000000042540e+00 -1.1696909193284876e+02 1.0000000000000000e+00 2.6198825006173285e+00 1.1083056544003568e+01 1.9377304132668090e+01 
316 1 2 1.0280000000041540e+00 -7.2636953554357504e+01 1.0000000000000000e+00 2.6195670694332946e+00 1.1082740284287143e+01 1.9377765114937286e+01 
205 1 2 1.0280000000007927e+00 -8.4616362994890181e+01 1.0000000000000000e+00 2.4719423051060372e+00 1.0824964788076716e+01 1.9613122027462541e+01 
163 1 2 1.0280000000073966e+00 -7.9069350051322459e+01 1.0000000000000000e+00 4.1322884671267355e+00 1.2865657037270221e+01 1.8140402019498456e+01 
375 1 2 1.0280000000073628e+00 -1.2097908715757086e+02 1.0000000000000000e+00 4.1323378431037590e+00 1.2865515647286415e+01 1.8140364705921854e+01 
311 1 2 1.0280000000038694e+00 -1.1123320939080369e+02 1.0000000000000000e+00 4.1111479538756832e+00 1.2914247182061281e+01 1.8155512276842220e+01 
148 1 2 1.0279999999992466e+00 -9.1648310745847084e+01 1.0000000000000000e+00 3.8721740737999890e+00 1.2253118062561750e+01 1.8171864785298347e+01 
97 1 2 1.0279999999992475e+00 -9.7707567527472449e+01 1.0000000000000000e+00 3.8721724726612692e+00 1.2253119468714198e+01 1.8171864493333963e+01 
219 1 2 1.0279999999992449e+00 -8.0904098172089476e+01 1.0000000000000000e+00 3.8722029780663338e+00 1.2253092675341763e+01 1.8171870057906055e+01 
304 1 2 1.0280000000035461e+00 -1.1303458532513065e+02 1.0000000000000000e+00 6.2703300691416022e+00 1.5225220683844757e+01 1.8606750015147377e+01 
376 1 2 1.0280000000035459e+00 -1.2490127384369876e+02 1.0000000000000000e+00 6.2703299919737008e+00 1.5225220746157056e+01 1.8606750230975745e+01 
367 1 2 1.0280000000035463e+00 -1.1533230125918806e+02 1.0000000000000000e+00 6.2703303306056055e+00 1.5225220472205976e+01 1.8606749283866101e+01 
368 1 2 1.0280000000035456e+00 -8.8957337547734824e+01 1.0000000000000000e+00 6.2703302666499612e+00 1.5225220524028700e+01 1.8606749462741991e+01 
44 1 2 1.0280000001172787e+00 -9.7848823299962589e+01 1.0000000000000000e+00 9.4044093518780407e+00 6.1927594472487666e+00 3.1272945534045593e-01 
294 1 2 1.0280000001171465e+00 -3.0493533164262768e+01 1.0000000000000000e+00 9.4044506421127689e+00 6.1926278746816132e+00 3.1366840985724270e-01 
359 1 2 1.0280000001082239e+00 -1.2588774076105008e+02 1.0000000000000000e+00 9.4082782601887534e+00 6.1713743316478276e+00 5.0017331726741199e-01 
249 1 2 1.0280000001082179e+00 -1.4905675565539806e+02 1.0000000000000000e+00 9.4082820289148295e+00 6.1713690766844467e+00 5.0022824522788334e-01 
335 1 2 1.0280000001082266e+00 -1.8033770759507172e+02 1.0000000000000000e+00 9.4082748639532490e+00 6.1713769829870406e+00 5.0014679047264499e-01 
161 1 2 1.0280000000202076e+00 -1.0669312212488109e+02 1.0000000000000000e+00 1.1804999672751086e+01 4.7733106010202482e+00 2.3877379123586575e+00 
65 1 2 1.0280000000202034e+00 -1.7028889487911781e+02 1.0000000000000000e+00 1.1805011650691352e+01 4.7733017063953245e+00 2.3877401789342265e+00 
127 1 2 1.0280000000202034e+00 -1.1148689429078817e+02 1.0000000000000000e+00 1.1805012436234003e+01 4.7733011232086593e+00 2.3877403275310907e+00 
120 1 2 1.0280000000202036e+00 -1.3497554100866182e+02 1.0000000000000000e+00 1.1805012466213645e+01 4.7733011009529998e+00 2.3877403332017209e+00 
216 1 2 1.0280000000202043e+00 -6.2827648511272947e+01 1.0000000000000000e+00 1.1805009731997531e+01 4.7733031316361068e+00 2.3877398156793519e+00 
345 1 2 1.0280000000052949e+00 -1.0247036095433232e+02 1.0000000000000000e+00 1.0687468705394419e+01 3.6182544840869859e+00 3.1943412291045123e+00 
21 1 2 1.0279999999786000e+00 -1.4533398587758705e+02 1.0000000000000000e+00 7.9317304205789734e+00 7.8911583016503668e+00 1.1377703251910258e+00 
54 1 2 1.0279999999882037e+00 -1.1499847544225061e+02 1.0000000000000000e+00 7.9377758600999559e+00 7.9968070703340794e+00 1.3328988333993663e+00 
133 1 2 1.0279999999803302e+00 -7.0737115966747254e+01 1.0000000000000000e+00 8.3092830394922892e+00 8.0272831653492869e+00 5.4044930021225468e-01 
61 1 2 1.0279999999256506e+00 -1.2615542432050633e+02 1.0000000000000000e+00 8.3717055463710413e+00 7.9005707021788556e+00 3.0597864720673573e-01 
43 1 2 1.0280000000236715e+00 -7.3480226422599571e+01 1.0000000000000000e+00 7.9584217176469236e+00 7.6905825335176186e+00 2.4266839664887558e+00 
75 1 2 1.0280000000356022e+00 -8.3783343994292352e+01 1.0000000000000000e+00 7.9806915277125023e+00 7.6797298488877113e+00 2.5369620517721243e+00 
94 1 2 1.0280000000520999e+00 -3.6275376524793600e+01 1.0000000000000000e+00 8.0024209849580714e+00 7.6671983332921583e+00 2.6693848568926972e+00 
110 1 2 1.0280000001174363e+00 -5.9343035175646953e+01 1.0000000000000000e+00 7.9557681241697757e+00 7.6070549282379858e+00 3.2649575656598535e+00 
119 1 2 1.0279999999666698e+00 -1.0565305195261250e+02 1.0000000000000000e+00 1.0396924440053677e+01 7.3172631602337859e+00 2.7844542389665756e+00 
176 1 2 1.0279999999668525e+00 -9.9586209002874114e+01 1.0000000000000000e+00 1.0396924441845428e+01 7.3172631603438703e+00 2.7844542460024528e+00 
50 1 2 1.0279999999667815e+00 -8.6910277931305586e+01 1.0000000000000000e+00 1.0396924439992851e+01 7.3172631602229616e+00 2.7844542387176476e+00 
82 1 2 1.0279999999668428e+00 -7.0666705746532060e+01 1.0000000000000000e+00 1.0396924440047423e+01 7.3172631602335816e+00 2.7844542389460414e+00 
58 1 2 1.0279999999668086e+00 -8.2712011886135699e+01 1.0000000000000000e+00 1.0396924439967181e+01 7.3172631602405174e+00 2.7844542386514823e+00 
377 1 2 1.0279999999912128e+00 -1.3433791767673500e+02 1.0000000000000000e+00 8.0109519160282741e+00 4.4151777762725913e-01 5.6942902574207288e+00 
365 1 2 1.0279999999933627e+00 -1.2158184588451164e+02 1.0000000000000000e+00 8.2189237335396896e+00 9.3932680668103175e-02 5.9309276679671425e+00 
383 1 2 1.0279999999933727e+00 -1.2354273008027597e+02 1.0000000000000000e+00 8.2188544098830061e+00 9.4091349603233509e-02 5.9308760407057530e+00 
329 1 2 1.0280000000190763e+00 -1.1224976769077716e+02 1.0000000000000000e+00 9.0307926834628489e+00 4.5479938513254975e-01 4.4679640168908143e+00 
257 1 2 1.0280000000190914e+00 -1.3161711993103216e+02 1.0000000000000000e+00 9.0307926803656056e+00 4.5479943848249410e-01 4.4679640488087742e+00 
194 1 2 1.0280000000190928e+00 -1.1689174564211790e+02 1.0000000000000000e+00 9.0307927861600774e+00 4.5479804918233868e-01 4.4679632559125455e+00 
366 1 2 1.0279999999860967e+00 -1.6765651887965009e+02 1.0000000000000000e+00 8.4929249860066491e+00 3.2590813782649941e+00 6.2392723375175763e+00 
37 1 2 1.0279999999859017e+00 -1.0206222611436306e+02 1.0000000000000000e+00 8.4955377126604006e+00 3.2587866726425365e+00 6.2431874788483643e+00 
28 1 2 1.0279999999859026e+00 -1.3039005662171010e+02 1.0000000000000000e+00 8.4955377126540448e+00 3.2587866727410644e+00 6.2431874789427377e+00 
295 1 2 1.0279999999859017e+00 -8.2440571796237720e+01 1.0000000000000000e+00 8.4955377126686233e+00 3.2587866725349741e+00 6.2431874787473918e+00 
96 1 2 1.0279999999859022e+00 -1.3183141322215212e+02 1.0000000000000000e+00 8.4955377124666693e+00 3.2587866734413637e+00 6.2431874793853517e+00 
189 1 2 1.0280000000177247e+00 -1.1596457322659373e+02 1.0000000000000000e+00 9.7638417460754106e+00 2.9555576012169822e+00 3.9807986807036935e+00 
303 1 2 1.0280000000177243e+00 -9.2178052970348915e+01 1.0000000000000000e+00 9.7638419433486892e+00 2.9555577536651971e+00 3.9807985824522722e+00 
33 1 2 1.0280000000177241e+00 -1.1457345127216249e+02 1.0000000000000000e+00 9.7638421181122403e+00 2.9555578890742025e+00 3.9807984955008209e+00 
73 1 2 1.0280000000177247e+00 -1.1170385167472230e+02 1.0000000000000000e+00 9.7638417997211189e+00 2.9555576418133387e+00 3.9807986537703810e+00 
248 1 2 1.0280000000177634e+00 -1.6987581645814535e+02 1.0000000000000000e+00 9.7643389144209980e+00 2.9571218135818382e+00 3.9808490527169420e+00 
140 1 2 1.0279999999861589e+00 -5.9016363903829088e+01 1.0000000000000000e+00 1.2437878097941823e+01 2.1406718941627365e+00 3.8070654014072134e+00 
342 1 2 1.0279999999874105e+00 -7.6561906304519937e+01 1.0000000000000000e+00 1.2455460688866751e+01 2.1301826246108879e+00 3.8320480512525101e+00 
27 1 2 1.0279999999874052e+00 -6.0396776340674982e+01 1.0000000000000000e+00 1.2455503138384344e+01 2.1301152219702897e+00 3.8321479258763462e+00 
62 1 2 1.0279999999874054e+00 -1.3308051563878033e+02 1.0000000000000000e+00 1.2455503139671512e+01 2.1301152199765512e+00 3.8321479288579119e+00 
341 1 2 1.0279999999874052e+00 -3.1905704623283697e+01 1.0000000000000000e+00 1.2455503133723877e+01 2.1301152291798675e+00 3.8321479150895565e+00 
31 1 2 1.0279999999874052e+00 -1.0941970111100778e+02 1.0000000000000000e+00 1.2455505645293604e+01 2.1301111630173759e+00 3.8321538978336207e+00 
72 1 2 1.0279999999626592e+00 -1.2559934934814218e+02 1.0000000000000000e+00 8.3605787536527991e+00 3.7754305930196095e+00 5.8273984910509062e+00 
356 1 2 1.0280000000310965e+00 -7.2880445321919666e+01 1.0000000000000000e+00 9.0947609663196225e+00 6.3403540141692734e+00 4.9930939437982991e+00 
193 1 2 1.0280000000311422e+00 -1.1903439039927574e+02 1.0000000000000000e+00 9.0947748217759194e+00 6.3403647301037713e+00 4.9930851869176633e+00 
286 1 2 1.0280000000315110e+00 -1.0708814983995256e+02 1.0000000000000000e+00 9.0948410704056180e+00 6.3404140983734765e+00 4.9930292227527646e+00 
185 1 2 1.0280000000313783e+00 -8.1848153798667596e+01 1.0000000000000000e+00 9.0948092274005266e+00 6.3403903469969309e+00 4.9930559619800263e+00 
16 1 2 1.0280000000312823e+00 -1.4035442780181921e+02 1.0000000000000000e+00 9.0951867624884102e+00 6.3407026547759369e+00 4.9929683885511613e+00 
369 1 2 1.0279999999914371e+00 -8.6329122898516488e+01 1.0000000000000000e+00 1.3046509026103704e+01 6.0687856979196892e+00 3.8624248739507552e+00 
128 1 2 1.0279999999908567e+00 -1.5912642485539772e+02 1.0000000000000000e+00 1.3048262034093062e+01 6.0700147324458786e+00 3.8597979194031411e+00 
234 1 2 1.0279999999908471e+00 -5.4371842950731917e+01 1.0000000000000000e+00 1.3048262042409101e+01 6.0700147349137961e+00 3.8597979089691576e+00 
195 1 2 1.0279999999908476e+00 -1.0569860306563697e+02 1.0000000000000000e+00 1.3048262033538604e+01 6.0700147322735125e+00 3.8597979201037793e+00 
204 1 2 1.0279999999908442e+00 -6.5287435589600591e+01 1.0000000000000000e+00 1.3048262032606333e+01 6.0700147320020799e+00 3.8597979212702187e+00 
225 1 2 1.0279999999908545e+00 -7.5531904807667217e+01 1.0000000000000000e+00 1.3048262044576052e+01 6.0700147355281517e+00 3.8597979062683145e+00 
371 1 2 1.0280000000049436e+00 -7.6140968740053651e+01 1.0000000000000000e+00 7.4334653753185327e+00 7.8605999643032058e+00 4.7193399710263044e+00 
199 1 2 1.0279999999528984e+00 -1.2410213355795057e+02 1.0000000000000000e+00 7.4828927244493846e+00 7.8986765070271039e+00 5.6025547133435678e+00 
117 1 2 1.0279999999528968e+00 -7.3331071843909939e+01 1.0000000000000000e+00 7.4828899480096078e+00 7.8986777352292368e+00 5.6025501942732872e+00 
242 1 2 1.0279999999528986e+00 -4.3058322165040721e+01 1.0000000000000000e+00 7.4828925134432165e+00 7.8986765793224141e+00 5.6025543866329404e+00 
351 1 2 1.0280000000114080e+00 -1.3341512720535974e+02 1.0000000000000000e+00 7.5729665641543686e+00 7.9381080371397745e+00 5.6596211708926951e+00 
250 1 2 1.0280000000252416e+00 -7.4124338011290831e+01 1.0000000000000000e+00 1.1244017345044357e+01 9.8660869216237526e+00 4.1247857769474701e+00 
298 1 2 1.0280000000246594e+00 -8.0240164546466715e+01 1.0000000000000000e+00 1.1239791471841846e+01 9.8681595791523318e+00 4.1164699152453421e+00 
103 1 2 1.0280000000254108e+00 -7.0622192902610976e+01 1.0000000000000000e+00 1.1244175604657887e+01 9.8660145272478434e+00 4.1251542847531750e+00 
52 1 2 1.0280000000334724e+00 -8.2392194710703748e+01 1.0000000000000000e+00 1.1052909088888107e+01 9.6678920265561175e+00 4.4520516145132083e+00 
212 1 2 1.0280000000332910e+00 -5.3932022805166540e+01 1.0000000000000000e+00 1.1053980586356634e+01 9.6683771934208984e+00 4.4519398310591720e+00 
86 1 2 1.0280000000334408e+00 -1.0237864232742314e+02 1.0000000000000000e+00 1.1055173059799319e+01 9.6689170698474900e+00 4.4518110248202634e+00 
307 1 2 1.0280000000196707e+00 -7.9688982767009577e+01 1.0000000000000000e+00 1.1179835999625524e+01 9.8788312848360427e+00 4.0307385000578897e+00 
123 1 2 1.0280000000178213e+00 -1.0440249326999567e+02 1.0000000000000000e+00 1.1704542598493397e+01 3.0782782425511148e+00 8.8731421838149753e+00 
113 1 2 1.0280000000178229e+00 -7.9668520042125735e+01 1.0000000000000000e+00 1.1704542609018558e+01 3.0782782401372200e+00 8.8731421819729377e+00 
22 1 2 1.0280000000178224e+00 -1.4612944708873084e+02 1.0000000000000000e+00 1.1704539712879065e+01 3.0782789040178979e+00 8.8731426886871816e+00 
68 1 2 1.0280000000178227e+00 -1.1445618039612103e+02 1.0000000000000000e+00 1.1704560326553924e+01 3.0782741808396707e+00 8.8731390827294909e+00 
348 1 2 1.0280000000178233e+00 -9.5870343391673316e+01 1.0000000000000000e+00 1.1704541858992130e+01 3.0782784120363904e+00 8.8731423131878255e+00 
95 1 2 1.0280000000273126e+00 -1.2458369151047046e+02 1.0000000000000000e+00 9.4875207611284260e+00 5.4247590973061257e+00 7.5440365748606819e+00 
159 1 2 1.0280000000273140e+00 -1.1628166462320493e+02 1.0000000000000000e+00 9.4875207620559596e+00 5.4247590863720960e+00 7.5440365999487620e+00 
222 1 2 1.0280000000273140e+00 -1.0031402450371584e+02 1.0000000000000000e+00 9.4875207624220259e+00 5.4247590820235363e+00 7.5440366099263398e+00 
357 1 2 1.0280000000273100e+00 -1.0386539439646297e+02 1.0000000000000000e+00 9.4875208651790572e+00 5.4247578692352727e+00 7.5440393926482567e+00 
382 1 2 1.0279999999907106e+00 -1.3540097779994545e+02 1.0000000000000000e+00 9.9095370979709845e+00 4.6690813119741668e+00 8.3105862328559770e+00 
177 1 2 1.0279999999907914e+00 -6.2888661622168101e+01 1.0000000000000000e+00 9.9120255044584358e+00 4.6662659861787494e+00 8.3120958533231217e+00 
6 1 2 1.0279999999905629e+00 -1.4872339104087987e+02 1.0000000000000000e+00 9.9155742209105924e+00 4.6622370726748406e+00 8.3142450240832257e+00 
18 1 2 1.0279999999790694e+00 -1.1177972331275436e+02 1.0000000000000000e+00 1.2195305221276730e+01 3.3754574010046516e+00 6.9779037422545036e+00 
224 1 2 1.0279999999791554e+00 -6.9538669473372039e+01 1.0000000000000000e+00 1.2195406064391966e+01 3.3753740740063396e+00 6.9778956114390081e+00 
171 1 2 1.0279999999791551e+00 -5.3035174907730806e+01 1.0000000000000000e+00 1.2195400615058205e+01 3.3753789755273282e+00 6.9778962125444250e+00 
255 1 2 1.0279999999791274e+00 -8.4849072678661656e+01 1.0000000000000000e+00 1.2195394057599318e+01 3.3753849185300200e+00 6.9778969540926319e+00 
47 1 2 1.0279999999790694e+00 -1.2500789850327598e+02 1.0000000000000000e+00 1.2195306210649328e+01 3.3754541491951482e+00 6.9779026737793544e+00 