LAMMPS data file via write_data, version 30 Jul 2016, timestep = 50400000

180 atoms
2 atom types

0.0000000000000000e+00 2.0000000000000000e+01 xlo xhi
0.0000000000000000e+00 2.0000000000000000e+01 ylo yhi
0.0000000000000000e+00 2.0000000000000000e+01 zlo zhi

Masses

1 3.896
2 1

Atoms # meso-molecular

12 1 2 1.0281342093565200e+00 -3.1147529873156441e+02 1.0000000000000000e+00 5.3370040599352118e+00 1.4072408980058743e+01 1.2359438027879976e+01 
144 1 2 1.0281336141801953e+00 -2.6028511814185498e+02 1.0000000000000000e+00 5.3426639719384053e+00 1.4066841419224444e+01 1.2352041640535601e+01 
174 1 2 1.0281336173075946e+00 -1.7166397621983526e+02 1.0000000000000000e+00 5.3427311060453668e+00 1.4066852496483769e+01 1.2352137425836569e+01 
173 1 2 1.0281336173076199e+00 -2.0405867334729280e+02 1.0000000000000000e+00 5.3427311068717485e+00 1.4066852496589892e+01 1.2352137426942647e+01 
56 1 2 1.0281336173075442e+00 -2.8861301027630554e+02 1.0000000000000000e+00 5.3427311044709365e+00 1.4066852496280955e+01 1.2352137423727784e+01 
10 1 2 1.0281336173078410e+00 -2.1250699794599811e+02 1.0000000000000000e+00 5.3427311121313652e+00 1.4066852497262934e+01 1.2352137433976131e+01 
179 1 2 1.0281336173078417e+00 -2.3305229463740980e+02 1.0000000000000000e+00 5.3427311121209922e+00 1.4066852497261523e+01 1.2352137433962049e+01 
138 1 2 1.0281336171513449e+00 -3.0238316121145391e+02 1.0000000000000000e+00 5.3427671564346957e+00 1.4066845626706062e+01 1.2352158020262491e+01 
139 1 2 1.0281336178396088e+00 -2.3905532203147712e+02 1.0000000000000000e+00 5.3427508471998149e+00 1.4066853105349880e+01 1.2352159213070189e+01 
71 1 2 1.0281336173076918e+00 -2.5819891119174105e+02 1.0000000000000000e+00 5.3427311076182171e+00 1.4066852496685877e+01 1.2352137427941644e+01 
137 1 2 1.0281336173076256e+00 -2.8879747765504607e+02 1.0000000000000000e+00 5.3427311070197820e+00 1.4066852496608522e+01 1.2352137427139857e+01 
14 1 2 1.0281336173076272e+00 -2.5910111914690327e+02 1.0000000000000000e+00 5.3427311070152417e+00 1.4066852496608231e+01 1.2352137427134467e+01 
17 1 2 1.0281336173076068e+00 -2.4456591078965292e+02 1.0000000000000000e+00 5.3427311058915699e+00 1.4066852496464259e+01 1.2352137425631158e+01 
39 1 2 1.0281336173076032e+00 -2.2634194864105044e+02 1.0000000000000000e+00 5.3427311059718461e+00 1.4066852496474715e+01 1.2352137425739013e+01 
143 1 2 1.0281336173077344e+00 -2.6791733629390268e+02 1.0000000000000000e+00 5.3427311090597316e+00 1.4066852496870101e+01 1.2352137429868906e+01 
99 1 2 1.0281336165325183e+00 -2.0119595867677330e+02 1.0000000000000000e+00 5.3427109068186738e+00 1.4066850272917133e+01 1.2352111280055995e+01 
180 1 2 1.0281336173077873e+00 -1.9463460821006751e+02 1.0000000000000000e+00 5.3427311098356904e+00 1.4066852496969442e+01 1.2352137430906506e+01 
28 1 2 1.0281336163813199e+00 -2.9420595975797289e+02 1.0000000000000000e+00 5.3427258308685746e+00 1.4066846787722859e+01 1.2352118267171432e+01 
11 1 2 1.0281336173076507e+00 -2.7687919502617484e+02 1.0000000000000000e+00 5.3427311073144947e+00 1.4066852496645637e+01 1.2352137427532424e+01 
110 1 2 1.0281336173077007e+00 -2.2673553947051747e+02 1.0000000000000000e+00 5.3427311079868991e+00 1.4066852496732963e+01 1.2352137428434501e+01 
7 1 2 1.0281336173075719e+00 -2.4672935954682728e+02 1.0000000000000000e+00 5.3427311046914943e+00 1.4066852496310707e+01 1.2352137424026248e+01 
46 1 2 1.0279394827147468e+00 -2.4359392553702028e+02 1.0000000000000000e+00 5.5044128078131793e+00 1.6400262108315598e+01 1.2339435873509755e+01 
171 1 2 1.0279325236340291e+00 -2.2164017696697530e+02 1.0000000000000000e+00 5.6130059594088024e+00 1.6421394116660831e+01 1.2429691873756225e+01 
43 1 2 1.0279322393797725e+00 -2.0772934513431991e+02 1.0000000000000000e+00 5.6143435257280796e+00 1.6422748639515326e+01 1.2429079793002334e+01 
61 1 2 1.0279316167091073e+00 -2.5248300270456954e+02 1.0000000000000000e+00 5.6171315031554707e+00 1.6425722811737995e+01 1.2427618146775679e+01 
111 1 2 1.0279315906933157e+00 -2.1860605215334417e+02 1.0000000000000000e+00 5.6172464453353621e+00 1.6425846995057139e+01 1.2427555720071052e+01 
101 1 2 1.0279315594821001e+00 -1.8732691400080998e+02 1.0000000000000000e+00 5.6173843138524866e+00 1.6425995956404055e+01 1.2427480793541338e+01 
91 1 2 1.0279315095830646e+00 -2.7022470334945018e+02 1.0000000000000000e+00 5.6176047447741198e+00 1.6426234057111451e+01 1.2427360986121444e+01 
69 1 2 1.0279314997181122e+00 -1.3369540077990084e+02 1.0000000000000000e+00 5.6176483386008149e+00 1.6426281120808429e+01 1.2427337307889841e+01 
161 1 2 1.0279314902521739e+00 -1.2837349500178351e+02 1.0000000000000000e+00 5.6176901672849064e+00 1.6426326279352015e+01 1.2427314583897463e+01 
105 1 2 1.0279314906000232e+00 -1.3375967000295685e+02 1.0000000000000000e+00 5.6176886302262030e+00 1.6426324619840734e+01 1.2427315419099479e+01 
159 1 2 1.0279315035340075e+00 -1.6644893599076272e+02 1.0000000000000000e+00 5.6176314755112919e+00 1.6426262916290675e+01 1.2427346466751205e+01 
34 1 2 1.0279315019131248e+00 -2.7190193258300235e+02 1.0000000000000000e+00 5.6176386384298622e+00 1.6426270649036912e+01 1.2427342576392050e+01 
119 1 2 1.0279314659082652e+00 -1.7969151802072676e+02 1.0000000000000000e+00 5.6177976869824979e+00 1.6426442414689184e+01 1.2427256089757188e+01 
92 1 2 1.0279314765817229e+00 -2.8029547601039138e+02 1.0000000000000000e+00 5.6177505570674144e+00 1.6426391495418127e+01 1.2427281747824642e+01 
89 1 2 1.0279314622604729e+00 -2.1401193985656354e+02 1.0000000000000000e+00 5.6178137891927387e+00 1.6426459817246965e+01 1.2427247315844363e+01 
93 1 2 1.0279314660924062e+00 -2.4932022490124700e+02 1.0000000000000000e+00 5.6177968741158066e+00 1.6426441536275302e+01 1.2427256532552546e+01 
80 1 2 1.0279313591604928e+00 -2.1131183118628419e+02 1.0000000000000000e+00 5.6182676904126598e+00 1.6426951766452721e+01 1.2426998148730625e+01 
73 1 2 1.0279310819965046e+00 -2.2261712014993901e+02 1.0000000000000000e+00 5.6194795754313969e+00 1.6428274841987502e+01 1.2426319566768326e+01 
141 1 2 1.0279224312559072e+00 -1.2111887211434404e+02 1.0000000000000000e+00 5.6452010213485506e+00 1.6468207659725369e+01 1.2396798929009652e+01 
133 1 2 1.0279209891887713e+00 -2.3148626515796832e+02 1.0000000000000000e+00 5.6552480439769575e+00 1.6473480844276555e+01 1.2397331424811663e+01 
85 1 2 1.0279406093730099e+00 -2.5438990530693442e+02 1.0000000000000000e+00 6.0519914561891586e+00 1.5584387518164601e+01 1.1579114762045158e+01 
45 1 2 1.0276745477151636e+00 -1.9893891429311574e+02 1.0000000000000000e+00 6.0750616413309197e+00 1.4161432413321144e+01 1.1589395232296908e+01 
128 1 2 1.0278605628923998e+00 -2.1776332999412148e+02 1.0000000000000000e+00 6.0802253204910883e+00 1.4937714697117546e+01 1.1476669072942896e+01 
175 1 2 1.0278605372578324e+00 -2.2833863144469919e+02 1.0000000000000000e+00 6.0802405773379098e+00 1.4937594171346484e+01 1.1476663736345204e+01 
98 1 2 1.0278598520478359e+00 -3.0322879602345665e+02 1.0000000000000000e+00 6.0806520761806766e+00 1.4934379067240044e+01 1.1476526496656540e+01 
134 1 2 1.0278600311119250e+00 -2.1976018126573419e+02 1.0000000000000000e+00 6.0805444468912642e+00 1.4935217864438840e+01 1.1476561780538249e+01 
75 1 2 1.0278478233433672e+00 -2.4296825999957852e+02 1.0000000000000000e+00 6.0858565809483380e+00 1.4880762110170469e+01 1.1473426541902020e+01 
74 1 2 1.0278476634556450e+00 -2.2997535518221306e+02 1.0000000000000000e+00 6.0859148671018941e+00 1.4880076930324009e+01 1.1473386263782766e+01 
124 1 2 1.0278183235499128e+00 -1.3082546180701132e+02 1.0000000000000000e+00 6.0947049510949451e+00 1.4766454949757030e+01 1.1468312437787711e+01 
66 1 2 1.0277000824243527e+00 -2.2500360822980937e+02 1.0000000000000000e+00 6.1085039859459673e+00 1.4466930363093150e+01 1.1482221696064526e+01 
50 1 2 1.0279745432333889e+00 -2.4849373666102889e+02 1.0000000000000000e+00 6.5957048763890480e+00 1.8445537605072726e+01 1.1673816372285250e+01 
67 1 2 1.0280727680320008e+00 -1.9363602841711548e+02 1.0000000000000000e+00 7.7542808953821147e+00 2.3080376737680282e+00 9.3844071414669354e+00 
86 1 2 1.0280724080123953e+00 -2.0944769076899982e+02 1.0000000000000000e+00 7.7542321089035333e+00 2.3080560951364113e+00 9.3844828675716574e+00 
150 1 2 1.0280727003709909e+00 -3.2162384259305844e+02 1.0000000000000000e+00 7.7542698202221523e+00 2.3080394134159308e+00 9.3844181597371996e+00 
95 1 2 1.0280727003707335e+00 -1.6953516975658613e+02 1.0000000000000000e+00 7.7542698201852751e+00 2.3080394134273381e+00 9.3844181597880763e+00 
84 1 2 1.0280727003709746e+00 -1.5896611793936194e+02 1.0000000000000000e+00 7.7542698202199931e+00 2.3080394134167244e+00 9.3844181597404912e+00 
156 1 2 1.0280727003709622e+00 -3.8234095996271145e+02 1.0000000000000000e+00 7.7542698202182514e+00 2.3080394134173172e+00 9.3844181597430278e+00 
149 1 2 1.0280727003709387e+00 -2.5624165805530851e+02 1.0000000000000000e+00 7.7542698202151055e+00 2.3080394134183657e+00 9.3844181597475274e+00 
148 1 2 1.0280727003709977e+00 -2.8479339692667253e+02 1.0000000000000000e+00 7.7542698202231444e+00 2.3080394134156728e+00 9.3844181597359579e+00 
54 1 2 1.0280727003543235e+00 -1.8680184065704572e+02 1.0000000000000000e+00 7.7542698178155662e+00 2.3080394141365153e+00 9.3844181629966634e+00 
145 1 2 1.0280727003709753e+00 -2.4418891223599280e+02 1.0000000000000000e+00 7.7542698202201015e+00 2.3080394134166973e+00 9.3844181597403562e+00 
113 1 2 1.0280727003710506e+00 -2.9355420658559223e+02 1.0000000000000000e+00 7.7542698202309364e+00 2.3080394134133999e+00 9.3844181597255325e+00 
52 1 2 1.0280727003709260e+00 -2.3857879270251306e+02 1.0000000000000000e+00 7.7542698202131568e+00 2.3080394134189164e+00 9.3844181597500942e+00 
154 1 2 1.0280727003710157e+00 -2.3882177590164508e+02 1.0000000000000000e+00 7.7542698202257911e+00 2.3080394134148965e+00 9.3844181597324177e+00 
96 1 2 1.0280727004839429e+00 -1.8403279306005652e+02 1.0000000000000000e+00 7.7542698364941938e+00 2.3080394085010294e+00 9.3844181375909166e+00 
90 1 2 1.0280727003709622e+00 -1.5477289689130654e+02 1.0000000000000000e+00 7.7542698202182736e+00 2.3080394134173083e+00 9.3844181597429923e+00 
107 1 2 1.0280727003706700e+00 -2.3166554514062705e+02 1.0000000000000000e+00 7.7542698201760514e+00 2.3080394134301532e+00 9.3844181598007097e+00 
120 1 2 1.0280727003709751e+00 -3.1556787585648726e+02 1.0000000000000000e+00 7.7542698202201050e+00 2.3080394134167035e+00 9.3844181597403669e+00 
147 1 2 1.0280727003639247e+00 -2.7263742966858416e+02 1.0000000000000000e+00 7.7542698192025545e+00 2.3080394137214246e+00 9.3844181611185675e+00 
114 1 2 1.0280727003710601e+00 -3.0489745939926229e+02 1.0000000000000000e+00 7.7542698202323095e+00 2.3080394134129447e+00 9.3844181597235590e+00 
160 1 2 1.0280727003229995e+00 -1.2675592675948216e+02 1.0000000000000000e+00 7.7542698133027628e+00 2.3080394154989037e+00 9.3844181691368167e+00 
63 1 2 1.0280727002449610e+00 -1.7127894961938438e+02 1.0000000000000000e+00 7.7542698020302492e+00 2.3080394188674345e+00 9.3844181843871350e+00 
129 1 2 1.0280727026136247e+00 -2.6701656602660108e+02 1.0000000000000000e+00 7.7542701420977744e+00 2.3080393147429130e+00 9.3844177179991490e+00 
155 1 2 1.0280727003709280e+00 -2.9566843570958980e+02 1.0000000000000000e+00 7.7542698202134464e+00 2.3080394134188027e+00 9.3844181597496306e+00 
146 1 2 1.0280727027242249e+00 -9.4551445851211000e+01 1.0000000000000000e+00 7.7542701610838902e+00 2.3080393127042060e+00 9.3844177014922892e+00 
23 1 2 1.0280727009012074e+00 -2.2611198771793647e+02 1.0000000000000000e+00 7.7542698967784540e+00 2.3080393905016985e+00 9.3844180560724801e+00 
166 1 2 1.0280727007586561e+00 -2.6648870751109331e+02 1.0000000000000000e+00 7.7542698762054769e+00 2.3080393966725143e+00 9.3844180839635349e+00 
140 1 2 1.0280719779764207e+00 -2.6318378227666778e+02 1.0000000000000000e+00 7.7545889069529057e+00 2.3084507532488878e+00 9.3852724153261651e+00 
65 1 2 1.0280734684565735e+00 -1.7195983675632010e+02 1.0000000000000000e+00 7.7550158888651683e+00 2.3085756570253961e+00 9.3853364307149043e+00 
70 1 2 1.0281931028944988e+00 -1.7806820654867684e+02 1.0000000000000000e+00 1.0280451240602835e+01 3.3170807316207904e+00 7.7663835736927833e+00 
109 1 2 1.0281931028944988e+00 -2.0797120699129604e+02 1.0000000000000000e+00 1.0280451240602842e+01 3.3170807316207900e+00 7.7663835736928011e+00 
40 1 2 1.0281931028944988e+00 -2.0913323911480424e+02 1.0000000000000000e+00 1.0280451240602835e+01 3.3170807316207953e+00 7.7663835736927869e+00 
58 1 2 1.0281931028944988e+00 -2.0412422670528346e+02 1.0000000000000000e+00 1.0280451240602835e+01 3.3170807316207958e+00 7.7663835736927851e+00 
49 1 2 1.0281931028944988e+00 -2.1323125435938803e+02 1.0000000000000000e+00 1.0280451240602835e+01 3.3170807316207953e+00 7.7663835736927869e+00 
30 1 2 1.0281931028944988e+00 -2.4608494694094429e+02 1.0000000000000000e+00 1.0280451240602840e+01 3.3170807316207926e+00 7.7663835736927940e+00 
82 1 2 1.0281931028944988e+00 -2.8933528704390915e+02 1.0000000000000000e+00 1.0280451240602835e+01 3.3170807316207953e+00 7.7663835736927869e+00 
78 1 2 1.0281931028944988e+00 -5.9927328076202976e+01 1.0000000000000000e+00 1.0280451240602840e+01 3.3170807316207926e+00 7.7663835736927940e+00 
15 1 2 1.0281931028944988e+00 -2.1356134834851292e+02 1.0000000000000000e+00 1.0280451240602840e+01 3.3170807316207904e+00 7.7663835736927966e+00 
100 1 2 1.0281931028944988e+00 -1.6482238873001248e+02 1.0000000000000000e+00 1.0280451240602840e+01 3.3170807316207909e+00 7.7663835736927904e+00 
118 1 2 1.0281931028944988e+00 -2.3033846651934221e+02 1.0000000000000000e+00 1.0280451240602840e+01 3.3170807316207926e+00 7.7663835736927940e+00 
8 1 2 1.0281931028944988e+00 -2.6678000323958997e+02 1.0000000000000000e+00 1.0280451240602838e+01 3.3170807316207900e+00 7.7663835736927966e+00 
59 1 2 1.0281931028944988e+00 -2.0106926090962494e+02 1.0000000000000000e+00 1.0280451240602835e+01 3.3170807316207904e+00 7.7663835736927833e+00 
18 1 2 1.0281931028944988e+00 -2.4296671553403263e+02 1.0000000000000000e+00 1.0280451240602835e+01 3.3170807316207904e+00 7.7663835736927833e+00 
77 1 2 1.0281931028944988e+00 -1.6174370116842985e+02 1.0000000000000000e+00 1.0280451240602837e+01 3.3170807316207940e+00 7.7663835736927869e+00 
83 1 2 1.0281931028944988e+00 -2.5112182459391860e+02 1.0000000000000000e+00 1.0280451240602837e+01 3.3170807316207900e+00 7.7663835736927860e+00 
135 1 2 1.0281931028944988e+00 -1.7120032919743497e+02 1.0000000000000000e+00 1.0280451240602835e+01 3.3170807316207904e+00 7.7663835736927833e+00 
4 1 2 1.0281931028944988e+00 -2.0472367693160439e+02 1.0000000000000000e+00 1.0280451240602835e+01 3.3170807316207904e+00 7.7663835736927833e+00 
136 1 2 1.0281931028944988e+00 -1.6276768810273293e+02 1.0000000000000000e+00 1.0280451240602840e+01 3.3170807316207926e+00 7.7663835736927940e+00 
42 1 2 1.0281931028944988e+00 -2.6517942634931796e+02 1.0000000000000000e+00 1.0280451240602840e+01 3.3170807316207926e+00 7.7663835736927940e+00 
5 1 2 1.0281931028944988e+00 -2.0564317419918294e+02 1.0000000000000000e+00 1.0280451240602838e+01 3.3170807316207900e+00 7.7663835736927966e+00 
51 1 2 1.0281931028944988e+00 -2.5900483454105813e+02 1.0000000000000000e+00 1.0280451240602835e+01 3.3170807316207904e+00 7.7663835736927833e+00 
79 1 2 1.0281931028944988e+00 -2.4939546884155774e+02 1.0000000000000000e+00 1.0280451240602840e+01 3.3170807316207904e+00 7.7663835736927966e+00 
108 1 2 1.0281931028944988e+00 -2.7464227127070956e+02 1.0000000000000000e+00 1.0280451240602835e+01 3.3170807316207953e+00 7.7663835736927869e+00 
22 1 2 1.0281931028944988e+00 -2.4611437627555202e+02 1.0000000000000000e+00 1.0280451240602826e+01 3.3170807316207958e+00 7.7663835736927744e+00 
48 1 2 1.0281931028944988e+00 -1.8874784080324176e+02 1.0000000000000000e+00 1.0280451240602840e+01 3.3170807316207962e+00 7.7663835736927940e+00 
27 1 2 1.0281931028944988e+00 -2.7416822298193745e+02 1.0000000000000000e+00 1.0280451240602835e+01 3.3170807316207953e+00 7.7663835736927869e+00 
20 1 2 1.0281931028944988e+00 -2.1312837359163788e+02 1.0000000000000000e+00 1.0280451240602840e+01 3.3170807316207926e+00 7.7663835736927940e+00 
44 1 2 1.0281931028944988e+00 -2.3238444557837019e+02 1.0000000000000000e+00 1.0280451240602835e+01 3.3170807316207953e+00 7.7663835736927869e+00 
60 1 2 1.0281931028944988e+00 -2.5515265813485408e+02 1.0000000000000000e+00 1.0280451240602835e+01 3.3170807316207953e+00 7.7663835736927869e+00 
170 1 2 1.0279356864439155e+00 -1.5474368929228260e+02 1.0000000000000000e+00 7.1056753244997122e+00 1.0451399752489068e-01 1.0761531446188304e+01 
29 1 2 1.0279396686822739e+00 -2.4149068996500952e+02 1.0000000000000000e+00 7.1160483753327028e+00 1.0251491632119314e-01 1.0758509100302483e+01 
117 1 2 1.0279396962584399e+00 -1.5970538767751731e+02 1.0000000000000000e+00 7.1161307447949200e+00 1.0250015650599491e-01 1.0758496979977981e+01 
167 1 2 1.0279397004938737e+00 -1.8440102422329403e+02 1.0000000000000000e+00 7.1161460155306528e+00 1.0249777818572524e-01 1.0758495641513854e+01 
102 1 2 1.0279397023161545e+00 -2.6550318213195879e+02 1.0000000000000000e+00 7.1161524998933556e+00 1.0249675846316990e-01 1.0758495050055911e+01 
106 1 2 1.0279397006466979e+00 -2.0929074665536734e+02 1.0000000000000000e+00 7.1161465556402321e+00 1.0249769283209828e-01 1.0758495591177647e+01 
125 1 2 1.0279397336503944e+00 -1.9724582334484634e+02 1.0000000000000000e+00 7.1162537279161775e+00 1.0247965146732496e-01 1.0758482961760103e+01 
24 1 2 1.0279397002185664e+00 -2.5817071643010246e+02 1.0000000000000000e+00 7.1161450464881328e+00 1.0249793179586782e-01 1.0758495733019148e+01 
127 1 2 1.0279397135305541e+00 -2.2122277844365630e+02 1.0000000000000000e+00 7.1161921954595435e+00 1.0249049067712269e-01 1.0758491384400816e+01 
153 1 2 1.0279397000203632e+00 -2.3279736774542562e+02 1.0000000000000000e+00 7.1161443522587495e+00 1.0249804223050624e-01 1.0758495799551078e+01 
87 1 2 1.0279397013932312e+00 -1.6314894658641992e+02 1.0000000000000000e+00 7.1161492080871360e+00 1.0249727525611875e-01 1.0758495348030555e+01 
88 1 2 1.0279397004278408e+00 -1.7555634447721189e+02 1.0000000000000000e+00 7.1161457824641063e+00 1.0249781506358376e-01 1.0758495663353029e+01 
169 1 2 1.0279397049550636e+00 -3.0130199677498598e+02 1.0000000000000000e+00 7.1161619098071149e+00 1.0249528083837779e-01 1.0758494198644128e+01 
62 1 2 1.0279397134256127e+00 -2.9613421637997573e+02 1.0000000000000000e+00 7.1161917451151888e+00 1.0249055267997662e-01 1.0758491403094611e+01 
97 1 2 1.0279397007733078e+00 -1.9693057365390825e+02 1.0000000000000000e+00 7.1161470039683348e+00 1.0249762206857044e-01 1.0758495549612594e+01 
33 1 2 1.0279397012592244e+00 -2.1569205582501706e+02 1.0000000000000000e+00 7.1161487298087440e+00 1.0249735029965452e-01 1.0758495391234108e+01 
103 1 2 1.0279397003224870e+00 -1.8659578260553900e+02 1.0000000000000000e+00 7.1161454111729832e+00 1.0249787385679421e-01 1.0758495698255294e+01 
53 1 2 1.0279405048709587e+00 -2.2396412459005734e+02 1.0000000000000000e+00 7.1208779099837569e+00 1.0195202670020083e-01 1.0758780370864802e+01 
163 1 2 1.0279407332002157e+00 -2.8544742775295680e+02 1.0000000000000000e+00 7.1189141032872083e+00 1.0195395257931356e-01 1.0758050874100640e+01 
35 1 2 1.0279434622210997e+00 -2.5714380551640681e+02 1.0000000000000000e+00 7.1258709427337550e+00 1.0049675766653549e-01 1.0757401965360144e+01 
6 1 2 1.0279452812107583e+00 -3.3039785199286405e+02 1.0000000000000000e+00 7.1294278012105154e+00 9.9560412181819213e-02 1.0756993765262830e+01 
9 1 2 1.0279359829728063e+00 -2.6302669218289714e+02 1.0000000000000000e+00 6.6921732174872499e+00 1.2633305437583555e+01 9.5592574860111963e+00 
47 1 2 1.0279359829728063e+00 -2.4229205631337607e+02 1.0000000000000000e+00 6.6921732174872499e+00 1.2633305437583555e+01 9.5592574860111963e+00 
164 1 2 1.0279359829728063e+00 -2.7800229700693700e+02 1.0000000000000000e+00 6.6921732174872552e+00 1.2633305437583559e+01 9.5592574860111910e+00 
176 1 2 1.0279359829728063e+00 -2.4685147920994808e+02 1.0000000000000000e+00 6.6921732174872552e+00 1.2633305437583559e+01 9.5592574860111910e+00 
131 1 2 1.0279359829728063e+00 -1.4177427489959803e+02 1.0000000000000000e+00 6.6921732174872535e+00 1.2633305437583557e+01 9.5592574860111945e+00 
64 1 2 1.0279359829728063e+00 -2.0518852538718633e+02 1.0000000000000000e+00 6.6921732174872552e+00 1.2633305437583557e+01 9.5592574860111963e+00 
1 1 2 1.0279359829728063e+00 -2.9845519546183209e+02 1.0000000000000000e+00 6.6921732174872535e+00 1.2633305437583559e+01 9.5592574860111927e+00 
94 1 2 1.0279359829728063e+00 -1.3333336525072548e+02 1.0000000000000000e+00 6.6921732174872552e+00 1.2633305437583559e+01 9.5592574860111910e+00 
57 1 2 1.0279359829728063e+00 -1.6662158915368320e+02 1.0000000000000000e+00 6.6921732174872499e+00 1.2633305437583555e+01 9.5592574860111963e+00 
55 1 2 1.0279359829728065e+00 -2.0529135245717362e+02 1.0000000000000000e+00 6.6921732174872570e+00 1.2633305437583552e+01 9.5592574860112034e+00 
21 1 2 1.0279359829728063e+00 -2.4574479577263668e+02 1.0000000000000000e+00 6.6921732174872499e+00 1.2633305437583555e+01 9.5592574860111963e+00 
115 1 2 1.0279359829728063e+00 -1.6979779452860657e+02 1.0000000000000000e+00 6.6921732174872508e+00 1.2633305437583557e+01 9.5592574860111927e+00 
112 1 2 1.0279359829728065e+00 -2.2278970776957024e+02 1.0000000000000000e+00 6.6921732174872481e+00 1.2633305437583553e+01 9.5592574860111981e+00 
81 1 2 1.0279359829728063e+00 -2.1032512545196965e+02 1.0000000000000000e+00 6.6921732174872561e+00 1.2633305437583555e+01 9.5592574860111963e+00 
162 1 2 1.0279359829728063e+00 -2.7531847650309294e+02 1.0000000000000000e+00 6.6921732174872535e+00 1.2633305437583559e+01 9.5592574860111927e+00 
72 1 2 1.0279359829728063e+00 -2.4894915616605076e+02 1.0000000000000000e+00 6.6921732174872535e+00 1.2633305437583557e+01 9.5592574860111945e+00 
168 1 2 1.0279359829728063e+00 -2.4981251263162298e+02 1.0000000000000000e+00 6.6921732174872570e+00 1.2633305437583559e+01 9.5592574860111963e+00 
177 1 2 1.0279359829728063e+00 -2.2438938081417069e+02 1.0000000000000000e+00 6.6921732174872499e+00 1.2633305437583557e+01 9.5592574860111927e+00 
104 1 2 1.0279359829728063e+00 -1.4205159994827159e+02 1.0000000000000000e+00 6.6921732174872570e+00 1.2633305437583559e+01 9.5592574860111963e+00 
142 1 2 1.0279359829728063e+00 -2.6305217227032580e+02 1.0000000000000000e+00 6.6921732174872561e+00 1.2633305437583555e+01 9.5592574860111963e+00 
37 1 2 1.0279359829728063e+00 -3.1914030435564359e+02 1.0000000000000000e+00 6.6921732174872552e+00 1.2633305437583559e+01 9.5592574860111910e+00 
123 1 2 1.0279359829728063e+00 -1.4371387380148377e+02 1.0000000000000000e+00 6.6921732174872481e+00 1.2633305437583557e+01 9.5592574860111910e+00 
178 1 2 1.0279359829728063e+00 -2.1991140506230607e+02 1.0000000000000000e+00 6.6921732174872570e+00 1.2633305437583559e+01 9.5592574860111963e+00 
132 1 2 1.0279359829728063e+00 -2.0725742750495311e+02 1.0000000000000000e+00 6.6921732174872535e+00 1.2633305437583559e+01 9.5592574860111927e+00 
130 1 2 1.0279359829728063e+00 -1.1426283886141117e+02 1.0000000000000000e+00 6.6921732174872570e+00 1.2633305437583559e+01 9.5592574860111963e+00 
19 1 2 1.0279359829728063e+00 -2.0288442112865550e+02 1.0000000000000000e+00 6.6921732174872552e+00 1.2633305437583557e+01 9.5592574860111963e+00 
126 1 2 1.0279359829728063e+00 -2.7241371485578156e+02 1.0000000000000000e+00 6.6921732174872535e+00 1.2633305437583557e+01 9.5592574860111945e+00 
76 1 2 1.0279359829728063e+00 -1.6913506349323512e+02 1.0000000000000000e+00 6.6921732174872552e+00 1.2633305437583559e+01 9.5592574860111910e+00 
16 1 2 1.0279359829728063e+00 -2.4203330913967125e+02 1.0000000000000000e+00 6.6921732174872570e+00 1.2633305437583559e+01 9.5592574860111963e+00 
13 1 2 1.0279359829728063e+00 -1.8125612050901640e+02 1.0000000000000000e+00 6.6921732174872597e+00 1.2633305437583555e+01 9.5592574860111998e+00 
172 1 2 1.0280592676268947e+00 -2.4287390399084572e+02 1.0000000000000000e+00 6.7274563273987695e+00 1.8449109276186256e+01 1.1670990507224479e+01 
158 1 2 1.0280592675762006e+00 -2.4847993179469532e+02 1.0000000000000000e+00 6.7274562878312043e+00 1.8449109274682552e+01 1.1670990523689930e+01 
152 1 2 1.0280592675762021e+00 -2.3558900365539407e+02 1.0000000000000000e+00 6.7274562878325241e+00 1.8449109274682534e+01 1.1670990523689312e+01 
25 1 2 1.0280592675762124e+00 -2.9717047018544633e+02 1.0000000000000000e+00 6.7274562878428270e+00 1.8449109274683039e+01 1.1670990523685177e+01 
151 1 2 1.0280592675762004e+00 -1.9033935389161203e+02 1.0000000000000000e+00 6.7274562878311785e+00 1.8449109274682545e+01 1.1670990523689937e+01 
36 1 2 1.0280592675761970e+00 -2.2110071181703742e+02 1.0000000000000000e+00 6.7274562878287885e+00 1.8449109274682435e+01 1.1670990523690916e+01 
121 1 2 1.0280592675762006e+00 -2.4926867242265598e+02 1.0000000000000000e+00 6.7274562878311279e+00 1.8449109274682538e+01 1.1670990523689950e+01 
32 1 2 1.0280592675762021e+00 -2.2556888637621384e+02 1.0000000000000000e+00 6.7274562878324948e+00 1.8449109274682534e+01 1.1670990523689328e+01 
2 1 2 1.0280592675762024e+00 -2.2441162821126741e+02 1.0000000000000000e+00 6.7274562878325321e+00 1.8449109274682531e+01 1.1670990523689305e+01 
116 1 2 1.0280592675762252e+00 -2.3109401260029458e+02 1.0000000000000000e+00 6.7274562878536859e+00 1.8449109274683384e+01 1.1670990523680601e+01 
31 1 2 1.0280592675761970e+00 -2.9373575757996667e+02 1.0000000000000000e+00 6.7274562878287929e+00 1.8449109274682428e+01 1.1670990523690907e+01 
122 1 2 1.0280592675762008e+00 -2.7146663857995162e+02 1.0000000000000000e+00 6.7274562878311945e+00 1.8449109274682549e+01 1.1670990523689929e+01 
157 1 2 1.0280592675762001e+00 -1.8415450160124229e+02 1.0000000000000000e+00 6.7274562878311377e+00 1.8449109274682542e+01 1.1670990523689953e+01 
165 1 2 1.0280592676930980e+00 -3.0279273329360745e+02 1.0000000000000000e+00 6.7274568318734147e+00 1.8449108992992063e+01 1.1670989992435874e+01 
3 1 2 1.0280592675761975e+00 -2.3841641423109135e+02 1.0000000000000000e+00 6.7274562878288071e+00 1.8449109274682428e+01 1.1670990523690895e+01 
26 1 2 1.0280592675762126e+00 -2.1658989864947134e+02 1.0000000000000000e+00 6.7274562878428341e+00 1.8449109274683046e+01 1.1670990523685180e+01 
41 1 2 1.0280592675755367e+00 -1.7699124644332008e+02 1.0000000000000000e+00 6.7274562873035677e+00 1.8449109274663925e+01 1.1670990523910822e+01 
68 1 2 1.0280592675761973e+00 -2.2076320502954789e+02 1.0000000000000000e+00 6.7274562878287769e+00 1.8449109274682431e+01 1.1670990523690914e+01 
38 1 2 1.0280592675762006e+00 -2.5802506557678186e+02 1.0000000000000000e+00 6.7274562878311865e+00 1.8449109274682549e+01 1.1670990523689934e+01 

Velocities

12 -6.5993470338464943e-01 1.6441593283673991e-01 -3.9248010063316735e-01
144 -6.5990129006370790e-01 1.6451801182096354e-01 -3.9251002860421341e-01
174 -6.5990116841778101e-01 1.6451737490239970e-01 -3.9250969670078106e-01
173 -6.5990116841630708e-01 1.6451737489502966e-01 -3.9250969669681651e-01
56 -6.5990116842090063e-01 1.6451737491579338e-01 -3.9250969670798597e-01
10 -6.5990116840608204e-01 1.6451737484994122e-01 -3.9250969667254043e-01
179 -6.5990116840611923e-01 1.6451737484998102e-01 -3.9250969667256824e-01
138 -6.5990105901330298e-01 1.6451734511882685e-01 -3.9250963117748661e-01
139 -6.5990112367441711e-01 1.6451725185744265e-01 -3.9250962221381441e-01
71 -6.5990116841487190e-01 1.6451737488859269e-01 -3.9250969669334412e-01
137 -6.5990116841600943e-01 1.6451737489377938e-01 -3.9250969669613495e-01
14 -6.5990116841602353e-01 1.6451737489379564e-01 -3.9250969669614472e-01
17 -6.5990116841801683e-01 1.6451737490383023e-01 -3.9250969670154001e-01
39 -6.5990116841788249e-01 1.6451737490312418e-01 -3.9250969670116587e-01
143 -6.5990116841199620e-01 1.6451737487638160e-01 -3.9250969668677754e-01
99 -6.5990120874368718e-01 1.6451753969497238e-01 -3.9250978693232674e-01
180 -6.5990116841061253e-01 1.6451737486945583e-01 -3.9250969668304725e-01
28 -6.5990116113784925e-01 1.6451754319330858e-01 -3.9250976556469463e-01
11 -6.5990116841540458e-01 1.6451737489131846e-01 -3.9250969669480840e-01
110 -6.5990116841416158e-01 1.6451737488542190e-01 -3.9250969669163815e-01
7 -6.5990116842049074e-01 1.6451737491382301e-01 -3.9250969670692970e-01
46 -6.6110850934696164e-01 1.6409448947706939e-01 -3.8311058225273165e-01
171 -6.6179989804296158e-01 1.6397076252541348e-01 -3.8359066317099350e-01
43 -6.6180396060607283e-01 1.6395622468072593e-01 -3.8358774767397302e-01
61 -6.6181204825735773e-01 1.6392378389510137e-01 -3.8358065086200777e-01
111 -6.6181238098010431e-01 1.6392241222805068e-01 -3.8358034891208959e-01
101 -6.6181278057621684e-01 1.6392076496034305e-01 -3.8357998687820488e-01
91 -6.6181342095370022e-01 1.6391812755973892e-01 -3.8357940897637494e-01
69 -6.6181354787260227e-01 1.6391760559387772e-01 -3.8357929493267906e-01
161 -6.6181366970797006e-01 1.6391710455752814e-01 -3.8357918552134868e-01
105 -6.6181366523026552e-01 1.6391712297328753e-01 -3.8357918954225229e-01
159 -6.6181349876732465e-01 1.6391780751889068e-01 -3.8357933903905339e-01
34 -6.6181351962458312e-01 1.6391772175105779e-01 -3.8357932030335362e-01
119 -6.6181398293042248e-01 1.6391581514387632e-01 -3.8357890394452249e-01
92 -6.6181384563526102e-01 1.6391638064060166e-01 -3.8357902745128308e-01
89 -6.6181402983334403e-01 1.6391562181976435e-01 -3.8357886171026656e-01
93 -6.6181398056252816e-01 1.6391582490132009e-01 -3.8357890607597384e-01
80 -6.6181535023360238e-01 1.6391014500878495e-01 -3.8357766176065866e-01
73 -6.6181887248008442e-01 1.6389529988171520e-01 -3.8357439448417108e-01
141 -6.6184282145053863e-01 1.6335570970060218e-01 -3.8340202919121696e-01
133 -6.6191138727211685e-01 1.6326265109810020e-01 -3.8342952502128341e-01
85 -6.6322341380626237e-01 1.6604252816207812e-01 -3.8376151709607031e-01