LAMMPS data file via write_data, version 30 Jul 2016, timestep = 50000000

180 atoms
2 atom types

0.0000000000000000e+00 2.0000000000000000e+01 xlo xhi
0.0000000000000000e+00 2.0000000000000000e+01 ylo yhi
0.0000000000000000e+00 2.0000000000000000e+01 zlo zhi

Masses

1 3.896
2 1

Atoms # meso-molecular

85 1 2 1.0286019946867815e+00 -2.5439445239871657e+02 1.0000000000000000e+00 1.2875522533418614e+01 9.3653427356517014e+00 6.5098614053790511e+00 
55 1 2 1.0247489068374087e+00 -2.0529288419754363e+02 1.0000000000000000e+00 1.2451019601142779e+01 5.3850436593452748e+00 6.9193969100564603e+00 
13 1 2 1.0247489068374076e+00 -1.8125765224938641e+02 1.0000000000000000e+00 1.2451019601141937e+01 5.3850436593453788e+00 6.9193969100557844e+00 
9 1 2 1.0247489068374087e+00 -2.6302822392328096e+02 1.0000000000000000e+00 1.2451019601142903e+01 5.3850436593452571e+00 6.9193969100565580e+00 
16 1 2 1.0247489068374078e+00 -2.4203484088004126e+02 1.0000000000000000e+00 1.2451019601141807e+01 5.3850436593453939e+00 6.9193969100556920e+00 
76 1 2 1.0247489068374085e+00 -1.6913659523360514e+02 1.0000000000000000e+00 1.2451019601142759e+01 5.3850436593452633e+00 6.9193969100564763e+00 
126 1 2 1.0247489068374076e+00 -2.7241524659616539e+02 1.0000000000000000e+00 1.2451019601141910e+01 5.3850436593453894e+00 6.9193969100557409e+00 
19 1 2 1.0247489068374087e+00 -2.0288595286902552e+02 1.0000000000000000e+00 1.2451019601142976e+01 5.3850436593452784e+00 6.9193969100565216e+00 
130 1 2 1.0247489068374078e+00 -1.1426437060179288e+02 1.0000000000000000e+00 1.2451019601141807e+01 5.3850436593453939e+00 6.9193969100556920e+00 
132 1 2 1.0247489068374085e+00 -2.0725895924532313e+02 1.0000000000000000e+00 1.2451019601142576e+01 5.3850436593452944e+00 6.9193969100563075e+00 
178 1 2 1.0247489068374078e+00 -2.1991293680267609e+02 1.0000000000000000e+00 1.2451019601141807e+01 5.3850436593453939e+00 6.9193969100556920e+00 
123 1 2 1.0247489068374087e+00 -1.4371540554185378e+02 1.0000000000000000e+00 1.2451019601142844e+01 5.3850436593452509e+00 6.9193969100565571e+00 
37 1 2 1.0247489068374085e+00 -3.1914183609602742e+02 1.0000000000000000e+00 1.2451019601142759e+01 5.3850436593452633e+00 6.9193969100564763e+00 
142 1 2 1.0247489068374085e+00 -2.6305370401070962e+02 1.0000000000000000e+00 1.2451019601142669e+01 5.3850436593452935e+00 6.9193969100563528e+00 
104 1 2 1.0247489068374078e+00 -1.4205313168864160e+02 1.0000000000000000e+00 1.2451019601141807e+01 5.3850436593453939e+00 6.9193969100556920e+00 
177 1 2 1.0247489068374080e+00 -2.2439091255454071e+02 1.0000000000000000e+00 1.2451019601142772e+01 5.3850436593452962e+00 6.9193969100563733e+00 
168 1 2 1.0247489068374078e+00 -2.4981404437199299e+02 1.0000000000000000e+00 1.2451019601141807e+01 5.3850436593453939e+00 6.9193969100556920e+00 
72 1 2 1.0247489068374076e+00 -2.4895068790642077e+02 1.0000000000000000e+00 1.2451019601141835e+01 5.3850436593453983e+00 6.9193969100556849e+00 
162 1 2 1.0247489068374085e+00 -2.7532000824347676e+02 1.0000000000000000e+00 1.2451019601142576e+01 5.3850436593452944e+00 6.9193969100563075e+00 
81 1 2 1.0247489068374085e+00 -2.1032665719233967e+02 1.0000000000000000e+00 1.2451019601142670e+01 5.3850436593452891e+00 6.9193969100563626e+00 
112 1 2 1.0247489068374085e+00 -2.2279123950994025e+02 1.0000000000000000e+00 1.2451019601142781e+01 5.3850436593452837e+00 6.9193969100564239e+00 
115 1 2 1.0247489068374087e+00 -1.6979932626897659e+02 1.0000000000000000e+00 1.2451019601142859e+01 5.3850436593452944e+00 6.9193969100564230e+00 
21 1 2 1.0247489068374087e+00 -2.4574632751300669e+02 1.0000000000000000e+00 1.2451019601142903e+01 5.3850436593452571e+00 6.9193969100565580e+00 
47 1 2 1.0247489068374087e+00 -2.4229358805374608e+02 1.0000000000000000e+00 1.2451019601142940e+01 5.3850436593452837e+00 6.9193969100564940e+00 
164 1 2 1.0247489068374085e+00 -2.7800382874732082e+02 1.0000000000000000e+00 1.2451019601142759e+01 5.3850436593452633e+00 6.9193969100564763e+00 
176 1 2 1.0247489068374085e+00 -2.4685301095031809e+02 1.0000000000000000e+00 1.2451019601142759e+01 5.3850436593452633e+00 6.9193969100564763e+00 
131 1 2 1.0247489068374076e+00 -1.4177580663996804e+02 1.0000000000000000e+00 1.2451019601141859e+01 5.3850436593453983e+00 6.9193969100556911e+00 
64 1 2 1.0247489068374087e+00 -2.0519005712755634e+02 1.0000000000000000e+00 1.2451019601142976e+01 5.3850436593452784e+00 6.9193969100565216e+00 
1 1 2 1.0247489068374078e+00 -2.9845672720221592e+02 1.0000000000000000e+00 1.2451019601141857e+01 5.3850436593453983e+00 6.9193969100556920e+00 
94 1 2 1.0247489068374085e+00 -1.3333489699109549e+02 1.0000000000000000e+00 1.2451019601142759e+01 5.3850436593452633e+00 6.9193969100564763e+00 
57 1 2 1.0247489068374087e+00 -1.6662312089405322e+02 1.0000000000000000e+00 1.2451019601142903e+01 5.3850436593452571e+00 6.9193969100565580e+00 
12 1 2 1.0271688331212294e+00 -3.1147725287086405e+02 1.0000000000000000e+00 1.2005923803371417e+01 8.3361403370200211e+00 7.9864787844027498e+00 
110 1 2 1.0270427235508812e+00 -2.2673752770723675e+02 1.0000000000000000e+00 1.2015232207889301e+01 8.3238176397244512e+00 7.9798996948828247e+00 
11 1 2 1.0270427235442265e+00 -2.7688118326287707e+02 1.0000000000000000e+00 1.2015232207022818e+01 8.3238176395053696e+00 7.9798996941266900e+00 
143 1 2 1.0270427235615009e+00 -2.6791932453060309e+02 1.0000000000000000e+00 1.2015232209273069e+01 8.3238176400682509e+00 7.9798996960838373e+00 
174 1 2 1.0270427235316735e+00 -1.7166596445655728e+02 1.0000000000000000e+00 1.2015232205384480e+01 8.3238176391007457e+00 7.9798996927072521e+00 
7 1 2 1.0270427235182724e+00 -2.4673134778355066e+02 1.0000000000000000e+00 1.2015232203638956e+01 8.3238176386655223e+00 7.9798996911906173e+00 
173 1 2 1.0270427235398685e+00 -2.0406066158401447e+02 1.0000000000000000e+00 1.2015232206450996e+01 8.3238176393665277e+00 7.9798996936337305e+00 
56 1 2 1.0270427235160553e+00 -2.8861499851300960e+02 1.0000000000000000e+00 1.2015232203354890e+01 8.3238176385913984e+00 7.9798996909404138e+00 
10 1 2 1.0270427235919095e+00 -2.1250898618271336e+02 1.0000000000000000e+00 1.2015232213235983e+01 8.3238176410529778e+00 7.9798996995235241e+00 
179 1 2 1.0270427235917869e+00 -2.3305428287412505e+02 1.0000000000000000e+00 1.2015232213222728e+01 8.3238176410493612e+00 7.9798996995117752e+00 
138 1 2 1.0270427917944147e+00 -3.0238514950515207e+02 1.0000000000000000e+00 1.2015285434193157e+01 8.3237989723317050e+00 7.9799130644101881e+00 
139 1 2 1.0270428787650236e+00 -2.3905731026643556e+02 1.0000000000000000e+00 1.2015259019952715e+01 8.3238188247270415e+00 7.9799172878291902e+00 
71 1 2 1.0270427235472610e+00 -2.5820089942844271e+02 1.0000000000000000e+00 1.2015232207413527e+01 8.3238176396065580e+00 7.9798996944700749e+00 
137 1 2 1.0270427235413135e+00 -2.8879946589174943e+02 1.0000000000000000e+00 1.2015232206641429e+01 8.3238176394133525e+00 7.9798996937985676e+00 
14 1 2 1.0270427235412596e+00 -2.5910310738360664e+02 1.0000000000000000e+00 1.2015232206635840e+01 8.3238176394122920e+00 7.9798996937941302e+00 
17 1 2 1.0270427235301296e+00 -2.4456789902637493e+02 1.0000000000000000e+00 1.2015232205186749e+01 8.3238176390512795e+00 7.9798996925354038e+00 
39 1 2 1.0270427235309514e+00 -2.2634393687777268e+02 1.0000000000000000e+00 1.2015232205290118e+01 8.3238176390769922e+00 7.9798996926250094e+00 
144 1 2 1.0270420990023958e+00 -2.6028710646887424e+02 1.0000000000000000e+00 1.2015168646498687e+01 8.3237867940630128e+00 7.9798289001012037e+00 
99 1 2 1.0270425445101292e+00 -2.0119794692874177e+02 1.0000000000000000e+00 1.2015207704573140e+01 8.3238118735066013e+00 7.9798787289101245e+00 
180 1 2 1.0270427235691815e+00 -1.9463659644678583e+02 1.0000000000000000e+00 1.2015232210273451e+01 8.3238176403171220e+00 7.9798996969524332e+00 
28 1 2 1.0270425368515785e+00 -2.9420794803704888e+02 1.0000000000000000e+00 1.2015228104242496e+01 8.3238028009003866e+00 7.9798819496641400e+00 
45 1 2 1.0288590381310856e+00 -1.9894518229633923e+02 1.0000000000000000e+00 1.2839106508110628e+01 8.6436863294670285e+00 7.1314609929163524e+00 
66 1 2 1.0288040401656426e+00 -2.2500809263098935e+02 1.0000000000000000e+00 1.2861205996870451e+01 8.8549222493853463e+00 6.9203700473814456e+00 
124 1 2 1.0287601988567363e+00 -1.3082922961698915e+02 1.0000000000000000e+00 1.2869764230187462e+01 9.0047174836815689e+00 6.7874814786201911e+00 
134 1 2 1.0287343974871690e+00 -2.1976385400877643e+02 1.0000000000000000e+00 1.2870846442395223e+01 9.0822636722107912e+00 6.7214105818809049e+00 
128 1 2 1.0287339675929463e+00 -2.1776700282742738e+02 1.0000000000000000e+00 1.2870725946190726e+01 9.0833825939381541e+00 6.7203741050714907e+00 
175 1 2 1.0287339883603985e+00 -2.2834230427299244e+02 1.0000000000000000e+00 1.2870731616304788e+01 9.0833285808575273e+00 6.7204239935659622e+00 
98 1 2 1.0287345415492781e+00 -3.0323246874382312e+02 1.0000000000000000e+00 1.2870887180291103e+01 9.0818876871968239e+00 6.7217593173845609e+00 
75 1 2 1.0287431730575187e+00 -2.4297194228420364e+02 1.0000000000000000e+00 1.2871431810356659e+01 9.0575691317784770e+00 6.7428208744440354e+00 
74 1 2 1.0287432793335973e+00 -2.2997903771516266e+02 1.0000000000000000e+00 1.2871428000093498e+01 9.0572559413321905e+00 6.7430856836041073e+00 
46 1 2 1.0280841187129215e+00 -2.4359676736728761e+02 1.0000000000000000e+00 1.2178899179836920e+01 1.0508864810833657e+01 7.3672252118665504e+00 
171 1 2 1.0280783982749546e+00 -2.2164285194646459e+02 1.0000000000000000e+00 1.2322234376068488e+01 1.0523621292612308e+01 7.4752760499716491e+00 
43 1 2 1.0280795181382143e+00 -2.0773202382376704e+02 1.0000000000000000e+00 1.2323605029361449e+01 1.0524294145050105e+01 7.4744539769366458e+00 
61 1 2 1.0280819986419438e+00 -2.5248568980759086e+02 1.0000000000000000e+00 1.2326412216165503e+01 1.0525779371618825e+01 7.4725018368202418e+00 
111 1 2 1.0280821025277989e+00 -2.1860873961253722e+02 1.0000000000000000e+00 1.2326527417075097e+01 1.0525841441250227e+01 7.4724185682320456e+00 
101 1 2 1.0280822271578300e+00 -1.8732960188759554e+02 1.0000000000000000e+00 1.2326665588707252e+01 1.0525915891370445e+01 7.4723186295000179e+00 
161 1 2 1.0280825035667429e+00 -1.2837618383788319e+02 1.0000000000000000e+00 1.2326972136067164e+01 1.0526080955601936e+01 7.4720969405420128e+00 
92 1 2 1.0280825581455788e+00 -2.8029816503410973e+02 1.0000000000000000e+00 1.2327032658555405e+01 1.0526113539652703e+01 7.4720531472409020e+00 
69 1 2 1.0280824657763521e+00 -1.3369808948610881e+02 1.0000000000000000e+00 1.2326930209521153e+01 1.0526058392587363e+01 7.4721272491647275e+00 
91 1 2 1.0280824263928758e+00 -2.7022739192035419e+02 1.0000000000000000e+00 1.2326886512405547e+01 1.0526034876897345e+01 7.4721588312128047e+00 
159 1 2 1.0280824505425343e+00 -1.6645162464463749e+02 1.0000000000000000e+00 1.2326913306327107e+01 1.0526049296711275e+01 7.4721394652464745e+00 
34 1 2 1.0280824570134122e+00 -2.7190462125912518e+02 1.0000000000000000e+00 1.2326920486290325e+01 1.0526053160389802e+01 7.4721342762779281e+00 
105 1 2 1.0280825021780244e+00 -1.3376235883427708e+02 1.0000000000000000e+00 1.2326970595463292e+01 1.0526080126452994e+01 7.4720980544926014e+00 
89 1 2 1.0280826153290388e+00 -2.1401462907695856e+02 1.0000000000000000e+00 1.2327096014273964e+01 1.0526147675331059e+01 7.4720072296810773e+00 
93 1 2 1.0280826000277674e+00 -2.4932291406899867e+02 1.0000000000000000e+00 1.2327079067940433e+01 1.0526138541580016e+01 7.4720195203542747e+00 
119 1 2 1.0280826007629773e+00 -1.7969420719101089e+02 1.0000000000000000e+00 1.2327079882346149e+01 1.0526138980462315e+01 7.4720189298676480e+00 
80 1 2 1.0280830272628034e+00 -2.1131452182640723e+02 1.0000000000000000e+00 1.2327550172686399e+01 1.0526393475600397e+01 7.4716751162367192e+00 
73 1 2 1.0280841363623616e+00 -2.2261981463551751e+02 1.0000000000000000e+00 1.2328758346230096e+01 1.0527054371904278e+01 7.4707719437653282e+00 
141 1 2 1.0281188416271105e+00 -1.2112170751808688e+02 1.0000000000000000e+00 1.2349562108720187e+01 1.0547410617553901e+01 7.4326740084556651e+00 
133 1 2 1.0281229278682567e+00 -2.3148911344408143e+02 1.0000000000000000e+00 1.2361238422122730e+01 1.0549542004159839e+01 7.4332223573173710e+00 
65 1 2 1.0266108933126661e+00 -1.7196165171434345e+02 1.0000000000000000e+00 1.5796114693540325e+01 1.2421796888998646e+01 1.4002395463340100e+00 
140 1 2 1.0266367380873704e+00 -2.6318559921186096e+02 1.0000000000000000e+00 1.5796855971301845e+01 1.2421494913847889e+01 1.4010671102253234e+00 
150 1 2 1.0266316761363206e+00 -3.2162565433834061e+02 1.0000000000000000e+00 1.5796780299302291e+01 1.2423295998633293e+01 1.4014160370831239e+00 
95 1 2 1.0266316761405010e+00 -1.6953698150188794e+02 1.0000000000000000e+00 1.5796780299372015e+01 1.2423295998420368e+01 1.4014160371429514e+00 
84 1 2 1.0266316761365752e+00 -1.5896792968466335e+02 1.0000000000000000e+00 1.5796780299306569e+01 1.2423295998620301e+01 1.4014160370867765e+00 
156 1 2 1.0266316761367751e+00 -3.8234277170799396e+02 1.0000000000000000e+00 1.5796780299309832e+01 1.2423295998610197e+01 1.4014160370896127e+00 
149 1 2 1.0266316761371432e+00 -2.5624346980059090e+02 1.0000000000000000e+00 1.5796780299316245e+01 1.2423295998591080e+01 1.4014160370949427e+00 
148 1 2 1.0266316761362160e+00 -2.8479520867195470e+02 1.0000000000000000e+00 1.5796780299300581e+01 1.2423295998638624e+01 1.4014160370816462e+00 
54 1 2 1.0266316764085293e+00 -1.8680365240238856e+02 1.0000000000000000e+00 1.5796780303826857e+01 1.2423295984770085e+01 1.4014160409706853e+00 
145 1 2 1.0266316761365595e+00 -2.4419072398129421e+02 1.0000000000000000e+00 1.5796780299306365e+01 1.2423295998621011e+01 1.4014160370865585e+00 
113 1 2 1.0266316761353516e+00 -2.9355601833087428e+02 1.0000000000000000e+00 1.5796780299286642e+01 1.2423295998682280e+01 1.4014160370694400e+00 
52 1 2 1.0266316761373631e+00 -2.3858060444781458e+02 1.0000000000000000e+00 1.5796780299320043e+01 1.2423295998579988e+01 1.4014160370981787e+00 
154 1 2 1.0266316761359175e+00 -2.3882358764694644e+02 1.0000000000000000e+00 1.5796780299295827e+01 1.2423295998653606e+01 1.4014160370774424e+00 
96 1 2 1.0266316742903969e+00 -1.8403460480508465e+02 1.0000000000000000e+00 1.5796780268671903e+01 1.2423296092669812e+01 1.4014160107574807e+00 
90 1 2 1.0266316761367711e+00 -1.5477470863660807e+02 1.0000000000000000e+00 1.5796780299309775e+01 1.2423295998610355e+01 1.4014160370895581e+00 
107 1 2 1.0266316761415575e+00 -2.3166735688592942e+02 1.0000000000000000e+00 1.5796780299389894e+01 1.2423295998366187e+01 1.4014160371581088e+00 
120 1 2 1.0266316761365606e+00 -3.1556968760176966e+02 1.0000000000000000e+00 1.5796780299306368e+01 1.2423295998620963e+01 1.4014160370865725e+00 
147 1 2 1.0266316762516965e+00 -2.7263924141388577e+02 1.0000000000000000e+00 1.5796780301220140e+01 1.2423295992757314e+01 1.4014160387309129e+00 
114 1 2 1.0266316761351801e+00 -3.0489927114454423e+02 1.0000000000000000e+00 1.5796780299283920e+01 1.2423295998690932e+01 1.4014160370670388e+00 
160 1 2 1.0266316769203427e+00 -1.2675773850490185e+02 1.0000000000000000e+00 1.5796780312320566e+01 1.2423295958697711e+01 1.4014160482706877e+00 
63 1 2 1.0266316781943845e+00 -1.7128076136498740e+02 1.0000000000000000e+00 1.5796780333503932e+01 1.2423295893817624e+01 1.4014160664712971e+00 
129 1 2 1.0266316394324491e+00 -2.6701837776652809e+02 1.0000000000000000e+00 1.5796779691796171e+01 1.2423297869587982e+01 1.4014155148528409e+00 
155 1 2 1.0266316761373249e+00 -2.9567024745487242e+02 1.0000000000000000e+00 1.5796780299319511e+01 1.2423295998581656e+01 1.4014160370976254e+00 
146 1 2 1.0266316377699518e+00 -9.4553257590886304e+01 1.0000000000000000e+00 1.5796779659833874e+01 1.2423297952011605e+01 1.4014154880107512e+00 
23 1 2 1.0266316674796117e+00 -2.2611379946197454e+02 1.0000000000000000e+00 1.5796780155401107e+01 1.2423296439513969e+01 1.4014159134476261e+00 
166 1 2 1.0266316698076514e+00 -2.6649051925545979e+02 1.0000000000000000e+00 1.5796780194086727e+01 1.2423296320937290e+01 1.4014159466857186e+00 
67 1 2 1.0266306355404462e+00 -1.9363784000393798e+02 1.0000000000000000e+00 1.5796760960895702e+01 1.2423348191839068e+01 1.4013998004338790e+00 
86 1 2 1.0266367186527456e+00 -2.0944950322215925e+02 1.0000000000000000e+00 1.5796855607562486e+01 1.2423040549708448e+01 1.4014839213768422e+00 
6 1 2 1.0295913719708258e+00 -3.3040210712654027e+02 1.0000000000000000e+00 1.4419239221845702e+01 1.1516953276225752e+01 3.5472223477216120e+00 
35 1 2 1.0295320355396365e+00 -2.5714806695821028e+02 1.0000000000000000e+00 1.4416981608342898e+01 1.1518385292056562e+01 3.5453786429870604e+00 
163 1 2 1.0294109085030196e+00 -2.8545170125309545e+02 1.0000000000000000e+00 1.4411959493576177e+01 1.1520915252974671e+01 3.5415605745371157e+00 
62 1 2 1.0293591656183310e+00 -2.9613849462647505e+02 1.0000000000000000e+00 1.4409827019745022e+01 1.1522040266149773e+01 3.5400373193181291e+00 
106 1 2 1.0293583523381333e+00 -2.0929502497717857e+02 1.0000000000000000e+00 1.4409789887350911e+01 1.1522055251966295e+01 3.5400116291297707e+00 
24 1 2 1.0293583251456206e+00 -2.5817499475443128e+02 1.0000000000000000e+00 1.4409788647132439e+01 1.1522055754355327e+01 3.5400107712859810e+00 
87 1 2 1.0293584000290148e+00 -1.6315322490380626e+02 1.0000000000000000e+00 1.4409792068321078e+01 1.1522054375666466e+01 3.5400131372847770e+00 
33 1 2 1.0293583914402007e+00 -2.1569633414320251e+02 1.0000000000000000e+00 1.4409791674932526e+01 1.1522054532981111e+01 3.5400128652956151e+00 
88 1 2 1.0293583384149205e+00 -1.7556062280030949e+02 1.0000000000000000e+00 1.4409789251857854e+01 1.1522055508814921e+01 3.5400111896003499e+00 
29 1 2 1.0293565120984607e+00 -2.4149496845419026e+02 1.0000000000000000e+00 1.4409710015353896e+01 1.1522092589855287e+01 3.5399561162558726e+00 
152 1 2 1.0263429379447184e+00 -2.3559533751167035e+02 1.0000000000000000e+00 1.3461856701342780e+01 1.0988285084454741e+01 5.1145877792041556e+00 
172 1 2 1.0263429351538471e+00 -2.4288023784709239e+02 1.0000000000000000e+00 1.3461856680897045e+01 1.0988285085840010e+01 5.1145878000024183e+00 
38 1 2 1.0263429379448104e+00 -2.5803139943306115e+02 1.0000000000000000e+00 1.3461856701343413e+01 1.0988285084454690e+01 5.1145877792034202e+00 
3 1 2 1.0263429379449842e+00 -2.3842274808736764e+02 1.0000000000000000e+00 1.3461856701344709e+01 1.0988285084454450e+01 5.1145877792021341e+00 
26 1 2 1.0263429379439997e+00 -2.1659623250574751e+02 1.0000000000000000e+00 1.3461856701337501e+01 1.0988285084454965e+01 5.1145877792094820e+00 
2 1 2 1.0263429379447182e+00 -2.2441796206754370e+02 1.0000000000000000e+00 1.3461856701342784e+01 1.0988285084454748e+01 5.1145877792041574e+00 
116 1 2 1.0263429379432252e+00 -2.3110034645657080e+02 1.0000000000000000e+00 1.3461856701331953e+01 1.0988285084455768e+01 5.1145877792154097e+00 
157 1 2 1.0263429379448139e+00 -1.8416083545751857e+02 1.0000000000000000e+00 1.3461856701343443e+01 1.0988285084454695e+01 5.1145877792033918e+00 
165 1 2 1.0263428930152432e+00 -3.0279906714627208e+02 1.0000000000000000e+00 1.3461857003319347e+01 1.0988287411595245e+01 5.1145889033387899e+00 
41 1 2 1.0263429379820601e+00 -1.7699758029959716e+02 1.0000000000000000e+00 1.3461856701613907e+01 1.0988285084427110e+01 5.1145877789228242e+00 
68 1 2 1.0263429379449855e+00 -2.2076953888582418e+02 1.0000000000000000e+00 1.3461856701344697e+01 1.0988285084454482e+01 5.1145877792021031e+00 
122 1 2 1.0263429379448108e+00 -2.7147297243623092e+02 1.0000000000000000e+00 1.3461856701343427e+01 1.0988285084454692e+01 5.1145877792034238e+00 
32 1 2 1.0263429379447231e+00 -2.2557522023249012e+02 1.0000000000000000e+00 1.3461856701342828e+01 1.0988285084454738e+01 5.1145877792041308e+00 
158 1 2 1.0263429379448101e+00 -2.4848626565097160e+02 1.0000000000000000e+00 1.3461856701343422e+01 1.0988285084454686e+01 5.1145877792034247e+00 
31 1 2 1.0263429379449849e+00 -2.9374209143624597e+02 1.0000000000000000e+00 1.3461856701344704e+01 1.0988285084454448e+01 5.1145877792021261e+00 
121 1 2 1.0263429379448161e+00 -2.4927500627893227e+02 1.0000000000000000e+00 1.3461856701343464e+01 1.0988285084454700e+01 5.1145877792033909e+00 
36 1 2 1.0263429379449855e+00 -2.2110704567331371e+02 1.0000000000000000e+00 1.3461856701344701e+01 1.0988285084454478e+01 5.1145877792021173e+00 
151 1 2 1.0263429379448106e+00 -1.9034568774788832e+02 1.0000000000000000e+00 1.3461856701343409e+01 1.0988285084454700e+01 5.1145877792034113e+00 
25 1 2 1.0263429379440017e+00 -2.9717680404172575e+02 1.0000000000000000e+00 1.3461856701337538e+01 1.0988285084454962e+01 5.1145877792094883e+00 
50 1 2 1.0250349684044222e+00 -2.4850178133577148e+02 1.0000000000000000e+00 1.3640114925223950e+01 1.1241076651863375e+01 5.0840480360016702e+00 
170 1 2 1.0291310261357678e+00 -1.5474798590684634e+02 1.0000000000000000e+00 1.4400505409078740e+01 1.1527654889549698e+01 3.5341088701363783e+00 
53 1 2 1.0294331005741266e+00 -2.2396839543874557e+02 1.0000000000000000e+00 1.4413694008833243e+01 1.1521169501087771e+01 3.5427705303065067e+00 
103 1 2 1.0293583317247497e+00 -1.8660006092925505e+02 1.0000000000000000e+00 1.4409788946731153e+01 1.1522055632421109e+01 3.5400109785482656e+00 
169 1 2 1.0293586281592164e+00 -3.0130627507123859e+02 1.0000000000000000e+00 1.4409802513883557e+01 1.1522050195042445e+01 3.5400203603367308e+00 
97 1 2 1.0293583604067809e+00 -1.9693485197496659e+02 1.0000000000000000e+00 1.4409790255898226e+01 1.1522055103343130e+01 3.5400118840117449e+00 
102 1 2 1.0293584591530218e+00 -2.6550746044386068e+02 1.0000000000000000e+00 1.4409794775638288e+01 1.1522053292206431e+01 3.5400150092333535e+00 
167 1 2 1.0293583426132991e+00 -1.8440530254599463e+02 1.0000000000000000e+00 1.4409789443404547e+01 1.1522055431300291e+01 3.5400113220861424e+00 
117 1 2 1.0293580690703599e+00 -1.5970966602562063e+02 1.0000000000000000e+00 1.4409776872031815e+01 1.1522060408222883e+01 3.5400026348533684e+00 
127 1 2 1.0293591733414589e+00 -2.2122705668939312e+02 1.0000000000000000e+00 1.4409827394444578e+01 1.1522040141916611e+01 3.5400375769719763e+00 
153 1 2 1.0293583126154200e+00 -2.3280164607090165e+02 1.0000000000000000e+00 1.4409788076871298e+01 1.1522055986858337e+01 3.5400103767569564e+00 
125 1 2 1.0293603257750696e+00 -1.9725010148561182e+02 1.0000000000000000e+00 1.4409877334018073e+01 1.1522016744276089e+01 3.5400723592364005e+00 
44 1 2 1.0309436354140755e+00 -2.3238524141777583e+02 1.0000000000000000e+00 1.7456959502678249e+01 1.3665472332638533e+01 1.9054803919218191e+01 
40 1 2 1.0309436354140755e+00 -2.0913403495420988e+02 1.0000000000000000e+00 1.7456959502678234e+01 1.3665472332638542e+01 1.9054803919218184e+01 
58 1 2 1.0309436354140755e+00 -2.0412502254468910e+02 1.0000000000000000e+00 1.7456959502678238e+01 1.3665472332638537e+01 1.9054803919218184e+01 
49 1 2 1.0309436354140755e+00 -2.1323205019879367e+02 1.0000000000000000e+00 1.7456959502678234e+01 1.3665472332638542e+01 1.9054803919218184e+01 
30 1 2 1.0309436354140753e+00 -2.4608574278034993e+02 1.0000000000000000e+00 1.7456959502678266e+01 1.3665472332638533e+01 1.9054803919218198e+01 
82 1 2 1.0309436354140755e+00 -2.8933608288330504e+02 1.0000000000000000e+00 1.7456959502678234e+01 1.3665472332638542e+01 1.9054803919218184e+01 
78 1 2 1.0309436354140753e+00 -5.9928123915605887e+01 1.0000000000000000e+00 1.7456959502678266e+01 1.3665472332638533e+01 1.9054803919218198e+01 
15 1 2 1.0309436354140757e+00 -2.1356214418791856e+02 1.0000000000000000e+00 1.7456959502678249e+01 1.3665472332638537e+01 1.9054803919218195e+01 
100 1 2 1.0309436354140755e+00 -1.6482318456941812e+02 1.0000000000000000e+00 1.7456959502678263e+01 1.3665472332638528e+01 1.9054803919218195e+01 
118 1 2 1.0309436354140753e+00 -2.3033926235874785e+02 1.0000000000000000e+00 1.7456959502678266e+01 1.3665472332638533e+01 1.9054803919218198e+01 
8 1 2 1.0309436354140760e+00 -2.6678079907898586e+02 1.0000000000000000e+00 1.7456959502678242e+01 1.3665472332638537e+01 1.9054803919218191e+01 
59 1 2 1.0309436354140760e+00 -2.0107005674903058e+02 1.0000000000000000e+00 1.7456959502678249e+01 1.3665472332638535e+01 1.9054803919218195e+01 
18 1 2 1.0309436354140760e+00 -2.4296751137343827e+02 1.0000000000000000e+00 1.7456959502678249e+01 1.3665472332638535e+01 1.9054803919218195e+01 
77 1 2 1.0309436354140757e+00 -1.6174449700783549e+02 1.0000000000000000e+00 1.7456959502678249e+01 1.3665472332638529e+01 1.9054803919218191e+01 
83 1 2 1.0309436354140755e+00 -2.5112262043332424e+02 1.0000000000000000e+00 1.7456959502678263e+01 1.3665472332638533e+01 1.9054803919218198e+01 
135 1 2 1.0309436354140760e+00 -1.7120112503684061e+02 1.0000000000000000e+00 1.7456959502678249e+01 1.3665472332638535e+01 1.9054803919218195e+01 
4 1 2 1.0309436354140760e+00 -2.0472447277101003e+02 1.0000000000000000e+00 1.7456959502678249e+01 1.3665472332638535e+01 1.9054803919218195e+01 
136 1 2 1.0309436354140753e+00 -1.6276848394213857e+02 1.0000000000000000e+00 1.7456959502678266e+01 1.3665472332638533e+01 1.9054803919218198e+01 
42 1 2 1.0309436354140753e+00 -2.6518022218871386e+02 1.0000000000000000e+00 1.7456959502678266e+01 1.3665472332638533e+01 1.9054803919218198e+01 
5 1 2 1.0309436354140760e+00 -2.0564397003858858e+02 1.0000000000000000e+00 1.7456959502678242e+01 1.3665472332638537e+01 1.9054803919218191e+01 
51 1 2 1.0309436354140760e+00 -2.5900563038045402e+02 1.0000000000000000e+00 1.7456959502678249e+01 1.3665472332638535e+01 1.9054803919218195e+01 
79 1 2 1.0309436354140755e+00 -2.4939626468096338e+02 1.0000000000000000e+00 1.7456959502678252e+01 1.3665472332638535e+01 1.9054803919218195e+01 
108 1 2 1.0309436354140755e+00 -2.7464306711010545e+02 1.0000000000000000e+00 1.7456959502678234e+01 1.3665472332638542e+01 1.9054803919218184e+01 
22 1 2 1.0309436354140755e+00 -2.4611517211495766e+02 1.0000000000000000e+00 1.7456959502678234e+01 1.3665472332638542e+01 1.9054803919218184e+01 
48 1 2 1.0309436354140755e+00 -1.8874863664264740e+02 1.0000000000000000e+00 1.7456959502678263e+01 1.3665472332638535e+01 1.9054803919218198e+01 
27 1 2 1.0309436354140755e+00 -2.7416901882133334e+02 1.0000000000000000e+00 1.7456959502678234e+01 1.3665472332638542e+01 1.9054803919218184e+01 
20 1 2 1.0309436354140753e+00 -2.1312916943104352e+02 1.0000000000000000e+00 1.7456959502678266e+01 1.3665472332638533e+01 1.9054803919218198e+01 
109 1 2 1.0309436354140760e+00 -2.0797200283070168e+02 1.0000000000000000e+00 1.7456959502678252e+01 1.3665472332638529e+01 1.9054803919218195e+01 
70 1 2 1.0309436354140760e+00 -1.7806900238808248e+02 1.0000000000000000e+00 1.7456959502678249e+01 1.3665472332638535e+01 1.9054803919218195e+01 
60 1 2 1.0309436354140755e+00 -2.5515345397425972e+02 1.0000000000000000e+00 1.7456959502678234e+01 1.3665472332638542e+01 1.9054803919218184e+01 

Velocities

85 -6.9251243105566029e-01 1.5690760296589948e-01 -3.6312894632209697e-01
55 -6.2414348495872085e-01 1.6570998195673187e-01 -4.6857469316666722e-01
13 -6.2414348495854954e-01 1.6570998195671743e-01 -4.6857469316651851e-01
9 -6.2414348495874550e-01 1.6570998195673212e-01 -4.6857469316669209e-01
16 -6.2414348495852512e-01 1.6570998195671832e-01 -4.6857469316649936e-01
76 -6.2414348495872041e-01 1.6570998195672870e-01 -4.6857469316667411e-01
126 -6.2414348495854621e-01 1.6570998195672101e-01 -4.6857469316651007e-01
19 -6.2414348495876149e-01 1.6570998195673661e-01 -4.6857469316668376e-01
130 -6.2414348495852512e-01 1.6570998195671832e-01 -4.6857469316649936e-01
132 -6.2414348495867711e-01 1.6570998195672829e-01 -4.6857469316663541e-01
178 -6.2414348495852512e-01 1.6570998195671832e-01 -4.6857469316649936e-01
123 -6.2414348495873295e-01 1.6570998195672981e-01 -4.6857469316669254e-01
37 -6.2414348495872041e-01 1.6570998195672870e-01 -4.6857469316667411e-01
142 -6.2414348495870109e-01 1.6570998195672920e-01 -4.6857469316664607e-01
104 -6.2414348495852512e-01 1.6570998195671832e-01 -4.6857469316649936e-01
177 -6.2414348495872174e-01 1.6570998195673287e-01 -4.6857469316664896e-01
168 -6.2414348495852512e-01 1.6570998195671832e-01 -4.6857469316649936e-01
72 -6.2414348495852934e-01 1.6570998195671896e-01 -4.6857469316649775e-01
162 -6.2414348495867711e-01 1.6570998195672829e-01 -4.6857469316663541e-01
81 -6.2414348495870131e-01 1.6570998195672992e-01 -4.6857469316664818e-01
112 -6.2414348495872074e-01 1.6570998195673442e-01 -4.6857469316665895e-01
115 -6.2414348495873684e-01 1.6570998195673381e-01 -4.6857469316665862e-01
21 -6.2414348495874550e-01 1.6570998195673212e-01 -4.6857469316669209e-01
47 -6.2414348495875416e-01 1.6570998195673539e-01 -4.6857469316667610e-01
164 -6.2414348495872041e-01 1.6570998195672870e-01 -4.6857469316667411e-01
176 -6.2414348495872041e-01 1.6570998195672870e-01 -4.6857469316667411e-01
131 -6.2414348495853422e-01 1.6570998195671907e-01 -4.6857469316649908e-01
64 -6.2414348495876149e-01 1.6570998195673661e-01 -4.6857469316668376e-01
1 -6.2414348495853245e-01 1.6570998195671988e-01 -4.6857469316649908e-01
94 -6.2414348495872041e-01 1.6570998195672870e-01 -4.6857469316667411e-01
57 -6.2414348495874550e-01 1.6570998195673212e-01 -4.6857469316669209e-01
12 -6.9399418597656792e-01 1.2096854655932174e-01 -3.6054090761764773e-01
110 -6.9469128631601162e-01 1.2239945033465635e-01 -3.6045915806009887e-01
11 -6.9469128652127543e-01 1.2239945028550692e-01 -3.6045915815926932e-01
143 -6.9469128598933971e-01 1.2239945041391874e-01 -3.6045915790200844e-01
174 -6.9469128690771886e-01 1.2239945019125076e-01 -3.6045915834620618e-01
7 -6.9469128731973051e-01 1.2239945009184325e-01 -3.6045915854605071e-01
173 -6.9469128665565516e-01 1.2239945025242999e-01 -3.6045915822452218e-01
56 -6.9469128738750763e-01 1.2239945007590476e-01 -3.6045915857858074e-01
10 -6.9469128505413769e-01 1.2239945064044874e-01 -3.6045915744882479e-01
179 -6.9469128505734989e-01 1.2239945063978599e-01 -3.6045915745049434e-01
138 -6.9468621102639150e-01 1.2240496163395198e-01 -3.6045363397228086e-01