LAMMPS data file via write_data, version 30 Jul 2016, timestep = 50000000

180 atoms
2 atom types

0.0000000000000000e+00 2.0000000000000000e+01 xlo xhi
0.0000000000000000e+00 2.0000000000000000e+01 ylo yhi
0.0000000000000000e+00 2.0000000000000000e+01 zlo zhi

Masses

1 3.896
2 4.31

Atoms # meso-molecular

162 1 2 1.0280000002840657e+00 -9.7752407981095104e+01 1.0000000000000000e+00 2.4673431188905388e+00 3.7246683402376517e+00 3.9286104538828757e+00 
168 1 2 1.0280000002856922e+00 -9.7770451013736107e+01 1.0000000000000000e+00 2.3633502126328705e+00 3.7114550344309474e+00 3.9580215890765640e+00 
180 1 2 1.0280000002830534e+00 -1.2722861777916256e+02 1.0000000000000000e+00 2.4254039454526439e+00 3.6245323360525998e+00 3.9368577134379463e+00 
7 1 2 1.0279999993940185e+00 -9.8990406550895415e+01 1.0000000000000000e+00 4.8834827043101816e+00 5.4109395848944120e+00 2.9404644622240612e+00 
8 1 2 1.0279999994010447e+00 -9.9278592357351414e+01 1.0000000000000000e+00 4.9021192945076217e+00 5.3583022322093319e+00 3.0339316778447945e+00 
14 1 2 1.0279999993946798e+00 -7.6226060575766553e+01 1.0000000000000000e+00 4.9061955660531176e+00 5.3044637846277523e+00 2.9393857135960579e+00 
2 1 2 1.0279999995079989e+00 -1.1852252765969359e+02 1.0000000000000000e+00 4.6558170308289055e+00 1.7677125245443148e+00 6.5416493601947376e+00 
3 1 2 1.0279999995098688e+00 -1.3206316895306054e+02 1.0000000000000000e+00 4.6475594137581444e+00 1.7331838711168281e+00 6.6445751455447679e+00 
9 1 2 1.0279999995107647e+00 -7.9875077223962506e+01 1.0000000000000000e+00 4.6854769842105837e+00 1.8330521657680601e+00 6.6235343519904744e+00 
15 1 2 6.8774415317587634e-01 -7.7132767829375993e+01 1.0000000000000000e+00 5.0150000000000015e+00 8.9450000000000003e+00 7.5150000000003301e+00 
21 1 2 6.8774415317587634e-01 -7.7132767829375993e+01 1.0000000000000000e+00 5.0149999999999988e+00 8.9450000000000003e+00 7.5149999999995725e+00 
167 1 2 1.0280000005338694e+00 -1.1727828273645076e+02 1.0000000000000000e+00 2.5281975410557550e-01 6.2918778154621338e+00 8.1971806219544501e+00 
173 1 2 1.0280000005416605e+00 -7.6489384239288142e+01 1.0000000000000000e+00 2.9511588011970030e-01 6.3621250110632133e+00 8.1255531181829479e+00 
166 1 2 1.0280000005412409e+00 -1.1801934970535632e+02 1.0000000000000000e+00 2.1702395990420489e-01 6.2929663874756070e+00 8.0943623055250509e+00 
41 1 2 1.0292273377027732e+00 -8.4205664216012764e+01 1.0000000000000000e+00 4.8173324788367999e+00 2.2157000781822123e+00 1.0655952480047093e+01 
5 1 2 1.0292273377027732e+00 -8.5078174718662410e+01 1.0000000000000000e+00 4.8173324788367999e+00 2.2157000781822123e+00 1.0655952480047093e+01 
4 1 2 1.0268384456417319e+00 -5.5410391764640046e+01 1.0000000000000000e+00 4.9333430521838313e+00 2.2562895769360356e+00 1.0679737211895455e+01 
16 1 2 1.0280000317505582e+00 -7.8695532917781492e+01 1.0000000000000000e+00 6.5836135598599714e+00 7.3887398404397553e+00 1.1739228733072990e+01 
52 1 2 1.0280000318706057e+00 -7.7440784534111117e+01 1.0000000000000000e+00 6.5835075028001997e+00 7.3887282232139349e+00 1.1739223995569001e+01 
17 1 2 1.0279999676823819e+00 -6.9657141975230289e+01 1.0000000000000000e+00 6.5089903299532947e+00 7.5869601068994914e+00 1.2925419254353843e+01 
53 1 2 1.0279999676868044e+00 -7.1213207622810728e+01 1.0000000000000000e+00 6.5087887303204504e+00 7.5863419109200549e+00 1.2925509706531489e+01 
18 1 2 1.0279992637590656e+00 -4.7183758871135097e+01 1.0000000000000000e+00 5.1782441927505101e+00 9.3034661050946106e+00 1.7688616141349218e+01 
19 1 2 1.0280005415158950e+00 -1.1964388140271443e+02 1.0000000000000000e+00 6.3041770996238604e+00 9.1572928394793234e+00 1.7285114572795454e+01 
13 1 2 1.0280005415158950e+00 -1.1964388140271443e+02 1.0000000000000000e+00 6.3041770996238604e+00 9.1572928394793234e+00 1.7285114572795454e+01 
24 1 2 1.0279992637585615e+00 -1.5739582893907919e+02 1.0000000000000000e+00 5.1791983490232347e+00 9.3053591504185356e+00 1.7690582485768800e+01 
80 1 2 1.0279999996759370e+00 -1.1050373545935622e+02 1.0000000000000000e+00 3.7497205279374670e+00 3.0181726467192345e+00 1.9059161819938499e+01 
50 1 2 1.0279999996749478e+00 -9.0743954026259473e+01 1.0000000000000000e+00 3.7463440519484603e+00 2.9111790519439906e+00 1.9079039017298989e+01 
86 1 2 1.0279999996766356e+00 -1.2484601305834094e+02 1.0000000000000000e+00 3.7682595762782491e+00 2.9472377205408646e+00 1.8978671616736229e+01 
158 1 2 1.0267448958818446e+00 -7.1598083854255066e+01 1.0000000000000000e+00 4.6596539880054633e-02 8.0138716304214590e+00 1.9645737343011501e+01 
152 1 2 1.0291805628228294e+00 -1.3292948229144403e+02 1.0000000000000000e+00 1.1596179950607732e-01 8.1047282560213780e+00 1.9591763376095219e+01 
153 1 2 1.0291805628228294e+00 -1.3292948229144400e+02 1.0000000000000000e+00 1.1596179950607732e-01 8.1047282560213780e+00 1.9591763376095219e+01 
30 1 2 1.0279999999870117e+00 -9.6602320955657817e+01 1.0000000000000000e+00 3.5815263138004596e+00 1.4410438617633510e+01 2.1983944457196611e+00 
60 1 2 1.0279999999902669e+00 -1.2263967569051826e+02 1.0000000000000000e+00 3.5815345555723721e+00 1.4410441708180171e+01 2.1983874983748541e+00 
25 1 2 1.0280000000078571e+00 -8.0356563973395325e+01 1.0000000000000000e+00 4.3053240899718892e+00 1.4602371030160461e+01 3.1424213421884613e+00 
26 1 2 1.0280000000078571e+00 -8.0356847270054061e+01 1.0000000000000000e+00 4.3053240899718892e+00 1.4602371030160461e+01 3.1424213421884613e+00 
27 1 2 3.4387207658793817e-01 0.0000000000000000e+00 1.0000000000000000e+00 5.0199999999999996e+00 1.3380000000000001e+01 7.4900000000000002e+00 
33 1 2 1.0280000010908370e+00 -1.2258759426205178e+02 1.0000000000000000e+00 5.0874850145639696e+00 1.5937976206179421e+01 9.6715033915067288e+00 
34 1 2 1.0280000010959927e+00 -1.2374993104303350e+02 1.0000000000000000e+00 5.0598797958945170e+00 1.5986305392302462e+01 9.7650788683013889e+00 
28 1 2 1.0280000010816530e+00 -7.5997838875413834e+01 1.0000000000000000e+00 5.0454804744403043e+00 1.6038419652242982e+01 9.6705754731280553e+00 
22 1 2 6.8774415317587634e-01 -8.9779149955536013e+01 1.0000000000000000e+00 5.0499999999999927e+00 1.0565000000000003e+01 1.1895000000000000e+01 
23 1 2 6.8774415317587634e-01 -8.9779149955536013e+01 1.0000000000000000e+00 5.0500000000000069e+00 1.0564999999999998e+01 1.1895000000000000e+01 
157 1 2 1.0280000000525678e+00 -1.5646641055909114e+02 1.0000000000000000e+00 4.8509021237832179e+00 1.8151012794545853e+01 1.2967793689261260e+01 
163 1 2 1.0280000000525678e+00 -1.5646641055909114e+02 1.0000000000000000e+00 4.8509021237832179e+00 1.8151012794545853e+01 1.2967793689261260e+01 
35 1 2 1.0279999999538816e+00 -5.3438325873275502e+01 1.0000000000000000e+00 5.2775670084501813e+00 1.8523554312365707e+01 1.4031315173030720e+01 
29 1 2 1.0279999999459297e+00 -7.3161060479265231e+01 1.0000000000000000e+00 5.2775906231555254e+00 1.8523556869755339e+01 1.4031304803129100e+01 
36 1 2 6.8774415317587634e-01 -8.9141659457888082e+01 1.0000000000000000e+00 4.6307761022077889e+00 1.6674391901835417e+01 1.8983582557777741e+01 
31 1 2 6.8774415317587634e-01 -8.9144081272407945e+01 1.0000000000000000e+00 4.6307761022085465e+00 1.6674391901832404e+01 1.8983582557777741e+01 
119 1 2 1.0279900685377319e+00 -7.2392651517502159e+01 1.0000000000000000e+00 9.5704937283828588e+00 4.6407132006340002e-02 7.5708526860197201e-01 
73 1 2 1.0266140164467616e+00 -1.0322098053506454e+02 1.0000000000000000e+00 1.0060971123666194e+01 4.0854221828946374e-01 1.7990004045112074e+00 
43 1 2 1.0266140164467616e+00 -1.0367292307088738e+02 1.0000000000000000e+00 1.0060971123666194e+01 4.0854221828946374e-01 1.7990004045112074e+00 
85 1 2 1.0267927040411002e+00 -6.8266479972961960e+01 1.0000000000000000e+00 1.0719017565852370e+01 6.1486630380596639e+00 9.4542469215549241e-01 
79 1 2 1.0292044669024574e+00 -7.1917951679407523e+01 1.0000000000000000e+00 1.0824151755356469e+01 6.1145810712253477e+00 1.0054861300015676e+00 
115 1 2 1.0292044669024574e+00 -7.2368738257475712e+01 1.0000000000000000e+00 1.0824151755356469e+01 6.1145810712253477e+00 1.0054861300015676e+00 
49 1 2 3.4387207658793817e-01 0.0000000000000000e+00 1.0000000000000000e+00 8.1999999999999993e+00 8.0800000000000001e+00 1.5600000000000001e+00 
38 1 2 3.4387207658793817e-01 0.0000000000000000e+00 1.0000000000000000e+00 7.7599999999999998e+00 3.4999999999999998e-01 4.1900000000000004e+00 
74 1 2 1.0280000001148801e+00 -8.1827083276625899e+01 1.0000000000000000e+00 9.7402221047082342e+00 2.9332305780916754e+00 5.4368030382191090e+00 
44 1 2 1.0280000001149039e+00 -9.9245178490405294e+01 1.0000000000000000e+00 9.6678147650311708e+00 3.0057184219452742e+00 5.3999679856906200e+00 
45 1 2 1.0280000001149774e+00 -8.4552123216491040e+01 1.0000000000000000e+00 9.6840333087734507e+00 2.9945673015673386e+00 5.5070508638410889e+00 
69 1 2 1.0280000002239904e+00 -8.3729787630446424e+01 1.0000000000000000e+00 7.9159944170614711e+00 2.0728602500878806e+00 8.3980585112761297e+00 
39 1 2 1.0280000002237550e+00 -1.3151354212593594e+02 1.0000000000000000e+00 7.9614758254928271e+00 2.1639760495200551e+00 8.3595424930218645e+00 
106 1 2 1.0280000002236134e+00 -8.1609605023159659e+01 1.0000000000000000e+00 8.0238369383183610e+00 2.0865961041660643e+00 8.4040123339016972e+00 
46 1 2 1.0264533803744498e+00 -9.1305203263671260e+01 1.0000000000000000e+00 8.4893206724317647e+00 3.4679040103949390e+00 1.1891426677902958e+01 
47 1 2 1.0264533803744498e+00 -9.1407159085641354e+01 1.0000000000000000e+00 8.4893206724317647e+00 3.4679040103949390e+00 1.1891426677902958e+01 
81 1 2 1.0304058775317810e+00 -1.2394709288200734e+02 1.0000000000000000e+00 9.2903441488775353e+00 2.0664567732698034e+00 1.1669953024969628e+01 
82 1 2 1.0304058804154084e+00 -1.1418351496767885e+02 1.0000000000000000e+00 9.2903529897104633e+00 2.0664536570915328e+00 1.1669971582367298e+01 
57 1 2 1.0280000014443023e+00 -9.3749814706387895e+01 1.0000000000000000e+00 1.1972893341850565e+01 9.6381206627557354e+00 1.0796170738328140e+01 
51 1 2 1.0280000014457238e+00 -1.0841324937168427e+02 1.0000000000000000e+00 1.2018046143970121e+01 9.6560155537202519e+00 1.0698727809393231e+01 
93 1 2 1.0280000014424073e+00 -1.1518232939746490e+02 1.0000000000000000e+00 1.2062464406582336e+01 9.6994911898207938e+00 1.0788120281592544e+01 
77 1 2 6.8774415317587634e-01 -7.9903055825418932e+01 1.0000000000000000e+00 1.3029999999999999e+01 7.7500000000002667e-01 1.3635000000000000e+01 
113 1 2 6.8774415317587634e-01 -7.9903055825418932e+01 1.0000000000000000e+00 1.3029999999999999e+01 7.7500000000002667e-01 1.3635000000000000e+01 
118 1 2 1.0269231251275859e+00 -1.1288507894594395e+02 1.0000000000000000e+00 9.6147724495184228e+00 3.1067093890561024e+00 1.2155485703014804e+01 
58 1 2 1.0280000000000000e+00 -8.3949508305561906e+01 1.0000000000000000e+00 9.0104996472704908e+00 9.8947403582110383e+00 1.2035106104809888e+01 
94 1 2 1.0280000000000000e+00 -8.3697506831617574e+01 1.0000000000000000e+00 9.0104996472704908e+00 9.8947403582110383e+00 1.2035106104809888e+01 
11 1 2 1.0214859454223668e+00 -1.1262213094234976e+02 1.0000000000000000e+00 7.8943419058956277e+00 3.7133280701577904e+00 1.5429310566171894e+01 
12 1 2 1.0214859454222101e+00 -1.3620161455915525e+02 1.0000000000000000e+00 7.8943419058994415e+00 3.7133280701587652e+00 1.5429310566176413e+01 
10 1 2 1.0326865775607010e+00 -5.4068907755769018e+01 1.0000000000000000e+00 7.1768004302391653e+00 4.9717310383512343e+00 1.4678025803395235e+01 
6 1 2 1.0326876940652703e+00 -1.3819633863661142e+02 1.0000000000000000e+00 7.1767987416780068e+00 4.9717497154635355e+00 1.4678037625974165e+01 
89 1 2 1.0279998249488405e+00 -1.2906218952618656e+02 1.0000000000000000e+00 1.1099955656490033e+01 7.8605537018725817e+00 1.4775493408323525e+01 
88 1 2 1.0279998249488658e+00 -1.1635012303759584e+02 1.0000000000000000e+00 1.1100952430000204e+01 7.8597240444638272e+00 1.4775836806465941e+01 
90 1 2 1.0280001000175549e+00 -9.7368183837792046e+01 1.0000000000000000e+00 1.1256615318089713e+01 8.4724132994920609e+00 1.5801647919946046e+01 
96 1 2 1.0280001000175549e+00 -9.7367936897243581e+01 1.0000000000000000e+00 1.1256615318089713e+01 8.4724132994920609e+00 1.5801647919946046e+01 
42 1 2 6.8774415317587634e-01 -8.9865897119838166e+01 1.0000000000000000e+00 9.4004080501818557e+00 8.8999605846971197e-01 1.6587373357221452e+01 
78 1 2 6.8774415317587634e-01 -9.0758775490331701e+01 1.0000000000000000e+00 9.4004080501818503e+00 8.8999605846971197e-01 1.6587373357221463e+01 
48 1 2 1.0283232909538982e+00 -9.7102038139346107e+01 1.0000000000000000e+00 7.7627320160290036e+00 5.1776264744142315e+00 1.6165997020535734e+01 
54 1 2 1.0283232909538982e+00 -9.7852722953590131e+01 1.0000000000000000e+00 7.7627320160290036e+00 5.1776264744142315e+00 1.6165997020535734e+01 
55 1 2 6.8774415317587634e-01 -8.3854481466268226e+01 1.0000000000000000e+00 1.0266892786999849e+01 1.1180229048644071e+01 4.9927628150919301e-01 
91 1 2 6.8774415317587634e-01 -8.1045990870519461e+01 1.0000000000000000e+00 1.0266892786999854e+01 1.1180229048643087e+01 4.9927628150924036e-01 
61 1 2 1.0279999995009019e+00 -1.1959852132986910e+02 1.0000000000000000e+00 8.5810600320594492e+00 1.5162843856740471e+01 7.2851159541579880e-01 
67 1 2 1.0279999994993239e+00 -1.1188492641816454e+02 1.0000000000000000e+00 8.5920781357359068e+00 1.5263759914059367e+01 6.8915826980367789e-01 
97 1 2 1.0279999995031754e+00 -7.6992668221374117e+01 1.0000000000000000e+00 8.6799619757521373e+00 1.5201239957740894e+01 7.0405186511016615e-01 
37 1 2 1.0293879005681557e+00 -6.9952359782704107e+01 1.0000000000000000e+00 8.7567311874293274e+00 1.9497655468905727e+01 1.4377568959772591e+00 
1 1 2 1.0293879005681557e+00 -6.9952359782704121e+01 1.0000000000000000e+00 8.7567311874293274e+00 1.9497655468905727e+01 1.4377568959772591e+00 
62 1 2 1.0279999999207137e+00 -1.1704295885325536e+02 1.0000000000000000e+00 7.3018074020958155e+00 1.1685056008003524e+01 3.9957143177119754e+00 
92 1 2 1.0279998417861673e+00 -5.5680536017921497e+01 1.0000000000000000e+00 1.3049849078635246e+01 1.2990077144169799e+01 3.8760745394838167e+00 
130 1 2 1.0279998417881160e+00 -1.5980134915424520e+02 1.0000000000000000e+00 1.3049756781410000e+01 1.2990074549551768e+01 3.8748105703155589e+00 
98 1 2 1.0267927024221473e+00 -6.4338265869602921e+01 1.0000000000000000e+00 1.2358204094789178e+01 1.7931157944529865e+01 2.9955070826123520e+00 
104 1 2 1.0292044660929809e+00 -9.4498249197886338e+01 1.0000000000000000e+00 1.2339168770601457e+01 1.7930990374474376e+01 3.1198444794834894e+00 
105 1 2 1.0292044660929809e+00 -9.5194234745011968e+01 1.0000000000000000e+00 1.2339168770601457e+01 1.7930990374474376e+01 3.1198444794834894e+00 
56 1 2 1.0279999999212710e+00 -8.6266644040594485e+01 1.0000000000000000e+00 7.3553416639503091e+00 1.1592928840642562e+01 4.0180928770871382e+00 
20 1 2 1.0279999999212157e+00 -1.0809148609358056e+02 1.0000000000000000e+00 7.2464760766853162e+00 1.1594215551034461e+01 4.0189648636044719e+00 
68 1 2 6.8774415317587634e-01 -7.8115748013912821e+01 1.0000000000000000e+00 6.7450000000000001e+00 1.6780000000000001e+01 4.3200000000000003e+00 
32 1 2 6.8774415317587634e-01 -7.8115748013912821e+01 1.0000000000000000e+00 6.7450000000000001e+00 1.6780000000000001e+01 4.3200000000000003e+00 
142 1 2 1.0292044479706981e+00 -1.0147216574599487e+02 1.0000000000000000e+00 1.2217833246631370e+01 1.3586600708988549e+01 6.7297405234018086e+00 
143 1 2 1.0292044479706981e+00 -1.0036143763904350e+02 1.0000000000000000e+00 1.2217833246631370e+01 1.3586600708988549e+01 6.7297405234018086e+00 
76 1 2 1.0267926661775815e+00 -1.2569824326449552e+02 1.0000000000000000e+00 1.2097436650509268e+01 1.3577163699362774e+01 6.7649240652685432e+00 
99 1 2 1.0279999999993135e+00 -1.6684321436764452e+02 1.0000000000000000e+00 9.4841945386786666e+00 1.4292221394369287e+01 8.1886758485992939e+00 
100 1 2 1.0280000000042067e+00 -1.5369473258921795e+02 1.0000000000000000e+00 9.7785235549316170e+00 1.4481058295022537e+01 9.3416964534454046e+00 
63 1 2 1.0280000000007274e+00 -4.8064018453799953e+01 1.0000000000000000e+00 9.4930245970484783e+00 1.4304921064249525e+01 8.1845008850591636e+00 
64 1 2 1.0279999999954381e+00 -1.0766559233397575e+02 1.0000000000000000e+00 9.7862966263350692e+00 1.4467049783155986e+01 9.3418475295184180e+00 
122 1 2 1.0280000007553782e+00 -6.0131552411867652e+01 1.0000000000000000e+00 8.7966629838301955e+00 1.8618660017681542e+01 1.1174322065098815e+01 
129 1 2 1.0280000007449552e+00 -1.5613774646877349e+02 1.0000000000000000e+00 8.7966629591133252e+00 1.8618660018917364e+01 1.1174322073755567e+01 
59 1 2 1.0280000000000000e+00 -9.4541895691261573e+01 1.0000000000000000e+00 8.6516624480768805e+00 1.0375355033755250e+01 1.3080167562900558e+01 
95 1 2 1.0280000000000000e+00 -9.5644912136078858e+01 1.0000000000000000e+00 8.6516624480768805e+00 1.0375355033755250e+01 1.3080167562900558e+01 
65 1 2 1.0279810582668873e+00 -8.5835132054465490e+01 1.0000000000000000e+00 8.3275636542351368e+00 1.5297781771775783e+01 1.2796377940070711e+01 
70 1 2 1.0279810007511982e+00 -8.9429917969842862e+01 1.0000000000000000e+00 8.3275317637456396e+00 1.5406943420188988e+01 1.2795891100241729e+01 
71 1 2 1.0279810057762275e+00 -1.0330595198156706e+02 1.0000000000000000e+00 8.3094096012815957e+00 1.5351941779972604e+01 1.2703353242395353e+01 
123 1 2 1.0279999992538493e+00 -1.6419158629086328e+02 1.0000000000000000e+00 9.1694834896463782e+00 1.8314403490184173e+01 1.2279012467338354e+01 
110 1 2 1.0279999992574698e+00 -5.2415879928857123e+01 1.0000000000000000e+00 9.1695453976206345e+00 1.8314337079307094e+01 1.2278973278615945e+01 
87 1 2 1.0267927042415936e+00 -9.8401925800039749e+01 1.0000000000000000e+00 1.1289984926368618e+01 1.8162013027299754e+01 1.5665506759562806e+01 
101 1 2 1.0292044670027041e+00 -8.3658805654798584e+01 1.0000000000000000e+00 1.1378861260055928e+01 1.8250053024871278e+01 1.5652387687166406e+01 
107 1 2 1.0292044670027041e+00 -8.3857584437505793e+01 1.0000000000000000e+00 1.1378861260055928e+01 1.8250053024871278e+01 1.5652387687166406e+01 
66 1 2 6.8774415317587634e-01 -7.8339058836710791e+01 1.0000000000000000e+00 9.8599999999999177e+00 1.3070000000000002e+01 1.7504999999999836e+01 
102 1 2 6.8774415317587634e-01 -7.8339058836710791e+01 1.0000000000000000e+00 9.8600000000000829e+00 1.3069999999999997e+01 1.7505000000000166e+01 
72 1 2 3.4387207658793817e-01 2.4218145201011084e-03 1.0000000000000000e+00 7.2984477955841802e+00 1.7891216196332856e+01 1.7172834884446395e+01 
108 1 2 1.0279999993628441e+00 -1.3181401110787235e+02 1.0000000000000000e+00 1.2629904574813420e+01 1.7577319241197866e+01 1.8510077271491436e+01 
144 1 2 1.0279999993685396e+00 -7.8750063199744801e+01 1.0000000000000000e+00 1.2676856853184786e+01 1.7575624482397529e+01 1.8608295117356768e+01 
103 1 2 1.0279999993645730e+00 -1.2086350329729773e+02 1.0000000000000000e+00 1.2738451656803978e+01 1.7576747333858510e+01 1.8518523444439129e+01 
109 1 2 1.0279491283850657e+00 -5.5353248645512195e+01 1.0000000000000000e+00 1.5312503721510899e+01 1.9233203965240724e+00 1.0691493762596254e+00 
145 1 2 3.4387207658793817e-01 0.0000000000000000e+00 1.0000000000000000e+00 1.7899999999999999e+01 1.4000000000000001e-01 1.9700000000000000e+00 
116 1 2 1.0249580368545608e+00 -1.0062779761173807e+02 1.0000000000000000e+00 1.5824296471791259e+01 3.0251412163317659e+00 1.0688942062099742e+00 
151 1 2 1.0249580368545608e+00 -1.0062895356949595e+02 1.0000000000000000e+00 1.5824296471791259e+01 3.0251412163317659e+00 1.0688942062099742e+00 
126 1 2 1.0310536791745706e+00 -1.5802121336160471e+02 1.0000000000000000e+00 1.4880858250656287e+01 2.2254516469567034e+00 2.1326293940820822e+00 
121 1 2 1.0310536791745706e+00 -1.5874199089694719e+02 1.0000000000000000e+00 1.4880858250656287e+01 2.2254516469567034e+00 2.1326293940820822e+00 
146 1 2 6.8774415317587634e-01 -6.6135038132689644e+01 1.0000000000000000e+00 1.8298041682462379e+01 4.8811907676622490e-01 6.0129670536599802e+00 
147 1 2 6.8774415317587634e-01 -6.8081889185465556e+01 1.0000000000000000e+00 1.8298041682462436e+01 4.8811907676617755e-01 6.0129670536599802e+00 
164 1 2 1.0279999995532771e+00 -7.6302038651434430e+01 1.0000000000000000e+00 1.8104126558946092e+01 9.3999377663334709e+00 6.4400612434379045e+00 
165 1 2 1.0279999995488616e+00 -9.9712053253365937e+01 1.0000000000000000e+00 1.8127584528248619e+01 9.4185113639753961e+00 6.5447459051972521e+00 
159 1 2 1.0279999995413740e+00 -9.5444418631884020e+01 1.0000000000000000e+00 1.8098127807098525e+01 9.3188048636151013e+00 6.5124186921406855e+00 
148 1 2 1.0226961614575927e+00 -5.7949617883039132e+01 1.0000000000000000e+00 1.7619846449992249e+01 4.5110207766348620e-01 1.0491317758296418e+01 
112 1 2 1.0226961628849609e+00 -8.4496736225013009e+01 1.0000000000000000e+00 1.7619846899479771e+01 4.5110179946906087e-01 1.0491317870553589e+01 
125 1 2 1.0278381013631466e+00 -1.4041004315854735e+02 1.0000000000000000e+00 1.5377146410410733e+01 5.8919994388750005e+00 1.0644657291116294e+01 
131 1 2 1.0329110125486818e+00 -8.3561177196324010e+01 1.0000000000000000e+00 1.4625213997334548e+01 6.7832768324998520e+00 1.0815494660505779e+01 
124 1 2 1.0329110125276844e+00 -1.3679136658692246e+02 1.0000000000000000e+00 1.4625213997027535e+01 6.7832768314902383e+00 1.0815494660926239e+01 
154 1 2 1.0231453439942158e+00 -8.1291112112585850e+01 1.0000000000000000e+00 1.6218254321488910e+01 6.7622666456271112e+00 1.0465603429796314e+01 
160 1 2 1.0231453439942158e+00 -8.1291112112585822e+01 1.0000000000000000e+00 1.6218254321488910e+01 6.7622666456271112e+00 1.0465603429796314e+01 
149 1 2 3.4387207658793817e-01 7.7903065737986131e-03 1.0000000000000000e+00 1.8051228293295125e+01 1.2551326669013261e+00 1.3989010205041003e+01 
155 1 2 6.8774415317587634e-01 -8.9265535333494967e+01 1.0000000000000000e+00 1.8349068543894528e+01 4.1785788916130295e+00 1.5760861880426347e+01 
156 1 2 6.8774415317587634e-01 -8.9255282857566101e+01 1.0000000000000000e+00 1.8349068543897541e+01 4.1785788916122719e+00 1.5760861880426347e+01 
150 1 2 6.8774415317587634e-01 -8.8511907522309230e+01 1.0000000000000000e+00 1.6104999999997403e+01 1.2300000000000000e+00 1.7440000000000005e+01 
114 1 2 6.8774415317587634e-01 -8.8511907522309230e+01 1.0000000000000000e+00 1.6104999999997393e+01 1.2300000000000000e+00 1.7439999999999994e+01 
120 1 2 1.0279999992749451e+00 -1.1332984700297082e+02 1.0000000000000000e+00 1.3441465835301496e+01 5.7324378987720381e+00 1.8592879789743129e+01 
83 1 2 1.0279999992746387e+00 -1.7161191089241984e+02 1.0000000000000000e+00 1.3540272063451241e+01 5.7196089184750125e+00 1.8548983540043867e+01 
84 1 2 1.0279999992729292e+00 -1.1406170727346976e+02 1.0000000000000000e+00 1.3519350188242285e+01 5.6803954748134515e+00 1.8648375265964511e+01 
127 1 2 3.4387207658793817e-01 2.8082436552094938e+00 1.0000000000000000e+00 1.3396220465886241e+01 1.1149535858567004e+01 8.3142918870616145e-01 
133 1 2 1.0280000000003608e+00 -1.1608247781486237e+02 1.0000000000000000e+00 1.5939771221941918e+01 1.5876496339690091e+01 1.9463066593981382e+00 
175 1 2 1.0279999999960194e+00 -6.3998569860550248e+01 1.0000000000000000e+00 1.5939928676866336e+01 1.5873079039550149e+01 1.9525776588222403e+00 
169 1 2 3.4387207658793817e-01 5.0062126676184093e-02 1.0000000000000000e+00 1.8753025098600428e+01 1.4461603328187472e+01 1.5805734559161873e+00 
128 1 2 1.0280000872572552e+00 -1.0075988468036215e+02 1.0000000000000000e+00 1.3781039411574190e+01 1.3946180327488024e+01 3.8200837444704367e+00 
134 1 2 1.0280000872572552e+00 -1.0079454252786641e+02 1.0000000000000000e+00 1.3781039411574190e+01 1.3946180327488024e+01 3.8200837444704367e+00 
139 1 2 1.0279999999939440e+00 -1.2955775054022283e+02 1.0000000000000000e+00 1.4964709582419518e+01 1.6487197890433720e+01 2.3042760026459250e+00 
140 1 2 1.0280000000025844e+00 -1.0279112976508044e+02 1.0000000000000000e+00 1.4967186899004066e+01 1.6487218814078812e+01 2.3109760496855674e+00 
176 1 2 3.4387207658793817e-01 1.9468510644272021e+00 1.0000000000000000e+00 1.8003916634733493e+01 1.7923761846068011e+01 4.3140658916869752e+00 
170 1 2 1.0335111311929084e+00 -6.8343518701869996e+01 1.0000000000000000e+00 1.6750698142842026e+01 1.3267136706919210e+01 6.9261280269944656e+00 
171 1 2 1.0335111311929084e+00 -6.8343518701869883e+01 1.0000000000000000e+00 1.6750698142842026e+01 1.3267136706919210e+01 6.9261280269944656e+00 
135 1 2 1.0277013108107953e+00 -1.2464305834826588e+02 1.0000000000000000e+00 1.7860945645034867e+01 1.3637354608218930e+01 6.8092977427767671e+00 
172 1 2 1.0226400872229600e+00 -8.3794266507911175e+01 1.0000000000000000e+00 1.7679262160054773e+01 1.4212517009806906e+01 7.8768665108480729e+00 
136 1 2 1.0226400873243076e+00 -1.2036975639077528e+02 1.0000000000000000e+00 1.7679262159984212e+01 1.4212517009693160e+01 7.8768665107075604e+00 
141 1 2 6.8774415317587634e-01 -8.9931338547414313e+01 1.0000000000000000e+00 1.6529999999998815e+01 1.7304999999998493e+01 7.1500000000003787e+00 
177 1 2 6.8774415317587634e-01 -8.9931338547414313e+01 1.0000000000000000e+00 1.6530000000001827e+01 1.7305000000001506e+01 7.1499999999996211e+00 
111 1 2 1.0334103496501910e+00 -1.7575801260057068e+02 1.0000000000000000e+00 1.6383854747740081e+01 1.9388185097444197e+01 1.0543795022361927e+01 
117 1 2 1.0334103496501910e+00 -1.7536932859536327e+02 1.0000000000000000e+00 1.6383854747740081e+01 1.9388185097444197e+01 1.0543795022361927e+01 
178 1 2 1.0277586585747587e+00 -5.2342113037589030e+01 1.0000000000000000e+00 1.7549447063082692e+01 1.9228875758898823e+01 1.0551987051784558e+01 
179 1 2 1.0279999979023537e+00 -7.6764517201019672e+01 1.0000000000000000e+00 1.5317309186944268e+01 1.3282365567045080e+01 1.2857857736180668e+01 
161 1 2 1.0279999979019550e+00 -5.4933299174772500e+01 1.0000000000000000e+00 1.5317451602862498e+01 1.3282446647317915e+01 1.2857829092008837e+01 
137 1 2 1.0280000021320550e+00 -1.3141816196050638e+02 1.0000000000000000e+00 1.4696326044934995e+01 1.4282478169504186e+01 1.2600830965244949e+01 
138 1 2 1.0280000021320550e+00 -1.3252888929540129e+02 1.0000000000000000e+00 1.4696326044934995e+01 1.4282478169504186e+01 1.2600830965244949e+01 
132 1 2 3.4387207658793817e-01 0.0000000000000000e+00 1.0000000000000000e+00 1.4869999999999999e+01 1.1000000000000000e+01 1.6980000000000000e+01 
40 1 2 1.0280000028544471e+00 -1.5707447875404651e+02 1.0000000000000000e+00 1.6065064317798136e+01 1.3602840302409522e+01 1.7979147540423298e+01 
75 1 2 1.0280000028592260e+00 -1.8313236510844908e+02 1.0000000000000000e+00 1.6058165577233318e+01 1.3611964903172515e+01 1.8087421597853272e+01 
174 1 2 1.0280000028695380e+00 -5.0266606072742256e+01 1.0000000000000000e+00 1.6142999242788168e+01 1.3655003127854727e+01 1.8034458565666473e+01 

Velocities

162 9.5661643096121304e-09 7.4714871008066096e-09 -2.4670191800333396e-09
168 -1.0870116435062628e-08 4.8391993073871441e-09 3.3113831857037179e-09
180 1.3039521955281302e-09 -1.2310686367503296e-08 -8.4436400316131308e-10
7 5.7477894246923755e-09 -2.2089546970777376e-08 1.2918578831100119e-08
8 -2.0350795895110544e-09 -1.7617271729068996e-10 -2.6300934794306957e-08
14 -3.7127098377163241e-09 2.2265719569840256e-08 1.3382356042503398e-08
2 2.4245838468992009e-09 3.4951247629002548e-09 2.0900502631007719e-08
3 5.2419591952025693e-09 1.5250495168698198e-08 -1.4021623219631625e-08
9 -7.6665429846677971e-09 -1.8745619862502736e-08 -6.8788793490850947e-09
15 -3.5879472542090662e-13 1.6304166312761136e-322 -1.3071254226501147e-12
21 3.5879472542090662e-13 -1.6304166312761136e-322 1.3071254226501147e-12
167 -8.0917674800881940e-10 -8.9179053028857193e-09 2.1817638469097131e-08
173 1.4916921679323165e-08 1.7309577222669684e-08 -5.1081722377947098e-09
166 -1.4107744910838598e-08 -8.3916718590757020e-09 -1.6709466229572439e-08
41 -8.3949027585466954e-04 -2.9371882684903997e-04 -1.7211406274820768e-04
5 -8.3949027585466954e-04 -2.9371882684903997e-04 -1.7211406274820768e-04
4 1.6789805517093391e-03 5.8743765369807994e-04 3.4422812549641537e-04
16 3.4082752020976170e-09 9.1027958658937036e-10 3.2505463042970434e-09
52 -3.8828571817612654e-09 3.4428385918138852e-10 4.2677339233844854e-09
17 -6.6262631737385297e-09 -2.1664429220581113e-08 -6.5366303404464255e-10
53 7.1008451527924704e-09 2.0409865756490636e-08 -6.8646170987370062e-09
18 2.0574526587574010e-06 1.1542704919308607e-06 8.8938171537417454e-07
19 -1.3844434735123172e-06 1.8097475741174569e-07 4.9756402651751888e-07
13 -1.3844434735123172e-06 1.8097475741174569e-07 4.9756402651751888e-07
24 7.1143428809236497e-07 -1.5162200063856106e-06 -1.8845097676659588e-06
80 1.1396836263217766e-09 -1.3317049921532228e-08 -4.5584043702737138e-09
50 1.8926250427538449e-09 1.0690485626147361e-08 -8.9974002613188141e-09
86 -3.0323086742833268e-09 2.6265643214511931e-09 1.3555804591262282e-08
158 5.6227030357300584e-03 7.3647792472902969e-03 -4.3750948135293996e-03
152 -2.8113515178650292e-03 -3.6823896236451484e-03 2.1875474067646998e-03
153 -2.8113515178650292e-03 -3.6823896236451484e-03 2.1875474067646998e-03
30 2.7166349650163002e-11 7.2129254179821228e-12 3.5254021723939324e-11
60 -1.4410076710009363e-11 -3.8304912516029368e-12 -1.8612524374795581e-11
25 -6.3781364166194270e-12 -1.6912170558358677e-12 -8.3207490596941265e-12
26 -6.3781364166194270e-12 -1.6912170558358677e-12 -8.3207490596941265e-12
27 0.0000000000000000e+00 0.0000000000000000e+00 0.0000000000000000e+00
33 1.7530079313595199e-08 -3.7501245257593917e-08 -2.3143789552995049e-08
34 -3.2689014831780868e-09 -1.0557883833939962e-09 4.7188920236358371e-08
28 -1.4261177757031828e-08 3.8557033281849829e-08 -2.4045130530732531e-08
22 1.9136481133909270e-12 -7.1758945084170117e-13 -1.6304166312761136e-322
23 -1.9136481133909270e-12 7.1758945084170117e-13 1.6304166312761136e-322
157 -6.9353261457505178e-12 -6.0546369630002387e-12 -1.7283706188257516e-11