LAMMPS data file via write_data, version 30 Jul 2016, timestep = 50400000

180 atoms
2 atom types

0.0000000000000000e+00 2.0000000000000000e+01 xlo xhi
0.0000000000000000e+00 2.0000000000000000e+01 ylo yhi
0.0000000000000000e+00 2.0000000000000000e+01 zlo zhi

Masses

1 3.896
2 50

Atoms # meso-molecular

175 1 2 1.6832400728743295e+00 -2.6058491439671634e+03 1.0000000000000000e+00 3.2868401632690480e-01 6.3620103404283179e-01 8.2920068495734001e-01 
8 1 2 1.6841316574524565e+00 -1.0918384492610105e+04 1.0000000000000000e+00 2.4033626161192463e+00 3.7051894252554733e+00 2.5544405822692422e+00 
7 1 2 1.6833201577447592e+00 -1.2029472028611679e+02 1.0000000000000000e+00 4.8485374561113170e+00 6.1713018125095251e+00 8.7685957858251573e-01 
14 1 2 1.6837153185762734e+00 -1.6832571379422843e+03 1.0000000000000000e+00 2.0822829078144971e+00 7.4363095269355988e+00 3.2606051730932708e+00 
13 1 2 1.6834639278255707e+00 -1.0006114711298591e+04 1.0000000000000000e+00 4.8781620683870832e+00 9.8559181327902419e+00 2.0893844348744754e+00 
2 1 2 1.6837775044865806e+00 -9.2333802891363848e+03 1.0000000000000000e+00 3.1077842232196438e+00 8.4889153550975677e-02 3.4613714020629875e+00 
3 1 2 1.6836376503790249e+00 -8.8895296544482062e+03 1.0000000000000000e+00 2.6833042239416622e+00 2.6749315584203761e+00 6.2464289467851355e+00 
39 1 2 1.6833537535521927e+00 -1.4293480506316921e+04 1.0000000000000000e+00 6.1837015456008286e+00 1.2787381134853419e+00 5.3606532242412523e+00 
44 1 2 1.6830762351454820e+00 -4.3948196326304547e+04 1.0000000000000000e+00 5.0767339707305599e+00 5.4354721283200060e+00 4.8362211537185500e+00 
165 1 2 1.6834936828454261e+00 -9.2294970237712005e+03 1.0000000000000000e+00 4.5359806837798994e-01 9.8669705992707541e+00 5.8883337818451631e+00 
15 1 2 1.6839434872468446e+00 -6.4070784564061742e+03 1.0000000000000000e+00 4.2923491915549956e+00 9.0733464308896625e+00 5.8600005720949850e+00 
4 1 2 1.6835148325670064e+00 -1.8192024103254960e+04 1.0000000000000000e+00 1.8604603225837870e+00 1.5976892389810271e+00 9.8692776081303712e+00 
40 1 2 1.6837834699178265e+00 -6.1687117448879790e+03 1.0000000000000000e+00 5.5962552787526638e+00 1.0021668864429547e+00 9.5620264743855081e+00 
9 1 2 1.6837448361359006e+00 -1.7492266777755147e+04 1.0000000000000000e+00 1.6945093683023555e+00 6.3336461377057631e+00 6.9114016070436275e+00 
10 1 2 1.6837395541280049e+00 -3.7741225961913115e+03 1.0000000000000000e+00 4.8248424067257627e+00 4.6509349112114116e+00 8.6370935616991211e+00 
16 1 2 1.6844173459579808e+00 -1.0430904350287472e+04 1.0000000000000000e+00 3.6154916226048588e+00 8.1762043096679982e+00 9.5629649561123813e+00 
154 1 2 1.6832784556268923e+00 -2.1617457063141999e+04 1.0000000000000000e+00 1.1524632709066487e+00 5.3193133013150788e+00 1.0580563976273188e+01 
5 1 2 1.6838615868355771e+00 -1.2958468217136418e+04 1.0000000000000000e+00 4.2773568177584140e+00 3.4766828610945075e+00 1.2207980512782537e+01 
11 1 2 1.6836722161236775e+00 -2.1386996603051098e+03 1.0000000000000000e+00 3.4031078294572614e+00 6.9917632357766770e+00 1.3264235802464320e+01 
149 1 2 1.6831910341527121e+00 -8.5775142733095399e+03 1.0000000000000000e+00 1.1751287761455615e+00 5.3215093776978750e-01 1.3528895958231535e+01 
12 1 2 1.6844822263589794e+00 -5.5831016459383764e+03 1.0000000000000000e+00 3.9583259004239464e+00 2.5662163567118244e+00 1.5848630284447474e+01 
156 1 2 1.6832937540345274e+00 -2.6147440172911233e+03 1.0000000000000000e+00 7.8171496137266183e-01 4.2810448013123548e+00 1.4249582722731340e+01 
23 1 2 1.6832425473442012e+00 -3.5184295028880656e+03 1.0000000000000000e+00 2.3105422881874906e+00 9.5659993705516992e+00 1.5895238455341094e+01 
59 1 2 1.6837558930968552e+00 -1.7671193893983778e+04 1.0000000000000000e+00 5.7448956730969511e+00 9.8752919939689274e+00 1.4094212212472682e+01 
145 1 2 1.6835724743780545e+00 -5.2449220117573509e+02 1.0000000000000000e+00 8.1318575870498933e-01 3.2313502921825803e+00 1.7978178542133687e+01 
42 1 2 1.6838402016512535e+00 -3.1448480056782632e+03 1.0000000000000000e+00 6.5748757851409501e+00 2.4511232868487426e-01 1.7572755739144217e+01 
1 1 2 1.6841294537591482e+00 -7.3744512274702911e+03 1.0000000000000000e+00 3.8818704978798366e+00 1.8212660787084045e+00 1.9699882142042085e+01 
18 1 2 1.6840808063993353e+00 -4.4257040938829641e+02 1.0000000000000000e+00 3.4315452364328496e+00 6.0239378345644523e+00 1.7125876044378881e+01 
37 1 2 1.6834985259235997e+00 -2.8505628489012952e+03 1.0000000000000000e+00 6.6631385852108647e+00 4.0046163965602162e+00 1.8237040839943411e+01 
19 1 2 1.6840318049676091e+00 -7.2679377731591276e+03 1.0000000000000000e+00 2.1603039260864518e+00 8.5805162544602123e+00 1.9603937571825927e+01 
24 1 2 1.6833538774126720e+00 -4.2297285676153297e+03 1.0000000000000000e+00 5.7265864292944721e+00 8.8642904308800894e+00 1.8204626921753643e+01 
163 1 2 1.6836622442256912e+00 -3.9572168369086107e+03 1.0000000000000000e+00 1.1665719083599380e+00 1.1041336859928643e+01 2.3409267498275828e+00 
169 1 2 1.6833566427766598e+00 -2.1711547858922581e+03 1.0000000000000000e+00 2.2421459612312069e+00 1.4531790577367776e+01 1.2302045425114430e+00 
66 1 2 1.6837325323143757e+00 -1.0568743887715267e+04 1.0000000000000000e+00 6.0601381296972177e+00 1.5910590066712167e+01 1.2686881837095911e+00 
31 1 2 1.6838252941140466e+00 -4.7028485342063805e+03 1.0000000000000000e+00 3.1694162060908120e+00 1.8091403125619788e+01 2.2329333565765488e-01 
67 1 2 1.6834104799906822e+00 -5.9485422428344227e+03 1.0000000000000000e+00 6.4721852514971188e+00 1.9707676466032957e+01 1.5835349916124328e+00 
20 1 2 1.6836898336475210e+00 -1.0078299751789968e+04 1.0000000000000000e+00 3.8911025706589202e+00 1.2644979288833863e+01 4.7166442004084530e+00 
170 1 2 1.6835602717838070e+00 -1.5003692849440897e+04 1.0000000000000000e+00 3.5434237686564202e-01 1.4044379060619480e+01 4.5755734010042604e+00 
26 1 2 1.6835908677993061e+00 -4.2368867659909502e+03 1.0000000000000000e+00 3.6897011416037571e+00 1.6413268292061090e+01 4.2596315963914479e+00 
32 1 2 1.6838920058742919e+00 -6.0566535060186243e+03 1.0000000000000000e+00 1.1592134145694760e-01 1.7707363586265977e+01 3.5773904927267641e+00 
21 1 2 1.6835688589892506e+00 -3.3778327883003229e+04 1.0000000000000000e+00 2.8290902990758169e+00 1.1673881368371285e+01 8.3166146051513845e+00 
27 1 2 1.6832951105883114e+00 -6.1123975830121908e+03 1.0000000000000000e+00 2.2627889726386146e+00 1.5405261983541880e+01 7.7099190877321959e+00 
63 1 2 1.6833329686868024e+00 -2.1568933349665029e+04 1.0000000000000000e+00 5.9205582345402297e+00 1.4175280921310675e+01 7.6963395496254785e+00 
147 1 2 1.6833114952242532e+00 4.8749407613812267e+01 1.0000000000000000e+00 1.5378423319916437e+00 1.9079136228920540e+01 6.9597870606207266e+00 
33 1 2 1.6835636114048418e+00 -7.4271761658859750e+03 1.0000000000000000e+00 5.2302118839567910e+00 1.7982189474999828e+01 7.3540889814770241e+00 
22 1 2 1.6834230852462988e+00 -3.9755704801615633e+04 1.0000000000000000e+00 2.5632580094435968e+00 1.0737247714424001e+01 1.2176901452996974e+01 
58 1 2 1.6833166554783285e+00 -5.6427628144572363e+03 1.0000000000000000e+00 6.0749041696159862e+00 1.1080359156599789e+01 1.0361224823234723e+01 
178 1 2 1.6834721621993813e+00 -7.6216621751025259e+03 1.0000000000000000e+00 2.5653071976322822e-01 1.5243898025975602e+01 1.1082549095583248e+01 
28 1 2 1.6840513659036507e+00 -1.4931818760903864e+03 1.0000000000000000e+00 3.9102054143243405e+00 1.4148213966027580e+01 1.0974583815160935e+01 
34 1 2 1.6831641212563173e+00 -3.0467500703446890e+03 1.0000000000000000e+00 2.9623732814763315e+00 1.7952867805894197e+01 1.0563262678448204e+01 
70 1 2 1.6841538802454294e+00 -7.7450523984424553e+03 1.0000000000000000e+00 6.4974342356360077e+00 1.6860858508095220e+01 1.1531201153978602e+01 
35 1 2 1.6833664417265102e+00 -6.0156671981453619e+03 1.0000000000000000e+00 4.9740278779190650e+00 1.9877396934884455e+01 1.3277772618188148e+01 
65 1 2 1.6842290337634482e+00 -1.3473206951345988e+04 1.0000000000000000e+00 4.2447958411811362e+00 1.2910254080443945e+01 1.5856365251729216e+01 
174 1 2 1.6843557061644536e+00 -2.3940458102490004e+04 1.0000000000000000e+00 8.8148994911483625e-01 1.3448040539464280e+01 1.4392437921317981e+01 
29 1 2 1.6836915780152115e+00 -1.4825031907055559e+03 1.0000000000000000e+00 3.6249786529975587e+00 1.6282176744566204e+01 1.4049603802927468e+01 
6 1 2 1.6844825664888754e+00 -1.0694903955878037e+03 1.0000000000000000e+00 3.0492783127866350e+00 1.9026171301014855e+01 1.6561601406261641e+01 
168 1 2 1.6836556149243871e+00 -2.0299866382854088e+04 1.0000000000000000e+00 1.0598299529306350e+00 1.2027157518209526e+01 1.8565540986618267e+01 
25 1 2 1.6835174264019201e+00 -3.3769009556750948e+03 1.0000000000000000e+00 5.1521154058305152e+00 1.2608747776998413e+01 1.9538328270589517e+01 
30 1 2 1.6838795315794401e+00 -3.7734582265166214e+03 1.0000000000000000e+00 1.9513332971035930e+00 1.5546577353297065e+01 1.7466420712704245e+01 
36 1 2 1.6831405672508828e+00 -3.6164912932444690e+03 1.0000000000000000e+00 5.7499545558347052e+00 1.6174679532218811e+01 1.7369837569265833e+01 
73 1 2 1.6831142093289848e+00 -6.6793657849340510e+04 1.0000000000000000e+00 1.0141951143736319e+01 2.0445440101355996e+00 3.6154282610187283e-01 
79 1 2 1.6830502554345832e+00 -3.0383275605307386e+04 1.0000000000000000e+00 1.3328868153734788e+01 2.3545638972859626e+00 2.6756090967787394e+00 
38 1 2 1.6833313759278312e+00 -1.9258811835873134e+03 1.0000000000000000e+00 7.1064841569502857e+00 3.4146543586681428e+00 2.2669847770429934e+00 
54 1 2 1.6835199571207788e+00 -2.2897424049790567e+04 1.0000000000000000e+00 8.6581835396688760e+00 6.4268774512142901e+00 3.7246873905707456e-01 
43 1 2 1.6843005294534923e+00 -1.4720169217370214e+03 1.0000000000000000e+00 1.2289925414997194e+01 5.2523466022154075e+00 2.6109816342959319e-01 
86 1 2 1.6850594933057070e+00 -3.9615531658559361e+04 1.0000000000000000e+00 1.1531883281133092e+01 8.4113655602941400e+00 2.1608516712409962e+00 
75 1 2 1.6837285719129838e+00 -5.6841758096462927e+03 1.0000000000000000e+00 9.9275350615500138e+00 1.4026962435980057e+00 4.2564110928879186e+00 
117 1 2 1.6833753074331630e+00 -1.0426879660821394e+04 1.0000000000000000e+00 1.3196658129909702e+01 8.6765687623373666e-01 6.2885434383093424e+00 
80 1 2 1.6836448133185051e+00 -3.3164290628623257e+03 1.0000000000000000e+00 1.0331107465434135e+01 5.1260971730176683e+00 3.5865949147629292e+00 
81 1 2 1.6834492861388164e+00 -1.6574459441887560e+04 1.0000000000000000e+00 1.2678308919076573e+01 4.6302283556141388e+00 6.5452965726130454e+00 
50 1 2 1.6831754021442562e+00 -2.6382360465379283e+04 1.0000000000000000e+00 7.8262327608647384e+00 8.1115756094306359e+00 3.7545222024767329e+00 
87 1 2 1.6833074757297004e+00 -5.0196449866743287e+03 1.0000000000000000e+00 1.0768783188676842e+01 7.9891860277060989e+00 6.2388781202705408e+00 
76 1 2 1.6844512352417682e+00 -1.9703807114782518e+04 1.0000000000000000e+00 8.9541958353348257e+00 3.9705610155338250e-01 7.7902504507027723e+00 
82 1 2 1.6834156744051951e+00 -1.8254641474988231e+04 1.0000000000000000e+00 1.1466513245411994e+01 2.3103022516583640e+00 9.9850117748071607e+00 
45 1 2 1.6837864502098374e+00 -6.2197837445509664e+04 1.0000000000000000e+00 8.5718424761285537e+00 3.9955413131632413e+00 6.8012132597538919e+00 
88 1 2 1.6841793973615564e+00 -9.1554177567615461e+03 1.0000000000000000e+00 1.0570786840906994e+01 5.9677294649530195e+00 9.4705116701440488e+00 
93 1 2 1.6840760486978816e+00 -1.0608218723822908e+03 1.0000000000000000e+00 9.4845422906299603e+00 9.5802162069902383e+00 9.6346471217138561e+00 
51 1 2 1.6844032106938707e+00 -4.1942491053886202e+04 1.0000000000000000e+00 7.1825580770936979e+00 7.4003894794331089e+00 7.5534066431896125e+00 
41 1 2 1.6835212293584358e+00 -3.9553355202835432e+04 1.0000000000000000e+00 8.6762056929043769e+00 7.2151252869680743e-02 1.1621994750133357e+01 
46 1 2 1.6836728211578667e+00 -1.3051811266173527e+04 1.0000000000000000e+00 7.9111946455589415e+00 3.7425731310309174e+00 1.0901066665769640e+01 
89 1 2 1.6854470097718810e+00 -1.6242969747139805e+04 1.0000000000000000e+00 9.9177041822124519e+00 6.6889945141184084e+00 1.3156385598789459e+01 
52 1 2 1.6846227785992784e+00 -5.2080715178831497e+03 1.0000000000000000e+00 6.7634950152648257e+00 7.3640351822779744e+00 1.1365886861746304e+01 
94 1 2 1.6843629324735019e+00 -7.3277485862336050e+02 1.0000000000000000e+00 1.2666861860587058e+01 9.7358609261031823e+00 1.1624124253306251e+01 
47 1 2 1.6832003262681030e+00 -4.6093498634986783e+04 1.0000000000000000e+00 7.5626945293068371e+00 2.5036087258535069e+00 1.4525277636863848e+01 
83 1 2 1.6843854415649384e+00 -5.4575816264323505e+04 1.0000000000000000e+00 1.1247509336885807e+01 3.2550943118877123e+00 1.3683831991502055e+01 
53 1 2 1.6833152583621924e+00 -2.4031300046413977e+04 1.0000000000000000e+00 6.7080619432231030e+00 6.2783597126228399e+00 1.5156397794808143e+01 
131 1 2 1.6850180634645162e+00 -1.3341422262202197e+04 1.0000000000000000e+00 1.2682004278547897e+01 8.2208279860112086e+00 1.5078791915122620e+01 
78 1 2 1.6833365121019332e+00 -1.5606702893498255e+03 1.0000000000000000e+00 1.0309068522900724e+01 8.8096978849926277e-01 1.6671240825274008e+01 
48 1 2 1.6835555357497685e+00 -6.5499478027559289e+03 1.0000000000000000e+00 1.0267119269102373e+01 4.6811178433712133e+00 1.7074437822943377e+01 
90 1 2 1.6835586303640881e+00 -2.0706647732609308e+04 1.0000000000000000e+00 9.4682186233333336e+00 8.3793616082767208e+00 1.7138063427882365e+01 
85 1 2 1.6838322598499726e+00 -1.5727260977810925e+04 1.0000000000000000e+00 1.3147408259088660e+01 8.7015821629930894e+00 1.8775777812769711e+01 
49 1 2 1.6833419331069839e+00 -1.1930739072376730e+03 1.0000000000000000e+00 8.5394595450508124e+00 1.0239982842919979e+01 4.6261250625841160e-01 
56 1 2 1.6834390174979150e+00 -2.8011293682413874e+04 1.0000000000000000e+00 7.3019620020740508e+00 1.2756810647405896e+01 3.0547465789604642e+00 
91 1 2 1.6831521899759301e+00 -8.9142890012364907e+04 1.0000000000000000e+00 1.1989218182011124e+01 1.1952954259716178e+01 5.5425007652987812e-01 
61 1 2 1.6836880593050705e+00 -9.3987091444047564e+02 1.0000000000000000e+00 1.0519271788162401e+01 1.4824945176184727e+01 2.7839441412813555e+00 
103 1 2 1.6844084309700360e+00 -1.3765967517187850e+04 1.0000000000000000e+00 1.0043327646548315e+01 1.8481202881248045e+01 1.9194472812583676e+00 
57 1 2 1.6835393878577514e+00 -2.1124594966262161e+04 1.0000000000000000e+00 7.6100442926218275e+00 1.1011602558533005e+01 6.5064029149678442e+00 
92 1 2 1.6851472386656381e+00 -5.8449984759416824e+04 1.0000000000000000e+00 1.0676367451913494e+01 1.1285880751303958e+01 4.2547337129270586e+00 
68 1 2 1.6831400882924945e+00 -2.2879625364704629e+04 1.0000000000000000e+00 7.5571168297069384e+00 1.6247711501315738e+01 4.8129252685919068e+00 
62 1 2 1.6845125839030619e+00 -3.0661865621278092e+04 1.0000000000000000e+00 1.0548664624724841e+01 1.4186422968041674e+01 6.5635105408931738e+00 
104 1 2 1.6834467083446321e+00 -3.3938345369134200e+04 1.0000000000000000e+00 1.0976991766831457e+01 1.7853614984094630e+01 5.5644989412275843e+00 
128 1 2 1.6833589680320176e+00 -3.0548118450257234e+03 1.0000000000000000e+00 1.2574609709269765e+01 1.1372501976730605e+01 8.1705299259963109e+00 
99 1 2 1.6839002822514617e+00 -2.1311631106029421e+04 1.0000000000000000e+00 1.2751787479350286e+01 1.4971935595374191e+01 9.5942929216317321e+00 
69 1 2 1.6846905339731069e+00 -5.6437934756285531e+03 1.0000000000000000e+00 8.6946679664188853e+00 1.6747730098447178e+01 8.5239085361487383e+00 
105 1 2 1.6840827973126786e+00 -1.4145264477076109e+03 1.0000000000000000e+00 1.2001746078737193e+01 1.8612715525849136e+01 9.1791751144132157e+00 
100 1 2 1.6832763388822873e+00 -8.4307203085844758e+03 1.0000000000000000e+00 9.2966572982366209e+00 1.3331895215401490e+01 1.0185803807392686e+01 
101 1 2 1.6832985282195663e+00 -1.1002045829836808e+04 1.0000000000000000e+00 1.2054129639675025e+01 1.3265996900428350e+01 1.3034176254655458e+01 
64 1 2 1.6832461800154594e+00 -1.5313084168694513e+04 1.0000000000000000e+00 7.0092602727500362e+00 1.3498833531671812e+01 1.3284519857611846e+01 
106 1 2 1.6832853466024840e+00 -4.3992102378120835e+03 1.0000000000000000e+00 1.0289465631975604e+01 1.6528560996402604e+01 1.2136890384245753e+01 
77 1 2 1.6843750331761034e+00 -4.5745887438289021e+04 1.0000000000000000e+00 1.2256860349628591e+01 1.9764957433266254e+01 1.2835557228870780e+01 
95 1 2 1.6834669811690481e+00 -3.9421608494467939e+04 1.0000000000000000e+00 9.4567617358131901e+00 1.0490680621654837e+01 1.3526950526835124e+01 
96 1 2 1.6832132922086378e+00 -2.5498781195450960e+04 1.0000000000000000e+00 1.1628274815969764e+01 1.1571674422025835e+01 1.6666055948236046e+01 
102 1 2 1.6837036911657319e+00 -9.8721097170601388e+03 1.0000000000000000e+00 9.7249333157956137e+00 1.4771679053666293e+01 1.5735938495928931e+01 
71 1 2 1.6837302409881967e+00 -1.0117455801573637e+04 1.0000000000000000e+00 8.0270436968886507e+00 1.8097204473117905e+01 1.4818762578601653e+01 
107 1 2 1.6844851722555685e+00 -1.0591652755202742e+04 1.0000000000000000e+00 1.2154135046675801e+01 1.7634776704364203e+01 1.5993718091426357e+01 
60 1 2 1.6846785890983580e+00 -1.7960873977925992e+04 1.0000000000000000e+00 7.7527564522076267e+00 1.1717789802750316e+01 1.6721927823418454e+01 
55 1 2 1.6842387995738350e+00 -6.3350797376239439e+04 1.0000000000000000e+00 8.7793524803897132e+00 1.3946934648025952e+01 1.9510414979720387e+01 
97 1 2 1.6840034108993760e+00 -4.0907494597473619e+03 1.0000000000000000e+00 1.2198360563351217e+01 1.5571002543843644e+01 1.9307760932093167e+01 
72 1 2 1.6843001948625314e+00 -4.1452731793165361e+02 1.0000000000000000e+00 9.1303232460539956e+00 1.7604571909069339e+01 1.8404932026499850e+01 
108 1 2 1.6831267478306648e+00 -1.6298217179198606e+04 1.0000000000000000e+00 1.2822701960218694e+01 1.9388152912681619e+01 1.9380161952880389e+01 
115 1 2 1.6837100745376128e+00 -3.7163080722210334e+03 1.0000000000000000e+00 1.7399533317715420e+01 2.9312705541585800e+00 1.7547324558221373e+00 
151 1 2 1.6836230793796920e+00 -6.9279287158537363e+03 1.0000000000000000e+00 1.9777855666759095e+01 5.7778049157046505e+00 5.9485789493453833e-01 
158 1 2 1.6842615891545223e+00 -1.8362665738641253e+03 1.0000000000000000e+00 1.8325116561606112e+01 8.3867689271061128e+00 3.0210334018294440e+00 
116 1 2 1.6834930559804560e+00 -2.0596669413290524e+03 1.0000000000000000e+00 1.6093007215884711e+01 3.2563979118511126e+00 5.3300211214172029e+00 
146 1 2 1.6841530675749639e+00 -4.1389300235545867e+04 1.0000000000000000e+00 1.9519723007178420e+01 1.2934797464288597e+00 4.5373654575303188e+00 
121 1 2 1.6832534391750371e+00 -5.9663206995710079e+03 1.0000000000000000e+00 1.4359400260082936e+01 6.1058233364618744e+00 3.3972078011386744e+00 
152 1 2 1.6852934568189033e+00 -7.5687678570637709e+03 1.0000000000000000e+00 1.9321744386870463e+01 5.0138083105028111e+00 4.2933858515339907e+00 
122 1 2 1.6834861278037672e+00 -1.1250973047032136e+04 1.0000000000000000e+00 1.4106596839793417e+01 9.5653304312847318e+00 5.1810854430708524e+00 
159 1 2 1.6839706449105281e+00 -1.3205387460355791e+04 1.0000000000000000e+00 1.6793284267782553e+01 6.9622888687671676e+00 6.2596390264994435e+00 
118 1 2 1.6837404198565764e+00 -7.7752885794811791e+03 1.0000000000000000e+00 1.5132599210867705e+01 2.9197493035628015e+00 8.9807452982567728e+00 
111 1 2 1.6835609930424293e+00 -1.5683875190347024e+04 1.0000000000000000e+00 1.7240032465195814e+01 1.2915076742812506e-01 7.3884450312124192e+00 
153 1 2 1.6836589433062492e+00 -2.3030029721123326e+04 1.0000000000000000e+00 1.9204379917194093e+01 3.3759108572522285e+00 7.7494419107229664e+00 
160 1 2 1.6845226689209161e+00 -2.0836161390835896e+03 1.0000000000000000e+00 1.7331298314298810e+01 5.8644662767204983e+00 9.8592242832395840e+00 
123 1 2 1.6836348729728310e+00 -1.1438070528771517e+04 1.0000000000000000e+00 1.3841665087183753e+01 7.6783125460200097e+00 8.5848821376311317e+00 
166 1 2 1.6838734507961841e+00 -1.6693998977701388e+03 1.0000000000000000e+00 1.9850575633890216e+01 8.7304117418335334e+00 9.4372225616728524e+00 
119 1 2 1.6841018432167278e+00 -1.2620311347355553e+03 1.0000000000000000e+00 1.4915630908891616e+01 2.5944820572817973e+00 1.2751676118764005e+01 
155 1 2 1.6833364284295922e+00 -8.6096378134944680e+03 1.0000000000000000e+00 1.8540655641647600e+01 2.6067907785672531e+00 1.1505388577926642e+01 
124 1 2 1.6834903263847758e+00 -1.8367763206763066e+04 1.0000000000000000e+00 1.3542364244042865e+01 6.0208912369351832e+00 1.2012641607567065e+01 
130 1 2 1.6844560194139604e+00 -2.1621266218859670e+04 1.0000000000000000e+00 1.6314834618344129e+01 8.8526100283151283e+00 1.1801589867070954e+01 
17 1 2 1.6835189716783299e+00 -6.6827817662559528e+03 1.0000000000000000e+00 1.9813680662684245e+01 8.2164039094776964e+00 1.3256853492373878e+01 
114 1 2 1.6842508889124594e+00 -1.8317549284662864e+03 1.0000000000000000e+00 1.4199237273285656e+01 7.7685436414560127e-01 1.5977701661812608e+01 
120 1 2 1.6834663973959896e+00 -2.1799141576757866e+03 1.0000000000000000e+00 1.7410151587491463e+01 2.8844751638124784e+00 1.6318018422173125e+01 
125 1 2 1.6831726451901550e+00 -5.7746229850728105e+03 1.0000000000000000e+00 1.4027097446466005e+01 4.7176176275398713e+00 1.5908298654910066e+01 
161 1 2 1.6836219062528646e+00 -7.0688373507561100e+03 1.0000000000000000e+00 1.7111652847117707e+01 5.5863509931833617e+00 1.3667276757278847e+01 
132 1 2 1.6838925862303362e+00 -1.8922746001973152e+04 1.0000000000000000e+00 1.6144620706175207e+01 7.9784947026572555e+00 1.6501405142223511e+01 
84 1 2 1.6848250761065531e+00 -1.1875727668840747e+04 1.0000000000000000e+00 1.4749585450330406e+01 2.7244683323835623e+00 1.9115200672621395e+01 
126 1 2 1.6832162557457868e+00 -3.4883169921725676e+03 1.0000000000000000e+00 1.6031526535392512e+01 6.2678220556652926e+00 1.9947717426024198e+01 
162 1 2 1.6836583643692546e+00 -4.1298083908905610e+03 1.0000000000000000e+00 1.9720311937287157e+01 6.8048890839584733e+00 1.6887387970470495e+01 
157 1 2 1.6836229988848945e+00 -2.3518531254489599e+03 1.0000000000000000e+00 1.8368303894573042e+01 9.3420642327029633e+00 1.9396800298418228e+01 
127 1 2 1.6838855863235311e+00 -7.4938328251518965e+02 1.0000000000000000e+00 1.5257545675683254e+01 1.0135887645807841e+01 1.6469445137507253e+00 
134 1 2 1.6834440475723880e+00 -2.8788743929091517e+04 1.0000000000000000e+00 1.8132733626179931e+01 1.2893911949663259e+01 1.0076567611157896e+00 
74 1 2 1.6834070399266563e+00 -2.5040127195948457e+03 1.0000000000000000e+00 1.3549061464218454e+01 1.7143332889979579e+01 2.7213289344759088e+00 
98 1 2 1.6833149399700080e+00 -9.2146512764061426e+03 1.0000000000000000e+00 1.3926121281010563e+01 1.3237162368533861e+01 3.6543117626911767e+00 
164 1 2 1.6835812378840531e+00 -7.6321047803209149e+03 1.0000000000000000e+00 1.7329536755756269e+01 1.1700543636381541e+01 4.5721633096291567e+00 
176 1 2 1.6834056435580338e+00 -1.4406356276300734e+04 1.0000000000000000e+00 1.6932749718153861e+01 1.5562577182986320e+01 3.6539282536980919e+00 
110 1 2 1.6834315237490165e+00 -3.7625591856299950e+04 1.0000000000000000e+00 1.6128045498306200e+01 1.9730337962104329e+01 3.7455601368769900e+00 
140 1 2 1.6834030296615843e+00 -2.3143747200432041e+04 1.0000000000000000e+00 1.4708379658745201e+01 1.7345977832120433e+01 6.5084817785000189e+00 
129 1 2 1.6840497755595183e+00 -1.7692733121884688e+04 1.0000000000000000e+00 1.6608476827284612e+01 1.0225848622539322e+01 8.1259308478491175e+00 
171 1 2 1.6834316843831454e+00 -5.3594248981475230e+03 1.0000000000000000e+00 1.9203813443264917e+01 1.2988393150780901e+01 8.0826609080933807e+00 
135 1 2 1.6837960898293305e+00 -2.4093096743863003e+04 1.0000000000000000e+00 1.5476647515052029e+01 1.3730005441194844e+01 7.1825200163459000e+00 
177 1 2 1.6835375784505575e+00 -5.0691618366330738e+04 1.0000000000000000e+00 1.8623734658961347e+01 1.6588486555380459e+01 6.9418497507476653e+00 
136 1 2 1.6837978365886241e+00 -1.7133917335677106e+04 1.0000000000000000e+00 1.5238277288900989e+01 1.2456082755982678e+01 1.0890837687089466e+01 
172 1 2 1.6837985793502459e+00 -1.3154836549374288e+04 1.0000000000000000e+00 1.8902509953165001e+01 1.1641661352827622e+01 1.1662103788690793e+01 
142 1 2 1.6838006471010558e+00 -6.8652140271254793e+03 1.0000000000000000e+00 1.4120203876831896e+01 1.6509305457543014e+01 1.2890210254408444e+01 
141 1 2 1.6838338953867513e+00 -4.4808472564453405e+04 1.0000000000000000e+00 1.6651552245524741e+01 1.5910104887957928e+01 1.0111412816271550e+01 
112 1 2 1.6838894709437806e+00 -2.3601939009509217e+04 1.0000000000000000e+00 1.5387916082749003e+01 1.9438671889035074e+01 1.0644025434163856e+01 
148 1 2 1.6831617677142965e+00 -1.4649254092350040e+04 1.0000000000000000e+00 1.9188106438914566e+01 1.8894666045637273e+01 1.0528452019581964e+01 
137 1 2 1.6837491667195699e+00 -2.4352883361974535e+04 1.0000000000000000e+00 1.5007105544342119e+01 1.1165260562350570e+01 1.4489945876938911e+01 
167 1 2 1.6835247191998661e+00 -9.0307060938240356e+03 1.0000000000000000e+00 1.8588546938232142e+01 1.0812089392044978e+01 1.5838919904148028e+01 
138 1 2 1.6842549379839693e+00 -1.9545157994600628e+04 1.0000000000000000e+00 1.4103350785787914e+01 1.4452071706153902e+01 1.6142969169779111e+01 
179 1 2 1.6833980671226616e+00 -1.3518599642307723e+04 1.0000000000000000e+00 1.7167895496236032e+01 1.4383373506558934e+01 1.3676020387476042e+01 
143 1 2 1.6836172450783582e+00 -1.3524593948137210e+04 1.0000000000000000e+00 1.6192633777374688e+01 1.7570464932471094e+01 1.6651364523685682e+01 
113 1 2 1.6836863961417039e+00 -2.3942521337735202e+03 1.0000000000000000e+00 1.7361356345628970e+01 1.9864213684823461e+01 1.3876864004689127e+01 
180 1 2 1.6836138501342555e+00 -9.4427978474898136e+03 1.0000000000000000e+00 1.9843836326856856e+01 1.7068855407185211e+01 1.4539341456151625e+01 
133 1 2 1.6837596839836946e+00 -8.4451265952911290e+03 1.0000000000000000e+00 1.5564207198197719e+01 1.1694394768230213e+01 1.8246800571348100e+01 
139 1 2 1.6841936684977465e+00 -1.0684572522461798e+04 1.0000000000000000e+00 1.5859885071496365e+01 1.5722593908175593e+01 1.9974514257702594e+01 
173 1 2 1.6833581217697891e+00 -1.6675084229251348e+04 1.0000000000000000e+00 1.8282240383827165e+01 1.4368390198555359e+01 1.7316521546332066e+01 
109 1 2 1.6833970583188078e+00 -4.5309992828559101e+04 1.0000000000000000e+00 1.6638317605139374e+01 1.9534835352823844e+01 1.9952798669710702e+01 
144 1 2 1.6837588802837582e+00 -2.5604104112896777e+04 1.0000000000000000e+00 1.9455045904586147e+01 1.6932197181352656e+01 1.9939901868313274e+01 
150 1 2 1.6834782834755466e+00 -1.6247606716656069e+03 1.0000000000000000e+00 1.9353582390052978e+01 1.9711694412784112e+01 1.7232768503930487e+01 

Velocities

175 -3.7936761590531422e-02 1.3918454122680005e-01 -1.8037771678189909e-04
8 -3.3180810243011697e-03 -6.7825975735858302e-02 -1.4058424635954699e-02
7 -8.0707997107639387e-02 8.0601371530849800e-02 1.3100021460014263e-02
14 1.0273256957159331e-01 -2.9898779960638867e-02 6.1351208429600158e-02
13 1.6005867575405766e-01 -8.6082128577686275e-03 7.1067948336825795e-02
2 -1.3563759592405228e-01 2.5861786110577167e-02 -8.2049364529276816e-02
3 5.5332489442950418e-02 -1.9405229342967828e-01 -2.2598539393521237e-02
39 3.4253035310168175e-03 2.7923859331493502e-02 -3.6500449675047224e-02
44 -8.8620103483077459e-02 -2.1199618593479411e-02 1.6031345027091502e-02
165 -9.4665742911583684e-03 9.9672670511306460e-02 -5.3705890474431001e-02
15 -9.6473550516888110e-03 -1.2113417214478175e-01 9.4551917338288993e-02
4 9.3284325457124409e-02 -2.8139612393907960e-02 -4.1901489294562291e-02
40 2.8629450165002176e-02 4.2106550048933523e-02 -1.1368487335924651e-01
9 8.9424784595470347e-02 -8.7722400654991595e-02 9.3230245936002532e-03
10 -5.5879766891030079e-03 -7.2483858757997538e-02 -1.0166464148125945e-01
16 3.0375659663061307e-02 1.8459801638775076e-04 -5.6721195097922124e-02
154 7.8877625407758389e-02 9.9111025005276590e-02 6.1456133175445682e-02
5 2.6874302420758684e-02 5.1640145273525229e-02 1.6170580636682575e-02
11 -7.0934083100123918e-02 1.9860626945526497e-02 6.6966202862791924e-02
149 -8.8211756749429202e-02 9.4989677351843146e-02 -4.2285453553316484e-02
12 -4.7646551011733533e-02 -4.1262943121092167e-02 4.1611379380632883e-02
156 -9.6572474190480290e-02 -6.6461270809781592e-02 1.2139906842490651e-01
23 -8.2755991267106262e-03 -5.0810169802815346e-03 -3.3829964363885523e-02
59 -5.7173838234942979e-02 -2.5665811869209191e-02 5.5577022147765553e-02
145 1.3886735785986948e-01 -9.0952883278994395e-02 4.3646809706295843e-02
42 7.1993179264242924e-02 -1.4943710127788884e-01 -9.8800328930560483e-02
1 1.3657554978640915e-01 1.7519459215114191e-02 -6.7556812373918376e-02
18 -2.6872482192261187e-03 5.8819611094354345e-02 2.7692994977455344e-02
37 -7.9890229745447669e-02 3.2988260107390560e-02 2.7033910819908486e-02
19 2.1162632613497864e-02 1.0783224426791827e-02 4.6068208237026412e-02
24 -3.6149479803658034e-02 -1.0621519412370248e-03 -1.0956544439538066e-01
163 -8.2597727719445166e-02 1.1017681077472744e-01 -6.8947132550907578e-03
169 1.8663766367957510e-02 7.4251658670584997e-03 4.9005388548045382e-03
66 1.1239804415797625e-02 -1.3166586949390121e-02 3.3752883167463534e-02
31 -4.2877210715566091e-02 -1.1147694144751041e-01 -7.2412951088590416e-02
67 2.5823064644166206e-02 7.3423114102020889e-02 -4.2117502275806983e-02
20 -3.5008483227958044e-03 -2.2325341193344776e-02 1.3611379336098305e-02
170 -7.2703694278263051e-02 7.7907839133041007e-03 -1.0826534336909838e-01
26 -2.2019750858765928e-02 -5.3294350318708827e-02 6.2906799280257233e-02
32 -4.6567220521820156e-02 1.2634726786856126e-01 3.4768159946734684e-02
21 1.1835125451783873e-01 2.8491398245705200e-02 -1.2138205253842201e-01
27 -1.2093323528881235e-02 3.2693376876615603e-02 9.1188846410477489e-02