LAMMPS data file via write_data, version 30 Jul 2016, timestep = 50000000

180 atoms
2 atom types

0.0000000000000000e+00 2.0000000000000000e+01 xlo xhi
0.0000000000000000e+00 2.0000000000000000e+01 ylo yhi
0.0000000000000000e+00 2.0000000000000000e+01 zlo zhi

Masses

1 3.896
2 50

Atoms # meso-molecular

175 1 2 1.6832385232905724e+00 -2.6059398285038278e+03 1.0000000000000000e+00 3.0050710860911489e-01 6.1755153429126330e-01 8.2129914699234940e-01 
8 1 2 1.6839126559831690e+00 -1.0924367722539258e+04 1.0000000000000000e+00 2.4397737166722497e+00 3.7125478469145348e+00 2.5764871880929396e+00 
7 1 2 1.6833057938699427e+00 -1.2079671402031701e+02 1.0000000000000000e+00 4.8368667363910021e+00 6.1672261758147107e+00 8.3544358776370542e-01 
14 1 2 1.6837268766306843e+00 -1.6829047391415479e+03 1.0000000000000000e+00 2.0791934866878292e+00 7.4409922003887772e+00 3.2377798603120262e+00 
13 1 2 1.6833643038250403e+00 -1.0009111485471914e+04 1.0000000000000000e+00 4.8785005292401031e+00 9.8478698632884321e+00 2.0902229653977074e+00 
2 1 2 1.6838458243720928e+00 -9.2312747541007702e+03 1.0000000000000000e+00 3.0999753209108829e+00 8.2443320915661783e-02 3.4925320333066603e+00 
3 1 2 1.6836413945539312e+00 -8.8892710213235168e+03 1.0000000000000000e+00 2.7420256508401786e+00 2.6689625124958116e+00 6.2666587103539086e+00 
39 1 2 1.6834232093850323e+00 -1.4291038638375991e+04 1.0000000000000000e+00 6.2043712395091717e+00 1.2195038990491607e+00 5.3445650891146181e+00 
44 1 2 1.6831381727185877e+00 -4.3945717632421234e+04 1.0000000000000000e+00 5.0881857754070996e+00 5.4352304771407498e+00 4.8808698343474104e+00 
165 1 2 1.6835990261926168e+00 -9.2266099667829003e+03 1.0000000000000000e+00 4.7534699439915179e-01 9.8829175575010808e+00 5.8527514726834236e+00 
15 1 2 1.6838210039280812e+00 -6.4098488149954837e+03 1.0000000000000000e+00 4.3020966985588442e+00 9.0836374708621221e+00 5.8500609909157584e+00 
4 1 2 1.6836864469914687e+00 -1.8185905285143879e+04 1.0000000000000000e+00 1.8506380800392310e+00 1.5801840088924672e+00 9.8492435155060942e+00 
40 1 2 1.6837460857428745e+00 -6.1710107056704237e+03 1.0000000000000000e+00 5.5701266433744303e+00 9.5661402527730588e-01 9.5827361186210602e+00 
9 1 2 1.6837025059926012e+00 -1.7493431373988009e+04 1.0000000000000000e+00 1.7479269877659858e+00 6.3192288466103523e+00 6.8951394006589215e+00 
10 1 2 1.6837198849665269e+00 -3.7745211295733911e+03 1.0000000000000000e+00 4.8735941107142358e+00 4.6341682471985264e+00 8.6844850158466631e+00 
16 1 2 1.6844416886743552e+00 -1.0431502111272654e+04 1.0000000000000000e+00 3.6578837144373990e+00 8.1721297012934162e+00 9.5458312785073058e+00 
154 1 2 1.6832710277721272e+00 -2.1617948816657557e+04 1.0000000000000000e+00 1.2342290477217657e+00 5.2894973662058842e+00 1.0553043984692783e+01 
5 1 2 1.6839430797768706e+00 -1.2955842805840786e+04 1.0000000000000000e+00 4.2487480554339108e+00 3.4312410002691487e+00 1.2216975488788307e+01 
11 1 2 1.6836538386545015e+00 -2.1400569051799553e+03 1.0000000000000000e+00 3.4355938514016056e+00 6.9559444111988569e+00 1.3291800780254666e+01 
149 1 2 1.6831836436474406e+00 -8.5780730851996068e+03 1.0000000000000000e+00 1.1772179809481533e+00 4.8089661674096290e-01 1.3511173528398015e+01 
12 1 2 1.6849559045635822e+00 -5.5700975964515437e+03 1.0000000000000000e+00 3.9149292087750118e+00 2.5617629472248225e+00 1.5863272790098424e+01 
156 1 2 1.6832444238488866e+00 -2.6158631317121208e+03 1.0000000000000000e+00 8.0887123121685656e-01 4.2358230012619211e+00 1.4218213011827673e+01 
23 1 2 1.6832371112632929e+00 -3.5188604798403567e+03 1.0000000000000000e+00 2.3082387990477149e+00 9.5889512602588116e+00 1.5859701613993151e+01 
59 1 2 1.6837585481511015e+00 -1.7670556558316621e+04 1.0000000000000000e+00 5.7338447569174296e+00 9.8731971317552247e+00 1.4078267108274026e+01 
145 1 2 1.6837385822203874e+00 -5.1945548814552137e+02 1.0000000000000000e+00 7.8368201100222046e-01 3.2274238438388299e+00 1.7958126762956304e+01 
42 1 2 1.6837730526563381e+00 -3.1464187537851717e+03 1.0000000000000000e+00 6.5451268571764540e+00 2.1327758825132470e-01 1.7574477837129464e+01 
1 1 2 1.6840550435709067e+00 -7.3750558403119576e+03 1.0000000000000000e+00 3.8178929814383538e+00 1.7780893369955157e+00 1.9671817579903848e+01 
18 1 2 1.6842086967214573e+00 -4.4009261806970335e+02 1.0000000000000000e+00 3.4309328520666416e+00 6.0146012924413741e+00 1.7124108148080648e+01 
37 1 2 1.6835459298778628e+00 -2.8485917441816887e+03 1.0000000000000000e+00 6.6275808361195354e+00 3.9584347757326226e+00 1.8230075500944601e+01 
19 1 2 1.6839880004698065e+00 -7.2697777186743106e+03 1.0000000000000000e+00 2.1507518008498323e+00 8.5809529136992300e+00 1.9580319430944218e+01 
24 1 2 1.6834745754901026e+00 -4.2256572511649683e+03 1.0000000000000000e+00 5.7447260820628641e+00 8.8395549064464607e+00 1.8177602230016998e+01 
163 1 2 1.6837866945596240e+00 -3.9537946616097297e+03 1.0000000000000000e+00 1.1607861758357643e+00 1.1021443495933783e+01 2.3194083881274135e+00 
169 1 2 1.6835016236304137e+00 -2.1663108877158752e+03 1.0000000000000000e+00 2.2330950519244737e+00 1.4511138998051338e+01 1.2006690374025690e+00 
66 1 2 1.6837571103369220e+00 -1.0569297252951401e+04 1.0000000000000000e+00 6.1212673281722605e+00 1.5968428011534066e+01 1.2139431615154397e+00 
31 1 2 1.6838687525171487e+00 -4.7014786201216430e+03 1.0000000000000000e+00 3.1358065710606668e+00 1.8060379872258824e+01 2.5244434233743646e-01 
67 1 2 1.6834181686858090e+00 -5.9482762409072493e+03 1.0000000000000000e+00 6.4457605558329494e+00 1.9750053590044196e+01 1.5790320343872704e+00 
20 1 2 1.6837552888881488e+00 -1.0076651156858801e+04 1.0000000000000000e+00 3.8951707122330794e+00 1.2642963722987533e+01 4.6761984608556872e+00 
170 1 2 1.6835440112219606e+00 -1.5004611821318675e+04 1.0000000000000000e+00 3.7032476598470321e-01 1.4055594562169391e+01 4.5571726436252931e+00 
26 1 2 1.6835959753378806e+00 -4.2371942237656267e+03 1.0000000000000000e+00 3.6936395729272120e+00 1.6397469557311034e+01 4.1901310751769207e+00 
32 1 2 1.6837969289883357e+00 -6.0599911356404355e+03 1.0000000000000000e+00 1.1392474871969180e-01 1.7712191102613879e+01 3.5521302274928344e+00 
21 1 2 1.6834195590897767e+00 -3.3783176153827146e+04 1.0000000000000000e+00 2.8329140035669442e+00 1.1688367235302746e+01 8.2966221768438899e+00 
27 1 2 1.6833137110073924e+00 -6.1123016456050991e+03 1.0000000000000000e+00 2.2301807263679887e+00 1.5419976834315984e+01 7.6829714367954782e+00 
63 1 2 1.6833042199802231e+00 -2.1569977946277930e+04 1.0000000000000000e+00 5.9003712557760108e+00 1.4188277150617404e+01 7.6954972087110631e+00 
147 1 2 1.6834034695866844e+00 5.1879073851692482e+01 1.0000000000000000e+00 1.5159533648701666e+00 1.9076720042726354e+01 6.9627078477510667e+00 
33 1 2 1.6835483045660442e+00 -7.4269833144496124e+03 1.0000000000000000e+00 5.2017596327319495e+00 1.7983160054429487e+01 7.3097746743181329e+00 
22 1 2 1.6834602096242339e+00 -3.9754151429282618e+04 1.0000000000000000e+00 2.5813536812593711e+00 1.0773363026761817e+01 1.2150432112430499e+01 
58 1 2 1.6833197890879292e+00 -5.6420863315727274e+03 1.0000000000000000e+00 6.0672987458511516e+00 1.1077089598856883e+01 1.0348908422611411e+01 
178 1 2 1.6834489243800337e+00 -7.6224496675867558e+03 1.0000000000000000e+00 2.6468932688699581e-01 1.5246040999342481e+01 1.1067838908043321e+01 
28 1 2 1.6840123656211274e+00 -1.4949620524040840e+03 1.0000000000000000e+00 3.9193750650522019e+00 1.4166322830966410e+01 1.0986952369542335e+01 
34 1 2 1.6831293569502179e+00 -3.0485639682594010e+03 1.0000000000000000e+00 2.9702164716149748e+00 1.7964400287162331e+01 1.0528350879256143e+01 
70 1 2 1.6841078559955411e+00 -7.7457930836205451e+03 1.0000000000000000e+00 6.5053518760787359e+00 1.6866639094363563e+01 1.1565527172925400e+01 
35 1 2 1.6834020674277892e+00 -6.0152361022234427e+03 1.0000000000000000e+00 5.0006905512952962e+00 1.9860435763371228e+01 1.3332224841057691e+01 
65 1 2 1.6841698589253444e+00 -1.3473593668626832e+04 1.0000000000000000e+00 4.2689241702502772e+00 1.2928741515383727e+01 1.5859637843199604e+01 
174 1 2 1.6841452808290591e+00 -2.3945420870401496e+04 1.0000000000000000e+00 8.6621719141460540e-01 1.3411895177023025e+01 1.4393819159903416e+01 
29 1 2 1.6836492169789341e+00 -1.4829870302186687e+03 1.0000000000000000e+00 3.6152926522130739e+00 1.6313300241798650e+01 1.4048443126699958e+01 
6 1 2 1.6846380892573960e+00 -1.0659282348332338e+03 1.0000000000000000e+00 3.0185729017618761e+00 1.9049439532879028e+01 1.6596874187790732e+01 
168 1 2 1.6836661752080646e+00 -2.0299123737283709e+04 1.0000000000000000e+00 1.0332842819201324e+00 1.2033552534923384e+01 1.8521919090907527e+01 
25 1 2 1.6834708619632486e+00 -3.3784682763435517e+03 1.0000000000000000e+00 5.1589488524416645e+00 1.2608201066486350e+01 1.9524361729919292e+01 
30 1 2 1.6838886137204279e+00 -3.7737152510352444e+03 1.0000000000000000e+00 1.9561695670190860e+00 1.5544485721582300e+01 1.7452118675489110e+01 
36 1 2 1.6831976928557648e+00 -3.6139996487117464e+03 1.0000000000000000e+00 5.7433141838926600e+00 1.6217656247482292e+01 1.7315526145937362e+01 
73 1 2 1.6831244156475549e+00 -6.6793642094582683e+04 1.0000000000000000e+00 1.0091735726492553e+01 2.0643515451394374e+00 3.6577279803843854e-01 
38 1 2 1.6834012403070020e+00 -1.9229891137622674e+03 1.0000000000000000e+00 7.1083176451408097e+00 3.4419548842069645e+00 2.3222300109219223e+00 
54 1 2 1.6835115372248664e+00 -2.2898256000094716e+04 1.0000000000000000e+00 8.6565105349477118e+00 6.3823274113666688e+00 3.4831758440458715e-01 
43 1 2 1.6844126720003607e+00 -1.4693009797309912e+03 1.0000000000000000e+00 1.2288185534348328e+01 5.2478694344786119e+00 2.5655564283259624e-01 
86 1 2 1.6851013582621073e+00 -3.9614463926266581e+04 1.0000000000000000e+00 1.1548536012639444e+01 8.4031206744844269e+00 2.1566163368599374e+00 
75 1 2 1.6837456942175708e+00 -5.6836183900952929e+03 1.0000000000000000e+00 9.9478006808075410e+00 1.4257230145360058e+00 4.2745857945573693e+00 
117 1 2 1.6833974325949430e+00 -1.0425964862052770e+04 1.0000000000000000e+00 1.3219443102308377e+01 8.9390376410834960e-01 6.3183798062743897e+00 
80 1 2 1.6837498506551747e+00 -3.3134122789207690e+03 1.0000000000000000e+00 1.0350559283257841e+01 5.1208858510415549e+00 3.5830377497382644e+00 
81 1 2 1.6834942388455150e+00 -1.6573516527074793e+04 1.0000000000000000e+00 1.2669677947728273e+01 4.6451632124306395e+00 6.5599176269517372e+00 
50 1 2 1.6831436314875796e+00 -2.6383878243646821e+04 1.0000000000000000e+00 7.8455148091828608e+00 8.1200418798560339e+00 3.7716633841494680e+00 
87 1 2 1.6833786917090192e+00 -5.0174355280744558e+03 1.0000000000000000e+00 1.0781792225956131e+01 8.0044516570401605e+00 6.2327401461566536e+00 
76 1 2 1.6843469726965024e+00 -1.9706741076554979e+04 1.0000000000000000e+00 8.9728594198553431e+00 4.2058698298731084e-01 7.8050619755438841e+00 
45 1 2 1.6838303144502609e+00 -6.2197656523663529e+04 1.0000000000000000e+00 8.5395471127784646e+00 4.0153100439260268e+00 6.7835450725544373e+00 
88 1 2 1.6838734442508969e+00 -9.1648839143525165e+03 1.0000000000000000e+00 1.0581633480040441e+01 5.9841526987235074e+00 9.4675791171963262e+00 
93 1 2 1.6839997305261496e+00 -1.0629337830852878e+03 1.0000000000000000e+00 9.4906000798785275e+00 9.6219373555252279e+00 9.6009015583291788e+00 
51 1 2 1.6843847989160419e+00 -4.1943328035582323e+04 1.0000000000000000e+00 7.2027941870078083e+00 7.4114458177043652e+00 7.5659238570116107e+00 
41 1 2 1.6836463953845511e+00 -3.9548798126480448e+04 1.0000000000000000e+00 8.6673752177428085e+00 5.2620984154994332e-02 1.1616808992727945e+01 
82 1 2 1.6833945412112470e+00 -1.8255413093356194e+04 1.0000000000000000e+00 1.1480362857985554e+01 2.3314880709694972e+00 1.0004102179764265e+01 
46 1 2 1.6833989243729135e+00 -1.3060436288078330e+04 1.0000000000000000e+00 7.9119049198376308e+00 3.7266733570462218e+00 1.0943309847566070e+01 
89 1 2 1.6854274296275316e+00 -1.6244022449500575e+04 1.0000000000000000e+00 9.9334206566685150e+00 6.6514999700394632e+00 1.3185193455010117e+01 
52 1 2 1.6845607158580747e+00 -5.2095999794103700e+03 1.0000000000000000e+00 6.7800940481141696e+00 7.3784635267417755e+00 1.1372623546043519e+01 
94 1 2 1.6842592009659381e+00 -7.3560902664321929e+02 1.0000000000000000e+00 1.2671774040545435e+01 9.7508998620053973e+00 1.1614630969984034e+01 
47 1 2 1.6832034394652733e+00 -4.6093587109692075e+04 1.0000000000000000e+00 7.5202392253090453e+00 2.5638446267068828e+00 1.4597330303502041e+01 
83 1 2 1.6845990678094265e+00 -5.4571346031057263e+04 1.0000000000000000e+00 1.1211922914848511e+01 3.2213532355199170e+00 1.3724044662436246e+01 
53 1 2 1.6833458589323931e+00 -2.4029999479983067e+04 1.0000000000000000e+00 6.7475051615410795e+00 6.3288510698510212e+00 1.5231617994197332e+01 
131 1 2 1.6851543875554675e+00 -1.3337584953738680e+04 1.0000000000000000e+00 1.2664082927579150e+01 8.2591780793454603e+00 1.5086314585752911e+01 
78 1 2 1.6833726254866057e+00 -1.5598081549115216e+03 1.0000000000000000e+00 1.0278303859465730e+01 8.4672028769058794e-01 1.6698455053301579e+01 
48 1 2 1.6835482884170467e+00 -6.5501812083951872e+03 1.0000000000000000e+00 1.0228324089980642e+01 4.6651545951644247e+00 1.7109973990744177e+01 
90 1 2 1.6836176057046657e+00 -2.0703710159556049e+04 1.0000000000000000e+00 9.4705743621600043e+00 8.3746844194074690e+00 1.7174067407024214e+01 
85 1 2 1.6838806541257751e+00 -1.5726698437083443e+04 1.0000000000000000e+00 1.3160063926430336e+01 8.6923703359709847e+00 1.8785224214876528e+01 
49 1 2 1.6833287492034241e+00 -1.1936700222118172e+03 1.0000000000000000e+00 8.5088041975676791e+00 1.0199382749641984e+01 4.7394205240885912e-01 
56 1 2 1.6834099564939307e+00 -2.8012540141535337e+04 1.0000000000000000e+00 7.3015553978975500e+00 1.2779755613853812e+01 3.0196866231891994e+00 
91 1 2 1.6831646893908461e+00 -8.9141783668570410e+04 1.0000000000000000e+00 1.1993555042602095e+01 1.1942125354972720e+01 5.8517523407037841e-01 
61 1 2 1.6836728852230414e+00 -9.4033339764863547e+02 1.0000000000000000e+00 1.0543420701393837e+01 1.4834897892577009e+01 2.8144272649241233e+00 
103 1 2 1.6843201284050744e+00 -1.3768467321981325e+04 1.0000000000000000e+00 1.0019278551522968e+01 1.8490745823660511e+01 1.9357723837351131e+00 
57 1 2 1.6835296838981484e+00 -2.1124863205850215e+04 1.0000000000000000e+00 7.6145999959777857e+00 1.1037886468892481e+01 6.4836510877255620e+00 
92 1 2 1.6850399018812769e+00 -5.8451201040472159e+04 1.0000000000000000e+00 1.0649755081010239e+01 1.1280584591773881e+01 4.2371241415088825e+00 
68 1 2 1.6831466931043726e+00 -2.2879305173286324e+04 1.0000000000000000e+00 7.5362001389722222e+00 1.6246198532761515e+01 4.8044195957822895e+00 
62 1 2 1.6842107190449813e+00 -3.0669446443561879e+04 1.0000000000000000e+00 1.0547776646247904e+01 1.4165131723324777e+01 6.5984865518246050e+00 
104 1 2 1.6833515536890349e+00 -3.3942353058003580e+04 1.0000000000000000e+00 1.0959348782443664e+01 1.7862280673906856e+01 5.5647590610878650e+00 
128 1 2 1.6834373255510617e+00 -3.0524189903760666e+03 1.0000000000000000e+00 1.2606689611798341e+01 1.1358506710715062e+01 8.1552524848123156e+00 
99 1 2 1.6838854255916604e+00 -2.1312904261929605e+04 1.0000000000000000e+00 1.2766632476406938e+01 1.4962895986015100e+01 9.6180648499436057e+00 
69 1 2 1.6844532239751315e+00 -5.6495844037077686e+03 1.0000000000000000e+00 8.6709411819549516e+00 1.6762023462633181e+01 8.5173667574360952e+00 
105 1 2 1.6840403232162835e+00 -1.4159841506582350e+03 1.0000000000000000e+00 1.2014703448835940e+01 1.8609845301183729e+01 9.1650336620203738e+00 
101 1 2 1.6832255106852956e+00 -1.1005058909299169e+04 1.0000000000000000e+00 1.2040695535982058e+01 1.3267709794866001e+01 1.3061834471767613e+01 
100 1 2 1.6833415416810487e+00 -8.4281773356968988e+03 1.0000000000000000e+00 9.2452037630481865e+00 1.3370528824081504e+01 1.0179391026268666e+01 
64 1 2 1.6833074030667925e+00 -1.5310953371788186e+04 1.0000000000000000e+00 7.0232195359520402e+00 1.3467267856313132e+01 1.3297306628376594e+01 
106 1 2 1.6833519117454641e+00 -4.3965573267650734e+03 1.0000000000000000e+00 1.0303448887989333e+01 1.6552539343376569e+01 1.2112962172275060e+01 
77 1 2 1.6844126459963282e+00 -4.5744296983171720e+04 1.0000000000000000e+00 1.2250548746469185e+01 1.9765904799052713e+01 1.2813222651339554e+01 
95 1 2 1.6834163676806901e+00 -3.9423730683496477e+04 1.0000000000000000e+00 9.4838421958142352e+00 1.0454293810254674e+01 1.3546085400373450e+01 
102 1 2 1.6838601096337840e+00 -9.8672304058667178e+03 1.0000000000000000e+00 9.6982278313271344e+00 1.4762394699857799e+01 1.5764686777491045e+01 
71 1 2 1.6837856191549241e+00 -1.0115166207840193e+04 1.0000000000000000e+00 8.0912391758004105e+00 1.8096667418441264e+01 1.4828183955017565e+01 
107 1 2 1.6844252250653595e+00 -1.0594313779443552e+04 1.0000000000000000e+00 1.2110615253777238e+01 1.7626210897620183e+01 1.5991761239573211e+01 
60 1 2 1.6846526820349625e+00 -1.7960806802865409e+04 1.0000000000000000e+00 7.7398583157824579e+00 1.1700709872094409e+01 1.6730355167264499e+01 
96 1 2 1.6832079637546982e+00 -2.5498945524254130e+04 1.0000000000000000e+00 1.1624202492955156e+01 1.1589550855138183e+01 1.6727577295776676e+01 
55 1 2 1.6842136849671743e+00 -6.3350359356918132e+04 1.0000000000000000e+00 8.7979086598322223e+00 1.3905340804440062e+01 1.9555032461462083e+01 
97 1 2 1.6840790976023545e+00 -4.0895598067113019e+03 1.0000000000000000e+00 1.2184687620883304e+01 1.5571652928914512e+01 1.9329576617112483e+01 
72 1 2 1.6843461407826354e+00 -4.1304773292825854e+02 1.0000000000000000e+00 9.1156506531388040e+00 1.7568926096904448e+01 1.8432007245623122e+01 
108 1 2 1.6830820647597478e+00 -1.6300446990624903e+04 1.0000000000000000e+00 1.2781217625565114e+01 1.9400773774737104e+01 1.9400085568900373e+01 
79 1 2 1.6830324128165548e+00 -3.0383736721204139e+04 1.0000000000000000e+00 1.3382509713862767e+01 2.3662992440267754e+00 2.7132004490851953e+00 
115 1 2 1.6836920018297548e+00 -3.7178456378254991e+03 1.0000000000000000e+00 1.7390230677884624e+01 2.9456296871438026e+00 1.7488068000122465e+00 
151 1 2 1.6836074136008019e+00 -6.9298248451863346e+03 1.0000000000000000e+00 1.9780923961502378e+01 5.7728617674417002e+00 5.6359893829506980e-01 
158 1 2 1.6840142240879419e+00 -1.8434046673806447e+03 1.0000000000000000e+00 1.8323566669811690e+01 8.3984917004328210e+00 3.0152982032673887e+00 
116 1 2 1.6834486537727764e+00 -2.0607850093085553e+03 1.0000000000000000e+00 1.6123109885013168e+01 3.2484172452314564e+00 5.3652829335723524e+00 
146 1 2 1.6840483465720300e+00 -4.1393223625904910e+04 1.0000000000000000e+00 1.9547310506771332e+01 1.3090356691029503e+00 4.5257894166132271e+00 
121 1 2 1.6832210982910776e+00 -5.9675423486876198e+03 1.0000000000000000e+00 1.4376546214105389e+01 6.0835842666343991e+00 3.3934563179077659e+00 
152 1 2 1.6852195516213684e+00 -7.5710827371113201e+03 1.0000000000000000e+00 1.9326424216114440e+01 5.0241083120006333e+00 4.2850974679691527e+00 
122 1 2 1.6835769400548175e+00 -1.1248718569187000e+04 1.0000000000000000e+00 1.4106476471653355e+01 9.5475166029643912e+00 5.1687369063360959e+00 
159 1 2 1.6840045308531124e+00 -1.3203929290277507e+04 1.0000000000000000e+00 1.6792583951106618e+01 6.9623631985944039e+00 6.2500610690404415e+00 
118 1 2 1.6837095030164761e+00 -7.7763304074439593e+03 1.0000000000000000e+00 1.5128683429527031e+01 2.9412425278375705e+00 9.0196557597122222e+00 
111 1 2 1.6834524912805240e+00 -1.5688320211544016e+04 1.0000000000000000e+00 1.7281542884658386e+01 1.4626711440223689e-01 7.4164581290027485e+00 
153 1 2 1.6836725764799143e+00 -2.3029429034946974e+04 1.0000000000000000e+00 1.9244511316469470e+01 3.4143581516809105e+00 7.7298248043096152e+00 
160 1 2 1.6843716830845239e+00 -2.0874965147189728e+03 1.0000000000000000e+00 1.7356564226884071e+01 5.8866222511001354e+00 9.8491922042927484e+00 
123 1 2 1.6836476808601142e+00 -1.1438590304053871e+04 1.0000000000000000e+00 1.3883741720299581e+01 7.6575840819346537e+00 8.6192881429512571e+00 
166 1 2 1.6837260043265312e+00 -1.6743469451780225e+03 1.0000000000000000e+00 1.9892218472245897e+01 8.7102468717439567e+00 9.3919183190404780e+00 
119 1 2 1.6841836592741384e+00 -1.2606189927237394e+03 1.0000000000000000e+00 1.4883672873763341e+01 2.5955796075524527e+00 1.2781937648183224e+01 
155 1 2 1.6832332371255663e+00 -8.6142515753759308e+03 1.0000000000000000e+00 1.8527578488395260e+01 2.6106848843550456e+00 1.1485931791740972e+01 
124 1 2 1.6835526805775216e+00 -1.8366664649680675e+04 1.0000000000000000e+00 1.3580517094305435e+01 6.0357302652806446e+00 1.2056850242882474e+01 
130 1 2 1.6842579872766135e+00 -2.1626511961788121e+04 1.0000000000000000e+00 1.6328061504966485e+01 8.8499230491704370e+00 1.1850581747224599e+01 
17 1 2 1.6834632223118307e+00 -6.6843626486911389e+03 1.0000000000000000e+00 1.9853013069618992e+01 8.2082261520504733e+00 1.3224663263277428e+01 
114 1 2 1.6842610415717882e+00 -1.8328383983724843e+03 1.0000000000000000e+00 1.4142487821116642e+01 7.8191206561390092e-01 1.5994654945754213e+01 
120 1 2 1.6836105253981091e+00 -2.1756060546530175e+03 1.0000000000000000e+00 1.7358189147230210e+01 2.8939507141841174e+00 1.6336218689782974e+01 
125 1 2 1.6831641805044841e+00 -5.7754873275586815e+03 1.0000000000000000e+00 1.3970906519119037e+01 4.7639974145024970e+00 1.5922885922139574e+01 
161 1 2 1.6836001895990838e+00 -7.0701781468455501e+03 1.0000000000000000e+00 1.7147323693877023e+01 5.5532259352243356e+00 1.3671234428915700e+01 
132 1 2 1.6839553434228995e+00 -1.8920841419035791e+04 1.0000000000000000e+00 1.6131076866740845e+01 7.9551329936854733e+00 1.6476302667859947e+01 
84 1 2 1.6849834776212667e+00 -1.1872028720920938e+04 1.0000000000000000e+00 1.4750232609109135e+01 2.7250502714345872e+00 1.9113577633929680e+01 
126 1 2 1.6832326362852816e+00 -3.4879374359303088e+03 1.0000000000000000e+00 1.6045799507723121e+01 6.2568730964624493e+00 1.9936892628807662e+01 
162 1 2 1.6835617497944293e+00 -4.1333217665760549e+03 1.0000000000000000e+00 1.9712041306820723e+01 6.8015585212459531e+00 1.6832789577231374e+01 
157 1 2 1.6835261278449845e+00 -2.3539131163449779e+03 1.0000000000000000e+00 1.8366751782151383e+01 9.3379517033642649e+00 1.9351133641441717e+01 
127 1 2 1.6838467833355781e+00 -7.5008436468344519e+02 1.0000000000000000e+00 1.5261890612862855e+01 1.0176194659826711e+01 1.6503285602499298e+00 
134 1 2 1.6833786295408779e+00 -2.8790957316121352e+04 1.0000000000000000e+00 1.8135120532667329e+01 1.2892544106941980e+01 9.7416965142244705e-01 
74 1 2 1.6834174917564035e+00 -2.5038388183833172e+03 1.0000000000000000e+00 1.3545841026448796e+01 1.7181433638680861e+01 2.7092508818353132e+00 
98 1 2 1.6833530293990082e+00 -9.2126747229711691e+03 1.0000000000000000e+00 1.3913359080386110e+01 1.3228059752779275e+01 3.6632982355773107e+00 
164 1 2 1.6835269585915336e+00 -7.6345443941448002e+03 1.0000000000000000e+00 1.7336158540955299e+01 1.1720424564458170e+01 4.5813832134173840e+00 
176 1 2 1.6833891807627968e+00 -1.4407408622768780e+04 1.0000000000000000e+00 1.6914825467875595e+01 1.5575040090041350e+01 3.6755461331847461e+00 
110 1 2 1.6834440235773831e+00 -3.7624842861239988e+04 1.0000000000000000e+00 1.6123947295452012e+01 1.9756848271066161e+01 3.7552826213063231e+00 
140 1 2 1.6833369300492407e+00 -2.3145410858413394e+04 1.0000000000000000e+00 1.4705313950967538e+01 1.7380944017576990e+01 6.4881297178563999e+00 
129 1 2 1.6839232978194767e+00 -1.7697141211278748e+04 1.0000000000000000e+00 1.6620659067088351e+01 1.0228916625067232e+01 8.1277159598517645e+00 
171 1 2 1.6834520764875727e+00 -5.3586625983627655e+03 1.0000000000000000e+00 1.9215228595833434e+01 1.2988057177837259e+01 8.0559977502881779e+00 
135 1 2 1.6836779996623485e+00 -2.4096759287802077e+04 1.0000000000000000e+00 1.5477919331019089e+01 1.3747783133038480e+01 7.1781452167671560e+00 
177 1 2 1.6835649027377340e+00 -5.0691023644889319e+04 1.0000000000000000e+00 1.8597078835500962e+01 1.6590650348146191e+01 6.9343989754290707e+00 
136 1 2 1.6839097096175684e+00 -1.7130807045409467e+04 1.0000000000000000e+00 1.5252684516126831e+01 1.2460437211615540e+01 1.0897887646076558e+01 
172 1 2 1.6837810389280532e+00 -1.3155434678138879e+04 1.0000000000000000e+00 1.8914990037950282e+01 1.1634359891377288e+01 1.1635512413514714e+01 
142 1 2 1.6837765705229646e+00 -6.8669199077229241e+03 1.0000000000000000e+00 1.4163433676719146e+01 1.6520911224149909e+01 1.2913820624858682e+01 
141 1 2 1.6838662377785059e+00 -4.4807308400682683e+04 1.0000000000000000e+00 1.6648516463871704e+01 1.5918944786334192e+01 1.0125269473302303e+01 
112 1 2 1.6839307697788755e+00 -2.3600761454736217e+04 1.0000000000000000e+00 1.5382839605957560e+01 1.9455863656458547e+01 1.0634287657178877e+01 
148 1 2 1.6832010761605356e+00 -1.4647573610592424e+04 1.0000000000000000e+00 1.9174807804927259e+01 1.8873605204758803e+01 1.0557691610759615e+01 
137 1 2 1.6839893816418467e+00 -2.4345386645338087e+04 1.0000000000000000e+00 1.4986167949953609e+01 1.1182802862899090e+01 1.4500380696231908e+01 
167 1 2 1.6836307215219133e+00 -9.0277927163852837e+03 1.0000000000000000e+00 1.8573662689716912e+01 1.0776356592822317e+01 1.5801104246086934e+01 
138 1 2 1.6843531413233310e+00 -1.9542415643832865e+04 1.0000000000000000e+00 1.4110026228856370e+01 1.4456495726429393e+01 1.6142273763334885e+01 
179 1 2 1.6835284438238256e+00 -1.3513380250405311e+04 1.0000000000000000e+00 1.7172456467621910e+01 1.4345710578453303e+01 1.3656937620348417e+01 
143 1 2 1.6836254644253310e+00 -1.3525398329147854e+04 1.0000000000000000e+00 1.6190012810330131e+01 1.7562083353755128e+01 1.6635979458688023e+01 
113 1 2 1.6836287215812682e+00 -2.3963402458102287e+03 1.0000000000000000e+00 1.7344283182679369e+01 1.9882677096706420e+01 1.3883858950242885e+01 
180 1 2 1.6834706032908409e+00 -9.4472124781524199e+03 1.0000000000000000e+00 1.9811961473158060e+01 1.7037623719411226e+01 1.4506310819122586e+01 
133 1 2 1.6838475203008481e+00 -8.4415061199999545e+03 1.0000000000000000e+00 1.5588640084181202e+01 1.1701545290926488e+01 1.8225007308388122e+01 
139 1 2 1.6841859805407200e+00 -1.0685009096543914e+04 1.0000000000000000e+00 1.5846100250213789e+01 1.5728782653073017e+01 1.9983506218077604e+01 
173 1 2 1.6833783255731898e+00 -1.6674327630408468e+04 1.0000000000000000e+00 1.8247838466589112e+01 1.4360043683239383e+01 1.7311822531372830e+01 
109 1 2 1.6833584718922534e+00 -4.5311997583628778e+04 1.0000000000000000e+00 1.6626506254740104e+01 1.9527262390033030e+01 1.9985611606067554e+01 
144 1 2 1.6837655762719148e+00 -2.5603731988872791e+04 1.0000000000000000e+00 1.9439408497660153e+01 1.6919967154503077e+01 1.9911391026547211e+01 
150 1 2 1.6834301764483217e+00 -1.6264704689774064e+03 1.0000000000000000e+00 1.9328118130060986e+01 1.9724437744462698e+01 1.7220073038315928e+01 

Velocities

175 -7.2121901527467974e-02 -1.6007450459651984e-01 -2.9277293952266241e-02
8 -5.7131799282401649e-03 -1.6507614493644798e-01 -6.5319157915745638e-03
7 3.0665874022298829e-02 -1.4267973973339815e-01 7.7986725463357595e-02
14 9.5602525287970516e-02 -2.9119698477734497e-02 -2.6404728495183848e-02
13 7.8687341785777923e-02 -1.2597329661273674e-02 -4.6322597320825609e-02
2 4.7028323517444508e-02 4.4533716845528593e-02 -5.3039784789000372e-02
3 1.6794605429045115e-01 -1.9266017598327891e-02 9.6322889358113062e-02
39 2.3586218425148756e-02 7.2933643631632253e-02 -6.7352176761131741e-02
44 -1.3108714826302223e-01 7.8098468360542780e-02 9.1549587934301790e-02
165 5.7607678908879405e-02 -2.7506037975370146e-02 7.2465978855126484e-02
15 -8.5621791846698256e-02 1.7710192553911999e-02 5.8900145097485257e-02
4 -6.0632127527089512e-02 -4.6939751689802439e-02 1.4943306389117101e-02
40 -9.9137852494906711e-02 5.2706460078824978e-02 -6.5952498204787185e-02
9 1.4077160184368016e-02 -1.2881049523881152e-02 -5.7107791074858284e-02
10 -1.1850144355483115e-01 -5.3863543380689161e-03 9.5361104231831195e-02
16 -4.2029326047708121e-02 1.9186648438882650e-02 1.2209271555565667e-03
154 8.6769326845529252e-02 3.5357587602216772e-02 -5.1047084651554955e-02
5 2.8717714369046417e-02 8.6582144860709642e-02 -3.1852527968989998e-02
11 -6.9658846024880816e-02 4.3121554589702765e-02 4.2062592962576924e-02
149 -2.5353725806384050e-02 1.4290742719949592e-01 1.7610798081191506e-01
12 2.1899604849295498e-02 1.1607624964343220e-02 5.2389447765311931e-02
156 3.9525662789365028e-02 7.1707406635910562e-02 7.6961698420931835e-03
23 5.8667942947041904e-02 -7.7371221338077653e-02 -9.4766616056908920e-02
59 -9.2362061209452090e-03 -9.0163565017131811e-02 -7.5745628210528951e-02
145 2.8310078357565667e-04 4.2271993199160494e-02 5.4696220466897656e-02
42 3.2377150590577816e-02 1.0662669031484113e-03 2.6130209910716677e-02
1 -1.9328839439055334e-02 -4.4210326344558681e-02 -9.6231508974346514e-02
18 3.7367930937608700e-02 4.5003970274313465e-02 -9.4519935946160510e-02
37 -4.7123893446126400e-02 -2.9158312827901451e-02 -4.3293592123553479e-02
19 3.4731061800519228e-02 -5.2352376916604756e-02 -3.7445236682008429e-02
24 5.0825594221165178e-02 -2.5526862381097477e-02 1.7068250604759475e-01
163 5.0868643647007487e-02 6.0013496669976144e-02 -4.2012732881800796e-02
169 3.5954026313779074e-04 6.9075199783882657e-02 2.2617444695301005e-02
66 -2.4562383697939137e-02 -1.4956017593011248e-02 3.5874022646087883e-02
31 -7.1962689335012256e-03 -1.2754621358304430e-01 1.1379928101339117e-01
67 -4.7792993292714213e-02 -5.7332087632657805e-02 -5.8278914430412394e-02
20 2.5263920012192603e-02 -6.3307364598991306e-02 -4.8901894328021401e-03
170 6.0851402059104772e-03 -1.2307046192160744e-02 4.9171228691745304e-03
26 5.1680328949255762e-02 1.6407752606878820e-01 9.2574556709290462e-02
32 5.9637482027373540e-02 -1.2595894161851953e-01 1.3347565008910555e-02
21 -4.4414453389202052e-02 -2.2233907027877697e-02 -3.3009583473729107e-02
27 1.2110825158423089e-02 2.0012743323671998e-02 3.4507656238131484e-03