LAMMPS data file via write_data, version 30 Jul 2016, timestep = 1600000

5479 atoms
8 atom types

3.1322227514085739e+01 6.8677772485948537e+01 xlo xhi
3.1322227514085739e+01 6.8677772485948537e+01 ylo yhi
1.8793336508452470e+02 4.1206663491564353e+02 zlo zhi

Masses

1 3.72
2 3.72
3 3.72
4 3.72
5 3.72
6 3.72
7 3.72
8 3.72

Atoms # meso-molecular

3989 91 2 1.0016969655595276e+00 7.3999336086220941e-08 1.0000000000000000e+00 4.1612525054008138e+01 3.1931111528216434e+01 1.8809603232527169e+02 
3980 91 2 1.0016969655595276e+00 3.9601691536914302e-01 1.0000000000000000e+00 4.2642094242671931e+01 3.3627260201734437e+01 1.8834716369223958e+02 
3981 91 2 1.0016969655595276e+00 3.7001106997172259e-08 1.0000000000000000e+00 4.0980395659183174e+01 3.4686508380241143e+01 1.8800547507080907e+02 
1631 38 2 1.0016969655595276e+00 1.2571615291942642e-06 1.0000000000000000e+00 3.8207625991429914e+01 3.7706040455015312e+01 1.8907657754618094e+02 
1628 38 2 1.0016969655595276e+00 2.3374691255925886e-01 1.0000000000000000e+00 3.9780214460010484e+01 3.6662862472961116e+01 1.8841419909934342e+02 
1626 38 2 1.0016969655595276e+00 6.2858087915449594e-07 1.0000000000000000e+00 3.5618789977623514e+01 3.8267320246701225e+01 1.8808516789838660e+02 
1639 38 2 1.0016969655595276e+00 -3.7767796299249196e-03 1.0000000000000000e+00 4.1499460181655927e+01 3.8781694941977385e+01 1.8915900989373876e+02 
1671 39 2 1.0016969655595276e+00 9.8578101415819352e-04 1.0000000000000000e+00 6.0344590419741131e+01 3.9125094398203323e+01 1.8830060003755585e+02 
1659 39 2 1.0016969655595276e+00 4.3681244719517803e-01 1.0000000000000000e+00 6.3033977237644621e+01 3.8270161451798231e+01 1.8849109465987834e+02 
1657 39 2 1.0016969655595276e+00 1.1807973762281686e-01 1.0000000000000000e+00 6.4802612081282533e+01 3.9190387802801254e+01 1.8864956943089510e+02 
1634 38 2 1.0016969655595276e+00 1.2571621643556136e-06 1.0000000000000000e+00 3.7338035699268964e+01 4.0386152715717493e+01 1.8882997869278196e+02 
1630 38 2 1.0016969655595276e+00 1.2571664784664794e-06 1.0000000000000000e+00 3.8910624167849534e+01 3.9342974733663290e+01 1.8816760024594441e+02 
1668 39 2 1.0016969655595276e+00 2.0752591739351588e-07 1.0000000000000000e+00 6.2113225263379043e+01 4.0045320749206354e+01 1.8845907480857261e+02 
1641 38 2 1.0016969655595276e+00 2.2079857819723450e-02 1.0000000000000000e+00 4.0629869889494984e+01 4.1461807202679552e+01 1.8891241104033978e+02 
1683 39 2 1.0016969655595276e+00 3.7186112788801455e-02 1.0000000000000000e+00 5.9423838445475560e+01 4.0900253695611447e+01 1.8826858018625012e+02 
1680 39 2 1.0016969655595276e+00 2.0752585084994239e-07 1.0000000000000000e+00 6.1192473289113465e+01 4.1820480046614477e+01 1.8842705495726685e+02 
1664 39 2 1.0016969655595276e+00 2.0753438650465173e-07 1.0000000000000000e+00 6.3881860107016955e+01 4.0965547100209378e+01 1.8861754957958934e+02 
1661 39 2 1.0016969655595276e+00 5.6471387471513279e-01 1.0000000000000000e+00 6.5650494950654860e+01 4.1885773451212408e+01 1.8877602435060609e+02 
1676 39 2 1.0016969655595276e+00 2.0753366407286258e-07 1.0000000000000000e+00 6.2961108132751384e+01 4.2740706397617508e+01 1.8858552972828360e+02 
1687 39 2 1.0016969655595276e+00 1.0376382778344782e-07 1.0000000000000000e+00 6.0271721314847902e+01 4.3595639344022608e+01 1.8839503510596111e+02 
1685 39 2 1.0016969655595276e+00 1.6165231061485547e-01 1.0000000000000000e+00 6.2040356158485814e+01 4.4515865695025632e+01 1.8855350987697784e+02 
1673 39 2 1.0016969655595276e+00 1.4296174821230323e-02 1.0000000000000000e+00 6.4729742976389289e+01 4.3660932748620539e+01 1.8874400449930036e+02 
853 19 3 1.0016969655595276e+00 1.5762523641570614e-01 1.0000000000000000e+00 5.5676162898694692e+01 4.9987548993854311e+01 1.8926133591444702e+02 
1707 40 2 1.0016969655595276e+00 9.6775814608925427e-08 1.0000000000000000e+00 6.7437343319146848e+01 4.8987225902485783e+01 1.8912047678906868e+02 
1711 40 2 1.0016969655595276e+00 1.9355132538262529e-07 1.0000000000000000e+00 3.2293090664885071e+01 5.0337403489858296e+01 1.8798592543751096e+02 
1712 40 2 1.0016969655595276e+00 9.6774556246847340e-08 1.0000000000000000e+00 3.4156850901651197e+01 5.0749388416519189e+01 1.8858314080942304e+02 
1699 40 2 1.0016969655595276e+00 1.9356814476498372e-07 1.0000000000000000e+00 3.1656208232203142e+01 5.2054978219409286e+01 1.8878861953581546e+02 
5471 121 3 1.0016969655595276e+00 1.4421974269047571e+00 1.0000000000000000e+00 5.2037885294256810e+01 5.1556504929697780e+01 1.8843664493348987e+02 
1698 40 2 1.0016969655595276e+00 1.9355250838258895e-07 1.0000000000000000e+00 6.7147992967299828e+01 5.1642993292748393e+01 1.8819140416390337e+02 
1691 40 2 1.0016969655595276e+00 7.0966212845632703e-02 1.0000000000000000e+00 6.6511110534617885e+01 5.3360568022299397e+01 1.8899409826220784e+02 
670 15 3 1.0016969655595276e+00 1.5913081776374178e+00 1.0000000000000000e+00 3.6187901312025573e+01 5.7560040628390453e+01 1.8884169453106674e+02 
3369 77 3 1.0016969655595276e+00 1.4372717714554919e+00 1.0000000000000000e+00 5.7247020820680746e+01 6.0191777415595247e+01 1.8871190401592452e+02 
4000 91 2 1.0016969655595276e+00 1.1396248816603800e+00 1.0000000000000000e+00 4.2244654448833103e+01 6.6531259648054515e+01 1.8818658957973432e+02 
1808 42 3 1.0016969655595276e+00 1.3362658768758049e+00 1.0000000000000000e+00 3.1618933103543164e+01 6.8485587299152741e+01 1.8896672205562840e+02 
3988 91 2 1.0016969655595276e+00 1.2026735488840218e-01 1.0000000000000000e+00 4.3274223637496902e+01 6.8227408321572540e+01 1.8843772094670223e+02 
3992 91 2 1.0016969655595276e+00 -1.6203255523198450e-02 1.0000000000000000e+00 4.1189742481540584e+01 3.1898355248167110e+01 1.9005056089321781e+02 
3993 91 2 1.0016969655595276e+00 3.9554816608501048e-01 1.0000000000000000e+00 3.9528043898051827e+01 3.2957603426673820e+01 1.8970887227178730e+02 
3384 77 1 1.0016969655595276e+00 1.6409589441041956e+00 1.0000000000000000e+00 4.4167497483888170e+01 3.2939174011843761e+01 1.9054741884697424e+02 
5458 121 3 1.0016969655595276e+00 6.6088208179138741e-01 1.0000000000000000e+00 4.2171590146819099e+01 3.4940702185806593e+01 1.8981831356636053e+02 
1632 38 2 1.0016969655595276e+00 6.2857546574441961e-07 1.0000000000000000e+00 3.7504627815010288e+01 3.6069106176367342e+01 1.8998555484641750e+02 
4811 108 3 1.0016969655595276e+00 3.0051693839704763e-01 1.0000000000000000e+00 5.6249783885478656e+01 3.5852799094471578e+01 1.9057994979733087e+02 
1640 38 2 1.0016969655595276e+00 6.1772201879929689e-01 1.0000000000000000e+00 4.0796462005236300e+01 3.7144760663329414e+01 1.9006798719397531e+02 
1635 38 2 1.0016969655595276e+00 1.2571841243833104e-06 1.0000000000000000e+00 3.6635037522849338e+01 3.8749218437069523e+01 1.8973895599301849e+02 
1672 39 2 1.0016969655595276e+00 1.0376305079953421e-07 1.0000000000000000e+00 6.0189198682636210e+01 3.9080452131458259e+01 1.9029405444541649e+02 
1660 39 2 1.0016969655595276e+00 1.1698583210715234e-01 1.0000000000000000e+00 6.2878585500539693e+01 3.8225519185053166e+01 1.9048454906773901e+02 
1911 44 3 1.0016969655595276e+00 6.5879181940455145e-01 1.0000000000000000e+00 6.8597584592565312e+01 3.8914585699008249e+01 1.9060140882889741e+02 
1638 38 2 1.0016969655595276e+00 1.3045830298807218e-02 1.0000000000000000e+00 3.5062449054268761e+01 3.9792396419123719e+01 1.9040133443985607e+02 
1642 38 2 1.0016969655595276e+00 1.2571668538293136e-06 1.0000000000000000e+00 3.9926871713075357e+01 3.9824872924031581e+01 1.8982138834057633e+02 
1669 39 2 1.0016969655595276e+00 2.0752943016065510e-07 1.0000000000000000e+00 6.1957833526274122e+01 4.0000678482461289e+01 1.9045252921643325e+02 
1637 38 2 1.0016969655595276e+00 7.0271093208010915e-01 1.0000000000000000e+00 3.5765447230688387e+01 4.1429330697771690e+01 1.8949235713961949e+02 
1646 38 2 1.0016969655595276e+00 1.2571897932794177e-06 1.0000000000000000e+00 3.8354283244494773e+01 4.0868050906085791e+01 1.9048376678741388e+02 
1684 39 2 1.0016969655595276e+00 2.5228050076663809e-02 1.0000000000000000e+00 5.9268446708370639e+01 4.0855611428866389e+01 1.9026203459411076e+02 
1681 39 2 1.0016969655595276e+00 2.0753234554953310e-07 1.0000000000000000e+00 6.1037081552008551e+01 4.1775837779869420e+01 1.9042050936512751e+02 
1645 38 2 1.0016969655595276e+00 1.4278890752769974e-01 1.0000000000000000e+00 3.9057281420914407e+01 4.2504985184733762e+01 1.8957478948717730e+02 
1677 39 2 1.0016969655595276e+00 2.0753150447621861e-07 1.0000000000000000e+00 6.2805716395646463e+01 4.2696064130872450e+01 1.9057898413614424e+02 
3315 76 3 1.0016969655595276e+00 6.5310213196323130e-01 1.0000000000000000e+00 5.6247185976763895e+01 4.3977412309424615e+01 1.8953601492044857e+02 
1688 39 2 1.0016969655595276e+00 3.4586712559842775e-02 1.0000000000000000e+00 6.0116329577742981e+01 4.3550997077277550e+01 1.9038848951382181e+02 
1686 39 2 1.0016969655595276e+00 1.0377169257414236e-07 1.0000000000000000e+00 6.1884964421380893e+01 4.4471223428280574e+01 1.9054696428483854e+02 
2901 66 3 1.0016969655595276e+00 5.4621429749052974e-01 1.0000000000000000e+00 5.9396930353730177e+01 4.6845855324198013e+01 1.9059742113939407e+02 
1708 40 2 1.0016969655595276e+00 9.6775805854470201e-08 1.0000000000000000e+00 3.1945558584050165e+01 4.9399210829146675e+01 1.8971769216098076e+02 
1695 40 2 1.0016969655595276e+00 9.6775740117256573e-08 1.0000000000000000e+00 6.6800460886464904e+01 5.0704800632036779e+01 1.8992317088737317e+02 
1696 40 2 1.0016969655595276e+00 2.5922707282688989e-01 1.0000000000000000e+00 6.8664221123231030e+01 5.1116785558697671e+01 1.9052038625928523e+02 
1700 40 2 1.0016969655595276e+00 9.3808307883881045e-03 1.0000000000000000e+00 3.3519968468969260e+01 5.2466963146070171e+01 1.8938583490772751e+02 
1692 40 2 1.0016969655595276e+00 3.7983124237460708e-01 1.0000000000000000e+00 6.8374870771384010e+01 5.3772552948960289e+01 1.8959131363411993e+02 
2299 52 3 1.0016969655595276e+00 1.1014263574093890e+00 1.0000000000000000e+00 3.3637085608532274e+01 6.2294031013916459e+01 1.8971881916553332e+02 
685 15 1 1.0016969655595276e+00 9.3805171606740756e-01 1.0000000000000000e+00 3.1436015606819399e+01 6.3911076574629085e+01 1.8957825887670944e+02 
3972 90 3 1.0016969655595276e+00 5.5089123360824821e-01 1.0000000000000000e+00 6.2065991054681646e+01 6.5435854406208065e+01 1.9023476530908937e+02 
1689 39 3 1.0016969655595276e+00 1.1703137324400739e+00 1.0000000000000000e+00 5.3050369875602861e+01 6.6484614479507030e+01 1.8971317223654867e+02 
1813 42 3 1.0016969655595276e+00 1.3347834415824043e+00 1.0000000000000000e+00 6.3992185384888892e+01 6.6728971010334988e+01 1.9049367272114455e+02 
4005 91 2 1.0016969655595276e+00 5.4467754046790204e-02 1.0000000000000000e+00 3.8498474709388034e+01 6.8616999725018616e+01 1.8945774090481942e+02 
4004 91 2 1.0016969655595276e+00 3.6999727900739703e-08 1.0000000000000000e+00 4.0160173292876792e+01 6.7557751546511909e+01 1.8979942952624990e+02 
692 15 3 1.0016969655595276e+00 1.5713594217214327e-01 1.0000000000000000e+00 4.8659778046565414e+01 6.8613389695990364e+01 1.9050591601340000e+02 
11 0 1 1.0016969655595276e+00 1.1371849353292207e+00 1.0000000000000000e+00 6.7305815329329150e+01 3.4380650119127147e+01 1.9104313806674008e+02 
1644 38 2 1.0016969655595276e+00 1.1981390742912074e-02 1.0000000000000000e+00 3.8520875360236111e+01 3.6551004366735640e+01 1.9163934294104942e+02 
1636 38 2 1.0016969655595276e+00 3.2228436757104723e-01 1.0000000000000000e+00 3.5932039346429718e+01 3.7112284158421545e+01 1.9064793329325508e+02 
660 15 3 1.0016969655595276e+00 3.0713758355127918e-01 1.0000000000000000e+00 6.0994826707119437e+01 3.6962476707832856e+01 1.9134266059811785e+02 
1647 38 2 1.0016969655595276e+00 1.2571622307505057e-06 1.0000000000000000e+00 3.7651285068075154e+01 3.9231116627437814e+01 1.9139274408765044e+02 
1643 38 2 1.0016969655595276e+00 1.2571734581660082e-06 1.0000000000000000e+00 3.9223873536655724e+01 3.8187938645383610e+01 1.9073036564081286e+02 
1658 39 2 1.0016969655595276e+00 1.2487251080141287e-01 1.0000000000000000e+00 6.4647220344177612e+01 3.9145745536056197e+01 1.9064302383875574e+02 
1651 38 2 1.0016969655595276e+00 -6.2977218041729488e-03 1.0000000000000000e+00 4.0943119258301174e+01 4.0306771114399872e+01 1.9147517643520825e+02 
1649 38 2 1.0016969655595276e+00 9.6515551766267471e-03 1.0000000000000000e+00 3.6781694775914204e+01 4.1911228888139988e+01 1.9114614523425141e+02 
1665 39 2 1.0016969655595276e+00 2.0752843800493106e-07 1.0000000000000000e+00 6.3726468369912034e+01 4.0920904833464327e+01 1.9061100398745000e+02 
1662 39 2 1.0016969655595276e+00 4.8658976136307930e-02 1.0000000000000000e+00 6.5495103213549939e+01 4.1841131184467358e+01 1.9076947875846673e+02 
4096 93 1 1.0016969655595276e+00 4.3307358935265228e-01 1.0000000000000000e+00 4.8928367621744322e+01 4.3535663380932888e+01 1.9145252501319894e+02 
1674 39 2 1.0016969655595276e+00 1.4627731020022176e-02 1.0000000000000000e+00 6.4574351239284383e+01 4.3616290481875474e+01 1.9073745890716100e+02 
2534 59 2 1.0016969655595276e+00 9.0749161860624520e-08 1.0000000000000000e+00 4.3396370578910947e+01 5.4413826020928177e+01 1.9094309026071073e+02 
2546 59 2 1.0016969655595276e+00 6.7793058493322800e-01 1.0000000000000000e+00 4.6178471772034975e+01 5.4923481480948311e+01 1.9095590678939180e+02 
4049 92 3 1.0016969655595276e+00 1.1043326368002609e-01 1.0000000000000000e+00 5.3765687413995728e+01 5.4250698104511685e+01 1.9134830790869358e+02 
3225 74 3 1.0016969655595276e+00 5.3875339740236383e-01 1.0000000000000000e+00 3.2039030544688515e+01 5.7396574100955824e+01 1.9164932982602056e+02 
2524 59 2 1.0016969655595276e+00 3.6701311731918838e-02 1.0000000000000000e+00 4.2792493452350207e+01 5.7686038677162799e+01 1.9190639537803648e+02 
2536 59 2 1.0016969655595276e+00 2.9059472510337124e-03 1.0000000000000000e+00 4.4347418482301180e+01 5.7074108182149793e+01 1.9080741893579571e+02 
2540 59 2 1.0016969655595276e+00 2.2249954705004635e-01 1.0000000000000000e+00 4.5574594645474235e+01 5.8195694137182933e+01 1.9191921190671752e+02 
570 13 3 1.0016969655595276e+00 5.7765368338148315e-01 1.0000000000000000e+00 3.6146497806332810e+01 6.2316404851300106e+01 1.9070875681011506e+02 
4766 107 1 1.0016969655595276e+00 1.5345622743971208e+00 1.0000000000000000e+00 4.7764052473905309e+01 6.2322832772246443e+01 1.9081563628474632e+02 
4770 107 3 1.0016969655595276e+00 3.9686873864891847e-01 1.0000000000000000e+00 4.6433425708517220e+01 6.7864919245235953e+01 1.9148115164716864e+02 
4833 108 3 1.0016969655595276e+00 5.5916234192784608e-01 1.0000000000000000e+00 4.9368968599826950e+01 3.3391932856419210e+01 1.9309766031097578e+02 
4143 94 3 1.0016969655595276e+00 1.1096135637370064e+00 1.0000000000000000e+00 4.0450519298731990e+01 3.6024102417560620e+01 1.9265566138884699e+02 
3322 76 3 1.0016969655595276e+00 1.3288904827086261e+00 1.0000000000000000e+00 5.2528151818201934e+01 3.5433079728347941e+01 1.9260530490210110e+02 
1648 38 2 1.0016969655595276e+00 3.6443706656465058e-01 1.0000000000000000e+00 3.6948286891655528e+01 3.7594182348789843e+01 1.9230172138788697e+02 
1652 38 2 1.0016969655595276e+00 1.0876270435861876e-01 1.0000000000000000e+00 4.0240121081881547e+01 3.8669836835751909e+01 1.9238415373544481e+02 
3922 89 3 1.0016969655595276e+00 1.3674225445687613e-01 1.0000000000000000e+00 5.1716577109261017e+01 3.8178044790191599e+01 1.9219705304338129e+02 
1650 38 2 1.0016969655595276e+00 5.8199284033262255e-01 1.0000000000000000e+00 3.6078696599494577e+01 4.0274294609492017e+01 1.9205512253448796e+02 
1654 38 2 1.0016969655595276e+00 7.0139921837787472e-02 1.0000000000000000e+00 3.8667532613300978e+01 3.9713014817806112e+01 1.9304653218228233e+02 
1670 39 2 1.0016969655595276e+00 1.0376404027789927e-07 1.0000000000000000e+00 6.1802441789169208e+01 3.9956036215716239e+01 1.9244598362429389e+02 
1653 38 2 1.0016969655595276e+00 6.2858594444109690e-07 1.0000000000000000e+00 3.9370530789720597e+01 4.1349949096454083e+01 1.9213755488204578e+02 
1682 39 2 1.0016969655595276e+00 -1.4780179732195822e-01 1.0000000000000000e+00 6.0881689814903631e+01 4.1731195513124362e+01 1.9241396377298815e+02 
1666 39 2 1.0016969655595276e+00 1.0376077177196251e-07 1.0000000000000000e+00 6.3571076632807113e+01 4.0876262566719269e+01 1.9260445839531062e+02 
1678 39 2 1.0016969655595276e+00 -8.3579032071497791e-02 1.0000000000000000e+00 6.2650324658541543e+01 4.2651421864127393e+01 1.9257243854400488e+02 
3424 78 3 1.0016969655595276e+00 1.2488511715071413e+00 1.0000000000000000e+00 5.5087797662720568e+01 4.5347550640163973e+01 1.9215525775769524e+02 
2535 59 2 1.0016969655595276e+00 9.0749114513846334e-08 1.0000000000000000e+00 4.3672498838693777e+01 5.2875129814739701e+01 1.9219055455654760e+02 
2547 59 2 1.0016969655595276e+00 1.0090072771586070e-01 1.0000000000000000e+00 4.6454600031817805e+01 5.3384785274759842e+01 1.9220337108522864e+02 
2522 59 2 1.0016969655595276e+00 9.0749282140457271e-08 1.0000000000000000e+00 4.1841445548959975e+01 5.5025756515941190e+01 1.9204206670295150e+02 
2525 59 2 1.0016969655595276e+00 1.8149847013969052e-07 1.0000000000000000e+00 4.3068621712133037e+01 5.6147342470974330e+01 1.9315385967387337e+02 
2537 59 2 1.0016969655595276e+00 1.8150147348158979e-07 1.0000000000000000e+00 4.4623546742084002e+01 5.5535411975961324e+01 1.9205488323163257e+02 
2541 59 2 1.0016969655595276e+00 1.8149855408326654e-07 1.0000000000000000e+00 4.5850722905257065e+01 5.6656997930994464e+01 1.9316667620255438e+02 
2548 59 2 1.0016969655595276e+00 9.0747960365843615e-08 1.0000000000000000e+00 4.7405647935208023e+01 5.6045067435981458e+01 1.9206769976031362e+02 
2528 59 2 1.0016969655595276e+00 3.6590319847222288e-02 1.0000000000000000e+00 4.4019669615523263e+01 5.8807624632195939e+01 1.9301818834895832e+02 
4877 109 3 1.0016969655595276e+00 8.3138800105913624e-01 1.0000000000000000e+00 4.5120069880823301e+01 6.2245701071467018e+01 1.9201274726589119e+02 
2816 65 3 1.0016969655595276e+00 6.8303728914773376e-01 1.0000000000000000e+00 4.0924611179871214e+01 6.5568625595293383e+01 1.9256687355851690e+02 
5452 121 1 1.0016969655595276e+00 6.9273443986447925e-01 1.0000000000000000e+00 5.2983728759207828e+01 6.6885093087372965e+01 1.9212787521657316e+02 
5460 121 3 1.0016969655595276e+00 1.4785832397821115e+00 1.0000000000000000e+00 3.4949337893879360e+01 3.1804216450862466e+01 1.9396554123226957e+02 
4705 106 3 1.0016969655595276e+00 6.5809199038247457e-01 1.0000000000000000e+00 3.2843348629284108e+01 3.3722712208261889e+01 1.9377810578346370e+02 
1517 35 3 1.0016969655595276e+00 1.6365862513503282e+00 1.0000000000000000e+00 3.4455683079839424e+01 3.5823456786934216e+01 1.9340550565303781e+02 
1526 35 3 1.0016969655595276e+00 1.3351576602368960e+00 1.0000000000000000e+00 5.6839106026731152e+01 3.8364112685768902e+01 1.9401283417947204e+02 
565 13 1 1.0016969655595276e+00 1.7540643015771540e+00 1.0000000000000000e+00 6.6551170133927727e+01 4.1107363116109752e+01 1.9451275680132048e+02 
9 0 3 1.0016969655595276e+00 5.2017129285746255e-01 1.0000000000000000e+00 6.2154298804564988e+01 4.6806594132203649e+01 1.9378307866094985e+02 
2053 47 3 1.0016969655595276e+00 6.4336560278537136e-01 1.0000000000000000e+00 3.2967143281806258e+01 5.0890916708073284e+01 1.9443048393643645e+02 
2539 59 2 1.0016969655595276e+00 2.3688013835177876e-02 1.0000000000000000e+00 4.5175803261649669e+01 5.2458019563584379e+01 1.9454981182330627e+02 
2523 59 2 1.0016969655595276e+00 9.0749209017008916e-08 1.0000000000000000e+00 4.2117573808742812e+01 5.3487060309752714e+01 1.9328953099878839e+02 
2538 59 2 1.0016969655595276e+00 1.8149966496324928e-07 1.0000000000000000e+00 4.4899675001866832e+01 5.3996715769772848e+01 1.9330234752746941e+02 
2526 59 2 1.0016969655595276e+00 1.8149910105531329e-07 1.0000000000000000e+00 4.3344749971915867e+01 5.4608646264785854e+01 1.9440132396971021e+02 
2542 59 2 1.0016969655595276e+00 1.8149996056205511e-07 1.0000000000000000e+00 4.6126851165039888e+01 5.5118301724805988e+01 1.9441414049839122e+02 
2549 59 2 1.0016969655595276e+00 9.0748950539629396e-08 1.0000000000000000e+00 4.7681776194990853e+01 5.4506371229792997e+01 1.9331516405615045e+02 
2518 59 2 1.0016969655595276e+00 3.9280349300238743e-02 1.0000000000000000e+00 4.1513696682182072e+01 5.6759272965987336e+01 1.9425283611611414e+02 
2529 59 2 1.0016969655595276e+00 1.8149857613292575e-07 1.0000000000000000e+00 4.4295797875306093e+01 5.7268928426007470e+01 1.9426565264479518e+02 
2544 59 2 1.0016969655595276e+00 7.0247302553804044e-04 1.0000000000000000e+00 4.7077899068430114e+01 5.7778583886027604e+01 1.9427846917347622e+02 
2550 59 3 1.0016969655595276e+00 9.2304169646930445e-01 1.0000000000000000e+00 4.0292644322869435e+01 5.8766840520492657e+01 1.9450756423599580e+02 
1580 36 3 1.0016969655595276e+00 7.3569965994438957e-01 1.0000000000000000e+00 6.6233619008431148e+01 6.1476572369521641e+01 1.9383982754851772e+02 
2294 52 3 1.0016969655595276e+00 9.3658973739734308e-01 1.0000000000000000e+00 4.7687886318668724e+01 6.7292200361738026e+01 1.9406936348156066e+02 
2605 60 3 1.0016969655595276e+00 1.2600662770867104e+00 1.0000000000000000e+00 3.7341578103614744e+01 3.8729120199200480e+01 1.9537443081150042e+02 
5454 121 1 1.0016969655595276e+00 1.2294995986539587e+00 1.0000000000000000e+00 5.7111415569561522e+01 4.0583831056663101e+01 1.9478966871768790e+02 
2202 50 3 1.0016969655595276e+00 2.0922180103534402e+00 1.0000000000000000e+00 3.2313504581379597e+01 4.1244926011843027e+01 1.9523718895583698e+02 
1752 41 2 1.0016969655595276e+00 3.4832624424729508e-08 1.0000000000000000e+00 5.9924364093835003e+01 4.1606090666777689e+01 1.9534639953764798e+02 
1740 41 2 1.0016969655595276e+00 1.1450227403672317e-01 1.0000000000000000e+00 6.1732718549576781e+01 4.0869718513693748e+01 1.9491325958960502e+02 
1744 41 2 1.0016969655595276e+00 -1.9510370345780975e-01 1.0000000000000000e+00 6.2432587754136030e+01 4.2728148443360205e+01 1.9467572792208745e+02 
5478 121 3 1.0016969655595276e+00 1.3211657694011842e+00 1.0000000000000000e+00 4.0429274879315507e+01 4.4249233368473547e+01 1.9586010354633743e+02 
1756 41 2 1.0016969655595276e+00 -1.4780186625249220e-01 1.0000000000000000e+00 6.0624233298394245e+01 4.3464520596444139e+01 1.9510886787013044e+02 
4100 93 3 1.0016969655595276e+00 1.4322100706509810e+00 1.0000000000000000e+00 4.8537562660951394e+01 4.5177688125085368e+01 1.9498906382115695e+02 
2 0 3 1.0016969655595276e+00 5.5686577779692426e-01 1.0000000000000000e+00 5.8805296260775052e+01 4.5874759901683461e+01 1.9489704824908412e+02 
4721 106 3 1.0016969655595276e+00 2.3636359393962550e-01 1.0000000000000000e+00 4.9918220771761604e+01 4.8502848553213113e+01 1.9501163502494785e+02 
4722 106 3 1.0016969655595276e+00 5.8819462503153896e-01 1.0000000000000000e+00 5.3264135394053326e+01 5.0374796159412973e+01 1.9543163701310834e+02 
2527 59 2 1.0016969655595276e+00 1.6867087552935821e-02 1.0000000000000000e+00 4.3620878231698697e+01 5.3069950058597385e+01 1.9564878826554707e+02 
2543 59 2 1.0016969655595276e+00 1.7630810245075848e-01 1.0000000000000000e+00 4.6402979424822718e+01 5.3579605518617520e+01 1.9566160479422811e+02 
4707 106 3 1.0016969655595276e+00 7.1212224396922796e-01 1.0000000000000000e+00 6.0822660909195470e+01 5.3639357089916430e+01 1.9515527216511069e+02 
2519 59 2 1.0016969655595276e+00 9.0749150511746061e-08 1.0000000000000000e+00 4.1789824941964902e+01 5.5220576759798860e+01 1.9550030041195097e+02 
2530 59 2 1.0016969655595276e+00 1.8150477641853861e-07 1.0000000000000000e+00 4.4571926135088923e+01 5.5730232219818994e+01 1.9551311694063202e+02 
2545 59 2 1.0016969655595276e+00 1.9172616991658764e-01 1.0000000000000000e+00 4.7354027328212943e+01 5.6239887679839136e+01 1.9552593346931309e+02 
2520 59 2 1.0016969655595276e+00 9.0749388536811119e-08 1.0000000000000000e+00 4.2740872845355135e+01 5.7880858921020483e+01 1.9536462908703595e+02 
3244 74 1 1.0016969655595276e+00 7.3386915675257436e-01 1.0000000000000000e+00 6.1418466053851105e+01 5.7997871824313805e+01 1.9540657742330038e+02 
2532 59 2 1.0016969655595276e+00 2.5586547817368719e-02 1.0000000000000000e+00 4.5522974038479148e+01 5.8390514381040617e+01 1.9537744561571702e+02 
4704 106 1 1.0016969655595276e+00 2.9219872814805403e-01 1.0000000000000000e+00 3.6279874827397911e+01 6.1949168170948880e+01 1.9472396635669654e+02 
4772 107 3 1.0016969655595276e+00 6.8314470812929406e-01 1.0000000000000000e+00 5.4130393773930500e+01 6.1512653324158080e+01 1.9475526582423419e+02 
2443 56 1 1.0016969655595276e+00 4.8852606891516148e-01 1.0000000000000000e+00 3.3597876698582461e+01 6.3317796004306942e+01 1.9560174726151752e+02 
672 15 3 1.0016969655595276e+00 1.2038346944324110e+00 1.0000000000000000e+00 4.1506060800505892e+01 6.6157365985439199e+01 1.9485365458444872e+02 
4879 109 3 1.0016969655595276e+00 1.4014624569138514e+00 1.0000000000000000e+00 3.7508947133660143e+01 6.7815361512887549e+01 1.9463849221634513e+02 
3221 74 1 1.0016972421795798e+00 9.0072346296956196e-01 1.0000000000000000e+00 3.4296906605635762e+01 3.2252562748341816e+01 1.9611807961490007e+02 
862 19 3 1.0016972421795798e+00 6.5065338361191860e-01 1.0000000000000000e+00 3.3351116605135360e+01 3.3986313693786762e+01 1.9621340137946737e+02 
865 19 1 1.0016969655595276e+00 2.2301356164081563e+00 1.0000000000000000e+00 6.6714411866813151e+01 3.3483561014343380e+01 1.9634241356439830e+02 
4982 111 3 1.0016969655595276e+00 1.7111943156909617e+00 1.0000000000000000e+00 5.4197975320912050e+01 3.5524486793243867e+01 1.9706731846064707e+02 
2480 57 3 1.0016969655595276e+00 6.6107139053518960e-01 1.0000000000000000e+00 5.0372385280509015e+01 3.8033644856619411e+01 1.9699270223076857e+02 
1736 41 2 1.0016969655595276e+00 7.0815268873405324e-01 1.0000000000000000e+00 6.1522785319325280e+01 3.9074488653245488e+01 1.9708882337563949e+02 
1732 41 2 1.0016969655595276e+00 3.4833001345969491e-08 1.0000000000000000e+00 6.4031008979626307e+01 4.0196546429828004e+01 1.9641815176007898e+02 
1739 41 2 1.0016969655595276e+00 6.9665477383591700e-08 1.0000000000000000e+00 6.2222654523884522e+01 4.0932918582911952e+01 1.9685129170812195e+02 
1743 41 2 1.0016969655595276e+00 6.9670611401756893e-08 1.0000000000000000e+00 6.2922523728443764e+01 4.2791348512578409e+01 1.9661376004060435e+02 
1734 41 2 1.0016969655595276e+00 1.1086358200331138e-01 1.0000000000000000e+00 6.4730878184185542e+01 4.2054976359494468e+01 1.9618062009256141e+02 
1755 41 2 1.0016969655595276e+00 6.9689804053100523e-08 1.0000000000000000e+00 6.1114169272701979e+01 4.3527720665662358e+01 1.9704689998864731e+02 
1746 41 2 1.0016969655595276e+00 3.4834838187765283e-08 1.0000000000000000e+00 6.3622392933003013e+01 4.4649778442244873e+01 1.9637622837308678e+02 
1758 41 2 1.0016969655595276e+00 1.9306187535900883e+00 1.0000000000000000e+00 6.1814038477261221e+01 4.5386150595328814e+01 1.9680936832112977e+02 
4830 108 3 1.0016969655595276e+00 1.2876346215290737e+00 1.0000000000000000e+00 3.1924542100747797e+01 4.7460328288249464e+01 1.9721617928477329e+02 
2227 50 3 1.0016969655595276e+00 7.4239037240387606e-01 1.0000000000000000e+00 4.0117065433447685e+01 4.7931282212442831e+01 1.9594434320257042e+02 
13 0 3 1.0016969655595276e+00 1.5428121364549026e+00 1.0000000000000000e+00 3.5429299314427844e+01 5.2011956699912936e+01 1.9687833340937078e+02 
2616 60 3 1.0016969655595276e+00 4.8248141377426751e-01 1.0000000000000000e+00 4.8107204400434142e+01 5.2695911170844582e+01 1.9635992633561517e+02 
2531 59 2 1.0016969655595276e+00 4.5402811756873523e-02 1.0000000000000000e+00 4.4848054394871752e+01 5.4191536013630525e+01 1.9676058123646891e+02 
3479 79 3 1.0016969655595276e+00 3.6622717391670001e+00 1.0000000000000000e+00 5.4451572324845884e+01 5.4227603378865155e+01 1.9714797799734038e+02 
2521 59 2 1.0016969655595276e+00 7.1846620477120449e-01 1.0000000000000000e+00 4.3017001105137950e+01 5.6342162714832007e+01 1.9661209338287279e+02 
2533 59 2 1.0016969655595276e+00 7.5383140225802725e-01 1.0000000000000000e+00 4.5799102298261978e+01 5.6851818174852141e+01 1.9662490991155386e+02 
5467 121 3 1.0016969655595276e+00 7.2327278284761498e-01 1.0000000000000000e+00 6.0843696377758626e+01 6.4470651613134265e+01 1.9629344488481254e+02 
905 20 3 1.0016969655595276e+00 8.4082825930910110e-01 1.0000000000000000e+00 3.3273920765172647e+01 6.5365878147625594e+01 1.9606571620560118e+02 
744 16 1 1.0016969655595276e+00 5.2170192781958591e-01 1.0000000000000000e+00 5.1455534464593335e+01 6.5865971254239170e+01 1.9632405656264316e+02 
4227 96 3 1.0016969655595276e+00 3.2120629077132262e-01 1.0000000000000000e+00 4.0990550786665715e+01 6.6247997290737857e+01 1.9688237952284126e+02 
5474 121 3 1.0016969655595276e+00 1.1096417577454236e+00 1.0000000000000000e+00 6.0795129007252143e+01 3.5603861144529773e+01 1.9841902154958709e+02 
4829 108 3 1.0016969655595276e+00 1.3132654217434261e-01 1.0000000000000000e+00 3.1685481064462664e+01 3.7710766503077110e+01 1.9829234497060628e+02 
3278 75 3 1.0016969655595276e+00 2.0577906025078634e+00 1.0000000000000000e+00 5.1059818348803084e+01 3.9225578902800116e+01 1.9854704527368449e+02 
707 15 3 1.0016969655595276e+00 5.9765020350891607e-01 1.0000000000000000e+00 4.3304965362962349e+01 3.9574714257092992e+01 1.9857361976308368e+02 
1748 41 2 1.0016969655595276e+00 2.0260860095952987e-01 1.0000000000000000e+00 5.9714430863583488e+01 3.9810860806329423e+01 1.9752196332368246e+02 
1731 41 2 1.0016969655595276e+00 1.3423414148446416e-02 1.0000000000000000e+00 6.4520944953934048e+01 4.0259746499046216e+01 1.9835618387859589e+02 
1751 41 2 1.0016969655595276e+00 6.9665095340226238e-08 1.0000000000000000e+00 6.0414300068142730e+01 4.1669290735995894e+01 1.9728443165616488e+02 
3235 74 3 1.0016969655595276e+00 7.4307206189903197e-01 1.0000000000000000e+00 3.6657047465570784e+01 4.2863703238427632e+01 1.9754603400575471e+02 