LAMMPS data file via write_data, version 30 Jul 2016, timestep = 50400000

180 atoms
2 atom types

0.0000000000000000e+00 2.0000000000000000e+01 xlo xhi
0.0000000000000000e+00 2.0000000000000000e+01 ylo yhi
0.0000000000000000e+00 2.0000000000000000e+01 zlo zhi

Masses

1 3.896
2 4.31

Atoms # meso-molecular

2 1 2 5.3676127300643262e-01 -1.1207076687933957e+07 1.0000000000000000e+00 5.5859009876863510e+00 1.9121466978621044e+00 5.0389284770479552e+00 
3 1 2 5.3073645344277809e-01 -9.8570905299151968e+06 1.0000000000000000e+00 5.5333355734161040e+00 1.8544272045638779e+00 5.0971407479447741e+00 
8 1 2 5.3750875151440980e-01 -1.1428205125472840e+07 1.0000000000000000e+00 5.5712154274054395e+00 1.9729030035619863e+00 5.0155727020706609e+00 
38 1 2 5.0154236175469480e-01 -7.2793096507090060e+06 1.0000000000000000e+00 6.5868078507521393e+00 2.4905159843749032e+00 4.9223481963855109e+00 
14 1 2 5.6316887356843115e-01 -9.2465583358339462e+06 1.0000000000000000e+00 5.6569686356424533e+00 8.5907406367309473e+00 4.9239281755491708e+00 
15 1 2 5.5889498699198392e-01 -9.3417818689364400e+06 1.0000000000000000e+00 5.6475512509975374e+00 8.5889744409909525e+00 4.9418226799416285e+00 
4 1 2 8.8927339476810019e-01 -9.9213718060409110e+06 1.0000000000000000e+00 6.0042183412594907e+00 2.3227458197093602e+00 1.1815353407115580e+01 
10 1 2 7.5833059492798160e-01 -9.3817391758691706e+06 1.0000000000000000e+00 5.9035429315599943e+00 2.8132222428853053e+00 1.1063744301440657e+01 
46 1 2 7.4070199554323923e-01 -1.0144009219194263e+07 1.0000000000000000e+00 5.9571655503652954e+00 2.8277259664212133e+00 1.0988034088466511e+01 
41 1 2 8.8263112746368555e-01 -9.6098678832671214e+06 1.0000000000000000e+00 6.0668652689140039e+00 2.1028808200151543e+00 1.2356522367185329e+01 
40 1 2 8.7708451451797764e-01 -8.3764004369831542e+06 1.0000000000000000e+00 6.1595530765537134e+00 2.2005562468317197e+00 1.1913082130359307e+01 
11 1 2 7.5399369519439041e-01 -1.0726227826954141e+07 1.0000000000000000e+00 5.6713495018262217e+00 2.0258400717436644e+00 1.3230610933219891e+01 
9 1 2 4.8887968178032892e-01 -7.2006489009168018e+06 1.0000000000000000e+00 5.5876503906311363e+00 3.2596816673449265e+00 1.0222195355922549e+01 
16 1 2 8.1974037464949745e-01 -1.0626212087850150e+07 1.0000000000000000e+00 6.2029689624293001e+00 8.3632902960019297e+00 1.2295301961640250e+01 
17 1 2 8.0998601849880458e-01 -1.0203239825731317e+07 1.0000000000000000e+00 6.1351635751419327e+00 8.3249152912862421e+00 1.2440322439576104e+01 
59 1 2 8.0259975948675788e-01 -7.5049124981956435e+06 1.0000000000000000e+00 6.5812778037394688e+00 9.0337632155767071e+00 1.2542119649728939e+01 
52 1 2 8.4005229226073763e-01 -8.5768200412636194e+06 1.0000000000000000e+00 6.5791573906827718e+00 8.5361821555838766e+00 1.2303659782679548e+01 
53 1 2 8.4068603648980100e-01 -8.3085648792560278e+06 1.0000000000000000e+00 6.5896780237783572e+00 8.5730251149681909e+00 1.2490102089308628e+01 
58 1 2 8.3173500300001957e-01 -8.6385569875838067e+06 1.0000000000000000e+00 6.6053312441962415e+00 8.8209081485796226e+00 1.2342535923093592e+01 
5 1 2 6.8244586667904583e-01 -1.1438957478160720e+07 1.0000000000000000e+00 5.6159214396848247e+00 1.8517845119471983e+00 1.3473844873437562e+01 
6 1 2 6.0294897205044129e-01 -8.5702035983654503e+06 1.0000000000000000e+00 5.5855365973208686e+00 1.7643771630933025e+00 1.3743795665231929e+01 
12 1 2 5.0836903542326595e-01 -9.9547828489662390e+06 1.0000000000000000e+00 5.8097616509930061e+00 6.4653863791802735e+00 1.7546108874537097e+01 
18 1 2 5.1635032798889002e-01 -1.3707207164307388e+07 1.0000000000000000e+00 5.8928483782714958e+00 6.6074509577741312e+00 1.7679471008693486e+01 
13 1 2 5.0710265725490267e-01 -1.1042600321695710e+07 1.0000000000000000e+00 5.8788749649424039e+00 6.6751323616790348e+00 1.7784836263576739e+01 
19 1 2 4.3394306847971881e-01 -7.5360732249770220e+06 1.0000000000000000e+00 4.5240946445003072e+00 1.3504770253401711e+01 1.4462212132616323e+00 
25 1 2 4.3450281203636359e-01 -8.8102122607783582e+06 1.0000000000000000e+00 4.5245912931528984e+00 1.3553612939774665e+01 1.4364927499012452e+00 
31 1 2 4.3341266587287952e-01 -8.8332921431488618e+06 1.0000000000000000e+00 4.5246599231883389e+00 1.3680775285367787e+01 1.4054800652597663e+00 
26 1 2 7.3829044805400856e-01 -1.3434646378078923e+07 1.0000000000000000e+00 6.3725209909370477e+00 1.5977922322476488e+01 5.5500119540351749e+00 
32 1 2 7.3320654293322141e-01 -1.3299327502947563e+07 1.0000000000000000e+00 6.3400484920545948e+00 1.6032022284197836e+01 5.5456781691967070e+00 
21 1 2 2.9014135510972650e-01 -6.8664491216040384e+06 1.0000000000000000e+00 4.4059558880840388e+00 1.2361229021502975e+01 7.1687876223653664e+00 
27 1 2 2.9014135510972650e-01 -7.4302331299390802e+06 1.0000000000000000e+00 4.4048360709009993e+00 1.2365230863470604e+01 7.1703023695619477e+00 
22 1 2 6.6236879033793650e-01 -1.1406084877600566e+07 1.0000000000000000e+00 5.7899055838280251e+00 1.2803779367086936e+01 1.1555503145755086e+01 
23 1 2 6.0947907926404621e-01 -7.0342071437645573e+06 1.0000000000000000e+00 5.8044637853375640e+00 1.2579009958270499e+01 1.1847411451124627e+01 
28 1 2 6.8305896716716408e-01 -1.0956919064952157e+07 1.0000000000000000e+00 5.8793985911555353e+00 1.3263989169301892e+01 1.1378326379991019e+01 
34 1 2 6.3114558404421328e-01 -9.8077658339987062e+06 1.0000000000000000e+00 5.8862617674612459e+00 1.3726317746097880e+01 1.1255783203428399e+01 
64 1 2 6.6754089085182844e-01 -1.0346049427315876e+07 1.0000000000000000e+00 5.9302778248168240e+00 1.3455146868098494e+01 1.1293968774885350e+01 
24 1 2 6.3084674786710560e-01 -1.0258925059818661e+07 1.0000000000000000e+00 5.1007542648068345e+00 1.3797747464260986e+01 1.6146928642879807e+01 
29 1 2 6.7702454167033355e-01 -9.6351238183025047e+06 1.0000000000000000e+00 5.0131913555515695e+00 1.4069798381994548e+01 1.5816463310580122e+01 
30 1 2 6.9070001366542044e-01 -1.2627381038475556e+07 1.0000000000000000e+00 4.9993026392615363e+00 1.4278619256790458e+01 1.5879038235686167e+01 
35 1 2 6.6545466630564143e-01 -1.2770691443346204e+07 1.0000000000000000e+00 4.9671426191566734e+00 1.4745823674149069e+01 1.5777868722504195e+01 
36 1 2 6.4410624517316517e-01 -1.1189681101089288e+07 1.0000000000000000e+00 4.9391866628474448e+00 1.4902802576894931e+01 1.5861954891067878e+01 
73 1 2 5.1668058341598611e-01 -9.7022255199474413e+06 1.0000000000000000e+00 1.2113868734420869e+01 3.0676374256089942e+00 8.6750309188773556e-01 
109 1 2 5.1215660147451680e-01 -1.0229533165392770e+07 1.0000000000000000e+00 1.2134799088302875e+01 3.0344236453198934e+00 8.6948000194266217e-01 
43 1 2 2.9014114341641289e-01 -6.1498572857607882e+06 1.0000000000000000e+00 6.8266515094646572e+00 3.9253748119827780e+00 1.0171144449026910e+00 
7 1 2 2.9014114341641289e-01 -7.3825526862289356e+06 1.0000000000000000e+00 6.8217739816883345e+00 3.9241283794456630e+00 1.0173517233544975e+00 
79 1 2 5.1740530729286005e-01 -9.0101402029727679e+06 1.0000000000000000e+00 1.1820046502129474e+01 3.9740361575640635e+00 9.0455097603165946e-01 
85 1 2 5.1133466329355048e-01 -9.8858393412037231e+06 1.0000000000000000e+00 1.1820970626383637e+01 4.0276349813040673e+00 9.0804993981708393e-01 
80 1 2 5.4698205796344590e-01 -9.1059710996108074e+06 1.0000000000000000e+00 9.2258309417214477e+00 3.3073015441121454e+00 5.2910586836004043e+00 
74 1 2 4.7091964982459289e-01 -9.9724699074881375e+06 1.0000000000000000e+00 1.0126070999843849e+01 1.4541526950782666e+00 6.0700079335708796e+00 
75 1 2 4.6006750977750804e-01 -1.0260163782112829e+07 1.0000000000000000e+00 1.0158690728749473e+01 1.2949935798839440e+00 6.1924515968408080e+00 
39 1 2 4.5865740927055287e-01 -9.5072377771372348e+06 1.0000000000000000e+00 1.0131881033848320e+01 1.2687601440460838e+00 6.2083459270261372e+00 
44 1 2 5.6588272247815108e-01 -1.0741924572923120e+07 1.0000000000000000e+00 8.6220486410840778e+00 4.0371920679123292e+00 5.0841742300384984e+00 
45 1 2 5.5370069213025752e-01 -1.1552596802482331e+07 1.0000000000000000e+00 8.5718676174276105e+00 4.2137324511638745e+00 5.1166848508413505e+00 
50 1 2 5.3264769078807861e-01 -9.0290169502012786e+06 1.0000000000000000e+00 8.5164771175072147e+00 4.4016292608748664e+00 5.0752809798779355e+00 
49 1 2 6.0050191653180895e-01 -1.0924990250018662e+07 1.0000000000000000e+00 6.8742631188858700e+00 8.8779934198757910e+00 3.5011490375557148e+00 
55 1 2 6.0524160528836468e-01 -1.2191671302240981e+07 1.0000000000000000e+00 6.8530750567542542e+00 8.9372156821322264e+00 3.5171151918081325e+00 
56 1 2 6.4447234400037723e-01 -9.0546221217602864e+06 1.0000000000000000e+00 6.9874599012298253e+00 9.1868890491000030e+00 5.1586800053089945e+00 
20 1 2 6.7791431822401338e-01 -1.0496135570099728e+07 1.0000000000000000e+00 6.6851636830830694e+00 8.9606678122717547e+00 3.8940577282482640e+00 
57 1 2 4.8403864842131600e-01 -7.7195349780903459e+06 1.0000000000000000e+00 8.0103535361612295e+00 9.4161141744124528e+00 6.4293290183350571e+00 
86 1 2 7.0652471925328630e-01 -7.3226382387573598e+06 1.0000000000000000e+00 1.3214380735654460e+01 9.3293699869242239e+00 5.2604938678654234e+00 
129 1 2 7.0628864858891427e-01 -8.9985958717917707e+06 1.0000000000000000e+00 1.3230936599250303e+01 9.6050508569239579e+00 5.3210107052753992e+00 
128 1 2 7.0982268028816586e-01 -8.0461576745170383e+06 1.0000000000000000e+00 1.3250544531144270e+01 9.4751790202427788e+00 5.2750501777898444e+00 
92 1 2 6.7267320237144401e-01 -8.2393210346934665e+06 1.0000000000000000e+00 1.2949163108721244e+01 9.8392099895698824e+00 5.1208217254023065e+00 
81 1 2 7.6301302581116137e-01 -6.7787616377577968e+06 1.0000000000000000e+00 1.2329442118631981e+01 5.5779150134836684e+00 8.5563605319940024e+00 
88 1 2 8.2277993807721173e-01 -9.5563309964535087e+06 1.0000000000000000e+00 1.2115674353891734e+01 5.7889305295914699e+00 9.1920594731478342e+00 
87 1 2 7.8012268606963053e-01 -6.4076465369511740e+06 1.0000000000000000e+00 1.1922676110508709e+01 5.9124459311270368e+00 8.9052420344942540e+00 
82 1 2 8.2033039821574283e-01 -9.5824545058280043e+06 1.0000000000000000e+00 1.2394011294355796e+01 5.5953964943747998e+00 9.3778925746232815e+00 
118 1 2 8.0941991572359417e-01 -9.3762185174123421e+06 1.0000000000000000e+00 1.2521883094237884e+01 5.5670200677642132e+00 9.4013637995429171e+00 
124 1 2 7.9350816435975191e-01 -1.0371199801792158e+07 1.0000000000000000e+00 1.2550841117278727e+01 5.6943666333470402e+00 9.5397804119338367e+00 
93 1 2 4.3314975887046375e-01 -8.2768094622844243e+06 1.0000000000000000e+00 8.6131734512277749e+00 9.2921024241738959e+00 7.0019636958786515e+00 
51 1 2 4.3485586310753943e-01 -8.5959823393750228e+06 1.0000000000000000e+00 8.5956592980848843e+00 9.2858587523514338e+00 6.9943214254338963e+00 
47 1 2 4.3509839741434797e-01 -8.1344764133794643e+06 1.0000000000000000e+00 1.0193778944564073e+01 5.0242112028045902e+00 1.3186799990909556e+01 
83 1 2 4.3494574737341157e-01 -6.6897084456099654e+06 1.0000000000000000e+00 1.0214384658070122e+01 4.9845144518397335e+00 1.3198094740984162e+01 
89 1 2 4.3498536128350518e-01 -8.0382587936838176e+06 1.0000000000000000e+00 1.0201591483580652e+01 5.0552987031948415e+00 1.3189562955531470e+01 
42 1 2 5.6999251815339991e-01 -9.5972389747579452e+06 1.0000000000000000e+00 9.9993753728151660e+00 2.4678662924621895e+00 1.6535913857567447e+01 
77 1 2 5.7232668681742427e-01 -8.6270445714238938e+06 1.0000000000000000e+00 1.0304134926357506e+01 2.4921441417973580e+00 1.6282436171938389e+01 
84 1 2 5.7636900854569995e-01 -9.6865323651229125e+06 1.0000000000000000e+00 1.0169328602526074e+01 2.5591993845077758e+00 1.6435458337366459e+01 
78 1 2 5.7613746119648401e-01 -1.0818561186771018e+07 1.0000000000000000e+00 1.0254553745250586e+01 2.4762132504295358e+00 1.6406690406595331e+01 
48 1 2 4.7594278366443082e-01 -9.4267959261281099e+06 1.0000000000000000e+00 8.3225735445042375e+00 6.0988942869512508e+00 1.7138637161218131e+01 
90 1 2 4.7683500315754318e-01 -1.1269167304272400e+07 1.0000000000000000e+00 8.3394220316133936e+00 6.2060742549485717e+00 1.7157698778538531e+01 
54 1 2 5.4749524505513836e-01 -1.1403415873723714e+07 1.0000000000000000e+00 7.7975314087874512e+00 6.2608584154132396e+00 1.7204267207754349e+01 
91 1 2 8.7555554363579069e-01 -1.2016252342127331e+07 1.0000000000000000e+00 1.2269052360550871e+01 1.2391399052972657e+01 1.8922574487418209e+00 
97 1 2 8.9768237171941212e-01 -1.1786524082974918e+07 1.0000000000000000e+00 1.2427369427396423e+01 1.2592148597772910e+01 1.8324128788274352e+00 
98 1 2 8.6869158878700048e-01 -9.7161454240266811e+06 1.0000000000000000e+00 1.1980213415314624e+01 1.2769302645603052e+01 2.4688635815779052e+00 
127 1 2 8.5064253701366177e-01 -1.0847931486428201e+07 1.0000000000000000e+00 1.2520401974351604e+01 1.2408933678255396e+01 1.7186718826765486e+00 
62 1 2 8.1473536361916887e-01 -8.8082992097571418e+06 1.0000000000000000e+00 1.1771372413933886e+01 1.2734241552741681e+01 2.5453817765244637e+00 
134 1 2 8.8228736622807535e-01 -8.9186025024820790e+06 1.0000000000000000e+00 1.2631866968411819e+01 1.3302570919458605e+01 2.1870752690177131e+00 
139 1 2 3.3746335352374973e-01 -8.4088914013689831e+06 1.0000000000000000e+00 1.3007734878378619e+01 1.5887659360131762e+01 1.7921841382852679e+00 
133 1 2 8.1671940778522201e-01 -7.7678195492191724e+06 1.0000000000000000e+00 1.2750976421759976e+01 1.3618967502884143e+01 2.0504004285510882e+00 
103 1 2 3.3343064932372002e-01 -8.0010871572704623e+06 1.0000000000000000e+00 1.3000069236604974e+01 1.5928587893327219e+01 1.7898940224956321e+00 
67 1 2 4.3491111121019482e-01 -8.8491911014350001e+06 1.0000000000000000e+00 7.1956374284768563e+00 1.9237325227908258e+01 5.0139966680596737e-01 
37 1 2 4.3507670869729437e-01 -8.9998589183511771e+06 1.0000000000000000e+00 7.1792107397513085e+00 1.9292392664775480e+01 5.1354644650833003e-01 
1 1 2 4.3502487521865818e-01 -9.1410919327189997e+06 1.0000000000000000e+00 7.1641581278058739e+00 1.9299387988877299e+01 5.0751328592616107e-01 
68 1 2 8.0928823266760164e-01 -1.4629621057301203e+07 1.0000000000000000e+00 6.8493464737852152e+00 1.6036457860077562e+01 6.0758804405434930e+00 
69 1 2 7.8981774242493907e-01 -1.1770373205663333e+07 1.0000000000000000e+00 6.8736754134130820e+00 1.6155135575802323e+01 6.3427979438187867e+00 
33 1 2 7.8697830230555132e-01 -1.1206495156266641e+07 1.0000000000000000e+00 6.8138019025441841e+00 1.6185908206124857e+01 6.3702908064490833e+00 
63 1 2 7.0809802813430212e-01 -8.6901402041692194e+06 1.0000000000000000e+00 7.1702917626549256e+00 1.5574102208761325e+01 6.5251203431932829e+00 
141 1 2 5.9638594775440146e-01 -9.3207253012338169e+06 1.0000000000000000e+00 1.2531642477894607e+01 1.6626774888911939e+01 6.3062304430415743e+00 
99 1 2 6.1354889125393786e-01 -1.0671909242291059e+07 1.0000000000000000e+00 1.2300767633017873e+01 1.6567940773784745e+01 6.6082983373520880e+00 
104 1 2 5.9045025204324975e-01 -9.6248374823544528e+06 1.0000000000000000e+00 1.2496945490971052e+01 1.6650432957624165e+01 6.2036187909651046e+00 
140 1 2 5.8634358184476598e-01 -8.2397585613503251e+06 1.0000000000000000e+00 1.2572626824796936e+01 1.6662834300958579e+01 6.1940850560469869e+00 
70 1 2 4.5155408957977144e-01 -8.1967469050668972e+06 1.0000000000000000e+00 1.0942352104175413e+01 1.7026493783978875e+01 8.9094099277702465e+00 
106 1 2 4.5743113910923838e-01 -8.3211304632577654e+06 1.0000000000000000e+00 1.0988018638019527e+01 1.7008133342197070e+01 8.8713108629800708e+00 
105 1 2 4.8846255812184380e-01 -9.1963388495175168e+06 1.0000000000000000e+00 1.1167410337745510e+01 1.6960090460267718e+01 8.5893891667488269e+00 
94 1 2 2.9016375054450416e-01 -5.3420336192063196e+06 1.0000000000000000e+00 1.1020520433012184e+01 1.2232170547141090e+01 1.0610698557160262e+01 
100 1 2 2.9016397062186322e-01 -5.6334982759493375e+06 1.0000000000000000e+00 1.1020341530513043e+01 1.2235455363411830e+01 1.0612898838986444e+01 
65 1 2 6.8981063269736764e-01 -1.0165763329784108e+07 1.0000000000000000e+00 9.4201596353690498e+00 1.5174213316635779e+01 1.4359007741841591e+01 
71 1 2 7.6506601362265292e-01 -1.3061321742963919e+07 1.0000000000000000e+00 9.4338200066852256e+00 1.5546340311241114e+01 1.4637082511265589e+01 
101 1 2 7.0083593801617328e-01 -1.0854730690039143e+07 1.0000000000000000e+00 9.4510387982014361e+00 1.5191859232657393e+01 1.4402904419634073e+01 
72 1 2 6.9022807455671598e-01 -1.1232362015269915e+07 1.0000000000000000e+00 9.5467154372841474e+00 1.5862722472584203e+01 1.5685291302685531e+01 
107 1 2 7.4872778656981009e-01 -1.2411927724128902e+07 1.0000000000000000e+00 9.6712286767003164e+00 1.6058712354865126e+01 1.5077868642184578e+01 
108 1 2 7.0342201936837001e-01 -1.2251088917947538e+07 1.0000000000000000e+00 9.6604936722825716e+00 1.6105162312872771e+01 1.5463693996317225e+01 
60 1 2 5.7097378764480944e-01 -1.2425118105977265e+07 1.0000000000000000e+00 8.3242735335540399e+00 1.3329306883937015e+01 1.7682378472913637e+01 
102 1 2 5.7139433119281879e-01 -1.2777676735908747e+07 1.0000000000000000e+00 8.5917849583714627e+00 1.3673175240140324e+01 1.7676216721824670e+01 
66 1 2 5.7436713794820393e-01 -1.2635113819525456e+07 1.0000000000000000e+00 8.3476925262183457e+00 1.3408601269981144e+01 1.7646869041446699e+01 
61 1 2 5.7441606905336351e-01 -1.2174446384507591e+07 1.0000000000000000e+00 8.4790312823780276e+00 1.3536562945551218e+01 1.7819426071070982e+01 
145 1 2 4.3509367452207343e-01 -7.5540028805887485e+06 1.0000000000000000e+00 1.8458423216604373e+01 2.8290469315941968e+00 3.2724742798002873e+00 
146 1 2 4.3513678456148008e-01 -7.6238840533128101e+06 1.0000000000000000e+00 1.8456542716194068e+01 2.8323202878642162e+00 3.2910431924908163e+00 
152 1 2 4.3504340555469040e-01 -8.7859249481022693e+06 1.0000000000000000e+00 1.8460761442726437e+01 2.8706736439334879e+00 3.3070620297299831e+00 
115 1 2 5.7686460575872756e-01 -8.8439760961407758e+06 1.0000000000000000e+00 1.6218338240077603e+01 6.2898335404176411e+00 9.0702150375409984e-01 
151 1 2 5.7474908447249962e-01 -8.3133619096874325e+06 1.0000000000000000e+00 1.6268030319046172e+01 6.2379576926983198e+00 9.1550893946587553e-01 
121 1 2 5.7626181975907953e-01 -8.5576046094749719e+06 1.0000000000000000e+00 1.6177206223551192e+01 6.4837890470471766e+00 8.8424878559745157e-01 
157 1 2 5.7558473123698106e-01 -8.7898771273400579e+06 1.0000000000000000e+00 1.6212797594917937e+01 6.5112163334680613e+00 8.8327062502434117e-01 
116 1 2 2.9311565260658534e-01 -5.3978339286639960e+06 1.0000000000000000e+00 1.3721659937544365e+01 5.0883496772345760e+00 5.7643162851292642e+00 
117 1 2 2.9332589114544705e-01 -4.8164474013638860e+06 1.0000000000000000e+00 1.3712938715953616e+01 5.0875246620312877e+00 5.7776343544155111e+00 
122 1 2 6.8284451563241921e-01 -5.5631698061815668e+06 1.0000000000000000e+00 1.3405846610396747e+01 9.1233585599600833e+00 5.2986230510077705e+00 
123 1 2 7.1458117120273912e-01 -1.1188409456099706e+07 1.0000000000000000e+00 1.6739152981890243e+01 8.8890899166702724e+00 6.3725212462817646e+00 
158 1 2 7.2765461539903364e-01 -1.2994546483193452e+07 1.0000000000000000e+00 1.7040744365839718e+01 8.9105983256675341e+00 6.2898872853878114e+00 
159 1 2 7.5128209223572073e-01 -1.3183714605016144e+07 1.0000000000000000e+00 1.7090280550913864e+01 8.9514893633090082e+00 6.4792161486412772e+00 
164 1 2 7.1888788795351921e-01 -1.1326544022778202e+07 1.0000000000000000e+00 1.7117186350285820e+01 9.0454810903986740e+00 6.2138679046400789e+00 
110 1 2 5.9770326151108710e-01 -9.8206745686331205e+06 1.0000000000000000e+00 1.6493789536030189e+01 1.7260671216678221e+00 7.1624470560190687e+00 
111 1 2 6.1955549189291992e-01 -1.1343323593990985e+07 1.0000000000000000e+00 1.6522412820732800e+01 1.7615652165308626e+00 7.2351312809745778e+00 
147 1 2 7.5549575024513116e-01 -1.4150516555003908e+07 1.0000000000000000e+00 1.6950889393477844e+01 2.3032256338371977e+00 7.9526310177823767e+00 
148 1 2 7.2557051808517603e-01 -1.1897815869866064e+07 1.0000000000000000e+00 1.7083581802816738e+01 2.4060726228802758e+00 8.3055998671826803e+00 
153 1 2 6.7993137145906379e-01 -1.0407957910696592e+07 1.0000000000000000e+00 1.7144567223699916e+01 2.9119677371333257e+00 8.2996923010457682e+00 
154 1 2 6.6977573977145100e-01 -9.7048815096038505e+06 1.0000000000000000e+00 1.7149683071630580e+01 2.9431520153800887e+00 8.3412498743425942e+00 
165 1 2 6.5492821021303727e-01 -1.0990679453519836e+07 1.0000000000000000e+00 1.7358523827712492e+01 9.2676246792324299e+00 7.5361314677489926e+00 
166 1 2 5.4570033550843899e-01 -7.9148520206682328e+06 1.0000000000000000e+00 1.7455817665711901e+01 9.3010311728510064e+00 7.9300873828186207e+00 
113 1 2 5.9756521531112328e-01 -6.9745645534814019e+06 1.0000000000000000e+00 1.5298279616654145e+01 2.1903579025261264e+00 1.3195757698744917e+01 
112 1 2 3.4276474028384901e-01 -6.7483630107294042e+06 1.0000000000000000e+00 1.3526454933007335e+01 1.3407747218608019e+00 1.1983574765579391e+01 
76 1 2 3.2966700737017463e-01 -7.2937379256931543e+06 1.0000000000000000e+00 1.3433681123698543e+01 1.2965183378879073e+00 1.1925025453708136e+01 
160 1 2 2.9013595714051960e-01 -6.2394170281194942e+06 1.0000000000000000e+00 1.7820848751781167e+01 7.5787888945137230e+00 1.1758599078933662e+01 
161 1 2 2.9013595714051960e-01 -6.8408413491052417e+06 1.0000000000000000e+00 1.7821296438567995e+01 7.5728920811435634e+00 1.1770150253597606e+01 
149 1 2 5.8666530698252783e-01 -9.8829552275819480e+06 1.0000000000000000e+00 1.5702024049695526e+01 2.3007686512734575e+00 1.3413404919051102e+01 
119 1 2 5.7969843487277595e-01 -8.6736196245510858e+06 1.0000000000000000e+00 1.5666455230999940e+01 2.4826680531249514e+00 1.3532031959760321e+01 
155 1 2 5.7318228768139823e-01 -9.6886773467280157e+06 1.0000000000000000e+00 1.5761066710284247e+01 2.4740317660693365e+00 1.3559670841693622e+01 
120 1 2 5.4058717689570690e-01 -9.4666172445367649e+06 1.0000000000000000e+00 1.5826604085998564e+01 5.6824197318492597e+00 1.5630007971221280e+01 
162 1 2 5.6738003275001692e-01 -1.0637090520449026e+07 1.0000000000000000e+00 1.5880999183052928e+01 6.2807818616084843e+00 1.5690962245823542e+01 
126 1 2 5.6664428335358608e-01 -1.0196784278678222e+07 1.0000000000000000e+00 1.5846874549381804e+01 6.2995261734785100e+00 1.5701004581112896e+01 
125 1 2 5.6672826764266104e-01 -1.0102870675634425e+07 1.0000000000000000e+00 1.5861655591727066e+01 6.3001165582704433e+00 1.5659231094255457e+01 
156 1 2 4.3490053776984605e-01 -8.6627807605919149e+06 1.0000000000000000e+00 1.7141013258481060e+01 1.9550743609094601e+00 1.7102138774746980e+01 
114 1 2 4.3485512956824046e-01 -8.9980070784779713e+06 1.0000000000000000e+00 1.7090672281556316e+01 1.8859198116900320e+00 1.7106360798641685e+01 
150 1 2 4.3506512954673032e-01 -9.5286569861336648e+06 1.0000000000000000e+00 1.7131254070314430e+01 1.9188721049192445e+00 1.7110559708155282e+01 
170 1 2 7.1054702994581886e-01 -1.2634407805771234e+07 1.0000000000000000e+00 1.7278257399432064e+01 1.5219849402240259e+01 6.2145856608674244e+00 
177 1 2 7.1136996388286744e-01 -1.1535116673745152e+07 1.0000000000000000e+00 1.7249273656274333e+01 1.5458057177314169e+01 6.3414084303352265e+00 
176 1 2 6.9559116281805711e-01 -1.0687068951933930e+07 1.0000000000000000e+00 1.7305401726756756e+01 1.5617092275706293e+01 6.2094013163743726e+00 
171 1 2 7.1175579895291563e-01 -1.1194616013556639e+07 1.0000000000000000e+00 1.7159706089233257e+01 1.5213583633427271e+01 6.4070429447848474e+00 
135 1 2 6.9788332712536305e-01 -9.1442157741719168e+06 1.0000000000000000e+00 1.7040138214101379e+01 1.5077883566252028e+01 6.4442343410298255e+00 
130 1 2 5.9990739856557451e-01 -9.2006492839049604e+06 1.0000000000000000e+00 1.4096440738774325e+01 1.1642200793896214e+01 1.2711491518074387e+01 
136 1 2 6.9221689290910948e-01 -1.1660949034168713e+07 1.0000000000000000e+00 1.4127905490030985e+01 1.1754127968879207e+01 1.2975556692667254e+01 
172 1 2 4.3505683810307860e-01 -9.5227964420245457e+06 1.0000000000000000e+00 1.7731926278575553e+01 1.2488580258523704e+01 1.3141363664288630e+01 
173 1 2 4.3517891033661249e-01 -1.0471274068821406e+07 1.0000000000000000e+00 1.7702161653862930e+01 1.2499177463499874e+01 1.3193428966070480e+01 
167 1 2 4.3516435680691229e-01 -1.1207587524520483e+07 1.0000000000000000e+00 1.7720628651739624e+01 1.2470433897652827e+01 1.3196966878979930e+01 
143 1 2 4.3184851984281686e-01 -8.3344734018404046e+06 1.0000000000000000e+00 1.5154872772796754e+01 1.6616839624303452e+01 1.2000881456868139e+01 
142 1 2 4.3382436614482739e-01 -1.1794283260873649e+07 1.0000000000000000e+00 1.5277153502599896e+01 1.6642159662652755e+01 1.1858917708958991e+01 
178 1 2 4.3304406664229261e-01 -1.0791905288321923e+07 1.0000000000000000e+00 1.5318260011330645e+01 1.6645861254830987e+01 1.1827925432231142e+01 
131 1 2 9.2419254682142404e-01 -1.3224950318943944e+07 1.0000000000000000e+00 1.3907794547955621e+01 1.1816654029055760e+01 1.3820938541128180e+01 
137 1 2 9.4581541013025827e-01 -1.2160822039008560e+07 1.0000000000000000e+00 1.3845837569582741e+01 1.2012688665857606e+01 1.4243645108079509e+01 
132 1 2 8.1009793155818899e-01 -1.0732633040500565e+07 1.0000000000000000e+00 1.3876059651971428e+01 1.1796016576282099e+01 1.5141423731338765e+01 
138 1 2 8.5776693569310203e-01 -1.0504551945612619e+07 1.0000000000000000e+00 1.3811228795386633e+01 1.2199851142854012e+01 1.4831081444422077e+01 
96 1 2 8.6609828750571716e-01 -1.4761945004908938e+07 1.0000000000000000e+00 1.3577230174311172e+01 1.1645354930291791e+01 1.4873458879590194e+01 
95 1 2 8.8587308171833123e-01 -1.2107202205002170e+07 1.0000000000000000e+00 1.3456136440945352e+01 1.1508581990384359e+01 1.4574589919265888e+01 
174 1 2 6.4476934747413639e-01 -1.3004709124782702e+07 1.0000000000000000e+00 1.7662249272792852e+01 1.6145940061114025e+01 1.6511864488273226e+01 
179 1 2 6.5054208977529859e-01 -1.3394573073393730e+07 1.0000000000000000e+00 1.7683615140577125e+01 1.6240818021685893e+01 1.6514534886012896e+01 
168 1 2 4.3492124455323189e-01 -8.8399717510490082e+06 1.0000000000000000e+00 1.7370305592641408e+01 1.1869743057307604e+01 1.9712845078056155e+01 
169 1 2 4.3506071911839672e-01 -1.0558068632003341e+07 1.0000000000000000e+00 1.7377155308444280e+01 1.1894729952212991e+01 1.9768767670835427e+01 
163 1 2 4.3504430195286337e-01 -9.6640236394606214e+06 1.0000000000000000e+00 1.7382808367139809e+01 1.1877019691538967e+01 1.9776424466574554e+01 
144 1 2 6.8050764779399542e-01 -1.3355107336339448e+07 1.0000000000000000e+00 1.7540746407251028e+01 1.6409390897767477e+01 1.6991400126994563e+01 
180 1 2 6.7986406183903980e-01 -1.4657196821588585e+07 1.0000000000000000e+00 1.7601390147342794e+01 1.6459514970863967e+01 1.7057490448072631e+01 
175 1 2 5.7516687784401632e-01 -8.5330435999894664e+06 1.0000000000000000e+00 1.7803328407662200e+01 1.6700227858298984e+01 1.7727906524916300e+01 

Velocities

2 2.2752024811525171e-01 1.5164257883461665e-01 -1.2939805677181553e-02
3 2.8850433812878384e-01 2.2633839375887435e-01 -9.9701380793767849e-02
8 2.5634790253286432e-01 6.2882853933911464e-02 2.1937840044690453e-02
38 -2.9344272189296206e-01 -9.9158255643426521e-02 1.3607785425215463e-01
14 6.7774197769605538e-01 2.3287984337755963e-01 -3.2454213969687606e-01
15 6.8885564148523515e-01 2.3497765880277474e-01 -3.4368795858686080e-01
4 -9.6033286544321597e-02 7.0531391112604272e-02 5.0510057645218917e-02
10 -3.7588666839292253e-02 -1.2064809110114939e-01 2.2950693117578025e-01
46 -8.8758433399125050e-02 -1.2211571466930281e-01 2.7224694784149650e-01
41 -1.5522237180104054e-01 1.0828645284799231e-01 -4.1449014215334853e-02
40 -2.0596879557215728e-01 1.2803908393743016e-01 4.7190057764065610e-02
11 7.6604456761785067e-02 2.0014165568044223e-02 -2.9141074746225148e-01
9 2.5153336828612954e-01 -4.3168491650275653e-01 7.7481711453308399e-01
16 1.6046147980138489e-01 1.5639174043221588e-01 7.4427380138316554e-02
17 2.0729294373407608e-01 1.8241904250831412e-01 -3.0904621532107147e-02
59 -8.1318740179027460e-02 -2.7579594873661661e-01 -9.6749131380369932e-02
52 -9.0506846601504320e-02 5.1661957439595570e-02 7.0185837522259209e-02
53 -9.6029468253802860e-02 2.8776374762635983e-02 -6.3267723543087809e-02
58 -1.0124477615662290e-01 -1.3728689767519595e-01 4.5156153482300593e-02
5 1.1658892750129418e-01 1.4230625502409208e-01 -4.1875832854711215e-01
6 1.3884480160672782e-01 2.0527137378304561e-01 -6.2265301873494683e-01
12 6.3543525170381354e-01 8.5756057498951391e-02 6.7041046146318839e-02
18 5.2057203574220190e-01 -1.3558394532469481e-01 -1.3988314129163776e-01
13 5.1933530294580865e-01 -2.3633676014161986e-01 -2.9989926271684086e-01
19 6.9038549460276311e-04 1.4380097472846448e-01 -3.2225608270544874e-02
25 -2.8970792924768254e-04 4.9304285990459495e-02 -1.3493034005733349e-02
31 -4.0067756535508095e-04 -1.9310526071892398e-01 4.5718642276278205e-02
26 2.4268573793687248e-01 2.1429196469415948e-02 3.4933007848163761e-01
32 2.6961521554029538e-01 -2.5024641006857719e-02 3.5144719762891191e-01
21 -1.7298786537691083e-03 6.1819921147823666e-03 2.3399612730597335e-03
27 1.7298786537691083e-03 -6.1819921147823666e-03 -2.3399612730597335e-03
22 6.5584362225293832e-02 3.1991692986537285e-01 -6.2776809484166640e-02
23 4.5433115222444212e-02 5.0295876951836671e-01 -3.4591503460882556e-01
28 -1.9050736128706988e-02 -7.5912088631234192e-02 7.8024986741806246e-02
34 -1.9064171801414564e-02 -5.0492683958089368e-01 1.7795832118108831e-01
64 -7.1557161862119911e-02 -2.4820303990256093e-01 1.5386064148278633e-01
24 -5.9950729015809168e-02 4.9155548897250168e-01 -2.2545625988000614e-01
29 -2.3976601585286397e-03 2.6207928102513284e-01 9.3683698231395801e-02
30 7.7117446914764408e-03 6.9686929503386341e-02 1.8506625988513582e-02
35 3.0032253681078754e-02 -3.3994081673979870e-01 1.1158848763243337e-01
36 5.7922364478537859e-02 -4.8773905067272660e-01 1.7631248608522800e-02
73 -1.5280986066800517e-01 5.0191806165336073e-01 2.2472228291947813e-02
109 -1.8168002152281704e-01 5.4355457360906334e-01 1.9151477354832080e-02