LAMMPS data file via write_data, version 30 Jul 2016, timestep = 50000000

180 atoms
2 atom types

0.0000000000000000e+00 2.0000000000000000e+01 xlo xhi
0.0000000000000000e+00 2.0000000000000000e+01 ylo yhi
0.0000000000000000e+00 2.0000000000000000e+01 zlo zhi

Masses

1 3.896
2 4.31

Atoms # meso-molecular

2 1 2 5.3508108381911590e-01 -1.1190711698949227e+07 1.0000000000000000e+00 5.5764358857505414e+00 1.9058272991088825e+00 5.0394759675417786e+00 
3 1 2 5.2864962987582276e-01 -9.8369953902236577e+06 1.0000000000000000e+00 5.5212553510402262e+00 1.8449035030699976e+00 5.1014104873763442e+00 
8 1 2 5.3582648978337155e-01 -1.1411573836246731e+07 1.0000000000000000e+00 5.5605069411921155e+00 1.9703949581409139e+00 5.0146239385611429e+00 
38 1 2 4.9684779520185213e-01 -7.2351727772079799e+06 1.0000000000000000e+00 6.5991464139823828e+00 2.4945879258431543e+00 4.9165663023725630e+00 
14 1 2 5.4993912131623834e-01 -9.1560437982252538e+06 1.0000000000000000e+00 5.6284934714647754e+00 8.5809102099285965e+00 4.9377019081407996e+00 
15 1 2 5.4550699656805812e-01 -9.2494605076610222e+06 1.0000000000000000e+00 5.6186002401337412e+00 8.5790545987935491e+00 4.9564226746288664e+00 
4 1 2 8.8099723972087884e-01 -9.8870908284305334e+06 1.0000000000000000e+00 6.0082726326067304e+00 2.3197359496859091e+00 1.1813244905475454e+01 
10 1 2 7.5107771385163324e-01 -9.3470830633112192e+06 1.0000000000000000e+00 5.9051275577048399e+00 2.8182530798696233e+00 1.1054254617853509e+01 
46 1 2 7.3341337827498765e-01 -1.0108528764241884e+07 1.0000000000000000e+00 5.9609454654804575e+00 2.8328058071914537e+00 1.0976740959014149e+01 
41 1 2 8.7447878695542647e-01 -9.5767935341333952e+06 1.0000000000000000e+00 6.0734541159256841e+00 2.0982964633461241e+00 1.2358258521525530e+01 
40 1 2 8.6806458667622299e-01 -8.3391619022636171e+06 1.0000000000000000e+00 6.1683134470777343e+00 2.1950956295101069e+00 1.1911093328304638e+01 
11 1 2 7.4760343590901124e-01 -1.0699691316061016e+07 1.0000000000000000e+00 5.6680977574973666e+00 2.0251161467141241e+00 1.3242729334599922e+01 
9 1 2 4.7815301205484922e-01 -7.1275796098170839e+06 1.0000000000000000e+00 5.5769286762855153e+00 3.2778664143460956e+00 1.0189649258027700e+01 
16 1 2 8.1704016283328063e-01 -1.0616798742669983e+07 1.0000000000000000e+00 6.1962003132471342e+00 8.3566983034879030e+00 1.2292155614415245e+01 
17 1 2 8.0677182070811126e-01 -1.0191999459581645e+07 1.0000000000000000e+00 6.1264148386592350e+00 8.3172231840546349e+00 1.2441634387310005e+01 
59 1 2 7.9904430162106499e-01 -7.4926784654724263e+06 1.0000000000000000e+00 6.5847072003368288e+00 9.0453775662411697e+00 1.2546212659798096e+01 
52 1 2 8.3836158092080737e-01 -8.5707303775473759e+06 1.0000000000000000e+00 6.5829821707122909e+00 8.5339981978049924e+00 1.2300691874960924e+01 
53 1 2 8.3903255636625684e-01 -8.3026097387346216e+06 1.0000000000000000e+00 6.5937339693423276e+00 8.5718047610385764e+00 1.2492777895726659e+01 
58 1 2 8.2964295583441905e-01 -8.6312638128178064e+06 1.0000000000000000e+00 6.6096028058806180e+00 8.8266897903952710e+00 1.2340623672367299e+01 
5 1 2 6.7576386688645274e-01 -1.1410810499796968e+07 1.0000000000000000e+00 5.6109881382674152e+00 1.8458659836527540e+00 1.3491298902198549e+01 
6 1 2 5.9492571820257745e-01 -8.5313779156785626e+06 1.0000000000000000e+00 5.5796753072701657e+00 1.7557790356758027e+00 1.3769913295380601e+01 
12 1 2 5.0145493510187733e-01 -9.8862796085520554e+06 1.0000000000000000e+00 5.7833736737641672e+00 6.4615058095354456e+00 1.7542990640428382e+01 
18 1 2 5.0992192732392105e-01 -1.3645917771907041e+07 1.0000000000000000e+00 5.8713992964149089e+00 6.6131268296634902e+00 1.7685282683565283e+01 
13 1 2 5.0035131673399402e-01 -1.0975907045639215e+07 1.0000000000000000e+00 5.8575109734609789e+00 6.6851516195622995e+00 1.7797554651028548e+01 
19 1 2 4.3372515146037754e-01 -7.5319827586570969e+06 1.0000000000000000e+00 4.5240648068224472e+00 1.3498563857783232e+01 1.4476118684185457e+00 
25 1 2 4.3438113364553882e-01 -8.8078750849497095e+06 1.0000000000000000e+00 4.5246038550058421e+00 1.3551487870474684e+01 1.4370746633660128e+00 
31 1 2 4.3310437376986721e-01 -8.8274864507377762e+06 1.0000000000000000e+00 4.5246771990132606e+00 1.3689106750286333e+01 1.4035074966381051e+00 
26 1 2 7.3151428464698487e-01 -1.3406396279525544e+07 1.0000000000000000e+00 6.3622741438569070e+00 1.5976998942836738e+01 5.5352555715965073e+00 
32 1 2 7.2620521690784057e-01 -1.3269990295340588e+07 1.0000000000000000e+00 6.3286556398654836e+00 1.6033078289224182e+01 5.5308340553779125e+00 
21 1 2 2.9014114731330698e-01 -6.8664396391292727e+06 1.0000000000000000e+00 4.4060326212331997e+00 1.2360954803585079e+01 7.1686838274566131e+00 
27 1 2 2.9014114731330698e-01 -7.4302236474643145e+06 1.0000000000000000e+00 4.4047593377518384e+00 1.2365505081388500e+01 7.1704061644707009e+00 
22 1 2 6.5792560608932127e-01 -1.1377907561186124e+07 1.0000000000000000e+00 5.7871231916063177e+00 1.2790262970279292e+01 1.1558118901182203e+01 
23 1 2 6.0187094310645106e-01 -6.9860891339175832e+06 1.0000000000000000e+00 5.8025407419789010e+00 1.2557787982048515e+01 1.1862058838503462e+01 
28 1 2 6.8003117072778552e-01 -1.0936947724271694e+07 1.0000000000000000e+00 5.8802047715582297e+00 1.3267178485678475e+01 1.1375025551415666e+01 
34 1 2 6.2486292038183500e-01 -9.7679871656670645e+06 1.0000000000000000e+00 5.8870561657769072e+00 1.3747685094832343e+01 1.1248274212473985e+01 
64 1 2 6.6355071841600677e-01 -1.0320791078798998e+07 1.0000000000000000e+00 5.9333183834684400e+00 1.3465620994992854e+01 1.1287461193057712e+01 
24 1 2 6.2444130687266552e-01 -1.0219663888268586e+07 1.0000000000000000e+00 5.1032578283471963e+00 1.3776968030038061e+01 1.6156479331743260e+01 
29 1 2 6.7347738838942761e-01 -9.6128729863246828e+06 1.0000000000000000e+00 5.0132881637324056e+00 1.4058715209518613e+01 1.5812461038325855e+01 
30 1 2 6.8813641084165866e-01 -1.2610715002455607e+07 1.0000000000000000e+00 4.9989759804420224e+00 1.4275679154333112e+01 1.5878252015155082e+01 
35 1 2 6.6125178746641022e-01 -1.2744856824530806e+07 1.0000000000000000e+00 4.9658835690567518e+00 1.4760181604643204e+01 1.5773140528542672e+01 
36 1 2 6.3848201878934285e-01 -1.1155170587822551e+07 1.0000000000000000e+00 4.9367413576147401e+00 1.4923432094538603e+01 1.5861237002770654e+01 
73 1 2 5.1122999692659166e-01 -9.6481323347105440e+06 1.0000000000000000e+00 1.2120332242774394e+01 3.0463872165287196e+00 8.6654965723282495e-01 
109 1 2 5.0633141974126117e-01 -1.0171766184909750e+07 1.0000000000000000e+00 1.2142503062480467e+01 3.0113928555488614e+00 8.6867044701542828e-01 
43 1 2 2.9014087372127750e-01 -6.1498449826610601e+06 1.0000000000000000e+00 6.8269856152154889e+00 3.9254601913589418e+00 1.0170981915672066e+00 
7 1 2 2.9014087372127750e-01 -7.3825403831292074e+06 1.0000000000000000e+00 6.8214398759375028e+00 3.9240430000694992e+00 1.0173679766899819e+00 
79 1 2 5.1201230562158917e-01 -8.9565879427006561e+06 1.0000000000000000e+00 1.1812850990061465e+01 3.9946962023565220e+00 9.0532930842440973e-01 
85 1 2 5.0544083653206762e-01 -9.8273754633547235e+06 1.0000000000000000e+00 1.1813998655920653e+01 4.0512559353629030e+00 9.0903459700649514e-01 
80 1 2 5.4143474911907741e-01 -9.0582417176814564e+06 1.0000000000000000e+00 9.2385180231621060e+00 3.3061032056304582e+00 5.2874708697470547e+00 
74 1 2 4.7001682258608835e-01 -9.9593658534392137e+06 1.0000000000000000e+00 1.0132006568471088e+01 1.4490566884955562e+00 6.0691898080009175e+00 
75 1 2 4.5909347691534103e-01 -1.0247417583398294e+07 1.0000000000000000e+00 1.0164968048861734e+01 1.2820739863789956e+00 6.1991546102203632e+00 
39 1 2 4.5759353678003706e-01 -9.4932639529970884e+06 1.0000000000000000e+00 1.0135858750456848e+01 1.2540968488831370e+00 6.2161573601132929e+00 
44 1 2 5.6414818222546292e-01 -1.0722752847705988e+07 1.0000000000000000e+00 8.6210731476377180e+00 4.0460988340127191e+00 5.0799747244574984e+00 
45 1 2 5.5180490942473071e-01 -1.1532833684874127e+07 1.0000000000000000e+00 8.5689894365060439e+00 4.2295154482232071e+00 5.1155236471483523e+00 
50 1 2 5.2988918367845805e-01 -9.0021599598325510e+06 1.0000000000000000e+00 8.5113683523817087e+00 4.4250959356473674e+00 5.0724466097050431e+00 
49 1 2 5.9019413686229805e-01 -1.0854982166009726e+07 1.0000000000000000e+00 6.8859225030586799e+00 8.8769171123868560e+00 3.4743160285942620e+00 
55 1 2 5.9510670121654596e-01 -1.2123321794064190e+07 1.0000000000000000e+00 6.8636282316864774e+00 8.9393544776487914e+00 3.4908381183072690e+00 
56 1 2 6.3301447323639426e-01 -8.9804404800736271e+06 1.0000000000000000e+00 6.9897509148170256e+00 9.1958637260289340e+00 5.1641306704896852e+00 
20 1 2 6.6914551251304866e-01 -1.0439351220468728e+07 1.0000000000000000e+00 6.6890058959086369e+00 8.9640063160073620e+00 3.8797151768953366e+00 
57 1 2 4.8015203721073241e-01 -7.6705412252463857e+06 1.0000000000000000e+00 8.0076686754737771e+00 9.4257026978441445e+00 6.4308695213507825e+00 
86 1 2 7.0505720536192984e-01 -7.3137630824177507e+06 1.0000000000000000e+00 1.3214033075295571e+01 9.3234348286266790e+00 5.2605135943117443e+00 
129 1 2 7.0477541708770286e-01 -8.9893506772613171e+06 1.0000000000000000e+00 1.3231784253038445e+01 9.6106407340820752e+00 5.3238808064198526e+00 
128 1 2 7.0861764412965478e-01 -8.0387781658599591e+06 1.0000000000000000e+00 1.3252030543458348e+01 9.4753902206863341e+00 5.2757656075917954e+00 
92 1 2 6.6873468932983438e-01 -8.2162395334210135e+06 1.0000000000000000e+00 1.2938914643129106e+01 9.8532994238021061e+00 5.1154399945077076e+00 
81 1 2 7.5906068354472145e-01 -6.7635582149306498e+06 1.0000000000000000e+00 1.2326162803914881e+01 5.5760031314286209e+00 8.5482299383746376e+00 
88 1 2 8.2054758848236053e-01 -9.5475650285411663e+06 1.0000000000000000e+00 1.2109857036938921e+01 5.7919517058913659e+00 9.1934499078642169e+00 
87 1 2 7.7553232804582439e-01 -6.3897576988625452e+06 1.0000000000000000e+00 1.1910827049986082e+01 5.9194162320405486e+00 8.8994193927943233e+00 
82 1 2 8.1806508670769662e-01 -9.5737945452047307e+06 1.0000000000000000e+00 1.2396177669402213e+01 5.5925566790117376e+00 9.3839982802889690e+00 
118 1 2 8.0653941812938290e-01 -9.3653006382423900e+06 1.0000000000000000e+00 1.2528043528864343e+01 5.5633307328153760e+00 9.4081273144380635e+00 
124 1 2 7.8991740758625173e-01 -1.0357687634322450e+07 1.0000000000000000e+00 1.2557963210014533e+01 5.6948456145111761e+00 9.5504928678483498e+00 
93 1 2 4.3096892443085849e-01 -8.2493921357650338e+06 1.0000000000000000e+00 8.6296052708243156e+00 9.2907331756828615e+00 7.0181617030981434e+00 
51 1 2 4.3275335373517393e-01 -8.5694504975425582e+06 1.0000000000000000e+00 8.6109927286994221e+00 9.2840140777093936e+00 7.0102111565546270e+00 
47 1 2 4.3507768457262463e-01 -8.1340648352583703e+06 1.0000000000000000e+00 1.0192950627767695e+01 5.0244547145156782e+00 1.3186390548247507e+01 
83 1 2 4.3489756895990844e-01 -6.6887650212293277e+06 1.0000000000000000e+00 1.0215350680647971e+01 4.9813350403528274e+00 1.3198661685773764e+01 
89 1 2 4.3494427118436979e-01 -8.0374520225716494e+06 1.0000000000000000e+00 1.0201453593631848e+01 5.0582395366761341e+00 1.3189399353209954e+01 
42 1 2 5.6880814279216252e-01 -9.5855001551787481e+06 1.0000000000000000e+00 9.9890502497057430e+00 2.4660559889488716e+00 1.6542700854613706e+01 
77 1 2 5.7140515363980604e-01 -8.6179111780997347e+06 1.0000000000000000e+00 1.0311039335640002e+01 2.4917193451316648e+00 1.6274802253763973e+01 
84 1 2 5.7590757271557724e-01 -9.6817238136928007e+06 1.0000000000000000e+00 1.0168536595405783e+01 2.5628450259451450e+00 1.6436680930883178e+01 
78 1 2 5.7565242746080370e-01 -1.0813577943389324e+07 1.0000000000000000e+00 1.0258766650364938e+01 2.4747977754658659e+00 1.6406320834395625e+01 
48 1 2 4.6911115788584962e-01 -9.3556466876318678e+06 1.0000000000000000e+00 8.3512489128290266e+00 6.0896944288273875e+00 1.7132687003079166e+01 
90 1 2 4.7000848873590950e-01 -1.1198317802720997e+07 1.0000000000000000e+00 8.3694562387964098e+00 6.2045599525431703e+00 1.7153085718104077e+01 
54 1 2 5.3955717502599254e-01 -1.1332775962076897e+07 1.0000000000000000e+00 7.8080228838471193e+00 6.2597580158145929e+00 1.7199418598112867e+01 
91 1 2 8.7236791458758112e-01 -1.2004615928397158e+07 1.0000000000000000e+00 1.2267427226042829e+01 1.2380823726029785e+01 1.8879639001193638e+00 
97 1 2 8.9430638941005813e-01 -1.1771454650653906e+07 1.0000000000000000e+00 1.2428729773817773e+01 1.2583699016660864e+01 1.8269990252159651e+00 
98 1 2 8.6407433797638999e-01 -9.6976842532174941e+06 1.0000000000000000e+00 1.1972020752165379e+01 1.2764431748486675e+01 2.4773677334281472e+00 
127 1 2 8.4608587736967855e-01 -1.0831430348739773e+07 1.0000000000000000e+00 1.2524572599888765e+01 1.2397785008101543e+01 1.7102490800335850e+00 
62 1 2 8.0825001227156101e-01 -8.7851246343499403e+06 1.0000000000000000e+00 1.1757829332660304e+01 1.2729878357896444e+01 2.5559164470194178e+00 
134 1 2 8.7724296457475592e-01 -8.8847800611981861e+06 1.0000000000000000e+00 1.2635490692297774e+01 1.3296000111070990e+01 2.1912629600305622e+00 
139 1 2 3.3414785414701753e-01 -8.3628134820018876e+06 1.0000000000000000e+00 1.3012496905925865e+01 1.5912381176196559e+01 1.7890317567736309e+00 
133 1 2 8.1047913764694057e-01 -7.7218917423029197e+06 1.0000000000000000e+00 1.2756831497240771e+01 1.3612606413224391e+01 2.0516863826067264e+00 
103 1 2 3.3009414604844384e-01 -7.9535140157502117e+06 1.0000000000000000e+00 1.3003658316663264e+01 1.5956205645480241e+01 1.7866641414705642e+00 
67 1 2 4.3485669469543442e-01 -8.8481224550044183e+06 1.0000000000000000e+00 7.1970159711182253e+00 1.9233952107815188e+01 5.0087318610841858e-01 
37 1 2 4.3505211475295791e-01 -8.9993735314910468e+06 1.0000000000000000e+00 7.1791808202043974e+00 1.9293776915972007e+01 5.1407558059638303e-01 
1 1 2 4.3499092107851317e-01 -9.1404255714852884e+06 1.0000000000000000e+00 7.1628095047111833e+00 1.9301376857774081e+01 5.0751063253558293e-01 
68 1 2 8.0581776077244405e-01 -1.4614738717314698e+07 1.0000000000000000e+00 6.8528901898626149e+00 1.6037817161812598e+01 6.0755596608407840e+00 
69 1 2 7.8537906132642221e-01 -1.1751725514684336e+07 1.0000000000000000e+00 6.8774148447623755e+00 1.6160642560610274e+01 6.3507619172366407e+00 
33 1 2 7.8233906462142833e-01 -1.1186920583496734e+07 1.0000000000000000e+00 6.8154422659606704e+00 1.6192445007088001e+01 6.3793077675437679e+00 
63 1 2 6.9964336725733367e-01 -8.6527611583732218e+06 1.0000000000000000e+00 7.1830079510810618e+00 1.5560566495868564e+01 6.5380606846411595e+00 
141 1 2 5.9413160304999435e-01 -9.2978679358645659e+06 1.0000000000000000e+00 1.2540660301027033e+01 1.6625055254221483e+01 6.2952590629824252e+00 
99 1 2 6.0989971510174390e-01 -1.0639716154447310e+07 1.0000000000000000e+00 1.2302048185284333e+01 1.6561900259569288e+01 6.6050713751772943e+00 
104 1 2 5.8819758508512654e-01 -9.6015756708376948e+06 1.0000000000000000e+00 1.2502997311918788e+01 1.6650288758694330e+01 6.1878920425800343e+00 
140 1 2 5.8407667577830336e-01 -8.2161232385101058e+06 1.0000000000000000e+00 1.2582735727942044e+01 1.6663529434569710e+01 6.1786995092056678e+00 
70 1 2 4.4871511744676523e-01 -8.1629983472517617e+06 1.0000000000000000e+00 1.0929241930747853e+01 1.7030370020801072e+01 8.9292402265472042e+00 
106 1 2 4.5461459198157539e-01 -8.2893174469731608e+06 1.0000000000000000e+00 1.0977641070963600e+01 1.7010790753691101e+01 8.8896078935002620e+00 
105 1 2 4.8497655498160847e-01 -9.1610422447382808e+06 1.0000000000000000e+00 1.1164438978738529e+01 1.6960766026176145e+01 8.5965724749110493e+00 
94 1 2 2.9016820699966323e-01 -5.3423422755240090e+06 1.0000000000000000e+00 1.1020077396287441e+01 1.2232031644744653e+01 1.0610236438324106e+01 
100 1 2 2.9016848449297550e-01 -5.6338103774182666e+06 1.0000000000000000e+00 1.1019870790339468e+01 1.2235767796110117e+01 1.0612736448163783e+01 
65 1 2 6.8130835554556446e-01 -1.0125765752281958e+07 1.0000000000000000e+00 9.4170002376280468e+00 1.5160116015800117e+01 1.4342396202900408e+01 
71 1 2 7.5963616357542685e-01 -1.3036153947592368e+07 1.0000000000000000e+00 9.4307878024368126e+00 1.5544622385592621e+01 1.4628555005831275e+01 
101 1 2 6.9280320257206196e-01 -1.0817412378787149e+07 1.0000000000000000e+00 9.4491627796571827e+00 1.5178353417084486e+01 1.4387843233046272e+01 
72 1 2 6.8182178528316273e-01 -1.1193002920033844e+07 1.0000000000000000e+00 9.5481396019740252e+00 1.5870475097388908e+01 1.5704503983464996e+01 
107 1 2 7.4243888035492167e-01 -1.2382579391171923e+07 1.0000000000000000e+00 9.6759646537438329e+00 1.6071517815958938e+01 1.5079825168619069e+01 
108 1 2 6.9543690435888450e-01 -1.2213666497529432e+07 1.0000000000000000e+00 9.6650187335451907e+00 1.6119569824484099e+01 1.5477311891168982e+01 
60 1 2 5.6992303475393880e-01 -1.2414931318549527e+07 1.0000000000000000e+00 8.3183525176538371e+00 1.3319681284004202e+01 1.7681930020503394e+01 
102 1 2 5.7026440181852955e-01 -1.2766254089139549e+07 1.0000000000000000e+00 8.5992814071974522e+00 1.3680736347156877e+01 1.7677277268109989e+01 
66 1 2 5.7362198610210113e-01 -1.2627727902537854e+07 1.0000000000000000e+00 8.3428487261497377e+00 1.3403176225729631e+01 1.7644620563716892e+01 
61 1 2 5.7365423802569770e-01 -1.2166618524320003e+07 1.0000000000000000e+00 8.4811127094881531e+00 1.3538223188284624e+01 1.7827159470004297e+01 
145 1 2 4.3507194332086679e-01 -7.5535730752961626e+06 1.0000000000000000e+00 1.8458411014096814e+01 2.8277452102599141e+00 3.2709249903601023e+00 
146 1 2 4.3512289476242144e-01 -7.6236076196223404e+06 1.0000000000000000e+00 1.8456364266770407e+01 2.8312990399335329e+00 3.2911242547446462e+00 
152 1 2 4.3501255511724529e-01 -8.7853145681878012e+06 1.0000000000000000e+00 1.8460952094658023e+01 2.8729966131984339e+00 3.3085302569163302e+00 
115 1 2 5.7645679266596939e-01 -8.8397668577289116e+06 1.0000000000000000e+00 1.6218236728803792e+01 6.2845314427280972e+00 9.0757283611247752e-01 
151 1 2 5.7409273053029131e-01 -8.3067469930543294e+06 1.0000000000000000e+00 1.6270918566054529e+01 6.2296941668085770e+00 9.1655413614951375e-01 
121 1 2 5.7578339466391315e-01 -8.5527295863087233e+06 1.0000000000000000e+00 1.6174712211040234e+01 6.4897614920622306e+00 8.8347674761861139e-01 
157 1 2 5.7502633470760456e-01 -8.7842265412785020e+06 1.0000000000000000e+00 1.6212504871695668e+01 6.5188095120327469e+00 8.8244613396117011e-01 
116 1 2 2.9309152105499109e-01 -5.3968943829271505e+06 1.0000000000000000e+00 1.3724913226559382e+01 5.0874241779805658e+00 5.7580832847775634e+00 
117 1 2 2.9332269422555834e-01 -4.8159600780387484e+06 1.0000000000000000e+00 1.3715182216722203e+01 5.0864207352747801e+00 5.7728484788950967e+00 
122 1 2 6.7971133924468796e-01 -5.5451895880894298e+06 1.0000000000000000e+00 1.3412765653900632e+01 9.1095429704165429e+00 5.2999873267675390e+00 
123 1 2 7.0754151109375851e-01 -1.1149607835049938e+07 1.0000000000000000e+00 1.6725899650292149e+01 8.8834318001867043e+00 6.3615753167341076e+00 
158 1 2 7.2130338404685268e-01 -1.2959518814674009e+07 1.0000000000000000e+00 1.7038929085644355e+01 8.9057679551507345e+00 6.2750617223233611e+00 
159 1 2 7.4562929184703608e-01 -1.3152531629243832e+07 1.0000000000000000e+00 1.7089913365515766e+01 8.9480529746609321e+00 6.4706343546277152e+00 
164 1 2 7.1200398142437382e-01 -1.1288264753480392e+07 1.0000000000000000e+00 1.7118533670180856e+01 9.0465157719712934e+00 6.1960020084975262e+00 
110 1 2 5.8609730271114435e-01 -9.7559268296408951e+06 1.0000000000000000e+00 1.6482310835447027e+01 1.7088953458840948e+00 7.1414281467653193e+00 
111 1 2 6.0879377850880678e-01 -1.1285402721790051e+07 1.0000000000000000e+00 1.6512079100482918e+01 1.7457221382517363e+00 7.2171960446565011e+00 
147 1 2 7.4935513080786698e-01 -1.4117405421712805e+07 1.0000000000000000e+00 1.6952930290086577e+01 2.3012744227522086e+00 7.9547073058246323e+00 
148 1 2 7.1835140950027232e-01 -1.1858553920811001e+07 1.0000000000000000e+00 1.7089344112543298e+01 2.4051209478326796e+00 8.3191378806700875e+00 
153 1 2 6.7166655089444904e-01 -1.0362648519323573e+07 1.0000000000000000e+00 1.7151538563654743e+01 2.9293753501046491e+00 8.3105599947183713e+00 
154 1 2 6.6115018727255725e-01 -9.6570771689220369e+06 1.0000000000000000e+00 1.7156720946173806e+01 2.9616621426042027e+00 8.3537220247116437e+00 
165 1 2 6.4505664933817930e-01 -1.0940315494293701e+07 1.0000000000000000e+00 1.7364397750112317e+01 9.2735147833241545e+00 7.5547797789138560e+00 
166 1 2 5.3175598509648203e-01 -7.8303886499731001e+06 1.0000000000000000e+00 1.7465375636952245e+01 9.3078914988421531e+00 7.9640704521642176e+00 
113 1 2 5.9243007805770109e-01 -6.9126347025341885e+06 1.0000000000000000e+00 1.5303097668819566e+01 2.1916481963582490e+00 1.3198239070487968e+01 
112 1 2 3.3787031117384136e-01 -6.6742074581315815e+06 1.0000000000000000e+00 1.3505331454329955e+01 1.3304714370207815e+00 1.1968755599665595e+01 
76 1 2 3.2489561652422044e-01 -7.2140935652047927e+06 1.0000000000000000e+00 1.3406100338839286e+01 1.2831784274399443e+00 1.1906347185483018e+01 
160 1 2 2.9013417762092530e-01 -6.2393361878732136e+06 1.0000000000000000e+00 1.7820818222675928e+01 7.5791910159119746e+00 1.1757811369671781e+01 
161 1 2 2.9013417762092530e-01 -6.8407605088589611e+06 1.0000000000000000e+00 1.7821326967673233e+01 7.5724899597453117e+00 1.1770937962859486e+01 
149 1 2 5.8359238866918861e-01 -9.8389859495143145e+06 1.0000000000000000e+00 1.5718271869009286e+01 2.3021302127846326e+00 1.3419874406672921e+01 
119 1 2 5.7689050873732117e-01 -8.6330333573520854e+06 1.0000000000000000e+00 1.5678117678902321e+01 2.4937749020293429e+00 1.3543798772740905e+01 
155 1 2 5.7051612523528783e-01 -9.6501592926436514e+06 1.0000000000000000e+00 1.5776797216704313e+01 2.4837526678073294e+00 1.3571670672396504e+01 
120 1 2 5.3663994571763285e-01 -9.4293416420251485e+06 1.0000000000000000e+00 1.5825208592223660e+01 5.6592643761763073e+00 1.5628120364154420e+01 
162 1 2 5.6609052006892469e-01 -1.0624707198266530e+07 1.0000000000000000e+00 1.5882597684922574e+01 6.2878310629791248e+00 1.5692109116374901e+01 
126 1 2 5.6527785390683571e-01 -1.0183726571113152e+07 1.0000000000000000e+00 1.5846309821585269e+01 6.3076859283616908e+00 1.5702778651270703e+01 
125 1 2 5.6536994773615024e-01 -1.0089881192330664e+07 1.0000000000000000e+00 1.5862025622609622e+01 6.3083225389074764e+00 1.5658366876494918e+01 
156 1 2 4.3484627527846392e-01 -8.6618321989981923e+06 1.0000000000000000e+00 1.7142814310503532e+01 1.9580710940542354e+00 1.7101980549237545e+01 
114 1 2 4.3479288945694194e-01 -8.9969082800879087e+06 1.0000000000000000e+00 1.7088146774981727e+01 1.8829575301610790e+00 1.7106582968892571e+01 
150 1 2 4.3504002389943947e-01 -9.5282516718957741e+06 1.0000000000000000e+00 1.7132215651420701e+01 1.9187416613880435e+00 1.7111106578622131e+01 
170 1 2 7.0930229398160660e-01 -1.2626766767060991e+07 1.0000000000000000e+00 1.7281394533100947e+01 1.5215680439883506e+01 6.2098102174110661e+00 
177 1 2 7.1021394750206290e-01 -1.1528072764616242e+07 1.0000000000000000e+00 1.7250986291405958e+01 1.5463912531785549e+01 6.3423415393680980e+00 
176 1 2 6.9320657226492643e-01 -1.0673160210458722e+07 1.0000000000000000e+00 1.7309303154049335e+01 1.5629191773688289e+01 6.2047843009007551e+00 
171 1 2 7.1063859706350030e-01 -1.1187843888489420e+07 1.0000000000000000e+00 1.7157806802994187e+01 1.5209410331728419e+01 6.4105941957124095e+00 
135 1 2 6.9567408271575926e-01 -9.1313175030043107e+06 1.0000000000000000e+00 1.7033286304247543e+01 1.5068270977853402e+01 6.4491424399998127e+00 
130 1 2 5.8639506201172831e-01 -9.1424722546763998e+06 1.0000000000000000e+00 1.4101245949891446e+01 1.1637472834861486e+01 1.2681639596556259e+01 
136 1 2 6.8098033440709160e-01 -1.1621913053992787e+07 1.0000000000000000e+00 1.4132559537811716e+01 1.1753812869373119e+01 1.2955376977724100e+01 
172 1 2 4.3501048683588889e-01 -9.5218814306571465e+06 1.0000000000000000e+00 1.7733861616531797e+01 1.2488959732627539e+01 1.3138311977028735e+01 
173 1 2 4.3515084815295030e-01 -1.0470732303739803e+07 1.0000000000000000e+00 1.7701658483170966e+01 1.2500520216882746e+01 1.3194901684164325e+01 
167 1 2 4.3513518992046885e-01 -1.1207012825198308e+07 1.0000000000000000e+00 1.7721661231604436e+01 1.2469240799906350e+01 1.3198745174268080e+01 
143 1 2 4.3128936341601326e-01 -8.3241584343410274e+06 1.0000000000000000e+00 1.5147230069881507e+01 1.6615384287487899e+01 1.2009311942130017e+01 
142 1 2 4.3359354130283256e-01 -1.1789947981065420e+07 1.0000000000000000e+00 1.5279273661881133e+01 1.6642739320936197e+01 1.1855967062940440e+01 
178 1 2 4.3268262291446419e-01 -1.0785265695500920e+07 1.0000000000000000e+00 1.5323782554964906e+01 1.6646736933362426e+01 1.1822445592987915e+01 
131 1 2 9.1697839116251656e-01 -1.3204029407775965e+07 1.0000000000000000e+00 1.3908126161129861e+01 1.1817527970442809e+01 1.3819334367525460e+01 
137 1 2 9.3891960613471526e-01 -1.2140508617716646e+07 1.0000000000000000e+00 1.3845704987652933e+01 1.2017424203531421e+01 1.4246719596132115e+01 
132 1 2 8.0208402985773319e-01 -1.0704522983670961e+07 1.0000000000000000e+00 1.3878599414995742e+01 1.1795586350613000e+01 1.5159726067836667e+01 
138 1 2 8.4991299258331199e-01 -1.0478470349921538e+07 1.0000000000000000e+00 1.3811369199270750e+01 1.2209616660701204e+01 1.4842647265861956e+01 
96 1 2 8.5900560933380732e-01 -1.4738471916241471e+07 1.0000000000000000e+00 1.3571818599830587e+01 1.1641509076347837e+01 1.4885614101870113e+01 
95 1 2 8.7792418635119684e-01 -1.2082090132617906e+07 1.0000000000000000e+00 1.3447658588144529e+01 1.1501823471588086e+01 1.4581553044596914e+01 
174 1 2 6.3942181300588474e-01 -1.2969898515061921e+07 1.0000000000000000e+00 1.7662692932305308e+01 1.6136209916840610e+01 1.6495129266295084e+01 
179 1 2 6.4555506183392486e-01 -1.3362105127589665e+07 1.0000000000000000e+00 1.7685096385761778e+01 1.6235565325516731e+01 1.6497641866723431e+01 
168 1 2 4.3486860672166855e-01 -8.8389371798420418e+06 1.0000000000000000e+00 1.7369748084767835e+01 1.1868812852331819e+01 1.9709401698507982e+01 
169 1 2 4.3503319567174298e-01 -1.0557526052510856e+07 1.0000000000000000e+00 1.7377186118608922e+01 1.1895973121000569e+01 1.9770154830575738e+01 
163 1 2 4.3501381411899948e-01 -9.6634237047494408e+06 1.0000000000000000e+00 1.7383335064848900e+01 1.1876706727727132e+01 1.9778480686382355e+01 
144 1 2 6.7721818416885360e-01 -1.3332752266793588e+07 1.0000000000000000e+00 1.7535428863447645e+01 1.6410184469459377e+01 1.6992844363442586e+01 
180 1 2 6.7652690626656498e-01 -1.4634663530385828e+07 1.0000000000000000e+00 1.7598940747333167e+01 1.6462404166627199e+01 1.7061364796114745e+01 
175 1 2 5.6548328058793196e-01 -8.4685277392349113e+06 1.0000000000000000e+00 1.7809170446777934e+01 1.6711527931286323e+01 1.7756216181693237e+01 

Velocities

2 2.2409249642004045e-01 1.4987696325154726e-01 -1.3173312543934501e-02
3 2.8789908943562631e-01 2.2808237428108857e-01 -1.0401702797550841e-01
8 2.5459537189128845e-01 5.6774165567835981e-02 2.3341630535154367e-02
38 -2.9517569744627775e-01 -9.5074737865833800e-02 1.3978309850926685e-01
14 6.8075098092288810e-01 2.3612338202986566e-01 -3.3240170084296916e-01
15 6.9234322381037083e-01 2.3829137273758688e-01 -3.5269052749965213e-01
4 -9.7371708165554058e-02 7.3068554394546514e-02 5.0062070553102966e-02
10 -3.8019113758343735e-02 -1.1933480394580837e-01 2.2315206792697156e-01
46 -9.1599804390377682e-02 -1.2020168062002561e-01 2.6645745060766457e-01
41 -1.5910711109350925e-01 1.1040498873649908e-01 -4.1350365441541720e-02
40 -2.1196197841718598e-01 1.3247645546942130e-01 4.7688173247245516e-02
11 7.8530541402206847e-02 1.4490390493528278e-02 -2.8668319305288908e-01
9 2.5999731470209086e-01 -4.3592043166939537e-01 7.7801059469593337e-01
16 1.6246693016020086e-01 1.5810535602705753e-01 7.5685973224861383e-02
17 2.1010616893179820e-01 1.8456476444046452e-01 -3.1690963519739622e-02
59 -8.2301937573925538e-02 -2.7828547439785767e-01 -9.8535329841911823e-02
52 -9.1973613951284575e-02 5.2533996023998476e-02 7.1414184027153008e-02
53 -9.7479119945888315e-02 2.9447295169832521e-02 -6.4395884537737993e-02
58 -1.0255236872950529e-01 -1.3853647835063379e-01 4.6078114810819762e-02
5 1.1876291110013110e-01 1.4005121588601288e-01 -4.1390778453269711e-01
6 1.4076894862054190e-01 2.0496531125522124e-01 -6.2342901400379003e-01
12 6.2339674494665454e-01 9.9450727133776784e-02 8.1799994156000672e-02
18 5.0261190643054598e-01 -1.3519493940339566e-01 -1.3735933221697888e-01
13 4.9977173701998823e-01 -2.4168289113675939e-01 -3.0690204167221452e-01
19 7.3338504908347310e-04 1.5233886197353813e-01 -3.4129608719946906e-02
25 -3.0976636565287609e-04 5.2089857518636498e-02 -1.4272492076971037e-02
31 -4.2361868343059701e-04 -2.0442871949217462e-01 4.8402100796917938e-02
26 2.4618280111036267e-01 2.2636378296490244e-02 3.5468893383641131e-01
32 2.7393364943254800e-01 -2.5356045641581823e-02 3.5675581088543706e-01
21 -1.9341853832947635e-03 6.9121141883452114e-03 2.6163216019995583e-03
27 1.9341853832947635e-03 -6.9121141883452114e-03 -2.6163216019995583e-03
22 6.7167431280772363e-02 3.2491859395599448e-01 -6.1987890603296104e-02
23 4.6321256567852527e-02 5.0947111368250486e-01 -3.5291070249869921e-01
28 -1.9412365797165324e-02 -7.6235997365650843e-02 7.9456641242158982e-02
34 -1.8828093677783545e-02 -5.1449288263824688e-01 1.8027600363469401e-01
64 -7.3514287265071282e-02 -2.5149028654746325e-01 1.5660985406169747e-01
24 -5.9477626239310417e-02 4.9980883603833215e-01 -2.3021213470860785e-01
29 -2.2180457369176242e-03 2.6668360447023554e-01 9.7286081415454764e-02
30 7.8737571417579321e-03 7.0576255395552318e-02 1.9006317952992464e-02
35 3.0030248191838600e-02 -3.4504760009353608e-01 1.1399595091846233e-01
36 5.8739966848860646e-02 -4.9647625560131420e-01 1.6601809637791228e-02
73 -1.5553973020406617e-01 5.1186928423592803e-01 2.3015428406652726e-02
109 -1.8586671889377313e-01 5.5519696927217355e-01 1.9468833260988357e-02