LAMMPS data file via write_data, version 30 Jul 2016, timestep = 600000

2080 atoms
8 atom types

0.0000000000000000e+00 4.0000000000000000e+01 xlo xhi
0.0000000000000000e+00 4.0000000000000000e+01 ylo yhi
0.0000000000000000e+00 1.0000000000000000e+02 zlo zhi

Masses

1 3.896
2 4.306
3 20.064
4 8.378
5 8.378
6 8.378
7 8.378
8 8.378

Atoms # meso-molecular

1 2 4 2.2559723595316457e+00 0.0000000000000000e+00 1.0000000000000000e+00 0.0000000000000000e+00 0.0000000000000000e+00 2.5000000000000000e+00 
2 2 4 2.2559723595316457e+00 -1.6716508710767068e-02 1.0000000000000000e+00 0.0000000000000000e+00 2.0000000000000000e+00 2.5000000000000000e+00 
3 2 4 2.2559723595316457e+00 -2.7130116678604210e-01 1.0000000000000000e+00 0.0000000000000000e+00 4.0000000000000000e+00 2.5000000000000000e+00 
4 2 4 2.2559723595316457e+00 -1.1356503866158285e+00 1.0000000000000000e+00 0.0000000000000000e+00 6.0000000000000000e+00 2.5000000000000000e+00 
5 2 4 2.2559723595316457e+00 -2.7960797156855008e+00 1.0000000000000000e+00 0.0000000000000000e+00 8.0000000000000000e+00 2.5000000000000000e+00 
6 2 4 2.2559723595316457e+00 -5.0299739995690267e+00 1.0000000000000000e+00 0.0000000000000000e+00 1.0000000000000000e+01 2.5000000000000000e+00 
7 2 4 2.2559723595316457e+00 -7.2679786566768847e+00 1.0000000000000000e+00 0.0000000000000000e+00 1.2000000000000000e+01 2.5000000000000000e+00 
8 2 4 2.2559723595316457e+00 -8.9647960699308058e+00 1.0000000000000000e+00 0.0000000000000000e+00 1.4000000000000000e+01 2.5000000000000000e+00 
9 2 4 2.2559723595316457e+00 -9.9170843444423014e+00 1.0000000000000000e+00 0.0000000000000000e+00 1.6000000000000000e+01 2.5000000000000000e+00 
10 2 4 2.2559723595316457e+00 -1.0294358957399789e+01 1.0000000000000000e+00 0.0000000000000000e+00 1.8000000000000000e+01 2.5000000000000000e+00 
21 2 4 2.2559723595316457e+00 -1.8899364445315955e-01 1.0000000000000000e+00 2.0000000000000000e+00 0.0000000000000000e+00 2.5000000000000000e+00 
22 2 4 2.2559723595316457e+00 -1.6479006728591565e+00 1.0000000000000000e+00 2.0000000000000000e+00 2.0000000000000000e+00 2.5000000000000000e+00 
23 2 4 2.2559723595316457e+00 -6.3277278675904221e+00 1.0000000000000000e+00 2.0000000000000000e+00 4.0000000000000000e+00 2.5000000000000000e+00 
24 2 4 2.2559723595316457e+00 -1.6121648914853431e+01 1.0000000000000000e+00 2.0000000000000000e+00 6.0000000000000000e+00 2.5000000000000000e+00 
25 2 4 2.2559723595316457e+00 -3.1555315683855326e+01 1.0000000000000000e+00 2.0000000000000000e+00 8.0000000000000000e+00 2.5000000000000000e+00 
26 2 4 2.2559723595316457e+00 -5.0938044405723950e+01 1.0000000000000000e+00 2.0000000000000000e+00 1.0000000000000000e+01 2.5000000000000000e+00 
27 2 4 2.2559723595316457e+00 -7.0630647541677149e+01 1.0000000000000000e+00 2.0000000000000000e+00 1.2000000000000000e+01 2.5000000000000000e+00 
28 2 4 2.2559723595316457e+00 -8.6836847167617279e+01 1.0000000000000000e+00 2.0000000000000000e+00 1.4000000000000000e+01 2.5000000000000000e+00 
29 2 4 2.2559723595316457e+00 -9.7471862913877700e+01 1.0000000000000000e+00 2.0000000000000000e+00 1.6000000000000000e+01 2.5000000000000000e+00 
30 2 4 2.2559723595316457e+00 -1.0240430145730846e+02 1.0000000000000000e+00 2.0000000000000000e+00 1.8000000000000000e+01 2.5000000000000000e+00 
41 2 4 2.2559723595316457e+00 -3.5696512629810129e+00 1.0000000000000000e+00 4.0000000000000000e+00 0.0000000000000000e+00 2.5000000000000000e+00 
42 2 4 2.2559723595316457e+00 -1.3866309420095185e+01 1.0000000000000000e+00 4.0000000000000000e+00 2.0000000000000000e+00 2.5000000000000000e+00 
43 2 4 2.2559723595316457e+00 -3.9245103415619838e+01 1.0000000000000000e+00 4.0000000000000000e+00 4.0000000000000000e+00 2.5000000000000000e+00 
44 2 4 2.2559723595316457e+00 -8.5106801939815625e+01 1.0000000000000000e+00 4.0000000000000000e+00 6.0000000000000000e+00 2.5000000000000000e+00 
45 2 4 2.2559723595316457e+00 -1.5147294726163040e+02 1.0000000000000000e+00 4.0000000000000000e+00 8.0000000000000000e+00 2.5000000000000000e+00 
46 2 4 2.2559723595316457e+00 -2.3084880029150571e+02 1.0000000000000000e+00 4.0000000000000000e+00 1.0000000000000000e+01 2.5000000000000000e+00 
47 2 4 2.2559723595316457e+00 -3.1091791805621142e+02 1.0000000000000000e+00 4.0000000000000000e+00 1.2000000000000000e+01 2.5000000000000000e+00 
48 2 4 2.2559723595316457e+00 -3.7927097815127200e+02 1.0000000000000000e+00 4.0000000000000000e+00 1.4000000000000000e+01 2.5000000000000000e+00 
49 2 4 2.2559723595316457e+00 -4.2675083316511586e+02 1.0000000000000000e+00 4.0000000000000000e+00 1.6000000000000000e+01 2.5000000000000000e+00 
50 2 4 2.2559723595316457e+00 -4.5024764685005698e+02 1.0000000000000000e+00 4.0000000000000000e+00 1.8000000000000000e+01 2.5000000000000000e+00 
61 2 4 2.2559723595316457e+00 -2.0646695115148436e+01 1.0000000000000000e+00 6.0000000000000000e+00 0.0000000000000000e+00 2.5000000000000000e+00 
62 2 4 2.2559723595316457e+00 -5.8072212177922346e+01 1.0000000000000000e+00 6.0000000000000000e+00 2.0000000000000000e+00 2.5000000000000000e+00 
63 2 4 2.2559723595316457e+00 -1.4173947381384860e+02 1.0000000000000000e+00 6.0000000000000000e+00 4.0000000000000000e+00 2.5000000000000000e+00 
64 2 4 2.2559723595316457e+00 -2.8005726741035585e+02 1.0000000000000000e+00 6.0000000000000000e+00 6.0000000000000000e+00 2.5000000000000000e+00 
65 2 4 2.2559723595316457e+00 -4.6965488658890990e+02 1.0000000000000000e+00 6.0000000000000000e+00 8.0000000000000000e+00 2.5000000000000000e+00 
66 2 4 2.2559723595316457e+00 -6.9182880732440367e+02 1.0000000000000000e+00 6.0000000000000000e+00 1.0000000000000000e+01 2.5000000000000000e+00 
67 2 4 2.2559723595316457e+00 -9.1648247660094432e+02 1.0000000000000000e+00 6.0000000000000000e+00 1.2000000000000000e+01 2.5000000000000000e+00 
68 2 4 2.2559723595316457e+00 -1.1097605068545793e+03 1.0000000000000000e+00 6.0000000000000000e+00 1.4000000000000000e+01 2.5000000000000000e+00 
69 2 4 2.2559723595316457e+00 -1.2468353599138895e+03 1.0000000000000000e+00 6.0000000000000000e+00 1.6000000000000000e+01 2.5000000000000000e+00 
70 2 4 2.2559723595316457e+00 -1.3169216139509649e+03 1.0000000000000000e+00 6.0000000000000000e+00 1.8000000000000000e+01 2.5000000000000000e+00 
81 2 4 2.2559723595316457e+00 -7.0524627917793168e+01 1.0000000000000000e+00 8.0000000000000000e+00 0.0000000000000000e+00 2.5000000000000000e+00 
82 2 4 2.2559723595316457e+00 -1.6549695421929951e+02 1.0000000000000000e+00 8.0000000000000000e+00 2.0000000000000000e+00 2.5000000000000000e+00 
83 2 4 2.2559723595316457e+00 -3.6712859947251701e+02 1.0000000000000000e+00 8.0000000000000000e+00 4.0000000000000000e+00 2.5000000000000000e+00 
84 2 4 2.2559723595316457e+00 -6.8500893101326483e+02 1.0000000000000000e+00 8.0000000000000000e+00 6.0000000000000000e+00 2.5000000000000000e+00 
85 2 4 2.2559723595316457e+00 -1.1091258996717454e+03 1.0000000000000000e+00 8.0000000000000000e+00 8.0000000000000000e+00 2.5000000000000000e+00 
86 2 4 2.2559723595316457e+00 -1.6009474062753879e+03 1.0000000000000000e+00 8.0000000000000000e+00 1.0000000000000000e+01 2.5000000000000000e+00 
87 2 4 2.2559723595316457e+00 -2.0956904874848442e+03 1.0000000000000000e+00 8.0000000000000000e+00 1.2000000000000000e+01 2.5000000000000000e+00 
88 2 4 2.2559723595316457e+00 -2.5234175641642596e+03 1.0000000000000000e+00 8.0000000000000000e+00 1.4000000000000000e+01 2.5000000000000000e+00 
89 2 4 2.2559723595316457e+00 -2.8328734200270046e+03 1.0000000000000000e+00 8.0000000000000000e+00 1.6000000000000000e+01 2.5000000000000000e+00 
90 2 4 2.2559723595316457e+00 -2.9942949123842486e+03 1.0000000000000000e+00 8.0000000000000000e+00 1.8000000000000000e+01 2.5000000000000000e+00 
101 2 4 2.2559723595316457e+00 -1.7315343424461548e+02 1.0000000000000000e+00 1.0000000000000000e+01 0.0000000000000000e+00 2.5000000000000000e+00 
102 2 4 2.2559723595316457e+00 -3.6254538344452101e+02 1.0000000000000000e+00 1.0000000000000000e+01 2.0000000000000000e+00 2.5000000000000000e+00 
103 2 4 2.2559723595316457e+00 -7.5375990171930005e+02 1.0000000000000000e+00 1.0000000000000000e+01 4.0000000000000000e+00 2.5000000000000000e+00 
104 2 4 2.2559723595316457e+00 -1.3544656202762199e+03 1.0000000000000000e+00 1.0000000000000000e+01 6.0000000000000000e+00 2.5000000000000000e+00 
105 2 4 2.2559723595316457e+00 -2.1437511044583243e+03 1.0000000000000000e+00 1.0000000000000000e+01 8.0000000000000000e+00 2.5000000000000000e+00 
106 2 4 2.2559723595316457e+00 -3.0515749473191727e+03 1.0000000000000000e+00 1.0000000000000000e+01 1.0000000000000000e+01 2.5000000000000000e+00 
107 2 4 2.2559723595316457e+00 -3.9644748029609427e+03 1.0000000000000000e+00 1.0000000000000000e+01 1.2000000000000000e+01 2.5000000000000000e+00 
108 2 4 2.2559723595316457e+00 -4.7635548796372668e+03 1.0000000000000000e+00 1.0000000000000000e+01 1.4000000000000000e+01 2.5000000000000000e+00 
109 2 4 2.2559723595316457e+00 -5.3532108909470135e+03 1.0000000000000000e+00 1.0000000000000000e+01 1.6000000000000000e+01 2.5000000000000000e+00 
110 2 4 2.2559723595316457e+00 -5.6661113396848759e+03 1.0000000000000000e+00 1.0000000000000000e+01 1.8000000000000000e+01 2.5000000000000000e+00 
121 2 4 2.2559723595316457e+00 -3.3447099359932889e+02 1.0000000000000000e+00 1.2000000000000000e+01 0.0000000000000000e+00 2.5000000000000000e+00 
122 2 4 2.2559723595316457e+00 -6.4863818456622471e+02 1.0000000000000000e+00 1.2000000000000000e+01 2.0000000000000000e+00 2.5000000000000000e+00 
123 2 4 2.2559723595316457e+00 -1.2887777085497107e+03 1.0000000000000000e+00 1.2000000000000000e+01 4.0000000000000000e+00 2.5000000000000000e+00 
124 2 4 2.2559723595316457e+00 -2.2588896979473384e+03 1.0000000000000000e+00 1.2000000000000000e+01 6.0000000000000000e+00 2.5000000000000000e+00 
125 2 4 2.2559723595316457e+00 -3.5229546164827862e+03 1.0000000000000000e+00 1.2000000000000000e+01 8.0000000000000000e+00 2.5000000000000000e+00 
126 2 4 2.2559723595316457e+00 -4.9718584632793718e+03 1.0000000000000000e+00 1.2000000000000000e+01 1.0000000000000000e+01 2.5000000000000000e+00 
127 2 4 2.2559723595316457e+00 -6.4342331974316203e+03 1.0000000000000000e+00 1.2000000000000000e+01 1.2000000000000000e+01 2.5000000000000000e+00 
128 2 4 2.2559723595316457e+00 -7.7291691217867838e+03 1.0000000000000000e+00 1.2000000000000000e+01 1.4000000000000000e+01 2.5000000000000000e+00 
129 2 4 2.2559723595316457e+00 -8.6978561865619322e+03 1.0000000000000000e+00 1.2000000000000000e+01 1.6000000000000000e+01 2.5000000000000000e+00 
130 2 4 2.2559723595316457e+00 -9.2160709583049920e+03 1.0000000000000000e+00 1.2000000000000000e+01 1.8000000000000000e+01 2.5000000000000000e+00 
141 2 4 2.2559723595316457e+00 -5.3196409841707737e+02 1.0000000000000000e+00 1.4000000000000000e+01 0.0000000000000000e+00 2.5000000000000000e+00 
142 2 4 2.2559723595316457e+00 -9.8059494639376362e+02 1.0000000000000000e+00 1.4000000000000000e+01 2.0000000000000000e+00 2.5000000000000000e+00 
143 2 4 2.2559723595316457e+00 -1.8898118870404210e+03 1.0000000000000000e+00 1.4000000000000000e+01 4.0000000000000000e+00 2.5000000000000000e+00 
144 2 4 2.2559723595316457e+00 -3.2607317341775938e+03 1.0000000000000000e+00 1.4000000000000000e+01 6.0000000000000000e+00 2.5000000000000000e+00 
145 2 4 2.2559723595316457e+00 -5.0410407536678067e+03 1.0000000000000000e+00 1.4000000000000000e+01 8.0000000000000000e+00 2.5000000000000000e+00 
146 2 4 2.2559723595316457e+00 -7.0811255488377519e+03 1.0000000000000000e+00 1.4000000000000000e+01 1.0000000000000000e+01 2.5000000000000000e+00 
147 2 4 2.2559723595316457e+00 -9.1495242648973926e+03 1.0000000000000000e+00 1.4000000000000000e+01 1.2000000000000000e+01 2.5000000000000000e+00 
148 2 4 2.2559723595316457e+00 -1.0997450572402808e+04 1.0000000000000000e+00 1.4000000000000000e+01 1.4000000000000000e+01 2.5000000000000000e+00 
149 2 4 2.2559723595316457e+00 -1.2389118859615159e+04 1.0000000000000000e+00 1.4000000000000000e+01 1.6000000000000000e+01 2.5000000000000000e+00 
150 2 4 2.2559723595316457e+00 -1.3136745196222899e+04 1.0000000000000000e+00 1.4000000000000000e+01 1.8000000000000000e+01 2.5000000000000000e+00 
161 2 4 2.2559723595316457e+00 -7.1552645745796292e+02 1.0000000000000000e+00 1.6000000000000000e+01 0.0000000000000000e+00 2.5000000000000000e+00 
162 2 4 2.2559723595316457e+00 -1.2791141874865584e+03 1.0000000000000000e+00 1.6000000000000000e+01 2.0000000000000000e+00 2.5000000000000000e+00 
163 2 4 2.2559723595316457e+00 -2.4196019917911308e+03 1.0000000000000000e+00 1.6000000000000000e+01 4.0000000000000000e+00 2.5000000000000000e+00 
164 2 4 2.2559723595316457e+00 -4.1374226127715601e+03 1.0000000000000000e+00 1.6000000000000000e+01 6.0000000000000000e+00 2.5000000000000000e+00 
165 2 4 2.2559723595316457e+00 -6.3663664672403047e+03 1.0000000000000000e+00 1.6000000000000000e+01 8.0000000000000000e+00 2.5000000000000000e+00 
166 2 4 2.2559723595316457e+00 -8.9229578563689720e+03 1.0000000000000000e+00 1.6000000000000000e+01 1.0000000000000000e+01 2.5000000000000000e+00 
167 2 4 2.2559723595316457e+00 -1.1525688022066768e+04 1.0000000000000000e+00 1.6000000000000000e+01 1.2000000000000000e+01 2.5000000000000000e+00 
168 2 4 2.2559723595316457e+00 -1.3863404065076465e+04 1.0000000000000000e+00 1.6000000000000000e+01 1.4000000000000000e+01 2.5000000000000000e+00 
169 2 4 2.2559723595316457e+00 -1.5630248878097160e+04 1.0000000000000000e+00 1.6000000000000000e+01 1.6000000000000000e+01 2.5000000000000000e+00 
170 2 4 2.2559723595316457e+00 -1.6581612231733357e+04 1.0000000000000000e+00 1.6000000000000000e+01 1.8000000000000000e+01 2.5000000000000000e+00 
181 2 4 2.2559723595316457e+00 -8.2688250570550474e+02 1.0000000000000000e+00 1.8000000000000000e+01 0.0000000000000000e+00 2.5000000000000000e+00 
182 2 4 2.2559723595316457e+00 -1.4570009996728611e+03 1.0000000000000000e+00 1.8000000000000000e+01 2.0000000000000000e+00 2.5000000000000000e+00 
183 2 4 2.2559723595316457e+00 -2.7319575185050862e+03 1.0000000000000000e+00 1.8000000000000000e+01 4.0000000000000000e+00 2.5000000000000000e+00 
184 2 4 2.2559723595316457e+00 -4.6525392989246557e+03 1.0000000000000000e+00 1.8000000000000000e+01 6.0000000000000000e+00 2.5000000000000000e+00 
185 2 4 2.2559723595316457e+00 -7.1446135669336491e+03 1.0000000000000000e+00 1.8000000000000000e+01 8.0000000000000000e+00 2.5000000000000000e+00 
186 2 4 2.2559723595316457e+00 -1.0005390652093854e+04 1.0000000000000000e+00 1.8000000000000000e+01 1.0000000000000000e+01 2.5000000000000000e+00 
187 2 4 2.2559723595316457e+00 -1.2924655569973587e+04 1.0000000000000000e+00 1.8000000000000000e+01 1.2000000000000000e+01 2.5000000000000000e+00 
188 2 4 2.2559723595316457e+00 -1.5553171110907331e+04 1.0000000000000000e+00 1.8000000000000000e+01 1.4000000000000000e+01 2.5000000000000000e+00 
189 2 4 2.2559723595316457e+00 -1.7543187137872435e+04 1.0000000000000000e+00 1.8000000000000000e+01 1.6000000000000000e+01 2.5000000000000000e+00 
190 2 4 2.2559723595316457e+00 -1.8615818788363533e+04 1.0000000000000000e+00 1.8000000000000000e+01 1.8000000000000000e+01 2.5000000000000000e+00 
1675 1277 2 1.0380850623319757e+00 -2.5512940159158807e+03 1.0000000000000000e+00 1.9021478490496847e+01 1.9157245095347523e+01 3.1066398429199307e+01 
1482 1084 2 1.0480207298460065e+00 1.7886023470573644e+04 1.0000000000000000e+00 1.9313864382102675e+01 1.9987838970204809e+01 3.1441657770880418e+01 
2000 1602 2 1.0356913590597883e+00 -1.5049816846244043e+04 1.0000000000000000e+00 1.7148939188982503e+01 1.9439872789077203e+01 3.2402751611085087e+01 
1331 933 2 1.0200993572707631e+00 -6.9629496179956614e+03 1.0000000000000000e+00 1.8357366218735653e+01 1.9895156580844706e+01 3.0882740193384805e+01 
1056 658 2 1.0215382358545928e+00 3.5871867293690520e+03 1.0000000000000000e+00 1.9638440773146769e+01 1.7601100671291771e+01 3.1612285916824025e+01 
758 360 2 1.0395694189448232e+00 5.4618127820165255e+03 1.0000000000000000e+00 1.9023983111070525e+01 1.8265760948164669e+01 3.1421951769757186e+01 
1813 1415 2 1.0145688615506330e+00 -6.3005864093566797e+03 1.0000000000000000e+00 1.9381449618793560e+01 1.6966405278448729e+01 3.2375296841380624e+01 
1897 1499 2 1.0145586230013870e+00 -7.8909292589530296e+03 1.0000000000000000e+00 1.9000073692668966e+01 1.7650038462419445e+01 3.1279511785544621e+01 
748 350 2 1.0291448110793053e+00 -1.5382961653879696e+04 1.0000000000000000e+00 1.7846959106748539e+01 1.9311163557851554e+01 3.1287503651409168e+01 
980 582 2 1.0259041438912855e+00 1.0552324685587046e+03 1.0000000000000000e+00 1.7921088146397484e+01 1.8060031995133123e+01 3.1655535539686635e+01 
1517 1119 2 1.0338407950969206e+00 7.7944510077804889e+03 1.0000000000000000e+00 1.7776388106254402e+01 1.8527121044786931e+01 3.1685674039026775e+01 
478 80 2 1.0256379250118739e+00 -6.4372615436646975e+03 1.0000000000000000e+00 1.7103090267014363e+01 1.9120760235323328e+01 3.2067905512322625e+01 
1067 669 2 1.0210769932845238e+00 -4.9039083582440553e+03 1.0000000000000000e+00 1.7094864521584487e+01 1.8758793960889012e+01 3.2029206466047448e+01 
800 402 2 1.0518206521722213e+00 7.2921324568197474e+02 1.0000000000000000e+00 1.8145577425555476e+01 1.9102676471394844e+01 3.1722214215347979e+01 
1162 764 2 1.0354981183662937e+00 -6.9789480074400053e+03 1.0000000000000000e+00 1.9805253869565274e+01 1.9270564154078002e+01 3.1128163543560078e+01 
909 511 2 1.0344589723343662e+00 -1.2018182178059404e+04 1.0000000000000000e+00 1.9657934140626399e+01 1.9297327107026554e+01 3.1053532554309825e+01 
766 368 2 1.0379636161958405e+00 -4.7511184629009240e+03 1.0000000000000000e+00 1.9088193464299483e+01 1.8741219866116065e+01 3.1148092567296072e+01 
1896 1498 2 1.0484322122249832e+00 -4.2987896878548754e+03 1.0000000000000000e+00 1.7774791609298518e+01 1.8910702996592505e+01 3.1993985226607965e+01 
1949 1551 2 1.0234153651666063e+00 -1.6435435006014788e+04 1.0000000000000000e+00 1.7627161475041614e+01 1.8422257710550177e+01 3.1580241851353250e+01 
642 244 2 1.0167840284708844e+00 -5.3641549714628682e+03 1.0000000000000000e+00 1.7577199874591976e+01 1.9783638290152556e+01 3.1254507861869239e+01 
1653 1255 2 1.0330695678107842e+00 -3.0837577924015233e+02 1.0000000000000000e+00 1.8781582760216406e+01 1.7807633627579651e+01 3.1663142711776949e+01 
434 36 2 1.0219433780393821e+00 -1.8168107947630735e+04 1.0000000000000000e+00 1.8303817183440405e+01 1.9190352124052779e+01 3.0870140297410629e+01 
803 405 2 1.0273070638042536e+00 1.3885764055214081e+03 1.0000000000000000e+00 1.8687836772179068e+01 1.9393778254573153e+01 3.0864347575007706e+01 
851 453 2 1.0250685012722573e+00 -7.7442729133934074e+02 1.0000000000000000e+00 1.7877840362530840e+01 1.8507410578779236e+01 3.1360257168381697e+01 
915 517 2 1.0074303613174422e+00 -1.3206769642757732e+04 1.0000000000000000e+00 1.7064841847648278e+01 1.8011027211486351e+01 3.2184159149028147e+01 
524 126 2 1.0094814721768508e+00 7.5678882498878293e+03 1.0000000000000000e+00 1.8105016035185695e+01 1.8993821561805067e+01 3.0718056065830392e+01 
697 299 2 1.0297388636288531e+00 -2.4187416970843988e+03 1.0000000000000000e+00 1.9579333077446947e+01 1.8760475127470794e+01 3.1010881924683378e+01 
1327 929 2 1.0266599794081481e+00 -3.7293613870529447e+02 1.0000000000000000e+00 1.9159304044733560e+01 1.8457355085241467e+01 3.0998708170296513e+01 
1323 925 2 1.0203611948456011e+00 1.1153853304173712e+04 1.0000000000000000e+00 1.7705981319127869e+01 1.7558664158851244e+01 3.2339341549842118e+01 
1723 1325 2 1.0336587014386165e+00 -6.5986806308149789e+03 1.0000000000000000e+00 1.9414711149854003e+01 1.8507893678708545e+01 3.1162824821542365e+01 
464 66 2 1.0743327186054050e+00 1.4661231745439651e+04 1.0000000000000000e+00 1.8275518235196788e+01 1.9782528235248119e+01 3.2595998251836484e+01 
708 310 2 1.0161170351723194e+00 -6.1792377918188618e+02 1.0000000000000000e+00 1.9156606734701050e+01 1.8176481556520585e+01 3.0910391259819374e+01 
700 302 2 1.0314344241404010e+00 -2.4164023823509956e+03 1.0000000000000000e+00 1.8874834259039787e+01 1.8523285070734762e+01 3.1092492952586426e+01 
1365 967 2 1.0369241430130238e+00 2.1690155887043289e+04 1.0000000000000000e+00 1.8831776951333499e+01 1.9688798111020326e+01 3.1084321075318549e+01 
1806 1408 2 1.0098855935146784e+00 9.3497655117396971e+02 1.0000000000000000e+00 1.7919269952220379e+01 1.8433425731286349e+01 3.0997066132771199e+01 
1619 1221 2 1.0088513584649852e+00 3.9163390488467320e+02 1.0000000000000000e+00 1.9714013037897885e+01 1.8840189521882447e+01 3.0587877762007459e+01 
1626 1228 2 1.0391689790559442e+00 3.0107534392671173e+03 1.0000000000000000e+00 1.9635362241131840e+01 1.7294305454424109e+01 3.3009304292908929e+01 
1168 770 2 1.0429223178218883e+00 -9.9622508835145561e+02 1.0000000000000000e+00 1.8258361778485767e+01 1.9360309212261857e+01 3.1382736497774093e+01 
1579 1181 2 1.0212344135621991e+00 -5.6790148693762762e+02 1.0000000000000000e+00 1.9390466573639006e+01 1.8372174061288447e+01 3.0937830316288682e+01 
1518 1120 2 1.0397812934435138e+00 1.4069184029213275e+04 1.0000000000000000e+00 1.9821088186375796e+01 1.9339419680766373e+01 3.1237350530085369e+01 
1470 1072 2 1.0261989271624670e+00 1.0812910329476894e+04 1.0000000000000000e+00 1.9354356445707452e+01 1.9350007201152771e+01 3.0811067465541903e+01 
1109 711 2 1.0185193874433869e+00 4.1220031554935231e+03 1.0000000000000000e+00 1.8745716838495035e+01 1.9226962340510635e+01 3.0674217299351813e+01 
967 569 2 1.0165551272158764e+00 1.0815954981312234e+04 1.0000000000000000e+00 1.7947936185597474e+01 1.9532363912036278e+01 3.0932756320411048e+01 
1182 784 2 1.0305474548044227e+00 6.4805729914418798e+03 1.0000000000000000e+00 1.9376395325811814e+01 1.7216589362016300e+01 3.2527429246906053e+01 
558 160 2 1.0207183046850195e+00 -2.8098316249882730e+04 1.0000000000000000e+00 1.8239567476521955e+01 1.8916621419413278e+01 3.0908326828349008e+01 
1349 951 2 1.0149791287307459e+00 -4.3676760831669617e+03 1.0000000000000000e+00 1.9679138886257103e+01 1.9716355818968538e+01 3.0676800584870048e+01 
1356 958 2 1.0446280035788793e+00 -4.0711498008969929e+03 1.0000000000000000e+00 1.9824245498521666e+01 1.9397146629049001e+01 3.1364069899580134e+01 
1480 1082 2 1.0452220669709162e+00 -1.5499234976517189e+03 1.0000000000000000e+00 1.8565411644512608e+01 1.9840664074909604e+01 3.1391955264611656e+01 
769 371 2 1.0420122733343162e+00 3.1438254147190578e+03 1.0000000000000000e+00 1.9060519903192318e+01 1.9688899833038107e+01 3.1184174999994180e+01 
2021 1623 2 1.0387222367232847e+00 -3.7170974301090741e+03 1.0000000000000000e+00 1.7311011379483048e+01 1.9075660080564198e+01 3.2235839630406296e+01 
850 452 2 1.0168850956525939e+00 -8.0145470814413500e+02 1.0000000000000000e+00 1.9113480525892573e+01 1.9719837573939255e+01 3.0642304631106267e+01 
522 124 2 1.0276785876388408e+00 7.0353683346485486e+03 1.0000000000000000e+00 1.8021044896061920e+01 1.8888258278199913e+01 3.1188421869353444e+01 
2039 1641 2 1.0407892730115147e+00 3.4609539966648485e+03 1.0000000000000000e+00 1.8074402592733449e+01 1.7600810296146676e+01 3.2791894330770447e+01 
1862 1464 2 1.0322099390309789e+00 1.4502572720856904e+04 1.0000000000000000e+00 1.7701123064268042e+01 1.8173373720979598e+01 3.1979864234003259e+01 
1256 858 2 9.9887293713734038e-01 -1.7391028535056194e+03 1.0000000000000000e+00 1.9069083787676472e+01 1.9583023956472509e+01 3.0287521971033147e+01 
1110 712 2 1.0267594155193107e+00 8.1083307736306624e+03 1.0000000000000000e+00 1.9836018966563500e+01 1.7849214732077662e+01 3.1580134618063440e+01 
2070 1672 2 1.0287083342474150e+00 -2.8111419575018139e+04 1.0000000000000000e+00 1.8352463454217762e+01 1.8971077924509327e+01 3.1028262143305643e+01 
1189 791 2 1.0250735133433464e+00 -3.4850607659753223e+03 1.0000000000000000e+00 1.8158593016269492e+01 1.7321015396525041e+01 3.2474633252118089e+01 
1522 1124 2 1.0168067864367927e+00 -5.3126492789716231e+03 1.0000000000000000e+00 1.7948917662148236e+01 1.8680345437409855e+01 3.1037045178349306e+01 
1598 1200 2 1.0154238548776684e+00 5.4843826706947339e+03 1.0000000000000000e+00 1.8168146079242224e+01 1.8823138961187489e+01 3.0847431910463595e+01 
1348 950 2 1.0413838638509925e+00 1.2844699179640036e+04 1.0000000000000000e+00 1.9347560998820764e+01 1.7855437190152784e+01 3.1858821164961054e+01 
1368 970 2 1.0325549636182023e+00 2.1694113393987176e+04 1.0000000000000000e+00 1.8151751764873165e+01 1.8297901341495610e+01 3.1497610200980947e+01 
1336 938 2 1.0448491978808583e+00 -9.9925471842051218e+02 1.0000000000000000e+00 1.9238624940131022e+01 1.8239318012159444e+01 3.1591888420218545e+01 
1326 928 2 1.0366822171062182e+00 -3.6803751496330938e+02 1.0000000000000000e+00 1.9783636922119801e+01 1.8478609711669296e+01 3.1358884583251353e+01 
1527 1129 2 1.0050159477306639e+00 -7.5491206864509275e+02 1.0000000000000000e+00 1.9357768551860079e+01 1.8776979855529373e+01 3.0463722521507162e+01 
1322 924 2 1.0284109786101998e+00 1.1158378705410236e+04 1.0000000000000000e+00 1.9566832693927520e+01 1.9926402712354175e+01 3.0983978427791925e+01 
1549 1151 2 1.0186638453013381e+00 8.5364197046107383e+03 1.0000000000000000e+00 1.9298031597767167e+01 1.9744199941208549e+01 3.0689859952676308e+01 
527 129 2 1.0072296197945301e+00 3.4748750233858650e+03 1.0000000000000000e+00 1.9706388322950620e+01 1.9174935789802593e+01 3.0506477013067148e+01 
704 306 2 1.0438352584420862e+00 -4.8781111171724015e+03 1.0000000000000000e+00 1.8807451428873463e+01 1.8910944931765314e+01 3.1268190376365176e+01 
1481 1083 2 1.0299568288131336e+00 1.0432678355514577e+03 1.0000000000000000e+00 1.8755353994002640e+01 1.7961624211744375e+01 3.1431187869921871e+01 
878 480 2 1.0285869045576874e+00 7.1807771881895187e+03 1.0000000000000000e+00 1.9685440271162488e+01 1.7970149482259394e+01 3.1453881108410542e+01 
1585 1187 2 1.0422747834726489e+00 -1.5366097506126218e+04 1.0000000000000000e+00 1.8974633864678768e+01 1.8024340056863455e+01 3.1694794128019552e+01 
1214 816 2 1.0313142390624188e+00 1.4060868470445628e+04 1.0000000000000000e+00 1.8516899877831747e+01 1.9961457491993638e+01 3.1100625733074981e+01 
2062 1664 2 1.0227836823700962e+00 -1.7705457610728983e+04 1.0000000000000000e+00 1.7998494875132749e+01 1.9399224000032934e+01 3.1034269814806187e+01 
672 274 2 1.0449259085659346e+00 -3.4112692322665839e+03 1.0000000000000000e+00 1.9829441690743113e+01 1.7831983439742292e+01 3.2231345155036095e+01 
453 55 2 1.0563432985115069e+00 -8.4256885325403873e+03 1.0000000000000000e+00 1.9561313853366599e+01 1.9347552180164598e+01 3.1585639298624315e+01 
492 94 2 1.0067251213397292e+00 -9.9533424099032673e+03 1.0000000000000000e+00 1.7738368845526043e+01 1.7937920480358464e+01 3.1367134628124525e+01 
1928 1530 2 1.0068702712344226e+00 -1.4914199513799773e+04 1.0000000000000000e+00 1.9194427219302955e+01 1.8594511213716757e+01 3.0538045020816728e+01 
1019 621 2 1.0216630291064930e+00 -5.3273252752592871e+03 1.0000000000000000e+00 1.9831098169494336e+01 1.9366865189656796e+01 3.0827081569351289e+01 
435 37 2 1.0323661397156318e+00 -1.8165415687532077e+04 1.0000000000000000e+00 1.9839439293048819e+01 1.9545517452458178e+01 3.1079045855497789e+01 
588 190 2 1.0306686543548662e+00 -1.4547839358969184e+03 1.0000000000000000e+00 1.7723534358962347e+01 1.7799823982177404e+01 3.2364900381623364e+01 
833 435 2 1.0313927503302636e+00 2.1093434363215351e+03 1.0000000000000000e+00 1.7113005199451734e+01 1.8347278134885979e+01 3.2883977207246723e+01 
683 285 2 1.0252273438040247e+00 -8.4217056842999100e+03 1.0000000000000000e+00 1.7319641035688800e+01 1.8328912146861562e+01 3.2106194798932655e+01 
1837 1439 2 1.0104418408859439e+00 -3.4497656763746709e+03 1.0000000000000000e+00 1.9590553098665250e+01 1.9485198144755994e+01 3.0539876495642293e+01 
1113 715 2 1.0319368465303411e+00 7.1333743802900299e+03 1.0000000000000000e+00 1.9506339171725674e+01 1.7321271394361631e+01 3.2396017281274162e+01 
805 407 2 1.0282991144241265e+00 -7.1046969198107518e+03 1.0000000000000000e+00 1.7155124045091473e+01 1.9943364266793495e+01 3.2251113167785533e+01 
1663 1265 2 1.0258713148785898e+00 7.6856640127956234e+02 1.0000000000000000e+00 1.9914905279738448e+01 1.8203895269167770e+01 3.1300623405811777e+01 
1330 932 2 1.0259695365384691e+00 -6.9632748388013579e+03 1.0000000000000000e+00 1.9960696821285602e+01 1.9438942352560122e+01 3.0974410359508752e+01 
414 16 2 1.0583005573597786e+00 -1.2759029199291892e+04 1.0000000000000000e+00 1.9679394637384785e+01 1.9748057971790050e+01 3.1752560461930710e+01 
472 74 2 1.0189386412760464e+00 -6.9191029019610405e+03 1.0000000000000000e+00 1.9256168091511789e+01 1.9277516680738795e+01 3.0655000768881965e+01 
1184 786 2 1.0156932246110228e+00 -4.3382892953473975e+03 1.0000000000000000e+00 1.8051866730228966e+01 1.8832336655600958e+01 3.0908623715919788e+01 
1127 729 2 1.0341944446071556e+00 2.3032617941209635e+04 1.0000000000000000e+00 1.9935382662802880e+01 1.8431502489527958e+01 3.1388734500783240e+01 
1873 1475 2 1.0311994386127759e+00 -2.4193026836488989e+03 1.0000000000000000e+00 1.9106011039786072e+01 1.8828120934859260e+01 3.0967472889991967e+01 
1690 1292 2 1.0543880824770313e+00 -8.2778004700005511e+02 1.0000000000000000e+00 1.8240491326841518e+01 1.8435389029890636e+01 3.2035679548074725e+01 
510 112 2 1.0304925775414828e+00 -5.7169307199323964e+02 1.0000000000000000e+00 1.8161072570614657e+01 1.7353736299463989e+01 3.2688485095330364e+01 
1419 1021 2 1.0506471028426878e+00 -1.3157528513397501e+04 1.0000000000000000e+00 1.9329744205728346e+01 1.8357568429482704e+01 3.1691061570426101e+01 
1022 624 2 1.0286094307399369e+00 -7.4043247762895533e+02 1.0000000000000000e+00 1.9574484510427506e+01 1.9580901436680858e+01 3.0915988997067945e+01 
1163 765 2 1.0128714569730626e+00 -6.9849042692201074e+03 1.0000000000000000e+00 1.8880489271038755e+01 1.9378683326762051e+01 3.0543639801659651e+01 
1280 882 2 1.0134691019529931e+00 4.1197261371004270e+03 1.0000000000000000e+00 1.7660368154122661e+01 1.9178202322308429e+01 3.1053439170085479e+01 