LAMMPS data file via write_data, version 30 Jul 2016, timestep = 1000000

2080 atoms
8 atom types

0.0000000000000000e+00 4.0000000000000000e+01 xlo xhi
0.0000000000000000e+00 4.0000000000000000e+01 ylo yhi
0.0000000000000000e+00 1.0000000000000000e+02 zlo zhi

Masses

1 3.896
2 4.306
3 20.064
4 8.378
5 8.378
6 8.378
7 8.378
8 8.378

Atoms # meso-molecular

1 2 4 2.2559723595316457e+00 0.0000000000000000e+00 1.0000000000000000e+00 0.0000000000000000e+00 0.0000000000000000e+00 2.5000000000000000e+00 
2 2 4 2.2559723595316457e+00 -1.6716508710767068e-02 1.0000000000000000e+00 0.0000000000000000e+00 2.0000000000000000e+00 2.5000000000000000e+00 
3 2 4 2.2559723595316457e+00 -2.7130116678604210e-01 1.0000000000000000e+00 0.0000000000000000e+00 4.0000000000000000e+00 2.5000000000000000e+00 
4 2 4 2.2559723595316457e+00 -1.1356503866158285e+00 1.0000000000000000e+00 0.0000000000000000e+00 6.0000000000000000e+00 2.5000000000000000e+00 
5 2 4 2.2559723595316457e+00 -2.7960797156855008e+00 1.0000000000000000e+00 0.0000000000000000e+00 8.0000000000000000e+00 2.5000000000000000e+00 
6 2 4 2.2559723595316457e+00 -5.0299739995690267e+00 1.0000000000000000e+00 0.0000000000000000e+00 1.0000000000000000e+01 2.5000000000000000e+00 
7 2 4 2.2559723595316457e+00 -7.2679786566768847e+00 1.0000000000000000e+00 0.0000000000000000e+00 1.2000000000000000e+01 2.5000000000000000e+00 
8 2 4 2.2559723595316457e+00 -8.9647960699308058e+00 1.0000000000000000e+00 0.0000000000000000e+00 1.4000000000000000e+01 2.5000000000000000e+00 
9 2 4 2.2559723595316457e+00 -9.9170843444423014e+00 1.0000000000000000e+00 0.0000000000000000e+00 1.6000000000000000e+01 2.5000000000000000e+00 
10 2 4 2.2559723595316457e+00 -1.0294358957399789e+01 1.0000000000000000e+00 0.0000000000000000e+00 1.8000000000000000e+01 2.5000000000000000e+00 
21 2 4 2.2559723595316457e+00 -1.8899364445315955e-01 1.0000000000000000e+00 2.0000000000000000e+00 0.0000000000000000e+00 2.5000000000000000e+00 
22 2 4 2.2559723595316457e+00 -1.6479006728591565e+00 1.0000000000000000e+00 2.0000000000000000e+00 2.0000000000000000e+00 2.5000000000000000e+00 
23 2 4 2.2559723595316457e+00 -6.3277278675904221e+00 1.0000000000000000e+00 2.0000000000000000e+00 4.0000000000000000e+00 2.5000000000000000e+00 
24 2 4 2.2559723595316457e+00 -1.6121648914853431e+01 1.0000000000000000e+00 2.0000000000000000e+00 6.0000000000000000e+00 2.5000000000000000e+00 
25 2 4 2.2559723595316457e+00 -3.1555315683855326e+01 1.0000000000000000e+00 2.0000000000000000e+00 8.0000000000000000e+00 2.5000000000000000e+00 
26 2 4 2.2559723595316457e+00 -5.0938044405723950e+01 1.0000000000000000e+00 2.0000000000000000e+00 1.0000000000000000e+01 2.5000000000000000e+00 
27 2 4 2.2559723595316457e+00 -7.0630647541677149e+01 1.0000000000000000e+00 2.0000000000000000e+00 1.2000000000000000e+01 2.5000000000000000e+00 
28 2 4 2.2559723595316457e+00 -8.6836847167617279e+01 1.0000000000000000e+00 2.0000000000000000e+00 1.4000000000000000e+01 2.5000000000000000e+00 
29 2 4 2.2559723595316457e+00 -9.7471862913877700e+01 1.0000000000000000e+00 2.0000000000000000e+00 1.6000000000000000e+01 2.5000000000000000e+00 
30 2 4 2.2559723595316457e+00 -1.0240430145730846e+02 1.0000000000000000e+00 2.0000000000000000e+00 1.8000000000000000e+01 2.5000000000000000e+00 
41 2 4 2.2559723595316457e+00 -3.5696512629810129e+00 1.0000000000000000e+00 4.0000000000000000e+00 0.0000000000000000e+00 2.5000000000000000e+00 
42 2 4 2.2559723595316457e+00 -1.3866309420095185e+01 1.0000000000000000e+00 4.0000000000000000e+00 2.0000000000000000e+00 2.5000000000000000e+00 
43 2 4 2.2559723595316457e+00 -3.9245103415619838e+01 1.0000000000000000e+00 4.0000000000000000e+00 4.0000000000000000e+00 2.5000000000000000e+00 
44 2 4 2.2559723595316457e+00 -8.5106801939815625e+01 1.0000000000000000e+00 4.0000000000000000e+00 6.0000000000000000e+00 2.5000000000000000e+00 
45 2 4 2.2559723595316457e+00 -1.5147294726163040e+02 1.0000000000000000e+00 4.0000000000000000e+00 8.0000000000000000e+00 2.5000000000000000e+00 
46 2 4 2.2559723595316457e+00 -2.3084880029150571e+02 1.0000000000000000e+00 4.0000000000000000e+00 1.0000000000000000e+01 2.5000000000000000e+00 
47 2 4 2.2559723595316457e+00 -3.1091791805621142e+02 1.0000000000000000e+00 4.0000000000000000e+00 1.2000000000000000e+01 2.5000000000000000e+00 
48 2 4 2.2559723595316457e+00 -3.7927097815127200e+02 1.0000000000000000e+00 4.0000000000000000e+00 1.4000000000000000e+01 2.5000000000000000e+00 
49 2 4 2.2559723595316457e+00 -4.2675083316511586e+02 1.0000000000000000e+00 4.0000000000000000e+00 1.6000000000000000e+01 2.5000000000000000e+00 
50 2 4 2.2559723595316457e+00 -4.5024764685005698e+02 1.0000000000000000e+00 4.0000000000000000e+00 1.8000000000000000e+01 2.5000000000000000e+00 
61 2 4 2.2559723595316457e+00 -2.0646695115148436e+01 1.0000000000000000e+00 6.0000000000000000e+00 0.0000000000000000e+00 2.5000000000000000e+00 
62 2 4 2.2559723595316457e+00 -5.8072212177922346e+01 1.0000000000000000e+00 6.0000000000000000e+00 2.0000000000000000e+00 2.5000000000000000e+00 
63 2 4 2.2559723595316457e+00 -1.4173947381384860e+02 1.0000000000000000e+00 6.0000000000000000e+00 4.0000000000000000e+00 2.5000000000000000e+00 
64 2 4 2.2559723595316457e+00 -2.8005726741035585e+02 1.0000000000000000e+00 6.0000000000000000e+00 6.0000000000000000e+00 2.5000000000000000e+00 
65 2 4 2.2559723595316457e+00 -4.6965488658890990e+02 1.0000000000000000e+00 6.0000000000000000e+00 8.0000000000000000e+00 2.5000000000000000e+00 
66 2 4 2.2559723595316457e+00 -6.9182880732440367e+02 1.0000000000000000e+00 6.0000000000000000e+00 1.0000000000000000e+01 2.5000000000000000e+00 
67 2 4 2.2559723595316457e+00 -9.1648247660094432e+02 1.0000000000000000e+00 6.0000000000000000e+00 1.2000000000000000e+01 2.5000000000000000e+00 
68 2 4 2.2559723595316457e+00 -1.1097605068545793e+03 1.0000000000000000e+00 6.0000000000000000e+00 1.4000000000000000e+01 2.5000000000000000e+00 
69 2 4 2.2559723595316457e+00 -1.2468353599138895e+03 1.0000000000000000e+00 6.0000000000000000e+00 1.6000000000000000e+01 2.5000000000000000e+00 
70 2 4 2.2559723595316457e+00 -1.3169216139509649e+03 1.0000000000000000e+00 6.0000000000000000e+00 1.8000000000000000e+01 2.5000000000000000e+00 
81 2 4 2.2559723595316457e+00 -7.0524627917793168e+01 1.0000000000000000e+00 8.0000000000000000e+00 0.0000000000000000e+00 2.5000000000000000e+00 
82 2 4 2.2559723595316457e+00 -1.6549695421929951e+02 1.0000000000000000e+00 8.0000000000000000e+00 2.0000000000000000e+00 2.5000000000000000e+00 
83 2 4 2.2559723595316457e+00 -3.6712859947251701e+02 1.0000000000000000e+00 8.0000000000000000e+00 4.0000000000000000e+00 2.5000000000000000e+00 
84 2 4 2.2559723595316457e+00 -6.8500893101326483e+02 1.0000000000000000e+00 8.0000000000000000e+00 6.0000000000000000e+00 2.5000000000000000e+00 
85 2 4 2.2559723595316457e+00 -1.1091258996717454e+03 1.0000000000000000e+00 8.0000000000000000e+00 8.0000000000000000e+00 2.5000000000000000e+00 
86 2 4 2.2559723595316457e+00 -1.6009474062753879e+03 1.0000000000000000e+00 8.0000000000000000e+00 1.0000000000000000e+01 2.5000000000000000e+00 
87 2 4 2.2559723595316457e+00 -2.0956904874848442e+03 1.0000000000000000e+00 8.0000000000000000e+00 1.2000000000000000e+01 2.5000000000000000e+00 
88 2 4 2.2559723595316457e+00 -2.5234175641642596e+03 1.0000000000000000e+00 8.0000000000000000e+00 1.4000000000000000e+01 2.5000000000000000e+00 
89 2 4 2.2559723595316457e+00 -2.8328734200270046e+03 1.0000000000000000e+00 8.0000000000000000e+00 1.6000000000000000e+01 2.5000000000000000e+00 
90 2 4 2.2559723595316457e+00 -2.9942949123842486e+03 1.0000000000000000e+00 8.0000000000000000e+00 1.8000000000000000e+01 2.5000000000000000e+00 
101 2 4 2.2559723595316457e+00 -1.7315343424461548e+02 1.0000000000000000e+00 1.0000000000000000e+01 0.0000000000000000e+00 2.5000000000000000e+00 
102 2 4 2.2559723595316457e+00 -3.6254538344452101e+02 1.0000000000000000e+00 1.0000000000000000e+01 2.0000000000000000e+00 2.5000000000000000e+00 
103 2 4 2.2559723595316457e+00 -7.5375990171930005e+02 1.0000000000000000e+00 1.0000000000000000e+01 4.0000000000000000e+00 2.5000000000000000e+00 
104 2 4 2.2559723595316457e+00 -1.3544656202762199e+03 1.0000000000000000e+00 1.0000000000000000e+01 6.0000000000000000e+00 2.5000000000000000e+00 
105 2 4 2.2559723595316457e+00 -2.1437511044583243e+03 1.0000000000000000e+00 1.0000000000000000e+01 8.0000000000000000e+00 2.5000000000000000e+00 
106 2 4 2.2559723595316457e+00 -3.0515749473191727e+03 1.0000000000000000e+00 1.0000000000000000e+01 1.0000000000000000e+01 2.5000000000000000e+00 
107 2 4 2.2559723595316457e+00 -3.9644748029609427e+03 1.0000000000000000e+00 1.0000000000000000e+01 1.2000000000000000e+01 2.5000000000000000e+00 
108 2 4 2.2559723595316457e+00 -4.7635548796372668e+03 1.0000000000000000e+00 1.0000000000000000e+01 1.4000000000000000e+01 2.5000000000000000e+00 
109 2 4 2.2559723595316457e+00 -5.3532108909470135e+03 1.0000000000000000e+00 1.0000000000000000e+01 1.6000000000000000e+01 2.5000000000000000e+00 
110 2 4 2.2559723595316457e+00 -5.6661113396848759e+03 1.0000000000000000e+00 1.0000000000000000e+01 1.8000000000000000e+01 2.5000000000000000e+00 
121 2 4 2.2559723595316457e+00 -3.3447099359932889e+02 1.0000000000000000e+00 1.2000000000000000e+01 0.0000000000000000e+00 2.5000000000000000e+00 
122 2 4 2.2559723595316457e+00 -6.4863818456622471e+02 1.0000000000000000e+00 1.2000000000000000e+01 2.0000000000000000e+00 2.5000000000000000e+00 
123 2 4 2.2559723595316457e+00 -1.2887777085497107e+03 1.0000000000000000e+00 1.2000000000000000e+01 4.0000000000000000e+00 2.5000000000000000e+00 
124 2 4 2.2559723595316457e+00 -2.2588896979473384e+03 1.0000000000000000e+00 1.2000000000000000e+01 6.0000000000000000e+00 2.5000000000000000e+00 
125 2 4 2.2559723595316457e+00 -3.5229546164827862e+03 1.0000000000000000e+00 1.2000000000000000e+01 8.0000000000000000e+00 2.5000000000000000e+00 
126 2 4 2.2559723595316457e+00 -4.9718584632793718e+03 1.0000000000000000e+00 1.2000000000000000e+01 1.0000000000000000e+01 2.5000000000000000e+00 
127 2 4 2.2559723595316457e+00 -6.4342331974316203e+03 1.0000000000000000e+00 1.2000000000000000e+01 1.2000000000000000e+01 2.5000000000000000e+00 
128 2 4 2.2559723595316457e+00 -7.7291691217867838e+03 1.0000000000000000e+00 1.2000000000000000e+01 1.4000000000000000e+01 2.5000000000000000e+00 
129 2 4 2.2559723595316457e+00 -8.6978561865617103e+03 1.0000000000000000e+00 1.2000000000000000e+01 1.6000000000000000e+01 2.5000000000000000e+00 
130 2 4 2.2559723595316457e+00 -9.2160709565382731e+03 1.0000000000000000e+00 1.2000000000000000e+01 1.8000000000000000e+01 2.5000000000000000e+00 
141 2 4 2.2559723595316457e+00 -5.3196409841707737e+02 1.0000000000000000e+00 1.4000000000000000e+01 0.0000000000000000e+00 2.5000000000000000e+00 
142 2 4 2.2559723595316457e+00 -9.8059494639376362e+02 1.0000000000000000e+00 1.4000000000000000e+01 2.0000000000000000e+00 2.5000000000000000e+00 
143 2 4 2.2559723595316457e+00 -1.8898118870404210e+03 1.0000000000000000e+00 1.4000000000000000e+01 4.0000000000000000e+00 2.5000000000000000e+00 
144 2 4 2.2559723595316457e+00 -3.2607317341775938e+03 1.0000000000000000e+00 1.4000000000000000e+01 6.0000000000000000e+00 2.5000000000000000e+00 
145 2 4 2.2559723595316457e+00 -5.0410407536678067e+03 1.0000000000000000e+00 1.4000000000000000e+01 8.0000000000000000e+00 2.5000000000000000e+00 
146 2 4 2.2559723595316457e+00 -7.0811255488377519e+03 1.0000000000000000e+00 1.4000000000000000e+01 1.0000000000000000e+01 2.5000000000000000e+00 
147 2 4 2.2559723595316457e+00 -9.1495242648973926e+03 1.0000000000000000e+00 1.4000000000000000e+01 1.2000000000000000e+01 2.5000000000000000e+00 
148 2 4 2.2559723595316457e+00 -1.0997450572235290e+04 1.0000000000000000e+00 1.4000000000000000e+01 1.4000000000000000e+01 2.5000000000000000e+00 
149 2 4 2.2559723595316457e+00 -1.2389118823530516e+04 1.0000000000000000e+00 1.4000000000000000e+01 1.6000000000000000e+01 2.5000000000000000e+00 
150 2 4 2.2559723595316457e+00 -1.3136745125811434e+04 1.0000000000000000e+00 1.4000000000000000e+01 1.8000000000000000e+01 2.5000000000000000e+00 
161 2 4 2.2559723595316457e+00 -7.1552645745796292e+02 1.0000000000000000e+00 1.6000000000000000e+01 0.0000000000000000e+00 2.5000000000000000e+00 
162 2 4 2.2559723595316457e+00 -1.2791141874865584e+03 1.0000000000000000e+00 1.6000000000000000e+01 2.0000000000000000e+00 2.5000000000000000e+00 
163 2 4 2.2559723595316457e+00 -2.4196019917911308e+03 1.0000000000000000e+00 1.6000000000000000e+01 4.0000000000000000e+00 2.5000000000000000e+00 
164 2 4 2.2559723595316457e+00 -4.1374226127715601e+03 1.0000000000000000e+00 1.6000000000000000e+01 6.0000000000000000e+00 2.5000000000000000e+00 
165 2 4 2.2559723595316457e+00 -6.3663664672403047e+03 1.0000000000000000e+00 1.6000000000000000e+01 8.0000000000000000e+00 2.5000000000000000e+00 
166 2 4 2.2559723595316457e+00 -8.9229578563689720e+03 1.0000000000000000e+00 1.6000000000000000e+01 1.0000000000000000e+01 2.5000000000000000e+00 
167 2 4 2.2559723595316457e+00 -1.1525688022066768e+04 1.0000000000000000e+00 1.6000000000000000e+01 1.2000000000000000e+01 2.5000000000000000e+00 
168 2 4 2.2559723595316457e+00 -1.3863404049516248e+04 1.0000000000000000e+00 1.6000000000000000e+01 1.4000000000000000e+01 2.5000000000000000e+00 
169 2 4 2.2559723595316457e+00 -1.5630248989386922e+04 1.0000000000000000e+00 1.6000000000000000e+01 1.6000000000000000e+01 2.5000000000000000e+00 
170 2 4 2.2559723595316457e+00 -1.6581613009747300e+04 1.0000000000000000e+00 1.6000000000000000e+01 1.8000000000000000e+01 2.5000000000000000e+00 
181 2 4 2.2559723595316457e+00 -8.2688250570550474e+02 1.0000000000000000e+00 1.8000000000000000e+01 0.0000000000000000e+00 2.5000000000000000e+00 
182 2 4 2.2559723595316457e+00 -1.4570009996728611e+03 1.0000000000000000e+00 1.8000000000000000e+01 2.0000000000000000e+00 2.5000000000000000e+00 
183 2 4 2.2559723595316457e+00 -2.7319575185050862e+03 1.0000000000000000e+00 1.8000000000000000e+01 4.0000000000000000e+00 2.5000000000000000e+00 
184 2 4 2.2559723595316457e+00 -4.6525392989246557e+03 1.0000000000000000e+00 1.8000000000000000e+01 6.0000000000000000e+00 2.5000000000000000e+00 
185 2 4 2.2559723595316457e+00 -7.1446135669336491e+03 1.0000000000000000e+00 1.8000000000000000e+01 8.0000000000000000e+00 2.5000000000000000e+00 
186 2 4 2.2559723595316457e+00 -1.0005390652093854e+04 1.0000000000000000e+00 1.8000000000000000e+01 1.0000000000000000e+01 2.5000000000000000e+00 
187 2 4 2.2559723595316457e+00 -1.2924655569985531e+04 1.0000000000000000e+00 1.8000000000000000e+01 1.2000000000000000e+01 2.5000000000000000e+00 
188 2 4 2.2559723595316457e+00 -1.5553171068482317e+04 1.0000000000000000e+00 1.8000000000000000e+01 1.4000000000000000e+01 2.5000000000000000e+00 
189 2 4 2.2559723595316457e+00 -1.7543187438456578e+04 1.0000000000000000e+00 1.8000000000000000e+01 1.6000000000000000e+01 2.5000000000000000e+00 
190 2 4 2.2559723595316457e+00 -1.8615820131686814e+04 1.0000000000000000e+00 1.8000000000000000e+01 1.8000000000000000e+01 2.5000000000000000e+00 
1851 1453 2 1.0242538096361000e+00 9.4430427424763366e+03 1.0000000000000000e+00 1.7651053007020195e+01 1.8828851514009987e+01 3.2366779276934537e+01 
595 197 2 1.0226653173672251e+00 -9.2926114496172486e+03 1.0000000000000000e+00 1.9128651434153440e+01 1.9917681921554841e+01 2.7124905765215445e+01 
1481 1083 2 1.0269247435315019e+00 1.0485292691555062e+03 1.0000000000000000e+00 1.7691106352958972e+01 1.9837571368148641e+01 2.8259975415782769e+01 
401 3 2 1.0260780085282251e+00 7.0802875690679020e+03 1.0000000000000000e+00 1.8982669453853045e+01 1.8048316171342684e+01 3.2638546056508815e+01 
708 310 2 1.0252200817870616e+00 -6.1252094191423600e+02 1.0000000000000000e+00 1.9734969517864940e+01 1.7967145840280065e+01 3.0059495458298485e+01 
1440 1042 2 1.0260645292046451e+00 4.6420517117888348e+03 1.0000000000000000e+00 1.8566101814782662e+01 1.9091517114494234e+01 2.7936843234503463e+01 
886 488 2 1.0274620152840328e+00 1.5464705172410381e+03 1.0000000000000000e+00 1.9195918958475442e+01 1.9947330329659383e+01 2.7204667692932350e+01 
1486 1088 2 1.0238527468141894e+00 1.1044158570162374e+04 1.0000000000000000e+00 1.9510712496871477e+01 1.9441769938445166e+01 2.7334662599719227e+01 
456 58 2 1.0279409014061465e+00 -8.4561342972968196e+03 1.0000000000000000e+00 1.8833082232578274e+01 1.8942328749256006e+01 2.8000402869984907e+01 
602 204 2 1.0318005331940583e+00 1.0296554575410180e+03 1.0000000000000000e+00 1.9280059007390093e+01 1.9852301693236459e+01 2.7322422146664753e+01 
1598 1200 2 1.0287604981885099e+00 5.4897151371434338e+03 1.0000000000000000e+00 1.7409424542078753e+01 1.9862160476780620e+01 2.8862330233776007e+01 
1037 639 2 1.0340793250075830e+00 2.3819442503105936e+04 1.0000000000000000e+00 1.7774554504230167e+01 1.9023223077837596e+01 2.9441508762226999e+01 
615 217 2 1.0263908941988795e+00 7.9485887020942562e+02 1.0000000000000000e+00 1.8475324050098546e+01 1.8104451842611105e+01 3.1002759057407445e+01 
1532 1134 2 1.0323535101876198e+00 1.5409783374164579e+04 1.0000000000000000e+00 1.8097061115780669e+01 1.9483365236281646e+01 2.8170211576255703e+01 
745 347 2 1.0235100960049157e+00 -1.5374276788152896e+04 1.0000000000000000e+00 1.9254931163755984e+01 1.9650293715564668e+01 2.7231916720852059e+01 
1866 1468 2 1.0295931844461585e+00 5.9119959359611921e+03 1.0000000000000000e+00 1.9176783699754580e+01 1.7989194646882826e+01 3.1498571496493557e+01 
906 508 2 1.0282865767445890e+00 -5.4853583737915860e+03 1.0000000000000000e+00 1.7889949703926252e+01 1.8548904580390076e+01 3.1614201029101991e+01 
1419 1021 2 1.0350242836011410e+00 -1.3146821372346292e+04 1.0000000000000000e+00 1.8328429143643547e+01 1.8618010778624527e+01 3.3084377710651026e+01 
2070 1672 2 1.0268300275870619e+00 -2.8105831968075585e+04 1.0000000000000000e+00 1.7377158338147485e+01 1.9393293515816183e+01 2.9436583352527084e+01 
1259 861 2 1.0277147672271660e+00 9.2527730425129289e+02 1.0000000000000000e+00 1.8598621465219463e+01 1.8213622066125428e+01 3.2783428592880654e+01 
797 399 2 1.0229485027401612e+00 7.3399909260036179e+02 1.0000000000000000e+00 1.8840156730769838e+01 1.9606828354962236e+01 2.7344910685925157e+01 
1327 929 2 1.0305156871271366e+00 -3.6514686718998024e+02 1.0000000000000000e+00 1.8934376737421157e+01 1.8143632560917723e+01 2.9797198997673085e+01 
1678 1280 2 1.0264890335942851e+00 4.0036280729019782e+03 1.0000000000000000e+00 1.7094917570268361e+01 1.9842967569714222e+01 3.0388236267551548e+01 
1975 1577 2 1.0264739925458728e+00 1.7065062660124840e+04 1.0000000000000000e+00 1.8983571438136330e+01 1.9236347636452290e+01 2.7622435887423485e+01 
1693 1295 2 1.0288376835840438e+00 1.2719358506787923e+04 1.0000000000000000e+00 1.7583612911131119e+01 1.8861906664969123e+01 3.0836861327976322e+01 
1015 617 2 1.0308030231726339e+00 1.4131069074777497e+04 1.0000000000000000e+00 1.9325765114206494e+01 1.9486216645036233e+01 2.7479186837882047e+01 
1185 787 2 1.0282946075567556e+00 -4.0936716371596676e+03 1.0000000000000000e+00 1.9733878152214142e+01 1.9847629693001092e+01 2.7241194994282264e+01 
1753 1355 2 1.0230789162540286e+00 -4.9031440605435091e+03 1.0000000000000000e+00 1.7231953524067940e+01 1.9268073141951078e+01 3.1039458472443677e+01 
594 196 2 1.0294281797122775e+00 -9.3070649513848530e+03 1.0000000000000000e+00 1.9010172124483361e+01 1.9627055917892005e+01 2.7428206661957546e+01 
752 354 2 1.0302614778598289e+00 3.2913851426731130e+03 1.0000000000000000e+00 1.9112706919389993e+01 1.9822926024089874e+01 2.7329088517968025e+01 
1865 1467 2 1.0302048144297897e+00 1.7519302837971522e+04 1.0000000000000000e+00 1.9284549186806267e+01 1.8978855479173053e+01 2.7885781679980461e+01 
766 368 2 1.0281454416553604e+00 -4.7447918905762281e+03 1.0000000000000000e+00 1.8063641786519536e+01 1.9635361314199077e+01 2.7963582744903839e+01 
567 169 2 1.0268228749391053e+00 -2.9879693158726208e+04 1.0000000000000000e+00 1.8060227651963682e+01 1.9009512202414971e+01 2.8533562434947363e+01 
1663 1265 2 1.0283688459905675e+00 7.7403102747086439e+02 1.0000000000000000e+00 1.9406230361471849e+01 1.9659633318733675e+01 2.7319254948574759e+01 
820 422 2 1.0260594487750221e+00 1.5617339199491846e+03 1.0000000000000000e+00 1.9934230487130929e+01 1.9876388590917660e+01 2.7212510820349642e+01 
1728 1330 2 1.0282378177009406e+00 1.7561042902841925e+03 1.0000000000000000e+00 1.9859813502115230e+01 1.9888309651206797e+01 2.7241719720590197e+01 
1494 1096 2 1.0282427912089329e+00 7.7109497906483148e+03 1.0000000000000000e+00 1.8841803503917610e+01 1.8254033018219864e+01 2.9278807748269472e+01 
523 125 2 1.0284029798687142e+00 7.0482547297376714e+03 1.0000000000000000e+00 1.9616110847448137e+01 1.8435692512283136e+01 2.8596854869344881e+01 
704 306 2 1.0242350005769927e+00 -4.8712132085214807e+03 1.0000000000000000e+00 1.8470700727568566e+01 1.9963971444945308e+01 2.7391280431681544e+01 
993 595 2 1.0292653424743399e+00 6.6718127938125181e+03 1.0000000000000000e+00 1.9735972071551412e+01 1.9942593223673004e+01 2.7227779202569849e+01 
1765 1367 2 1.0224849689519830e+00 -8.4683713258039134e+03 1.0000000000000000e+00 1.8201446433111212e+01 1.9552906268588515e+01 2.7732269955132306e+01 
1769 1371 2 1.0241512562786192e+00 -1.0343277426784640e+04 1.0000000000000000e+00 1.8881993561920744e+01 1.8022393078899142e+01 2.9905706427354570e+01 
802 404 2 1.0236202469995683e+00 1.3926806891189087e+03 1.0000000000000000e+00 1.9511110088146573e+01 1.9478896758836200e+01 2.7307142637030825e+01 
944 546 2 1.0298237186472525e+00 1.6717845275420950e+04 1.0000000000000000e+00 1.7564802803700282e+01 1.8967494774154716e+01 3.1504706506974362e+01 
627 229 2 1.0315675106433435e+00 1.7040142931734692e+04 1.0000000000000000e+00 1.7504596843502316e+01 1.9213693065344465e+01 2.9741493927491824e+01 
583 185 2 1.0324163155160471e+00 -2.5869502964256931e+03 1.0000000000000000e+00 1.9424855430671517e+01 1.8284071393787674e+01 3.3326262808620676e+01 
1646 1248 2 1.0277031912268966e+00 -5.4186181813321646e+03 1.0000000000000000e+00 1.7734816796504067e+01 1.8938283808131047e+01 2.9319027075287512e+01 
660 262 2 1.0262902983217390e+00 -4.8149190776763126e+03 1.0000000000000000e+00 1.9554164455301187e+01 1.8557470552474591e+01 2.8296732143311651e+01 
637 239 2 1.0318485244250390e+00 -6.2777006985777116e+03 1.0000000000000000e+00 1.9037926764401011e+01 1.8462398111716382e+01 2.8785658481085278e+01 
1235 837 2 1.0264073954948283e+00 -3.8629049750970080e+02 1.0000000000000000e+00 1.9454261112735903e+01 1.9272488788101331e+01 2.7510296933693603e+01 
1507 1109 2 1.0265970673424774e+00 3.6547200262758861e+03 1.0000000000000000e+00 1.8849197437819083e+01 1.8093857836657453e+01 2.9796189337445554e+01 
758 360 2 1.0293661651668151e+00 5.4678356441925698e+03 1.0000000000000000e+00 1.8597250867400952e+01 1.8158232456054112e+01 3.2025102702510402e+01 
1543 1145 2 1.0277046196871220e+00 2.0172561535989749e+04 1.0000000000000000e+00 1.8451859725067855e+01 1.8691566144056171e+01 2.8608541029567775e+01 
1863 1465 2 1.0281648238281467e+00 1.4524332579158703e+04 1.0000000000000000e+00 1.7115813444349246e+01 1.9887721022910782e+01 3.0353283824374177e+01 
1718 1320 2 1.0283093980314422e+00 7.2117900519240029e+03 1.0000000000000000e+00 1.8253083975558447e+01 1.8291935244120104e+01 3.1843977396091397e+01 
1981 1583 2 1.0277795387107951e+00 -6.9222416659650762e+03 1.0000000000000000e+00 1.9621175023891329e+01 1.8131604605859057e+01 3.2946339612705955e+01 
1255 857 2 1.0264536997257192e+00 -4.6982809568439716e+03 1.0000000000000000e+00 1.8216429518264501e+01 1.8322965283110932e+01 2.9999826719719596e+01 
749 351 2 1.0324422348947542e+00 3.2881377324542545e+03 1.0000000000000000e+00 1.8750761037662802e+01 1.9800293667796204e+01 2.7508046204888096e+01 
1707 1309 2 1.0299791912842544e+00 1.7188141072005968e+04 1.0000000000000000e+00 1.9552927000175142e+01 1.9898721290311006e+01 2.7248169255155076e+01 
1417 1019 2 1.0284881421125980e+00 -4.3283286489146785e+03 1.0000000000000000e+00 1.7304371609161276e+01 1.9389621445817948e+01 3.0033910162020174e+01 
415 17 2 1.0243822489072545e+00 -1.2748535038251373e+04 1.0000000000000000e+00 1.8356688166042598e+01 1.9758393417619697e+01 2.7550405086272839e+01 
1581 1183 2 1.0286241449100804e+00 -3.1907130071242527e+03 1.0000000000000000e+00 1.9496787802504194e+01 1.9341667392091555e+01 2.7512212037445320e+01 
1035 637 2 1.0288285387298362e+00 2.5142271056863003e+04 1.0000000000000000e+00 1.9033739142696543e+01 1.9595803424242263e+01 2.7424565179213644e+01 
441 43 2 1.0356001349572179e+00 -1.7387581718113124e+04 1.0000000000000000e+00 1.8673470984513195e+01 1.9526664917324101e+01 2.7778058022415816e+01 
1905 1507 2 1.0286649556493321e+00 -1.3537775231273386e+04 1.0000000000000000e+00 1.7595931499185035e+01 1.8847382593861198e+01 3.1102558637953287e+01 
762 364 2 1.0294569620594809e+00 -3.0821213856414170e+02 1.0000000000000000e+00 1.8982987255501101e+01 1.9944121326486503e+01 2.7297829625671849e+01 
840 442 2 1.0235449965413763e+00 1.4079182638126019e+03 1.0000000000000000e+00 1.9034888293999515e+01 1.9323725007301274e+01 2.7470344789730561e+01 
1599 1201 2 1.0246978703309115e+00 5.4897869500104398e+03 1.0000000000000000e+00 1.9132939673312368e+01 1.9806914019832092e+01 2.7208597342362697e+01 
1561 1163 2 1.0247737907452112e+00 5.0011145767917214e+03 1.0000000000000000e+00 1.9029322390677969e+01 1.9911118278656136e+01 2.7194250876732724e+01 
844 446 2 1.0261363447433089e+00 -2.9550814176989584e+03 1.0000000000000000e+00 1.7453117840199845e+01 1.8964625754532072e+01 3.0874387254125942e+01 
1113 715 2 1.0270768720087120e+00 7.1413180589435933e+03 1.0000000000000000e+00 1.7589484213045210e+01 1.9391769028477494e+01 3.3066991097513771e+01 
833 435 2 1.0258299611188748e+00 2.1162427385679730e+03 1.0000000000000000e+00 1.8974512051743666e+01 1.7946853873900665e+01 3.1470943949168742e+01 
1868 1470 2 1.0280067385597333e+00 1.7518486912013235e+04 1.0000000000000000e+00 1.8934741135004504e+01 1.7989704063164922e+01 3.1316372753087371e+01 
1201 803 2 1.0234670283625134e+00 2.0815812424316697e+04 1.0000000000000000e+00 1.7211537281973293e+01 1.9806497911320378e+01 3.2078840467830382e+01 
613 215 2 1.0287392392806476e+00 -5.1092118540484344e+03 1.0000000000000000e+00 1.9745033385821340e+01 1.8039990629635785e+01 2.9982542966741178e+01 
1093 695 2 1.0290848790391609e+00 -2.3650408673849483e+03 1.0000000000000000e+00 1.9703022891639154e+01 1.8995975478247733e+01 2.7830577251176255e+01 
838 440 2 1.0286550402720847e+00 3.9760772868233203e+03 1.0000000000000000e+00 1.8502999770965506e+01 1.9997713851184411e+01 2.7465346308981250e+01 
750 352 2 1.0258984203572716e+00 2.8756023076875290e+03 1.0000000000000000e+00 1.9395289987559998e+01 1.9679941956131334e+01 2.7255242662038778e+01 
1590 1192 2 1.0246938268319961e+00 2.8587278526686850e+03 1.0000000000000000e+00 1.7450609317169093e+01 1.9809983549923675e+01 3.3001527120201807e+01 
1508 1110 2 1.0276825949274937e+00 3.4581148620762938e+03 1.0000000000000000e+00 1.9395402404799970e+01 1.9507675276523958e+01 2.7386906191686048e+01 
1224 826 2 1.0267831646331358e+00 8.5571797577918405e+03 1.0000000000000000e+00 1.8453122118230592e+01 1.9065307912143485e+01 2.8064654686612514e+01 
914 516 2 1.0334065951922395e+00 -1.3210215898953442e+04 1.0000000000000000e+00 1.8565824475287986e+01 1.9999455962111057e+01 2.7544457221084645e+01 
920 522 2 1.0273104097831691e+00 6.6603938849749784e+02 1.0000000000000000e+00 1.9289776132685699e+01 1.7015475750489546e+01 4.6033207382769916e+01 
598 200 2 1.0246548355103349e+00 -1.0609688644808359e+04 1.0000000000000000e+00 1.8232510190476908e+01 1.6743032328426708e+01 4.6204548056204715e+01 
1373 975 2 1.0228087748653663e+00 2.1814589281391669e+04 1.0000000000000000e+00 1.9108920716437691e+01 1.7227450672617472e+01 4.6241764048797435e+01 
801 403 2 1.0310913864956350e+00 -4.3364709639449857e+03 1.0000000000000000e+00 1.8453453019996147e+01 1.7842272214408332e+01 4.6108520516220878e+01 
755 357 2 1.0247866050241190e+00 5.0463742386558415e+03 1.0000000000000000e+00 1.8655784677947775e+01 1.6649971480220188e+01 4.6170444528752640e+01 
2072 1674 2 1.0292920072367293e+00 -2.0576940391775137e+04 1.0000000000000000e+00 1.7933383439078249e+01 1.7091615277338079e+01 4.6117155950771703e+01 
941 543 2 1.0259177527526260e+00 1.6719977065930696e+04 1.0000000000000000e+00 1.8900017873486401e+01 1.6102308337263260e+01 4.0899180267498018e+01 
1709 1311 2 1.0276655101211691e+00 5.0148527326531439e+03 1.0000000000000000e+00 1.8907338878138187e+01 1.6686047048879839e+01 4.6068544731694899e+01 
1279 881 2 1.0274941391424577e+00 8.1130081318338725e+03 1.0000000000000000e+00 1.9224267988477408e+01 1.7732822858616249e+01 4.6056840736641504e+01 
1788 1390 2 1.0286180023941565e+00 -1.6908117318189068e+03 1.0000000000000000e+00 1.9777157203100700e+01 1.8863140368413902e+01 4.4911385473994507e+01 
830 432 2 1.0277210048997283e+00 4.4673227929364875e+03 1.0000000000000000e+00 1.9291122104151796e+01 1.6108392208943680e+01 4.5534646384598439e+01 
1697 1299 2 1.0276321916201394e+00 5.7989199553055641e+03 1.0000000000000000e+00 1.9087325502294661e+01 1.8508625568400781e+01 3.7355297129510440e+01 
1243 845 2 1.0242224998214828e+00 -8.6146991941001743e+03 1.0000000000000000e+00 1.7199617264288054e+01 1.6820263850777142e+01 4.5780307857473630e+01 
471 73 2 1.0256563677640285e+00 -1.9378660359432612e+04 1.0000000000000000e+00 1.8706410351736160e+01 1.5815888241786443e+01 4.5524209526268159e+01 
842 444 2 1.0322850158330907e+00 3.5415737309234810e+03 1.0000000000000000e+00 1.8461857581731437e+01 1.7036476842847083e+01 4.6113510817396765e+01 
962 564 2 1.0304025000518777e+00 1.2617383225203879e+04 1.0000000000000000e+00 1.8121749386303058e+01 1.7904785562251401e+01 4.6075500348389234e+01 
1902 1504 2 1.0295215011916936e+00 -1.2171283454712207e+04 1.0000000000000000e+00 1.7922980665079752e+01 1.6287067150107479e+01 4.5773907116566555e+01 