LAMMPS data file via write_data, version 30 Jul 2016, timestep = 50000000

4620 atoms
8 atom types

0.0000000000000000e+00 1.0000000000000000e+02 xlo xhi
0.0000000000000000e+00 4.0000000000000000e+01 ylo yhi
0.0000000000000000e+00 4.0000000000000000e+01 zlo zhi

Masses

1 3.896
2 5.36
3 20.064
4 8.378
5 8.378
6 8.378
7 8.378
8 8.378

Atoms # meso-molecular

3027 3028 2 1.0280000000000014e+00 -4.9640603223376803e+02 1.0000000000000000e+00 3.2201314834159478e-01 1.5016490898728010e+01 1.5883102567215597e+00 
1222 1223 2 1.0279999999999978e+00 -8.1137762699921063e+02 1.0000000000000000e+00 4.5933133187974606e+00 2.6372707350126551e-01 2.2081477594382801e+00 
3596 3597 2 1.0279999997020426e+00 1.0246355344759218e+02 1.0000000000000000e+00 3.3238146958913227e+01 1.2846658715982052e+01 2.4449019191502388e+00 
1787 1788 2 1.0280000000000005e+00 -2.9178745144386494e+02 1.0000000000000000e+00 3.1611565735815375e+01 1.3804009879293609e+01 5.1582806301479787e+00 
1788 1789 2 1.0280000000000005e+00 -1.5981352871593737e+02 1.0000000000000000e+00 3.0915698444592643e+01 1.4461842015912477e+01 6.0806460597290322e+00 
1038 1039 2 1.0279999999999996e+00 4.0814550689304284e+01 1.0000000000000000e+00 2.3866677597094377e+01 1.9864733890522395e+01 5.3313136506855656e+00 
2955 2956 2 1.0279999999999994e+00 2.5977809375906895e+02 1.0000000000000000e+00 1.6366089547412848e+01 1.0296464490670580e+01 7.7034990871942615e+00 
1569 1570 2 1.0279999999999994e+00 2.5942939021668013e+02 1.0000000000000000e+00 1.6334008755500236e+01 1.1516352273496096e+01 7.1756951342422557e+00 
2561 2562 2 1.0280000000000002e+00 -1.6705503813793774e+02 1.0000000000000000e+00 1.4207375803767212e+01 1.8966912326192450e+01 8.0036276445448067e+00 
3829 3830 2 1.0280000000000000e+00 7.6482303768159369e+01 1.0000000000000000e+00 2.1265513084379606e+00 1.8420464704367074e+01 8.5628598566112721e+00 
3784 3785 2 1.0280000000000000e+00 4.2522069117318188e+02 1.0000000000000000e+00 3.3003265000915478e+00 1.8886494986382900e+01 8.9785520123603160e+00 
3900 3901 2 1.0280000000000002e+00 2.6628620753651211e+02 1.0000000000000000e+00 4.4535843894151084e+00 1.0363169451219136e+00 1.0593606777751379e+01 
4363 4364 2 1.0280000000000002e+00 5.2108577737738256e+02 1.0000000000000000e+00 4.0289658325600914e+00 2.2245823271647525e+00 1.1012482482061619e+01 
289 290 2 1.0280000000000005e+00 5.0850549419223330e+02 1.0000000000000000e+00 2.9941806171016413e+01 1.7377982217247345e+00 1.0674204503733606e+01 
750 751 2 1.0280000000000005e+00 2.5217815836846017e+02 1.0000000000000000e+00 2.8764633396503584e+01 1.8091450915716174e+00 1.1288131434041494e+01 
959 960 2 1.0280000000000011e+00 1.2575544780293222e+02 1.0000000000000000e+00 3.9607027557901726e+00 1.0566482916460481e+01 1.3212075677242694e+01 
127 128 2 1.0280000000000009e+00 7.1279511081123317e+01 1.0000000000000000e+00 4.0671233027206855e+00 1.9730311465578144e+01 1.1706510715839286e+01 
1979 1980 2 1.0280000000000009e+00 5.4669011717069589e+00 1.0000000000000000e+00 4.1014410771583307e+00 1.9987079029095696e+01 1.3010590890265442e+01 
1874 1875 2 1.0280000000000011e+00 -2.6560508547646884e+02 1.0000000000000000e+00 4.9042796977314760e+00 1.0954084169532690e+01 1.4064812574475363e+01 
4493 4494 2 1.0279999999999998e+00 4.3871806955627306e+01 1.0000000000000000e+00 3.0989068847054515e+01 1.8555088457229406e+01 1.3946130787657181e+01 
2687 2688 2 1.0279999999999998e+00 1.4564902711352143e+01 1.0000000000000000e+00 3.2069061631650776e+01 1.9259202846746248e+01 1.3621214022402150e+01 
3068 3069 2 1.0280000000000000e+00 -3.9388813007006502e+02 1.0000000000000000e+00 1.1655729780734671e+01 5.0441436935928214e+00 1.9775022716872233e+01 
3109 3110 2 1.0280000000000000e+00 -1.9738519872972711e+02 1.0000000000000000e+00 1.1370301296086957e+01 6.2516320528729885e+00 2.0252762012935527e+01 
2323 2324 2 1.0280000000000009e+00 -2.8900536890023398e+02 1.0000000000000000e+00 3.2785093539258298e+01 7.3690927486124833e+00 2.0948082650986542e+01 
2365 2366 2 1.0280000000000009e+00 2.5353190368086899e+02 1.0000000000000000e+00 3.1785369815954546e+01 7.6420018689840346e+00 2.0115132783509420e+01 
4333 4334 2 1.0280000000000002e+00 2.3352800032947401e+00 1.0000000000000000e+00 5.4493598439521600e+00 1.8283445675303319e+01 2.3158139495724154e+01 
2401 2402 2 1.0280000000000002e+00 1.2466223580025865e+01 1.0000000000000000e+00 4.4059395079270454e+00 1.8871305974567527e+01 2.2580708405838369e+01 
206 207 2 1.0279999999999994e+00 -2.3383622643947979e+02 1.0000000000000000e+00 1.3254154056998093e+01 9.2747254678315691e+00 2.3940897669586196e+01 
972 973 2 1.0280000000000002e+00 4.8958310702010948e+01 1.0000000000000000e+00 2.3190412847707407e+01 8.5124451121399023e+00 2.4223103180853233e+01 
124 125 2 1.0279999999999994e+00 -4.5571209924374426e+02 1.0000000000000000e+00 1.3123307983072431e+01 1.0427852934901374e+01 2.4589672470480831e+01 
2271 2272 2 1.0280000000000005e+00 -2.3214354633615875e+02 1.0000000000000000e+00 3.3313610276476048e+01 1.0886187682955804e+01 2.3539785076196875e+01 
2306 2307 2 1.0279999999999998e+00 -1.1864160765163916e+02 1.0000000000000000e+00 9.6732299966969713e+00 1.5321788454984304e+01 2.4704227688932857e+01 
1846 1847 2 1.0279999999999998e+00 -2.5343378676894937e+02 1.0000000000000000e+00 1.0965929005892130e+01 1.5042822043610034e+01 2.4566970974709950e+01 
4070 4071 2 1.0280000000000014e+00 4.1970988817351349e+02 1.0000000000000000e+00 2.8228846850364750e+01 1.7216205232408196e+01 2.3527964716887105e+01 
3857 3858 2 1.0280000000000014e+00 -2.5784407746477757e+02 1.0000000000000000e+00 2.8585645663217154e+01 1.7229117523697713e+01 2.4808691179692186e+01 
2144 2145 2 1.0279999999999978e+00 -3.4668651434507115e+02 1.0000000000000000e+00 3.1013930617145473e+01 1.8627510144201008e+01 2.4920001034147226e+01 
1219 1220 2 1.0279999999999978e+00 -2.0829258473063018e+02 1.0000000000000000e+00 3.2342937521158397e+01 1.8645947052213558e+01 2.4886339154262345e+01 
1475 1476 2 1.0280000000000002e+00 -3.6046066520261650e+02 1.0000000000000000e+00 2.3084303920429996e+01 7.8688879842661956e+00 2.5381683135523360e+01 
1471 1472 2 1.0280000000000002e+00 -1.9959735175600497e+02 1.0000000000000000e+00 2.7248061598062816e+00 1.1191729173581891e+01 2.6905538123728743e+01 
1514 1515 2 1.0280000000000002e+00 -3.9464293525445402e+02 1.0000000000000000e+00 3.1289285945751750e+00 1.2086608097406943e+01 2.7801980627216071e+01 
3709 3710 2 1.0280000000000000e+00 -1.1816128960923368e+02 1.0000000000000000e+00 2.2361735873541186e+01 1.3520831018093576e+01 2.7833476329766192e+01 
2363 2364 2 1.0280000000000000e+00 3.5108788406012843e+02 1.0000000000000000e+00 2.2588279917583787e+01 1.2429356396992372e+01 2.8558109575104314e+01 
550 551 2 1.0280000000000009e+00 4.2478457343914943e+02 1.0000000000000000e+00 2.8870260680201156e+01 1.6276264623257578e+01 2.9786166458629825e+01 
4412 4413 2 1.0280000000000011e+00 -3.0706568159994117e+02 1.0000000000000000e+00 2.3496427454014377e+01 1.7724605420793623e+01 2.9924378327710176e+01 
595 596 2 1.0280000000000009e+00 7.5313335834639844e+01 1.0000000000000000e+00 2.7986502622207833e+01 1.7267408567324804e+01 2.9852028205639627e+01 
3950 3951 2 1.0280000000000011e+00 8.7628474178568126e+01 1.0000000000000000e+00 2.3477412606338078e+01 1.8270653739538997e+01 3.1136484784178272e+01 
380 381 2 1.0279999999999996e+00 -3.5674184999094484e+02 1.0000000000000000e+00 1.4508889880050506e+00 1.1021904594182022e+01 3.3076935853519537e+01 
381 382 2 1.0279999999999996e+00 -2.2462873909133071e+02 1.0000000000000000e+00 2.5013887847256768e+00 1.0591480190059812e+01 3.2384897269281332e+01 
418 419 2 1.0280000000000000e+00 -2.1641559362416677e+02 1.0000000000000000e+00 2.2070325291966537e+01 5.7467496466140702e+00 3.5225973560667057e+01 
419 420 2 1.0280000000000000e+00 -3.5015956296159959e+02 1.0000000000000000e+00 2.1322814512960534e+01 6.8457670857931827e+00 3.5192496758273805e+01 
1885 1886 2 1.0280000000000000e+00 -1.2170575642297803e+02 1.0000000000000000e+00 2.1416603403476454e+01 1.3015387596898444e+01 3.7934121381638882e+01 
1425 1426 2 1.0280000000000000e+00 3.0618248692836181e+02 1.0000000000000000e+00 2.2018665468460803e+01 1.3848143599901098e+01 3.7090456103214862e+01 
3780 3781 2 1.0280002712201104e+00 -2.3753768668056034e+02 1.0000000000000000e+00 1.0906265580389350e+01 1.8547924274186954e+01 3.8092379881828627e+01 
4026 4027 2 1.0279997282051931e+00 7.8218620752658182e+01 1.0000000000000000e+00 1.0462409780979316e+01 1.6783227199638674e+01 3.8888895436434403e+01 
4071 4072 2 1.0280002712201004e+00 4.2882845854662150e+02 1.0000000000000000e+00 9.7280978647709553e+00 1.7430220078189905e+01 3.9812583394278235e+01 
3318 3319 2 1.0279997282052145e+00 -3.3082957294968276e+02 1.0000000000000000e+00 1.0370592488955946e+01 1.9188315406763870e+01 3.9147826116877226e+01 
255 256 2 1.0279999999999980e+00 -3.9825209127469250e+01 1.0000000000000000e+00 4.4656696829074836e+00 3.9258691494272078e+01 1.3471349956834651e+00 
294 295 2 1.0280000000000000e+00 4.2982623704417222e+02 1.0000000000000000e+00 2.0542147505424580e+01 2.9306901043156032e+01 1.8942429279571391e+00 
798 799 2 1.0280000000000000e+00 -1.4844355173499945e+01 1.0000000000000000e+00 1.9920068152534540e+01 3.0357768017096465e+01 2.4200073946507699e+00 
2724 2725 2 1.0279999999999994e+00 -2.5534246585319920e+01 1.0000000000000000e+00 6.9623320068262702e+00 3.0525308432308272e+01 4.3174178100932847e+00 
2766 2767 2 1.0279999999999994e+00 6.1671593610175734e+01 1.0000000000000000e+00 7.9004566136213343e+00 3.1278063796188246e+01 4.8839987636418423e+00 
1087 1088 2 1.0280000000000000e+00 1.5610263049952016e+02 1.0000000000000000e+00 3.2737844888347809e+01 3.8038433883052043e+01 3.4592929374439199e+00 
578 579 2 1.0279999999999996e+00 2.5280077674058521e+02 1.0000000000000000e+00 2.2587965097944711e+01 2.0191177743485049e+01 5.1698789950822279e+00 
3023 3024 2 1.0280000000000002e+00 -2.8967925431036008e+02 1.0000000000000000e+00 1.4791185050734672e+01 2.0117890570392934e+01 8.3232340230495367e+00 
1422 1423 2 1.0280000000000002e+00 1.4129016278579154e+01 1.0000000000000000e+00 2.9347916637450574e+01 2.3208063759065606e+01 7.8048849323952583e+00 
1420 1421 2 1.0280000000000002e+00 -2.7589846916541342e+02 1.0000000000000000e+00 3.0565663512026326e+01 2.3320193513189853e+01 7.2831073357609508e+00 
1878 1879 2 1.0280000000000042e+00 -2.8680839666584177e+02 1.0000000000000000e+00 1.9565066843421800e+01 2.3491817972608544e+01 7.8385936864811443e+00 
1920 1921 2 1.0280000000000042e+00 2.6353528716633525e+02 1.0000000000000000e+00 2.0226893480438395e+01 2.4622731566857126e+01 8.0638764810471883e+00 
1765 1766 2 1.0280000000000000e+00 1.7083875827703568e+02 1.0000000000000000e+00 1.1704790633770539e+01 2.9153416604382485e+01 6.7988161350782494e+00 
2227 2228 2 1.0280000000000000e+00 -4.4342250741947873e+02 1.0000000000000000e+00 1.1778368487636218e+01 2.9596147418236860e+01 8.0503384555075801e+00 
4492 4493 2 1.0280000199810368e+00 -2.1552933633873758e+02 1.0000000000000000e+00 3.3056617420984573e+01 3.6555951840960539e+01 9.2270794440419213e+00 
3817 3818 2 1.0279999914683235e+00 2.5454818968717216e+01 1.0000000000000000e+00 3.3292658922425773e+01 3.8627095951261055e+01 9.8953624188908353e+00 
1515 1516 2 1.0279999999999996e+00 -7.9477403258440495e+02 1.0000000000000000e+00 2.5403832951639767e+01 2.0997173029911547e+01 1.1058913784343455e+01 
1557 1558 2 1.0279999999999996e+00 -4.9497763381641613e+02 1.0000000000000000e+00 2.6422390849335653e+01 2.0189776644733833e+01 1.1338883923629332e+01 
2775 2776 2 1.0279999999999996e+00 -2.5347511651926129e+02 1.0000000000000000e+00 1.0291947757252922e+01 2.2344529882798668e+01 1.0975054477535519e+01 
2315 2316 2 1.0279999999999996e+00 -1.1779547067706383e+02 1.0000000000000000e+00 1.1549213085228404e+01 2.1921014352732911e+01 1.1062523806515912e+01 
505 506 2 1.0280000000000005e+00 -2.4079023278152860e+02 1.0000000000000000e+00 2.0412404494124377e+01 3.1550828831878114e+01 1.2687356256781065e+01 
4243 4244 2 1.0279999999999925e+00 -2.7228162037882237e+02 1.0000000000000000e+00 1.8746174958397791e+01 3.7641612508062146e+01 1.2960764669290237e+01 
2774 2775 2 1.0279999999999925e+00 1.4495058686182657e+02 1.0000000000000000e+00 1.9873552635467089e+01 3.8148217004494981e+01 1.2470760740644394e+01 
4068 4069 2 1.0279999999999996e+00 3.3426264352054460e+02 1.0000000000000000e+00 2.2874895908760397e+01 2.4489786220747551e+01 1.3927034169532879e+01 
967 968 2 1.0280000000000005e+00 -3.3357573013981164e+02 1.0000000000000000e+00 1.9713140050211962e+01 3.0842149549528848e+01 1.3568568663013092e+01 
1010 1011 2 1.0279999999999996e+00 3.9469274541477080e+02 1.0000000000000000e+00 2.6661977885082440e+01 3.4147252342059758e+01 1.4132991987896215e+01 
4067 4068 2 1.0279999999999996e+00 -8.8401051535462045e+01 1.0000000000000000e+00 2.3078550626714502e+01 2.3774827106730065e+01 1.5029345656267378e+01 
1052 1053 2 1.0279999999999996e+00 5.2953677805188522e+02 1.0000000000000000e+00 2.6899927285035172e+01 3.3596917980356245e+01 1.5319686795350506e+01 
1734 1735 2 1.0280000000000002e+00 -1.3257551908914837e+02 1.0000000000000000e+00 2.5123661680198200e+01 2.3122049875881217e+01 1.8204382664749939e+01 
299 300 2 1.0280000000000002e+00 -3.0673438141101440e+02 1.0000000000000000e+00 2.6166672871390290e+01 2.2383466572335234e+01 1.7837838327159503e+01 
1865 1866 2 1.0279999999999967e+00 -2.5240494925750423e+02 1.0000000000000000e+00 1.9261810770804967e+01 2.4309422240901579e+01 1.8840140168657289e+01 
2285 2286 2 1.0279999999999967e+00 -2.7146854381587707e+02 1.0000000000000000e+00 2.0038308218031727e+01 2.5302008515679137e+01 1.9263881356438237e+01 
1137 1138 2 1.0280000000000016e+00 3.7804561414035072e+02 1.0000000000000000e+00 2.9087411950601808e+01 2.6774660830098139e+01 1.9104255919418836e+01 
999 1000 2 1.0280000000000000e+00 3.3745268643191542e+02 1.0000000000000000e+00 4.3150932001735587e+00 3.8140894972151948e+01 1.9465380775697206e+01 
1600 1601 2 1.0280000000000016e+00 -3.9390026235096013e+02 1.0000000000000000e+00 2.8221025191310332e+01 2.6718777706151428e+01 2.0111223372930027e+01 
339 340 2 1.0280000000000007e+00 -4.5545803839044561e+02 1.0000000000000000e+00 3.7280914647192844e+00 3.4918674651575927e+01 2.1628588742182753e+01 
537 538 2 1.0280000000000000e+00 2.6861351841007757e+02 1.0000000000000000e+00 4.3682182139009234e+00 3.9347875803573878e+01 2.0020455003296494e+01 
3227 3228 2 1.0279999999999991e+00 -2.7953742723373250e+02 1.0000000000000000e+00 2.6775740731760422e+01 3.0254445809105381e+01 2.3213930819304849e+01 
257 258 2 1.0280000000000007e+00 -2.3802082445820994e+02 1.0000000000000000e+00 3.9429641136446643e+00 3.5169487466534271e+01 2.2916476574738411e+01 
1262 1263 2 1.0280000000000005e+00 4.0919150179279848e+02 1.0000000000000000e+00 1.0318055854930945e+01 2.5472751853458433e+01 2.4082459869325543e+01 
4151 4152 2 1.0279999999999991e+00 -2.5539104503474391e+02 1.0000000000000000e+00 2.7529743341716376e+01 3.0247823079126288e+01 2.4308996386417473e+01 
3325 3326 2 1.0280000000000005e+00 -4.7748004515790603e+02 1.0000000000000000e+00 2.4004095304637030e+01 3.5763623958962221e+01 2.4747317225004892e+01 
4616 4617 2 1.0280000000000005e+00 6.8492835004161952e+02 1.0000000000000000e+00 2.1589762795125498e+01 2.2936630090464696e+01 2.5111156979000889e+01 
1220 1221 2 1.0280000000000005e+00 5.4144011100961234e+02 1.0000000000000000e+00 1.0971383660203642e+01 2.4914928220569557e+01 2.5097214995499669e+01 
4527 4528 2 1.0280000000000005e+00 4.6043436476992611e+02 1.0000000000000000e+00 2.1133692181651330e+01 2.3425284278753413e+01 2.6260482464858416e+01 
598 599 2 1.0280000000000000e+00 -3.6822093915634025e+02 1.0000000000000000e+00 2.0956354881894725e+01 3.0337318297606107e+01 2.5712588763221063e+01 
1056 1057 2 1.0280000000000000e+00 1.5790458983723948e+02 1.0000000000000000e+00 2.2120332465725273e+01 3.0970470164511006e+01 2.5822166545746967e+01 
3745 3746 2 1.0280000000000005e+00 -2.8541105409149043e+02 1.0000000000000000e+00 2.4963491267767662e+01 3.6060261491114382e+01 2.5618694269168767e+01 
1903 1904 2 1.0280000000000000e+00 2.5096666688990888e+02 1.0000000000000000e+00 1.1074585403570360e+01 3.7769330934806113e+01 2.5762081886793055e+01 
1861 1862 2 1.0280000000000000e+00 -2.8567681971073409e+02 1.0000000000000000e+00 1.2350680281897565e+01 3.8027176657394136e+01 2.6031951924956960e+01 
2764 2765 2 1.0279999999998026e+00 -2.4896596661698078e+02 1.0000000000000000e+00 2.6105394220625993e+01 2.4775780977746610e+01 2.8114205656928384e+01 
3707 3708 2 1.0279999999999998e+00 -2.9687643963901189e+02 1.0000000000000000e+00 1.4996906979107155e+01 3.0044043960261206e+01 2.8155740717497686e+01 
3908 3909 2 1.0280000000000020e+00 -1.2167932564703160e+03 1.0000000000000000e+00 2.2092634000173799e+01 3.7312659603336975e+01 2.8253308643668085e+01 
3065 3066 2 1.0279999999998093e+00 -3.9071072313109369e+02 1.0000000000000000e+00 2.6228490340391591e+01 2.1646284293281585e+01 2.9428097216818841e+01 
2603 2604 2 1.0279999999998093e+00 6.9434948999385355e+01 1.0000000000000000e+00 2.6096710780818469e+01 2.0395169643456331e+01 2.9858304926327616e+01 
2765 2766 2 1.0279999999998026e+00 1.5937412626636865e+02 1.0000000000000000e+00 2.5604830678391693e+01 2.3937033651072053e+01 2.9016243047966920e+01 
3240 3241 2 1.0279999999999998e+00 -1.1128639910424053e+02 1.0000000000000000e+00 1.4227693498478731e+01 3.0294685676966999e+01 2.9210833956844205e+01 
1395 1396 2 1.0279999999999978e+00 -2.7354202538163986e+02 1.0000000000000000e+00 1.9593463108295960e+01 3.1022474097747853e+01 2.9761591502069962e+01 
1393 1394 2 1.0279999999999978e+00 1.5899488204454542e+01 1.0000000000000000e+00 2.0845981864746896e+01 3.0698589287230764e+01 2.9454951995640382e+01 
4035 4036 2 1.0280000000000020e+00 2.3149262374823547e+02 1.0000000000000000e+00 2.3046490503435376e+01 3.8091389977536977e+01 2.8754775659664514e+01 
2438 2439 2 1.0279999999999998e+00 -3.3919101100308421e+02 1.0000000000000000e+00 1.7006658498327607e+01 2.1315501647522321e+01 3.1349042119922021e+01 
3361 3362 2 1.0279999999999998e+00 -1.9696366015589126e+02 1.0000000000000000e+00 1.6594423826124746e+01 2.1873091723233504e+01 3.0214631138332610e+01 
2452 2453 2 1.0279999999999987e+00 3.9406446820886906e+01 1.0000000000000000e+00 3.2826245480689202e+01 2.4755218292426552e+01 3.3065934760103701e+01 
756 757 2 1.0280000000000005e+00 5.2953418832939590e+01 1.0000000000000000e+00 3.7011588280534560e+00 3.2152585384947173e+01 3.2596900075788724e+01 
842 843 2 1.0279999999999994e+00 1.4510089256766767e+03 1.0000000000000000e+00 9.0918979284708730e+00 2.2127560957667697e+01 3.4524187667808377e+01 
1305 1306 2 1.0279999999999994e+00 3.2249132859768395e+02 1.0000000000000000e+00 8.7823360532221209e+00 2.3409813971926596e+01 3.4357661257095536e+01 
956 957 2 1.0280000000000005e+00 5.5998123773162467e+02 1.0000000000000000e+00 3.2546880804220322e+01 3.0258575533611186e+01 3.3585437778837644e+01 
715 716 2 1.0280000000000005e+00 5.6984573792036414e+01 1.0000000000000000e+00 4.3435350205256036e+00 3.2931600025182675e+01 3.3461898000810621e+01 
2348 2349 2 1.0279999999999989e+00 -1.1816666936693352e+02 1.0000000000000000e+00 2.6262641599630278e+01 3.7537865303047887e+01 3.5327139370525366e+01 
2812 2813 2 1.0279999999999989e+00 -2.5382338501468973e+02 1.0000000000000000e+00 2.7542391307146666e+01 3.7477442269016578e+01 3.5682557625147481e+01 
3955 3956 2 1.0279999999999996e+00 2.5742838016558994e+02 1.0000000000000000e+00 1.1769976369012120e+01 3.9055527512243621e+01 3.5722092517077996e+01 
3120 3121 2 1.0279999999999996e+00 -1.3162326465642701e+02 1.0000000000000000e+00 1.3066607690980325e+01 3.8956027206879803e+01 3.5445362871445390e+01 
3159 3160 2 1.0279999999999949e+00 -1.3772610364313999e+02 1.0000000000000000e+00 3.2872134598335087e+01 3.8483372118005512e+01 3.5590296102458950e+01 
3241 3242 2 1.0280000000000005e+00 1.1473483441616892e+02 1.0000000000000000e+00 1.4430160403820267e+00 2.5821378755888304e+01 3.8496854705261121e+01 
931 932 2 1.0280000000000005e+00 1.0761309230173595e+02 1.0000000000000000e+00 1.0835891768356127e+00 2.6795703557256008e+01 3.9327057032317256e+01 
3570 3571 2 1.0279999880401196e+00 -1.9774840397764450e+02 1.0000000000000000e+00 3.7702611684230810e+01 4.4563810922015645e-01 7.8168279216744263e-01 
552 553 2 1.0280000468648425e+00 2.5848242490157457e+01 1.0000000000000000e+00 4.0499921818991254e+01 1.5129956347440325e+00 1.4989289584220982e+00 
4038 4039 2 1.0279999717193276e+00 2.0809984196390353e+01 1.0000000000000000e+00 4.1860229539687211e+01 1.3891730253334280e+00 6.2312360917481624e-01 
1976 1977 2 1.0279999998348752e+00 -3.3993634588181408e+02 1.0000000000000000e+00 4.5710833959122148e+01 9.1899345114240660e-01 1.2565294180836990e+00 
2497 2498 2 1.0280000005603307e+00 4.7335150590444835e+02 1.0000000000000000e+00 5.1517848712909903e+01 9.9942645170573374e-01 2.3303509477075579e-01 
1127 1128 2 1.0280000005970988e+00 -3.9789546620014235e+01 1.0000000000000000e+00 5.5021775978438122e+01 1.5917806861301145e+00 9.0604459607609766e-01 
2055 2056 2 1.0280000000739551e+00 2.0621016091950131e+02 1.0000000000000000e+00 5.5501236332972873e+01 1.4318378472754911e-01 9.6311682991866121e-01 
540 541 2 1.0280000166681145e+00 -2.9210130436914324e+02 1.0000000000000000e+00 5.7993791668498950e+01 3.7289406114797641e-01 4.8318238760087212e-01 
1845 1846 2 1.0279993240286687e+00 3.0183540737541216e+02 1.0000000000000000e+00 6.2461121706075851e+01 3.5587034860988481e-01 7.7651851513839867e-02 
2645 2646 2 1.0280000125047020e+00 -3.3988607373105617e+02 1.0000000000000000e+00 3.7451368906265444e+01 2.1536146979181829e+00 7.6189212535432072e-01 
135 136 2 1.0279999925201873e+00 -6.2678060699689809e+01 1.0000000000000000e+00 4.5382161741299655e+01 3.3049658696599460e+00 7.1694582499615300e-01 
1100 1101 2 1.0279999953425534e+00 -3.0037258089388402e+01 1.0000000000000000e+00 4.6551046976434236e+01 1.9505107059393449e+00 2.7336471796497608e-01 
1106 1107 2 1.0280000006247894e+00 6.4893901491258902e+01 1.0000000000000000e+00 4.9573666108321270e+01 2.5614032844339714e+00 1.0641248835330481e+00 
658 659 2 1.0279999996232685e+00 2.4890304916464316e+01 1.0000000000000000e+00 5.2701694395174471e+01 1.8928783664462481e+00 1.2200469803254126e+00 
1121 1122 2 1.0279999997401581e+00 6.3193284428337513e+01 1.0000000000000000e+00 5.2822922789667395e+01 3.2030527828900723e+00 3.3882553139725574e-01 
1588 1589 2 1.0280000003860108e+00 5.3652279688309545e+02 1.0000000000000000e+00 5.4029310387607865e+01 2.8245349162389828e+00 1.4219349784748314e+00 
249 250 2 1.0279999990490798e+00 3.3106522414953751e+01 1.0000000000000000e+00 3.8513702836446605e+01 4.7600821568753346e+00 1.3473513631480873e+00 
214 215 2 1.0280000027632548e+00 3.3385821942970004e+01 1.0000000000000000e+00 3.8718486341392513e+01 3.3467466370469090e+00 5.3130484832355263e-01 
497 498 2 1.0279999829212925e+00 -2.4743974633768249e+02 1.0000000000000000e+00 4.3030878942466288e+01 4.3109598807723337e+00 4.1256751011606446e-01 
1562 1563 2 1.0280000070929824e+00 3.6818131903629580e+02 1.0000000000000000e+00 4.6833231654601704e+01 3.7810346796088230e+00 6.3699153968231592e-01 
645 646 2 1.0279999956216006e+00 1.8208119210227409e+01 1.0000000000000000e+00 4.8442943700349218e+01 4.2808698236297245e+00 9.3040664131125805e-01 
2019 2020 2 1.0280000015804356e+00 5.2918044058609610e+02 1.0000000000000000e+00 4.1730555639979571e+01 5.5342690554828486e+00 1.5538736305787479e-01 
641 642 2 1.0280000016922062e+00 6.5492574980371887e+02 1.0000000000000000e+00 4.8158759509237356e+01 6.6190613246952728e+00 3.3268290848035076e-01 
662 663 2 1.0279999909660189e+00 6.5005330365417853e+02 1.0000000000000000e+00 5.4775386380357048e+01 6.2762381491426185e+00 1.1089571343219591e+00 
663 664 2 1.0280000080263152e+00 4.4342014113678709e+02 1.0000000000000000e+00 5.6269310110504350e+01 6.4640452357850720e+00 1.6216226824579943e-01 
2035 2036 2 1.0280000062240082e+00 4.7887635483389926e+02 1.0000000000000000e+00 4.9847054119836258e+01 7.1483543691265981e+00 3.4429651614343693e-01 
69 70 2 1.0280000050268201e+00 1.3972149667042669e+02 1.0000000000000000e+00 5.1687188191199525e+01 7.3156743272484812e+00 4.7550461891834295e-01 
1538 1539 2 1.0280000025888985e+00 5.5352376997406601e+01 1.0000000000000000e+00 5.3181830055012306e+01 7.1593218484734447e+00 1.3579090194496610e+00 
26 27 2 1.0280000087830936e+00 -2.1486926589623516e+02 1.0000000000000000e+00 6.6632950117202299e+01 8.0147255293479809e+00 6.9806109780458558e-01 
1101 1102 2 1.0280000001719152e+00 1.3649094669756133e+02 1.0000000000000000e+00 4.3408230810774945e+01 8.6150635531035427e+00 9.3960509152983662e-01 
56 57 2 1.0280000005637775e+00 1.4201280506699096e+01 1.0000000000000000e+00 4.6131396890292372e+01 8.5404746919660504e+00 8.5328396151354369e-01 
564 565 2 1.0279999991795665e+00 -2.3587649619856859e+02 1.0000000000000000e+00 4.8597841681600130e+01 9.8450694381204720e+00 8.8602971388954499e-01 
1537 1538 2 1.0279999990828990e+00 1.5240081572274860e+02 1.0000000000000000e+00 5.3411825193094629e+01 9.0655923105833942e+00 1.5163889098756809e+00 
1129 1130 2 1.0279999954596521e+00 8.0397337543654305e+02 1.0000000000000000e+00 5.8439735677362442e+01 9.8188347230971829e+00 9.5762666359914123e-02 
174 175 2 1.0280000000068450e+00 5.3256452948143692e+02 1.0000000000000000e+00 6.1535535117108175e+01 9.2661776245543326e+00 1.4199106076816825e+00 
106 107 2 1.0279999883813873e+00 3.4363300406400896e+02 1.0000000000000000e+00 6.5852185206468960e+01 8.8155657354368309e+00 1.5772501934796226e+00 
2021 2022 2 1.0280000007927417e+00 1.3147403814256637e+02 1.0000000000000000e+00 4.0871826365871222e+01 1.0390928998694795e+01 1.2724551910717155e+00 
474 475 2 1.0280000005633223e+00 3.0254252127069532e+02 1.0000000000000000e+00 4.3296015495313931e+01 1.0682683528098346e+01 5.2130847147315129e-01 
1063 1064 2 1.0279999998239622e+00 9.9861186739241532e+00 1.0000000000000000e+00 4.4953662130597635e+01 1.0559100162662904e+01 5.1306345457172786e-01 
1530 1531 2 1.0280000010113823e+00 1.1962029196978358e+02 1.0000000000000000e+00 4.6836801019596706e+01 1.0031778486243077e+01 1.2729564777004139e+00 
608 609 2 1.0280000017169730e+00 -1.9855569691445510e+02 1.0000000000000000e+00 4.9198776112242307e+01 1.1394768892850450e+01 9.8376872810324134e-01 
1575 1576 2 1.0279999995023288e+00 3.9708364727048217e+02 1.0000000000000000e+00 5.0571724620625361e+01 1.1525704789404891e+01 3.9531233323095277e-01 
108 109 2 1.0280000013624453e+00 1.1170646993890459e+02 1.0000000000000000e+00 5.2260149599764866e+01 1.0362123972449520e+01 1.5347764034009492e+00 
570 571 2 1.0279999986448631e+00 9.7273557518814641e+02 1.0000000000000000e+00 5.2896263445035203e+01 1.1188830388349757e+01 4.4140524918872930e-02 
574 575 2 1.0280000027200156e+00 6.0919574314507292e+02 1.0000000000000000e+00 5.4102770621624884e+01 1.0036960369626751e+01 5.2027228840091544e-01 
198 199 2 1.0280000016349111e+00 1.1398472740407648e+02 1.0000000000000000e+00 5.7703901342278293e+01 1.0516597099076867e+01 1.3836778511049508e+00 
4278 4279 2 1.0280000130246041e+00 5.1372697826145846e+01 1.0000000000000000e+00 6.0604923486254570e+01 1.1159965396361464e+01 2.8165191432025261e-01 
91 92 2 1.0279999999986611e+00 4.9716803598399494e+01 1.0000000000000000e+00 4.1886967954208245e+01 1.2306332469614398e+01 1.1183682095900767e+00 
944 945 2 1.0279999995558331e+00 2.5946909004367035e+02 1.0000000000000000e+00 4.6652776710965412e+01 1.1785602490495934e+01 9.5026462610784457e-01 
611 612 2 1.0280000033870200e+00 -9.3744828278338176e+01 1.0000000000000000e+00 5.2210925823049465e+01 1.2355907492863897e+01 9.7715688344497953e-01 
615 616 2 1.0279999988515507e+00 -4.6256024687001775e+02 1.0000000000000000e+00 5.3977618770848622e+01 1.2520699058388127e+01 4.9860687016569033e-01 
618 619 2 1.0280000059982985e+00 -3.2149235938744016e+02 1.0000000000000000e+00 5.6132533859195156e+01 1.2549546692040980e+01 5.2178668082985014e-01 
1546 1547 2 1.0280000155426940e+00 -6.5955735672697733e+02 1.0000000000000000e+00 5.7724108705026111e+01 1.2479756273233349e+01 4.2704073758268563e-01 
177 178 2 1.0279999997127245e+00 2.3980307886721454e+02 1.0000000000000000e+00 4.2556091321657370e+01 1.3512320675948182e+01 6.8368271926098989e-01 
653 654 2 1.0280000010746004e+00 2.9942733180560094e+02 1.0000000000000000e+00 5.1687123736285670e+01 1.4193917104018608e+01 9.8493882795184562e-01 
991 992 2 1.0279999974327905e+00 1.3709320629718556e+02 1.0000000000000000e+00 5.4505668833491754e+01 1.4643316595562050e+01 1.2652761070577254e+00 
1083 1084 2 1.0280000054251155e+00 1.1928199955908543e+02 1.0000000000000000e+00 5.5600678692404720e+01 1.4140758733239362e+01 1.5255056192039640e-01 
577 578 2 1.0280000010293848e+00 2.3898787249348322e+02 1.0000000000000000e+00 5.7153589404818874e+01 1.4454835006946164e+01 1.3854790411810034e+00 
215 216 2 1.0279936888104357e+00 -2.2609847831053722e+02 1.0000000000000000e+00 4.0620060614008580e+01 1.6417415183367339e+01 1.4951028349089825e+00 
1392 1393 2 1.0280000001014427e+00 -3.3406671521401120e+02 1.0000000000000000e+00 4.2916543901440853e+01 1.5894180354958012e+01 5.2607822807549820e-01 
52 53 2 1.0280000024699560e+00 2.2279330697490019e+02 1.0000000000000000e+00 4.4612873843602110e+01 1.5784986265022802e+01 8.9270536964725769e-02 
982 983 2 1.0280000003061787e+00 1.4833890508294192e+02 1.0000000000000000e+00 4.8394533121575712e+01 1.5499462794712819e+01 7.5641135118440128e-01 
527 528 2 1.0279999987719783e+00 1.4269405430649530e+02 1.0000000000000000e+00 5.1693852003652935e+01 1.6178581546639567e+01 9.1523683447252246e-01 
1078 1079 2 1.0280000084617558e+00 3.6649259043029718e+02 1.0000000000000000e+00 5.3152451840618525e+01 1.5284912291218840e+01 7.0082125371690107e-01 
119 120 2 1.0280000005229664e+00 3.3009724839167114e+02 1.0000000000000000e+00 5.8427375037907808e+01 1.5685193494224759e+01 1.2603180181886637e+00 