LAMMPS data file via write_data, version 30 Jul 2016, timestep = 50000000

4620 atoms
8 atom types

0.0000000000000000e+00 1.0000000000000000e+02 xlo xhi
0.0000000000000000e+00 4.0000000000000000e+01 ylo yhi
0.0000000000000000e+00 4.0000000000000000e+01 zlo zhi

Masses

1 3.896
2 5.36
3 20.064
4 8.378
5 8.378
6 8.378
7 8.378
8 8.378

Atoms # meso-molecular

1916 1917 2 1.0279999999999998e+00 1.2954844224718393e+03 1.0000000000000000e+00 3.1356314818284069e+01 1.0724705657820964e+01 1.5378614657880407e-01 
2378 2379 2 1.0279999999999998e+00 1.2961268511346834e+03 1.0000000000000000e+00 3.0680317140989352e+01 1.0998778197726677e+01 7.6004279466570157e-01 
3366 3367 2 1.0280000000643059e+00 1.7540645958230689e+03 1.0000000000000000e+00 3.1215979217343708e+01 2.3704773099984089e-01 2.5334623399482052e+00 
3278 3279 2 1.0279999999339786e+00 -2.2989837379341730e+03 1.0000000000000000e+00 3.1993407100668577e+01 8.1006551822122053e-01 2.8795118514150300e+00 
3929 3930 2 1.0279999998989875e+00 1.8567616093639094e+03 1.0000000000000000e+00 3.3120479299580907e+01 7.3352982387475230e+00 2.3532364126592338e+00 
3037 3038 2 1.0279999999999998e+00 1.9064214920959057e+03 1.0000000000000000e+00 1.5294644380547240e+01 9.1940083724372590e-01 3.7553395711952260e+00 
2996 2997 2 1.0279999999999998e+00 4.7490659187812098e+03 1.0000000000000000e+00 1.4582619771720388e+01 6.5633227539495009e-01 4.3240676506669251e+00 
1764 1765 2 1.0279999998135789e+00 -2.1366832112672655e+03 1.0000000000000000e+00 3.2050054367028373e+01 5.6365714724029993e-02 5.8211889159471824e+00 
3955 3956 2 1.0279999999999998e+00 2.1968897618893861e+03 1.0000000000000000e+00 2.1303732653252233e+01 1.2559498093823690e+01 5.7743565875397103e+00 
4418 4419 2 1.0279999999999998e+00 2.0078845482664656e+03 1.0000000000000000e+00 2.0596698054657985e+01 1.3085768672593595e+01 6.1247522132253653e+00 
505 506 2 1.0280000001365446e+00 -2.6233926364511990e+02 1.0000000000000000e+00 3.3273361531683030e+01 5.1941714079279255e-01 8.0469201573354709e+00 
4334 4335 2 1.0280000000000000e+00 2.0129067719450750e+03 1.0000000000000000e+00 7.2085773478289514e+00 9.7362884293067999e+00 1.0586959131989058e+01 
3827 3828 2 1.0280000003918102e+00 7.4453368684458485e+02 1.0000000000000000e+00 3.3075974558221930e+01 1.6525290840393223e+00 1.2564138186134180e+01 
3871 3872 2 1.0280000000000000e+00 2.1935263444574148e+03 1.0000000000000000e+00 7.8701879501964358e+00 9.7192299088347145e+00 1.1266382533044702e+01 
4161 4162 2 1.0280000000000000e+00 -1.4361592797551948e+03 1.0000000000000000e+00 2.7686362959697139e+00 1.2700067558585539e+01 1.1873452240953773e+01 
4160 4161 2 1.0280000000000000e+00 -6.0294472304860142e+02 1.0000000000000000e+00 3.3740898581612506e+00 1.3380280380543892e+01 1.2138729908805429e+01 
3824 3825 2 1.0279999997219491e+00 -2.0726252388824068e+03 1.0000000000000000e+00 3.3073597683752368e+01 4.9190647145286154e-01 1.2918607117128618e+01 
1416 1417 2 1.0280000000000025e+00 6.7313294902985911e+02 1.0000000000000000e+00 1.5174933202102167e+01 1.3984124740265784e+01 1.4256427130722770e+01 
1399 1400 2 1.0280000000000025e+00 5.8444053829105360e+02 1.0000000000000000e+00 1.5866021711715662e+01 1.4630928949847210e+01 1.4195791113903434e+01 
720 721 2 1.0280000000000000e+00 2.1465682114000797e+03 1.0000000000000000e+00 2.8566873779494696e+01 1.8829460315519662e+00 1.5256818311469360e+01 
1182 1183 2 1.0280000000000000e+00 -1.2944301879903742e+03 1.0000000000000000e+00 2.8493294617400892e+01 2.5640232798695317e+00 1.5912833272363947e+01 
2059 2060 2 1.0280000000148048e+00 -4.9633463096778196e+03 1.0000000000000000e+00 3.1378696339464735e+01 5.2095432830376049e+00 1.5933739797609816e+01 
1637 1638 2 1.0280000003741534e+00 3.0803595351931326e+03 1.0000000000000000e+00 3.0317855255165870e+01 6.1942481396531850e+00 1.5665872455166577e+01 
1636 1637 2 1.0279999996303499e+00 -1.7238056479311304e+03 1.0000000000000000e+00 3.1223664661175750e+01 6.9113451394164018e+00 1.6134435080362703e+01 
3411 3412 2 1.0280000000367562e+00 1.2988956486000484e+02 1.0000000000000000e+00 3.2550594726657259e+01 2.6873618814646649e+00 1.7916857542763587e+01 
4214 4215 2 1.0280000000000018e+00 7.2919390240202824e+02 1.0000000000000000e+00 1.0341194075915483e+01 4.4476209236095094e+00 1.8076245064717408e+01 
3792 3793 2 1.0280000000000018e+00 3.8707809853472247e+02 1.0000000000000000e+00 1.0552549718913754e+01 4.3020248667538210e+00 1.7163137009453063e+01 
1390 1391 2 1.0280000010176038e+00 -2.7397625009476560e+03 1.0000000000000000e+00 3.2700320679840871e+01 5.0926524129997741e+00 1.6410582836703608e+01 
3398 3399 2 1.0279999999999996e+00 8.9287367962100939e+02 1.0000000000000000e+00 1.7529231253927804e+01 5.8348593390210421e+00 1.6969104802879880e+01 
2936 2937 2 1.0279999999999996e+00 1.3424411759459285e+03 1.0000000000000000e+00 1.8332146074571732e+01 5.8701945769007313e+00 1.6465403550209114e+01 
383 384 2 1.0279999997998168e+00 1.7372899203765373e+03 1.0000000000000000e+00 3.2186052819993307e+01 6.6361533661025840e+00 1.7492452752297542e+01 
2776 2777 2 1.0279999999999976e+00 -2.7378735359365674e+03 1.0000000000000000e+00 1.9808568118739760e+01 1.8026049665072410e+01 1.7494367663273312e+01 
2385 2386 2 1.0279999999999982e+00 6.0936806604482877e+02 1.0000000000000000e+00 2.2809699978117379e+01 1.6445787024297481e+01 1.6486848574084721e+01 
3729 3730 2 1.0279999999999982e+00 -1.7009702857722345e+01 1.0000000000000000e+00 2.3560360293361768e+01 1.6461729239554366e+01 1.7066409336281133e+01 
4290 4291 2 1.0279999999999976e+00 5.3362958085160346e+02 1.0000000000000000e+00 1.9460253489286519e+01 1.8780730890855484e+01 1.7951280025271977e+01 
3087 3088 2 1.0279999999999996e+00 -9.5808024577832691e+02 1.0000000000000000e+00 2.1780419844964971e+01 2.5328356127236544e+00 1.9103874597901648e+01 
3086 3087 2 1.0279999999999996e+00 -1.1129475475148906e+03 1.0000000000000000e+00 2.1284021216663934e+01 2.9605544125056684e+00 1.9789644800171814e+01 
3872 3873 2 1.0279999999473559e+00 -7.8427873007525341e+02 1.0000000000000000e+00 3.2286628199367158e+01 3.0520710046176371e+00 1.8819847804364283e+01 
3023 3024 2 1.0279999999873473e+00 3.1451940409692302e+03 1.0000000000000000e+00 3.2062991840856455e+01 7.1703007819073932e+00 1.9034688219134384e+01 
4409 4410 2 1.0280000000785854e+00 2.0561697831672946e+03 1.0000000000000000e+00 3.2330095498539954e+01 8.2176277957791264e+00 1.8560011251671039e+01 
3108 3109 2 1.0279999999999991e+00 -1.9535337136011144e+03 1.0000000000000000e+00 1.2436104080931161e+01 2.6032329781025161e+00 2.0875618312624663e+01 
3067 3068 2 1.0279999999999991e+00 -1.9521500602654710e+03 1.0000000000000000e+00 1.3214445898402532e+01 2.2540788311555326e+00 2.1290239992029964e+01 
1934 1935 2 1.0279999999999996e+00 5.5549644781286247e+02 1.0000000000000000e+00 8.7097338009595937e+00 5.6108545068410809e+00 2.1508204450621538e+01 
970 971 2 1.0279999999999996e+00 -2.9879896207192985e+02 1.0000000000000000e+00 9.6365446494831914e+00 5.7318792310109892e+00 2.1346927026949317e+01 
465 466 2 1.0280000000000000e+00 -1.6084572401272981e+03 1.0000000000000000e+00 2.4429046502714300e+01 1.1942544630459476e+01 2.0317802809672774e+01 
547 548 2 1.0280000000000000e+00 -1.6078762372375318e+03 1.0000000000000000e+00 2.4533595891039496e+01 1.1754817979123025e+01 2.1241633892699650e+01 
3464 3465 2 1.0280000000000038e+00 2.7971174867208392e+03 1.0000000000000000e+00 1.9379163772782746e+01 4.5278628189567112e+00 2.3629331421998383e+01 
1417 1418 2 1.0280000000000007e+00 1.8773074890485254e+03 1.0000000000000000e+00 1.9695126279288740e+01 1.3490344831336706e+01 2.2324342997789142e+01 
29 30 2 1.0280000000000007e+00 8.0668302375921849e+02 1.0000000000000000e+00 2.0364897620400175e+01 1.4070315972633001e+01 2.2662980807368996e+01 
304 305 2 1.0279999999509448e+00 -3.9777001083859432e+02 1.0000000000000000e+00 3.2922320821722579e+01 2.2099321491154091e+00 2.4417715336176144e+01 
3926 3927 2 1.0280000000000038e+00 1.8539543838790541e+03 1.0000000000000000e+00 1.9409780302606684e+01 4.8578215504066398e+00 2.4518052752804198e+01 
4282 4283 2 1.0280000000000005e+00 -2.2012683182267074e+02 1.0000000000000000e+00 6.9936353638551578e+00 1.2275857526274184e+01 2.6126793813677672e+01 
2989 2990 2 1.0280000000000005e+00 2.6405545914482118e+03 1.0000000000000000e+00 7.6459877494011721e+00 1.2167580174934443e+01 2.6806755665877525e+01 
1768 1769 2 1.0280000000000000e+00 -4.5605814087519286e+02 1.0000000000000000e+00 1.8345862546215916e+01 2.5551988654256297e+00 2.8356983040927236e+01 
2272 2273 2 1.0280000000000000e+00 -1.5277157798973499e+03 1.0000000000000000e+00 1.9095123719654101e+01 3.1207053847327866e+00 2.8221167685437077e+01 
333 334 2 1.0280000000000000e+00 -1.8402668452044845e+03 1.0000000000000000e+00 1.9685924234359760e+01 1.3846504977332165e+01 2.7804661468779830e+01 
377 378 2 1.0280000000000000e+00 5.4347041850065580e+02 1.0000000000000000e+00 2.0021258693273452e+01 1.4571659564150929e+01 2.8315873133424279e+01 
4541 4542 2 1.0279999999999996e+00 1.7126957702047562e+03 1.0000000000000000e+00 2.2664962959531891e+01 2.9517784134651448e+00 2.9479911807574304e+01 
4574 4575 2 1.0279999999999996e+00 1.7086488012405548e+03 1.0000000000000000e+00 2.2434965579957478e+01 3.7537922479539079e+00 2.9931033470615791e+01 
3189 3190 2 1.0280000000000000e+00 -4.6034476742582251e+02 1.0000000000000000e+00 1.8657255287299581e+01 1.7286944067542578e+00 3.1817975549261718e+01 
2769 2770 2 1.0280000000000000e+00 -1.5204664022712459e+03 1.0000000000000000e+00 1.8047908291457656e+01 1.0203926136157082e+00 3.1981194876189985e+01 
3275 3276 2 1.0280000000000002e+00 -5.6180538820651554e+02 1.0000000000000000e+00 1.1893137398349880e+01 6.6363722511108874e+00 3.1943257295580217e+01 
3274 3275 2 1.0280000000000002e+00 -1.6580722160807190e+03 1.0000000000000000e+00 1.2456084912448798e+01 7.3970142462206940e+00 3.2007674621145640e+01 
1117 1118 2 1.0279999999999996e+00 -3.1513986847835065e+02 1.0000000000000000e+00 2.7336866510760331e+01 5.0534827652134249e+00 3.5392520261992978e+01 
1116 1117 2 1.0279999999999996e+00 -4.8591527907035533e+02 1.0000000000000000e+00 2.8025356170390481e+01 5.7042062124105515e+00 3.5439175637224899e+01 
1623 1624 2 1.0280000000000020e+00 3.2745654034841973e+03 1.0000000000000000e+00 6.6063100319444512e+00 1.3017708094725130e+01 3.5949460299626985e+01 
2081 2082 2 1.0280000000000020e+00 -1.2358717953977191e+03 1.0000000000000000e+00 6.3673228652021896e+00 1.2693706754934825e+01 3.6808264122472671e+01 
4027 4028 2 1.0280000000115359e+00 -1.2100421609079353e+03 1.0000000000000000e+00 2.7558812943337674e+01 2.4653763941283138e+01 1.4005864529176359e+00 
3564 3565 2 1.0280000000075864e+00 7.1144520787863098e+02 1.0000000000000000e+00 2.7963742409947073e+01 2.5281133898759922e+01 3.9032965560255767e-01 
3607 3608 2 1.0279999999339997e+00 -7.5151143335734173e+02 1.0000000000000000e+00 2.9003284628228513e+01 2.4584407260930110e+01 1.1906968747004330e+00 
3700 3701 2 1.0280000001635894e+00 -5.6631213793274856e+02 1.0000000000000000e+00 2.9301553724343670e+01 2.6287568043236295e+01 1.6723608596147925e+00 
2437 2438 2 1.0279999996424729e+00 -7.3150953715305423e+02 1.0000000000000000e+00 3.2408287500396774e+01 2.6131408430926019e+01 1.8076201409719364e+00 
2985 2986 2 1.0280000000000000e+00 -1.7268581127577336e+03 1.0000000000000000e+00 2.0589426098614013e+01 2.8986969696441673e+01 7.9777919172073175e-01 
2479 2480 2 1.0280000000427554e+00 2.9618501637635592e+02 1.0000000000000000e+00 3.1396624159823414e+01 2.7817151981364393e+01 1.5555997985062842e+00 
3022 3023 2 1.0280000000000000e+00 -1.7535120079634789e+03 1.0000000000000000e+00 1.9956226122496869e+01 2.9305952896206033e+01 1.6774486828976315e-01 
4340 4341 2 1.0279999998986811e+00 2.2144315771770709e+02 1.0000000000000000e+00 3.1043639300739329e+01 2.9217842941693199e+01 5.8343977118655899e-01 
3838 3839 2 1.0280000001337852e+00 -1.2319678943030399e+03 1.0000000000000000e+00 3.2027309430820658e+01 2.9771092605492480e+01 5.1099059388073442e-01 
759 760 2 1.0280000001078649e+00 -4.2277736581947175e+02 1.0000000000000000e+00 3.2717942907922776e+01 3.1812189151611339e+01 4.6748451500976468e-01 
718 719 2 1.0279999999921943e+00 -6.7638919589751481e+02 1.0000000000000000e+00 3.2559830945638602e+01 3.2013959531696813e+01 1.6160268500316879e+00 
880 881 2 1.0279656973107518e+00 1.1587321526832984e+03 1.0000000000000000e+00 1.0591403975781310e+01 3.4297019428159167e+01 6.4695556977779589e-01 
1804 1805 2 1.0280346556902589e+00 1.5861078985070112e+03 1.0000000000000000e+00 1.1026879812987378e+01 3.5129287909376096e+01 7.7909624410554712e-01 
161 162 2 1.0279999999999996e+00 4.2807309506918585e+01 1.0000000000000000e+00 2.6916398792606472e+01 3.7288676914691855e+01 1.2153356731155665e+00 
263 264 2 1.0280000002145999e+00 9.2657744742674686e+02 1.0000000000000000e+00 3.3032181264494504e+01 3.6877516913201177e+01 1.4571748526778880e+00 
885 886 2 1.0280000001394158e+00 -1.6103968518009192e+03 1.0000000000000000e+00 2.8978886601738171e+01 2.4803056281943448e+01 3.4200554650914996e+00 
799 800 2 1.0279999998523588e+00 -1.6108785385996089e+03 1.0000000000000000e+00 2.8529421984176771e+01 2.5655380143857162e+01 3.5376515751097868e+00 
3238 3239 2 1.0279999997750013e+00 -4.9673925245041448e+02 1.0000000000000000e+00 3.0222247996058293e+01 2.5749200317676074e+01 1.9423822325765279e+00 
2480 2481 2 1.0280000003278933e+00 3.3816690927967670e+02 1.0000000000000000e+00 3.2090298967776874e+01 2.6160396252268761e+01 2.7745864700003162e+00 
4329 4330 2 1.0279999999060689e+00 -5.7459093702585187e+02 1.0000000000000000e+00 3.0684037199555888e+01 2.7599224500938949e+01 2.7711776708045202e+00 
3113 3114 2 1.0280000001739682e+00 -1.0459587944348555e+03 1.0000000000000000e+00 3.3013314814937303e+01 2.8911555680753533e+01 3.6193939412989726e+00 
2826 2827 2 1.0279999998507330e+00 7.2620086967036855e+02 1.0000000000000000e+00 3.1905116325361288e+01 2.9031367084541863e+01 2.3033105401038352e+00 
2942 2943 2 1.0280000000759715e+00 4.3862744338074219e+02 1.0000000000000000e+00 3.0544370092492542e+01 2.9204391654586630e+01 3.3014284139256644e+00 
1260 1261 2 1.0279999999769081e+00 -3.8163379671849077e+02 1.0000000000000000e+00 3.0356455596511225e+01 3.0830393483655040e+01 3.1519368303803987e+00 
1220 1221 2 1.0279999997197111e+00 -7.1799291924912950e+02 1.0000000000000000e+00 3.3322453109407618e+01 3.0256240571351533e+01 2.0642089620176995e+00 
2737 2738 2 1.0279999995771718e+00 6.2489421056518825e+02 1.0000000000000000e+00 3.2660835789759147e+01 3.3579528140871517e+01 3.2331199145956502e+00 
4122 4123 2 1.0280000003456675e+00 -1.1937059832812647e+03 1.0000000000000000e+00 3.2264216143936345e+01 3.4313309722301206e+01 2.4318547609517562e+00 
1512 1513 2 1.0279999999999996e+00 -2.1379952823988638e+03 1.0000000000000000e+00 2.6973729312854097e+01 3.7848275161179082e+01 1.9790101811124885e+00 
1 2 2 1.0280000000896299e+00 2.3876636424232225e+02 1.0000000000000000e+00 3.2247842898408095e+01 3.9112686150676645e+01 3.5978373932576222e+00 
2102 2103 2 1.0279999998557621e+00 3.3109273463428656e+02 1.0000000000000000e+00 3.0405901701697850e+01 2.6752137991092251e+01 4.3557127902510437e+00 
2143 2144 2 1.0280000001579133e+00 -7.2532312321976292e+02 1.0000000000000000e+00 3.1045210098196680e+01 2.7547381375071183e+01 4.5806188032205979e+00 
1299 1300 2 1.0279999999788001e+00 1.5189319351758222e+03 1.0000000000000000e+00 2.9600565187597287e+01 3.0436360401032740e+01 4.1605265821704371e+00 
3831 3832 2 1.0279999999764653e+00 2.5014466546494687e+03 1.0000000000000000e+00 3.1345356981503883e+01 2.9981371310809294e+01 4.5235374855231170e+00 
4188 4189 2 1.0279999998385407e+00 1.0456103102418765e+03 1.0000000000000000e+00 2.8854825233480195e+01 3.2236915813340858e+01 5.1000228065972726e+00 
330 331 2 1.0280000000245457e+00 -6.8764680422567130e+02 1.0000000000000000e+00 3.0990928587675612e+01 3.1203278033958544e+01 4.7620936256130681e+00 
3478 3479 2 1.0279999999999998e+00 8.1325784665485259e+01 1.0000000000000000e+00 2.0886069198865009e+01 3.2941764369581037e+01 4.0846701227307776e+00 
3943 3944 2 1.0279999999999998e+00 4.0879669712608338e+03 1.0000000000000000e+00 2.1690262748491183e+01 3.3141379696282826e+01 4.5462567302847399e+00 
3767 3768 2 1.0279999999923699e+00 -1.5821454568748140e+03 1.0000000000000000e+00 2.9568967399147578e+01 3.3581190064200854e+01 4.9684422400481010e+00 
2273 2274 2 1.0280000002089793e+00 -3.3318958616804412e+02 1.0000000000000000e+00 3.2815980251248590e+01 3.4211440318342426e+01 4.9428255878312148e+00 
1808 1809 2 1.0280000000153189e+00 3.5320347959480534e+02 1.0000000000000000e+00 3.1337412678397946e+01 3.4623599667643134e+01 5.4503839886805920e+00 
1930 1931 2 1.0280000001195935e+00 3.2823008526408944e+02 1.0000000000000000e+00 3.1406276313628652e+01 3.5562453406949835e+01 4.1778497988215380e+00 
503 504 2 1.0279999999565248e+00 -2.1955075966915842e+02 1.0000000000000000e+00 3.0832226489273040e+01 3.6256257220289420e+01 5.1162886482220999e+00 
297 298 2 1.0279999998603619e+00 2.0962638786123111e+03 1.0000000000000000e+00 3.2776445829069324e+01 3.5643629123262464e+01 5.3343757840138428e+00 
127 128 2 1.0279999998511589e+00 7.9093109375582088e+01 1.0000000000000000e+00 3.1483176671715270e+01 3.8159961994522881e+01 4.1000576205146491e+00 
169 170 2 1.0280000000299601e+00 -1.4824969580629950e+03 1.0000000000000000e+00 3.2268236657903039e+01 3.7692545975850535e+01 5.2887176372822138e+00 
995 996 2 1.0280000000000000e+00 -1.4813124436005683e+02 1.0000000000000000e+00 2.5814135860764246e+01 2.4795300076489781e+01 5.6008774195716216e+00 
1039 1040 2 1.0280000000000000e+00 -2.7213604953908662e+03 1.0000000000000000e+00 2.6236949651672298e+01 2.3955044003019083e+01 5.7226722035377167e+00 
2968 2969 2 1.0279999999999989e+00 1.0864944244803266e+03 1.0000000000000000e+00 1.8699163828156912e+01 2.9592625102925414e+01 6.9591174481541698e+00 
2928 2929 2 1.0279999999999989e+00 -1.8230372995959951e+03 1.0000000000000000e+00 1.9404956323860841e+01 3.0221451926712135e+01 7.0370245651725192e+00 
3467 3468 2 1.0280000002301375e+00 2.7904532925526360e+03 1.0000000000000000e+00 2.9772689015061303e+01 3.2066423122663160e+01 5.8945316815252111e+00 
3655 3656 2 1.0280000003499108e+00 1.4513270431156129e+03 1.0000000000000000e+00 3.3132666331833015e+01 3.2005648787718478e+01 6.7729688717938883e+00 
3928 3929 2 1.0279999998426357e+00 3.3041405044649691e+03 1.0000000000000000e+00 2.9832446280393373e+01 3.3851315135621391e+01 6.2557462793006051e+00 
2735 2736 2 1.0279999998699765e+00 -3.2849564840039886e+02 1.0000000000000000e+00 3.2327361773311125e+01 3.2769797040120793e+01 6.2038431835838423e+00 
1345 1346 2 1.0279999997932707e+00 1.4490120687928188e+03 1.0000000000000000e+00 3.3269922484825031e+01 3.3746277048367695e+01 7.0614247152023015e+00 
3015 3016 2 1.0279999997018598e+00 5.0936171383611609e+03 1.0000000000000000e+00 2.8792998679739011e+01 3.5982854363475475e+01 7.1121685280782065e+00 
1174 1175 2 1.0279999998769171e+00 -1.6983007760635378e+03 1.0000000000000000e+00 3.1008685294353221e+01 3.6645621763484222e+01 6.7546100953338080e+00 
1557 1558 2 1.0279999999529608e+00 7.3783927805846133e+02 1.0000000000000000e+00 3.2902594627471224e+01 3.7072958135216759e+01 6.5305897978198502e+00 
329 330 2 1.0280000000004390e+00 4.6536425882660751e+01 1.0000000000000000e+00 3.1370532337136943e+01 3.9206648969713363e+01 5.7565977546607563e+00 
171 172 2 1.0280000000000007e+00 -5.7018695799363877e+02 1.0000000000000000e+00 2.0961148408328818e+01 2.4705870927456981e+01 9.0028305013986234e+00 
2315 2316 2 1.0280000000205547e+00 -3.3520211931164442e+02 1.0000000000000000e+00 3.2987590192120450e+01 2.8401716590448647e+01 8.3341864115541355e+00 
2308 2309 2 1.0279999999999998e+00 -1.4685635353368891e+03 1.0000000000000000e+00 7.3935282922892398e+00 3.3112376736962510e+01 9.0522214734671458e+00 
4540 4541 2 1.0280000001460430e+00 3.8733199911069710e+02 1.0000000000000000e+00 2.8012207369810394e+01 3.2777865067401336e+01 7.3495924373400658e+00 
4043 4044 2 1.0279999998246767e+00 -1.2909786872307118e+03 1.0000000000000000e+00 2.8093878538895417e+01 3.3047567994837749e+01 8.2575639228147963e+00 
709 710 2 1.0279999998761555e+00 4.1752679067528243e+03 1.0000000000000000e+00 3.0421350380723219e+01 3.4362631140507389e+01 7.6721109632097670e+00 
561 562 2 1.0280000002285086e+00 1.1112837867167971e+03 1.0000000000000000e+00 3.2511122631314599e+01 3.3316428411515822e+01 8.7339329527014211e+00 
1092 1093 2 1.0280000001946654e+00 -3.8740600308962360e+02 1.0000000000000000e+00 3.1641267093738630e+01 3.4349938730507731e+01 7.4810992268286318e+00 
1347 1348 2 1.0279999999999998e+00 -1.6511519858568358e+03 1.0000000000000000e+00 1.0664956593932803e+01 3.4847457490000309e+01 8.4398321487081862e+00 
1346 1347 2 1.0279999999999998e+00 -5.4527385584862986e+02 1.0000000000000000e+00 1.1577887432629961e+01 3.4983650774506089e+01 8.2215561463647884e+00 
2093 2094 2 1.0280000002920642e+00 -5.2716985283722750e+02 1.0000000000000000e+00 2.8329850189981379e+01 3.5188053247078436e+01 7.3811658411707075e+00 
461 462 2 1.0280000000351202e+00 -5.6660611178390127e+02 1.0000000000000000e+00 3.0462415768165815e+01 3.6042618540925758e+01 8.5841796295053090e+00 
460 461 2 1.0279999999437779e+00 -1.4154161278762604e+03 1.0000000000000000e+00 3.1240333317184746e+01 3.6736681324562241e+01 9.0643586416234392e+00 
245 246 2 1.0280000000687171e+00 -8.7497593210084779e+02 1.0000000000000000e+00 3.0999461912006272e+01 3.7562398891373547e+01 7.5333403147145876e+00 
511 512 2 1.0280000005217922e+00 -2.3058412189150995e+03 1.0000000000000000e+00 3.3255915192984119e+01 3.6859276833056413e+01 8.7262061273691156e+00 
967 968 2 1.0279999995583511e+00 -7.2179108189636918e+02 1.0000000000000000e+00 3.2834544337767902e+01 3.7998707574856127e+01 7.7432808898538656e+00 
3482 3483 2 1.0280000000000002e+00 -4.8598249356541089e+01 1.0000000000000000e+00 2.7869663695071782e+01 2.2302096648504715e+01 1.0561300477452349e+01 
2018 2019 2 1.0280000000000007e+00 3.3103969045427772e+02 1.0000000000000000e+00 2.1458299508345927e+01 2.5384365333730788e+01 9.4411475836515404e+00 
1517 1518 2 1.0280000000067329e+00 1.3431629686121355e+03 1.0000000000000000e+00 3.3000673532235503e+01 2.4900508305459123e+01 1.0257667530212375e+01 
2983 2984 2 1.0280000000499050e+00 1.2212970414939152e+03 1.0000000000000000e+00 3.1087079817167321e+01 2.6702803418812753e+01 9.7396029283171170e+00 
1055 1056 2 1.0279999999778120e+00 8.9506239033237864e+02 1.0000000000000000e+00 3.2474124548501152e+01 2.5784826029073617e+01 1.0578608103567790e+01 
3448 3449 2 1.0279999999307530e+00 3.0655074807716128e+03 1.0000000000000000e+00 3.1671105703770092e+01 2.7359160745980194e+01 9.2114598730497228e+00 
1853 1854 2 1.0280000000426945e+00 -3.3183004184676236e+02 1.0000000000000000e+00 3.2339078134351404e+01 2.9528111057303597e+01 9.4486704668892116e+00 
551 552 2 1.0279999999997105e+00 9.1101757652322726e+02 1.0000000000000000e+00 3.3173023378318902e+01 3.0033320122949299e+01 1.0005802003601628e+01 
172 173 2 1.0279999996310081e+00 2.3739440724551326e+02 1.0000000000000000e+00 3.2987098991684995e+01 3.2473055228077691e+01 1.0495024073224512e+01 
918 919 2 1.0279999999999998e+00 -8.9743117821505820e+01 1.0000000000000000e+00 7.6721558683089928e+00 3.3892189252245039e+01 9.5147091544683526e+00 
3870 3871 2 1.0279999999510130e+00 2.1631975762047718e+03 1.0000000000000000e+00 3.1526709902704233e+01 3.4549464920408461e+01 9.4469177956514105e+00 
3408 3409 2 1.0280000000742708e+00 -1.2857492794919581e+03 1.0000000000000000e+00 3.1984338713383710e+01 3.5332099988925265e+01 1.0256463966799892e+01 
35 36 2 1.0280000000000002e+00 -4.1499853580485512e+02 1.0000000000000000e+00 6.6541581500255864e+00 3.8536880899429669e+01 1.0194528169566798e+01 
1929 1930 2 1.0280000000000002e+00 2.0669750724505619e+02 1.0000000000000000e+00 6.3687602045270610e+00 3.9432730414058398e+01 1.0319577759859893e+01 
634 635 2 1.0279999999518401e+00 -6.6620946364270526e+02 1.0000000000000000e+00 3.2531075046117437e+01 3.8795889260327009e+01 1.0793070191892268e+01 
3945 3946 2 1.0280000000000002e+00 -1.9148883848499356e+03 1.0000000000000000e+00 2.7272163956174168e+01 2.1810062847121767e+01 1.1109508960150043e+01 
1348 1349 2 1.0280000000000016e+00 -4.7190339377637429e+02 1.0000000000000000e+00 2.0009163202916536e+01 3.5147241625218349e+01 1.1281267276686584e+01 
886 887 2 1.0280000000000016e+00 -5.8666891306721823e+02 1.0000000000000000e+00 2.0887964806008352e+01 3.5504093652744722e+01 1.1281603492904019e+01 
3566 3567 2 1.0280000000000000e+00 8.9359095046805487e+02 1.0000000000000000e+00 2.7408364657674465e+01 3.6680211341514408e+01 1.1410914303754208e+01 
3104 3105 2 1.0280000000000000e+00 1.3456575750720076e+03 1.0000000000000000e+00 2.7885562840157057e+01 3.7019440737535930e+01 1.2157132135019291e+01 
884 885 2 1.0280000000661544e+00 -2.4707169573163441e+02 1.0000000000000000e+00 3.0730164852010223e+01 3.7149777164019604e+01 1.2240809461820296e+01 
174 175 2 1.0280000000299736e+00 1.8183599688730419e+03 1.0000000000000000e+00 3.2526510803049462e+01 3.7456069476111416e+01 1.2205793954266978e+01 
591 592 2 1.0279999998114009e+00 -4.1644674417772251e+02 1.0000000000000000e+00 3.2342390426308761e+01 3.8801306487104647e+01 1.2435800773989794e+01 
3789 3790 2 1.0279999999707987e+00 1.8555355502327070e+03 1.0000000000000000e+00 3.2417318266992616e+01 2.8854883229390122e+01 1.4471213780473132e+01 
49 50 2 1.0279999998766052e+00 1.7182941567392112e+02 1.0000000000000000e+00 3.2758897805650186e+01 3.3612623975199938e+01 1.3175502713698094e+01 
91 92 2 1.0280000001393894e+00 -1.0835272541183022e+03 1.0000000000000000e+00 3.2953354435839771e+01 3.3673550547193557e+01 1.4452175263252736e+01 
221 222 2 1.0279999999681135e+00 1.4581024863117079e+03 1.0000000000000000e+00 3.1381762689507898e+01 3.5749927148360491e+01 1.4338667244930972e+01 
1142 1143 2 1.0279999999245601e+00 4.0623584218520846e+03 1.0000000000000000e+00 3.1995384045721888e+01 3.6108712517058940e+01 1.3314534262474170e+01 
2229 2230 2 1.0279999999591096e+00 3.2096747740421887e+02 1.0000000000000000e+00 3.0766731563767959e+01 3.7459493222448600e+01 1.3285810209616681e+01 
2934 2935 2 1.0279999999999998e+00 4.6476030253109502e+02 1.0000000000000000e+00 9.5607632997951839e+00 2.5600606584614223e+01 1.5016335039801421e+01 
3440 3441 2 1.0279999999999998e+00 1.1411101569760740e+03 1.0000000000000000e+00 9.3369181113279058e+00 2.6433933087081865e+01 1.4622512729523198e+01 
1051 1052 2 1.0279999999802980e+00 -4.1084021504960936e+02 1.0000000000000000e+00 3.0934040025878954e+01 2.8477153553388803e+01 1.5432785764134945e+01 
134 135 2 1.0280000000115155e+00 8.3529343034960618e+01 1.0000000000000000e+00 3.0727662857404241e+01 2.9314605117661333e+01 1.4806157685219517e+01 
4427 4428 2 1.0280000000177381e+00 6.2237985136180305e+02 1.0000000000000000e+00 3.2230889010847868e+01 3.0143879470068892e+01 1.6164877543623735e+01 
3041 3042 2 1.0280000000000011e+00 1.7951477291996298e+03 1.0000000000000000e+00 2.0760379046737032e+01 3.3854904111307192e+01 1.6349433761580027e+01 
3050 3051 2 1.0280000000000011e+00 1.7778698252964982e+03 1.0000000000000000e+00 2.0978334112151167e+01 3.4752966712340474e+01 1.6135857324973752e+01 
180 181 2 1.0280000002351852e+00 -2.6978527260137902e+01 1.0000000000000000e+00 3.2473954680964809e+01 3.5126621926947458e+01 1.5389646638445395e+01 
926 927 2 1.0279999992468074e+00 -5.3414882503648278e+02 1.0000000000000000e+00 2.5869358532996241e+01 3.7267905095006363e+01 1.5794648694266611e+01 
305 306 2 1.0279999998966660e+00 -6.3830169358674516e+02 1.0000000000000000e+00 3.3126048486897922e+01 3.6745668248277916e+01 1.4737750221566147e+01 
264 265 2 1.0280000000231990e+00 -1.6172381574025714e+01 1.0000000000000000e+00 3.2075413956057922e+01 3.6672375377025446e+01 1.5855585974551826e+01 
1457 1458 2 1.0280000000000000e+00 -8.1229319280867753e+02 1.0000000000000000e+00 1.1095935535557782e+01 3.9255719319830156e+01 1.5182158310250426e+01 
535 536 2 1.0280000000000000e+00 -3.8848734667691554e+02 1.0000000000000000e+00 1.2042596061296429e+01 3.9260283344522925e+01 1.5240884444761500e+01 
4467 4468 2 1.0279999999010314e+00 -7.4848418818687628e+02 1.0000000000000000e+00 3.2462801863990784e+01 2.9060121021479834e+01 1.6826344940297165e+01 
506 507 2 1.0279999999878322e+00 -2.7093731087322760e+02 1.0000000000000000e+00 2.6036424371226069e+01 3.1891362469855025e+01 1.6555350481275806e+01 
3038 3039 2 1.0279999999856606e+00 1.5453595269945267e+03 1.0000000000000000e+00 2.7290599319180128e+01 3.2216502291157738e+01 1.6930259497846137e+01 
3740 3741 2 1.0280000000383080e+00 -2.6396105744626800e+02 1.0000000000000000e+00 2.6212509703740274e+01 3.3006215411167268e+01 1.7311030002469113e+01 
1851 1852 2 1.0280000001429221e+00 -1.5679828640427236e+03 1.0000000000000000e+00 2.8046444494112677e+01 3.4037591741059600e+01 1.7575840665705524e+01 
2313 2314 2 1.0279999999064524e+00 -1.5653534545417822e+03 1.0000000000000000e+00 2.9903812267307600e+01 3.3171129423599353e+01 1.7401438655134601e+01 
3703 3704 2 1.0280000000878196e+00 -2.4042846896986640e+00 1.0000000000000000e+00 3.0363091700318453e+01 3.4016500425025946e+01 1.7230533014527513e+01 
3196 3197 2 1.0279999999383407e+00 -2.7414925762337516e+03 1.0000000000000000e+00 2.5386612165825877e+01 3.4851466703763833e+01 1.6392354947252887e+01 
4123 4124 2 1.0280000000663063e+00 1.7708569978314304e+00 1.0000000000000000e+00 2.5996032501436950e+01 3.5231700099693683e+01 1.7022934281459257e+01 
4295 4296 2 1.0279999996917843e+00 -6.4849355485438332e+02 1.0000000000000000e+00 3.2233289604219017e+01 3.5315125169762801e+01 1.6985517794270518e+01 
4382 4383 2 1.0280000002687022e+00 4.1068170163328550e+03 1.0000000000000000e+00 3.2802815362725561e+01 3.6329054500474967e+01 1.7974767774576012e+01 
927 928 2 1.0280000007590271e+00 -1.6524138092866360e+03 1.0000000000000000e+00 2.5217019222448680e+01 3.7412342811387092e+01 1.6469178423131648e+01 