LAMMPS data file via write_data, version 30 Jul 2016, timestep = 50400000

4620 atoms
8 atom types

0.0000000000000000e+00 1.0000000000000000e+02 xlo xhi
0.0000000000000000e+00 4.0000000000000000e+01 ylo yhi
0.0000000000000000e+00 4.0000000000000000e+01 zlo zhi

Masses

1 3.896
2 5.36
3 20.064
4 8.378
5 8.378
6 8.378
7 8.378
8 8.378

Atoms # meso-molecular

2378 2379 2 1.0280000000000007e+00 1.2961268511346834e+03 1.0000000000000000e+00 3.0884169562510230e+01 1.0881159423983844e+01 1.7043073769202199e-01 
3037 3038 2 1.0280000000000000e+00 1.9064214920959057e+03 1.0000000000000000e+00 1.5027947511513773e+01 5.7111257239283253e-01 2.3789482654193095e+00 
2996 2997 2 1.0280000000000000e+00 4.7490659187812098e+03 1.0000000000000000e+00 1.4315922902686921e+01 3.0804401054405672e-01 2.9476763448910077e+00 
3366 3367 2 1.0279999987201414e+00 1.7540645958230689e+03 1.0000000000000000e+00 3.1212350272392722e+01 2.2646813994990711e-01 2.5380883759321424e+00 
3278 3279 2 1.0280000016449096e+00 -2.2989837379341730e+03 1.0000000000000000e+00 3.1989816411985565e+01 7.9956450199997842e-01 2.8841387470752204e+00 
3929 3930 2 1.0279999996008764e+00 1.8567616093639094e+03 1.0000000000000000e+00 3.3116796150521509e+01 7.3246272481540817e+00 2.3582461888664725e+00 
1764 1765 2 1.0279999978594156e+00 -2.1366832112153525e+03 1.0000000000000000e+00 3.2047425440750793e+01 4.6046774142722312e-02 5.8257143376342366e+00 
4418 4419 2 1.0279999999999998e+00 2.0078845482664656e+03 1.0000000000000000e+00 2.0385108720870697e+01 1.3650038980583595e+01 6.4131826255794113e+00 
3955 3956 2 1.0279999999999998e+00 2.1968897618893861e+03 1.0000000000000000e+00 2.1092143319464945e+01 1.3123768401813690e+01 6.0627869998937562e+00 
505 506 2 1.0280000023177998e+00 -2.6233926267521042e+02 1.0000000000000000e+00 3.3272254716721413e+01 5.1030462800830156e-01 8.0514465502993868e+00 
4334 4335 2 1.0280000000000000e+00 2.0129067719450750e+03 1.0000000000000000e+00 6.6494564123229214e+00 9.8694326442489491e+00 1.0556699024680281e+01 
3827 3828 2 1.0280000026003635e+00 7.4453368825783468e+02 1.0000000000000000e+00 3.3078139288043275e+01 1.6458154052516667e+00 1.2567859293514001e+01 
3871 3872 2 1.0280000000000000e+00 2.1935263444574148e+03 1.0000000000000000e+00 7.3110670146904058e+00 9.8523741237768636e+00 1.1236122425735925e+01 
4161 4162 2 1.0280000000000000e+00 -1.4361592797551948e+03 1.0000000000000000e+00 2.9495675884957682e+00 1.2783872842009538e+01 1.2348227264160803e+01 
4160 4161 2 1.0280000000000000e+00 -6.0294472304860142e+02 1.0000000000000000e+00 3.5550211506873048e+00 1.3464085663967891e+01 1.2613504932012459e+01 
3824 3825 2 1.0279999930824193e+00 -2.0726252294433107e+03 1.0000000000000000e+00 3.3074142266946723e+01 4.8391836179380221e-01 1.2922914310789579e+01 
720 721 2 1.0280000000000000e+00 2.1465682114000797e+03 1.0000000000000000e+00 2.8726339471701291e+01 1.9776194240553189e+00 1.4260817193088641e+01 
1416 1417 2 1.0280000000000020e+00 6.7313294902985911e+02 1.0000000000000000e+00 1.5452143913021629e+01 1.3483502675573860e+01 1.4365701754561243e+01 
1399 1400 2 1.0280000000000020e+00 5.8444053829105360e+02 1.0000000000000000e+00 1.6143232422635126e+01 1.4130306885155285e+01 1.4305065737741907e+01 
1182 1183 2 1.0280000000000000e+00 -1.2944301879903742e+03 1.0000000000000000e+00 2.8652760309607487e+01 2.6586966723728844e+00 1.4916832153983229e+01 
2059 2060 2 1.0279999999289435e+00 -4.9633463096778196e+03 1.0000000000000000e+00 3.1375130553718151e+01 5.1987827637578023e+00 1.5939171558810138e+01 
2936 2937 2 1.0279999999999996e+00 1.3424411759459285e+03 1.0000000000000000e+00 1.9064360346719489e+01 5.7533884046995087e+00 1.6223034107648939e+01 
1637 1638 2 1.0279999986552695e+00 3.0803595351931326e+03 1.0000000000000000e+00 3.0314251642102928e+01 6.1834904389230037e+00 1.5671318926038252e+01 
1636 1637 2 1.0280000016629718e+00 -1.7238056479311304e+03 1.0000000000000000e+00 3.1220051111050136e+01 6.9005685329217155e+00 1.6139872583999139e+01 
3411 3412 2 1.0279999967037989e+00 1.2988956486469655e+02 1.0000000000000000e+00 3.2547146468428927e+01 2.6765024000738986e+00 1.7922427488063118e+01 
4214 4215 2 1.0280000000000018e+00 7.2919390240202824e+02 1.0000000000000000e+00 1.0762021749423967e+01 4.1627388867155908e+00 1.7701107160687865e+01 
3792 3793 2 1.0280000000000018e+00 3.8707809853472247e+02 1.0000000000000000e+00 1.0973377392422238e+01 4.0171428298599023e+00 1.6787999105423520e+01 
1390 1391 2 1.0279999964417308e+00 -2.7397625009476560e+03 1.0000000000000000e+00 3.2696766449161245e+01 5.0820552160212671e+00 1.6415979741464202e+01 
3398 3399 2 1.0279999999999996e+00 8.9287367962100939e+02 1.0000000000000000e+00 1.8261445526075562e+01 5.7180531668198196e+00 1.6726735360319704e+01 
383 384 2 1.0280000008726207e+00 1.7372899203765373e+03 1.0000000000000000e+00 3.2182473694806134e+01 6.6252875160470897e+00 1.7497912060489423e+01 
2385 2386 2 1.0280000000000005e+00 6.0936806604482877e+02 1.0000000000000000e+00 2.2880028639767289e+01 1.6240339347648607e+01 1.6528665980850956e+01 
3729 3730 2 1.0280000000000005e+00 -1.7009702857722345e+01 1.0000000000000000e+00 2.3630688955011678e+01 1.6256281562905492e+01 1.7108226743047361e+01 
2776 2777 2 1.0279999999999976e+00 -2.7378735359365674e+03 1.0000000000000000e+00 2.0477531255003061e+01 1.8430808302345927e+01 1.7046770579254332e+01 
4290 4291 2 1.0279999999999976e+00 5.3362958085160346e+02 1.0000000000000000e+00 2.0129216625549819e+01 1.9185489528129001e+01 1.7503682941252997e+01 
3087 3088 2 1.0279999999999996e+00 -9.5808024577832691e+02 1.0000000000000000e+00 2.2104956749337479e+01 2.8958557099063524e+00 1.8562760329841620e+01 
3086 3087 2 1.0279999999999996e+00 -1.1129475475148906e+03 1.0000000000000000e+00 2.1608558121036442e+01 3.3235745096883664e+00 1.9248530532111786e+01 
3872 3873 2 1.0280000027109018e+00 -7.8427873007525341e+02 1.0000000000000000e+00 3.2283103252141096e+01 3.0411841406872626e+00 1.8825386546818631e+01 
3023 3024 2 1.0279999992305069e+00 3.1451940409692302e+03 1.0000000000000000e+00 3.2059423847428469e+01 7.1594136438388674e+00 1.9040162440377117e+01 
4409 4410 2 1.0280000004902763e+00 2.0561697831672946e+03 1.0000000000000000e+00 3.2326519196043847e+01 8.2067402428139360e+00 1.8565491579067917e+01 
3067 3068 2 1.0280000000000002e+00 -1.9521500602654710e+03 1.0000000000000000e+00 1.3817584964560142e+01 1.5842358523829922e+00 2.1100259513392356e+01 
3108 3109 2 1.0280000000000002e+00 -1.9535337136011144e+03 1.0000000000000000e+00 1.3039243147088770e+01 1.9333899993299672e+00 2.0685637833987055e+01 
1934 1935 2 1.0279999999999996e+00 5.5549644781286247e+02 1.0000000000000000e+00 9.2626509988531147e+00 5.4292708708913029e+00 2.1431861495197513e+01 
970 971 2 1.0279999999999996e+00 -2.9879896207192985e+02 1.0000000000000000e+00 1.0189461847376712e+01 5.5502955950612112e+00 2.1270584071525292e+01 
465 466 2 1.0280000000000000e+00 -1.6084572401272981e+03 1.0000000000000000e+00 2.4243443312652744e+01 1.1512569527115172e+01 2.0105468288507016e+01 
547 548 2 1.0280000000000000e+00 -1.6078762372375318e+03 1.0000000000000000e+00 2.4347992700977940e+01 1.1324842875778721e+01 2.1029299371533892e+01 
1417 1418 2 1.0280000000000007e+00 1.8773074890485254e+03 1.0000000000000000e+00 2.0052819237918936e+01 1.2853617491327959e+01 2.2210940908647796e+01 
29 30 2 1.0280000000000007e+00 8.0668302375921849e+02 1.0000000000000000e+00 2.0722590579030371e+01 1.3433588632624254e+01 2.2549578718227650e+01 
304 305 2 1.0280000000171996e+00 -3.9777001083859432e+02 1.0000000000000000e+00 3.2918790373651262e+01 2.1988395137708681e+00 2.4423165705431575e+01 
3464 3465 2 1.0279999999999958e+00 2.7971174867208392e+03 1.0000000000000000e+00 1.9177527036674789e+01 4.2588113395498990e+00 2.3698526395653843e+01 
3926 3927 2 1.0279999999999958e+00 1.8539543838790541e+03 1.0000000000000000e+00 1.9208143566498727e+01 4.5887700709998276e+00 2.4587247726459676e+01 
4282 4283 2 1.0280000000000005e+00 -2.2012683182267074e+02 1.0000000000000000e+00 7.5790936327420537e+00 1.2100982569447741e+01 2.5270438519800940e+01 
2989 2990 2 1.0280000000000005e+00 2.6405545914482118e+03 1.0000000000000000e+00 8.2314460182880680e+00 1.1992705218108000e+01 2.5950400372000793e+01 
1768 1769 2 1.0280000000000000e+00 -4.5605814087519286e+02 1.0000000000000000e+00 1.7976828936145569e+01 2.5571703722944994e+00 2.8325367694852805e+01 
2272 2273 2 1.0280000000000000e+00 -1.5277157798973499e+03 1.0000000000000000e+00 1.8726090109583755e+01 3.1226768916016563e+00 2.8189552339362645e+01 
333 334 2 1.0280000000000000e+00 -1.8402668452044845e+03 1.0000000000000000e+00 2.0000252883513355e+01 1.3684943721935928e+01 2.7502092293376553e+01 
377 378 2 1.0280000000000000e+00 5.4347041850065580e+02 1.0000000000000000e+00 2.0335587342427047e+01 1.4410098308754693e+01 2.8013303958021002e+01 
4541 4542 2 1.0279999999999996e+00 1.7126957702047562e+03 1.0000000000000000e+00 2.2614270480339798e+01 3.0658392110720412e+00 2.9446042516202802e+01 
4574 4575 2 1.0279999999999996e+00 1.7086488012405548e+03 1.0000000000000000e+00 2.2384273100765384e+01 3.8678530455608042e+00 2.9897164179244289e+01 
3275 3276 2 1.0279999999999998e+00 -5.6180538820651554e+02 1.0000000000000000e+00 1.2283265551421481e+01 7.5959564456151316e+00 3.0844172045391126e+01 
3274 3275 2 1.0279999999999998e+00 -1.6580722160807190e+03 1.0000000000000000e+00 1.2846213065520399e+01 8.3565984407249392e+00 3.0908589370956548e+01 
2769 2770 2 1.0280000000000000e+00 -1.5204664022712459e+03 1.0000000000000000e+00 1.8038078619092698e+01 1.1870130360527997e+00 3.2243068116715328e+01 
3189 3190 2 1.0280000000000000e+00 -4.6034476742582251e+02 1.0000000000000000e+00 1.8647425614934622e+01 1.8953148291913653e+00 3.2079848789787128e+01 
1117 1118 2 1.0279999999999996e+00 -3.1513986847835065e+02 1.0000000000000000e+00 2.6984680302385925e+01 6.0113080367548486e+00 3.4781061482916776e+01 
1116 1117 2 1.0279999999999996e+00 -4.8591527907035533e+02 1.0000000000000000e+00 2.7673169962016075e+01 6.6620314839519752e+00 3.4827716858148698e+01 
1623 1624 2 1.0280000000000020e+00 3.2745654034841973e+03 1.0000000000000000e+00 6.6959990973634032e+00 1.3733355619609974e+01 3.6134704796346846e+01 
2081 2082 2 1.0280000000000020e+00 -1.2358717953977191e+03 1.0000000000000000e+00 6.4570119306211415e+00 1.3409354279819668e+01 3.6993508619192532e+01 
1916 1917 2 1.0280000000000007e+00 1.2954844224718393e+03 1.0000000000000000e+00 3.1560167239804947e+01 1.0607086884077086e+01 3.9564174089605601e+01 
4027 4028 2 1.0279999998832556e+00 -1.2100421609079353e+03 1.0000000000000000e+00 2.7554572067144946e+01 2.4642986364740992e+01 1.4052285992871794e+00 
3564 3565 2 1.0280000000573852e+00 7.1144520787863098e+02 1.0000000000000000e+00 2.7959500010837679e+01 2.5270356480724249e+01 3.9497199122063442e-01 
3607 3608 2 1.0280000000378018e+00 -7.5151143335734173e+02 1.0000000000000000e+00 2.8999044001205469e+01 2.4573626183867610e+01 1.1953368641142723e+00 
3700 3701 2 1.0279999999967826e+00 -5.6631213793274856e+02 1.0000000000000000e+00 2.9297318425556607e+01 2.6276784818213979e+01 1.6769916070729602e+00 
2437 2438 2 1.0279999996350191e+00 -7.3150953715305423e+02 1.0000000000000000e+00 3.2404073856041890e+01 2.6120618779745858e+01 1.8122154841565621e+00 
2985 2986 2 1.0280000000000036e+00 -1.7268581127577336e+03 1.0000000000000000e+00 2.0334473991626222e+01 2.8929344447513511e+01 5.9662853015423645e-01 
2479 2480 2 1.0280000002453176e+00 2.9618501637635592e+02 1.0000000000000000e+00 3.1392409135449093e+01 2.7806331101528762e+01 1.5601495723354475e+00 
4340 4341 2 1.0279999994196942e+00 2.2144315771770709e+02 1.0000000000000000e+00 3.1039419230814143e+01 2.9207017575716687e+01 5.8797967682154950e-01 
3838 3839 2 1.0280000004707166e+00 -1.2319678943030399e+03 1.0000000000000000e+00 3.2023079121031081e+01 2.9760282733032813e+01 5.1550075105047610e-01 
759 760 2 1.0280000004669196e+00 -4.2277736581947175e+02 1.0000000000000000e+00 3.2713752974108630e+01 3.1801431503825700e+01 4.7193157417524512e-01 
718 719 2 1.0279999997593297e+00 -6.7638919589751481e+02 1.0000000000000000e+00 3.2555667520788305e+01 3.2003189762207434e+01 1.6204854879989248e+00 
880 881 2 1.0280000000000000e+00 1.1587321650681868e+03 1.0000000000000000e+00 9.8564356463237726e+00 3.4153102579494579e+01 5.4379286123931947e-01 
1804 1805 2 1.0280000000000000e+00 1.5861076886514759e+03 1.0000000000000000e+00 1.0293268252609593e+01 3.4984102671268666e+01 6.7889231255122218e-01 
161 162 2 1.0279999999999996e+00 4.2807309506918585e+01 1.0000000000000000e+00 2.6327868636441693e+01 3.7344237835178497e+01 1.1908273318898608e+00 
263 264 2 1.0280000012220867e+00 9.2657744742674686e+02 1.0000000000000000e+00 3.3028307794920558e+01 3.6866855139169040e+01 1.4616487144080701e+00 
885 886 2 1.0279999999708505e+00 -1.6103968518009192e+03 1.0000000000000000e+00 2.8974644054681821e+01 2.4792276961995210e+01 3.4246931300742549e+00 
799 800 2 1.0279999999911389e+00 -1.6108785385996089e+03 1.0000000000000000e+00 2.8525179097176444e+01 2.5644598954815851e+01 3.5422896397562798e+00 
3238 3239 2 1.0280000000184437e+00 -4.9673925245041448e+02 1.0000000000000000e+00 3.0218018150396844e+01 2.5738416360509110e+01 1.9470082197570708e+00 
2480 2481 2 1.0280000005292773e+00 3.3816690927967670e+02 1.0000000000000000e+00 3.2086092697658977e+01 2.6149601260738539e+01 2.7791868725847277e+00 
4329 4330 2 1.0279999995153528e+00 -5.7459093702585187e+02 1.0000000000000000e+00 3.0679835106744317e+01 2.7588403225154913e+01 2.7757457387320543e+00 
3113 3114 2 1.0280000004831749e+00 -1.0459587944348555e+03 1.0000000000000000e+00 3.3009138150843718e+01 2.8900629238355183e+01 3.6238537369794392e+00 
2826 2827 2 1.0279999999452207e+00 7.2620086967036855e+02 1.0000000000000000e+00 3.1900934676649875e+01 2.9020544767386497e+01 2.3078237281368326e+00 
2942 2943 2 1.0280000015686928e+00 4.3862744338074219e+02 1.0000000000000000e+00 3.0540197784051490e+01 2.9193571250669255e+01 3.3059909993796768e+00 
1260 1261 2 1.0279999994945264e+00 -3.8163379671849077e+02 1.0000000000000000e+00 3.0352326922779579e+01 3.0819583500315289e+01 3.1564923995982448e+00 
1220 1221 2 1.0279999995812104e+00 -7.1799291924912950e+02 1.0000000000000000e+00 3.3318263815498462e+01 3.0245429535599747e+01 2.0686563447022763e+00 
2737 2738 2 1.0279999942720441e+00 6.2489421058539938e+02 1.0000000000000000e+00 3.2656809573948223e+01 3.3568748376536192e+01 3.2372097559647273e+00 
4122 4123 2 1.0280000046814670e+00 -1.1937059832812647e+03 1.0000000000000000e+00 3.2260014736430627e+01 3.4302506625399964e+01 2.4360932685983707e+00 
1512 1513 2 1.0279999999999996e+00 -2.1379952823988638e+03 1.0000000000000000e+00 2.6385199156689318e+01 3.7903836081665723e+01 1.9545018398867828e+00 
1 2 2 1.0279999986594979e+00 2.3876636424362042e+02 1.0000000000000000e+00 3.2244298592366953e+01 3.9102332510347509e+01 3.6022546798951489e+00 
2102 2103 2 1.0280000001327736e+00 3.3109273463428656e+02 1.0000000000000000e+00 3.0401690326823541e+01 2.6741332719226779e+01 4.3602908339879933e+00 
2143 2144 2 1.0279999998583484e+00 -7.2532312321976292e+02 1.0000000000000000e+00 3.1041001752183082e+01 2.7536573767684818e+01 4.5851936406598561e+00 
1299 1300 2 1.0279999997161471e+00 1.5189319351758222e+03 1.0000000000000000e+00 2.9596453504416257e+01 3.0425553331662158e+01 4.1650708400975871e+00 
3831 3832 2 1.0279999987568795e+00 2.5014466546494687e+03 1.0000000000000000e+00 3.1341235085816308e+01 2.9970553135092370e+01 4.5280708886927377e+00 
4188 4189 2 1.0279999967358839e+00 1.0456103102418765e+03 1.0000000000000000e+00 2.8851012271177108e+01 3.2226198200575354e+01 5.1044714982878192e+00 
330 331 2 1.0280000020840407e+00 -6.8764680422567130e+02 1.0000000000000000e+00 3.0986903999052753e+01 3.1192484558666418e+01 4.7666446336707109e+00 
3478 3479 2 1.0279999999999998e+00 8.1325784665485259e+01 1.0000000000000000e+00 2.1489491868918542e+01 3.4422651047576878e+01 4.3750764556675321e+00 
3767 3768 2 1.0279999989740352e+00 -1.5821454568748140e+03 1.0000000000000000e+00 2.9565261721835000e+01 3.3570371049718183e+01 4.9728945554482280e+00 
2273 2274 2 1.0280000054396947e+00 -3.3318958612245819e+02 1.0000000000000000e+00 3.2812362458332522e+01 3.4200633891286941e+01 4.9470127633107177e+00 
3943 3944 2 1.0279999999999998e+00 4.0879669712608338e+03 1.0000000000000000e+00 2.2293685418544715e+01 3.4622266374278666e+01 4.8366630632214944e+00 
1930 1931 2 1.0280000017306783e+00 3.2823008528193390e+02 1.0000000000000000e+00 3.1402800662749488e+01 3.5551786371148197e+01 4.1821169295837661e+00 
503 504 2 1.0280000010069361e+00 -2.1955075962827863e+02 1.0000000000000000e+00 3.0828936953571390e+01 3.6245641987712048e+01 5.1206928408390313e+00 
297 298 2 1.0279999957013266e+00 2.0962638786123111e+03 1.0000000000000000e+00 3.2772961924308085e+01 3.5632765237682172e+01 5.3385370351932275e+00 
127 128 2 1.0280000030993286e+00 7.9093109418164318e+01 1.0000000000000000e+00 3.1479555502497472e+01 3.8149350985021968e+01 4.1044560251156144e+00 
169 170 2 1.0279999929048962e+00 -1.4824969579579638e+03 1.0000000000000000e+00 3.2264823683432489e+01 3.7682263230780578e+01 5.2926847668967589e+00 
1039 1040 2 1.0280000000000000e+00 -2.7213604953908662e+03 1.0000000000000000e+00 2.6307909437275306e+01 2.2951671016544623e+01 5.9979183153071505e+00 
995 996 2 1.0280000000000000e+00 -1.4813124436005683e+02 1.0000000000000000e+00 2.5885095646367255e+01 2.3791927090015321e+01 5.8761235313410554e+00 
2968 2969 2 1.0279999999999989e+00 1.0864944244803266e+03 1.0000000000000000e+00 1.8575468484411346e+01 3.0565961664497028e+01 7.0846614194618764e+00 
2928 2929 2 1.0279999999999989e+00 -1.8230372995959951e+03 1.0000000000000000e+00 1.9281260980115274e+01 3.1194788488283749e+01 7.1625685364802258e+00 
3467 3468 2 1.0280000041996220e+00 2.7904532925526360e+03 1.0000000000000000e+00 2.9768861706163396e+01 3.2055626414242290e+01 5.8990277878456574e+00 
3655 3656 2 1.0280000009469974e+00 1.4513270431399869e+03 1.0000000000000000e+00 3.3128789308207416e+01 3.1994290547846830e+01 6.7769239816224998e+00 
3928 3929 2 1.0279999991230864e+00 3.3041405044890080e+03 1.0000000000000000e+00 2.9828890707250007e+01 3.3840606180509511e+01 6.2601473260199407e+00 
2735 2736 2 1.0279999958075476e+00 -3.2849564836080873e+02 1.0000000000000000e+00 3.2323727477632993e+01 3.2758435581208474e+01 6.2079112662113385e+00 
1345 1346 2 1.0280000030932117e+00 1.4490120690421275e+03 1.0000000000000000e+00 3.3266586559316636e+01 3.3735174789901500e+01 7.0652352696726384e+00 
3015 3016 2 1.0279999935571427e+00 5.0936171383611609e+03 1.0000000000000000e+00 2.8789559214389719e+01 3.5972134452173407e+01 7.1167639051286118e+00 
1808 1809 2 1.0279999984650066e+00 3.5320347963258899e+02 1.0000000000000000e+00 3.1333884431119102e+01 3.4612980634586947e+01 5.4546962028869421e+00 
1174 1175 2 1.0280000021734461e+00 -1.6983007759342411e+03 1.0000000000000000e+00 3.1005687962802444e+01 3.6635035893768865e+01 6.7589926845658139e+00 
1557 1558 2 1.0280000055108538e+00 7.3783927830052949e+02 1.0000000000000000e+00 3.2899732804776576e+01 3.7062589908320142e+01 6.5348429106736736e+00 
329 330 2 1.0280000006555636e+00 4.6536425932958075e+01 1.0000000000000000e+00 3.1367824493370058e+01 3.9196308103582297e+01 5.7610867136967876e+00 
171 172 2 1.0280000000000007e+00 -5.7018695799363877e+02 1.0000000000000000e+00 2.0735396189987505e+01 2.5272846239667597e+01 9.0178145026384051e+00 
2315 2316 2 1.0280000016394171e+00 -3.3520211931164442e+02 1.0000000000000000e+00 3.2983420020555158e+01 2.8390666852449947e+01 8.3387302839471200e+00 
2308 2309 2 1.0279999999999998e+00 -1.4685635353368891e+03 1.0000000000000000e+00 7.4689989666214629e+00 3.3476205907131593e+01 8.6697503427894596e+00 
4540 4541 2 1.0279999970639160e+00 3.8733199911069710e+02 1.0000000000000000e+00 2.8008387144311179e+01 3.2766922519363817e+01 7.3542563785397181e+00 
4043 4044 2 1.0280000023650249e+00 -1.2909786872307118e+03 1.0000000000000000e+00 2.8090039850815629e+01 3.3036590335056815e+01 8.2622284773565191e+00 
709 710 2 1.0279999973551313e+00 4.1752679067528243e+03 1.0000000000000000e+00 3.0418233654496088e+01 3.4351787883781228e+01 7.6762194030456570e+00 
561 562 2 1.0279999974914891e+00 1.1112837869643035e+03 1.0000000000000000e+00 3.2508843670826387e+01 3.3305056161082092e+01 8.7377070369618952e+00 
1092 1093 2 1.0280000011939465e+00 -3.8740600288785646e+02 1.0000000000000000e+00 3.1638105142329877e+01 3.4338808299201041e+01 7.4851709113534088e+00 
1347 1348 2 1.0280000000000005e+00 -1.6511519858568358e+03 1.0000000000000000e+00 1.1447186030357559e+01 3.4686638908792887e+01 8.6960422809293991e+00 
1346 1347 2 1.0280000000000005e+00 -5.4527385584862986e+02 1.0000000000000000e+00 1.2360116869054714e+01 3.4822832193298666e+01 8.4777662785860013e+00 
2093 2094 2 1.0280000052065184e+00 -5.2716985283722750e+02 1.0000000000000000e+00 2.8326364259044254e+01 3.5177394061366051e+01 7.3857412716289375e+00 
461 462 2 1.0279999981221719e+00 -5.6660611167031618e+02 1.0000000000000000e+00 3.0459823954264522e+01 3.6031912157851444e+01 8.5881914110589914e+00 
460 461 2 1.0279999985908150e+00 -1.4154161276501763e+03 1.0000000000000000e+00 3.1237788876851518e+01 3.6725793069458113e+01 9.0683416480577730e+00 
245 246 2 1.0279999998212856e+00 -8.7497593180384854e+02 1.0000000000000000e+00 3.0997259965265471e+01 3.7551837801925799e+01 7.5377225193103898e+00 
511 512 2 1.0279999989297579e+00 -2.3058412149810833e+03 1.0000000000000000e+00 3.3254199477021835e+01 3.6848596265723678e+01 8.7290530942236408e+00 
967 968 2 1.0279999898790033e+00 -7.2179108100485485e+02 1.0000000000000000e+00 3.2832877616597223e+01 3.7988166605499273e+01 7.7468543288717493e+00 
3482 3483 2 1.0280000000000002e+00 -4.8598249356541089e+01 1.0000000000000000e+00 2.7760493473409102e+01 2.2134399001802279e+01 1.0696239299524066e+01 
1517 1518 2 1.0280000011367274e+00 1.3431629686121355e+03 1.0000000000000000e+00 3.2996474877091906e+01 2.4889511409610876e+01 1.0262221300076924e+01 
2018 2019 2 1.0280000000000007e+00 3.3103969045427772e+02 1.0000000000000000e+00 2.1232547290004614e+01 2.5951340645941404e+01 9.4561315848913221e+00 
2983 2984 2 1.0280000029604754e+00 1.2212970414939152e+03 1.0000000000000000e+00 3.1082858838395200e+01 2.6691810768827803e+01 9.7441896142444087e+00 
1055 1056 2 1.0279999986832902e+00 8.9506239033237864e+02 1.0000000000000000e+00 3.2469938901490806e+01 2.5773830969697528e+01 1.0583156402715117e+01 
3448 3449 2 1.0279999964235094e+00 3.0655074807716128e+03 1.0000000000000000e+00 3.1666893782476581e+01 2.7348158686195649e+01 9.2160517785489287e+00 
1853 1854 2 1.0279999995310520e+00 -3.3183004184676236e+02 1.0000000000000000e+00 3.2334940269724463e+01 2.9517003072913159e+01 9.4532335437132406e+00 
551 552 2 1.0280000018076030e+00 9.1101757652322726e+02 1.0000000000000000e+00 3.3168904819830217e+01 3.0022212976882599e+01 1.0010383674724997e+01 
172 173 2 1.0279999933264459e+00 2.3739440741311878e+02 1.0000000000000000e+00 3.2984810928500870e+01 3.2461092928795651e+01 1.0499191001876756e+01 
918 919 2 1.0279999999999998e+00 -8.9743117821505820e+01 1.0000000000000000e+00 7.7476265426412159e+00 3.4256018422414122e+01 9.1322380237906664e+00 
3870 3871 2 1.0280000034807624e+00 2.1631975767196677e+03 1.0000000000000000e+00 3.1524857945915183e+01 3.4538418330810167e+01 9.4508650414101343e+00 
1348 1349 2 1.0280000000000016e+00 -4.7190339377637429e+02 1.0000000000000000e+00 1.9916658101737450e+01 3.5138423295329822e+01 1.0839241229987955e+01 
886 887 2 1.0280000000000016e+00 -5.8666891306721823e+02 1.0000000000000000e+00 2.0795459704829266e+01 3.5495275322856195e+01 1.0839577446205389e+01 
3408 3409 2 1.0279999953430738e+00 -1.2857492775015714e+03 1.0000000000000000e+00 3.1983530060217497e+01 3.5321193344245394e+01 1.0259348374557732e+01 
1929 1930 2 1.0280000000000002e+00 2.0669750724505619e+02 1.0000000000000000e+00 6.8051179253281449e+00 3.9802150481217296e+01 9.8346099520809354e+00 
35 36 2 1.0280000000000002e+00 -4.1499853580485512e+02 1.0000000000000000e+00 7.0905158708266702e+00 3.8906300966588567e+01 9.7095603617878403e+00 
634 635 2 1.0279999982493446e+00 -6.6620945386953997e+02 1.0000000000000000e+00 3.2539044977499493e+01 3.8787756477032573e+01 1.0797505769491313e+01 
3945 3946 2 1.0280000000000002e+00 -1.9148883848499356e+03 1.0000000000000000e+00 2.7162993734511488e+01 2.1642365200419331e+01 1.1244447782221760e+01 
3566 3567 2 1.0280000000000393e+00 8.9359105845753743e+02 1.0000000000000000e+00 2.7781081416030549e+01 3.7342393649953117e+01 1.1751784110422204e+01 
3104 3105 2 1.0280000000000393e+00 1.3456579076301018e+03 1.0000000000000000e+00 2.8244372126657861e+01 3.7685551523895256e+01 1.2504937568347994e+01 
884 885 2 1.0280000151292188e+00 -2.4707125687498981e+02 1.0000000000000000e+00 3.0770998215811421e+01 3.7127175824358680e+01 1.2237624404099881e+01 
174 175 2 1.0280000085244310e+00 1.8183601573139724e+03 1.0000000000000000e+00 3.2549368589186138e+01 3.7443041720492950e+01 1.2210466059611679e+01 
591 592 2 1.0279999848085619e+00 -4.1644670687871235e+02 1.0000000000000000e+00 3.2355422388957820e+01 3.8795925223648439e+01 1.2437068558870363e+01 
3789 3790 2 1.0279999994681437e+00 1.8555355502327070e+03 1.0000000000000000e+00 3.2413063474360612e+01 2.8843908813572071e+01 1.4475753837236917e+01 
49 50 2 1.0279999946311773e+00 1.7182941614440264e+02 1.0000000000000000e+00 3.2758988622117300e+01 3.3597916061810373e+01 1.3180693229721538e+01 
91 92 2 1.0280000042540580e+00 -1.0835272499295572e+03 1.0000000000000000e+00 3.2953569786388201e+01 3.3657984012060709e+01 1.4458004286350929e+01 
221 222 2 1.0280000030419278e+00 1.4581025244805724e+03 1.0000000000000000e+00 3.1392040118422191e+01 3.5731215530581984e+01 1.4350561429060477e+01 
1142 1143 2 1.0279999836725753e+00 4.0623584974810392e+03 1.0000000000000000e+00 3.2014627357905795e+01 3.6085837134442059e+01 1.3324941914841922e+01 
2229 2230 2 1.0279999934541832e+00 3.2096753056404253e+02 1.0000000000000000e+00 3.0803989270484966e+01 3.7436426441792293e+01 1.3291597375984638e+01 
2934 2935 2 1.0279999999999998e+00 4.6476030253109502e+02 1.0000000000000000e+00 1.0199711803501344e+01 2.6793734071556781e+01 1.5265549569702985e+01 
3440 3441 2 1.0279999999999998e+00 1.1411101569760740e+03 1.0000000000000000e+00 9.9758666150340662e+00 2.7627060574024423e+01 1.4871727259424762e+01 
1051 1052 2 1.0280000004544081e+00 -4.1084021504960936e+02 1.0000000000000000e+00 3.0929777816958964e+01 2.8466201969195971e+01 1.5437339259351356e+01 
134 135 2 1.0279999995065554e+00 8.3529343034960618e+01 1.0000000000000000e+00 3.0723408190172904e+01 2.9303652532695370e+01 1.4810711725747019e+01 
4427 4428 2 1.0280000003248160e+00 6.2237985136180305e+02 1.0000000000000000e+00 3.2226608962755456e+01 3.0132930405194958e+01 1.6169440119683806e+01 
180 181 2 1.0280000010574493e+00 -2.6978513688001549e+01 1.0000000000000000e+00 3.2480049326787849e+01 3.5109779241968297e+01 1.5400035508826868e+01 
926 927 2 1.0280000106734040e+00 -5.3414882503648278e+02 1.0000000000000000e+00 2.5865733032591649e+01 3.7256979491778367e+01 1.5799742697978180e+01 
305 306 2 1.0279999936481969e+00 -6.3830167611927527e+02 1.0000000000000000e+00 3.3134534030649846e+01 3.6730755650180612e+01 1.4747919371261046e+01 
264 265 2 1.0280000072692328e+00 -1.6172376882981748e+01 1.0000000000000000e+00 3.2082486438697188e+01 3.6656809838001131e+01 1.5865749131553931e+01 
1457 1458 2 1.0280000000000000e+00 -8.1229319280867753e+02 1.0000000000000000e+00 1.2423813413612333e+01 3.9756403960599734e+01 1.5570912833578742e+01 
535 536 2 1.0280000000000000e+00 -3.8848734667691554e+02 1.0000000000000000e+00 1.3370473939350980e+01 3.9760967985292503e+01 1.5629638968089816e+01 
4467 4468 2 1.0279999996760771e+00 -7.4848418818687628e+02 1.0000000000000000e+00 3.2458515858487715e+01 2.9049173334684504e+01 1.6830915752504573e+01 
506 507 2 1.0280000007659820e+00 -2.7093731087322760e+02 1.0000000000000000e+00 2.6033587091151528e+01 3.1880712012899881e+01 1.6561256362358755e+01 
3038 3039 2 1.0280000015764899e+00 1.5453595270601847e+03 1.0000000000000000e+00 2.7287809568883191e+01 3.2205841134922380e+01 1.6936219084364623e+01 
3740 3741 2 1.0279999958057797e+00 -2.6396105734455017e+02 1.0000000000000000e+00 2.6209687085619350e+01 3.2995495964246274e+01 1.7316931729599261e+01 
1851 1852 2 1.0279999889803777e+00 -1.5679828637415130e+03 1.0000000000000000e+00 2.8044208985536841e+01 3.4026077366583898e+01 1.7582861994213637e+01 
2313 2314 2 1.0279999973600655e+00 -1.5653534544488336e+03 1.0000000000000000e+00 2.9902452323831493e+01 3.3160098575434226e+01 1.7409470952398578e+01 
3703 3704 2 1.0280000027896032e+00 -2.4042841133332935e+00 1.0000000000000000e+00 3.0361810421106149e+01 3.4005401755656756e+01 1.7238944014083255e+01 
3041 3042 2 1.0280000000000011e+00 1.7951477291996298e+03 1.0000000000000000e+00 2.0946898589658847e+01 3.4604152534255959e+01 1.7250912063364691e+01 
3050 3051 2 1.0280000000000011e+00 1.7778698252964982e+03 1.0000000000000000e+00 2.1164853655072982e+01 3.5502215135289241e+01 1.7037335626758416e+01 
3196 3197 2 1.0279999999803111e+00 -2.7414925762337516e+03 1.0000000000000000e+00 2.5383309594601307e+01 3.4840455916320963e+01 1.6397790283213883e+01 
4123 4124 2 1.0279999989669351e+00 1.7708570282602814e+00 1.0000000000000000e+00 2.5992723704913704e+01 3.5220694704106720e+01 1.7028358346252848e+01 
4295 4296 2 1.0279999847015657e+00 -6.4849355018719450e+02 1.0000000000000000e+00 3.2236131897708653e+01 3.5301323578600076e+01 1.6996282649116299e+01 
4382 4383 2 1.0280000111206120e+00 4.1068170179828494e+03 1.0000000000000000e+00 3.2804461303439901e+01 3.6316036363958894e+01 1.7984872337657496e+01 
927 928 2 1.0279999890461968e+00 -1.6524138092866360e+03 1.0000000000000000e+00 2.5213395333072008e+01 3.7401422862022180e+01 1.6474266890588705e+01 
224 225 2 1.0279999961617001e+00 4.1028399003556115e+03 1.0000000000000000e+00 3.2842177238637582e+01 3.8157935799563553e+01 1.7973284565720707e+01 