LAMMPS data file via write_data, version 30 Jul 2016, timestep = 50400000

384 atoms
2 atom types

0.0000000000000000e+00 2.0000000000000000e+01 xlo xhi
0.0000000000000000e+00 2.0000000000000000e+01 ylo yhi
0.0000000000000000e+00 2.0000000000000000e+01 zlo zhi

Masses

1 3.89
2 0.042

Atoms # meso-molecular

65 1 2 9.9999999999796328e-03 -1.7031167186440671e-01 1.0000000000000000e+00 9.4440775093869185e+00 1.6696633438261486e+00 3.0026874119520541e+00 
64 1 2 9.9999999999932695e-03 1.1013094284526430e+00 1.0000000000000000e+00 1.0255246820253632e+01 1.0699594936608274e+00 2.2943829687314277e+00 
8 1 2 9.9999999999941663e-03 4.1662498619646249e-01 1.0000000000000000e+00 1.0338521458020363e+01 1.5082497736675571e+00 2.2252134651374402e+00 
72 1 2 9.9999999999944838e-03 1.2688450023365788e-01 1.0000000000000000e+00 1.0377932927856369e+01 1.4974799051000609e+00 2.2199186532847190e+00 
73 1 2 9.9999999999879578e-03 1.4353272200153320e+00 1.0000000000000000e+00 1.0426098272790950e+01 2.3228567953451478e+00 2.5904905620154430e+00 
201 1 2 9.9999999999974450e-03 4.0601339416006876e-01 1.0000000000000000e+00 1.1417867397184233e+01 2.5100227816017293e+00 3.0059877251850033e+00 
136 1 2 9.9999999999951187e-03 1.5127749051724522e+00 1.0000000000000000e+00 1.0561308566149952e+01 1.6010122962486251e+00 2.2250391370617750e+00 
80 1 2 9.9999999999938419e-03 2.9452375750804527e+00 1.0000000000000000e+00 1.0509185571240318e+01 1.8049632697363447e+00 2.2672046240572628e+00 
129 1 2 1.0000000000006018e-02 -1.0534930694426284e-01 1.0000000000000000e+00 1.1216077604715139e+01 4.0522918129153748e-02 3.2428853872191072e+00 
9 1 2 1.0000000000011609e-02 -1.2532474184300396e-01 1.0000000000000000e+00 9.5373033464586765e+00 2.2258699953094738e+00 3.7767350944124076e+00 
1 1 2 1.0000000000039783e-02 -2.4158633325363063e-01 1.0000000000000000e+00 9.2661214740633628e+00 1.4657216880083037e+00 3.7149881453908189e+00 
2 1 2 1.0000000000047450e-02 -3.5496659650691381e-01 1.0000000000000000e+00 9.3247382403206167e+00 8.2265207018472775e-01 4.5649051074410520e+00 
66 1 2 9.9999999999992924e-03 -2.2536921016132888e-01 1.0000000000000000e+00 9.4543421471414693e+00 1.3960237919109026e+00 5.0647670051520208e+00 
3 1 2 9.9999999999462619e-03 -2.3455941899164634e-01 1.0000000000000000e+00 9.8237940903467109e+00 1.2439434985443483e+00 6.4979756716820791e+00 
130 1 2 1.0000000000092780e-02 -1.7401629623333698e-01 1.0000000000000000e+00 9.5859961482132672e+00 2.1093838141325332e+00 5.6820673313134487e+00 
257 1 2 1.0000000000016492e-02 2.8181283386616393e-02 1.0000000000000000e+00 1.2394417701136307e+01 1.7170472267062871e+00 3.8457619089031185e+00 
193 1 2 9.9999999999887020e-03 3.9772755999920775e-03 1.0000000000000000e+00 1.1852862344326796e+01 5.3277145849772956e-01 4.0322821530154238e+00 
265 1 2 9.9999999999752787e-03 -1.7607425669564919e-01 1.0000000000000000e+00 1.2990639319104973e+01 2.8410822874655781e+00 4.6007138894316393e+00 
194 1 2 9.9999999999894930e-03 -6.9940835977446617e-02 1.0000000000000000e+00 1.1995871804816911e+01 7.5285205946407951e-01 4.3672173781833745e+00 
138 1 2 1.0000000000015257e-02 -1.5741188552064689e-01 1.0000000000000000e+00 1.0520766216847678e+01 3.1945829219409010e+00 5.0473218454701145e+00 
258 1 2 1.0000000000006273e-02 -1.5986873537910090e-01 1.0000000000000000e+00 1.2887061490318578e+01 1.8251183616749260e+00 6.0438516026940921e+00 
266 1 2 9.9999999999806910e-03 -2.0810862582639217e-01 1.0000000000000000e+00 1.3137860983187258e+01 2.6758706697033632e+00 4.9065926546425400e+00 
322 1 2 1.0000000000007385e-02 -1.4566821720898920e-01 1.0000000000000000e+00 1.2864295584524323e+01 1.7832566719110450e+00 5.8819907429234410e+00 
321 1 2 1.0000000000025037e-02 9.4822112121298763e-02 1.0000000000000000e+00 1.2967676397376733e+01 2.4448393132256934e+00 4.5617140550174664e+00 
329 1 2 9.9999999999844259e-03 2.3999079293588327e-01 1.0000000000000000e+00 1.2910598774113891e+01 2.7417569911281814e+00 4.4557330845688456e+00 
137 1 2 1.0000000000004720e-02 -1.5900569649547523e-02 1.0000000000000000e+00 1.0961586176960235e+01 3.2430632025804935e+00 4.3590904864499507e+00 
81 1 2 9.9999999999960155e-03 -7.1514874596375538e-02 1.0000000000000000e+00 9.7687921321595290e+00 6.5840177864792464e+00 4.3670313748373122e+00 
17 1 2 9.9999999999832792e-03 -1.3016506622984828e-01 1.0000000000000000e+00 9.0889180463856665e+00 6.0787068610340675e+00 4.9750021806736298e+00 
74 1 2 9.9999999999798150e-03 -2.2099978954770461e-01 1.0000000000000000e+00 9.2577535485973037e+00 3.6714354125174338e+00 6.3496064209785752e+00 
82 1 2 9.9999999999289338e-03 -2.2548321334487950e-01 1.0000000000000000e+00 8.7063922281325574e+00 5.2607482378398220e+00 6.1154743421282003e+00 
10 1 2 9.9999999999209124e-03 -1.6631329788281862e-01 1.0000000000000000e+00 9.2250884284219214e+00 4.1018947359549793e+00 6.2918122181787455e+00 
18 1 2 1.0000000000062426e-02 -2.2607951318794678e-01 1.0000000000000000e+00 8.5347617190518257e+00 6.2678106847464381e+00 6.0315545434169113e+00 
146 1 2 9.9999999999674256e-03 -1.4581393862601361e-01 1.0000000000000000e+00 8.9393907544480093e+00 5.5370322483392824e+00 5.5403374206380551e+00 
27 1 2 1.0000000000004139e-02 -1.3655320473492105e-01 1.0000000000000000e+00 8.6125061343232563e+00 6.6564845457525381e+00 6.3389510035071090e+00 
145 1 2 1.0000000000000222e-02 7.6782147712769394e-02 1.0000000000000000e+00 1.0964354775689355e+01 6.6174186239503934e+00 4.2671073665504515e+00 
202 1 2 1.0000000000005478e-02 -1.5596061101632663e-01 1.0000000000000000e+00 1.1535889650660950e+01 3.6905355600019849e+00 4.9728119078752835e+00 
203 1 2 1.0000000000332653e-02 -8.7472839372785480e-02 1.0000000000000000e+00 1.2401199553340113e+01 4.3198320137686892e+00 6.5776020808495810e+00 
210 1 2 9.9999999999416059e-03 -1.1753848663467975e-01 1.0000000000000000e+00 1.2629889182479559e+01 5.2729974957112900e+00 5.2687641804396561e+00 
274 1 2 9.9999999999327484e-03 -1.6139871086906682e-01 1.0000000000000000e+00 1.2967934226233920e+01 5.5948100579630573e+00 5.4709662905623313e+00 
273 1 2 9.9999999999644488e-03 -1.2551141816492226e-01 1.0000000000000000e+00 1.2886888468353417e+01 6.4914630760610716e+00 5.0705517084700018e+00 
330 1 2 9.9999999999388252e-03 -2.0527114341468958e-01 1.0000000000000000e+00 1.3128840091308167e+01 3.3858520651977333e+00 5.2197685697991769e+00 
337 1 2 9.9999999999099455e-03 -1.2262721820516759e-01 1.0000000000000000e+00 1.2719750640135358e+01 4.1635845905503057e+00 5.2406130367346542e+00 
338 1 2 9.9999999999900464e-03 -1.7683671751699398e-01 1.0000000000000000e+00 1.3212618857727135e+01 5.7973771228443294e+00 6.2433430512230865e+00 
89 1 2 1.0000000000002320e-02 8.9638952798783122e-01 1.0000000000000000e+00 9.7989989828313906e+00 7.4815554357233438e+00 4.3275619573677275e+00 
25 1 2 1.0000000000001230e-02 2.4195140188190883e-01 1.0000000000000000e+00 9.2517665169149215e+00 7.2334304078927962e+00 4.5832177130919414e+00 
26 1 2 1.0000000000007813e-02 -1.3774449658039939e-01 1.0000000000000000e+00 8.9489420489501139e+00 7.3026392220763672e+00 5.0160298281285680e+00 
90 1 2 1.0000000000006589e-02 -2.6515890089265824e-02 1.0000000000000000e+00 9.2791639877453047e+00 7.7985672780908164e+00 5.0003273867314935e+00 
154 1 2 9.9999999999885805e-03 -6.3466283753815272e-02 1.0000000000000000e+00 9.7511279968081475e+00 8.4814698197380185e+00 5.6842881920619268e+00 
209 1 2 1.0000000000000377e-02 3.4984170229738287e-01 1.0000000000000000e+00 1.1504698521941590e+01 6.7413541503021133e+00 4.3100730350562042e+00 
346 1 2 1.0000000000015481e-02 -2.2266809943216964e-01 1.0000000000000000e+00 1.3225346577306503e+01 6.9011918408440120e+00 6.0379108722397108e+00 
217 1 2 9.9999999999884331e-03 3.1143518467252873e-01 1.0000000000000000e+00 1.1534413291726278e+01 7.7794297061741586e+00 4.4584872040668904e+00 
345 1 2 9.9999999999726540e-03 5.7597880349294139e-01 1.0000000000000000e+00 1.2493032018149565e+01 7.4561217704551908e+00 4.8890509157394693e+00 
281 1 2 9.9999999999694882e-03 1.2544454989425688e-01 1.0000000000000000e+00 1.2395386513448576e+01 7.4405526678577800e+00 4.7896441237846297e+00 
153 1 2 1.0000000000000548e-02 -9.0568074863795867e-02 1.0000000000000000e+00 1.0194216797805742e+01 7.6436074241088807e+00 4.2726660473604463e+00 
218 1 2 9.9999999999375970e-03 -4.2104467153776026e-02 1.0000000000000000e+00 1.1837963899816996e+01 8.3614409823887215e+00 5.1869335768512235e+00 
226 1 2 9.9999999999216237e-03 5.8109910229495493e-02 1.0000000000000000e+00 1.1725525576807899e+01 9.7630543735271917e+00 6.2942860517880357e+00 
290 1 2 9.9999999999616021e-03 2.7151558297970550e-02 1.0000000000000000e+00 1.2325700428190807e+01 9.8442890884317027e+00 6.6331546836104653e+00 
282 1 2 9.9999999999746299e-03 1.8265412268668273e-02 1.0000000000000000e+00 1.2613910316987909e+01 7.7598451321862294e+00 5.3101220028513438e+00 
67 1 2 9.9999999999989507e-03 -2.7969596703387262e-01 1.0000000000000000e+00 9.5566481597294644e+00 1.9137030296006861e+00 6.9404817155307255e+00 
68 1 2 9.9999999999752752e-03 -1.8874433958389311e-01 1.0000000000000000e+00 9.0496552313558976e+00 2.6688175149864493e+00 9.0811942532702137e+00 
4 1 2 9.9999999999785209e-03 -1.1727611884806957e-01 1.0000000000000000e+00 8.9955095011887352e+00 2.7168387120817861e+00 9.1338982242302791e+00 
139 1 2 9.9999999999756187e-03 -2.1402434035418838e-01 1.0000000000000000e+00 9.7963854032220503e+00 1.7963817949931185e+00 7.5146153655494263e+00 
259 1 2 9.9999999999889396e-03 -1.6079752560466595e-01 1.0000000000000000e+00 1.2578137052347330e+01 1.6272439342343834e+00 7.2405520047308221e+00 
131 1 2 9.9999999999655243e-03 -4.0894719796406173e-02 1.0000000000000000e+00 1.0568084595550063e+01 1.1143646137005261e+00 7.3551226874234175e+00 
132 1 2 9.9999999999517038e-03 1.4828223347115713e-02 1.0000000000000000e+00 1.0160418170453893e+01 1.9613648803906554e+00 8.3507278731563321e+00 
195 1 2 9.9999999999832879e-03 1.8974139063349890e-01 1.0000000000000000e+00 1.1535150911624786e+01 1.1518500233766611e+00 7.4776841579628686e+00 
267 1 2 1.0000000000013297e-02 -1.9604534263798534e-01 1.0000000000000000e+00 1.3069571905192019e+01 2.2514171128340386e+00 7.7956545496307754e+00 
196 1 2 9.9999999999757488e-03 1.2287129561305450e-01 1.0000000000000000e+00 1.1801672981646901e+01 1.3688336921816184e+00 7.9552324076333365e+00 
260 1 2 9.9999999999827900e-03 -8.1122663685173596e-02 1.0000000000000000e+00 1.2266683287360285e+01 1.5851212953528424e+00 8.5482936893098262e+00 
323 1 2 9.9999999999883637e-03 -7.2889015280272144e-03 1.0000000000000000e+00 1.2601976768128420e+01 1.6618685066839565e+00 7.4025579939426454e+00 
324 1 2 1.0000000000028080e-02 -4.0867260754042356e-01 1.0000000000000000e+00 1.3159651854707649e+01 2.2508805027975733e+00 8.5669128176089195e+00 
11 1 2 1.0000000000032781e-02 -2.8052590110617315e-01 1.0000000000000000e+00 8.8820704333696145e+00 3.5528871007046718e+00 6.8680822524970520e+00 
75 1 2 9.9999999999571959e-03 -2.7183997730074372e-01 1.0000000000000000e+00 8.7804385421397111e+00 3.8823187897540259e+00 6.8773154290054830e+00 
83 1 2 9.9999999999909432e-03 -1.5329985281071556e-01 1.0000000000000000e+00 8.6963927136015560e+00 6.1846788573415390e+00 7.3285258738067229e+00 
13 1 2 1.0000000000052040e-02 -4.1464155474200659e-01 1.0000000000000000e+00 8.5453964957251340e+00 3.3529140549299838e+00 9.8587718043891144e+00 
19 1 2 1.0000000000062289e-02 -2.1192692710185529e-01 1.0000000000000000e+00 8.6378243680357123e+00 5.7716791903131259e+00 7.6784209032690587e+00 
21 1 2 9.9999999999334788e-03 -2.1167556526434195e-01 1.0000000000000000e+00 8.4980307357346856e+00 6.3578240408622761e+00 9.8565797925093612e+00 
76 1 2 9.9999999999812721e-03 -2.5323440592512175e-01 1.0000000000000000e+00 8.5317862496158501e+00 3.7681002918159083e+00 8.0786199854981469e+00 
84 1 2 9.9999999999433025e-03 -7.1839414305845228e-02 1.0000000000000000e+00 8.6111108337035329e+00 6.0641829849202669e+00 9.1582019663939764e+00 
20 1 2 9.9999999999795253e-03 -2.2411538968875394e-01 1.0000000000000000e+00 8.5467147724257746e+00 5.1792798464685408e+00 9.0308667759202663e+00 
12 1 2 9.9999999998736135e-03 -2.9666855772724116e-01 1.0000000000000000e+00 8.4447079804329057e+00 4.3350567459093829e+00 9.2652264571882199e+00 
140 1 2 1.0000000000153195e-02 -1.7093440993746514e-01 1.0000000000000000e+00 9.9840257008199575e+00 3.8381049747437359e+00 8.0789117060280624e+00 
147 1 2 1.0000000000115432e-02 -8.7002129947052115e-02 1.0000000000000000e+00 9.8128348249917252e+00 6.1218292791259259e+00 7.2228698828437246e+00 
204 1 2 1.0000000000115399e-02 -1.2696160239350784e-01 1.0000000000000000e+00 1.1731329583832343e+01 3.5348541556435342e+00 9.1324796679170621e+00 
211 1 2 1.0000000000154602e-02 -3.9924888144718770e-02 1.0000000000000000e+00 1.1969030403323885e+01 6.0451238823686886e+00 7.0676235589675178e+00 
275 1 2 9.9999999999412347e-03 -1.0595397875531606e-01 1.0000000000000000e+00 1.3244444940095971e+01 5.9021135412695003e+00 7.1823971903918782e+00 
339 1 2 9.9999999999684300e-03 -1.0057222416623428e-01 1.0000000000000000e+00 1.3265269826569831e+01 6.3443357161207787e+00 7.4684925888890348e+00 
213 1 2 1.0000000000087370e-02 -3.2850695323163961e-03 1.0000000000000000e+00 1.2571501237652692e+01 5.4504318076315066e+00 9.4682263368424895e+00 
276 1 2 1.0000000000067679e-02 -5.7561274587830114e-02 1.0000000000000000e+00 1.2430870071035017e+01 5.5204105846087108e+00 9.2825340334982798e+00 
340 1 2 9.9999999999247219e-03 -1.4966724260531183e-01 1.0000000000000000e+00 1.3266253386869261e+01 4.8651424921301718e+00 9.1884715458984729e+00 
331 1 2 9.9999999997842769e-03 -3.8462278066655031e-01 1.0000000000000000e+00 1.3288300660019615e+01 4.0525283859891292e+00 8.1469841595554939e+00 
91 1 2 9.9999999998717469e-03 -3.2765525402695450e-02 1.0000000000000000e+00 9.7169769529389409e+00 8.8140692187033309e+00 8.0785028398378760e+00 
92 1 2 9.9999999999046841e-03 -1.1073272027367070e-01 1.0000000000000000e+00 9.2520326646138606e+00 9.0097392429386414e+00 8.5568966475380854e+00 
29 1 2 9.9999999999670509e-03 -3.4185972256199010e-01 1.0000000000000000e+00 8.5565561558947891e+00 7.8787376569689318e+00 9.5553493705153549e+00 
28 1 2 9.9999999999417499e-03 -2.7906712142510559e-01 1.0000000000000000e+00 8.7488193462356332e+00 7.6757628372106126e+00 8.9426634151665141e+00 
36 1 2 1.0000000000123729e-02 -1.9942790608020186e-01 1.0000000000000000e+00 8.9286142880256385e+00 9.8495192389325741e+00 9.2939485984910011e+00 
156 1 2 9.9999999998740697e-03 -1.4389970799127633e-01 1.0000000000000000e+00 9.6206755320643911e+00 9.1666550792148023e+00 8.1555400107076323e+00 
155 1 2 9.9999999996692613e-03 -3.6243634484539752e-02 1.0000000000000000e+00 1.0043593140075821e+01 8.4130691968956324e+00 6.7296488644741039e+00 
221 1 2 9.9999999998277803e-03 -1.2908329768843335e-01 1.0000000000000000e+00 1.1827287326841821e+01 7.9128285635058981e+00 9.9583386897772730e+00 
148 1 2 1.0000000000227053e-02 1.2756176142260751e-02 1.0000000000000000e+00 1.0068950564274475e+01 6.6754052313887371e+00 9.1905731185879453e+00 
212 1 2 1.0000000000050462e-02 -6.8102567755612381e-02 1.0000000000000000e+00 1.1982920203144875e+01 6.7277119328545423e+00 9.0199635797827664e+00 
283 1 2 9.9999999999630801e-03 -8.2011625952839146e-02 1.0000000000000000e+00 1.3012715040837019e+01 8.8368194756045106e+00 7.5137894549154360e+00 
220 1 2 1.0000000000020113e-02 -4.5889468109012205e-02 1.0000000000000000e+00 1.1913853254735171e+01 7.3757089638283055e+00 8.3976574617057764e+00 
293 1 2 1.0000000000014612e-02 -2.1905402814000344e-02 1.0000000000000000e+00 1.2915014125200273e+01 9.1374982078164724e+00 9.9590617021841670e+00 
347 1 2 1.0000000000003789e-02 -5.5608664707424808e-02 1.0000000000000000e+00 1.3137494060051752e+01 7.3293962848231455e+00 7.4691173652851122e+00 
219 1 2 1.0000000000583573e-02 -7.9830310529938178e-02 1.0000000000000000e+00 1.0502803025910742e+01 8.7181968290593392e+00 7.2754462551599159e+00 
69 1 2 9.9999999999886603e-03 1.2422933488793153e-01 1.0000000000000000e+00 9.3460269090836459e+00 2.6276507799439708e+00 1.0564711530493787e+01 
5 1 2 9.9999999999943572e-03 2.5371169823632450e-01 1.0000000000000000e+00 9.1701933619915561e+00 2.6984013103207021e+00 1.0466494233121116e+01 
70 1 2 9.9999999999856592e-03 -1.4108168635438040e-01 1.0000000000000000e+00 9.3853144951409266e+00 2.9830267917036069e+00 1.2424766478662857e+01 
6 1 2 1.0000000000018890e-02 -1.5921461635876308e-01 1.0000000000000000e+00 8.8144006272769637e+00 3.0813753194048088e+00 1.0990610241540084e+01 
141 1 2 9.9999999999866376e-03 -7.1077417248459840e-02 1.0000000000000000e+00 9.5008738079140489e+00 2.6053794982302789e+00 1.0897464337608069e+01 
134 1 2 9.9999999999727356e-03 -5.9649627601469302e-02 1.0000000000000000e+00 1.0142913342657319e+01 2.5863169329746079e+00 1.2649827118772233e+01 
133 1 2 9.9999999999492301e-03 7.4822516482005141e-01 1.0000000000000000e+00 1.0924051979671820e+01 2.1085850471404251e+00 1.0811611840226799e+01 
197 1 2 9.9999999999873471e-03 -6.0529034440059311e-02 1.0000000000000000e+00 1.1853369634194143e+01 1.7956751572131553e+00 1.0717127130806130e+01 
198 1 2 9.9999999999931775e-03 -6.3605778216468947e-03 1.0000000000000000e+00 1.1737132931514060e+01 1.7603635241830782e+00 1.1606122156311510e+01 
205 1 2 9.9999999999988379e-03 -6.6793613427296450e-02 1.0000000000000000e+00 1.2882230603686587e+01 2.3725893626314654e+00 1.1254752373229548e+01 
261 1 2 9.9999999999848422e-03 -1.6931213744127629e-01 1.0000000000000000e+00 1.2654682932458389e+01 1.9565314698514569e+00 1.0722168787020433e+01 
269 1 2 1.0000000000061935e-02 -2.6735281612391248e-01 1.0000000000000000e+00 1.3224790673254832e+01 3.2453737051817013e+00 1.0065211343541971e+01 
262 1 2 1.0000000000000309e-02 -1.9383601443058240e-01 1.0000000000000000e+00 1.2643250833552106e+01 2.0221339616008760e+00 1.1740075251771172e+01 
326 1 2 9.9999999999917412e-03 2.9641025083050548e-01 1.0000000000000000e+00 1.2293083865737952e+01 1.8306837932862570e+00 1.2120877130761283e+01 
334 1 2 1.0000000000065734e-02 -2.5800884284243941e-01 1.0000000000000000e+00 1.2850178711100458e+01 2.6713527152767900e+00 1.2349268973081477e+01 
325 1 2 1.0000000000006094e-02 -1.2571344989757519e-01 1.0000000000000000e+00 1.2902890761080476e+01 2.1180991816305417e+00 1.0301483318349904e+01 
263 1 2 1.0000000000001641e-02 9.2768119044894792e-02 1.0000000000000000e+00 1.2104321236417746e+01 1.9409751242582358e+00 1.3222644930225410e+01 
77 1 2 1.0000000000097677e-02 -2.6287889744281739e-01 1.0000000000000000e+00 8.4396377190471679e+00 4.0382947680209966e+00 1.0581414786405663e+01 
85 1 2 9.9999999999003403e-03 -1.7187024040283647e-01 1.0000000000000000e+00 8.6598739981439525e+00 5.9150446298398434e+00 1.0723889007364344e+01 
86 1 2 9.9999999996017181e-03 -2.5207099048524539e-01 1.0000000000000000e+00 9.1513579663054436e+00 5.8172381167388361e+00 1.1406787871753460e+01 
14 1 2 1.0000000000059883e-02 -2.1825824166583380e-01 1.0000000000000000e+00 8.6064906778605099e+00 4.2557432718646728e+00 1.2536881538599772e+01 
78 1 2 1.0000000000051853e-02 -2.3297055757915031e-01 1.0000000000000000e+00 8.6020846597293108e+00 4.3671075139038846e+00 1.2552274189850467e+01 
149 1 2 1.0000000000023735e-02 -8.8859044914519889e-02 1.0000000000000000e+00 9.7323607620216031e+00 6.5740843117752208e+00 1.0873988469730344e+01 
23 1 2 9.9999999999728396e-03 -4.4565921534284830e-01 1.0000000000000000e+00 9.0143758715419509e+00 6.0730813310916218e+00 1.3118485306490967e+01 
142 1 2 1.0000000000094328e-02 -1.6221648539324340e-01 1.0000000000000000e+00 1.0012661751608162e+01 4.4759288727237507e+00 1.1876144237089706e+01 
206 1 2 9.9999999999430926e-03 -1.2947422141035073e-01 1.0000000000000000e+00 1.1504401401649037e+01 4.1114703241472732e+00 1.2647695996278587e+01 
270 1 2 9.9999999999455351e-03 -1.2203251566646008e-01 1.0000000000000000e+00 1.2510196398304988e+01 4.3179295096425054e+00 1.3002201516343094e+01 
215 1 2 1.0000000000108400e-02 -1.5427619683062291e-01 1.0000000000000000e+00 1.2327929609938932e+01 5.3563724848304677e+00 1.3104552239374712e+01 
93 1 2 9.9999999999503507e-03 -2.1780547261511957e-01 1.0000000000000000e+00 8.6789079838104985e+00 7.7283949320307146e+00 1.0875098794023616e+01 
94 1 2 9.9999999999578482e-03 -2.0650195837880619e-01 1.0000000000000000e+00 8.5793524025287038e+00 9.0593258553951479e+00 1.1084338015829809e+01 
37 1 2 9.9999999999819313e-03 -2.7970855814649564e-01 1.0000000000000000e+00 8.5712561795691951e+00 9.6116599616086464e+00 1.0138116897968182e+01 
30 1 2 9.9999999999379873e-03 -3.1331376374335629e-01 1.0000000000000000e+00 8.7018716614695126e+00 9.2110989746263492e+00 1.1822845617545171e+01 
22 1 2 1.0000000000513702e-02 -3.5467287668028552e-01 1.0000000000000000e+00 9.1723228715829865e+00 6.9333719003309264e+00 1.1337590843391009e+01 
150 1 2 1.0000000000024333e-02 -1.0009293359480304e-01 1.0000000000000000e+00 9.4763938181282601e+00 6.9875518720258967e+00 1.1284444487901276e+01 
158 1 2 9.9999999997409054e-03 -4.9604843794969496e-02 1.0000000000000000e+00 9.8801644708268572e+00 9.3390631991072244e+00 1.1874163142567003e+01 
157 1 2 9.9999999997096127e-03 -8.0802907827218301e-02 1.0000000000000000e+00 1.0375575814914839e+01 7.8782747982013985e+00 1.0110770179011022e+01 
214 1 2 9.9999999999227564e-03 -2.1721310541608158e-02 1.0000000000000000e+00 1.2352933290310141e+01 6.7412949951783370e+00 1.1906713101331100e+01 
294 1 2 1.0000000000067325e-02 8.6344132916747141e-02 1.0000000000000000e+00 1.3313799573996336e+01 8.6591195390899500e+00 1.0994142304924580e+01 
222 1 2 9.9999999999006196e-03 -6.0286554413356203e-02 1.0000000000000000e+00 1.2118968092312384e+01 7.0823310087278690e+00 1.2424550507351354e+01 
287 1 2 1.0000000000071519e-02 -5.9202210700164314e-02 1.0000000000000000e+00 1.3261667263542279e+01 7.9253829731238703e+00 1.3106157504602400e+01 
135 1 2 9.9999999999897914e-03 -7.6380680197140713e-02 1.0000000000000000e+00 1.0715546322890530e+01 2.3401684968772352e+00 1.3824986789222850e+01 
199 1 2 1.0000000000015156e-02 -3.6822767713265286e-02 1.0000000000000000e+00 1.1065209967605501e+01 2.5474126863651660e+00 1.5015600158579845e+01 
200 1 2 1.0000000000025846e-02 2.6737635648877267e-01 1.0000000000000000e+00 1.1537989790343921e+01 2.8615346901940995e+00 1.5475081684025552e+01 
264 1 2 1.0000000000018036e-02 8.2631947390015015e-01 1.0000000000000000e+00 1.1852939395101060e+01 2.4626451867900623e+00 1.5096857118120456e+01 
328 1 2 1.0000000000017483e-02 1.1112340845314252e+00 1.0000000000000000e+00 1.2109284182190780e+01 2.4078264991037086e+00 1.4917109350832494e+01 
327 1 2 1.0000000000013068e-02 1.2295640874185170e-02 1.0000000000000000e+00 1.2338810877574364e+01 2.0501107714783178e+00 1.3414308933090084e+01 
271 1 2 9.9999999999971795e-03 -7.2205044670913876e-02 1.0000000000000000e+00 1.3071293491094277e+01 3.1623706686791802e+00 1.4171413091246972e+01 
71 1 2 9.9999999999590278e-03 3.1951478571457692e-02 1.0000000000000000e+00 9.3419196781692051e+00 3.5923956194454809e+00 1.4107203327979468e+01 
7 1 2 9.9999999999443780e-03 7.1911827353926566e-02 1.0000000000000000e+00 8.9887547762286033e+00 3.9421465910498106e+00 1.3842731560888756e+01 
79 1 2 9.9999999999838985e-03 -1.7349795968398682e-01 1.0000000000000000e+00 8.8590952781632328e+00 4.0404750369349935e+00 1.3636010651335777e+01 
87 1 2 9.9999999999786319e-03 -1.5415622630386150e-01 1.0000000000000000e+00 9.2320935697437392e+00 6.5320948903907396e+00 1.4351672141849120e+01 
15 1 2 1.0000000000032346e-02 -9.6757415079575082e-02 1.0000000000000000e+00 9.1902410577268991e+00 4.6064302855741133e+00 1.4415053205804863e+01 
88 1 2 1.0000000000020453e-02 -2.5255828952483753e-02 1.0000000000000000e+00 9.6175393885990257e+00 6.5054409363085268e+00 1.4691530560190410e+01 
16 1 2 1.0000000000034086e-02 1.9341266813503880e-01 1.0000000000000000e+00 9.3608541687056661e+00 4.6668286153255982e+00 1.4574829250404607e+01 
143 1 2 1.0000000000048822e-02 -8.4500014116220046e-02 1.0000000000000000e+00 9.1328771969396723e+00 4.8325585347839484e+00 1.4357311033295908e+01 
272 1 2 9.9999999999787481e-03 5.1590121039009795e-01 1.0000000000000000e+00 1.1751969481547560e+01 3.4727787245768265e+00 1.5670658430828786e+01 
207 1 2 9.9999999999780872e-03 -1.2362131426082801e-01 1.0000000000000000e+00 1.3115766433714937e+01 3.6668029095051589e+00 1.4500895627811321e+01 
279 1 2 1.0000000000015680e-02 -1.8965967235654857e-01 1.0000000000000000e+00 1.3094778172148558e+01 5.4004032488346416e+00 1.3997688696305891e+01 
208 1 2 9.9999999999861814e-03 2.8302580783673686e-01 1.0000000000000000e+00 1.1416071367798700e+01 3.8528840069843753e+00 1.5641554246963489e+01 
344 1 2 9.9999999999823251e-03 -5.0099934825631479e-02 1.0000000000000000e+00 1.2760113192157737e+01 5.8062203183457939e+00 1.4625447873029715e+01 
335 1 2 9.9999999999701040e-03 -1.0971785686128688e-01 1.0000000000000000e+00 1.3075093288558595e+01 4.8533923754444386e+00 1.4244397462689310e+01 
336 1 2 9.9999999999775321e-03 3.2695537027538132e-03 1.0000000000000000e+00 1.2901938276053720e+01 4.7632421542804826e+00 1.4770894379306924e+01 
144 1 2 9.9999999999749907e-03 1.4119979081064533e+00 1.0000000000000000e+00 1.1263901624053775e+01 3.7839469508252748e+00 1.5622719288731739e+01 
152 1 2 9.9999999999779449e-03 1.9731650356518045e+00 1.0000000000000000e+00 1.1296260972047994e+01 3.8174099409132265e+00 1.5625971869968176e+01 
343 1 2 1.0000000000004292e-02 -1.3790982422409390e-01 1.0000000000000000e+00 1.3299469482413029e+01 6.3067359373785257e+00 1.3772361531225622e+01 
95 1 2 9.9999999999947822e-03 -1.7445288896925293e-01 1.0000000000000000e+00 9.2501529294767408e+00 8.3524386401319681e+00 1.4304121388295552e+01 
31 1 2 1.0000000000150382e-02 -3.4335990626055074e-01 1.0000000000000000e+00 9.0735035985255568e+00 8.7783678717768581e+00 1.3884714657889246e+01 
96 1 2 9.9999999999737486e-03 6.1284604703015458e-02 1.0000000000000000e+00 9.7500724297591663e+00 8.2714748538352616e+00 1.4750621558118294e+01 
24 1 2 1.0000000000000304e-02 1.8220599739507879e-02 1.0000000000000000e+00 9.4449755747557589e+00 6.9854961929695509e+00 1.4608766725603955e+01 
32 1 2 9.9999999999823026e-03 1.8879507314972099e-01 1.0000000000000000e+00 9.4918316599164321e+00 8.5492897148394498e+00 1.4560870660947947e+01 
159 1 2 1.0000000000066411e-02 -1.1248048791022533e-01 1.0000000000000000e+00 9.0676062301239373e+00 8.3837176778937739e+00 1.3627216382600215e+01 
151 1 2 9.9999999999995405e-03 -3.2161069943796840e-02 1.0000000000000000e+00 9.4248300496378974e+00 6.8468509865428953e+00 1.4583150982462241e+01 
223 1 2 9.9999999999399476e-03 -4.1865097945596258e-02 1.0000000000000000e+00 1.2595647939341516e+01 8.3965880327553091e+00 1.4190885229718319e+01 
216 1 2 1.0000000000071492e-02 1.2880502923737528e-02 1.0000000000000000e+00 1.1908816116890641e+01 6.8332748826389134e+00 1.4873366700011896e+01 
280 1 2 9.9999999999982481e-03 -2.3940224998582914e-02 1.0000000000000000e+00 1.2358526001712955e+01 6.9692988167209071e+00 1.4725828940213328e+01 
224 1 2 9.9999999999990478e-03 1.6330359412056658e-01 1.0000000000000000e+00 1.1587156644795725e+01 7.9719274783593885e+00 1.4798646876269459e+01 
288 1 2 9.9999999999899961e-03 2.0877877131858041e-01 1.0000000000000000e+00 1.2122601904286403e+01 7.6687124000384834e+00 1.4705427043447546e+01 
160 1 2 9.9999999999675505e-03 4.6937738325284684e-01 1.0000000000000000e+00 1.1003387405080529e+01 7.3768954215093876e+00 1.4961981716740766e+01 
352 1 2 1.0000000000059388e-02 2.5431586147807717e-01 1.0000000000000000e+00 1.2583511656356642e+01 9.0728945177102602e+00 1.4037086699516079e+01 
161 1 2 1.0000000000010431e-02 1.3765371488911045e+00 1.0000000000000000e+00 1.0779611062937285e+01 1.2857696090025815e+01 3.3135454363429204e+00 
169 1 2 1.0000000000010589e-02 7.5113258423849627e-01 1.0000000000000000e+00 1.0613091023895610e+01 1.3521312909730035e+01 3.3138875751008698e+00 
233 1 2 9.9999999999989646e-03 -1.7021730158109375e-02 1.0000000000000000e+00 1.1336957852643376e+01 1.3888356018769739e+01 3.2051638520168400e+00 
121 1 2 1.0000000000004911e-02 2.4681866877546094e-01 1.0000000000000000e+00 1.0301755691374566e+01 1.9752804198074113e+01 3.2459200142991480e+00 
105 1 2 1.0000000000010716e-02 5.3039279794380667e-01 1.0000000000000000e+00 9.7072432482780062e+00 1.2488015107347495e+01 4.0348833891593419e+00 
33 1 2 1.0000000000007557e-02 7.8150180080021481e-01 1.0000000000000000e+00 9.6035017441363255e+00 1.2160870598390680e+01 4.3108338868330156e+00 
106 1 2 9.9999999999959704e-03 8.9362871011353318e-02 1.0000000000000000e+00 9.1878087621365800e+00 1.2451713310968808e+01 5.0118241034877924e+00 
98 1 2 1.0000000000004143e-02 1.4776269226286673e-01 1.0000000000000000e+00 9.6032791252807410e+00 1.1334452264929791e+01 5.5732883857456166e+00 
99 1 2 1.0000000000049244e-02 2.6920523439201038e-02 1.0000000000000000e+00 9.8723533577684819e+00 1.0810676539284708e+01 6.1785280911869789e+00 
34 1 2 9.9999999999404315e-03 -1.4872013609774203e-02 1.0000000000000000e+00 9.2392809522759958e+00 1.1955595577792065e+01 5.4483887988928421e+00 
42 1 2 9.9999999999218631e-03 2.0162617016964646e-02 1.0000000000000000e+00 9.1585535590147877e+00 1.2440588684884178e+01 5.2231417411711085e+00 
35 1 2 9.9999999999207702e-03 3.4002170275935370e-02 1.0000000000000000e+00 9.2748485657047581e+00 1.1902975647688868e+01 5.6926727465394480e+00 
162 1 2 1.0000000000017021e-02 8.5402385826077759e-02 1.0000000000000000e+00 9.7572730419302083e+00 1.1255046430334071e+01 5.3851788532665763e+00 
225 1 2 1.0000000000003843e-02 3.6607128132209193e-01 1.0000000000000000e+00 1.1231581050845849e+01 1.2721703324640288e+01 3.3827763820747534e+00 
353 1 2 9.9999999999780854e-03 3.6641332357411971e-01 1.0000000000000000e+00 1.2202921428007746e+01 1.3231704124546512e+01 3.7437095421130477e+00 
289 1 2 9.9999999999725708e-03 2.3987521471485355e-02 1.0000000000000000e+00 1.2111480906926728e+01 1.3030376331732608e+01 3.7913589985476079e+00 