LAMMPS data file via write_data, version 30 Jul 2016, timestep = 50400000

1520 atoms
8 atom types

0.0000000000000000e+00 4.0000000000000000e+01 xlo xhi
0.0000000000000000e+00 4.0000000000000000e+01 ylo yhi
0.0000000000000000e+00 1.0000000000000000e+02 zlo zhi

Masses

1 3.896
2 5.36
3 20.064
4 8.378
5 8.378
6 8.378
7 8.378
8 8.378

Atoms # meso-molecular

1419 1420 2 1.0279999963528863e+00 -6.2470245038472422e+03 1.0000000000000000e+00 3.8835582964591309e+00 5.6062315801558809e+00 1.0898192583278190e+00 
812 813 2 1.0279999970341687e+00 -1.8255221945042381e+03 1.0000000000000000e+00 4.0535781479544211e+00 5.8050283352553587e+00 9.4747715569751978e-01 
351 352 2 1.0279999959434873e+00 -6.7672596366899234e+03 1.0000000000000000e+00 3.0534705110023125e-01 1.2511546878762937e+01 8.8432601617513970e-02 
619 620 2 1.0280000051954972e+00 -5.6318025522621501e+03 1.0000000000000000e+00 1.5403974941650578e+00 1.3234383837700076e+01 1.0484711377286027e+00 
740 741 2 1.0280000040194923e+00 6.9506965714894022e+02 1.0000000000000000e+00 2.4467880640243558e+00 1.2746220291186773e+01 1.9047459739387238e+00 
923 924 2 1.0279999943253688e+00 -4.7146839261917576e+03 1.0000000000000000e+00 7.0353217252626159e+00 1.2463903595323716e+01 1.1797188216738761e+00 
146 147 2 1.0280000145122037e+00 1.3732271270023775e+03 1.0000000000000000e+00 6.2387075643990970e+00 1.3160362807418998e+01 1.6514326619789592e+00 
542 543 2 1.0279999924494734e+00 3.3058321423066712e+02 1.0000000000000000e+00 8.0594554597384374e+00 1.3809796388490337e+01 1.1202350551785727e+00 
1111 1112 2 1.0279999263877821e+00 -6.0918374826769423e+03 1.0000000000000000e+00 1.6038669389292974e+00 1.4112659862636143e+01 8.4595971571278239e-02 
1032 1033 2 1.0280000208812901e+00 2.5261022099383054e+03 1.0000000000000000e+00 6.1764343124037480e-01 1.5172400124630244e+01 1.6304459944423064e+00 
558 559 2 1.0280000229948065e+00 -6.4603188225538486e+02 1.0000000000000000e+00 2.2130116419498669e+00 1.4765673664187828e+01 1.7840164811488797e+00 
676 677 2 1.0279999981457042e+00 3.8814047925840322e+02 1.0000000000000000e+00 7.0052017295091140e+00 1.4078115468724901e+01 1.0306435413893185e+00 
874 875 2 1.0280000442331221e+00 -1.5994224616018632e+03 1.0000000000000000e+00 9.1014060098269027e+00 1.5535921533697856e+01 9.5765190352837148e-01 
729 730 2 1.0279999978974703e+00 -3.4838975031553573e+03 1.0000000000000000e+00 9.1770956989229333e+00 1.5621222215517742e+01 1.0563702263285002e+00 
496 497 2 1.0279999138118274e+00 8.0624572948377872e+03 1.0000000000000000e+00 7.9378156986482762e-02 1.6207286824711467e+01 1.5626317961778597e+00 
829 830 2 1.0280000033246079e+00 8.9012092025819049e+02 1.0000000000000000e+00 4.5439858485298652e+00 5.9464217733981961e+00 2.1646627969200365e+00 
925 926 2 1.0279999993593774e+00 6.5345290508565831e+03 1.0000000000000000e+00 4.8772734101903756e+00 7.1798454032741379e+00 2.6977781303145254e+00 
1486 1487 2 1.0279999938468349e+00 -5.2763672790366199e+03 1.0000000000000000e+00 5.0697028550850574e+00 7.4457041994177189e+00 3.0219634047774888e+00 
367 368 2 1.0279999807521538e+00 -4.6152598547038033e+03 1.0000000000000000e+00 3.0046218306899943e+00 1.2776035752312561e+01 2.6344577177589441e+00 
1396 1397 2 1.0280000185430651e+00 3.0065457422828545e+03 1.0000000000000000e+00 4.5754284598457566e+00 1.3659711140935833e+01 2.5677440653303290e+00 
1366 1367 2 1.0280000166706491e+00 1.3562177470602082e+03 1.0000000000000000e+00 4.5621371109243993e+00 1.3666621775305966e+01 2.5914847400113499e+00 
303 304 2 1.0280000036697334e+00 1.0483291570418130e+03 1.0000000000000000e+00 7.9064382618332729e+00 1.2863161701713128e+01 2.3323126862142662e+00 
533 534 2 1.0279999944944771e+00 8.5979156822149544e+03 1.0000000000000000e+00 9.4062111221318574e+00 1.3230532940939344e+01 2.8002715136880583e+00 
693 694 2 1.0279999982884331e+00 2.2485405727280570e+02 1.0000000000000000e+00 9.3499424945018248e+00 1.3177121471257523e+01 2.8140744602752106e+00 
638 639 2 1.0279999499010311e+00 3.1955210148341794e+03 1.0000000000000000e+00 6.1131886288072035e-01 1.4294017444417966e+01 3.2089191938992569e+00 
559 560 2 1.0280000066948771e+00 -6.0104611464096456e+02 1.0000000000000000e+00 2.8423719572802928e+00 1.4472635035398906e+01 2.2475460388869171e+00 
934 935 2 1.0279999931423605e+00 -1.0621099606143433e+02 1.0000000000000000e+00 1.0079511415978518e+01 1.5171286036614573e+01 2.1489674410187560e+00 
749 750 2 1.0280000086281675e+00 3.4206253094678000e+03 1.0000000000000000e+00 1.1299679792732457e+01 1.4433263165253361e+01 2.2407277301637900e+00 
361 362 2 1.0280000083391470e+00 6.4728215414933857e+02 1.0000000000000000e+00 1.1294849421517913e+01 1.4414495979506579e+01 2.2431710220138661e+00 
799 800 2 1.0279999819906189e+00 -1.5384544122015652e+03 1.0000000000000000e+00 1.6569398168591043e-01 1.7238890865940764e+01 3.1128747024163785e+00 
1099 1100 2 1.0280000010645955e+00 -5.3237222923796617e+03 1.0000000000000000e+00 5.2708795395250139e+00 6.1024588516855864e+00 4.8261813454107516e+00 
452 453 2 1.0280000020190119e+00 4.0826752169102093e+02 1.0000000000000000e+00 5.2080602970542476e+00 6.0489755437789672e+00 5.1206131029291688e+00 
499 500 2 1.0279999993511870e+00 2.9806497258298004e+03 1.0000000000000000e+00 5.9753856287545100e+00 7.9653249853043633e+00 4.4060856193566025e+00 
535 536 2 1.0280000030960554e+00 -1.8093244412612055e+03 1.0000000000000000e+00 6.3277207011366441e+00 7.7371674971901188e+00 4.5711991558808007e+00 
697 698 2 1.0280000400080047e+00 2.3548553837486020e+03 1.0000000000000000e+00 2.4234570837141427e+00 1.1644404618290963e+01 4.9290498271002523e+00 
1112 1113 2 1.0279999981102550e+00 1.5135808191557303e+03 1.0000000000000000e+00 2.1445540267713197e+00 1.1140112315078841e+01 5.8270721287663205e+00 
1021 1022 2 1.0280000416368098e+00 9.1387708614198145e+03 1.0000000000000000e+00 9.3570971483900123e-01 1.2738137008786401e+01 4.3551358127836766e+00 
415 416 2 1.0279999755791491e+00 -4.7604424205532323e+03 1.0000000000000000e+00 1.9395995462598263e+00 1.2650231975829350e+01 4.2129597900356250e+00 
35 36 2 1.0280000018861231e+00 -5.6760484962242717e+03 1.0000000000000000e+00 1.3754604145280429e+00 1.4632352617156158e+01 4.7839151780573408e+00 
1403 1404 2 1.0280000022443103e+00 -5.7887370666632069e+03 1.0000000000000000e+00 1.3764902472352238e+00 1.4630231998864591e+01 4.7862078565380113e+00 
1142 1143 2 1.0279999613337951e+00 -7.0422871389771335e+03 1.0000000000000000e+00 4.2803369974701366e-01 1.6964765446773150e+01 5.0279967620083017e+00 
993 994 2 1.0279999943245282e+00 1.2980244810120324e+04 1.0000000000000000e+00 5.7668294423613498e+00 7.3806409098882364e+00 6.3653293080756148e+00 
1103 1104 2 1.0279999967156812e+00 -4.6191467807984091e+03 1.0000000000000000e+00 6.1752983843684008e+00 6.8010372101974772e+00 6.3583523089550855e+00 
1308 1309 2 1.0280000011688806e+00 1.5536055911954584e+03 1.0000000000000000e+00 7.3892687673002362e+00 8.1926222573501839e+00 7.0966934719688783e+00 
1260 1261 2 1.0279999996434352e+00 -2.4297121401144987e+03 1.0000000000000000e+00 8.1093432769887794e+00 9.2293137873606810e+00 6.6180419927916594e+00 
1084 1085 2 1.0279999995655731e+00 -8.5776117534608647e+02 1.0000000000000000e+00 8.1054577853670313e+00 9.2504679565567205e+00 6.6599202338952859e+00 
1255 1256 2 1.0279999363850365e+00 1.7578092165775849e+03 1.0000000000000000e+00 1.5386015116573128e+00 1.1471250516094750e+01 6.2042465897095971e+00 
1313 1314 2 1.0280000014976900e+00 -5.8946522933708354e+02 1.0000000000000000e+00 2.0583880269402124e-01 1.2387462310914566e+01 6.4430427617306600e+00 
1207 1208 2 1.0279999921070373e+00 -3.7371521710468678e+03 1.0000000000000000e+00 4.2923069429171962e-01 1.3234580149530094e+01 7.3714330905496777e+00 
70 71 2 1.0280000092847457e+00 -9.7022738593091653e+03 1.0000000000000000e+00 2.1516803664053636e+00 1.5438298283231276e+01 6.8645716970254025e+00 
472 473 2 1.0280000047200928e+00 6.2712940198796587e+03 1.0000000000000000e+00 2.2465443808922942e+00 1.5344294342452528e+01 6.9048097082523352e+00 
1 2 2 1.0279999903164510e+00 -9.1911655341061305e+03 1.0000000000000000e+00 6.0352387994351908e-01 1.9377141345666775e+01 6.3437397039743599e+00 
1373 1374 2 1.0279999895840735e+00 2.3042303127756486e+03 1.0000000000000000e+00 5.9202064329321802e-01 1.9375968938097767e+01 6.3471517334752523e+00 
519 520 2 1.0280000018183133e+00 3.1167095516690438e+02 1.0000000000000000e+00 6.5034977817635928e+00 7.6193247016951533e+00 8.2434420769119132e+00 
1375 1376 2 1.0280000195905468e+00 1.2406406034646707e+03 1.0000000000000000e+00 1.0726806430167053e+00 9.0830258606862664e+00 9.0902586655255355e+00 
1081 1082 2 1.0280000060235506e+00 -9.4309444124923243e+02 1.0000000000000000e+00 2.7414635259694293e+00 9.1503622562961304e+00 8.8836502900817340e+00 
1298 1299 2 1.0280000371474955e+00 2.0346112554891261e+03 1.0000000000000000e+00 3.0954028779482292e+00 9.4495920495928729e+00 9.1968559338479423e+00 
1258 1259 2 1.0280000122251833e+00 5.5986873107255212e+02 1.0000000000000000e+00 5.0058584366097287e+00 8.8908295238343324e+00 8.3751755839228323e+00 
995 996 2 1.0280000183339899e+00 -1.9010113631985934e+02 1.0000000000000000e+00 5.0587900529011911e+00 9.0192758372942698e+00 8.6404452713288808e+00 
245 246 2 1.0280000031832097e+00 5.6322015040507085e+02 1.0000000000000000e+00 6.3581918927811882e+00 8.1124998071057082e+00 8.7833497399491929e+00 
1374 1375 2 1.0279999642221538e+00 1.3357856003855829e+03 1.0000000000000000e+00 1.4112982303285118e+00 1.0158158937658071e+01 8.9245607721091478e+00 
1273 1274 2 1.0280000351036482e+00 7.8136942653360990e+01 1.0000000000000000e+00 1.3966934142877612e+00 1.2544220448721880e+01 8.3443874708102221e+00 
568 569 2 1.0280000290550844e+00 9.3774216288556963e+03 1.0000000000000000e+00 1.6954865993967685e+00 1.2154562829532862e+01 8.7074042123315980e+00 
341 342 2 1.0279999892875260e+00 3.5809095883718551e+03 1.0000000000000000e+00 9.1245639100393394e-01 1.5758904368927821e+01 8.0126694290930089e+00 
1204 1205 2 1.0279999864571687e+00 7.0808115329622342e+03 1.0000000000000000e+00 5.0411613600896465e-01 1.5596119657300095e+01 9.7639700637929625e+00 
994 995 2 1.0280000031381580e+00 3.2463203075011620e+02 1.0000000000000000e+00 2.3956874772201493e+00 1.5011800913778782e+01 8.7632069081513357e+00 
163 164 2 1.0279999977734737e+00 6.3719268052888742e+02 1.0000000000000000e+00 2.1858528086912683e+00 1.5038450050016049e+01 8.9609842262033705e+00 
1402 1403 2 1.0280000118118577e+00 -5.7336813807693170e+03 1.0000000000000000e+00 6.9450187571223598e-01 1.7289973067946939e+01 8.8054242641984235e+00 
22 23 2 1.0280000049179867e+00 -6.5679418876631144e+03 1.0000000000000000e+00 2.7932728677621839e+00 1.1254484207488424e+01 9.8347334846547092e+00 
1424 1425 2 1.0279999996384590e+00 4.6579953521095049e+03 1.0000000000000000e+00 2.6625417835653162e+00 1.1393177827035114e+01 9.8714763991522911e+00 
358 359 2 1.0279999939134692e+00 -5.7427599076079978e+03 1.0000000000000000e+00 3.5613864778325482e-01 1.7709123540342361e+01 9.8240976697176556e+00 
1469 1470 2 1.0280000000441729e+00 4.4786449353242297e+03 1.0000000000000000e+00 1.9174055396277201e+00 9.9196232491620666e+00 5.4375182091614953e+01 
645 646 2 1.0280000001832781e+00 3.0411516204088975e+03 1.0000000000000000e+00 1.3278065891931967e+00 1.1415688387119685e+01 5.3547653729754636e+01 
976 977 2 1.0280000001832901e+00 1.0407726157011633e+04 1.0000000000000000e+00 1.3277853344242714e+00 1.1415939698673801e+01 5.3547861069591619e+01 
1472 1473 2 1.0279999999851481e+00 4.4786022979269173e+03 1.0000000000000000e+00 3.3751089143201947e+00 1.0305889815378821e+01 5.4490656500841055e+01 
1474 1475 2 1.0280000000362581e+00 -5.7444839381086276e+03 1.0000000000000000e+00 3.3914905404529438e+00 1.0396169822483195e+01 5.4618700961193547e+01 
1475 1476 2 1.0279999995472111e+00 -5.7472521966563509e+03 1.0000000000000000e+00 1.4173370673105430e+00 1.0779145035762840e+01 5.5138555326911586e+01 
522 523 2 1.0280000001232119e+00 7.8102688669527697e+02 1.0000000000000000e+00 2.4017511605379513e+00 1.0584594560355599e+01 5.6625229547260162e+01 
1022 1023 2 1.0280000002411995e+00 2.7210401469768340e+03 1.0000000000000000e+00 2.2784688431353479e+00 1.0725151622969731e+01 5.6780694368879374e+01 
103 104 2 1.0280000000492246e+00 -6.3157645769923201e+03 1.0000000000000000e+00 3.6368755713985603e+00 1.0295635526713889e+01 5.8303472257954922e+01 
336 337 2 1.0280000002071787e+00 -1.6387138371553606e+03 1.0000000000000000e+00 4.7270994965935893e+00 1.1551206296900920e+01 5.8017089240127262e+01 
1077 1078 2 1.0280000001231626e+00 7.0769291758660966e+03 1.0000000000000000e+00 4.1268055882709644e+00 1.0319238129850620e+01 5.8357275423510110e+01 
450 451 2 1.0279999996470488e+00 4.0869808249129678e+03 1.0000000000000000e+00 1.8516234522490214e+00 1.2925578146417330e+01 5.8162962824064913e+01 
1279 1280 2 1.0280000000499527e+00 8.2750211195825432e+02 1.0000000000000000e+00 9.9795596198001357e-01 1.2318632642923944e+01 5.8281484328852159e+01 
1481 1482 2 1.0280000000824536e+00 3.7038852547826682e+03 1.0000000000000000e+00 2.2866364321938808e+00 1.2711601554321085e+01 5.7411466513036061e+01 
119 120 2 1.0279999992660451e+00 -5.9962901190890025e+03 1.0000000000000000e+00 3.5262844379527625e+00 1.2011190482191088e+01 5.7645884550445665e+01 
1098 1099 2 1.0279999999146476e+00 -5.3700227140918832e+03 1.0000000000000000e+00 5.2956317848546055e+00 1.2916750645200789e+01 5.7774039770493459e+01 
674 675 2 1.0279999998303930e+00 2.4994302414330366e+02 1.0000000000000000e+00 5.8632900138540718e+00 1.3171914597890567e+01 5.8424636390688576e+01 
124 125 2 1.0280000002035961e+00 5.0598028971998392e+03 1.0000000000000000e+00 4.8502463142837904e+00 1.4695089701919432e+01 5.7905614398660909e+01 
1492 1493 2 1.0280000001792384e+00 5.0634167072046021e+03 1.0000000000000000e+00 4.8603937729321327e+00 1.4711438938700748e+01 5.7907353397426540e+01 
1489 1490 2 1.0279999998204976e+00 5.0562241962013195e+03 1.0000000000000000e+00 6.6510920548159316e+00 1.5678853795671165e+01 5.8211698877528924e+01 
121 122 2 1.0279999999410696e+00 5.0511462392990416e+03 1.0000000000000000e+00 6.7517413401943731e+00 1.5714609828661946e+01 5.8220324006425564e+01 
735 736 2 1.0280000000816936e+00 4.7578723748054051e+02 1.0000000000000000e+00 8.4345129893419575e+00 1.4957696865617228e+01 5.8614178305329773e+01 
728 729 2 1.0280000000716423e+00 -1.7495291353830080e+03 1.0000000000000000e+00 8.4397064681217557e+00 1.4950093675057721e+01 5.8656648159413514e+01 
608 609 2 1.0279999999489671e+00 3.8760519159058795e+03 1.0000000000000000e+00 7.0422927382982232e+00 1.3809063971657610e+01 5.9567805291228382e+01 
1064 1065 2 1.0279999999519944e+00 3.8767474140502336e+03 1.0000000000000000e+00 7.0349251693537846e+00 1.3809728673135169e+01 5.9567665348426353e+01 
1497 1498 2 1.0280000000587455e+00 4.1928756325706981e+03 1.0000000000000000e+00 8.4825192224274537e-02 1.2745934491144550e+00 6.7559721689393854e+01 
373 374 2 1.0280000001413288e+00 -2.1047916842605164e+03 1.0000000000000000e+00 6.0153619127682256e-01 6.4252119704484689e-01 6.7979123745774459e+01 
1030 1031 2 1.0279999998789564e+00 1.3813126764907788e+03 1.0000000000000000e+00 2.6354309409268053e+00 1.4202956320040956e+00 6.7267577964855590e+01 
574 575 2 1.0279999998653124e+00 1.3335308369441623e+03 1.0000000000000000e+00 1.9658378487947921e+00 2.1559530952969772e+00 6.7971064271667444e+01 
149 150 2 1.0280000001657377e+00 -9.3467133655277103e+03 1.0000000000000000e+00 2.5199831728774780e+00 2.0394367208527111e+00 6.7049724397936259e+01 
1233 1234 2 1.0280000001717680e+00 -5.2826142054323850e+02 1.0000000000000000e+00 1.2426730416075280e+00 7.7491662494772651e-01 6.8924486049363352e+01 
828 829 2 1.0280000003824898e+00 6.9230364358687291e+02 1.0000000000000000e+00 2.4860227125834258e+00 4.9243813379236312e-01 6.9358745446842875e+01 
127 128 2 1.0279999996674511e+00 -1.1132787126626736e+04 1.0000000000000000e+00 2.9553875765434245e+00 3.6758136544584163e-01 7.0135050628275977e+01 
628 629 2 1.0280000002552723e+00 -1.4648696748146644e+03 1.0000000000000000e+00 2.6152084750552329e-01 4.0593256636773294e+00 7.0581162580546277e+01 
625 626 2 1.0280000002605683e+00 -1.4824810127346527e+03 1.0000000000000000e+00 2.6208662279267331e-01 4.0639973993758218e+00 7.0583514682423328e+01 
1200 1201 2 1.0280000012494457e+00 -7.7481118744796720e+02 1.0000000000000000e+00 1.0727843743752712e+00 3.2596605439988657e-02 7.4317568673318732e+01 
1414 1415 2 1.0279999999492440e+00 -5.7337109198700327e+03 1.0000000000000000e+00 4.0407901672549110e-02 3.6492617188289644e-01 7.8640355085708208e+01 
873 874 2 1.0279999999845464e+00 1.7432712843089153e+03 1.0000000000000000e+00 1.2717332709583719e+01 1.9102622355023167e+00 8.2486114132458511e+01 
1123 1124 2 1.0279999999666356e+00 -3.6647755414093572e+03 1.0000000000000000e+00 1.3284117930633837e+01 1.7232111305851536e-01 8.2562244828240225e+01 
404 405 2 1.0280000000871483e+00 -1.8123094188259206e+03 1.0000000000000000e+00 1.2925501507146599e+01 1.0173887960910784e+00 8.3362497907903801e+01 
1086 1087 2 1.0279999999700828e+00 -5.2343586232158850e+03 1.0000000000000000e+00 1.3801628652012271e+01 2.8320205712124267e+00 8.2599690139203332e+01 
746 747 2 1.0279999999752081e+00 1.4042795965258160e+03 1.0000000000000000e+00 1.3914004264766936e+01 2.9402123931948116e+00 8.3501616693477985e+01 
1471 1472 2 1.0279999999994880e+00 -5.9546680811935003e+03 1.0000000000000000e+00 1.2778006242524221e+01 2.9258930466200268e+00 8.3699827589448162e+01 
982 983 2 1.0280000000884535e+00 1.3945330407196698e+02 1.0000000000000000e+00 1.1905158041074252e+01 1.6313321333684756e+00 8.5062161797961153e+01 
1164 1165 2 1.0280000000857381e+00 -1.0953768035036583e+03 1.0000000000000000e+00 1.1904690602161434e+01 1.6393407699908311e+00 8.5068519742714059e+01 
1044 1045 2 1.0279999998226552e+00 6.0256165592452926e+03 1.0000000000000000e+00 1.3347410768733598e+01 1.9681825013446745e+00 8.5707891917702071e+01 
1058 1059 2 1.0280000000678675e+00 1.9058627955313153e+02 1.0000000000000000e+00 1.4419709057956711e+01 2.2568915917079946e+00 8.6416563769933518e+01 
1165 1166 2 1.0280000001340304e+00 2.0186831248265771e+03 1.0000000000000000e+00 1.4296709359664289e+01 2.4101525713915888e+00 8.6507264093574889e+01 
424 425 2 1.0279999897909009e+00 1.2100884324383726e+03 1.0000000000000000e+00 1.4236812935808638e+01 1.1812790503940585e+01 9.0123632443891182e+01 
1181 1182 2 1.0280000122864934e+00 1.2626926596373571e+03 1.0000000000000000e+00 1.3989863572585286e+01 1.2179457238751773e+01 8.9462425335474137e+01 
737 738 2 1.0280000009401020e+00 6.8083952790487251e+02 1.0000000000000000e+00 1.5607030706390157e+01 1.2308972141965270e+01 8.9110708103694108e+01 
1358 1359 2 1.0280000012147568e+00 6.1587009163960965e+02 1.0000000000000000e+00 1.5650642567341984e+01 1.2222754897772129e+01 8.9182180807620853e+01 
1041 1042 2 1.0280000115728092e+00 6.0347158564684960e+03 1.0000000000000000e+00 7.3228089720156744e+00 1.4383679268090331e+01 8.8736121225074456e+01 
556 557 2 1.0280000115736743e+00 5.8908882665661113e+03 1.0000000000000000e+00 7.3229204940517576e+00 1.4383564400790082e+01 8.8736153953628090e+01 
136 137 2 1.0279999469118515e+00 -1.9904856943148268e+03 1.0000000000000000e+00 7.6737798694863830e+00 1.5948699493979698e+01 8.9549510408088878e+01 
90 91 2 1.0280000309041917e+00 -9.5133443874026343e+03 1.0000000000000000e+00 5.7900778426379889e+00 1.7067757713768756e+01 8.9418048097706006e+01 
581 582 2 1.0279999522381225e+00 2.1979270738237096e+03 1.0000000000000000e+00 5.2590225710583818e+00 1.7509119832626016e+01 8.9956428773268726e+01 
1105 1106 2 1.0280000019284463e+00 6.6420323536343767e+02 1.0000000000000000e+00 5.4089574177351993e+00 1.8316651388387772e+01 8.8345356049177369e+01 
707 708 2 1.0279999977044605e+00 3.8431133372117165e+03 1.0000000000000000e+00 5.2329418788517970e+00 1.8585698568545908e+01 8.8492677294374133e+01 
1304 1305 2 1.0279999998556471e+00 -1.4441100301299323e+02 1.0000000000000000e+00 1.1904914467315688e+01 5.9110444028503455e+00 9.1610223768370290e+01 
218 219 2 1.0280000010640629e+00 2.7628315634327500e+03 1.0000000000000000e+00 1.2150187415131564e+01 5.7586764138455333e+00 9.1608177215585656e+01 
54 55 2 1.0279999958596271e+00 -7.2642856770145036e+03 1.0000000000000000e+00 1.3516545454581919e+01 6.5654006557090598e+00 9.1333131905174838e+01 
1160 1161 2 1.0280000010902968e+00 2.8631990430532392e+02 1.0000000000000000e+00 1.4782087162765734e+01 7.0236172039503364e+00 9.0293370452239841e+01 
505 506 2 1.0280000014610862e+00 5.6621390258302399e+03 1.0000000000000000e+00 1.4316394614977044e+01 6.3072220588045873e+00 9.0724215839910812e+01 
1346 1347 2 1.0279999979766687e+00 2.7385073223491045e+03 1.0000000000000000e+00 1.4790708312689430e+01 8.1503021663960755e+00 9.0803348957481134e+01 
451 452 2 1.0279999990463198e+00 4.3704759457618966e+03 1.0000000000000000e+00 1.5063832660942609e+01 8.6154937832425169e+00 9.1643634177517271e+01 
157 158 2 1.0279999524435131e+00 1.9810533449723928e+03 1.0000000000000000e+00 1.3193296378291688e+01 1.0953727383283594e+01 9.1935944248019140e+01 
658 659 2 1.0280000611222022e+00 -1.5406816682303172e+03 1.0000000000000000e+00 1.2883264033885215e+01 1.1008948914678701e+01 9.2008419864514167e+01 
1320 1321 2 1.0280000209175770e+00 8.0924932344873628e+02 1.0000000000000000e+00 1.1675624488251634e+01 1.3134334471558020e+01 9.0996302974773172e+01 
260 261 2 1.0280000100613760e+00 -1.6625848254441871e+03 1.0000000000000000e+00 1.1257364854132092e+01 1.2720679083955165e+01 9.2145418276607643e+01 
857 858 2 1.0280000257906474e+00 -2.8785345772249248e+03 1.0000000000000000e+00 1.2917154620524480e+01 1.3184200518172808e+01 9.0587272928597628e+01 
525 526 2 1.0279999826839861e+00 1.1582760467353748e+04 1.0000000000000000e+00 1.3284622111630918e+01 1.2879966118069662e+01 9.1357863095561740e+01 
1206 1207 2 1.0280000477578262e+00 -3.6997013357550063e+03 1.0000000000000000e+00 6.7229460013175055e+00 1.5596431300791782e+01 9.0318537284837490e+01 
985 986 2 1.0279999956285928e+00 1.0516927249877634e+04 1.0000000000000000e+00 6.4513622161157986e+00 1.4986808187159674e+01 9.2052025679040142e+01 
1378 1379 2 1.0279999960327144e+00 -7.4277216009215169e+02 1.0000000000000000e+00 8.2117792739686326e+00 1.4283806643968294e+01 9.0560487643149827e+01 
1510 1511 2 1.0279999882556292e+00 -9.4900796873764295e+02 1.0000000000000000e+00 8.1527856313208265e+00 1.4273669903093559e+01 9.0620969790780890e+01 
257 258 2 1.0280000234517139e+00 -1.5676117053352771e+03 1.0000000000000000e+00 1.0773416442773639e+01 1.4540018566611645e+01 9.1271315618845577e+01 
1174 1175 2 1.0279999910935493e+00 -4.7782682567652000e+03 1.0000000000000000e+00 1.0628646941277051e+01 1.5662541097737167e+01 9.2084363781790856e+01 
878 879 2 1.0279999181448949e+00 -1.9375261471979925e+03 1.0000000000000000e+00 5.7470434475989496e+00 1.6337854529016969e+01 9.1403094373126422e+01 
1037 1038 2 1.0280000690188389e+00 2.1620581419681066e+03 1.0000000000000000e+00 7.4471687902489823e+00 1.7973353711898380e+01 9.0196531383871488e+01 
405 406 2 1.0279999660479440e+00 1.8974046708091489e+03 1.0000000000000000e+00 7.8948916959945876e+00 1.7742179000813799e+01 9.0457484387466678e+01 
304 305 2 1.0280000713934663e+00 -6.3872013525269108e+02 1.0000000000000000e+00 8.8776236415745196e+00 1.6756559241870772e+01 9.0366398146157508e+01 
595 596 2 1.0280000179134028e+00 5.1960392825333952e+02 1.0000000000000000e+00 9.8886395168102581e+00 1.6198869063924036e+01 9.0389836274396870e+01 
757 758 2 1.0280000193652652e+00 -2.6557500247738144e+03 1.0000000000000000e+00 1.0788220025368510e+01 1.6486752717465297e+01 9.0602385622127997e+01 
1368 1369 2 1.0279999973390515e+00 -6.4963377728709520e+02 1.0000000000000000e+00 1.2390308267371474e+01 1.6116164633571522e+01 9.1281877664196571e+01 
1504 1505 2 1.0279999962199788e+00 -1.9946083725219548e+03 1.0000000000000000e+00 1.2395744988026264e+01 1.6100100927901980e+01 9.1285585629404508e+01 
225 226 2 1.0280000849583448e+00 -4.2194470987583458e+02 1.0000000000000000e+00 4.9681187468594148e+00 1.9266002438362243e+01 9.2119064698337652e+01 
276 277 2 1.0280000027888312e+00 -3.0401017862536783e+03 1.0000000000000000e+00 6.0042510984545361e+00 1.9327434820319414e+01 9.0253718398653092e+01 
228 229 2 1.0280000029117469e+00 -3.7488003273610747e+02 1.0000000000000000e+00 6.0043389346699385e+00 1.9326719275397256e+01 9.0256204236736536e+01 
199 200 2 1.0279999927374555e+00 1.8308432269654429e+03 1.0000000000000000e+00 1.1565889925470428e+01 6.6077479191198707e+00 9.3685485612201816e+01 
198 199 2 1.0279999930438180e+00 1.8307501682998648e+03 1.0000000000000000e+00 1.1568100343528547e+01 6.6012466255206004e+00 9.3683073605187118e+01 
60 61 2 1.0280000084104137e+00 3.7749487411926789e+03 1.0000000000000000e+00 1.1999667199185883e+01 7.4620450167774157e+00 9.2528356691652760e+01 
244 245 2 1.0280000036631751e+00 1.5375661868917123e+03 1.0000000000000000e+00 1.4964948201871886e+01 6.3624730756387935e+00 9.3396817022909218e+01 
738 739 2 1.0279999971481293e+00 6.2759392107893455e+03 1.0000000000000000e+00 1.4673755166718331e+01 6.2229951329365862e+00 9.3487328678192839e+01 
1132 1133 2 1.0280000013299631e+00 -7.3998776751680808e+01 1.0000000000000000e+00 1.4494808980409982e+01 7.3865601751091949e+00 9.4013721788600037e+01 
327 328 2 1.0280000027261054e+00 -5.8700471284439154e+03 1.0000000000000000e+00 1.1266528298444634e+01 8.7923916964389282e+00 9.2511502101747453e+01 
774 775 2 1.0280000106498552e+00 1.6800750610849143e+03 1.0000000000000000e+00 1.0875475298216349e+01 9.0426127678218471e+00 9.3106985876322923e+01 
31 32 2 1.0280000313343978e+00 -2.8301813649482974e+03 1.0000000000000000e+00 1.3543111211776877e+01 9.2371188497680112e+00 9.2502015601000494e+01 
1317 1318 2 1.0279999723808060e+00 8.7304931913566395e+02 1.0000000000000000e+00 1.2400910939564639e+01 9.7538047643973229e+00 9.3170769631781724e+01 
692 693 2 1.0279999910240123e+00 1.7324425518998696e+03 1.0000000000000000e+00 1.4760311179380764e+01 9.3212231652066198e+00 9.2446363907977741e+01 
886 887 2 1.0280000028242613e+00 8.1151671373624652e+02 1.0000000000000000e+00 7.5204589083672850e+00 1.1962643533596211e+01 9.3650235930476114e+01 
936 937 2 1.0280000018081823e+00 5.9935671611617572e+03 1.0000000000000000e+00 6.5028250298469690e+00 1.2459064987143787e+01 9.2860752748405076e+01 
116 117 2 1.0279999990931532e+00 3.6118284048871169e+03 1.0000000000000000e+00 6.5086225825867388e+00 1.2510057649008994e+01 9.2871095933339348e+01 
464 465 2 1.0279999956152130e+00 1.2887152733741493e+03 1.0000000000000000e+00 9.5020170493494565e+00 1.2271032150447081e+01 9.2664499086658736e+01 
1075 1076 2 1.0280000046367628e+00 -3.8712302006829391e+03 1.0000000000000000e+00 9.6144520196400816e+00 1.2238520290225264e+01 9.2707964488815449e+01 
1223 1224 2 1.0279999924181864e+00 -7.4189736686312363e+03 1.0000000000000000e+00 1.2467719024413269e+01 1.2887193250435901e+01 9.3346148869852158e+01 
159 160 2 1.0280000035555688e+00 -7.4275357331627119e+03 1.0000000000000000e+00 1.2292839757222231e+01 1.2974150489469599e+01 9.3531008139750824e+01 
233 234 2 1.0279999985163273e+00 1.2085482729874825e+03 1.0000000000000000e+00 6.9684930271548566e+00 1.4919226831102394e+01 9.2448872589216947e+01 
844 845 2 1.0280000374515532e+00 1.6218843804188120e+03 1.0000000000000000e+00 8.8182918820331313e+00 1.4059460728648489e+01 9.3488274617747379e+01 
255 256 2 1.0279999869320415e+00 2.8606163940701199e+03 1.0000000000000000e+00 8.8737677274897564e+00 1.4091174926030320e+01 9.3631959307876798e+01 
1014 1015 2 1.0279999876666823e+00 -7.2291192890037803e+02 1.0000000000000000e+00 1.1348925432369231e+01 1.4720405594214430e+01 9.2293532243585418e+01 
647 648 2 1.0280000389516322e+00 -1.0315195295737076e+03 1.0000000000000000e+00 5.9712311846046884e+00 1.7676663373527354e+01 9.2379601070484213e+01 
293 294 2 1.0280000878176982e+00 1.0223248853774971e+03 1.0000000000000000e+00 6.5380396601246433e+00 1.6872107998097377e+01 9.2237062564683896e+01 
176 177 2 1.0280000039807782e+00 4.3838241606991651e+03 1.0000000000000000e+00 8.2880098866486094e+00 1.6095938214287560e+01 9.3730393627185322e+01 
114 115 2 1.0280000049729292e+00 -8.3031568246840907e+03 1.0000000000000000e+00 8.2098876752011112e+00 1.6133534414850672e+01 9.3772480664058463e+01 
1239 1240 2 1.0279999955473971e+00 3.5257327163737591e+03 1.0000000000000000e+00 4.6125005497724159e+00 1.8705789973757849e+01 9.2616641172765142e+01 
1210 1211 2 1.0280000339377375e+00 4.6212628027554356e+03 1.0000000000000000e+00 5.7242520487733666e+00 1.8516624167454403e+01 9.3905103910429503e+01 
881 882 2 1.0280000104078832e+00 -3.9171017977065098e+03 1.0000000000000000e+00 1.0564753468700349e+01 9.6580585051379675e+00 9.4486770196502306e+01 
353 354 2 1.0280000104376883e+00 2.5980814979638753e+03 1.0000000000000000e+00 1.2975452428696272e+01 8.5952423004727390e+00 9.4745012904078024e+01 
1140 1141 2 1.0280000002915826e+00 1.0613203440830305e+03 1.0000000000000000e+00 1.2368975809149696e+01 8.7170728632825849e+00 9.4926254907997176e+01 
937 938 2 1.0279999956862598e+00 2.0944869253295674e+03 1.0000000000000000e+00 1.4911214741842020e+01 9.1017311113968180e+00 9.4221999167693681e+01 
438 439 2 1.0280000001519405e+00 -4.7548800030822567e+03 1.0000000000000000e+00 1.4807376977881445e+01 8.8889630221799631e+00 9.4545742575544878e+01 
933 934 2 1.0279999963340467e+00 6.0453059007301836e+03 1.0000000000000000e+00 8.4351311700498197e+00 1.1995746672883323e+01 9.4386857859436063e+01 
288 289 2 1.0280000196291075e+00 -3.7533242348230544e+02 1.0000000000000000e+00 9.3707458556909291e+00 1.1498675906131000e+01 9.4829696856283434e+01 
511 512 2 1.0280000061980290e+00 -2.3278506230035355e+03 1.0000000000000000e+00 9.4582335182130670e+00 1.0432345944397248e+01 9.4888862702687703e+01 
592 593 2 1.0279999834699263e+00 1.9819987404894921e+03 1.0000000000000000e+00 1.1472560705746940e+01 1.1024997887722318e+01 9.4761691572776357e+01 