LAMMPS data file via write_data, version 30 Jul 2016, timestep = 50000000

1520 atoms
8 atom types

0.0000000000000000e+00 4.0000000000000000e+01 xlo xhi
0.0000000000000000e+00 4.0000000000000000e+01 ylo yhi
0.0000000000000000e+00 1.0000000000000000e+02 zlo zhi

Masses

1 3.896
2 5.36
3 20.064
4 8.378
5 8.378
6 8.378
7 8.378
8 8.378

Atoms # meso-molecular

267 268 2 1.0279999951708139e+00 1.9024578090744535e+03 1.0000000000000000e+00 9.6695081076246971e+00 9.7787040889479613e+00 1.4774070401272349e-01 
497 498 2 1.0280000091483146e+00 9.3775780467225541e+03 1.0000000000000000e+00 1.0436922743404903e+01 9.1660697276854837e+00 6.3567627177382929e-02 
805 806 2 1.0280000094046113e+00 -2.6617644824976844e+02 1.0000000000000000e+00 1.2110412524279949e+01 9.5963492102559407e+00 1.3062488076957207e-01 
831 832 2 1.0279999979951466e+00 -4.8318415940182404e+03 1.0000000000000000e+00 7.3505556319690291e-01 1.1463339289319002e+01 1.8083302851802407e+00 
409 410 2 1.0279999917463798e+00 1.3504489963693009e+03 1.0000000000000000e+00 7.2449333478874811e+00 1.0476793808072243e+01 9.9159799155966677e-02 
147 148 2 1.0279999995068405e+00 1.0889989851461537e+03 1.0000000000000000e+00 1.1883025231749109e+01 1.0024095908618841e+01 1.5605908026509777e-01 
718 719 2 1.0280000000213061e+00 4.4254754943620646e+03 1.0000000000000000e+00 1.1035626443269948e+01 1.1994217041892824e+01 1.4991555791203279e-01 
1158 1159 2 1.0279999892375584e+00 -2.5248756237498433e+03 1.0000000000000000e+00 4.1439132676696622e-01 1.2091383002716396e+01 6.2517737862929645e-01 
567 568 2 1.0280000839865815e+00 3.0755449795318527e+03 1.0000000000000000e+00 2.9102350783508886e+00 1.3781437946174563e+01 4.3667816621450262e-01 
894 895 2 1.0280000269630509e+00 2.6758445482829479e+03 1.0000000000000000e+00 5.1690711851214202e+00 1.2732162398136001e+01 2.6875668087798332e-01 
349 350 2 1.0280000056759653e+00 1.4168669869980004e+03 1.0000000000000000e+00 4.1198032841947221e+00 1.2849829130770376e+01 7.9599662897379952e-01 
1498 1499 2 1.0280000020180402e+00 -7.3709342029006748e+03 1.0000000000000000e+00 6.8780518309490226e+00 1.2908825843361749e+01 1.1801562631260261e+00 
1161 1162 2 1.0280000026876419e+00 -1.4498392909505872e+03 1.0000000000000000e+00 6.7762199757989894e+00 1.2900625757689607e+01 1.2060107570247978e+00 
1151 1152 2 1.0280000472613429e+00 -5.5149239426706854e+03 1.0000000000000000e+00 1.7847193536184776e+00 1.4808773073560896e+01 6.9838159232443653e-01 
842 843 2 1.0280002356949460e+00 -4.0906267234804923e+03 1.0000000000000000e+00 6.0307630089298192e-01 1.4440238753886463e+01 1.9500959936156257e+00 
340 341 2 1.0280000054046770e+00 1.4472839907539960e+03 1.0000000000000000e+00 8.6554954593321618e+00 1.5852943128657675e+01 8.5139547213807909e-01 
1261 1262 2 1.0279999980432493e+00 -1.5240862212105262e+03 1.0000000000000000e+00 8.1437461335920478e+00 1.5650842152507959e+01 1.1186043361585745e+00 
37 38 2 1.0280000361094010e+00 3.7028722170479878e+03 1.0000000000000000e+00 7.7934605041900857e+00 1.6157338697534634e+01 1.3090535790741770e-01 
812 813 2 1.0279999982273491e+00 -1.8255221945042381e+03 1.0000000000000000e+00 4.5395069913560988e+00 5.7008995025106737e+00 2.9906496490886849e+00 
1419 1420 2 1.0279999978309498e+00 -6.2470245038472422e+03 1.0000000000000000e+00 4.3693634349851331e+00 5.5019540528146038e+00 3.1330851130039283e+00 
351 352 2 1.0279999897490402e+00 -6.7672596389425235e+03 1.0000000000000000e+00 7.2339263677876930e-01 1.2426401098071034e+01 2.1314555645329971e+00 
619 620 2 1.0280000030215704e+00 -5.6318025542803380e+03 1.0000000000000000e+00 1.9621152457456152e+00 1.3143236061983066e+01 3.0890128875606178e+00 
676 677 2 1.0279999920950105e+00 3.8814047883344335e+02 1.0000000000000000e+00 7.4362709041859034e+00 1.3986296447542644e+01 3.0659354149799718e+00 
923 924 2 1.0279999879751696e+00 -4.7146839265048484e+03 1.0000000000000000e+00 7.4663012504398347e+00 1.2371319867084745e+01 3.2154941708768394e+00 
146 147 2 1.0280000386107480e+00 1.3732271265456995e+03 1.0000000000000000e+00 6.6700428963323573e+00 1.3068818317291974e+01 3.6866908926641115e+00 
542 543 2 1.0279999939912292e+00 3.3058321359013439e+02 1.0000000000000000e+00 8.4918364474376968e+00 1.3718004187249742e+01 3.1539754598840597e+00 
1032 1033 2 1.0280000177259880e+00 2.5261021991365983e+03 1.0000000000000000e+00 1.0353504078443816e+00 1.5072955561438981e+01 3.6634008133086282e+00 
1111 1112 2 1.0279998658438176e+00 -6.0918374901614152e+03 1.0000000000000000e+00 2.0250379775649723e+00 1.4024134595608734e+01 2.1209291196772573e+00 
558 559 2 1.0280000573777446e+00 -6.4603188735689139e+02 1.0000000000000000e+00 2.6380573232327569e+00 1.4668901549962596e+01 3.8221222113777995e+00 
874 875 2 1.0280000536839105e+00 -1.5994224628766153e+03 1.0000000000000000e+00 9.5324896850690646e+00 1.5440250814536730e+01 2.9873844760524029e+00 
729 730 2 1.0280000018660724e+00 -3.4838975038904077e+03 1.0000000000000000e+00 9.6078421651993313e+00 1.5525935109801367e+01 3.0851553350467382e+00 
496 497 2 1.0279998158746795e+00 8.0624572819024370e+03 1.0000000000000000e+00 4.9698930489563747e-01 1.6109278372358201e+01 3.5923953822940446e+00 
502 503 2 1.0279999975197394e+00 2.0915653522873185e+03 1.0000000000000000e+00 2.1066376440019732e-01 1.8261853655546457e+01 3.8633519631906612e+00 
829 830 2 1.0280000020081805e+00 8.9012092020152772e+02 1.0000000000000000e+00 5.0295043412328404e+00 5.8424554923236496e+00 4.2079193363572580e+00 
925 926 2 1.0279999997274782e+00 6.5345290508565831e+03 1.0000000000000000e+00 5.3619933908708521e+00 7.0760999592773084e+00 4.7409748012402488e+00 
1486 1487 2 1.0279999961547330e+00 -5.2763672790366199e+03 1.0000000000000000e+00 5.5542061698738827e+00 7.3423447229206582e+00 5.0652459266048826e+00 
724 725 2 1.0280001678233188e+00 2.5859714951358837e+03 1.0000000000000000e+00 2.1765868251654816e-01 1.3346490629592072e+01 5.6403984753226153e+00 
740 741 2 1.0280000005394985e+00 6.9506965565148312e+02 1.0000000000000000e+00 2.8742224383300115e+00 1.2653849379016453e+01 3.9414602299992052e+00 
367 368 2 1.0279999674385001e+00 -4.6152598565507287e+03 1.0000000000000000e+00 3.4351450672501884e+00 1.2682062965318108e+01 4.6705491903066259e+00 
1396 1397 2 1.0280000471425457e+00 3.0065457414955972e+03 1.0000000000000000e+00 5.0046214793327986e+00 1.3565903663327509e+01 4.6005693990940948e+00 
1366 1367 2 1.0280000408655283e+00 1.3562177462612890e+03 1.0000000000000000e+00 4.9914827122472483e+00 1.3572796492955788e+01 4.6241680057387331e+00 
303 304 2 1.0280000066741415e+00 1.0483291566694688e+03 1.0000000000000000e+00 8.3379800570922988e+00 1.2770729468360036e+01 4.3662566352158247e+00 
693 694 2 1.0280000020284610e+00 2.2485405699917749e+02 1.0000000000000000e+00 9.7825712514855017e+00 1.3083462447406298e+01 4.8466315643370539e+00 
533 534 2 1.0279999968776219e+00 8.5979156822149544e+03 1.0000000000000000e+00 9.8389357292041417e+00 1.3136813444693878e+01 4.8328548654339585e+00 
638 639 2 1.0279999311599239e+00 3.1955210127695937e+03 1.0000000000000000e+00 1.0367531971108217e+00 1.4197598667375278e+01 5.2462311776848747e+00 
559 560 2 1.0280000088818373e+00 -6.0104611709253300e+02 1.0000000000000000e+00 3.2694711176993674e+00 1.4377999726659226e+01 4.2831533778537496e+00 
934 935 2 1.0279999858671069e+00 -1.0621099630840089e+02 1.0000000000000000e+00 1.0510766829289507e+01 1.5077148852066568e+01 4.1779131976877828e+00 
361 362 2 1.0280000146615249e+00 6.4728215405838910e+02 1.0000000000000000e+00 1.1726228679679176e+01 1.4320016399169662e+01 4.2730431694692079e+00 
749 750 2 1.0280000149934123e+00 3.4206253094678000e+03 1.0000000000000000e+00 1.1731032681616657e+01 1.4338729529659910e+01 4.2705990225033368e+00 
799 800 2 1.0279999725581928e+00 -1.5384544187353040e+03 1.0000000000000000e+00 5.8342303031610077e-01 1.7136376656628851e+01 5.1495056927251932e+00 
1099 1100 2 1.0280000006949817e+00 -5.3237222923796617e+03 1.0000000000000000e+00 5.7538479683482020e+00 5.9997028473988516e+00 6.8698736901768394e+00 
452 453 2 1.0280000014085204e+00 4.0826752159707002e+02 1.0000000000000000e+00 5.6909270755978758e+00 5.9463162463968535e+00 7.1642248637134829e+00 
499 500 2 1.0279999995729259e+00 2.9806497258298004e+03 1.0000000000000000e+00 6.4588845515782989e+00 7.8624605349197285e+00 6.4498409908319889e+00 
535 536 2 1.0280000021489519e+00 -1.8093244414258861e+03 1.0000000000000000e+00 6.8108494214286450e+00 7.6342635126099943e+00 6.6149485130005425e+00 
697 698 2 1.0280000418884878e+00 2.3548553757991613e+03 1.0000000000000000e+00 2.8616688912170485e+00 1.1549255894037437e+01 6.9636991723034889e+00 
1021 1022 2 1.0280000411042620e+00 9.1387708525006801e+03 1.0000000000000000e+00 1.3675985107866346e+00 1.2646026244241448e+01 6.3901335130251535e+00 
415 416 2 1.0279999868392535e+00 -4.7604424258867457e+03 1.0000000000000000e+00 2.3721584059523169e+00 1.2554347374895185e+01 6.2493184009278080e+00 
35 36 2 1.0279999883507924e+00 -5.6760485012651079e+03 1.0000000000000000e+00 1.8079728472088614e+00 1.4533008142265153e+01 6.8223088465461075e+00 
1403 1404 2 1.0279999888563371e+00 -5.7887370717360063e+03 1.0000000000000000e+00 1.8090055606724265e+00 1.4530876039748318e+01 6.8245962897547470e+00 
62 63 2 1.0280001031273545e+00 -9.4403917290761710e+03 1.0000000000000000e+00 3.3782134938930614e-01 1.6802897790009631e+01 6.2930683008059356e+00 
1142 1143 2 1.0279999441051406e+00 -7.0422871475782431e+03 1.0000000000000000e+00 8.5776397253672865e-01 1.6860720066130948e+01 7.0588144060296729e+00 
1276 1277 2 1.0279999914009794e+00 1.9426888283353358e+02 1.0000000000000000e+00 1.2931719858112578e+00 1.9965879114710287e+01 6.2563358652764611e+00 
1103 1104 2 1.0279999980929193e+00 -4.6191467815004362e+03 1.0000000000000000e+00 6.6569029573619964e+00 6.6987472828322110e+00 8.4023986933595811e+00 
993 994 2 1.0279999960668715e+00 1.2980244809233584e+04 1.0000000000000000e+00 6.2478825575833463e+00 7.2788945795598288e+00 8.4094803576744468e+00 
1308 1309 2 1.0280000008417360e+00 1.5536055904637512e+03 1.0000000000000000e+00 7.8681387384861150e+00 8.0917386352518026e+00 9.1410120819809766e+00 
1260 1261 2 1.0279999999108085e+00 -2.4297121401144987e+03 1.0000000000000000e+00 8.5888312230671300e+00 9.1280388942007349e+00 8.6624584981106239e+00 
1084 1085 2 1.0279999997273872e+00 -8.5776117534608647e+02 1.0000000000000000e+00 8.5849463594074855e+00 9.1491979413614892e+00 8.7043378015288511e+00 
1255 1256 2 1.0279999314699333e+00 1.7578092075677209e+03 1.0000000000000000e+00 1.9851414517900692e+00 1.1372300320581948e+01 8.2423115139656069e+00 
1112 1113 2 1.0279999975575440e+00 1.5135808136046519e+03 1.0000000000000000e+00 2.5910302911598118e+00 1.1042362376175523e+01 7.8596709206859376e+00 
1313 1314 2 1.0280000022467644e+00 -5.8946523714116358e+02 1.0000000000000000e+00 6.5794418000867294e-01 1.2291978784546112e+01 8.4844662351640530e+00 
1207 1208 2 1.0279999909787323e+00 -3.7371521749459362e+03 1.0000000000000000e+00 8.8746287628562970e-01 1.3137569673011445e+01 9.4144336704614560e+00 
777 778 2 1.0280000011570480e+00 -1.4273159874503544e+03 1.0000000000000000e+00 2.9208482915294137e-01 1.2228945043057376e+01 9.4291503656413642e+00 
70 71 2 1.0280000036247503e+00 -9.7022738651058098e+03 1.0000000000000000e+00 2.6086011007624585e+00 1.5337426830583960e+01 8.9018589064511904e+00 
472 473 2 1.0280000000643865e+00 6.2712940149574633e+03 1.0000000000000000e+00 2.7036155761521989e+00 1.5243542452108612e+01 8.9419545820966437e+00 
64 65 2 1.0280000467052990e+00 4.7928730432004477e+03 1.0000000000000000e+00 3.6026587538349325e-01 1.6973640567511961e+01 8.4315037692051185e+00 
1 2 2 1.0279999920819336e+00 -9.1911655348214408e+03 1.0000000000000000e+00 1.0358488412073170e+00 1.9273377625904502e+01 8.3793432540217356e+00 
1373 1374 2 1.0279999911350621e+00 2.3042303120480528e+03 1.0000000000000000e+00 1.0243305205356030e+00 1.9272212168363563e+01 8.3827891076361372e+00 
519 520 2 1.0280000024960823e+00 3.1167095396199255e+02 1.0000000000000000e+00 6.9794518783185184e+00 7.5198194978208344e+00 1.0287061919733851e+01 
1345 1346 2 1.0280000002611036e+00 4.5992851365980514e+03 1.0000000000000000e+00 1.7943009152896575e-01 8.1939818351274880e+00 1.0024430161653385e+01 
1252 1253 2 1.0279999929401191e+00 2.9541243864985131e+03 1.0000000000000000e+00 3.8932935154465825e-01 9.4347210302397393e+00 1.0330453750278608e+01 
1375 1376 2 1.0280000164681686e+00 1.2406406032457655e+03 1.0000000000000000e+00 1.5464060965946786e+00 8.9829877692431648e+00 1.1126587032116509e+01 
1081 1082 2 1.0280000035533106e+00 -9.4309444174593114e+02 1.0000000000000000e+00 3.2152369076438432e+00 9.0521866636968387e+00 1.0921918278509992e+01 
1298 1299 2 1.0280000348627827e+00 2.0346112541006455e+03 1.0000000000000000e+00 3.5670171579728405e+00 9.3513341747636787e+00 1.1233615151859283e+01 
1258 1259 2 1.0280000088513543e+00 5.5986873037751195e+02 1.0000000000000000e+00 5.4799035627524448e+00 8.7906556657357378e+00 1.0418446238035935e+01 
995 996 2 1.0280000149088089e+00 -1.9010113705192765e+02 1.0000000000000000e+00 5.5324645497718459e+00 8.9184883040227074e+00 1.0682617346542623e+01 
245 246 2 1.0280000027445275e+00 5.6322014984833345e+02 1.0000000000000000e+00 6.8327144368593506e+00 8.0130521185091599e+00 1.0826128656903084e+01 
1374 1375 2 1.0279999681071232e+00 1.3357855976978406e+03 1.0000000000000000e+00 1.8821237907187660e+00 1.0060441051510342e+01 1.0961027614784832e+01 
1273 1274 2 1.0280000394468847e+00 7.8136939624513900e+01 1.0000000000000000e+00 1.8570410175136127e+00 1.2445493969998784e+01 1.0384647800251013e+01 
568 569 2 1.0280000276605372e+00 9.3774216259453133e+03 1.0000000000000000e+00 2.1573020488160979e+00 1.2058053850885051e+01 1.0745307459344202e+01 
341 342 2 1.0279999879210766e+00 3.5809095836539555e+03 1.0000000000000000e+00 1.3724977771239266e+00 1.5658993226047858e+01 1.0048586443202757e+01 
994 995 2 1.0280000059138334e+00 3.2463203007230368e+02 1.0000000000000000e+00 2.8571115116665560e+00 1.4910722279847318e+01 1.0799617045037669e+01 
163 164 2 1.0280000003192062e+00 6.3719267972027922e+02 1.0000000000000000e+00 2.6479182820496447e+00 1.4937262177573503e+01 1.0997629284536274e+01 
1402 1403 2 1.0280000122377357e+00 -5.7336813837014224e+03 1.0000000000000000e+00 1.1549962239786025e+00 1.7189584550662019e+01 1.0841930432845135e+01 
22 23 2 1.0280000053461977e+00 -6.5679418898459016e+03 1.0000000000000000e+00 3.2603732281854478e+00 1.1157371332842457e+01 1.1869489373155561e+01 
1424 1425 2 1.0279999992899680e+00 4.6579953499267176e+03 1.0000000000000000e+00 3.1294855033244597e+00 1.1296359406269362e+01 1.1906326795869145e+01 
1204 1205 2 1.0279999876969079e+00 7.0808115301818407e+03 1.0000000000000000e+00 9.7019228196411733e-01 1.5496264261457132e+01 1.1803349802007430e+01 
358 359 2 1.0279999942524913e+00 -5.7427599087587350e+03 1.0000000000000000e+00 8.2033793545998457e-01 1.7609271471572658e+01 1.1861031493953472e+01 
1469 1470 2 1.0280000000460394e+00 4.4786449353242297e+03 1.0000000000000000e+00 1.7547654949643987e+00 9.9745138829954882e+00 5.6308373815599133e+01 
645 646 2 1.0280000001899861e+00 3.0411516204088975e+03 1.0000000000000000e+00 1.1651719952124469e+00 1.1470564373694918e+01 5.5480851720964921e+01 
976 977 2 1.0280000001899876e+00 1.0407726157011633e+04 1.0000000000000000e+00 1.1651507418161797e+00 1.1470815673795842e+01 5.5481059050167048e+01 
1472 1473 2 1.0279999999845300e+00 4.4786022979269173e+03 1.0000000000000000e+00 3.2124602536840388e+00 1.0360781512791139e+01 5.6423856621560816e+01 
1474 1475 2 1.0280000000374707e+00 -5.7444839381086276e+03 1.0000000000000000e+00 3.2288392563954060e+00 1.0451061477004407e+01 5.6551902504832832e+01 
1475 1476 2 1.0279999995306137e+00 -5.7472521966563509e+03 1.0000000000000000e+00 1.2546889344067278e+00 1.0834039984554547e+01 5.7071789265737443e+01 
522 523 2 1.0280000001281937e+00 7.8102688669527697e+02 1.0000000000000000e+00 2.2390874465219883e+00 1.0639494216587961e+01 5.8558448784848039e+01 
1022 1023 2 1.0280000002502270e+00 2.7210401469768340e+03 1.0000000000000000e+00 2.1158100728516809e+00 1.0780050256249913e+01 5.8713908590583983e+01 
103 104 2 1.0280000000511338e+00 -6.3157645769923201e+03 1.0000000000000000e+00 3.4741989217978255e+00 1.0350534635842793e+01 6.0236670582250810e+01 
1077 1078 2 1.0280000001276282e+00 7.0769291758660966e+03 1.0000000000000000e+00 3.9641214256199908e+00 1.0374144185715169e+01 6.0290472282593882e+01 
336 337 2 1.0280000002150851e+00 -1.6387138371553606e+03 1.0000000000000000e+00 4.5644022278879950e+00 1.1606113620080201e+01 5.9950293977459133e+01 
450 451 2 1.0279999996345390e+00 4.0869808249129678e+03 1.0000000000000000e+00 1.6889892049551851e+00 1.2980541601031655e+01 6.0096204577986256e+01 
1279 1280 2 1.0280000000510761e+00 8.2750211195825432e+02 1.0000000000000000e+00 8.3538503342513182e-01 1.2373538765738967e+01 6.0214731305659875e+01 
1481 1482 2 1.0280000000849592e+00 3.7038852547826682e+03 1.0000000000000000e+00 2.1239698880018896e+00 1.2766542133574388e+01 5.9344671801301871e+01 
119 120 2 1.0279999992388655e+00 -5.9962901190890025e+03 1.0000000000000000e+00 3.3636182087058599e+00 1.2066138265147641e+01 5.9579075288788765e+01 
1098 1099 2 1.0279999999117579e+00 -5.3700227140918832e+03 1.0000000000000000e+00 5.1328677027181735e+00 1.2971714957033186e+01 5.9707222669938403e+01 
674 675 2 1.0279999998244209e+00 2.4994302414330366e+02 1.0000000000000000e+00 5.7004960582967952e+00 1.3226880980161866e+01 6.0357827539166308e+01 
124 125 2 1.0280000002110350e+00 5.0598028971998392e+03 1.0000000000000000e+00 4.6874354587678244e+00 1.4750063079063475e+01 5.9838798655066938e+01 
1492 1493 2 1.0280000001857865e+00 5.0634167072046021e+03 1.0000000000000000e+00 4.6975813597733227e+00 1.4766412106762715e+01 5.9840537394261453e+01 
1489 1490 2 1.0279999998138674e+00 5.0562241962013195e+03 1.0000000000000000e+00 6.4882318518580844e+00 1.5733853450007803e+01 6.0144880634336637e+01 
121 122 2 1.0279999999388649e+00 5.0511462392990416e+03 1.0000000000000000e+00 6.5888846967013119e+00 1.5769606303900670e+01 6.0153507755920067e+01 
735 736 2 1.0280000000846481e+00 4.7578723748054051e+02 1.0000000000000000e+00 8.2716590255119371e+00 1.5012688495966589e+01 6.0547374307521309e+01 
728 729 2 1.0280000000742335e+00 -1.7495291353830080e+03 1.0000000000000000e+00 8.2768529583852413e+00 1.5005085450727359e+01 6.0589843352216562e+01 
608 609 2 1.0279999999471525e+00 3.8760519159058795e+03 1.0000000000000000e+00 6.8794682153885294e+00 1.3864050913817765e+01 6.1501014769320776e+01 
1064 1065 2 1.0279999999502802e+00 3.8767474140502336e+03 1.0000000000000000e+00 6.8721005934799448e+00 1.3864715671086318e+01 6.1500874738162807e+01 
373 374 2 1.0280000001436416e+00 -2.1047916842605164e+03 1.0000000000000000e+00 4.4217541873723859e-01 6.9683555726048185e-01 6.9913227466953074e+01 
1030 1031 2 1.0279999998733038e+00 1.3813126764907788e+03 1.0000000000000000e+00 2.4761007684913392e+00 1.4745874870737876e+00 6.9201667844960596e+01 
574 575 2 1.0279999998717160e+00 1.3335308369441623e+03 1.0000000000000000e+00 1.8064964196897637e+00 2.2102582242533453e+00 6.9905164169988410e+01 
149 150 2 1.0280000001647347e+00 -9.3467133655277103e+03 1.0000000000000000e+00 2.3606387840373992e+00 2.0937301174316691e+00 6.8983823950423883e+01 
1233 1234 2 1.0280000001677734e+00 -5.2826142054323850e+02 1.0000000000000000e+00 1.0833842547599659e+00 8.2923926488040889e-01 7.0858542150167949e+01 
828 829 2 1.0280000003684042e+00 6.9230364358687291e+02 1.0000000000000000e+00 2.3267966756714640e+00 5.4677473406047017e-01 7.1292764250495210e+01 
127 128 2 1.0279999996900653e+00 -1.1132787126626736e+04 1.0000000000000000e+00 2.7962015747140816e+00 4.2196782711547431e-01 7.2069033970400142e+01 
628 629 2 1.0280000002548522e+00 -1.4648696748146644e+03 1.0000000000000000e+00 1.0145980534952215e-01 4.1135657170654678e+00 7.2515026864473583e+01 
625 626 2 1.0280000002605403e+00 -1.4824810127346527e+03 1.0000000000000000e+00 1.0202513067978267e-01 4.1182371398221047e+00 7.2517378854528644e+01 
1200 1201 2 1.0280000012644432e+00 -7.7481118744796720e+02 1.0000000000000000e+00 9.1357284615622592e-01 8.6872024622725461e-02 7.6251488059715371e+01 
1123 1124 2 1.0279999999647991e+00 -3.6647755414093572e+03 1.0000000000000000e+00 1.3121586406090170e+01 2.2782097372170640e-01 8.4495166552233329e+01 
873 874 2 1.0279999999824749e+00 1.7432712843089153e+03 1.0000000000000000e+00 1.2554727865096087e+01 1.9657624460522654e+00 8.4419014176246677e+01 
404 405 2 1.0280000000933107e+00 -1.8123094188259206e+03 1.0000000000000000e+00 1.2762909842618061e+01 1.0728970650686769e+00 8.5295394997266570e+01 
1086 1087 2 1.0279999999691838e+00 -5.2343586232158850e+03 1.0000000000000000e+00 1.3639006750708354e+01 2.8875301273302556e+00 8.4532582027824404e+01 
746 747 2 1.0279999999749843e+00 1.4042795965258160e+03 1.0000000000000000e+00 1.3751378934120854e+01 2.9957235471891992e+00 8.5434511858103676e+01 
1471 1472 2 1.0279999999989946e+00 -5.9546680811935003e+03 1.0000000000000000e+00 1.2615373062243121e+01 2.9814019699309782e+00 8.5632720728877374e+01 
982 983 2 1.0280000000912231e+00 1.3945330407196698e+02 1.0000000000000000e+00 1.1742504835083070e+01 1.6868546951852659e+00 8.6995033214910706e+01 
1164 1165 2 1.0280000000883516e+00 -1.0953768035036583e+03 1.0000000000000000e+00 1.1742037236338311e+01 1.6948631424170710e+00 8.7001391067054655e+01 
1044 1045 2 1.0279999998179210e+00 6.0256165592452926e+03 1.0000000000000000e+00 1.3184747749507938e+01 2.0237129529219482e+00 8.7640783432711004e+01 
1165 1166 2 1.0280000001385252e+00 2.0186831248265771e+03 1.0000000000000000e+00 1.4134040742809999e+01 2.4656908239515092e+00 8.8440160773421908e+01 
1058 1059 2 1.0280000000696998e+00 1.9058627955313153e+02 1.0000000000000000e+00 1.4257038988385400e+01 2.3124344504678693e+00 8.8349464102912307e+01 
1181 1182 2 1.0280000141392660e+00 1.2626926590916603e+03 1.0000000000000000e+00 1.4434606204914877e+01 1.2089359945243748e+01 9.1505717263483433e+01 
737 738 2 1.0280000006697372e+00 6.8083952790487251e+02 1.0000000000000000e+00 1.6051624259238391e+01 1.2218564841137965e+01 9.1153290760393588e+01 
1358 1359 2 1.0280000009035182e+00 6.1587009163960965e+02 1.0000000000000000e+00 1.6095229524298002e+01 1.2132376249592946e+01 9.1224732504021119e+01 
1041 1042 2 1.0280000136849752e+00 6.0347158564684960e+03 1.0000000000000000e+00 7.7411366661978525e+00 1.4289337888692202e+01 9.0782570537980220e+01 
556 557 2 1.0280000136862388e+00 5.8908882665661113e+03 1.0000000000000000e+00 7.7412479082606911e+00 1.4289223394763932e+01 9.0782603167783122e+01 
136 137 2 1.0279999375758555e+00 -1.9904856958196237e+03 1.0000000000000000e+00 8.0925013377458690e+00 1.5857705085765899e+01 9.1593230795832909e+01 
581 582 2 1.0279999415718606e+00 2.1979270684920084e+03 1.0000000000000000e+00 5.6677198770329822e+00 1.7411326447457029e+01 9.1999775923101581e+01 
90 91 2 1.0280000362268669e+00 -9.5133443903130174e+03 1.0000000000000000e+00 6.2045610654733565e+00 1.6972816561367292e+01 9.1460918191452677e+01 
707 708 2 1.0279999970901048e+00 3.8431133363424374e+03 1.0000000000000000e+00 5.6441949919947545e+00 1.8488251656399438e+01 9.0534597964431143e+01 
1105 1106 2 1.0280000024373512e+00 6.6420323472709424e+02 1.0000000000000000e+00 5.8206699154981205e+00 1.8219007741899826e+01 9.0387555576495998e+01 
218 219 2 1.0280000012525896e+00 2.7628315634327500e+03 1.0000000000000000e+00 1.2606137514178618e+01 5.6672406278950014e+00 9.3651298357224448e+01 
1304 1305 2 1.0280000003820009e+00 -1.4441100303573060e+02 1.0000000000000000e+00 1.2360867903800353e+01 5.8195850066435346e+00 9.3653315576292741e+01 
54 55 2 1.0279999952441627e+00 -7.2642856770145036e+03 1.0000000000000000e+00 1.3972358535773884e+01 6.4737546759762115e+00 9.3376268243618568e+01 
1160 1161 2 1.0280000011453041e+00 2.8631990421437445e+02 1.0000000000000000e+00 1.5237808401911488e+01 6.9317689132718279e+00 9.2336264207776267e+01 
505 506 2 1.0280000017442985e+00 5.6621390258302399e+03 1.0000000000000000e+00 1.4772501933515565e+01 6.2155062768720963e+00 9.2767064763700134e+01 
1346 1347 2 1.0279999982514378e+00 2.7385073219853066e+03 1.0000000000000000e+00 1.5245302703731301e+01 8.0587533765614427e+00 9.2846190844765246e+01 
451 452 2 1.0279999991613782e+00 4.3704759457618966e+03 1.0000000000000000e+00 1.5517126958141464e+01 8.5240584864087037e+00 9.3686697815220413e+01 
157 158 2 1.0279999475707655e+00 1.9810533435509187e+03 1.0000000000000000e+00 1.3642527005433426e+01 1.0862192138727877e+01 9.3977872433548114e+01 
658 659 2 1.0280000686759991e+00 -1.5406816705065960e+03 1.0000000000000000e+00 1.3332873909518215e+01 1.0917333535885447e+01 9.4051445880495493e+01 
424 425 2 1.0279999890388167e+00 1.2100884318647368e+03 1.0000000000000000e+00 1.4681270714602071e+01 1.1722075662890688e+01 9.2165936243647295e+01 
857 858 2 1.0280000285369404e+00 -2.8785345788876070e+03 1.0000000000000000e+00 1.3358123458031415e+01 1.3091660611800908e+01 9.2631108343129895e+01 
1320 1321 2 1.0280000245039118e+00 8.0924931977440144e+02 1.0000000000000000e+00 1.2116438134245163e+01 1.3043450142828000e+01 9.3040095830590417e+01 
525 526 2 1.0279999804249189e+00 1.1582760465898557e+04 1.0000000000000000e+00 1.3727447431609768e+01 1.2789540852321597e+01 9.3400144295227719e+01 
1206 1207 2 1.0280000564332479e+00 -3.6997013364615341e+03 1.0000000000000000e+00 7.1430954944313338e+00 1.5502948944781576e+01 9.2362603139184927e+01 
985 986 2 1.0279999949473273e+00 1.0516927245424851e+04 1.0000000000000000e+00 6.8729185468407037e+00 1.4894322008732811e+01 9.4094094746385551e+01 
1378 1379 2 1.0279999949316752e+00 -7.4277216009215169e+02 1.0000000000000000e+00 8.6317105857236633e+00 1.4190184420379378e+01 9.2605556322476914e+01 
1510 1511 2 1.0279999862577998e+00 -9.4900796882859242e+02 1.0000000000000000e+00 8.5728349268372810e+00 1.4179776768512626e+01 9.2666275404684498e+01 
257 258 2 1.0280000262252786e+00 -1.5676117133594182e+03 1.0000000000000000e+00 1.1204577773649754e+01 1.4447862516345799e+01 9.3313201785034067e+01 
1037 1038 2 1.0280000778727953e+00 2.1620581369792626e+03 1.0000000000000000e+00 7.8585001212965944e+00 1.7872996876597366e+01 9.2243086426568837e+01 
878 879 2 1.0279999073271704e+00 -1.9375261548969040e+03 1.0000000000000000e+00 6.1567029339177362e+00 1.6244211310251291e+01 9.3446566956919952e+01 
304 305 2 1.0280000829905327e+00 -6.3872013763283701e+02 1.0000000000000000e+00 9.2954711265405994e+00 1.6661998981998789e+01 9.2411330987829160e+01 
405 406 2 1.0279999615617328e+00 1.8974046663382592e+03 1.0000000000000000e+00 8.3093239968520685e+00 1.7645713867081135e+01 9.2503572871657866e+01 
595 596 2 1.0280000189673946e+00 5.1960392535592928e+02 1.0000000000000000e+00 1.0307662088034313e+01 1.6106996346888536e+01 9.2434671003268519e+01 
757 758 2 1.0280000226958117e+00 -2.6557500289584091e+03 1.0000000000000000e+00 1.1207016165177057e+01 1.6392084866988306e+01 9.2645533897985800e+01 
1504 1505 2 1.0279999956368921e+00 -1.9946083740347410e+03 1.0000000000000000e+00 1.2820311100137932e+01 1.6007112920663985e+01 9.3325731696167139e+01 
1368 1369 2 1.0279999969102984e+00 -6.4963377881395365e+02 1.0000000000000000e+00 1.2814791783576501e+01 1.6023169734040604e+01 9.3322029618524311e+01 
276 277 2 1.0280000061776688e+00 -3.0401018108077942e+03 1.0000000000000000e+00 6.4095703762198122e+00 1.9227458875808491e+01 9.2298435902653935e+01 
228 229 2 1.0280000063884920e+00 -3.7488005750490117e+02 1.0000000000000000e+00 6.4096424919794623e+00 1.9226737660616543e+01 9.2300915225747829e+01 
60 61 2 1.0280000096577624e+00 3.7749487408288810e+03 1.0000000000000000e+00 1.2454331653668209e+01 7.3704816067868517e+00 9.4571461902942616e+01 
198 199 2 1.0279999920888840e+00 1.8307501681179658e+03 1.0000000000000000e+00 1.2023408991768127e+01 6.5095338503984417e+00 9.5726565203702009e+01 
199 200 2 1.0279999917684490e+00 1.8308432267835440e+03 1.0000000000000000e+00 1.2021187261518293e+01 6.5160404102672072e+00 9.5728991356949336e+01 
244 245 2 1.0280000036233228e+00 1.5375661868917123e+03 1.0000000000000000e+00 1.5419695835909685e+01 6.2706718790539764e+00 9.5439996004765419e+01 
738 739 2 1.0279999969236930e+00 6.2759392107893455e+03 1.0000000000000000e+00 1.5128641556809567e+01 6.1310018185011135e+00 9.5530438556998874e+01 
1132 1133 2 1.0280000020344691e+00 -7.3998777007598477e+01 1.0000000000000000e+00 1.4948509403274464e+01 7.2946091198412111e+00 9.6056519803725621e+01 
327 328 2 1.0280000025697675e+00 -5.8700471284439154e+03 1.0000000000000000e+00 1.1719214224631520e+01 8.6994251620889482e+00 9.4554599791994789e+01 
774 775 2 1.0280000126407614e+00 1.6800750605392175e+03 1.0000000000000000e+00 1.1327815626350647e+01 8.9494903930703824e+00 9.5149885275958212e+01 
1317 1318 2 1.0279999697560165e+00 8.7304931841844200e+02 1.0000000000000000e+00 1.2853510283232945e+01 9.6622725309674671e+00 9.5212838016733642e+01 
31 32 2 1.0280000337600050e+00 -2.8301813656758932e+03 1.0000000000000000e+00 1.3996215139229207e+01 9.1460982626866851e+00 9.4544764644848939e+01 
692 693 2 1.0279999904644197e+00 1.7324425518998696e+03 1.0000000000000000e+00 1.5212694001849368e+01 9.2298598759310355e+00 9.4489177529406064e+01 
886 887 2 1.0280000032386081e+00 8.1151671304920899e+02 1.0000000000000000e+00 7.9623034191349644e+00 1.1870682412431904e+01 9.5691896062553170e+01 
936 937 2 1.0280000017326838e+00 5.9935671598444787e+03 1.0000000000000000e+00 6.9436902310829156e+00 1.2366768014513246e+01 9.4902938923600459e+01 
116 117 2 1.0279999982036194e+00 3.6118284034246412e+03 1.0000000000000000e+00 6.9493176727932893e+00 1.2417772617991677e+01 9.4913225049498081e+01 
844 845 2 1.0280000441421921e+00 1.6218843771517907e+03 1.0000000000000000e+00 9.2497571648829418e+00 1.3966781277136555e+01 9.5529514947084962e+01 
255 256 2 1.0279999870714398e+00 2.8606163910807390e+03 1.0000000000000000e+00 9.3061441130788118e+00 1.3998344541876703e+01 9.5672218597743026e+01 