LAMMPS data file via write_data, version 30 Jul 2016, timestep = 50000000

4620 atoms
8 atom types

0.0000000000000000e+00 1.0000000000000000e+02 xlo xhi
0.0000000000000000e+00 4.0000000000000000e+01 ylo yhi
0.0000000000000000e+00 4.0000000000000000e+01 zlo zhi

Masses

1 3.896
2 5.36
3 20.064
4 8.378
5 8.378
6 8.378
7 8.378
8 8.378

Atoms # meso-molecular

206 207 2 1.0280000000000000e+00 1.2357897451523479e+02 1.0000000000000000e+00 8.3566288910980191e+00 7.2025031517380391e+00 4.5962513175560038e-01 
4364 4365 2 1.0280000000000000e+00 1.2265755781659763e+02 1.0000000000000000e+00 8.6075471491421851e+00 6.1209309603908855e+00 1.8646832670886795e-01 
3860 3861 2 1.0280000000000000e+00 6.9690939947529864e+02 1.0000000000000000e+00 2.8163339274371854e+01 4.1350226732454018e+00 3.2680687328509475e+00 
4362 4363 2 1.0280000000000000e+00 -4.8563642053059266e+02 1.0000000000000000e+00 2.8973637521005454e+01 4.6786673915045558e+00 3.8640890255173796e+00 
929 930 2 1.0280000000000000e+00 -1.3798464529274453e+01 1.0000000000000000e+00 1.0104835486245866e+01 1.3967101000670429e+01 3.0129069316188462e+00 
1390 1391 2 1.0280000000000000e+00 -7.0237225106695519e+02 1.0000000000000000e+00 1.0603105551054409e+01 1.4289306282805669e+01 3.9902930969284349e+00 
682 683 2 1.0280000000000007e+00 1.5065484212993097e+03 1.0000000000000000e+00 2.8136302617702668e+01 8.3453659436542296e+00 6.7616596135638023e+00 
1145 1146 2 1.0280000000000007e+00 -6.3220802678247836e+01 1.0000000000000000e+00 2.7044892981360199e+01 8.6539935597592095e+00 6.9063904593945846e+00 
874 875 2 1.0279999999999994e+00 -2.9769885453509369e+02 1.0000000000000000e+00 2.9633332543320257e+01 1.4684416467445139e+01 6.0238468346202749e+00 
1336 1337 2 1.0279999999999994e+00 -3.9086637091985301e+02 1.0000000000000000e+00 2.9430162525914497e+01 1.5772814016109990e+01 6.3093039024018065e+00 
2865 2866 2 1.0280000000000007e+00 -5.8103949654321241e+02 1.0000000000000000e+00 2.4575082149375245e+01 2.2892796065181855e+00 1.2496244203793850e+01 
2446 2447 2 1.0280000000000007e+00 -3.4032480403833048e+01 1.0000000000000000e+00 2.5418335695153999e+01 2.6217355705786858e+00 1.3193215872479815e+01 
1601 1602 2 1.0279999999999994e+00 -2.1026879796594676e+03 1.0000000000000000e+00 2.8456428582770737e+01 3.7639856861019632e+00 1.2355880047388382e+01 
2064 2065 2 1.0279999999999994e+00 1.5522960563708534e+03 1.0000000000000000e+00 2.9489399497081322e+01 3.4157832360726976e+00 1.2700987511000390e+01 
4339 4340 2 1.0280000000000000e+00 8.3288240619820499e+02 1.0000000000000000e+00 3.1139449192733782e+01 9.8088524154458989e-01 1.5832479255848270e+01 
4253 4254 2 1.0280000000000000e+00 -1.3328929092318353e+03 1.0000000000000000e+00 3.1780618776446012e+01 1.7504902982424342e-01 1.5335586327481176e+01 
3448 3449 2 1.0280000000000000e+00 7.9238281450477211e+02 1.0000000000000000e+00 2.6457832372348623e+01 1.1438032739450591e+01 1.3161620530378132e+01 
3912 3913 2 1.0280000000000000e+00 1.3195266997397169e+02 1.0000000000000000e+00 2.5536565238601817e+01 1.1750703469307897e+01 1.3762350836278529e+01 
2941 2942 2 1.0280000000000000e+00 -8.6947575891200177e+02 1.0000000000000000e+00 2.8419154205888191e+01 2.7038645517592053e+00 1.8240328101635946e+01 
2479 2480 2 1.0280000000000000e+00 -5.8543456464722703e+02 1.0000000000000000e+00 2.8340298601438310e+01 3.8015743389543690e+00 1.8550470059780167e+01 
2307 2308 2 1.0280000000000000e+00 -1.0618423988982186e+03 1.0000000000000000e+00 3.2568110609406318e+01 6.7184775241905790e+00 1.7900758215038955e+01 
2266 2267 2 1.0280000000000000e+00 2.1234949860431351e+02 1.0000000000000000e+00 3.2390151300005712e+01 5.6681646036783278e+00 1.8316145107780439e+01 
3692 3693 2 1.0280000000000000e+00 -2.2105312714789044e+01 1.0000000000000000e+00 3.1829664220138967e+00 1.7679075871068687e+01 2.1494163506161314e+01 
3231 3232 2 1.0280000000000000e+00 -7.0629153874135204e+02 1.0000000000000000e+00 4.0912173344700378e+00 1.7871271420447243e+01 2.0826695028792980e+01 
3749 3750 2 1.0280000000000007e+00 9.1068219989543504e+00 1.0000000000000000e+00 3.3145333266891043e+01 1.7190894245008352e+01 2.2845182080361138e+01 
42 43 2 1.0279999999999994e+00 -9.9237421858137645e+02 1.0000000000000000e+00 2.0177233987649579e+01 4.4667235728010350e+00 2.4535080262126801e+01 
2013 2014 2 1.0279999999999994e+00 -1.3127270187948207e+03 1.0000000000000000e+00 2.0022225439408729e+01 4.3453449753054638e+00 2.5661407303221445e+01 
1433 1434 2 1.0279999999999991e+00 -8.8793828426305436e+02 1.0000000000000000e+00 1.5044133668422008e+01 1.9364962067051604e+01 2.5709404709723465e+01 
1935 1936 2 1.0279999999999991e+00 -3.0102583644893889e+02 1.0000000000000000e+00 1.5176523766490776e+01 1.8304938036941937e+01 2.6117074839831311e+01 
4500 4501 2 1.0280000000000002e+00 -1.3665090875932474e+03 1.0000000000000000e+00 9.7190864899838854e+00 3.0365681309683379e+00 3.0170398005046589e+01 
3955 3956 2 1.0280000000000002e+00 1.3023159228854231e+03 1.0000000000000000e+00 8.6551145997338761e+00 2.7287248728604827e+00 3.0454245433525521e+01 
631 632 2 1.0280000000000000e+00 2.9843497573938680e+02 1.0000000000000000e+00 1.6700918936235094e+01 6.6180850895887486e+00 3.0067084862975261e+01 
2019 2020 2 1.0280000000000000e+00 4.4628997513411980e+02 1.0000000000000000e+00 1.7232206917760145e+01 7.2099665306497291e+00 3.0888536296642130e+01 
3634 3635 2 1.0279999999999994e+00 -8.6316672272380742e+02 1.0000000000000000e+00 1.8948660887739170e+01 1.5170879495843188e+01 3.1122422316799504e+01 
3633 3634 2 1.0279999999999994e+00 -8.5444162408804391e+02 1.0000000000000000e+00 1.8117762299952950e+01 1.5942093434750028e+01 3.1271451222416530e+01 
3531 3532 2 1.0280000000000005e+00 6.3480321673106506e+00 1.0000000000000000e+00 1.7031420658624953e+01 2.5777245041483372e+00 3.2862568873772567e+01 
3615 3616 2 1.0280000000000005e+00 -9.2794270975424354e+01 1.0000000000000000e+00 1.7892998036332870e+01 2.7370633002390687e+00 3.3597190264518197e+01 
2565 2566 2 1.0280000000000000e+00 4.4241189988847213e+02 1.0000000000000000e+00 2.3196282545213599e+01 1.5693320845884082e+00 3.3616048967749393e+01 
3949 3950 2 1.0280000000000000e+00 3.1006167811809689e+02 1.0000000000000000e+00 2.4179392465319800e+01 1.0104310505256104e+00 3.3447236833792580e+01 
721 722 2 1.0280000000000000e+00 1.3030668198243791e+03 1.0000000000000000e+00 1.5436016445150893e+00 7.8216591668389910e+00 3.2419372620783875e+01 
342 343 2 1.0280000000000000e+00 -1.3643702429164387e+03 1.0000000000000000e+00 2.6637456696462118e+00 7.5976897721633092e+00 3.2469253385316875e+01 
3363 3364 2 1.0280000000000065e+00 6.0659276955611565e+00 1.0000000000000000e+00 3.2891050085951818e+01 1.7540354814888605e+01 3.5860248256091701e+01 
3279 3280 2 1.0280000000000065e+00 -9.1150534720677342e+01 1.0000000000000000e+00 3.1924733353400008e+01 1.8146637707834557e+01 3.5937875851508501e+01 
4553 4554 2 1.0280000000000002e+00 1.4667258725194574e+03 1.0000000000000000e+00 2.2766855920720420e+01 1.7725570369842920e+01 3.9920301346217357e+01 
4508 4509 2 1.0280000000000002e+00 -4.6012416758013978e+02 1.0000000000000000e+00 2.2289328966565833e+01 1.8710367892881496e+01 3.9589371045199655e+01 
306 307 2 1.0280000000000018e+00 -7.4451076477538800e+02 1.0000000000000000e+00 3.2817737713405499e+01 2.3205647157211160e+01 2.4584715874514620e+00 
852 853 2 1.0280000000000018e+00 2.3991063011479150e+02 1.0000000000000000e+00 3.2968262345134647e+01 2.4131930043708230e+01 1.8052370454344364e+00 
4107 4108 2 1.0280000000000000e+00 2.3294745304485855e+02 1.0000000000000000e+00 2.3208030932887977e+00 2.9451166017629376e+01 2.3482093362427245e+00 
3645 3646 2 1.0280000000000000e+00 -6.2810562269760112e+02 1.0000000000000000e+00 3.3956694564493217e+00 2.9467387519427255e+01 2.7377888296509774e+00 
2945 2946 2 1.0280000000000000e+00 3.8370844115853390e+02 1.0000000000000000e+00 2.4039041318299081e+01 3.8783856471318991e+01 1.1998252552347575e+00 
3029 3030 2 1.0280000000000000e+00 3.8839973379049604e+02 1.0000000000000000e+00 2.2901211094506174e+01 3.8884832205551028e+01 1.1496326225241216e+00 
1807 1808 2 1.0280000000000005e+00 -3.7688006399306920e+02 1.0000000000000000e+00 2.6503806493952336e+01 3.7508267850591679e+01 2.2470059921407275e+00 
2231 2232 2 1.0280000000000005e+00 -1.1259294910718640e+03 1.0000000000000000e+00 2.6286780663823222e+01 3.8524553986082147e+01 2.7239077611931792e+00 
806 807 2 1.0279999999999978e+00 4.3396710889168276e+02 1.0000000000000000e+00 2.9761372370040352e+01 3.6141126074756166e+01 8.6704985146471014e-03 
3989 3990 2 1.0279999999999985e+00 -4.2571762309091537e+02 1.0000000000000000e+00 2.0476878296826634e+01 2.2724817944025709e+01 4.7425525539432929e+00 
3612 3613 2 1.0279999999999985e+00 -1.0877336419569624e+03 1.0000000000000000e+00 2.1410509793132633e+01 2.2486733423936009e+01 4.1269057332272050e+00 
900 901 2 1.0280000000000036e+00 3.2516847301580196e+02 1.0000000000000000e+00 1.5888237481015778e+01 3.5950611674353318e+01 5.4253815952316273e+00 
4584 4585 2 1.0280000000000002e+00 6.4637088843154629e+02 1.0000000000000000e+00 3.6938182384357803e+00 3.9284333017335307e+01 7.0995014221335246e+00 
4615 4616 2 1.0280000000000002e+00 6.2098130355876390e+02 1.0000000000000000e+00 3.2308838148493351e+00 3.9501631151500646e+01 6.0768351726632064e+00 
2246 2247 2 1.0280000000000036e+00 -6.5713946943541919e+02 1.0000000000000000e+00 1.6251297043309702e+01 3.6900736593325533e+01 5.9477065994519034e+00 
1599 1600 2 1.0280000000000005e+00 -6.0354184116793840e+02 1.0000000000000000e+00 4.7854936440588034e+00 2.2505600507632519e+01 1.0357701950444104e+01 
1600 1601 2 1.0280000000000005e+00 4.6479711105555043e+02 1.0000000000000000e+00 5.8958793170344883e+00 2.2688934409442080e+01 1.0559705304763670e+01 
158 159 2 1.0279999999999996e+00 3.1110522122644136e+02 1.0000000000000000e+00 3.1073124588438031e+01 2.3962711891091992e+01 1.1878046629378522e+01 
506 507 2 1.0279999999999989e+00 -1.4806102843223272e+02 1.0000000000000000e+00 2.4206180087520103e+01 2.7211987040661519e+01 1.1249784589853617e+01 
1056 1057 2 1.0279999999999989e+00 -6.7667614276969346e+01 1.0000000000000000e+00 2.5131799853290186e+01 2.6736921594415314e+01 1.0775533719050646e+01 
1075 1076 2 1.0279999999999996e+00 -7.2587880679010686e+02 1.0000000000000000e+00 3.2947072045762205e+01 2.4812823168949631e+01 8.3030717874995048e+00 
3406 3407 2 1.0279999999999996e+00 7.4795555034230620e+02 1.0000000000000000e+00 1.6597365988769582e+01 3.9017593947963093e+01 1.0775234286671761e+01 
2901 2902 2 1.0279999999999996e+00 -1.6777922817765815e+02 1.0000000000000000e+00 1.7289581988762809e+01 3.8118099494966593e+01 1.0913508491933072e+01 
663 664 2 1.0279999999999996e+00 8.9020356291813741e+01 1.0000000000000000e+00 3.2041610693051197e+01 2.3713979259937723e+01 1.2432609304672335e+01 
1467 1468 2 1.0279999999999994e+00 -1.2485770622056607e+03 1.0000000000000000e+00 3.2945184912139617e+01 2.7735301317574979e+01 1.2980076677040950e+01 
1432 1433 2 1.0279999999999994e+00 -1.2787368124375157e+03 1.0000000000000000e+00 3.3222841872654627e+01 2.7595553028234821e+01 1.4080417553934474e+01 
2563 2564 2 1.0280000000000025e+00 -5.9816991595648369e+02 1.0000000000000000e+00 2.0727517423576849e+00 3.5970208949641147e+01 1.5698763157256675e+01 
3858 3859 2 1.0279999999999996e+00 -8.3630444164049595e+02 1.0000000000000000e+00 3.2940726974616751e+01 3.5522385595002945e+01 1.3429242342420180e+01 
3188 3189 2 1.0279999999999996e+00 -8.9379845666250935e+02 1.0000000000000000e+00 1.3576717571408533e+01 2.2872793406626531e+01 1.7376133484288971e+01 
2686 2687 2 1.0279999999999996e+00 -2.9865537724039405e+02 1.0000000000000000e+00 1.4226776519142202e+01 2.3474519566571434e+01 1.6653138318075463e+01 
3782 3783 2 1.0279999999999989e+00 8.0051023168221468e+02 1.0000000000000000e+00 1.6286287245623150e+01 2.9855063086793905e+01 1.6040965265029168e+01 
3278 3279 2 1.0279999999999989e+00 3.5514317028202146e+02 1.0000000000000000e+00 1.6455866769137728e+01 2.9742390785379506e+01 1.7166096704087423e+01 
3025 3026 2 1.0280000000000025e+00 -8.7835715004080225e+02 1.0000000000000000e+00 3.0565728116655291e+00 3.5541120797343034e+01 1.6092910945024272e+01 
495 496 2 1.0280000000000018e+00 3.3626865512039399e+02 1.0000000000000000e+00 2.7534833071126318e+01 3.5888905587724700e+01 1.8201827599099516e+01 
496 497 2 1.0280000000000018e+00 -7.6635232755611491e+02 1.0000000000000000e+00 2.7157966453523532e+01 3.6952682035894298e+01 1.8018185996201261e+01 
3867 3868 2 1.0280000000000038e+00 6.0699420667306441e+01 1.0000000000000000e+00 2.9752273374141218e+01 3.7206300437086199e+01 1.8277750694379638e+01 
3825 3826 2 1.0280000000000038e+00 -8.7203404170270437e+02 1.0000000000000000e+00 2.9477440478341045e+01 3.8254295560683886e+01 1.7912311071787503e+01 
4531 4532 2 1.0279999999999994e+00 -1.3533397392344132e+03 1.0000000000000000e+00 1.0294307897043877e+01 2.3284107973331089e+01 2.4995717012842665e+01 
3697 3698 2 1.0279999999999994e+00 3.5621447011860916e+01 1.0000000000000000e+00 1.8308543073062364e+01 2.2279663328404229e+01 2.6039863871367082e+01 
3235 3236 2 1.0279999999999994e+00 7.1576103434874153e+02 1.0000000000000000e+00 1.7394740654528682e+01 2.1742214300972950e+01 2.6468217347195061e+01 
513 514 2 1.0279999999999996e+00 -3.1473003800531819e+02 1.0000000000000000e+00 4.4765054098265074e+00 2.7289676517492225e+01 2.7938396501988734e+01 
3984 3985 2 1.0279999999999994e+00 1.2907387542392501e+03 1.0000000000000000e+00 1.0421175885617663e+01 2.4366511787948738e+01 2.4649769743688609e+01 
3954 3955 2 1.0280000000000007e+00 1.6815786753028920e+03 1.0000000000000000e+00 2.1921816735022141e+01 2.7730014406076105e+01 2.4111940990021544e+01 
2224 2225 2 1.0280000000000009e+00 -3.0064290795732484e+02 1.0000000000000000e+00 3.2379205787008068e+01 2.7892605814249325e+01 2.5804043786249878e+01 
3491 3492 2 1.0280000000000007e+00 4.4417213623023883e+02 1.0000000000000000e+00 2.1932688377644258e+01 2.8228131743536977e+01 2.5141083323698634e+01 
1802 1803 2 1.0280000000000009e+00 -8.9230724510287087e+02 1.0000000000000000e+00 3.2725672894698597e+01 2.8782445811708577e+01 2.6432946274453744e+01 
6 7 2 1.0279999999999994e+00 6.7393880936879793e+02 1.0000000000000000e+00 1.6324760633187051e+01 3.2097440008408668e+01 2.7920735825375097e+01 
975 976 2 1.0279999999999996e+00 -4.0535607955258433e+02 1.0000000000000000e+00 3.4744080969339346e+00 2.7497177078982098e+01 2.8448413668301413e+01 
37 38 2 1.0279999999999994e+00 6.6372008596717069e+02 1.0000000000000000e+00 1.6360941066318986e+01 3.2048201276421153e+01 2.9062506179250775e+01 
4496 4497 2 1.0279999999999985e+00 1.1370713605388730e+03 1.0000000000000000e+00 2.1417966035507806e+01 2.9570626775363007e+01 3.5514671012479226e+01 
4454 4455 2 1.0279999999999985e+00 -4.7997324594511986e+02 1.0000000000000000e+00 2.2418248642397057e+01 2.9983208072709733e+01 3.5884244275707623e+01 
4530 4531 2 1.0279999999999991e+00 -2.0928690576368272e+03 1.0000000000000000e+00 2.3698821776451926e+01 3.2570895653441177e+01 3.4462007959819324e+01 
4532 4533 2 1.0279999999999991e+00 -6.8630579418674552e+02 1.0000000000000000e+00 2.4738513444988143e+01 3.2332798219852208e+01 3.4050032397493759e+01 
383 384 2 1.0279999999999980e+00 -8.2619348276865750e+01 1.0000000000000000e+00 2.9288897436921669e+01 3.5100428376850068e+01 3.9975674186505643e+01 
184 185 2 1.0280000001799605e+00 1.0494332465976672e+03 1.0000000000000000e+00 4.1341894557690829e+01 3.4301940856004922e+00 2.1981182865677447e+00 
3786 3787 2 1.0280000000880110e+00 -6.0931436448518571e+02 1.0000000000000000e+00 4.0826996730229645e+01 1.5204102010411655e+00 2.9279242615379313e+00 
552 553 2 1.0279999998718681e+00 -6.0900094342788293e+02 1.0000000000000000e+00 4.0583627458349902e+01 3.1121819282872658e+00 3.2252823247715674e+00 
1062 1063 2 1.0279999999064480e+00 2.9189800399287566e+02 1.0000000000000000e+00 4.1924843200683050e+01 2.5745015263661140e+00 4.7779027671716501e-01 
2950 2951 2 1.0279999999513658e+00 4.0889469432951245e+02 1.0000000000000000e+00 4.2923394341855953e+01 2.9369979197220757e+00 1.6257868111956297e+00 
1578 1579 2 1.0280000001762595e+00 1.2463065526302753e+03 1.0000000000000000e+00 4.5507230407647761e+01 1.6309021541273965e+00 5.9626539288137703e-01 
654 655 2 1.0280000005690866e+00 2.1644231947346825e+03 1.0000000000000000e+00 4.3863726598391509e+01 2.0663461926309354e+00 2.5263223703363917e+00 
3835 3836 2 1.0280000003480196e+00 -1.8051234472179531e+03 1.0000000000000000e+00 4.3207930121609110e+01 8.0334392072337213e-01 8.1053843001083203e-01 
3888 3889 2 1.0279999999127272e+00 2.1459308796804153e+03 1.0000000000000000e+00 4.4872338508272804e+01 7.6804210511998161e-01 1.4411322883865951e+00 
2947 2948 2 1.0279999996039879e+00 7.9911286568786659e+02 1.0000000000000000e+00 4.2150973042866674e+01 5.3542723671311943e-01 2.1077137165011566e+00 
3421 3422 2 1.0279999997744718e+00 8.2693452856406270e+02 1.0000000000000000e+00 4.2435439906710819e+01 2.2530742645456279e+00 3.4129014644740607e+00 
2959 2960 2 1.0279999997726399e+00 1.2212040212192360e+03 1.0000000000000000e+00 4.2855676476196940e+01 3.8072942492248911e+00 3.5039305504801099e+00 
2799 2800 2 1.0279999996481435e+00 -8.5387251239581087e+02 1.0000000000000000e+00 4.4849458081762229e+01 1.8491274195771508e+00 3.7179873250825421e+00 
2485 2486 2 1.0280000001703300e+00 -1.7933075257965788e+03 1.0000000000000000e+00 4.3178582965960373e+01 2.7894401007625041e-01 3.7882279128086078e+00 
3384 3385 2 1.0279999997198597e+00 -2.1060551453517007e+02 1.0000000000000000e+00 4.7086211187185931e+01 3.4396683505823056e+00 1.4609208530668627e+00 
2969 2970 2 1.0279999997456504e+00 1.0738908028459928e+03 1.0000000000000000e+00 4.8523084217507524e+01 2.0188467219968511e+00 2.0233740981012600e+00 
4235 4236 2 1.0279999990246922e+00 2.2325538768504691e+02 1.0000000000000000e+00 4.9822319778062131e+01 1.9306328263195991e+00 1.0307653586388879e+00 
3899 3900 2 1.0280000003899274e+00 -2.6904505498505148e+02 1.0000000000000000e+00 4.8130132632633874e+01 1.6962917887065583e+00 2.8760691460211046e-01 
2886 2887 2 1.0280000000318432e+00 4.6671498546601924e+02 1.0000000000000000e+00 4.5926260107954079e+01 1.4538151203384091e+00 2.7318384500460917e+00 
2973 2974 2 1.0280000001553251e+00 4.3761678149302782e+02 1.0000000000000000e+00 4.7312640154474515e+01 8.5579263307511289e-01 2.4267166689214665e+00 
2008 2009 2 1.0279999994664897e+00 1.7529044225845375e+03 1.0000000000000000e+00 4.8695408692829965e+01 3.8948090863148632e+00 2.8678519681810113e+00 
2971 2972 2 1.0280000002082377e+00 1.0222646946172704e+03 1.0000000000000000e+00 4.7097348116149320e+01 3.1268027365409754e+00 3.1229697723978154e+00 
4358 4359 2 1.0279999996948028e+00 1.2292682236176265e+03 1.0000000000000000e+00 4.9138009326080756e+01 5.1420727857012072e-01 2.9828168581421677e+00 
2888 2889 2 1.0279999985954995e+00 -1.2956654222585576e+02 1.0000000000000000e+00 4.8295172652910345e+01 1.9848712266834745e+00 3.6693248278395476e+00 
2470 2471 2 1.0280000005356822e+00 1.7737904649381962e+03 1.0000000000000000e+00 5.0468138988296367e+01 3.4641070120809712e+00 1.8367753218739240e+00 
4569 4570 2 1.0279999989495510e+00 -9.9155627388233398e+01 1.0000000000000000e+00 5.1902990924231965e+01 3.8599110264448298e+00 7.7924566949949525e-01 
3062 3063 2 1.0280000002571434e+00 4.0616768427175191e+02 1.0000000000000000e+00 5.3874386474343723e+01 3.7524872558427225e+00 3.0129462859348577e-01 
4191 4192 2 1.0279999989109734e+00 7.7001315191567676e+02 1.0000000000000000e+00 5.3297558101201965e+01 2.7874491289930567e+00 1.7164042169358287e+00 
3862 3863 2 1.0280000010770303e+00 -8.0760064786895737e+02 1.0000000000000000e+00 5.3208919693119668e+01 1.4759788160991711e+00 1.8809495678351451e+00 
3986 3987 2 1.0280000005293657e+00 4.2671811379979295e+02 1.0000000000000000e+00 5.2070277511588550e+01 1.3293014718795300e+00 5.9127829891971351e-01 
2975 2976 2 1.0280000003123690e+00 -2.7400327575282506e+02 1.0000000000000000e+00 5.1706188298909723e+01 2.9621412062608523e+00 2.7423219719457710e+00 
4234 4235 2 1.0279999995439038e+00 -1.2972753964700047e+02 1.0000000000000000e+00 5.0804015938972498e+01 4.4498919045973484e-01 1.0890251845613141e+00 
3435 3436 2 1.0279999983931141e+00 9.0378743677103171e+02 1.0000000000000000e+00 5.1549721759565415e+01 1.2637740410909786e+00 3.4265075392091644e+00 
838 839 2 1.0280000013413728e+00 -1.2594649978426584e+02 1.0000000000000000e+00 5.3183966762334080e+01 3.5125444469980645e+00 3.9136349527138536e+00 
2007 2008 2 1.0279999997962688e+00 -7.6397808953975257e+01 1.0000000000000000e+00 5.4592812428172294e+01 7.5433936693524850e-01 2.8319012550588316e+00 
4322 4323 2 1.0280000006198735e+00 -2.0553327451390942e+02 1.0000000000000000e+00 5.4431188863208867e+01 3.7940255062827930e+00 3.0254459656655577e+00 
3148 3149 2 1.0280000001422729e+00 7.7074274065031517e+01 1.0000000000000000e+00 5.5933598323056280e+01 3.6074396724608135e+00 3.4798106495901147e+00 
1344 1345 2 1.0280000010617267e+00 -3.5278105282898798e+02 1.0000000000000000e+00 5.7617942166350481e+01 1.2030022284719584e+00 3.8388688911836732e+00 
976 977 2 1.0279999950968401e+00 -6.4168727603028560e+02 1.0000000000000000e+00 6.0231150183473545e+01 5.8052112267712996e-01 7.1127863355989618e-01 
514 515 2 1.0280000047885787e+00 2.3731395653449954e+02 1.0000000000000000e+00 5.9630028896772480e+01 1.5119167059908252e+00 9.9335903019447080e-01 
1303 1304 2 1.0279999988859818e+00 -3.4996819231823997e+02 1.0000000000000000e+00 5.8543803783464746e+01 1.0795654558450172e+00 3.0341543987759447e+00 
4026 4027 2 1.0280000024566076e+00 -8.8604235136013813e+02 1.0000000000000000e+00 6.2358770057042044e+01 2.6824627907096685e+00 1.2615588038194545e+00 
4456 4457 2 1.0280000013402648e+00 -9.3980008293152832e+02 1.0000000000000000e+00 6.1270428060919883e+01 3.3373332340046340e+00 3.4879985345792228e+00 
4573 4574 2 1.0279999974777714e+00 6.4076949229619345e+02 1.0000000000000000e+00 6.3390426200597730e+01 2.2401844819172001e+00 1.0127347377389631e+00 
95 96 2 1.0280000000309797e+00 -1.3122040533742861e+03 1.0000000000000000e+00 6.5572456631325068e+01 1.7183481500259858e+00 2.2439828362812566e+00 
3064 3065 2 1.0279999991669655e+00 -1.1917455470484120e+01 1.0000000000000000e+00 6.4867361403713346e+01 5.7432420810602547e-01 1.4060516032511791e-01 
538 539 2 1.0280000012481771e+00 -3.0618645929223544e+02 1.0000000000000000e+00 6.2815424203773659e+01 7.9567103146113027e-01 2.8417462498789603e+00 
181 182 2 1.0280000000455383e+00 8.4874648140509998e+02 1.0000000000000000e+00 6.4672897238494471e+01 2.4490959968768591e+00 2.9527586508206727e+00 
1000 1001 2 1.0279999992850453e+00 -3.9916469083569496e+02 1.0000000000000000e+00 6.3020881909116731e+01 2.0012491095991467e+00 3.1912109779985061e+00 
215 216 2 1.0279999997879483e+00 1.4285596432390280e+03 1.0000000000000000e+00 6.4968375560429735e+01 6.9172433986324000e-01 3.2471363186604676e+00 
3987 3988 2 1.0280000007876064e+00 -4.3277623824402144e+02 1.0000000000000000e+00 6.4448259226347275e+01 1.1338614705715870e-01 1.3408613388900630e+00 
1933 1934 2 1.0280000000592449e+00 -5.0706759545527757e+02 1.0000000000000000e+00 4.1141872312730101e+01 6.9801408158485012e+00 1.6053228972893283e+00 
511 512 2 1.0280000001557483e+00 -2.3586215706135920e+02 1.0000000000000000e+00 3.9365612668635137e+01 7.1940214942854075e+00 3.2658460972327781e+00 
2023 2024 2 1.0279999995186735e+00 -1.7944879870333311e+03 1.0000000000000000e+00 4.1709969722311421e+01 6.5158348275383426e+00 3.7559160440984840e+00 
601 602 2 1.0279999998768310e+00 -1.7939393953167628e+03 1.0000000000000000e+00 4.2539201809800566e+01 4.2701349828014896e+00 2.2310282142003043e-01 
1033 1034 2 1.0280000001375789e+00 -8.8364158289414877e+02 1.0000000000000000e+00 4.5728393690543420e+01 4.7962648026506622e+00 2.2843632150385003e+00 
1500 1501 2 1.0279999995440647e+00 4.5114325157862220e+02 1.0000000000000000e+00 4.4050542277480901e+01 4.8163062075649545e+00 2.3823401615773081e+00 
189 190 2 1.0279999998493352e+00 1.3262400554383680e+02 1.0000000000000000e+00 4.3836555938488296e+01 5.0655603439747887e+00 1.0393200243728906e+00 
1413 1414 2 1.0279999998416010e+00 -8.3741001485264087e+02 1.0000000000000000e+00 4.5322351120216723e+01 6.4596258241546574e+00 1.1942705786102479e+00 
1110 1111 2 1.0279999998415177e+00 6.2259720058111157e+02 1.0000000000000000e+00 4.2868294010041886e+01 7.4607339816680716e+00 1.5546849376122380e+00 
1564 1565 2 1.0279999998590643e+00 4.1327566492491593e+02 1.0000000000000000e+00 4.4349962043490514e+01 7.7099132993807906e+00 1.7068370749700288e+00 
3379 3380 2 1.0279999999094007e+00 -2.3448932068899632e+02 1.0000000000000000e+00 4.2404975448209150e+01 6.1381145002163713e+00 2.3835867973646865e+00 
3844 3845 2 1.0279999997062608e+00 -2.1456349217099914e+03 1.0000000000000000e+00 4.4026080746429606e+01 6.6302095731235235e+00 3.0711365845678875e+00 
2952 2953 2 1.0280000004558985e+00 1.0524049460630868e+03 1.0000000000000000e+00 4.2903904039782788e+01 7.6761034497004106e+00 3.5708649699072814e+00 
1032 1033 2 1.0279999997003435e+00 -9.3012474640571236e+02 1.0000000000000000e+00 4.5221652755699431e+01 7.7711965105111034e+00 3.6442303416849793e+00 
3427 3428 2 1.0280000002940546e+00 5.8951695217767133e+02 1.0000000000000000e+00 4.9126701082228521e+01 4.0555071865685157e+00 1.4584647677264608e+00 
652 653 2 1.0279999999385567e+00 1.1787740571288396e+03 1.0000000000000000e+00 4.6576162401147513e+01 4.3637377725405422e+00 6.7185723165308087e-01 
1583 1584 2 1.0280000001492551e+00 1.0849869748533110e+03 1.0000000000000000e+00 4.7908977725389320e+01 5.4871281525460338e+00 1.0297214541440805e+00 
2046 2047 2 1.0279999998463405e+00 6.5155745493851782e+02 1.0000000000000000e+00 4.6796690080420497e+01 5.9095779772698451e+00 1.9306378477301844e+00 
1589 1590 2 1.0280000006649217e+00 -2.6355634190186140e+02 1.0000000000000000e+00 4.9214646372550270e+01 7.0097387035305871e+00 2.3135476849890910e+00 
2047 2048 2 1.0279999995712565e+00 -3.1986911480890410e+02 1.0000000000000000e+00 4.6491619683659998e+01 4.6556270410914502e+00 3.7452243306296586e+00 
1585 1586 2 1.0279999999652691e+00 1.0170426354055342e+03 1.0000000000000000e+00 4.7099929292794876e+01 7.5077077979215066e+00 3.7956975371332704e+00 
1409 1410 2 1.0279999993082429e+00 -8.6660613315301998e+02 1.0000000000000000e+00 5.0003156778207781e+01 6.3911396429670919e+00 3.3249932836665970e+00 
2223 2224 2 1.0280000001663121e+00 8.6824323257711762e+02 1.0000000000000000e+00 5.0659195675818857e+01 4.5802217697906658e+00 7.6313916765681656e-03 
3385 3386 2 1.0279999988209145e+00 -7.6354978513545757e+02 1.0000000000000000e+00 5.2460606584205017e+01 4.7412046807496324e+00 2.1868642281266983e+00 
3106 3107 2 1.0280000009359711e+00 -1.5838181835126494e+02 1.0000000000000000e+00 5.3429367677665596e+01 5.5273468409107727e+00 3.3970842794338252e-01 
411 412 2 1.0279999991038840e+00 -9.2670079626833257e+01 1.0000000000000000e+00 5.0801147275147031e+01 6.4347981963085266e+00 1.3595010955003686e+00 
1252 1253 2 1.0280000007672982e+00 -1.4184867737411550e+03 1.0000000000000000e+00 5.2184947322529140e+01 6.6125288317962241e+00 1.2766843185609567e+00 
2966 2967 2 1.0280000001042489e+00 1.3200969645536838e+03 1.0000000000000000e+00 5.1212408270449458e+01 4.9801556713824056e+00 2.9841965899902529e+00 
1216 1217 2 1.0279999994917250e+00 6.4434410998463522e+02 1.0000000000000000e+00 5.3033426322319464e+01 5.7640314480457695e+00 3.2947056836426429e+00 
2978 2979 2 1.0279999992887239e+00 3.8467326590286200e+02 1.0000000000000000e+00 5.4524970403405007e+01 5.0004472320438289e+00 1.7376078413716658e+00 
2938 2939 2 1.0279999999912748e+00 -2.0263997689686894e+02 1.0000000000000000e+00 5.4357219214076785e+01 6.5119328247375350e+00 2.0901846325176474e+00 
3441 3442 2 1.0280000006148002e+00 7.6320606435639911e+02 1.0000000000000000e+00 5.5642527155645006e+01 6.0695653722067364e+00 2.5314497873691217e+00 
4611 4612 2 1.0279999996152396e+00 7.7081095361477128e+02 1.0000000000000000e+00 5.6834277496685800e+01 4.9278454576295978e+00 3.2235125692872111e+00 
2018 2019 2 1.0279999997004945e+00 -5.4113155962756437e+01 1.0000000000000000e+00 4.0662013105534044e+01 8.0618887002832462e+00 3.4795244007620578e+00 
136 137 2 1.0279999999224112e+00 2.5320433264810819e+02 1.0000000000000000e+00 4.0751931438572150e+01 8.1839861007638888e+00 1.0694571628157261e+00 
45 46 2 1.0280000000228748e+00 1.3875757401874948e+03 1.0000000000000000e+00 3.9669919910704770e+01 8.2645008709977521e+00 2.1478859028873996e+00 
51 52 2 1.0279999999046694e+00 -1.0367519389157039e+02 1.0000000000000000e+00 4.1041561731200169e+01 9.9189565185260484e+00 3.2140285857136210e+00 
651 652 2 1.0279999996153382e+00 1.1614590760916135e+03 1.0000000000000000e+00 4.5559996399882621e+01 8.6841893557542029e+00 3.3661756648625957e-01 
603 604 2 1.0279999996743254e+00 -8.9323841203241341e+02 1.0000000000000000e+00 4.3985926742447255e+01 9.2363702951007074e+00 8.2641875831190970e-01 
1568 1569 2 1.0279999997405538e+00 1.1264787356561187e+03 1.0000000000000000e+00 4.2742972579230724e+01 9.3247324085061134e+00 1.6512316496021375e+00 
649 650 2 1.0280000000808769e+00 2.1180376292010351e+03 1.0000000000000000e+00 4.4919538681268982e+01 1.1039331963493876e+01 1.0977880717918129e+00 
1522 1523 2 1.0279999994021303e+00 -2.2320414164130680e+03 1.0000000000000000e+00 4.3318603641114386e+01 1.1241079382124159e+01 2.1789091576674386e+00 
933 934 2 1.0280000001116203e+00 5.3850998592751046e+02 1.0000000000000000e+00 4.1818395606954915e+01 1.1606648636006637e+01 3.0843082676975033e+00 
1561 1562 2 1.0279999999470335e+00 7.7643152441789243e+02 1.0000000000000000e+00 4.2441556820312435e+01 9.3548075553507530e+00 3.1114895323434122e+00 
1069 1070 2 1.0280000005427636e+00 -2.4165137529503909e+02 1.0000000000000000e+00 4.4107546609940549e+01 1.1730392397874033e+01 3.4701129723711284e+00 
162 163 2 1.0279999999177241e+00 2.1264946711276053e+02 1.0000000000000000e+00 4.9320654022600131e+01 8.1842277647838113e+00 2.4619699596974943e-03 