LAMMPS data file via write_data, version 30 Jul 2016, timestep = 50400000

4620 atoms
8 atom types

0.0000000000000000e+00 1.0000000000000000e+02 xlo xhi
0.0000000000000000e+00 4.0000000000000000e+01 ylo yhi
0.0000000000000000e+00 4.0000000000000000e+01 zlo zhi

Masses

1 3.896
2 5.36
3 20.064
4 8.378
5 8.378
6 8.378
7 8.378
8 8.378

Atoms # meso-molecular

3860 3861 2 1.0280000000000000e+00 6.9690939947529864e+02 1.0000000000000000e+00 2.7962570510269277e+01 3.9915390010129101e+00 3.2617896375627833e+00 
206 207 2 1.0280000000000002e+00 1.2357897451523479e+02 1.0000000000000000e+00 7.7251230424404680e+00 6.8984962005393076e+00 1.1526270742313167e+00 
4364 4365 2 1.0280000000000002e+00 1.2265755781659763e+02 1.0000000000000000e+00 7.9760413006257949e+00 5.8169240092224959e+00 8.7947026919411586e-01 
4362 4363 2 1.0280000000000000e+00 -4.8563642053059266e+02 1.0000000000000000e+00 2.8772868756902877e+01 4.5351837192720641e+00 3.8578099302292155e+00 
929 930 2 1.0280000000000000e+00 -1.3798464529274453e+01 1.0000000000000000e+00 1.0648313918281593e+01 1.3367724283167664e+01 3.3938123888389837e+00 
4553 4554 2 1.0280000000000000e+00 1.4667258725194574e+03 1.0000000000000000e+00 2.2776952225668058e+01 1.7344297202317176e+01 6.4448041846653414e-01 
4508 4509 2 1.0280000000000000e+00 -4.6012416758013978e+02 1.0000000000000000e+00 2.2299425271513471e+01 1.8329094725177086e+01 3.1355011691714713e-01 
682 683 2 1.0280000000000007e+00 1.5065484212993097e+03 1.0000000000000000e+00 2.7961078410647488e+01 8.3880750048307675e+00 7.4165906594929769e+00 
1145 1146 2 1.0280000000000007e+00 -6.3220802678247836e+01 1.0000000000000000e+00 2.6869668774305019e+01 8.6967026209357474e+00 7.5613215053237592e+00 
1390 1391 2 1.0280000000000000e+00 -7.0237225106695519e+02 1.0000000000000000e+00 1.1146583983090135e+01 1.3689929565302904e+01 4.3711985541485721e+00 
874 875 2 1.0279999999999994e+00 -2.9769885453509369e+02 1.0000000000000000e+00 3.0041245399168993e+01 1.3988661548522764e+01 6.8071678565335274e+00 
1336 1337 2 1.0279999999999994e+00 -3.9086637091985301e+02 1.0000000000000000e+00 2.9838075381763232e+01 1.5077059097187615e+01 7.0926249243150590e+00 
2865 2866 2 1.0280000000000002e+00 -5.8103949654321241e+02 1.0000000000000000e+00 2.5355770600504908e+01 1.1560390388584010e+00 1.2339346330611335e+01 
2446 2447 2 1.0280000000000002e+00 -3.4032480403833048e+01 1.0000000000000000e+00 2.6199024146283662e+01 1.4884950029189057e+00 1.3036317999297300e+01 
1601 1602 2 1.0279999999999994e+00 -2.1026879796594676e+03 1.0000000000000000e+00 2.8353377299353038e+01 3.6956177234467114e+00 1.2119443181924453e+01 
2064 2065 2 1.0279999999999994e+00 1.5522960563708534e+03 1.0000000000000000e+00 2.9386348213663624e+01 3.3474152734174458e+00 1.2464550645536461e+01 
3448 3449 2 1.0280000000000000e+00 7.9238281450477211e+02 1.0000000000000000e+00 2.6186711700479993e+01 1.1582157905652139e+01 1.3346530753689040e+01 
3912 3913 2 1.0280000000000000e+00 1.3195266997397169e+02 1.0000000000000000e+00 2.5265444566733187e+01 1.1894828635509445e+01 1.3947261059589437e+01 
2941 2942 2 1.0280000000000000e+00 -8.6947575891200177e+02 1.0000000000000000e+00 2.8378071861250902e+01 2.4447563251512983e+00 1.8630801935169579e+01 
2479 2480 2 1.0280000000000000e+00 -5.8543456464722703e+02 1.0000000000000000e+00 2.8299216256801021e+01 3.5424661123464620e+00 1.8940943893313801e+01 
4339 4340 2 1.0279999999999987e+00 8.3288240619820499e+02 1.0000000000000000e+00 3.0902842706507972e+01 6.0489001094363826e-01 1.6334697242157276e+01 
2266 2267 2 1.0280000000000000e+00 2.1234949860431351e+02 1.0000000000000000e+00 3.2348008962030875e+01 5.1480969816442794e+00 1.9357805820311196e+01 
2307 2308 2 1.0280000000000000e+00 -1.0618423988982186e+03 1.0000000000000000e+00 3.2525968271431481e+01 6.1984099021565306e+00 1.8942418927569712e+01 
3692 3693 2 1.0280000000000000e+00 -2.2105312714789044e+01 1.0000000000000000e+00 3.7833312554168743e+00 1.6957699355213332e+01 2.2359322403217831e+01 
3231 3232 2 1.0280000000000000e+00 -7.0629153874135204e+02 1.0000000000000000e+00 4.6915821678730154e+00 1.7149894904591889e+01 2.1691853925849497e+01 
3749 3750 2 1.0280000000000007e+00 9.1068219989543504e+00 1.0000000000000000e+00 3.3289630814313000e+01 1.6892558406486117e+01 2.2567747497320834e+01 
42 43 2 1.0279999999999994e+00 -9.9237421858137645e+02 1.0000000000000000e+00 1.9782621849483640e+01 4.5881948257683884e+00 2.5153777359947387e+01 
2013 2014 2 1.0279999999999994e+00 -1.3127270187948207e+03 1.0000000000000000e+00 1.9627613301242789e+01 4.4668162282728172e+00 2.6280104401042031e+01 
1433 1434 2 1.0279999999999991e+00 -8.8793828426305436e+02 1.0000000000000000e+00 1.5211034110333374e+01 1.9516141871726834e+01 2.6043023551076210e+01 
1935 1936 2 1.0279999999999991e+00 -3.0102583644893889e+02 1.0000000000000000e+00 1.5343424208402142e+01 1.8456117841617168e+01 2.6450693681184056e+01 
3955 3956 2 1.0280000000000002e+00 1.3023159228854231e+03 1.0000000000000000e+00 8.3300872240533561e+00 3.5728441213158821e+00 3.0545822790423209e+01 
4500 4501 2 1.0280000000000002e+00 -1.3665090875932474e+03 1.0000000000000000e+00 9.3940591143033654e+00 3.8806873794237373e+00 3.0261975361944277e+01 
631 632 2 1.0280000000000000e+00 2.9843497573938680e+02 1.0000000000000000e+00 1.7563228137701000e+01 5.4228370439841909e+00 3.0352493342758461e+01 
2019 2020 2 1.0280000000000000e+00 4.4628997513411980e+02 1.0000000000000000e+00 1.8094516119226050e+01 6.0147184850451714e+00 3.1173944776425330e+01 
3634 3635 2 1.0279999999999994e+00 -8.6316672272380742e+02 1.0000000000000000e+00 1.8606094616567152e+01 1.4696328337651572e+01 3.1280916266497417e+01 
3633 3634 2 1.0279999999999994e+00 -8.5444162408804391e+02 1.0000000000000000e+00 1.7775196028780933e+01 1.5467542276558412e+01 3.1429945172114444e+01 
3531 3532 2 1.0280000000000005e+00 6.3480321673106506e+00 1.0000000000000000e+00 1.6569155020945360e+01 2.4742138219893679e+00 3.2990009812285813e+01 
3615 3616 2 1.0280000000000005e+00 -9.2794270975424354e+01 1.0000000000000000e+00 1.7430732398653277e+01 2.6335526180800994e+00 3.3724631203031443e+01 
2565 2566 2 1.0280000000000000e+00 4.4241189988847213e+02 1.0000000000000000e+00 2.2308379077130503e+01 1.6057766371197866e+00 3.3873690433600004e+01 
3949 3950 2 1.0280000000000000e+00 3.1006167811809689e+02 1.0000000000000000e+00 2.3291488997236705e+01 1.0468756030569888e+00 3.3704878299643191e+01 
342 343 2 1.0280000000000000e+00 -1.3643702429164387e+03 1.0000000000000000e+00 3.0319679951659078e+00 8.0253839224811561e+00 3.3319223750696580e+01 
721 722 2 1.0280000000000000e+00 1.3030668198243791e+03 1.0000000000000000e+00 1.9118239700347852e+00 8.2493533171568387e+00 3.3269342986163579e+01 
3363 3364 2 1.0279999999999996e+00 6.0659276955611565e+00 1.0000000000000000e+00 3.3199878334130503e+01 1.8228483414675349e+01 3.4859697474309407e+01 
3279 3280 2 1.0279999999999996e+00 -9.1150534720677342e+01 1.0000000000000000e+00 3.2233561601361359e+01 1.8834766307274929e+01 3.4937325069726207e+01 
306 307 2 1.0279999999999987e+00 -7.4451076477538800e+02 1.0000000000000000e+00 3.2936352497533612e+01 2.3183168499698013e+01 3.0390352865735011e+00 
852 853 2 1.0279999999999987e+00 2.3991063011479150e+02 1.0000000000000000e+00 3.3086877129262760e+01 2.4109451386195083e+01 2.3858007445564651e+00 
4107 4108 2 1.0280000000000000e+00 2.3294745304485855e+02 1.0000000000000000e+00 1.5119936525343660e+00 2.9620646074995321e+01 2.5812561168715784e+00 
3645 3646 2 1.0280000000000000e+00 -6.2810562269760112e+02 1.0000000000000000e+00 2.5868600156948895e+00 2.9636867576793200e+01 2.9708356102798312e+00 
2945 2946 2 1.0280000000000029e+00 3.8370874103157109e+02 1.0000000000000000e+00 2.3663534288339797e+01 3.8669812161617607e+01 1.6589385768002738e+00 
3029 3030 2 1.0280000000000029e+00 3.8839982976850513e+02 1.0000000000000000e+00 2.2525312912690438e+01 3.8771403198389834e+01 1.6201522554852463e+00 
1807 1808 2 1.0280000000000000e+00 -3.7687965344790729e+02 1.0000000000000000e+00 2.6683959403826798e+01 3.7935101062874452e+01 2.3806045220467289e+00 
2231 2232 2 1.0280000000000000e+00 -1.1259288766316113e+03 1.0000000000000000e+00 2.6486965120432568e+01 3.8949758811913959e+01 2.8695175225721945e+00 
3989 3990 2 1.0279999999999985e+00 -4.2571762309091537e+02 1.0000000000000000e+00 2.0168292860866949e+01 2.2248636616767691e+01 4.6724352659675024e+00 
3612 3613 2 1.0279999999999985e+00 -1.0877336419569624e+03 1.0000000000000000e+00 2.1101924357172948e+01 2.2010552096677991e+01 4.0567884452514145e+00 
900 901 2 1.0279999999999996e+00 3.2516847301580196e+02 1.0000000000000000e+00 1.6677485033378961e+01 3.5544340808870480e+01 5.9864454131617331e+00 
4584 4585 2 1.0280000000000002e+00 6.4637088843154629e+02 1.0000000000000000e+00 3.6135567291747877e+00 3.7917237754740931e+01 7.3086309699459058e+00 
4615 4616 2 1.0280000000000002e+00 6.2098130355876390e+02 1.0000000000000000e+00 3.1506223055883424e+00 3.8134535888906271e+01 6.2859647204755875e+00 
2246 2247 2 1.0279999999999996e+00 -6.5713946943541919e+02 1.0000000000000000e+00 1.7040544595600519e+01 3.6494465727842694e+01 6.5087704174323271e+00 
1599 1600 2 1.0280000000000005e+00 -6.0354184116793840e+02 1.0000000000000000e+00 4.1805984594505361e+00 2.2461784007337794e+01 1.0357645868727056e+01 
1600 1601 2 1.0280000000000005e+00 4.6479711105555043e+02 1.0000000000000000e+00 5.2909841324262210e+00 2.2645117909147356e+01 1.0559649223046621e+01 
1056 1057 2 1.0279999999999989e+00 -6.7667614276969346e+01 1.0000000000000000e+00 2.5021559523003571e+01 2.7904559844325711e+01 1.0721628336848244e+01 
1075 1076 2 1.0280000000000014e+00 -7.2587880679010686e+02 1.0000000000000000e+00 3.2977211813421626e+01 2.4295288672269503e+01 8.1676427282436030e+00 
506 507 2 1.0279999999999989e+00 -1.4806102843223272e+02 1.0000000000000000e+00 2.4095939757233488e+01 2.8379625290571916e+01 1.1195879207651215e+01 
3406 3407 2 1.0279999999999996e+00 7.4795555034230620e+02 1.0000000000000000e+00 1.6210495566138945e+01 3.9558869448117463e+01 1.1317697216713881e+01 
2901 2902 2 1.0279999999999996e+00 -1.6777922817765815e+02 1.0000000000000000e+00 1.6902711566132172e+01 3.8659374995120963e+01 1.1455971421975192e+01 
158 159 2 1.0279999999999994e+00 3.1110522122644136e+02 1.0000000000000000e+00 3.1840822756585062e+01 2.2865331883783135e+01 1.2218461261328192e+01 
663 664 2 1.0279999999999994e+00 8.9020356291813741e+01 1.0000000000000000e+00 3.2809308861198232e+01 2.2616599252628873e+01 1.2773023936622005e+01 
1467 1468 2 1.0279999999999994e+00 -1.2485770622056607e+03 1.0000000000000000e+00 3.2856630351832742e+01 2.7881052697962062e+01 1.3595272262892275e+01 
1432 1433 2 1.0279999999999994e+00 -1.2787368124375157e+03 1.0000000000000000e+00 3.3134287312347752e+01 2.7741304408621904e+01 1.4695613139785799e+01 
3858 3859 2 1.0279999999999996e+00 -8.3630444164049595e+02 1.0000000000000000e+00 3.2960712930262758e+01 3.4689921933976095e+01 1.3866320878628626e+01 
4253 4254 2 1.0279999999999974e+00 -1.3328929092318353e+03 1.0000000000000000e+00 3.1544012290220202e+01 3.9799053799223287e+01 1.5837804313790182e+01 
3188 3189 2 1.0279999999999996e+00 -8.9379845666250935e+02 1.0000000000000000e+00 1.3306390479852478e+01 2.3039725872698998e+01 1.7310941940037196e+01 
2686 2687 2 1.0279999999999996e+00 -2.9865537724039405e+02 1.0000000000000000e+00 1.3956449427586147e+01 2.3641452032643901e+01 1.6587946773823688e+01 
3782 3783 2 1.0280000000000007e+00 8.0051023168221468e+02 1.0000000000000000e+00 1.5367334022425210e+01 2.9622372863437647e+01 1.7527547025473861e+01 
3278 3279 2 1.0280000000000007e+00 3.5514317028202146e+02 1.0000000000000000e+00 1.5536913545931650e+01 2.9509700562023248e+01 1.8652678464533338e+01 
2563 2564 2 1.0280000000000000e+00 -5.9816991595648369e+02 1.0000000000000000e+00 2.7644029144284774e+00 3.5759434786007461e+01 1.6174809179153318e+01 
3025 3026 2 1.0280000000000000e+00 -8.7835715004080225e+02 1.0000000000000000e+00 3.7482239838487255e+00 3.5330346633709347e+01 1.6568956966640361e+01 
495 496 2 1.0280000000000018e+00 3.3626865512039399e+02 1.0000000000000000e+00 2.7335296332705216e+01 3.6189930684129983e+01 1.7748265059750821e+01 
496 497 2 1.0280000000000018e+00 -7.6635232755611491e+02 1.0000000000000000e+00 2.6958429715102429e+01 3.7253707132299581e+01 1.7564623456852566e+01 
3825 3826 2 1.0280000000000038e+00 -8.7203404170270437e+02 1.0000000000000000e+00 2.9254028453816240e+01 3.8299484083474226e+01 1.8078108164464670e+01 
3867 3868 2 1.0280000000000038e+00 6.0699420667306441e+01 1.0000000000000000e+00 2.9528861349616413e+01 3.7251488959876539e+01 1.8443547787056804e+01 
4531 4532 2 1.0279999999999994e+00 -1.3533397392344132e+03 1.0000000000000000e+00 1.0211521311634710e+01 2.3851904795157594e+01 2.5365042351865117e+01 
3697 3698 2 1.0279999999999994e+00 3.5621447011860916e+01 1.0000000000000000e+00 1.7824054298985001e+01 2.2118014092895908e+01 2.6465617713504137e+01 
3235 3236 2 1.0279999999999994e+00 7.1576103434874153e+02 1.0000000000000000e+00 1.6910251880451320e+01 2.1580565065464629e+01 2.6893971189332117e+01 
3984 3985 2 1.0279999999999994e+00 1.2907387542392501e+03 1.0000000000000000e+00 1.0338389300208496e+01 2.4934308609775243e+01 2.5019095082711061e+01 
3954 3955 2 1.0280000000000007e+00 1.6815786753028920e+03 1.0000000000000000e+00 2.1680759848214940e+01 2.8099662722299097e+01 2.4551990352304024e+01 
3491 3492 2 1.0280000000000007e+00 4.4417213623023883e+02 1.0000000000000000e+00 2.1691631490837057e+01 2.8597780059759970e+01 2.5581132685981114e+01 
2224 2225 2 1.0280000000000009e+00 -3.0064290795732484e+02 1.0000000000000000e+00 3.2228058087496102e+01 2.8048039565807901e+01 2.5833709043522759e+01 
1802 1803 2 1.0280000000000009e+00 -8.9230724510287087e+02 1.0000000000000000e+00 3.2574525195186631e+01 2.8937879563267153e+01 2.6462611531726626e+01 
6 7 2 1.0279999999999994e+00 6.7393880936879793e+02 1.0000000000000000e+00 1.6177844870786938e+01 3.2112335664317399e+01 2.7902511630599612e+01 
975 976 2 1.0279999999999996e+00 -4.0535607955258433e+02 1.0000000000000000e+00 3.9641527026922811e+00 2.5894805201841358e+01 2.8526670396687763e+01 
513 514 2 1.0279999999999996e+00 -3.1473003800531819e+02 1.0000000000000000e+00 4.9662500155848539e+00 2.5687304640351485e+01 2.8016653230375084e+01 
37 38 2 1.0279999999999994e+00 6.6372008596717069e+02 1.0000000000000000e+00 1.6214025303918874e+01 3.2063096932329884e+01 2.9044281984475290e+01 
4496 4497 2 1.0279999999999985e+00 1.1370713605388730e+03 1.0000000000000000e+00 2.1700325357564697e+01 2.9451979520852955e+01 3.5878030610533784e+01 
4530 4531 2 1.0279999999999991e+00 -2.0928690576368272e+03 1.0000000000000000e+00 2.3242157487846185e+01 3.2933028291983966e+01 3.4652037245637452e+01 
4532 4533 2 1.0279999999999991e+00 -6.8630579418674552e+02 1.0000000000000000e+00 2.4281849156382403e+01 3.2694930858394997e+01 3.4240061683311886e+01 
4454 4455 2 1.0279999999999985e+00 -4.7997324594511986e+02 1.0000000000000000e+00 2.2700607964453948e+01 2.9864560818199681e+01 3.6247603873762181e+01 
383 384 2 1.0280000000000005e+00 -8.2619348276865750e+01 1.0000000000000000e+00 2.8980506922725059e+01 3.5240284526267097e+01 3.9898622321173065e+01 
806 807 2 1.0280000000000005e+00 4.3396710889168276e+02 1.0000000000000000e+00 2.9452981855848030e+01 3.6280982224173194e+01 3.9931618633120507e+01 
184 185 2 1.0279999995894853e+00 1.0494332466939063e+03 1.0000000000000000e+00 4.1344598959360120e+01 3.4404681363646570e+00 2.1841919378681816e+00 
3786 3787 2 1.0279999952258192e+00 -6.0931436436357296e+02 1.0000000000000000e+00 4.0830006268048244e+01 1.5313481979567922e+00 2.9135914645093899e+00 
552 553 2 1.0280000010489405e+00 -6.0900094338318445e+02 1.0000000000000000e+00 4.0585985771983687e+01 3.1225897937957177e+00 3.2113000635455800e+00 
4294 4295 2 1.0280000019098785e+00 2.5157235607742561e+02 1.0000000000000000e+00 4.0503127505400400e+01 6.0478529687816645e-03 1.8631097647239183e+00 
1062 1063 2 1.0280000004503278e+00 2.9189800411634388e+02 1.0000000000000000e+00 4.1927043923392901e+01 2.5840617654856608e+00 4.6455328665839885e-01 
2950 2951 2 1.0279999938919642e+00 4.0889469465359093e+02 1.0000000000000000e+00 4.2925843747188480e+01 2.9472770905065673e+00 1.6121424244517826e+00 
1578 1579 2 1.0280000051762808e+00 1.2463065526718933e+03 1.0000000000000000e+00 4.5510001464205253e+01 1.6407200094524488e+00 5.8320449134073116e-01 
654 655 2 1.0279999994706057e+00 2.1644231949377736e+03 1.0000000000000000e+00 4.3867005001964841e+01 2.0767529872803614e+00 2.5125079593339614e+00 
3835 3836 2 1.0280000038059245e+00 -1.8051234468954174e+03 1.0000000000000000e+00 4.3210316318979984e+01 8.1342188210696331e-01 7.9739380623078471e-01 
3888 3889 2 1.0280000034696919e+00 2.1459308799196288e+03 1.0000000000000000e+00 4.4875361019123716e+01 7.7754619065480313e-01 1.4281785605057566e+00 
2947 2948 2 1.0280000078370790e+00 7.9911286619393024e+02 1.0000000000000000e+00 4.2154257799541263e+01 5.4631120533921018e-01 2.0943588466969181e+00 
3421 3422 2 1.0280000122072317e+00 8.2693452916718525e+02 1.0000000000000000e+00 4.2438783725906561e+01 2.2642364835573137e+00 3.3995849796650259e+00 
2959 2960 2 1.0279999999671612e+00 1.2212040217007454e+03 1.0000000000000000e+00 4.2858444023060301e+01 3.8183035812574282e+00 3.4912465366495558e+00 
2799 2800 2 1.0279999965438409e+00 -8.5387251232500660e+02 1.0000000000000000e+00 4.4851920164558152e+01 1.8595073573528837e+00 3.7041732128802805e+00 
2485 2486 2 1.0279999926905012e+00 -1.7933075247651648e+03 1.0000000000000000e+00 4.3183951721354717e+01 2.9068749939216332e-01 3.7733217665372845e+00 
3384 3385 2 1.0279999991315216e+00 -2.1060551452548162e+02 1.0000000000000000e+00 4.7088517792305034e+01 3.4491966257998121e+00 1.4484629820132811e+00 
2969 2970 2 1.0280000042140578e+00 1.0738908029296458e+03 1.0000000000000000e+00 4.8525642014289552e+01 2.0283992154711190e+00 2.0109906541710103e+00 
4235 4236 2 1.0280000015557693e+00 2.2325538769778407e+02 1.0000000000000000e+00 4.9824816618770008e+01 1.9399458243922489e+00 1.0182349054060880e+00 
3899 3900 2 1.0279999969610156e+00 -2.6904505495342329e+02 1.0000000000000000e+00 4.8132757020961471e+01 1.7055514622086545e+00 2.7493330670696770e-01 
2886 2887 2 1.0280000012951227e+00 4.6671498558059403e+02 1.0000000000000000e+00 4.5928965010559125e+01 1.4640153781719278e+00 2.7182967914513738e+00 
2973 2974 2 1.0280000004859156e+00 4.3761678171782842e+02 1.0000000000000000e+00 4.7315478891086059e+01 8.6566870545624941e-01 2.4136813332864886e+00 
2008 2009 2 1.0280000005738139e+00 1.7529044225845375e+03 1.0000000000000000e+00 4.8697700086264724e+01 3.9043554024365590e+00 2.8554879594538072e+00 
2971 2972 2 1.0279999994308557e+00 1.0222646947045835e+03 1.0000000000000000e+00 4.7099943439300048e+01 3.1365163475607134e+00 3.1103845469873490e+00 
4358 4359 2 1.0279999973385627e+00 1.2292682236635987e+03 1.0000000000000000e+00 4.9140554770742682e+01 5.2368479926569211e-01 2.9704078612488196e+00 
2888 2889 2 1.0279999944984810e+00 -1.2956654215566587e+02 1.0000000000000000e+00 4.8297784203884909e+01 1.9944105378403647e+00 3.6571364802482180e+00 
2470 2471 2 1.0280000010913559e+00 1.7737904649381962e+03 1.0000000000000000e+00 5.0470293753055472e+01 3.4734633904216059e+00 1.8244525196831973e+00 
4569 4570 2 1.0279999995176818e+00 -9.9155627378187774e+01 1.0000000000000000e+00 5.1905059703021728e+01 3.8690822796428677e+00 7.6700686880890789e-01 
3062 3063 2 1.0280000005871377e+00 4.0616768427175191e+02 1.0000000000000000e+00 5.3876391573179774e+01 3.7615966484648764e+00 2.8914372147777895e-01 
4191 4192 2 1.0280000007730088e+00 7.7001315191567676e+02 1.0000000000000000e+00 5.3299636222402995e+01 2.7966366677643131e+00 1.7042359170200951e+00 
3862 3863 2 1.0279999994920661e+00 -8.0760064786895737e+02 1.0000000000000000e+00 5.3211092651188352e+01 1.4851222051063735e+00 1.8688245617174633e+00 
3986 3987 2 1.0280000010898569e+00 4.2671811382668551e+02 1.0000000000000000e+00 5.2072771258873786e+01 1.3385641095451590e+00 5.7883096137341117e-01 
2975 2976 2 1.0279999995937332e+00 -2.7400327574375638e+02 1.0000000000000000e+00 5.1708306533193870e+01 2.9713374091523677e+00 2.7301429300064970e+00 
4234 4235 2 1.0280000028438399e+00 -1.2972753963830988e+02 1.0000000000000000e+00 5.0806617561914429e+01 4.5422353390721754e-01 1.0764396279405792e+00 
3435 3436 2 1.0279999988655020e+00 9.0378743677103171e+02 1.0000000000000000e+00 5.1552058647918052e+01 1.2730177039001760e+00 3.4143852680465145e+00 
838 839 2 1.0280000020380782e+00 -1.2594649977806560e+02 1.0000000000000000e+00 5.3185937198433010e+01 3.5217608076968707e+00 3.9015814780865168e+00 
2007 2008 2 1.0279999986636636e+00 -7.6397808953975257e+01 1.0000000000000000e+00 5.4594727273960245e+01 7.6348650694320452e-01 2.8198937101091190e+00 
4322 4323 2 1.0280000014369328e+00 -2.0553327450782882e+02 1.0000000000000000e+00 5.4433108614757465e+01 3.8032444968172863e+00 3.0133316833209847e+00 
3148 3149 2 1.0280000000155041e+00 7.7074274069120506e+01 1.0000000000000000e+00 5.5935393903432413e+01 3.6166398895380469e+00 3.4678636571592336e+00 
1344 1345 2 1.0279999993751003e+00 -3.5278105282898798e+02 1.0000000000000000e+00 5.7619424761157710e+01 1.2122683575077291e+00 3.8269770684869648e+00 
976 977 2 1.0279999952146903e+00 -6.4168727603028560e+02 1.0000000000000000e+00 6.0232931151801459e+01 5.8938676847034610e-01 6.9940948842085582e-01 
514 515 2 1.0280000047972855e+00 2.3731395653449954e+02 1.0000000000000000e+00 5.9631823846527176e+01 1.5207866943974007e+00 9.8150030205024863e-01 
1303 1304 2 1.0280000006960111e+00 -3.4996819231823997e+02 1.0000000000000000e+00 5.8545279210240786e+01 1.0888128446681509e+00 3.0222770629874618e+00 
4026 4027 2 1.0279999990003139e+00 -8.8604235136013813e+02 1.0000000000000000e+00 6.2360309565058934e+01 2.6913433927946984e+00 1.2495138428694370e+00 
4456 4457 2 1.0279999947094371e+00 -9.3980008293152832e+02 1.0000000000000000e+00 6.1271911194604414e+01 3.3463450351773845e+00 3.4759921458832634e+00 
4573 4574 2 1.0280000009625681e+00 6.4076949229619345e+02 1.0000000000000000e+00 6.3391968185257632e+01 2.2490624211441079e+00 1.0007005054666382e+00 
95 96 2 1.0280000002925553e+00 -1.3122040533742861e+03 1.0000000000000000e+00 6.5573986138534821e+01 1.7273202394382718e+00 2.2319867941964238e+00 
3064 3065 2 1.0280000001420635e+00 -1.1917455470251745e+01 1.0000000000000000e+00 6.4869111934163470e+01 5.8320643367350233e-01 1.2859606686905120e-01 
538 539 2 1.0279999991835183e+00 -3.0618645929223544e+02 1.0000000000000000e+00 6.2816916847389926e+01 8.0465484250192998e-01 2.8297345667770233e+00 
181 182 2 1.0279999996294271e+00 8.4874648140509998e+02 1.0000000000000000e+00 6.4674400983957696e+01 2.4580574150908561e+00 2.9407607714264996e+00 
1000 1001 2 1.0280000007150587e+00 -3.9916469083569496e+02 1.0000000000000000e+00 6.3022384325040001e+01 2.0102362346409217e+00 3.1792010564570887e+00 
215 216 2 1.0280000000127958e+00 1.4285596432390280e+03 1.0000000000000000e+00 6.4969925268460415e+01 7.0070198121972382e-01 3.2351425467154145e+00 
3987 3988 2 1.0279999999010980e+00 -4.3277623824402144e+02 1.0000000000000000e+00 6.4449969152907443e+01 1.2228421647641378e-01 1.3288619093315790e+00 
1933 1934 2 1.0279999991782702e+00 -5.0706759545527757e+02 1.0000000000000000e+00 4.1143558812928781e+01 6.9895208108795801e+00 1.5929164309540982e+00 
511 512 2 1.0279999990582513e+00 -2.3586215705399644e+02 1.0000000000000000e+00 3.9367313384509572e+01 7.2034489662353041e+00 3.2534754705157969e+00 
2023 2024 2 1.0280000005456660e+00 -1.7944879869925758e+03 1.0000000000000000e+00 4.1711640357037524e+01 6.5254983860859941e+00 3.7433499148434732e+00 
601 602 2 1.0280000039223238e+00 -1.7939393952135249e+03 1.0000000000000000e+00 4.2541153668196223e+01 4.2797663645025299e+00 2.1026662654403186e-01 
1033 1034 2 1.0280000001179939e+00 -8.8364158287290252e+02 1.0000000000000000e+00 4.5730874364890774e+01 4.8058090665564874e+00 2.2718550480173807e+00 
1500 1501 2 1.0280000029365619e+00 4.5114325167792367e+02 1.0000000000000000e+00 4.4052586467891025e+01 4.8260167516907080e+00 2.3697033366990059e+00 
189 190 2 1.0279999973885383e+00 1.3262400555166457e+02 1.0000000000000000e+00 4.3838673890828460e+01 5.0752838929268425e+00 1.0266636213627123e+00 
1413 1414 2 1.0279999996000841e+00 -8.3741001483578680e+02 1.0000000000000000e+00 4.5324317141977154e+01 6.4689693596912337e+00 1.1818950494121416e+00 
1110 1111 2 1.0280000011203410e+00 6.2259720058111157e+02 1.0000000000000000e+00 4.2870051068962830e+01 7.4701292835445399e+00 1.5423313551315374e+00 
1564 1565 2 1.0279999993571067e+00 4.1327566493565627e+02 1.0000000000000000e+00 4.4351797993663723e+01 7.7192471920993482e+00 1.6945276433614027e+00 
3379 3380 2 1.0279999988571258e+00 -2.3448932067412940e+02 1.0000000000000000e+00 4.2406701900865528e+01 6.1476112299908774e+00 2.3711399664941459e+00 
3844 3845 2 1.0280000001917762e+00 -2.1456349217099914e+03 1.0000000000000000e+00 4.4027903038417826e+01 6.6397929577034667e+00 3.0588859175924399e+00 
2952 2953 2 1.0280000013207082e+00 1.0524049460630868e+03 1.0000000000000000e+00 4.2905728973041789e+01 7.6856826470970283e+00 3.5586269041344347e+00 
1032 1033 2 1.0280000022311733e+00 -9.3012474640571236e+02 1.0000000000000000e+00 4.5223440148907549e+01 7.7806750461664507e+00 3.6319844231362213e+00 
3427 3428 2 1.0279999990213522e+00 5.8951695218513828e+02 1.0000000000000000e+00 4.9128920523205778e+01 4.0649615888950645e+00 1.4459642806456570e+00 
652 653 2 1.0280000011350086e+00 1.1787740571288396e+03 1.0000000000000000e+00 4.6578399664944968e+01 4.3732638622847695e+00 6.5934739731237768e-01 
1583 1584 2 1.0280000005954264e+00 1.0849869748533110e+03 1.0000000000000000e+00 4.7911266545347807e+01 5.4963881459005144e+00 1.0173077684198000e+00 
2046 2047 2 1.0279999998351008e+00 6.5155745496006239e+02 1.0000000000000000e+00 4.6798904043801052e+01 5.9190145876807705e+00 1.9182886092009901e+00 
1589 1590 2 1.0280000000418399e+00 -2.6355634190186140e+02 1.0000000000000000e+00 4.9216573947753332e+01 7.0189127940195108e+00 2.3014016037821508e+00 
2047 2048 2 1.0279999951115317e+00 -3.1986911479920849e+02 1.0000000000000000e+00 4.6494175832326277e+01 4.6653132305048945e+00 3.7326664359288100e+00 
1585 1586 2 1.0280000022394247e+00 1.0170426354055342e+03 1.0000000000000000e+00 4.7101891695378796e+01 7.5171240089831448e+00 3.7834773044759760e+00 
1409 1410 2 1.0279999975905572e+00 -8.6660613315301998e+02 1.0000000000000000e+00 5.0005086144099550e+01 6.4003966161340422e+00 3.3128018370309680e+00 
3385 3386 2 1.0279999997358014e+00 -7.6354978513545757e+02 1.0000000000000000e+00 5.2462524003086124e+01 4.7504228095646122e+00 2.1746952183639392e+00 
3106 3107 2 1.0279999993863556e+00 -1.5838181835126494e+02 1.0000000000000000e+00 5.3431284446143060e+01 5.5364876338597941e+00 3.2756506148526288e-01 
411 412 2 1.0279999989766542e+00 -9.2670079626833257e+01 1.0000000000000000e+00 5.0803034556639084e+01 6.4439341602870348e+00 1.3473694947192325e+00 
1252 1253 2 1.0280000010427477e+00 -1.4184867737411550e+03 1.0000000000000000e+00 5.2186827971108400e+01 6.6216626769017015e+00 1.2645672997513768e+00 
2966 2967 2 1.0279999989875910e+00 1.3200969645536838e+03 1.0000000000000000e+00 5.1214398691717250e+01 4.9894458933789636e+00 2.9720139597214379e+00 
1216 1217 2 1.0280000012468011e+00 6.4434410998463522e+02 1.0000000000000000e+00 5.3035315928699490e+01 5.7732875038971034e+00 3.2826146480993286e+00 
2978 2979 2 1.0279999991456077e+00 3.8467326590286200e+02 1.0000000000000000e+00 5.4526826407853044e+01 5.0096626540854157e+00 1.7254803941048014e+00 
2938 2939 2 1.0280000008589456e+00 -2.0263997689686894e+02 1.0000000000000000e+00 5.4359020727125873e+01 6.5211410463011950e+00 2.0781174977714203e+00 
3441 3442 2 1.0279999994501881e+00 7.6320606435639911e+02 1.0000000000000000e+00 5.5644295126404515e+01 6.0787709780139432e+00 2.5194509176925806e+00 
4611 4612 2 1.0280000005717100e+00 7.7081095361477128e+02 1.0000000000000000e+00 5.6835987301372775e+01 4.9370744320181057e+00 3.2115959451785523e+00 
2018 2019 2 1.0280000020158842e+00 -5.4113155949790411e+01 1.0000000000000000e+00 4.0663773281703627e+01 8.0712904554216802e+00 3.4671692694769569e+00 
136 137 2 1.0280000005834284e+00 2.5320433264810819e+02 1.0000000000000000e+00 4.0753587151052521e+01 8.1933606372565659e+00 1.0570631100977383e+00 
45 46 2 1.0279999993392375e+00 1.3875757401874948e+03 1.0000000000000000e+00 3.9671586911633881e+01 8.2738434596304451e+00 2.1355025246704771e+00 
51 52 2 1.0280000013478732e+00 -1.0367519388420267e+02 1.0000000000000000e+00 4.1043279428729932e+01 9.9283087515912491e+00 3.2018167921989447e+00 
651 652 2 1.0279999996389264e+00 1.1614590760916135e+03 1.0000000000000000e+00 4.5561888943875417e+01 8.6933386145443201e+00 3.2436750343723036e-01 
603 604 2 1.0280000009959120e+00 -8.9323841203241341e+02 1.0000000000000000e+00 4.3987748009555041e+01 9.2455754392447762e+00 8.1416291141191888e-01 
1568 1569 2 1.0280000003543184e+00 1.1264787356561187e+03 1.0000000000000000e+00 4.2744757339134551e+01 9.3340247840021835e+00 1.6389611214739204e+00 
649 650 2 1.0280000004755823e+00 2.1180376292010351e+03 1.0000000000000000e+00 4.4921394702077066e+01 1.1048449403855820e+01 1.0855899631834061e+00 
1522 1523 2 1.0279999995232525e+00 -2.2320414164130680e+03 1.0000000000000000e+00 4.3320438695688516e+01 1.1250222890622627e+01 2.1667069997894113e+00 
933 934 2 1.0280000013826680e+00 5.3850998592751046e+02 1.0000000000000000e+00 4.1820186805949469e+01 1.1615828082584995e+01 3.0721011378748413e+00 
1561 1562 2 1.0279999996407119e+00 7.7643152441789243e+02 1.0000000000000000e+00 4.2443355074926757e+01 9.3642250196746879e+00 3.0992485902275719e+00 
1069 1070 2 1.0279999999676313e+00 -2.4165137529503909e+02 1.0000000000000000e+00 4.4109362012123384e+01 1.1739532019411229e+01 3.4579379539563959e+00 
1587 1588 2 1.0280000000479301e+00 4.3594342221972528e+02 1.0000000000000000e+00 4.8018193324989994e+01 8.2165090483130552e+00 2.6627116996707576e+00 