LAMMPS data file via write_data, version 30 Jul 2016, timestep = 600000

2080 atoms
8 atom types

0.0000000000000000e+00 4.0000000000000000e+01 xlo xhi
0.0000000000000000e+00 4.0000000000000000e+01 ylo yhi
0.0000000000000000e+00 1.0000000000000000e+02 zlo zhi

Masses

1 3.896
2 5.36
3 1058.08
4 8.378
5 8.378
6 8.378
7 8.378
8 8.378

Atoms # meso-molecular

1 2 4 2.2559723595316457e+00 1.0000000000000000e+00 4.2000000000000000e+03 0.0000000000000000e+00 0.0000000000000000e+00 2.5000000000000000e+00 
2 2 4 2.2559723595316457e+00 1.0000000000000000e+00 4.2000000000000000e+03 0.0000000000000000e+00 2.0000000000000000e+00 2.5000000000000000e+00 
3 2 4 2.2559723595316457e+00 1.0000000000000000e+00 4.2000000000000000e+03 0.0000000000000000e+00 4.0000000000000000e+00 2.5000000000000000e+00 
21 2 4 2.2559723595316457e+00 1.0000000000000000e+00 4.2000000000000000e+03 2.0000000000000000e+00 0.0000000000000000e+00 2.5000000000000000e+00 
22 2 4 2.2559723595316457e+00 1.0000000000000000e+00 4.2000000000000000e+03 2.0000000000000000e+00 2.0000000000000000e+00 2.5000000000000000e+00 
23 2 4 2.2559723595316457e+00 1.0000000000000000e+00 4.2000000000000000e+03 2.0000000000000000e+00 4.0000000000000000e+00 2.5000000000000000e+00 
41 2 4 2.2559723595316457e+00 1.0000000000000000e+00 4.2000000000000000e+03 4.0000000000000000e+00 0.0000000000000000e+00 2.5000000000000000e+00 
42 2 4 2.2559723595316457e+00 1.0000000000000000e+00 4.2000000000000000e+03 4.0000000000000000e+00 2.0000000000000000e+00 2.5000000000000000e+00 
43 2 4 2.2559723595316457e+00 1.0000000000000000e+00 4.2000000000000000e+03 4.0000000000000000e+00 4.0000000000000000e+00 2.5000000000000000e+00 
61 2 4 2.2559723595316457e+00 1.0000000000000000e+00 4.2000000000000000e+03 6.0000000000000000e+00 0.0000000000000000e+00 2.5000000000000000e+00 
62 2 4 2.2559723595316457e+00 1.0000000000000000e+00 4.2000000000000000e+03 6.0000000000000000e+00 2.0000000000000000e+00 2.5000000000000000e+00 
63 2 4 2.2559723595316457e+00 1.0000000000000000e+00 4.2000000000000000e+03 6.0000000000000000e+00 4.0000000000000000e+00 2.5000000000000000e+00 
81 2 4 2.2559723595316457e+00 1.0000000000000000e+00 4.2000000000000000e+03 8.0000000000000000e+00 0.0000000000000000e+00 2.5000000000000000e+00 
82 2 4 2.2559723595316457e+00 1.0000000000000000e+00 4.2000000000000000e+03 8.0000000000000000e+00 2.0000000000000000e+00 2.5000000000000000e+00 
83 2 4 2.2559723595316457e+00 1.0000000000000000e+00 4.2000000000000000e+03 8.0000000000000000e+00 4.0000000000000000e+00 2.5000000000000000e+00 
101 2 4 2.2559723595316457e+00 1.0000000000000000e+00 4.2000000000000000e+03 1.0000000000000000e+01 0.0000000000000000e+00 2.5000000000000000e+00 
102 2 4 2.2559723595316457e+00 1.0000000000000000e+00 4.2000000000000000e+03 1.0000000000000000e+01 2.0000000000000000e+00 2.5000000000000000e+00 
103 2 4 2.2559723595316457e+00 1.0000000000000000e+00 4.2000000000000000e+03 1.0000000000000000e+01 4.0000000000000000e+00 2.5000000000000000e+00 
121 2 4 2.2559723595316457e+00 1.0000000000000000e+00 4.2000000000000000e+03 1.2000000000000000e+01 0.0000000000000000e+00 2.5000000000000000e+00 
122 2 4 2.2559723595316457e+00 1.0000000000000000e+00 4.2000000000000000e+03 1.2000000000000000e+01 2.0000000000000000e+00 2.5000000000000000e+00 
123 2 4 2.2559723595316457e+00 1.0000000000000000e+00 4.2000000000000000e+03 1.2000000000000000e+01 4.0000000000000000e+00 2.5000000000000000e+00 
141 2 4 2.2559723595316457e+00 1.0000000000000000e+00 4.2000000000000000e+03 1.4000000000000000e+01 0.0000000000000000e+00 2.5000000000000000e+00 
142 2 4 2.2559723595316457e+00 1.0000000000000000e+00 4.2000000000000000e+03 1.4000000000000000e+01 2.0000000000000000e+00 2.5000000000000000e+00 
143 2 4 2.2559723595316457e+00 1.0000000000000000e+00 4.2000000000000000e+03 1.4000000000000000e+01 4.0000000000000000e+00 2.5000000000000000e+00 
161 2 4 2.2559723595316457e+00 1.0000000000000000e+00 4.2000000000000000e+03 1.6000000000000000e+01 0.0000000000000000e+00 2.5000000000000000e+00 
162 2 4 2.2559723595316457e+00 1.0000000000000000e+00 4.2000000000000000e+03 1.6000000000000000e+01 2.0000000000000000e+00 2.5000000000000000e+00 
163 2 4 2.2559723595316457e+00 1.0000000000000000e+00 4.2000000000000000e+03 1.6000000000000000e+01 4.0000000000000000e+00 2.5000000000000000e+00 
181 2 4 2.2559723595316457e+00 9.9999987534945656e-01 4.2000000000000000e+03 1.8000000000000000e+01 0.0000000000000000e+00 2.5000000000000000e+00 
182 2 4 2.2559723595316457e+00 1.0000000000000000e+00 4.2000000000000000e+03 1.8000000000000000e+01 2.0000000000000000e+00 2.5000000000000000e+00 
183 2 4 2.2559723595316457e+00 1.0000000000000000e+00 4.2000000000000000e+03 1.8000000000000000e+01 4.0000000000000000e+00 2.5000000000000000e+00 
4 2 4 2.2559723595316457e+00 1.0000000000000000e+00 4.2000000000000000e+03 0.0000000000000000e+00 6.0000000000000000e+00 2.5000000000000000e+00 
5 2 4 2.2559723595316457e+00 1.0000000000000000e+00 4.2000000000000000e+03 0.0000000000000000e+00 8.0000000000000000e+00 2.5000000000000000e+00 
24 2 4 2.2559723595316457e+00 1.0000000000000000e+00 4.2000000000000000e+03 2.0000000000000000e+00 6.0000000000000000e+00 2.5000000000000000e+00 
25 2 4 2.2559723595316457e+00 1.0000000000000000e+00 4.2000000000000000e+03 2.0000000000000000e+00 8.0000000000000000e+00 2.5000000000000000e+00 
44 2 4 2.2559723595316457e+00 1.0000000000000000e+00 4.2000000000000000e+03 4.0000000000000000e+00 6.0000000000000000e+00 2.5000000000000000e+00 
45 2 4 2.2559723595316457e+00 1.0000000000000000e+00 4.2000000000000000e+03 4.0000000000000000e+00 8.0000000000000000e+00 2.5000000000000000e+00 
64 2 4 2.2559723595316457e+00 1.0000000000000000e+00 4.2000000000000000e+03 6.0000000000000000e+00 6.0000000000000000e+00 2.5000000000000000e+00 
65 2 4 2.2559723595316457e+00 1.0000000000000000e+00 4.2000000000000000e+03 6.0000000000000000e+00 8.0000000000000000e+00 2.5000000000000000e+00 
84 2 4 2.2559723595316457e+00 1.0000000000000000e+00 4.2000000000000000e+03 8.0000000000000000e+00 6.0000000000000000e+00 2.5000000000000000e+00 
85 2 4 2.2559723595316457e+00 1.0000000000000000e+00 4.2000000000000000e+03 8.0000000000000000e+00 8.0000000000000000e+00 2.5000000000000000e+00 
104 2 4 2.2559723595316457e+00 1.0000000000000000e+00 4.2000000000000000e+03 1.0000000000000000e+01 6.0000000000000000e+00 2.5000000000000000e+00 
105 2 4 2.2559723595316457e+00 1.0000000000000000e+00 4.2000000000000000e+03 1.0000000000000000e+01 8.0000000000000000e+00 2.5000000000000000e+00 
124 2 4 2.2559723595316457e+00 1.0000000000000000e+00 4.2000000000000000e+03 1.2000000000000000e+01 6.0000000000000000e+00 2.5000000000000000e+00 
125 2 4 2.2559723595316457e+00 -1.9286687051537399e+01 4.2000000000000000e+03 1.2000000000000000e+01 8.0000000000000000e+00 2.5000000000000000e+00 
144 2 4 2.2559723595316457e+00 -1.9289536113683635e+01 4.2000000000000000e+03 1.4000000000000000e+01 6.0000000000000000e+00 2.5000000000000000e+00 
145 2 4 2.2559723595316457e+00 -3.6924474879051695e+02 4.2000000000000000e+03 1.4000000000000000e+01 8.0000000000000000e+00 2.5000000000000000e+00 
164 2 4 2.2559723595316457e+00 -8.9917971229479605e+01 4.2000000000000000e+03 1.6000000000000000e+01 6.0000000000000000e+00 2.5000000000000000e+00 
165 2 4 2.2559723595316457e+00 -1.0941426880745423e+03 4.2000000000000000e+03 1.6000000000000000e+01 8.0000000000000000e+00 2.5000000000000000e+00 
184 2 4 2.2559723595316457e+00 -1.2256208107258836e+02 4.2000000000000000e+03 1.8000000000000000e+01 6.0000000000000000e+00 2.5000000000000000e+00 
185 2 4 2.2559723595316457e+00 -1.5415856586051882e+03 4.2000000000000000e+03 1.8000000000000000e+01 8.0000000000000000e+00 2.5000000000000000e+00 
6 2 4 2.2559723595316457e+00 1.0000000000000000e+00 4.2000000000000000e+03 0.0000000000000000e+00 1.0000000000000000e+01 2.5000000000000000e+00 
7 2 4 2.2559723595316457e+00 1.0000000000000000e+00 4.2000000000000000e+03 0.0000000000000000e+00 1.2000000000000000e+01 2.5000000000000000e+00 
8 2 4 2.2559723595316457e+00 9.8972053012277650e-01 4.2000000000000000e+03 0.0000000000000000e+00 1.4000000000000000e+01 2.5000000000000000e+00 
26 2 4 2.2559723595316457e+00 1.0000000000000000e+00 4.2000000000000000e+03 2.0000000000000000e+00 1.0000000000000000e+01 2.5000000000000000e+00 
27 2 4 2.2559723595316457e+00 1.0000000000000000e+00 4.2000000000000000e+03 2.0000000000000000e+00 1.2000000000000000e+01 2.5000000000000000e+00 
28 2 4 2.2559723595316457e+00 9.7865511970174046e-01 4.2000000000000000e+03 2.0000000000000000e+00 1.4000000000000000e+01 2.5000000000000000e+00 
46 2 4 2.2559723595316457e+00 1.0000000000000000e+00 4.2000000000000000e+03 4.0000000000000000e+00 1.0000000000000000e+01 2.5000000000000000e+00 
47 2 4 2.2559723595316457e+00 1.0000000000000000e+00 4.2000000000000000e+03 4.0000000000000000e+00 1.2000000000000000e+01 2.5000000000000000e+00 
48 2 4 2.2559723595316457e+00 9.9914934345369422e-01 4.2000000000000000e+03 4.0000000000000000e+00 1.4000000000000000e+01 2.5000000000000000e+00 
66 2 4 2.2559723595316457e+00 1.0001649555604573e+00 4.2000000000000000e+03 6.0000000000000000e+00 1.0000000000000000e+01 2.5000000000000000e+00 
67 2 4 2.2559723595316457e+00 9.9983277245855628e-01 4.2000000000000000e+03 6.0000000000000000e+00 1.2000000000000000e+01 2.5000000000000000e+00 
68 2 4 2.2559723595316457e+00 1.0001431202788891e+00 4.2000000000000000e+03 6.0000000000000000e+00 1.4000000000000000e+01 2.5000000000000000e+00 
86 2 4 2.2559723595316457e+00 9.9999937657592708e-01 4.2000000000000000e+03 8.0000000000000000e+00 1.0000000000000000e+01 2.5000000000000000e+00 
87 2 4 2.2559723595316457e+00 9.9980259190989429e-01 4.2000000000000000e+03 8.0000000000000000e+00 1.2000000000000000e+01 2.5000000000000000e+00 
88 2 4 2.2559723595316457e+00 9.9626335920287690e-01 4.2000000000000000e+03 8.0000000000000000e+00 1.4000000000000000e+01 2.5000000000000000e+00 
106 2 4 2.2559723595316457e+00 1.0000000000000000e+00 4.2000000000000000e+03 1.0000000000000000e+01 1.0000000000000000e+01 2.5000000000000000e+00 
107 2 4 2.2559723595316457e+00 1.0000708111669008e+00 4.2000000000000000e+03 1.0000000000000000e+01 1.2000000000000000e+01 2.5000000000000000e+00 
108 2 4 2.2559723595316457e+00 1.0039200150628242e+00 4.2000000000000000e+03 1.0000000000000000e+01 1.4000000000000000e+01 2.5000000000000000e+00 
126 2 4 2.2559723595316457e+00 -8.9854952061412803e+01 4.2000000000000000e+03 1.2000000000000000e+01 1.0000000000000000e+01 2.5000000000000000e+00 
127 2 4 2.2559723595316457e+00 -1.2281757685802523e+02 4.2000000000000000e+03 1.2000000000000000e+01 1.2000000000000000e+01 2.5000000000000000e+00 
128 2 4 2.2559723595316457e+00 -1.2813686525704958e+02 4.2000000000000000e+03 1.2000000000000000e+01 1.4000000000000000e+01 2.5000000000000000e+00 
146 2 4 2.2559723595316457e+00 -1.0933495109631863e+03 4.2000000000000000e+03 1.4000000000000000e+01 1.0000000000000000e+01 2.5000000000000000e+00 
147 2 4 2.2559723595316457e+00 -1.5479329744151462e+03 4.2000000000000000e+03 1.4000000000000000e+01 1.2000000000000000e+01 2.5000000000000000e+00 
148 2 4 2.2559723595316457e+00 -1.6264446450451464e+03 4.2000000000000000e+03 1.4000000000000000e+01 1.4000000000000000e+01 2.5000000000000000e+00 
166 2 4 2.2559723595316457e+00 -3.0030685644083883e+03 4.2000000000000000e+03 1.6000000000000000e+01 1.0000000000000000e+01 2.5000000000000000e+00 
167 2 4 2.2559723595316457e+00 -4.2438584339091676e+03 4.2000000000000000e+03 1.6000000000000000e+01 1.2000000000000000e+01 2.5000000000000000e+00 
168 2 4 2.2559723595316457e+00 -4.4588488934369898e+03 4.2000000000000000e+03 1.6000000000000000e+01 1.4000000000000000e+01 2.5000000000000000e+00 
186 2 4 2.2559723595316457e+00 -4.2263648128760642e+03 4.2000000000000000e+03 1.8000000000000000e+01 1.0000000000000000e+01 2.5000000000000000e+00 
187 2 4 2.2559723595316457e+00 -5.9607333917719016e+03 4.2000000000000000e+03 1.8000000000000000e+01 1.2000000000000000e+01 2.5000000000000000e+00 
188 2 4 2.2559723595316457e+00 -6.2274719601689148e+03 4.2000000000000000e+03 1.8000000000000000e+01 1.4000000000000000e+01 2.5000000000000000e+00 
9 2 4 2.2559723595316457e+00 8.5645780024641316e-01 4.2000000000000000e+03 0.0000000000000000e+00 1.6000000000000000e+01 2.5000000000000000e+00 
10 2 4 2.2559723595316457e+00 9.4358627541846296e-01 4.2000000000000000e+03 0.0000000000000000e+00 1.8000000000000000e+01 2.5000000000000000e+00 
29 2 4 2.2559723595316457e+00 8.1354061453668414e-01 4.2000000000000000e+03 2.0000000000000000e+00 1.6000000000000000e+01 2.5000000000000000e+00 
30 2 4 2.2559723595316457e+00 9.9622396976744476e-01 4.2000000000000000e+03 2.0000000000000000e+00 1.8000000000000000e+01 2.5000000000000000e+00 
49 2 4 2.2559723595316457e+00 9.6867140011004615e-01 4.2000000000000000e+03 4.0000000000000000e+00 1.6000000000000000e+01 2.5000000000000000e+00 
50 2 4 2.2559723595316457e+00 1.0001501897771781e+00 4.2000000000000000e+03 4.0000000000000000e+00 1.8000000000000000e+01 2.5000000000000000e+00 
69 2 4 2.2559723595316457e+00 9.9774416196924198e-01 4.2000000000000000e+03 6.0000000000000000e+00 1.6000000000000000e+01 2.5000000000000000e+00 
70 2 4 2.2559723595316457e+00 9.9967194063178955e-01 4.2000000000000000e+03 6.0000000000000000e+00 1.8000000000000000e+01 2.5000000000000000e+00 
89 2 4 2.2559723595316457e+00 9.7440857819442961e-01 4.2000000000000000e+03 8.0000000000000000e+00 1.6000000000000000e+01 2.5000000000000000e+00 
90 2 4 2.2559723595316457e+00 9.9827511738456698e-01 4.2000000000000000e+03 8.0000000000000000e+00 1.8000000000000000e+01 2.5000000000000000e+00 
109 2 4 2.2559723595316457e+00 9.2876225412362468e-01 4.2000000000000000e+03 1.0000000000000000e+01 1.6000000000000000e+01 2.5000000000000000e+00 
110 2 4 2.2559723595316457e+00 9.9985699988001464e-01 4.2000000000000000e+03 1.0000000000000000e+01 1.8000000000000000e+01 2.5000000000000000e+00 
129 2 4 2.2559723595316457e+00 -1.2853665551556907e+02 4.2000000000000000e+03 1.2000000000000000e+01 1.6000000000000000e+01 2.5000000000000000e+00 
130 2 4 2.2559723595316457e+00 -1.2838395849183735e+02 4.2000000000000000e+03 1.2000000000000000e+01 1.8000000000000000e+01 2.5000000000000000e+00 
149 2 4 2.2559723595316457e+00 -1.6313002552917826e+03 4.2000000000000000e+03 1.4000000000000000e+01 1.6000000000000000e+01 2.5000000000000000e+00 
150 2 4 2.2559723595316457e+00 -1.6295162604516736e+03 4.2000000000000000e+03 1.4000000000000000e+01 1.8000000000000000e+01 2.5000000000000000e+00 
169 2 4 2.2559723595316457e+00 -4.4657543446330128e+03 4.2000000000000000e+03 1.6000000000000000e+01 1.6000000000000000e+01 2.5000000000000000e+00 
170 2 4 2.2559723595316457e+00 -4.4648023284756136e+03 4.2000000000000000e+03 1.6000000000000000e+01 1.8000000000000000e+01 2.5000000000000000e+00 
189 2 4 2.2559723595316457e+00 -6.2194901755550236e+03 4.2000000000000000e+03 1.8000000000000000e+01 1.6000000000000000e+01 2.5000000000000000e+00 
190 2 4 2.2559723595316457e+00 -6.2354156348764764e+03 4.2000000000000000e+03 1.8000000000000000e+01 1.8000000000000000e+01 2.5000000000000000e+00 
746 348 2 1.0279989226672441e+00 -9.9157062041478403e+03 4.2000000000000000e+03 9.8452686382739767e+00 1.3798773367253686e+01 8.5579467601231372e+01 
1790 1392 2 1.0279989312638862e+00 4.2913008475222512e+02 4.2000000000000000e+03 9.8039147215545643e+00 1.3773117135221336e+01 8.5615309232893409e+01 
1656 1258 2 1.0279989551371553e+00 2.2042388785031548e+02 4.2000000000000000e+03 9.6947168871267042e+00 1.3783493075910716e+01 8.5661077483326054e+01 
963 565 2 1.0279991106742190e+00 4.7881668617521704e+01 4.2000000000000000e+03 1.1308423197869814e+01 1.3534757799411164e+01 8.5024929235398858e+01 
1458 1060 2 1.0279990899329174e+00 6.4120790144565335e+03 4.2000000000000000e+03 1.1442699071370900e+01 1.3358230603840456e+01 8.5052733055344731e+01 
473 75 2 1.0279994179291625e+00 -3.2271433249840288e+03 4.2000000000000000e+03 1.0891639748278569e+01 1.4499093108874577e+01 8.5026441033212038e+01 
527 129 2 1.0279991490879894e+00 2.9349212472905684e+01 4.2000000000000000e+03 1.1748302377285285e+01 1.3060626935426694e+01 8.5120773684344428e+01 
902 504 2 1.0279991415629377e+00 -4.4975236254418296e+03 4.2000000000000000e+03 1.0715812066943078e+01 1.4129695401170025e+01 8.5094682147788703e+01 
1427 1029 2 1.0279993576672382e+00 1.4357844589132475e+04 4.2000000000000000e+03 1.2929137047457273e+01 1.2700974816891241e+01 8.5265427783449169e+01 
1777 1379 2 1.0280001824080338e+00 1.4860521133858788e+03 4.2000000000000000e+03 1.3561070997431290e+01 1.4502110623869925e+01 8.5320990436828126e+01 
858 460 2 1.0279991881929138e+00 2.2800378000739170e+03 4.2000000000000000e+03 1.2398282978688938e+01 1.2577237843735519e+01 8.5377821112204600e+01 
1106 708 2 1.0279995641316277e+00 1.5705590619217819e+03 4.2000000000000000e+03 1.3558484830706290e+01 1.2824905694156266e+01 8.5381041818409912e+01 
623 225 2 1.0279989343010121e+00 -1.0640034151959767e+03 4.2000000000000000e+03 1.0067793804025461e+01 1.3946834471271405e+01 8.5404145933144122e+01 
1671 1273 2 1.0279994965598267e+00 4.5321898459164800e+02 4.2000000000000000e+03 1.3735337459189996e+01 1.2734282938019074e+01 8.5515255919901279e+01 
888 490 2 1.0279988569175718e+00 5.6341713285164769e+03 4.2000000000000000e+03 1.0498158284946960e+01 1.3392116485726705e+01 8.5501471595544075e+01 
745 347 2 1.0279988875020645e+00 -7.3877894260547919e+03 4.2000000000000000e+03 1.0358629872881574e+01 1.3434295357635733e+01 8.5553602134423286e+01 
1127 729 2 1.0279994025534365e+00 -1.3109004059355193e+03 4.2000000000000000e+03 1.3778886686806906e+01 1.2602140767590178e+01 8.5621845900299220e+01 
474 76 2 1.0280001516031030e+00 -6.0331727658135833e+02 4.2000000000000000e+03 1.2074942174223924e+01 1.4999169966013669e+01 8.4936130832151747e+01 
1325 927 2 1.0279995166165008e+00 1.1083222218408093e+03 4.2000000000000000e+03 2.3577149581130343e+00 1.6389010664331813e+01 8.2266103753166760e+01 
1042 644 2 1.0279987150853960e+00 2.8215947325393454e+03 4.2000000000000000e+03 2.2584575179324453e+00 1.6300860074112297e+01 8.2300334898635171e+01 
1188 790 2 1.0279987574986964e+00 -4.8143554325084074e+02 4.2000000000000000e+03 2.2347885251661559e+00 1.6313149352038383e+01 8.2298677556936184e+01 
854 456 2 1.0279987320858877e+00 -1.2250689082333074e+03 4.2000000000000000e+03 2.2273467297971283e+00 1.6307588991162781e+01 8.2303641455542703e+01 
1592 1194 2 1.0279986189145496e+00 5.2079456389717325e+03 4.2000000000000000e+03 2.2855821085124428e+00 1.6232007660778745e+01 8.2345385961823609e+01 
1612 1214 2 1.0280002005546163e+00 3.8726112717417436e+03 4.2000000000000000e+03 4.1082460600539630e+00 1.6406965207871160e+01 8.2594615645082669e+01 
848 450 2 1.0279988954081549e+00 1.5358394267864367e+03 4.2000000000000000e+03 2.7393221027370971e+00 1.5982122216759315e+01 8.2513702559577780e+01 
630 232 2 1.0279988816061292e+00 -2.1985184838622508e+03 4.2000000000000000e+03 2.5781135728265574e+00 1.6043501988899440e+01 8.2477816150262825e+01 
1968 1570 2 1.0280002387319354e+00 -7.4083774272310884e+03 4.2000000000000000e+03 4.1927242342275228e+00 1.6435843725370294e+01 8.2624037022333042e+01 
1678 1280 2 1.0279989885085514e+00 4.5804557417708571e+02 4.2000000000000000e+03 2.7509232945234752e+00 1.5946032209877337e+01 8.2579246802683301e+01 
2066 1668 2 1.0280005084696919e+00 -4.3116800081225301e+02 4.2000000000000000e+03 4.3327661591666873e+00 1.6614201957908943e+01 8.2683303039319966e+01 
1364 966 2 1.0279990484373978e+00 3.0210646639040383e+03 4.2000000000000000e+03 2.6905217752368009e+00 1.5960437300490817e+01 8.2589063501632054e+01 
2035 1637 2 1.0279990424865988e+00 -3.4734085730395486e+02 4.2000000000000000e+03 2.7765798546347313e+00 1.5922398432038515e+01 8.2622532259261433e+01 
1581 1183 2 1.0279989251871600e+00 -4.8201118947808200e+03 4.2000000000000000e+03 3.5481713389142389e+00 1.5712233174987906e+01 8.2823711191571974e+01 
1920 1522 2 1.0279990903173470e+00 -6.6307377981451618e+03 4.2000000000000000e+03 2.9380930082035084e+00 1.5841606610170658e+01 8.2736437542600626e+01 
1178 780 2 1.0279991420056567e+00 -2.7380751921440115e+03 4.2000000000000000e+03 2.9687296759512378e+00 1.5819103903630699e+01 8.2805036303601668e+01 
1452 1054 2 1.0279988791512871e+00 7.9973508368170815e+02 4.2000000000000000e+03 3.4400407850502503e+00 1.5675488192307828e+01 8.2928535189382089e+01 
1913 1515 2 1.0279990113757516e+00 -7.0194831637953930e+03 4.2000000000000000e+03 3.1902303003750285e+00 1.5733017260406037e+01 8.2918226766831197e+01 
1813 1415 2 1.0279989864740344e+00 -1.6977413422227610e+03 4.2000000000000000e+03 3.2813066544533767e+00 1.5695291131843682e+01 8.3017809559316348e+01 
2053 1655 2 1.0279987300998561e+00 -1.9119604029838858e+03 4.2000000000000000e+03 4.7488584935054847e+00 1.5701051862486199e+01 8.3302859156972417e+01 
815 417 2 1.0280053316534126e+00 1.2298433553756495e+03 4.2000000000000000e+03 4.5519077355005786e+00 1.7669695282470649e+01 8.3276173606564896e+01 
1665 1267 2 1.0279984464158038e+00 8.7025930478796818e+02 4.2000000000000000e+03 3.8500655255587795e+00 1.5528164494988246e+01 8.3473505021409579e+01 
556 158 2 1.0279985152760174e+00 6.6149872861288313e+03 4.2000000000000000e+03 3.7949564150156334e+00 1.5542947784498283e+01 8.3463738170569044e+01 
2009 1611 2 1.0279985530993629e+00 -6.7669295312159711e+03 4.2000000000000000e+03 3.7711038879660106e+00 1.5555943017816729e+01 8.3506771312192129e+01 
1184 786 2 1.0279982354544162e+00 -2.3690111376567129e+03 4.2000000000000000e+03 4.0146820711128326e+00 1.5496602232175126e+01 8.3620311193181408e+01 
1335 937 2 1.0280001576616029e+00 -1.8897979985261381e+02 4.2000000000000000e+03 3.7697204444145691e+00 1.6039453212620362e+01 8.4038580510912965e+01 
1201 803 2 1.0279965055076727e+00 -6.5966820448905662e+02 4.2000000000000000e+03 4.8386448266520885e+00 1.5459727600570506e+01 8.4315955303637395e+01 
699 301 2 1.0280047572169295e+00 -1.0150946757222300e+03 4.2000000000000000e+03 4.9666436102826248e+00 1.7837919064161429e+01 8.3357355623174982e+01 
429 31 2 1.0279991268604276e+00 -7.2450654501283625e+03 4.2000000000000000e+03 5.3308219993406878e+00 1.6047183852209127e+01 8.3453156013382710e+01 
1758 1360 2 1.0280009255147065e+00 1.9328054920796103e+03 4.2000000000000000e+03 5.7190921265389232e+00 1.7244838164283578e+01 8.3473638865881455e+01 
1175 777 2 1.0279985228472892e+00 -5.4724058179384963e+02 4.2000000000000000e+03 5.0977068050150560e+00 1.5742414457875180e+01 8.3531740156050148e+01 
1748 1350 2 1.0280028433554151e+00 -1.1111104906549539e+04 4.2000000000000000e+03 5.9459441591713551e+00 1.8000457778552054e+01 8.3714708065915289e+01 
715 317 2 1.0280016563417880e+00 -2.2472907675926939e+02 4.2000000000000000e+03 6.4452365194701029e+00 1.9674824413281538e+01 8.3907547790943866e+01 
658 260 2 1.0280025996291520e+00 -6.1065668769052390e+03 4.2000000000000000e+03 6.6683163786963497e+00 1.8521294004762904e+01 8.4167671086099716e+01 
1627 1229 2 1.0280030546189096e+00 2.3216013612155789e+03 4.2000000000000000e+03 6.6025369281803910e+00 1.8236452803245481e+01 8.4182046004322558e+01 
1851 1453 2 1.0279993056236525e+00 -2.1798480834797742e+03 4.2000000000000000e+03 7.5056188453954231e+00 1.9827029773874173e+01 8.4372466759870235e+01 
791 393 2 1.0279976064122671e+00 -2.3552756880175789e+03 4.2000000000000000e+03 8.1387165823765795e+00 1.9930900394980394e+01 8.4696036787897512e+01 
723 325 2 1.0279954012145991e+00 -9.6656639839087541e+02 4.2000000000000000e+03 5.1582493013158262e+00 1.5494544571452314e+01 8.4558005987720222e+01 
2073 1675 2 1.0279922340421599e+00 9.7353889256857492e+03 4.2000000000000000e+03 5.7876161053191035e+00 1.5586438264700829e+01 8.4824068731415693e+01 
1631 1233 2 1.0279988198787546e+00 -2.3583906961198977e+03 4.2000000000000000e+03 7.4247001831000556e+00 1.8265090071952940e+01 8.5001302152655683e+01 
892 494 2 1.0279962592163998e+00 -1.6076437168375769e+03 4.2000000000000000e+03 8.0465715130436006e+00 1.8710134024116719e+01 8.5068717192223687e+01 
443 45 2 1.0280041178569663e+00 9.6480941314397654e+01 4.2000000000000000e+03 7.2595224492902206e+00 1.8081523269195458e+01 8.5063585595380431e+01 
690 292 2 1.0279953367884116e+00 -3.6992578460335030e+03 4.2000000000000000e+03 8.2850511198450629e+00 1.8551377043608593e+01 8.5250344531817547e+01 
1545 1147 2 1.0279996952317367e+00 -9.6375528236375192e+02 4.2000000000000000e+03 9.2469966953473719e+00 1.5317692111228361e+01 8.5462258094874784e+01 
1962 1564 2 1.0279996564361138e+00 1.1695616591024472e+02 4.2000000000000000e+03 8.8810840687528856e+00 1.5524685757665077e+01 8.5499920886137275e+01 
1399 1001 2 1.0280002123319221e+00 4.1014231630564118e+03 4.2000000000000000e+03 9.2381962846654897e+00 1.5820705757093039e+01 8.5514797492870201e+01 
539 141 2 1.0279988652639294e+00 3.5623761919019626e+03 4.2000000000000000e+03 8.3082963505466481e+00 1.5175689793272918e+01 8.5530317275426412e+01 
1716 1318 2 1.0279868952441118e+00 3.0417078807947023e+03 4.2000000000000000e+03 6.6038343975925535e+00 1.5396587550644208e+01 8.5704362201120119e+01 
1089 691 2 1.0280005153582223e+00 9.1112788339539529e+03 4.2000000000000000e+03 1.3044323168066839e+01 1.9242190953174198e+01 8.4947866824308761e+01 
1351 953 2 1.0280005017868221e+00 -1.7676880677774952e+03 4.2000000000000000e+03 1.3081221636026871e+01 1.9250882824766371e+01 8.4952380633053721e+01 
941 543 2 1.0280003701200604e+00 -1.3950877776213736e+02 4.2000000000000000e+03 1.3222036419484292e+01 1.9011458335478491e+01 8.4984615239670532e+01 
1823 1425 2 1.0280003670445597e+00 9.5771367712867436e+02 4.2000000000000000e+03 1.3207643471215050e+01 1.8963044982558412e+01 8.4986355226253195e+01 
647 249 2 1.0280003880848658e+00 9.6005201986928751e+02 4.2000000000000000e+03 1.3172715388440553e+01 1.8972300452337066e+01 8.4979807010622920e+01 
1250 852 2 1.0280003924829419e+00 -5.6875590017863196e+03 4.2000000000000000e+03 1.3162323732320990e+01 1.8965811807215811e+01 8.4978837274668180e+01 
1082 684 2 1.0280003747784909e+00 -5.6899667371593232e+03 4.2000000000000000e+03 1.3198906637409253e+01 1.8976773170083298e+01 8.4983600531802679e+01 
1101 703 2 1.0280003557977273e+00 -2.7102323260607313e+03 4.2000000000000000e+03 1.3225900298245403e+01 1.8956593007245971e+01 8.4990146717438876e+01 
1269 871 2 1.0280003794343082e+00 -2.7079108473863739e+03 4.2000000000000000e+03 1.3189289205371395e+01 1.8972162008910090e+01 8.4982447916141439e+01 
1046 648 2 1.0280003378527880e+00 2.8988750703583901e+03 4.2000000000000000e+03 1.3252156394641514e+01 1.8936185323731134e+01 8.4997000349419068e+01 
1550 1152 2 1.0280003313736177e+00 2.8984044546649743e+03 4.2000000000000000e+03 1.3260682636693334e+01 1.8929461625564524e+01 8.4999326102630008e+01 
1445 1047 2 1.0280003089047991e+00 -1.4259064445955551e+02 4.2000000000000000e+03 1.3282976630767747e+01 1.8861839524447124e+01 8.5011645712882199e+01 
1257 859 2 1.0280003248775353e+00 9.1056378660456212e+03 4.2000000000000000e+03 1.3228078721779109e+01 1.8729288776568954e+01 8.5021515153733461e+01 
1183 785 2 1.0280003209410304e+00 -1.7731982157617094e+03 4.2000000000000000e+03 1.3241991329477832e+01 1.8689052104219723e+01 8.5031363890579044e+01 
633 235 2 1.0280004537944716e+00 3.8672930167729082e+03 4.2000000000000000e+03 1.1788113862289675e+01 1.9239981190420600e+01 8.5029102186012935e+01 
1421 1023 2 1.0280004635313496e+00 4.1505373947099233e+03 4.2000000000000000e+03 1.2630935630520579e+01 1.5267101710681187e+01 8.5090275215338721e+01 
1171 773 2 1.0280007755194256e+00 -4.8233131951900259e+02 4.2000000000000000e+03 1.2414904492809422e+01 1.5579543691531253e+01 8.5143683193788306e+01 
1773 1375 2 1.0280000344297822e+00 -1.1444392282661390e+03 4.2000000000000000e+03 1.3925863832505256e+01 1.9221414747859338e+01 8.5225617241648976e+01 
597 199 2 1.0279999112344564e+00 -1.1449600502867161e+03 4.2000000000000000e+03 1.3780079311263179e+01 1.8576183761055475e+01 8.5227751255399198e+01 
1809 1411 2 1.0279999553084378e+00 3.8552176582879870e+03 4.2000000000000000e+03 1.0993119099967366e+01 1.9013651672008304e+01 8.5214561184220997e+01 
1446 1048 2 1.0280010668021311e+00 3.7263058484303165e+03 4.2000000000000000e+03 1.2784940806256749e+01 1.5767745484493858e+01 8.5312712346074846e+01 
2028 1630 2 1.0280017881421277e+00 -4.4794294826481491e+03 4.2000000000000000e+03 1.2903867626102597e+01 1.6108293703660138e+01 8.5488437154358508e+01 
1381 983 2 1.0280021128072432e+00 -2.4712973365634030e+03 4.2000000000000000e+03 1.2923464310092246e+01 1.6212735167218760e+01 8.5532668070132900e+01 
951 553 2 1.0280034761953574e+00 2.3551933410599913e+03 4.2000000000000000e+03 1.2946227564810361e+01 1.6648216328029022e+01 8.5624361397865101e+01 
1574 1176 2 1.0280011645315885e+00 9.6177454822131040e+03 4.2000000000000000e+03 1.9306980113529448e+01 2.1535265382773385e+00 9.0148837996649107e+01 
1575 1177 2 1.0280010803697750e+00 9.6179333848703900e+03 4.2000000000000000e+03 1.8825660810868776e+01 2.1484703368118621e+00 9.0155312570571297e+01 
1559 1161 2 1.0280010513983522e+00 2.4791993577980134e+03 4.2000000000000000e+03 1.9129906166754918e+01 1.8700286679790821e+00 9.0167868299135677e+01 
1558 1160 2 1.0280010412838776e+00 2.4792181684202751e+03 4.2000000000000000e+03 1.9003869599458593e+01 1.8660441214191741e+00 9.0169880846817932e+01 
1977 1579 2 1.0280009952264622e+00 -7.9818104733978289e+03 4.2000000000000000e+03 1.9180585617120997e+01 1.7023611885831571e+00 9.0191071910225247e+01 
1980 1582 2 1.0280009512010027e+00 -7.9817680935559474e+03 4.2000000000000000e+03 1.8952297233645996e+01 1.6950802270214766e+00 9.0194900486088784e+01 
1749 1351 2 1.0280002563625279e+00 -4.2095034224593792e+03 4.2000000000000000e+03 9.2430201265895260e+00 8.4456744871742444e+00 8.9905958376416109e+01 
1276 878 2 1.0280004344093689e+00 -4.0166883763688011e+03 4.2000000000000000e+03 9.1696382376255805e+00 8.9538347415116650e+00 8.9899939209472848e+01 
1134 736 2 1.0280006746749815e+00 -3.8529575112147668e+03 4.2000000000000000e+03 9.6990266005353334e+00 7.5747957519445022e+00 8.9949272780142351e+01 