LAMMPS data file via write_data, version 30 Jul 2016, timestep = 100000000

171 atoms
8 atom types

0.0000000000000000e+00 2.0000000000000000e+01 xlo xhi
0.0000000000000000e+00 2.0000000000000000e+01 ylo yhi
0.0000000000000000e+00 2.0000000000000000e+01 zlo zhi

Masses

1 3.896
2 5.36
3 20.064
4 1.047
5 1.047
6 1.047
7 1.047
8 1.047

Atoms # meso-molecular

1 2 4 2.8666455499559546e-01 -1.2857581197876469e+01 1.0000000000000000e+00 0.0000000000000000e+00 0.0000000000000000e+00 5.0000000000000000e-01 
2 2 4 2.9139988339419487e-01 -7.9778118474636539e+00 1.0000000000000000e+00 0.0000000000000000e+00 1.6000000000000001e+00 5.0000000000000000e-01 
3 2 4 2.9139988339419487e-01 -9.9486099400316661e+00 1.0000000000000000e+00 0.0000000000000000e+00 3.2000000000000002e+00 5.0000000000000000e-01 
14 2 4 2.8666455499559546e-01 -6.1611009533907142e+00 1.0000000000000000e+00 2.0000000000000000e+00 0.0000000000000000e+00 5.0000000000000000e-01 
15 2 4 2.9139988339419487e-01 9.6252618685617186e+00 1.0000000000000000e+00 2.0000000000000000e+00 1.6000000000000001e+00 5.0000000000000000e-01 
16 2 4 2.9139988339419487e-01 -8.4480146818288482e-01 1.0000000000000000e+00 2.0000000000000000e+00 3.2000000000000002e+00 5.0000000000000000e-01 
27 2 4 3.0804471896836783e-01 -2.3509710408576190e+01 1.0000000000000000e+00 4.0000000000000000e+00 0.0000000000000000e+00 5.0000000000000000e-01 
28 2 4 4.9762909319877680e-01 6.8390154559361971e+00 1.0000000000000000e+00 4.0000000000000000e+00 1.6000000000000001e+00 5.0000000000000000e-01 
29 2 4 4.8579673775932597e-01 -1.8434308578051088e+01 1.0000000000000000e+00 4.0000000000000000e+00 3.2000000000000002e+00 5.0000000000000000e-01 
40 2 4 4.3198862076727446e-01 -3.3284161549916675e+01 1.0000000000000000e+00 6.0000000000000000e+00 0.0000000000000000e+00 5.0000000000000000e-01 
41 2 4 9.7391948720926336e-01 -1.9085984449664841e+00 1.0000000000000000e+00 6.0000000000000000e+00 1.6000000000000001e+00 5.0000000000000000e-01 
42 2 4 9.4472028812864506e-01 -4.0904569397539660e+01 1.0000000000000000e+00 6.0000000000000000e+00 3.2000000000000002e+00 5.0000000000000000e-01 
567 2 1 8.9758878371903128e-01 -1.6040459023261896e+01 1.0000000000000000e+00 5.9978693531752283e+00 2.3473850922232908e+00 5.0005770822399420e-01 
265 2 1 8.9758790826180401e-01 -3.8969776700316302e+01 1.0000000000000000e+00 5.9966723178809254e+00 2.3461298232643064e+00 4.9957221047101580e-01 
264 2 1 8.9758785660775442e-01 -5.7708686503016480e+01 1.0000000000000000e+00 6.0001007426783053e+00 2.3463451390623931e+00 4.9978905273005436e-01 
181 2 1 8.9758850280016211e-01 -3.0908901281475885e+01 1.0000000000000000e+00 5.9988628352925417e+00 2.3480893319532439e+00 5.0101338190730094e-01 
524 2 1 8.9758818001437946e-01 -3.6047799921478124e+01 1.0000000000000000e+00 5.9993581143709864e+00 2.3486006445638230e+00 5.0092494622152761e-01 
271 2 1 8.9758792607729687e-01 -7.5401961291556830e+01 1.0000000000000000e+00 5.9965293805730795e+00 2.3486997119926292e+00 5.0010714656352850e-01 
4 2 4 2.9139988339419481e-01 -7.1275273364878409e+00 1.0000000000000000e+00 0.0000000000000000e+00 4.7999999999999998e+00 5.0000000000000000e-01 
5 2 4 3.1805879310461238e-01 -1.0596096632547317e+01 1.0000000000000000e+00 0.0000000000000000e+00 6.4000000000000004e+00 5.0000000000000000e-01 
17 2 4 2.9163163494345212e-01 -8.1875128687282794e-01 1.0000000000000000e+00 2.0000000000000000e+00 4.7999999999999998e+00 5.0000000000000000e-01 
18 2 4 4.5959980895301156e-01 -5.6881750676182863e+00 1.0000000000000000e+00 2.0000000000000000e+00 6.4000000000000004e+00 5.0000000000000000e-01 
30 2 4 3.0688211798905574e-01 -2.1278734069195277e+01 1.0000000000000000e+00 4.0000000000000000e+00 4.7999999999999998e+00 5.0000000000000000e-01 
31 2 4 3.1801224207743545e-01 -2.0693585616468862e+01 1.0000000000000000e+00 4.0000000000000000e+00 6.4000000000000004e+00 5.0000000000000000e-01 
43 2 4 4.1076116245977778e-01 -2.3220120726574333e+01 1.0000000000000000e+00 6.0000000000000000e+00 4.7999999999999998e+00 5.0000000000000000e-01 
44 2 4 3.0955972166914275e-01 -3.7504579171379305e+01 1.0000000000000000e+00 6.0000000000000000e+00 6.4000000000000004e+00 5.0000000000000000e-01 
278 2 1 1.0006633747786007e+00 -5.5438759787879995e+01 1.0000000000000000e+00 1.9972139758278677e+00 9.0169653146505091e+00 5.0119584040658127e-01 
202 2 1 9.9138153104039939e-01 -7.4424277727163968e+01 1.0000000000000000e+00 2.0007966851184018e+00 8.4769895992260782e+00 4.9984385973659679e-01 
201 2 1 9.9120158836879624e-01 -8.5475052739705461e+01 1.0000000000000000e+00 1.9991452318791858e+00 8.4756441950612729e+00 5.0050999535514340e-01 
286 2 1 9.9085801261208140e-01 -9.0982942362620889e+01 1.0000000000000000e+00 1.9996439529698746e+00 8.4730956716735815e+00 4.9935057002139455e-01 
6 2 4 5.2257257517435685e-01 -2.0141202557493273e+01 1.0000000000000000e+00 0.0000000000000000e+00 8.0000000000000000e+00 5.0000000000000000e-01 
7 2 4 5.1936189717403647e-01 -1.6985633042573184e+01 1.0000000000000000e+00 0.0000000000000000e+00 9.5999999999999996e+00 5.0000000000000000e-01 
19 2 4 1.0642785852813323e+00 -1.8951415251477879e+01 1.0000000000000000e+00 2.0000000000000000e+00 8.0000000000000000e+00 5.0000000000000000e-01 
20 2 4 1.0559401440275680e+00 -1.3483334343663881e+01 1.0000000000000000e+00 2.0000000000000000e+00 9.5999999999999996e+00 5.0000000000000000e-01 
285 2 1 1.0006411661303800e+00 -9.5376158741958761e+01 1.0000000000000000e+00 2.0003567263760247e+00 9.0171980685618767e+00 5.0030626982930726e-01 
194 2 1 1.0004362927828250e+00 -6.1934728600397179e+01 1.0000000000000000e+00 1.9981195637871136e+00 9.0192294137660074e+00 5.0028280776407608e-01 
208 2 1 1.0003710656318929e+00 -5.6968814931760100e+01 1.0000000000000000e+00 2.0003713795279112e+00 9.0198694858611166e+00 4.9865818920042954e-01 
32 2 4 5.2219688092468086e-01 -3.4914213186331494e+01 1.0000000000000000e+00 4.0000000000000000e+00 8.0000000000000000e+00 5.0000000000000000e-01 
33 2 4 5.1892933833361599e-01 -2.1115474778828291e+00 1.0000000000000000e+00 4.0000000000000000e+00 9.5999999999999996e+00 5.0000000000000000e-01 
45 2 4 4.9104691450904597e-01 -6.0409970747046565e+01 1.0000000000000000e+00 6.0000000000000000e+00 8.0000000000000000e+00 5.0000000000000000e-01 
46 2 4 4.9100861610270358e-01 -3.4867094669652801e+01 1.0000000000000000e+00 6.0000000000000000e+00 9.5999999999999996e+00 5.0000000000000000e-01 
8 2 4 3.1607523218108846e-01 -1.1067192680551645e+00 1.0000000000000000e+00 0.0000000000000000e+00 1.1199999999999999e+01 5.0000000000000000e-01 
9 2 4 2.9139988339419481e-01 4.4720839190763284e-01 1.0000000000000000e+00 0.0000000000000000e+00 1.2800000000000001e+01 5.0000000000000000e-01 
21 2 4 4.5163046368193999e-01 -2.8475776868138944e+00 1.0000000000000000e+00 2.0000000000000000e+00 1.1199999999999999e+01 5.0000000000000000e-01 
22 2 4 3.0051904704623622e-01 7.6459373914054956e+00 1.0000000000000000e+00 2.0000000000000000e+00 1.2800000000000001e+01 5.0000000000000000e-01 
34 2 4 3.1597712264017369e-01 1.5075526614149252e+01 1.0000000000000000e+00 4.0000000000000000e+00 1.1199999999999999e+01 5.0000000000000000e-01 
35 2 4 3.5724027749764098e-01 4.8825976028408675e+00 1.0000000000000000e+00 4.0000000000000000e+00 1.2800000000000001e+01 5.0000000000000000e-01 
47 2 4 3.0954071200816535e-01 -1.8934691322809513e+01 1.0000000000000000e+00 6.0000000000000000e+00 1.1199999999999999e+01 5.0000000000000000e-01 
48 2 4 3.0047646136531087e-01 -2.1380381050800306e+01 1.0000000000000000e+00 6.0000000000000000e+00 1.2800000000000001e+01 5.0000000000000000e-01 
10 2 4 2.9139988339419487e-01 -1.7641918113160364e+00 1.0000000000000000e+00 0.0000000000000000e+00 1.4400000000000000e+01 5.0000000000000000e-01 
11 2 4 2.9139988339419481e-01 1.6519399829357346e+00 1.0000000000000000e+00 0.0000000000000000e+00 1.6000000000000000e+01 5.0000000000000000e-01 
23 2 4 3.9122444249120625e-01 -2.4130142731513540e+00 1.0000000000000000e+00 2.0000000000000000e+00 1.4400000000000000e+01 5.0000000000000000e-01 
24 2 4 3.9137245351992062e-01 1.5743315693831100e-01 1.0000000000000000e+00 2.0000000000000000e+00 1.6000000000000000e+01 5.0000000000000000e-01 
36 2 4 6.2535660805824322e-01 -1.5770454335351911e+01 1.0000000000000000e+00 4.0000000000000000e+00 1.4400000000000000e+01 5.0000000000000000e-01 
37 2 4 6.2572282339957952e-01 -1.6607652427302462e+01 1.0000000000000000e+00 4.0000000000000000e+00 1.6000000000000000e+01 5.0000000000000000e-01 
49 2 4 3.9137044130117687e-01 -1.1374200349357510e+01 1.0000000000000000e+00 6.0000000000000000e+00 1.4400000000000000e+01 5.0000000000000000e-01 
50 2 4 3.9151872559658013e-01 -9.6905490331066009e+00 1.0000000000000000e+00 6.0000000000000000e+00 1.6000000000000000e+01 5.0000000000000000e-01 
661 2 1 5.0417971015406704e-01 -9.3210555573394132e+01 1.0000000000000000e+00 4.0004440448247411e+00 1.5200813006923982e+01 4.9991766574212865e-01 
366 2 1 5.0417958592588097e-01 -3.7910039845174623e+01 1.0000000000000000e+00 4.0000655388383874e+00 1.5200200141661556e+01 4.9972776358886528e-01 
376 2 1 5.0417944791261982e-01 -6.4691083727266161e+01 1.0000000000000000e+00 4.0010471647189902e+00 1.5202932278670518e+01 5.0017088355360606e-01 
12 2 4 2.9139988339419487e-01 -1.0960372641592581e-01 1.0000000000000000e+00 0.0000000000000000e+00 1.7600000000000001e+01 5.0000000000000000e-01 
13 2 4 2.8666455499559551e-01 -3.7210438178990740e-01 1.0000000000000000e+00 0.0000000000000000e+00 1.9199999999999999e+01 5.0000000000000000e-01 
25 2 4 3.0052590252152989e-01 7.5884135486646018e+00 1.0000000000000000e+00 2.0000000000000000e+00 1.7600000000000001e+01 5.0000000000000000e-01 
26 2 4 2.8666455499559551e-01 6.6233133682178398e+00 1.0000000000000000e+00 2.0000000000000000e+00 1.9199999999999999e+01 5.0000000000000000e-01 
38 2 4 3.5756580045985858e-01 7.7340089873993090e-01 1.0000000000000000e+00 4.0000000000000000e+00 1.7600000000000001e+01 5.0000000000000000e-01 
51 2 4 3.0055024663436480e-01 1.3243558542229796e+00 1.0000000000000000e+00 6.0000000000000000e+00 1.7600000000000001e+01 5.0000000000000000e-01 
39 2 4 2.8666455499620069e-01 2.0579211885609978e+00 1.0000000000000000e+00 4.0000000000000000e+00 1.9199999999999999e+01 5.0000000000000000e-01 
52 2 4 2.8666455499559551e-01 -5.0624090086015983e+00 1.0000000000000000e+00 6.0000000000000000e+00 1.9199999999999999e+01 5.0000000000000000e-01 
53 2 4 3.0785915967402921e-01 -2.6407111644157112e+01 1.0000000000000000e+00 8.0000000000000000e+00 0.0000000000000000e+00 5.0000000000000000e-01 
54 2 4 4.9661194053648133e-01 7.2247066877032777e+00 1.0000000000000000e+00 8.0000000000000000e+00 1.6000000000000001e+00 5.0000000000000000e-01 
55 2 4 4.8482367105458274e-01 -2.0774273363210749e+01 1.0000000000000000e+00 8.0000000000000000e+00 3.2000000000000002e+00 5.0000000000000000e-01 
66 2 4 3.1236491976137609e-01 -2.9746392262378833e+01 1.0000000000000000e+00 1.0000000000000000e+01 0.0000000000000000e+00 5.0000000000000000e-01 
67 2 4 5.2158211188539660e-01 -4.3170870997222260e-01 1.0000000000000000e+00 1.0000000000000000e+01 1.6000000000000001e+00 5.0000000000000000e-01 
68 2 4 5.2060588567548582e-01 -1.6196444229820475e+01 1.0000000000000000e+00 1.0000000000000000e+01 3.2000000000000002e+00 5.0000000000000000e-01 
79 2 4 4.5139548948154518e-01 -2.2073201376661100e+01 1.0000000000000000e+00 1.2000000000000000e+01 0.0000000000000000e+00 5.0000000000000000e-01 
80 2 4 1.0614527692011073e+00 -1.1470687308531497e+01 1.0000000000000000e+00 1.2000000000000000e+01 1.6000000000000001e+00 5.0000000000000000e-01 
81 2 4 1.0593461993729063e+00 -1.6111986554233685e+01 1.0000000000000000e+00 1.2000000000000000e+01 3.2000000000000002e+00 5.0000000000000000e-01 
241 2 1 9.9210480809371571e-01 -1.0302063707884361e+02 1.0000000000000000e+00 1.2000028214899494e+01 2.7036563264106586e+00 5.0010982858786335e-01 
242 2 1 9.9205873491159002e-01 -6.1933677798558897e+01 1.0000000000000000e+00 1.1999831240856350e+01 2.7040035950816197e+00 5.0021963415800974e-01 
235 2 1 1.0010679156286160e+00 -4.6755875576262412e+01 1.0000000000000000e+00 1.1999001624038879e+01 2.1664822584134491e+00 5.0097900688344177e-01 
165 2 1 1.0013247918995138e+00 4.7555794267026302e-02 1.0000000000000000e+00 1.1997988258870102e+01 2.1690591834799688e+00 4.9918571113469123e-01 
434 2 1 9.9194906658812165e-01 -3.4463746794502001e+01 1.0000000000000000e+00 1.2000333350917664e+01 2.7048261003527472e+00 4.9975260360600676e-01 
158 2 1 1.0014691881191997e+00 -3.5019761352588404e+01 1.0000000000000000e+00 1.2000498624833286e+01 2.1705163934278588e+00 4.9973530705540387e-01 
157 2 1 1.0009207467619710e+00 -5.0205820332737751e+01 1.0000000000000000e+00 1.1997446661607489e+01 2.1650271735998103e+00 5.0073408386163731e-01 
56 2 4 3.0673646926285653e-01 -3.4453017273767998e+01 1.0000000000000000e+00 8.0000000000000000e+00 4.7999999999999998e+00 5.0000000000000000e-01 
57 2 4 4.2344799639208081e-01 -4.3972426330086599e+01 1.0000000000000000e+00 8.0000000000000000e+00 6.4000000000000004e+00 5.0000000000000000e-01 
69 2 4 3.1681853359924916e-01 -2.4290745599844541e+01 1.0000000000000000e+00 1.0000000000000000e+01 4.7999999999999998e+00 5.0000000000000000e-01 
70 2 4 3.0966440120187605e-01 -9.4042329796782003e+00 1.0000000000000000e+00 1.0000000000000000e+01 6.4000000000000004e+00 5.0000000000000000e-01 
82 2 4 4.5457108538175189e-01 -1.1657229422141695e+01 1.0000000000000000e+00 1.2000000000000000e+01 4.7999999999999998e+00 5.0000000000000000e-01 
83 2 4 2.9158010767724030e-01 9.9679132870100051e-01 1.0000000000000000e+00 1.2000000000000000e+01 6.4000000000000004e+00 5.0000000000000000e-01 
58 2 4 9.5972701140292993e-01 -4.1711475469988963e+00 1.0000000000000000e+00 8.0000000000000000e+00 8.0000000000000000e+00 5.0000000000000000e-01 
59 2 4 9.5963213149308269e-01 -6.8147068817404460e+01 1.0000000000000000e+00 8.0000000000000000e+00 9.5999999999999996e+00 5.0000000000000000e-01 
348 2 1 8.9758763825702148e-01 -1.0951794540113039e+02 1.0000000000000000e+00 8.0005659532906872e+00 8.7986943234724251e+00 4.9974441985983675e-01 
230 2 1 8.9758770881384464e-01 -1.1372031050530231e+02 1.0000000000000000e+00 8.0007870610933853e+00 8.8009486197815132e+00 5.0040311519494884e-01 
244 2 1 8.9758739885611538e-01 -5.7144057508474702e+01 1.0000000000000000e+00 8.0024728297718006e+00 8.7993138407067448e+00 4.9927763973791067e-01 
152 2 1 8.9758784305061123e-01 -4.4096808566032792e+01 1.0000000000000000e+00 8.0013472045768435e+00 8.7991404819396219e+00 5.0059278211563418e-01 
215 2 1 8.9758774394856800e-01 -1.3593733440309131e+02 1.0000000000000000e+00 8.0007045478602397e+00 8.7999298689676859e+00 5.0110962091193234e-01 
243 2 1 8.9758772089733130e-01 -6.7898762986248670e+01 1.0000000000000000e+00 8.0008452121948341e+00 8.8009508354197514e+00 4.9997108300746557e-01 
85 2 4 4.5797644314965674e-01 -1.5092529359648498e+01 1.0000000000000000e+00 1.2000000000000000e+01 9.5999999999999996e+00 5.0000000000000000e-01 
72 2 4 4.9163966002632786e-01 -3.0202158485465947e+01 1.0000000000000000e+00 1.0000000000000000e+01 9.5999999999999996e+00 5.0000000000000000e-01 
84 2 4 3.0657425770177343e-01 -2.1674974072917217e+00 1.0000000000000000e+00 1.2000000000000000e+01 8.0000000000000000e+00 5.0000000000000000e-01 
71 2 4 4.9167812446451514e-01 -1.2049065938805324e+01 1.0000000000000000e+00 1.0000000000000000e+01 8.0000000000000000e+00 5.0000000000000000e-01 
60 2 4 4.2336366131290315e-01 -3.5966943179588064e+01 1.0000000000000000e+00 8.0000000000000000e+00 1.1199999999999999e+01 5.0000000000000000e-01 
61 2 4 2.9139988339421219e-01 -1.3334688151389232e+01 1.0000000000000000e+00 8.0000000000000000e+00 1.2800000000000001e+01 5.0000000000000000e-01 
73 2 4 3.0964524125128212e-01 -1.3827290488081664e+01 1.0000000000000000e+00 1.0000000000000000e+01 1.1199999999999999e+01 5.0000000000000000e-01 
74 2 4 2.9139988339419481e-01 -2.0085572383116723e+01 1.0000000000000000e+00 1.0000000000000000e+01 1.2800000000000001e+01 5.0000000000000000e-01 
86 2 4 4.5790016152312646e-01 -1.0833542473744069e+01 1.0000000000000000e+00 1.2000000000000000e+01 1.1199999999999999e+01 5.0000000000000000e-01 
87 2 4 3.0653639167224478e-01 4.9683154911444936e+00 1.0000000000000000e+00 1.2000000000000000e+01 1.2800000000000001e+01 5.0000000000000000e-01 
62 2 4 2.9139988339419487e-01 -3.9514427312695958e+01 1.0000000000000000e+00 8.0000000000000000e+00 1.4400000000000000e+01 5.0000000000000000e-01 
63 2 4 2.9139988339419481e-01 -1.4823428379372775e+01 1.0000000000000000e+00 8.0000000000000000e+00 1.6000000000000000e+01 5.0000000000000000e-01 
75 2 4 2.9139988339419487e-01 -2.6306531398863516e+01 1.0000000000000000e+00 1.0000000000000000e+01 1.4400000000000000e+01 5.0000000000000000e-01 
76 2 4 2.9139988339419481e-01 -7.7531767659101423e+00 1.0000000000000000e+00 1.0000000000000000e+01 1.6000000000000000e+01 5.0000000000000000e-01 
88 2 4 2.9139988339419487e-01 2.7172927100126225e+00 1.0000000000000000e+00 1.2000000000000000e+01 1.4400000000000000e+01 5.0000000000000000e-01 
89 2 4 2.9139988339419481e-01 8.8002997015311024e+00 1.0000000000000000e+00 1.2000000000000000e+01 1.6000000000000000e+01 5.0000000000000000e-01 
64 2 4 2.9139988339419487e-01 -6.2037091469944148e+00 1.0000000000000000e+00 8.0000000000000000e+00 1.7600000000000001e+01 5.0000000000000000e-01 
65 2 4 2.8666455499559551e-01 -1.9619356623363892e+01 1.0000000000000000e+00 8.0000000000000000e+00 1.9199999999999999e+01 5.0000000000000000e-01 
77 2 4 2.9139988339419487e-01 1.0281016907523883e+01 1.0000000000000000e+00 1.0000000000000000e+01 1.7600000000000001e+01 5.0000000000000000e-01 
78 2 4 2.8666455499559551e-01 -1.4367409110786188e+01 1.0000000000000000e+00 1.0000000000000000e+01 1.9199999999999999e+01 5.0000000000000000e-01 
91 2 4 2.8666455499559551e-01 3.0478162456972799e+00 1.0000000000000000e+00 1.2000000000000000e+01 1.9199999999999999e+01 5.0000000000000000e-01 
90 2 4 2.9139988339419487e-01 1.7979085978956746e+01 1.0000000000000000e+00 1.2000000000000000e+01 1.7600000000000001e+01 5.0000000000000000e-01 
92 2 4 3.1223967665345287e-01 -5.5800140468033401e+00 1.0000000000000000e+00 1.4000000000000000e+01 0.0000000000000000e+00 5.0000000000000000e-01 
93 2 4 5.2108094039089015e-01 -2.1818816983826990e+00 1.0000000000000000e+00 1.4000000000000000e+01 1.6000000000000001e+00 5.0000000000000000e-01 
94 2 4 5.2020230926420219e-01 -8.4366297328108288e+00 1.0000000000000000e+00 1.4000000000000000e+01 3.2000000000000002e+00 5.0000000000000000e-01 
105 2 4 2.8666455499559546e-01 8.7602457482339329e+00 1.0000000000000000e+00 1.6000000000000000e+01 0.0000000000000000e+00 5.0000000000000000e-01 
106 2 4 2.9139988339419487e-01 1.5582907237248710e+01 1.0000000000000000e+00 1.6000000000000000e+01 1.6000000000000001e+00 5.0000000000000000e-01 
107 2 4 2.9139988339419487e-01 1.2545380389858526e+01 1.0000000000000000e+00 1.6000000000000000e+01 3.2000000000000002e+00 5.0000000000000000e-01 
118 2 4 2.8666455499559546e-01 7.2991382765285562e-01 1.0000000000000000e+00 1.8000000000000000e+01 0.0000000000000000e+00 5.0000000000000000e-01 
119 2 4 2.9139988339419487e-01 2.9615915386136216e+00 1.0000000000000000e+00 1.8000000000000000e+01 1.6000000000000001e+00 5.0000000000000000e-01 
120 2 4 2.9139988339419487e-01 2.8389959161024865e+00 1.0000000000000000e+00 1.8000000000000000e+01 3.2000000000000002e+00 5.0000000000000000e-01 
95 2 4 3.1678186879152298e-01 6.1882029824305524e+00 1.0000000000000000e+00 1.4000000000000000e+01 4.7999999999999998e+00 5.0000000000000000e-01 
96 2 4 2.9139988339436906e-01 7.3037489459010514e+00 1.0000000000000000e+00 1.4000000000000000e+01 6.4000000000000004e+00 5.0000000000000000e-01 
108 2 4 2.9139988339419481e-01 1.1434346604328315e+01 1.0000000000000000e+00 1.6000000000000000e+01 4.7999999999999998e+00 5.0000000000000000e-01 
109 2 4 2.9139988339419481e-01 1.2533444551482221e+01 1.0000000000000000e+00 1.6000000000000000e+01 6.4000000000000004e+00 5.0000000000000000e-01 
121 2 4 2.9139988339419481e-01 1.7539595086247743e+00 1.0000000000000000e+00 1.8000000000000000e+01 4.7999999999999998e+00 5.0000000000000000e-01 
122 2 4 2.9139988339419481e-01 2.6666982610734022e+00 1.0000000000000000e+00 1.8000000000000000e+01 6.4000000000000004e+00 5.0000000000000000e-01 
97 2 4 4.0148892601360625e-01 -1.4692923014986703e+00 1.0000000000000000e+00 1.4000000000000000e+01 8.0000000000000000e+00 5.0000000000000000e-01 
98 2 4 8.4839416951794266e-01 -5.6741509191508852e+00 1.0000000000000000e+00 1.4000000000000000e+01 9.5999999999999996e+00 5.0000000000000000e-01 
110 2 4 3.0660126890330469e-01 6.3170267908294937e+00 1.0000000000000000e+00 1.6000000000000000e+01 8.0000000000000000e+00 5.0000000000000000e-01 
111 2 4 4.5813873105447345e-01 5.5381809876789001e-01 1.0000000000000000e+00 1.6000000000000000e+01 9.5999999999999996e+00 5.0000000000000000e-01 
124 2 4 2.9139988339419487e-01 -1.1711346366710411e+00 1.0000000000000000e+00 1.8000000000000000e+01 9.5999999999999996e+00 5.0000000000000000e-01 
123 2 4 2.9139988339419487e-01 -5.9860077334065398e-01 1.0000000000000000e+00 1.8000000000000000e+01 8.0000000000000000e+00 5.0000000000000000e-01 
99 2 4 8.4820522261248266e-01 -1.1322624789629268e+01 1.0000000000000000e+00 1.4000000000000000e+01 1.1199999999999999e+01 5.0000000000000000e-01 
100 2 4 4.0132097489851748e-01 3.9033408728985810e+00 1.0000000000000000e+00 1.4000000000000000e+01 1.2800000000000001e+01 5.0000000000000000e-01 
112 2 4 4.5806214119815936e-01 -1.6420205470890092e+00 1.0000000000000000e+00 1.6000000000000000e+01 1.1199999999999999e+01 5.0000000000000000e-01 
113 2 4 3.0672996286105914e-01 4.4475051733659443e+00 1.0000000000000000e+00 1.6000000000000000e+01 1.2800000000000001e+01 5.0000000000000000e-01 
490 2 1 7.6645178069200914e-01 -4.0801666406755366e+01 1.0000000000000000e+00 1.4000209170469647e+01 1.0399874418164215e+01 5.0023054591838145e-01 
430 2 1 7.6645156397979186e-01 -6.0838633784037526e+01 1.0000000000000000e+00 1.3999704326692708e+01 1.0398616953169183e+01 5.0039680464989300e-01 
262 2 1 7.6645142396104105e-01 -5.1178700967026693e+01 1.0000000000000000e+00 1.3999312935899820e+01 1.0400680917656956e+01 5.0000502123958601e-01 
316 2 1 7.6645087754231112e-01 -1.7674509104224697e+01 1.0000000000000000e+00 1.4002040560786121e+01 1.0397946408836606e+01 5.0033450924728318e-01 
331 2 1 7.6645153446647640e-01 -4.9113983767126143e+01 1.0000000000000000e+00 1.4000460226110180e+01 1.0400845731923463e+01 5.0002421536301234e-01 
125 2 4 2.9139988339419481e-01 1.2286543141326876e+00 1.0000000000000000e+00 1.8000000000000000e+01 1.1199999999999999e+01 5.0000000000000000e-01 
126 2 4 2.9139988339419481e-01 2.4171368629483139e+00 1.0000000000000000e+00 1.8000000000000000e+01 1.2800000000000001e+01 5.0000000000000000e-01 
101 2 4 3.1644362808753718e-01 6.2182210340816102e+00 1.0000000000000000e+00 1.4000000000000000e+01 1.4400000000000000e+01 5.0000000000000000e-01 
102 2 4 5.1986137893173401e-01 -6.2000307342473375e+00 1.0000000000000000e+00 1.4000000000000000e+01 1.6000000000000000e+01 5.0000000000000000e-01 
114 2 4 4.5312506977514150e-01 -3.4689609298545769e+00 1.0000000000000000e+00 1.6000000000000000e+01 1.4400000000000000e+01 5.0000000000000000e-01 
115 2 4 1.0579091639709046e+00 -1.2629262304200372e+01 1.0000000000000000e+00 1.6000000000000000e+01 1.6000000000000000e+01 5.0000000000000000e-01 
197 2 1 9.9230174889232792e-01 -6.2108568579858307e+01 1.0000000000000000e+00 1.6000982657314577e+01 1.6501788923173383e+01 4.9954146075973022e-01 
191 2 1 9.9222083313639786e-01 -5.1392922353817681e+01 1.0000000000000000e+00 1.5997858807529051e+01 1.6501183648047963e+01 4.9920452404694460e-01 
186 2 1 9.9241917411453917e-01 -9.2321307407863429e+01 1.0000000000000000e+00 1.6001916861223890e+01 1.6502680908380771e+01 4.9910859843222777e-01 
127 2 4 3.1645016108252483e-01 -3.5029980608206895e-01 1.0000000000000000e+00 1.8000000000000000e+01 1.4400000000000000e+01 5.0000000000000000e-01 
128 2 4 5.1979425470232388e-01 -8.4236211728710906e+00 1.0000000000000000e+00 1.8000000000000000e+01 1.6000000000000000e+01 5.0000000000000000e-01 
192 2 1 1.0015201058794703e+00 -2.5282615660899410e+01 1.0000000000000000e+00 1.5995514797832994e+01 1.7034988466930717e+01 4.9929959966471554e-01 
368 2 1 1.0011962369275751e+00 -2.9328492051518264e+01 1.0000000000000000e+00 1.6000500343018238e+01 1.7038278791167173e+01 4.9888628492303966e-01 
200 2 1 1.0014747046852974e+00 -2.7499405094291056e+01 1.0000000000000000e+00 1.6002157335172459e+01 1.7035475836176577e+01 4.9853213877497476e-01 
445 2 1 1.0014270009576256e+00 -8.5641087434042234e+01 1.0000000000000000e+00 1.6000084568910360e+01 1.7035968761316266e+01 4.9994098067511650e-01 
117 2 4 4.5270442638925906e-01 -7.5276502699276966e+00 1.0000000000000000e+00 1.6000000000000000e+01 1.9199999999999999e+01 5.0000000000000000e-01 
103 2 4 5.2201952806266139e-01 -2.4558311088513971e+00 1.0000000000000000e+00 1.4000000000000000e+01 1.7600000000000001e+01 5.0000000000000000e-01 
104 2 4 3.1261698571432645e-01 4.1584839937305107e+00 1.0000000000000000e+00 1.4000000000000000e+01 1.9199999999999999e+01 5.0000000000000000e-01 
116 2 4 1.0630378166397569e+00 -8.4366640178173267e+00 1.0000000000000000e+00 1.6000000000000000e+01 1.7600000000000001e+01 5.0000000000000000e-01 
130 2 4 3.1257864762093807e-01 -9.9217439975155841e+00 1.0000000000000000e+00 1.8000000000000000e+01 1.9199999999999999e+01 5.0000000000000000e-01 
129 2 4 5.2190298823227377e-01 -1.4861282044261907e+01 1.0000000000000000e+00 1.8000000000000000e+01 1.7600000000000001e+01 5.0000000000000000e-01 

Velocities

1 0.0000000000000000e+00 0.0000000000000000e+00 0.0000000000000000e+00
2 0.0000000000000000e+00 0.0000000000000000e+00 0.0000000000000000e+00
3 0.0000000000000000e+00 0.0000000000000000e+00 0.0000000000000000e+00
14 0.0000000000000000e+00 0.0000000000000000e+00 0.0000000000000000e+00
15 0.0000000000000000e+00 0.0000000000000000e+00 0.0000000000000000e+00
16 0.0000000000000000e+00 0.0000000000000000e+00 0.0000000000000000e+00
27 0.0000000000000000e+00 0.0000000000000000e+00 0.0000000000000000e+00
28 0.0000000000000000e+00 0.0000000000000000e+00 0.0000000000000000e+00
29 0.0000000000000000e+00 0.0000000000000000e+00 0.0000000000000000e+00
40 0.0000000000000000e+00 0.0000000000000000e+00 0.0000000000000000e+00
41 0.0000000000000000e+00 0.0000000000000000e+00 0.0000000000000000e+00
42 0.0000000000000000e+00 0.0000000000000000e+00 0.0000000000000000e+00
567 4.3742268389508759e-03 2.7317418773363425e-04 -1.6325918465613213e-03
265 2.4940478068978972e-04 2.1294303049252299e-03 9.2570070999357012e-04
264 -1.1657540185022429e-03 -3.6896016387414282e-04 1.1481430839761424e-03
181 -1.8398170960126500e-03 1.9545292933541960e-03 -3.6883536880855054e-03
524 3.2194484188929613e-03 -3.8178406162134959e-03 -1.6861695360512251e-03
271 3.4793750808691133e-03 5.6875891468585607e-04 2.0700405737934680e-03
4 0.0000000000000000e+00 0.0000000000000000e+00 0.0000000000000000e+00
5 0.0000000000000000e+00 0.0000000000000000e+00 0.0000000000000000e+00
17 0.0000000000000000e+00 0.0000000000000000e+00 0.0000000000000000e+00
18 0.0000000000000000e+00 0.0000000000000000e+00 0.0000000000000000e+00
30 0.0000000000000000e+00 0.0000000000000000e+00 0.0000000000000000e+00
31 0.0000000000000000e+00 0.0000000000000000e+00 0.0000000000000000e+00
43 0.0000000000000000e+00 0.0000000000000000e+00 0.0000000000000000e+00
44 0.0000000000000000e+00 0.0000000000000000e+00 0.0000000000000000e+00
278 1.8110280198290983e-03 -1.8113400980477815e-03 -3.6569729327670182e-03
202 -5.6432254211298896e-04 1.3314989150831739e-03 -2.7711915070087051e-03
201 -4.4814487371524738e-04 -3.4103585294978840e-03 -1.9439184674093963e-04
286 4.5337784808491830e-04 6.7505783284538853e-04 9.1825570287071916e-05
6 0.0000000000000000e+00 0.0000000000000000e+00 0.0000000000000000e+00
7 0.0000000000000000e+00 0.0000000000000000e+00 0.0000000000000000e+00
19 0.0000000000000000e+00 0.0000000000000000e+00 0.0000000000000000e+00
20 0.0000000000000000e+00 0.0000000000000000e+00 0.0000000000000000e+00
285 -3.8005299837407138e-04 1.2478441543529368e-03 1.8958499702555185e-03
194 6.7917750074458674e-04 -7.5896872842631617e-04 -1.4311188538688494e-03
208 2.6556299462396618e-03 -1.0108441264607615e-04 -2.8372349377816615e-03
32 0.0000000000000000e+00 0.0000000000000000e+00 0.0000000000000000e+00
33 0.0000000000000000e+00 0.0000000000000000e+00 0.0000000000000000e+00
45 0.0000000000000000e+00 0.0000000000000000e+00 0.0000000000000000e+00
46 0.0000000000000000e+00 0.0000000000000000e+00 0.0000000000000000e+00
8 0.0000000000000000e+00 0.0000000000000000e+00 0.0000000000000000e+00
9 0.0000000000000000e+00 0.0000000000000000e+00 0.0000000000000000e+00
21 0.0000000000000000e+00 0.0000000000000000e+00 0.0000000000000000e+00
22 0.0000000000000000e+00 0.0000000000000000e+00 0.0000000000000000e+00
34 0.0000000000000000e+00 0.0000000000000000e+00 0.0000000000000000e+00
35 0.0000000000000000e+00 0.0000000000000000e+00 0.0000000000000000e+00
47 0.0000000000000000e+00 0.0000000000000000e+00 0.0000000000000000e+00
48 0.0000000000000000e+00 0.0000000000000000e+00 0.0000000000000000e+00
10 0.0000000000000000e+00 0.0000000000000000e+00 0.0000000000000000e+00
11 0.0000000000000000e+00 0.0000000000000000e+00 0.0000000000000000e+00
23 0.0000000000000000e+00 0.0000000000000000e+00 0.0000000000000000e+00
24 0.0000000000000000e+00 0.0000000000000000e+00 0.0000000000000000e+00
36 0.0000000000000000e+00 0.0000000000000000e+00 0.0000000000000000e+00
37 0.0000000000000000e+00 0.0000000000000000e+00 0.0000000000000000e+00
49 0.0000000000000000e+00 0.0000000000000000e+00 0.0000000000000000e+00
50 0.0000000000000000e+00 0.0000000000000000e+00 0.0000000000000000e+00
661 3.4846633645693043e-03 9.4927522454495948e-03 1.6445358188801546e-03
366 -1.8039330303587298e-03 -5.5266141825326470e-03 -1.2613237740800531e-03
376 -8.2764044856760356e-04 -1.0261105434876017e-03 -9.7712751613490147e-04
12 0.0000000000000000e+00 0.0000000000000000e+00 0.0000000000000000e+00