LAMMPS data file via write_data, version 30 Jul 2016, timestep = 100400000

171 atoms
8 atom types

0.0000000000000000e+00 2.0000000000000000e+01 xlo xhi
0.0000000000000000e+00 2.0000000000000000e+01 ylo yhi
0.0000000000000000e+00 2.0000000000000000e+01 zlo zhi

Masses

1 3.896
2 5.36
3 20.064
4 1.047
5 1.047
6 1.047
7 1.047
8 1.047

Atoms # meso-molecular

1 2 4 2.8666455499559546e-01 -1.2857581197876469e+01 1.0000000000000000e+00 0.0000000000000000e+00 0.0000000000000000e+00 5.0000000000000000e-01 
2 2 4 2.9139988339419487e-01 -7.9778118474636539e+00 1.0000000000000000e+00 0.0000000000000000e+00 1.6000000000000001e+00 5.0000000000000000e-01 
3 2 4 2.9139988339419487e-01 -9.9486099400316661e+00 1.0000000000000000e+00 0.0000000000000000e+00 3.2000000000000002e+00 5.0000000000000000e-01 
14 2 4 2.8666455499559546e-01 -6.1611009533907142e+00 1.0000000000000000e+00 2.0000000000000000e+00 0.0000000000000000e+00 5.0000000000000000e-01 
15 2 4 2.9139988339419487e-01 9.6252618685617186e+00 1.0000000000000000e+00 2.0000000000000000e+00 1.6000000000000001e+00 5.0000000000000000e-01 
16 2 4 2.9139988339419487e-01 -8.4480146818288482e-01 1.0000000000000000e+00 2.0000000000000000e+00 3.2000000000000002e+00 5.0000000000000000e-01 
27 2 4 3.0784692972541261e-01 -2.3490055691910833e+01 1.0000000000000000e+00 4.0000000000000000e+00 0.0000000000000000e+00 5.0000000000000000e-01 
28 2 4 4.9654106301504419e-01 6.8736101262985771e+00 1.0000000000000000e+00 4.0000000000000000e+00 1.6000000000000001e+00 5.0000000000000000e-01 
29 2 4 4.8475203512928217e-01 -1.8399613484394184e+01 1.0000000000000000e+00 4.0000000000000000e+00 3.2000000000000002e+00 5.0000000000000000e-01 
40 2 4 4.3199314186914300e-01 -3.3284348885162679e+01 1.0000000000000000e+00 6.0000000000000000e+00 0.0000000000000000e+00 5.0000000000000000e-01 
41 2 4 9.7392409798976332e-01 -1.9086397555970698e+00 1.0000000000000000e+00 6.0000000000000000e+00 1.6000000000000001e+00 5.0000000000000000e-01 
42 2 4 9.4471505363560759e-01 -4.0904516668122454e+01 1.0000000000000000e+00 6.0000000000000000e+00 3.2000000000000002e+00 5.0000000000000000e-01 
567 2 1 8.9758894786458221e-01 -1.6040471937186158e+01 1.0000000000000000e+00 6.0020672874776118e+00 2.3474169104492697e+00 4.9981661493611612e-01 
265 2 1 8.9758821513653064e-01 -3.8969816798572950e+01 1.0000000000000000e+00 6.0004417501715919e+00 2.3466253595711555e+00 4.9902963405019302e-01 
264 2 1 8.9758826113277790e-01 -5.7708676498970291e+01 1.0000000000000000e+00 6.0034374635851533e+00 2.3464117197045611e+00 4.9911847545006760e-01 
181 2 1 8.9758853280860695e-01 -3.0908893955680956e+01 1.0000000000000000e+00 6.0021957070747751e+00 2.3482994744097825e+00 5.0080841352412109e-01 
524 2 1 8.9758852067400841e-01 -3.6047798401944092e+01 1.0000000000000000e+00 6.0032804910014113e+00 2.3477997800817629e+00 5.0036448856397475e-01 
271 2 1 8.9758824806714688e-01 -7.5402003490577840e+01 1.0000000000000000e+00 6.0007022381760136e+00 2.3485902735883437e+00 4.9913477450700522e-01 
4 2 4 2.9139988339419481e-01 -7.1275273364878409e+00 1.0000000000000000e+00 0.0000000000000000e+00 4.7999999999999998e+00 5.0000000000000000e-01 
5 2 4 3.1807229202805154e-01 -1.0597359533404221e+01 1.0000000000000000e+00 0.0000000000000000e+00 6.4000000000000004e+00 5.0000000000000000e-01 
17 2 4 2.9163203905947221e-01 -8.1884578409465414e-01 1.0000000000000000e+00 2.0000000000000000e+00 4.7999999999999998e+00 5.0000000000000000e-01 
18 2 4 4.5964531176785328e-01 -5.6897147922808413e+00 1.0000000000000000e+00 2.0000000000000000e+00 6.4000000000000004e+00 5.0000000000000000e-01 
30 2 4 3.0672517342295075e-01 -2.1262088446973721e+01 1.0000000000000000e+00 4.0000000000000000e+00 4.7999999999999998e+00 5.0000000000000000e-01 
31 2 4 3.1801996946559613e-01 -2.0694210009288820e+01 1.0000000000000000e+00 4.0000000000000000e+00 6.4000000000000004e+00 5.0000000000000000e-01 
43 2 4 4.1075692916426820e-01 -2.3219926413604519e+01 1.0000000000000000e+00 6.0000000000000000e+00 4.7999999999999998e+00 5.0000000000000000e-01 
44 2 4 3.0959384440117349e-01 -3.7508029456212142e+01 1.0000000000000000e+00 6.0000000000000000e+00 6.4000000000000004e+00 5.0000000000000000e-01 
278 2 1 1.0003971681053465e+00 -5.5438547654740418e+01 1.0000000000000000e+00 1.9973318987891189e+00 9.0194594838824891e+00 4.9815365123916838e-01 
202 2 1 9.9086917214239989e-01 -7.4424523753258626e+01 1.0000000000000000e+00 2.0004672101339755e+00 8.4730079189466281e+00 4.9935773654233129e-01 
201 2 1 9.9119429071512688e-01 -8.5475365830461016e+01 1.0000000000000000e+00 1.9991642869189268e+00 8.4754173321446569e+00 4.9959814246449624e-01 
286 2 1 9.9138724792259703e-01 -9.0983295896566773e+01 1.0000000000000000e+00 1.9999752926741359e+00 8.4768596021755123e+00 4.9847424736628915e-01 
6 2 4 5.2262396081573259e-01 -2.0142520968157179e+01 1.0000000000000000e+00 0.0000000000000000e+00 8.0000000000000000e+00 5.0000000000000000e-01 
7 2 4 5.1938035086347623e-01 -1.6986103468881989e+01 1.0000000000000000e+00 0.0000000000000000e+00 9.5999999999999996e+00 5.0000000000000000e-01 
19 2 4 1.0643291304782037e+00 -1.8951393782928172e+01 1.0000000000000000e+00 2.0000000000000000e+00 8.0000000000000000e+00 5.0000000000000000e-01 
20 2 4 1.0558899669214166e+00 -1.3483328559388436e+01 1.0000000000000000e+00 2.0000000000000000e+00 9.5999999999999996e+00 5.0000000000000000e-01 
285 2 1 1.0007276396036686e+00 -9.5375905233471954e+01 1.0000000000000000e+00 2.0008036401405556e+00 9.0161800230613753e+00 5.0061494843793464e-01 
194 2 1 1.0004676408904456e+00 -6.1934542395864263e+01 1.0000000000000000e+00 1.9987047142924599e+00 9.0187744602381272e+00 4.9927995449427970e-01 
208 2 1 1.0005291766227067e+00 -5.6968676067357023e+01 1.0000000000000000e+00 1.9984507488188121e+00 9.0181641459600836e+00 4.9912254612850787e-01 
32 2 4 5.2218583309778710e-01 -3.4913922749847423e+01 1.0000000000000000e+00 4.0000000000000000e+00 8.0000000000000000e+00 5.0000000000000000e-01 
33 2 4 5.1887078547192800e-01 -2.1100356195864887e+00 1.0000000000000000e+00 4.0000000000000000e+00 9.5999999999999996e+00 5.0000000000000000e-01 
45 2 4 4.9126077115006583e-01 -6.0416917001597973e+01 1.0000000000000000e+00 6.0000000000000000e+00 8.0000000000000000e+00 5.0000000000000000e-01 
46 2 4 4.9123066710102165e-01 -3.4874308066874995e+01 1.0000000000000000e+00 6.0000000000000000e+00 9.5999999999999996e+00 5.0000000000000000e-01 
8 2 4 3.1607379533035457e-01 -1.1065313495846625e+00 1.0000000000000000e+00 0.0000000000000000e+00 1.1199999999999999e+01 5.0000000000000000e-01 
9 2 4 2.9139988339419481e-01 4.4720839190763284e-01 1.0000000000000000e+00 0.0000000000000000e+00 1.2800000000000001e+01 5.0000000000000000e-01 
21 2 4 4.5158426131840090e-01 -2.8459699752286460e+00 1.0000000000000000e+00 2.0000000000000000e+00 1.1199999999999999e+01 5.0000000000000000e-01 
22 2 4 3.0054936759823481e-01 7.6418657793925613e+00 1.0000000000000000e+00 2.0000000000000000e+00 1.2800000000000001e+01 5.0000000000000000e-01 
34 2 4 3.1595668587655984e-01 1.5077285677175105e+01 1.0000000000000000e+00 4.0000000000000000e+00 1.1199999999999999e+01 5.0000000000000000e-01 
35 2 4 3.5728640988869681e-01 4.8789013215521795e+00 1.0000000000000000e+00 4.0000000000000000e+00 1.2800000000000001e+01 5.0000000000000000e-01 
47 2 4 3.0957889810615252e-01 -1.8938553716198538e+01 1.0000000000000000e+00 6.0000000000000000e+00 1.1199999999999999e+01 5.0000000000000000e-01 
48 2 4 3.0046678667584709e-01 -2.1379069991311294e+01 1.0000000000000000e+00 6.0000000000000000e+00 1.2800000000000001e+01 5.0000000000000000e-01 
10 2 4 2.9139988339419487e-01 -1.7641918113160364e+00 1.0000000000000000e+00 0.0000000000000000e+00 1.4400000000000000e+01 5.0000000000000000e-01 
11 2 4 2.9139988339419481e-01 1.6519399829357346e+00 1.0000000000000000e+00 0.0000000000000000e+00 1.6000000000000000e+01 5.0000000000000000e-01 
23 2 4 3.9136703804635919e-01 -2.4229114237884821e+00 1.0000000000000000e+00 2.0000000000000000e+00 1.4400000000000000e+01 5.0000000000000000e-01 
24 2 4 3.9147314565256502e-01 1.5044761785426874e-01 1.0000000000000000e+00 2.0000000000000000e+00 1.6000000000000000e+01 5.0000000000000000e-01 
36 2 4 6.2540862999611502e-01 -1.5773140368627102e+01 1.0000000000000000e+00 4.0000000000000000e+00 1.4400000000000000e+01 5.0000000000000000e-01 
37 2 4 6.2567093919096461e-01 -1.6604972754117600e+01 1.0000000000000000e+00 4.0000000000000000e+00 1.6000000000000000e+01 5.0000000000000000e-01 
49 2 4 3.9126990717126164e-01 -1.1367223185898613e+01 1.0000000000000000e+00 6.0000000000000000e+00 1.4400000000000000e+01 5.0000000000000000e-01 
50 2 4 3.9137602633392349e-01 -9.6806500792510306e+00 1.0000000000000000e+00 6.0000000000000000e+00 1.6000000000000000e+01 5.0000000000000000e-01 
661 2 1 5.0417972029010050e-01 -9.3210557219000293e+01 1.0000000000000000e+00 3.9993005442560712e+00 1.5200852951321570e+01 5.0011151917611008e-01 
366 2 1 5.0417953404881088e-01 -3.7910022927720398e+01 1.0000000000000000e+00 3.9994562529312239e+00 1.5199560052115444e+01 4.9966914879262114e-01 
376 2 1 5.0417949540535434e-01 -6.4691101728139486e+01 1.0000000000000000e+00 4.0002084824907840e+00 1.5202412930867036e+01 5.0002758359721566e-01 
12 2 4 2.9139988339419487e-01 -1.0960372641592581e-01 1.0000000000000000e+00 0.0000000000000000e+00 1.7600000000000001e+01 5.0000000000000000e-01 
13 2 4 2.8666455499559551e-01 -3.7210438178990740e-01 1.0000000000000000e+00 0.0000000000000000e+00 1.9199999999999999e+01 5.0000000000000000e-01 
25 2 4 3.0053564529002097e-01 7.5870954846855589e+00 1.0000000000000000e+00 2.0000000000000000e+00 1.7600000000000001e+01 5.0000000000000000e-01 
26 2 4 2.8666455499559551e-01 6.6233133682178398e+00 1.0000000000000000e+00 2.0000000000000000e+00 1.9199999999999999e+01 5.0000000000000000e-01 
38 2 4 3.5751957158318082e-01 7.7709972304976538e-01 1.0000000000000000e+00 4.0000000000000000e+00 1.7600000000000001e+01 5.0000000000000000e-01 
51 2 4 3.0051955358956123e-01 1.3285081237726069e+00 1.0000000000000000e+00 6.0000000000000000e+00 1.7600000000000001e+01 5.0000000000000000e-01 
39 2 4 2.8666455499586418e-01 2.0579211994409752e+00 1.0000000000000000e+00 4.0000000000000000e+00 1.9199999999999999e+01 5.0000000000000000e-01 
52 2 4 2.8666455499559551e-01 -5.0624090086015983e+00 1.0000000000000000e+00 6.0000000000000000e+00 1.9199999999999999e+01 5.0000000000000000e-01 
53 2 4 3.0805911836372879e-01 -2.6426980460815237e+01 1.0000000000000000e+00 8.0000000000000000e+00 0.0000000000000000e+00 5.0000000000000000e-01 
54 2 4 4.9770386817734630e-01 7.1899969970809057e+00 1.0000000000000000e+00 8.0000000000000000e+00 1.6000000000000001e+00 5.0000000000000000e-01 
55 2 4 4.8586430422302451e-01 -2.0808824520140480e+01 1.0000000000000000e+00 8.0000000000000000e+00 3.2000000000000002e+00 5.0000000000000000e-01 
66 2 4 3.1232257484362458e-01 -2.9743311854765761e+01 1.0000000000000000e+00 1.0000000000000000e+01 0.0000000000000000e+00 5.0000000000000000e-01 
67 2 4 5.2154461703022648e-01 -4.3095087286227729e-01 1.0000000000000000e+00 1.0000000000000000e+01 1.6000000000000001e+00 5.0000000000000000e-01 
68 2 4 5.2069145765694846e-01 -1.6198708467900797e+01 1.0000000000000000e+00 1.0000000000000000e+01 3.2000000000000002e+00 5.0000000000000000e-01 
79 2 4 4.5137867623216160e-01 -2.2072573298667283e+01 1.0000000000000000e+00 1.2000000000000000e+01 0.0000000000000000e+00 5.0000000000000000e-01 
80 2 4 1.0614196764699377e+00 -1.1470687429676842e+01 1.0000000000000000e+00 1.2000000000000000e+01 1.6000000000000001e+00 5.0000000000000000e-01 
81 2 4 1.0593643715591192e+00 -1.6111988396018447e+01 1.0000000000000000e+00 1.2000000000000000e+01 3.2000000000000002e+00 5.0000000000000000e-01 
241 2 1 9.9196476180957349e-01 -1.0302085514202997e+02 1.0000000000000000e+00 1.1997200325052738e+01 2.7047055907851845e+00 4.9973151793732040e-01 
242 2 1 9.9210000075132432e-01 -6.1933654755110155e+01 1.0000000000000000e+00 1.1998372760703372e+01 2.7036940715849629e+00 5.0006382733098720e-01 
235 2 1 1.0010178602246265e+00 -4.6755619404968932e+01 1.0000000000000000e+00 1.1999112734179789e+01 2.1661785572382444e+00 5.0143879291651761e-01 
165 2 1 1.0009189434144306e+00 4.7856517572797137e-02 1.0000000000000000e+00 1.2000521384747218e+01 2.1651946355071225e+00 4.9970968241449953e-01 
434 2 1 9.9197264720321066e-01 -3.4463625526205391e+01 1.0000000000000000e+00 1.1999491079340020e+01 2.7046530104088391e+00 4.9975405589376076e-01 
158 2 1 1.0015073280301927e+00 -3.5019553032249092e+01 1.0000000000000000e+00 1.1998262304922998e+01 2.1710948385802529e+00 4.9994999210114760e-01 
157 2 1 1.0012623590661323e+00 -5.0205512239967582e+01 1.0000000000000000e+00 1.2001555921272329e+01 2.1686323621867065e+00 4.9893980730734788e-01 
56 2 4 3.0689161207899196e-01 -3.4469470930006459e+01 1.0000000000000000e+00 8.0000000000000000e+00 4.7999999999999998e+00 5.0000000000000000e-01 
57 2 4 4.2343907350705090e-01 -4.3972040490803032e+01 1.0000000000000000e+00 8.0000000000000000e+00 6.4000000000000004e+00 5.0000000000000000e-01 
69 2 4 3.1688067621666188e-01 -2.4295255550924860e+01 1.0000000000000000e+00 1.0000000000000000e+01 4.7999999999999998e+00 5.0000000000000000e-01 
70 2 4 3.0962622744888307e-01 -9.4003735352522764e+00 1.0000000000000000e+00 1.0000000000000000e+01 6.4000000000000004e+00 5.0000000000000000e-01 
82 2 4 4.5460124743362090e-01 -1.1658240619321967e+01 1.0000000000000000e+00 1.2000000000000000e+01 4.7999999999999998e+00 5.0000000000000000e-01 
83 2 4 2.9158053662669786e-01 9.9668517141779511e-01 1.0000000000000000e+00 1.2000000000000000e+01 6.4000000000000004e+00 5.0000000000000000e-01 
58 2 4 9.5971687997926203e-01 -4.1710514556392519e+00 1.0000000000000000e+00 8.0000000000000000e+00 8.0000000000000000e+00 5.0000000000000000e-01 
59 2 4 9.5964232252608350e-01 -6.8147166030932922e+01 1.0000000000000000e+00 8.0000000000000000e+00 9.5999999999999996e+00 5.0000000000000000e-01 
348 2 1 8.9758724278221980e-01 -1.0951790348278895e+02 1.0000000000000000e+00 7.9989908279966047e+00 8.7991539653501913e+00 5.0064447134199819e-01 
230 2 1 8.9758748116790343e-01 -1.1372028423267980e+02 1.0000000000000000e+00 7.9996470946556171e+00 8.8001533986016955e+00 4.9926185020914993e-01 
244 2 1 8.9758659808961405e-01 -5.7144037605282819e+01 1.0000000000000000e+00 8.0023113721240620e+00 8.7984556838804266e+00 4.9985390956483600e-01 
152 2 1 8.9758768338656802e-01 -4.4096789233683843e+01 1.0000000000000000e+00 8.0000413213230495e+00 8.7995607425142328e+00 5.0057331988618148e-01 
215 2 1 8.9758775015017001e-01 -1.3593734706087227e+02 1.0000000000000000e+00 8.0004091393859014e+00 8.7996334827087814e+00 5.0027000190750726e-01 
243 2 1 8.9758663241798653e-01 -6.7898718863860879e+01 1.0000000000000000e+00 8.0006793977146771e+00 8.8022396532311618e+00 5.0028462003625607e-01 
85 2 4 4.5807653154696265e-01 -1.5096681451832763e+01 1.0000000000000000e+00 1.2000000000000000e+01 9.5999999999999996e+00 5.0000000000000000e-01 
72 2 4 4.9142571504562615e-01 -3.0195218720884974e+01 1.0000000000000000e+00 1.0000000000000000e+01 9.5999999999999996e+00 5.0000000000000000e-01 
84 2 4 3.0662274072017998e-01 -2.1728069820166369e+00 1.0000000000000000e+00 1.2000000000000000e+01 8.0000000000000000e+00 5.0000000000000000e-01 
71 2 4 4.9145593143211386e-01 -1.2041859458317580e+01 1.0000000000000000e+00 1.0000000000000000e+01 8.0000000000000000e+00 5.0000000000000000e-01 
60 2 4 4.2337280296327756e-01 -3.5967337546553097e+01 1.0000000000000000e+00 8.0000000000000000e+00 1.1199999999999999e+01 5.0000000000000000e-01 
61 2 4 2.9139988339441131e-01 -1.3334688158681102e+01 1.0000000000000000e+00 8.0000000000000000e+00 1.2800000000000001e+01 5.0000000000000000e-01 
73 2 4 3.0961117946971450e-01 -1.3823845966426932e+01 1.0000000000000000e+00 1.0000000000000000e+01 1.1199999999999999e+01 5.0000000000000000e-01 
74 2 4 2.9139988339419481e-01 -2.0085572383116723e+01 1.0000000000000000e+00 1.0000000000000000e+01 1.2800000000000001e+01 5.0000000000000000e-01 
86 2 4 4.5780834028471240e-01 -1.0829731154566883e+01 1.0000000000000000e+00 1.2000000000000000e+01 1.1199999999999999e+01 5.0000000000000000e-01 
87 2 4 3.0648946957170708e-01 4.9734617924563995e+00 1.0000000000000000e+00 1.2000000000000000e+01 1.2800000000000001e+01 5.0000000000000000e-01 
62 2 4 2.9139988339419487e-01 -3.9514427312695958e+01 1.0000000000000000e+00 8.0000000000000000e+00 1.4400000000000000e+01 5.0000000000000000e-01 
63 2 4 2.9139988339419481e-01 -1.4823428379372775e+01 1.0000000000000000e+00 8.0000000000000000e+00 1.6000000000000000e+01 5.0000000000000000e-01 
75 2 4 2.9139988339419487e-01 -2.6306531398863516e+01 1.0000000000000000e+00 1.0000000000000000e+01 1.4400000000000000e+01 5.0000000000000000e-01 
76 2 4 2.9139988339419481e-01 -7.7531767659101423e+00 1.0000000000000000e+00 1.0000000000000000e+01 1.6000000000000000e+01 5.0000000000000000e-01 
88 2 4 2.9139988339419487e-01 2.7172927100126225e+00 1.0000000000000000e+00 1.2000000000000000e+01 1.4400000000000000e+01 5.0000000000000000e-01 
89 2 4 2.9139988339419481e-01 8.8002997015311024e+00 1.0000000000000000e+00 1.2000000000000000e+01 1.6000000000000000e+01 5.0000000000000000e-01 
64 2 4 2.9139988339419487e-01 -6.2037091469944148e+00 1.0000000000000000e+00 8.0000000000000000e+00 1.7600000000000001e+01 5.0000000000000000e-01 
65 2 4 2.8666455499559551e-01 -1.9619356623363892e+01 1.0000000000000000e+00 8.0000000000000000e+00 1.9199999999999999e+01 5.0000000000000000e-01 
77 2 4 2.9139988339419487e-01 1.0281016907523883e+01 1.0000000000000000e+00 1.0000000000000000e+01 1.7600000000000001e+01 5.0000000000000000e-01 
78 2 4 2.8666455499559551e-01 -1.4367409110786188e+01 1.0000000000000000e+00 1.0000000000000000e+01 1.9199999999999999e+01 5.0000000000000000e-01 
91 2 4 2.8666455499559551e-01 3.0478162456972799e+00 1.0000000000000000e+00 1.2000000000000000e+01 1.9199999999999999e+01 5.0000000000000000e-01 
90 2 4 2.9139988339419487e-01 1.7979085978956746e+01 1.0000000000000000e+00 1.2000000000000000e+01 1.7600000000000001e+01 5.0000000000000000e-01 
92 2 4 3.1227658965072941e-01 -5.5824697449605916e+00 1.0000000000000000e+00 1.4000000000000000e+01 0.0000000000000000e+00 5.0000000000000000e-01 
93 2 4 5.2109292731594314e-01 -2.1819767072828062e+00 1.0000000000000000e+00 1.4000000000000000e+01 1.6000000000000001e+00 5.0000000000000000e-01 
94 2 4 5.2013211790939018e-01 -8.4347577165072654e+00 1.0000000000000000e+00 1.4000000000000000e+01 3.2000000000000002e+00 5.0000000000000000e-01 
105 2 4 2.8666455499559546e-01 8.7602457482339329e+00 1.0000000000000000e+00 1.6000000000000000e+01 0.0000000000000000e+00 5.0000000000000000e-01 
106 2 4 2.9139988339419487e-01 1.5582907237248710e+01 1.0000000000000000e+00 1.6000000000000000e+01 1.6000000000000001e+00 5.0000000000000000e-01 
107 2 4 2.9139988339419487e-01 1.2545380389858526e+01 1.0000000000000000e+00 1.6000000000000000e+01 3.2000000000000002e+00 5.0000000000000000e-01 
118 2 4 2.8666455499559546e-01 7.2991382765285562e-01 1.0000000000000000e+00 1.8000000000000000e+01 0.0000000000000000e+00 5.0000000000000000e-01 
119 2 4 2.9139988339419487e-01 2.9615915386136216e+00 1.0000000000000000e+00 1.8000000000000000e+01 1.6000000000000001e+00 5.0000000000000000e-01 
120 2 4 2.9139988339419487e-01 2.8389959161024865e+00 1.0000000000000000e+00 1.8000000000000000e+01 3.2000000000000002e+00 5.0000000000000000e-01 
95 2 4 3.1673679151635353e-01 6.1913411444671000e+00 1.0000000000000000e+00 1.4000000000000000e+01 4.7999999999999998e+00 5.0000000000000000e-01 
96 2 4 2.9139988339517969e-01 7.3037489193115741e+00 1.0000000000000000e+00 1.4000000000000000e+01 6.4000000000000004e+00 5.0000000000000000e-01 
108 2 4 2.9139988339419481e-01 1.1434346604328315e+01 1.0000000000000000e+00 1.6000000000000000e+01 4.7999999999999998e+00 5.0000000000000000e-01 
109 2 4 2.9139988339419481e-01 1.2533444551482221e+01 1.0000000000000000e+00 1.6000000000000000e+01 6.4000000000000004e+00 5.0000000000000000e-01 
121 2 4 2.9139988339419481e-01 1.7539595086247743e+00 1.0000000000000000e+00 1.8000000000000000e+01 4.7999999999999998e+00 5.0000000000000000e-01 
122 2 4 2.9139988339419481e-01 2.6666982610734022e+00 1.0000000000000000e+00 1.8000000000000000e+01 6.4000000000000004e+00 5.0000000000000000e-01 
97 2 4 4.0169999927599248e-01 -1.4803494044539616e+00 1.0000000000000000e+00 1.4000000000000000e+01 8.0000000000000000e+00 5.0000000000000000e-01 
98 2 4 8.4863120641443379e-01 -5.6789665203102837e+00 1.0000000000000000e+00 1.4000000000000000e+01 9.5999999999999996e+00 5.0000000000000000e-01 
110 2 4 3.0664838831716718e-01 6.3118683034151148e+00 1.0000000000000000e+00 1.6000000000000000e+01 8.0000000000000000e+00 5.0000000000000000e-01 
111 2 4 4.5823043835471472e-01 5.5001594503566908e-01 1.0000000000000000e+00 1.6000000000000000e+01 9.5999999999999996e+00 5.0000000000000000e-01 
124 2 4 2.9139988339419487e-01 -1.1711346366710411e+00 1.0000000000000000e+00 1.8000000000000000e+01 9.5999999999999996e+00 5.0000000000000000e-01 
123 2 4 2.9139988339419487e-01 -5.9860077334065398e-01 1.0000000000000000e+00 1.8000000000000000e+01 8.0000000000000000e+00 5.0000000000000000e-01 
99 2 4 8.4796778774434900e-01 -1.1317799473852407e+01 1.0000000000000000e+00 1.4000000000000000e+01 1.1199999999999999e+01 5.0000000000000000e-01 
100 2 4 4.0111029350481781e-01 3.9143975559567683e+00 1.0000000000000000e+00 1.4000000000000000e+01 1.2800000000000001e+01 5.0000000000000000e-01 
112 2 4 4.5796187094049645e-01 -1.6378606396637589e+00 1.0000000000000000e+00 1.6000000000000000e+01 1.1199999999999999e+01 5.0000000000000000e-01 
113 2 4 3.0668194637245089e-01 4.4527258606799887e+00 1.0000000000000000e+00 1.6000000000000000e+01 1.2800000000000001e+01 5.0000000000000000e-01 
490 2 1 7.6645171012230029e-01 -4.0801658065730564e+01 1.0000000000000000e+00 1.4000270870514335e+01 1.0399184394545482e+01 4.9964126499237893e-01 
430 2 1 7.6645136494113475e-01 -6.0838611328806756e+01 1.0000000000000000e+00 1.3999545724193482e+01 1.0397145724820467e+01 4.9991863177603840e-01 
262 2 1 7.6645173608724160e-01 -5.1178735628290809e+01 1.0000000000000000e+00 1.4000339779934798e+01 1.0399172908727456e+01 5.0002162542896578e-01 
316 2 1 7.6645105044550732e-01 -1.7674524216942920e+01 1.0000000000000000e+00 1.4002035859549068e+01 1.0397295086308644e+01 5.0008988510308994e-01 
331 2 1 7.6645129500770681e-01 -4.9113960486792521e+01 1.0000000000000000e+00 1.3999445295108075e+01 1.0400054253962294e+01 5.0022969642193305e-01 
125 2 4 2.9139988339419481e-01 1.2286543141326876e+00 1.0000000000000000e+00 1.8000000000000000e+01 1.1199999999999999e+01 5.0000000000000000e-01 
126 2 4 2.9139988339419481e-01 2.4171368629483139e+00 1.0000000000000000e+00 1.8000000000000000e+01 1.2800000000000001e+01 5.0000000000000000e-01 
101 2 4 3.1651432463143547e-01 6.2123392233043724e+00 1.0000000000000000e+00 1.4000000000000000e+01 1.4400000000000000e+01 5.0000000000000000e-01 
102 2 4 5.2013703919597565e-01 -6.2070932471625824e+00 1.0000000000000000e+00 1.4000000000000000e+01 1.6000000000000000e+01 5.0000000000000000e-01 
114 2 4 4.5315773932535952e-01 -3.4700823887649288e+00 1.0000000000000000e+00 1.6000000000000000e+01 1.4400000000000000e+01 5.0000000000000000e-01 
115 2 4 1.0579387821933628e+00 -1.2629261859627201e+01 1.0000000000000000e+00 1.6000000000000000e+01 1.6000000000000000e+01 5.0000000000000000e-01 
197 2 1 9.9223302402426639e-01 -6.2108830572239462e+01 1.0000000000000000e+00 1.5996631326128584e+01 1.6501209383382136e+01 5.0041072518383134e-01 
191 2 1 9.9240903316786566e-01 -5.1392649247237713e+01 1.0000000000000000e+00 1.5999936153280842e+01 1.6502529127560354e+01 5.0059970812343946e-01 
186 2 1 9.9226653603100834e-01 -9.2321676517375337e+01 1.0000000000000000e+00 1.6000054359255241e+01 1.6501453333099644e+01 4.9994932196127234e-01 
127 2 4 3.1639602383562948e-01 -3.4583503012448591e-01 1.0000000000000000e+00 1.8000000000000000e+01 1.4400000000000000e+01 5.0000000000000000e-01 
128 2 4 5.1954268369668599e-01 -8.4171705852844081e+00 1.0000000000000000e+00 1.8000000000000000e+01 1.6000000000000000e+01 5.0000000000000000e-01 
192 2 1 1.0014536211229284e+00 -2.5282353293443148e+01 1.0000000000000000e+00 1.6002930610794358e+01 1.7035515843740818e+01 5.0040897493734127e-01 
368 2 1 1.0015229277417090e+00 -2.9328367958004574e+01 1.0000000000000000e+00 1.5998418426630829e+01 1.7034848440840715e+01 5.0013571541927426e-01 
200 2 1 1.0012155716650861e+00 -2.7499283094116592e+01 1.0000000000000000e+00 1.5996044185429707e+01 1.7037913113171836e+01 4.9952398018904254e-01 
445 2 1 1.0013927446137880e+00 -8.5640819651204410e+01 1.0000000000000000e+00 1.5999686849305089e+01 1.7036160639068484e+01 5.0043827287178788e-01 
117 2 4 4.5267744321856218e-01 -7.5266972260823399e+00 1.0000000000000000e+00 1.6000000000000000e+01 1.9199999999999999e+01 5.0000000000000000e-01 
103 2 4 5.2223232923790419e-01 -2.4612590007823183e+00 1.0000000000000000e+00 1.4000000000000000e+01 1.7600000000000001e+01 5.0000000000000000e-01 
104 2 4 3.1264015442695003e-01 4.1561637606388349e+00 1.0000000000000000e+00 1.4000000000000000e+01 1.9199999999999999e+01 5.0000000000000000e-01 
116 2 4 1.0630020605980088e+00 -8.4366717117731334e+00 1.0000000000000000e+00 1.6000000000000000e+01 1.7600000000000001e+01 5.0000000000000000e-01 
130 2 4 3.1254389229653445e-01 -9.9183081947626590e+00 1.0000000000000000e+00 1.8000000000000000e+01 1.9199999999999999e+01 5.0000000000000000e-01 
129 2 4 5.2166212772390097e-01 -1.4855123664641809e+01 1.0000000000000000e+00 1.8000000000000000e+01 1.7600000000000001e+01 5.0000000000000000e-01 

Velocities

1 0.0000000000000000e+00 0.0000000000000000e+00 0.0000000000000000e+00
2 0.0000000000000000e+00 0.0000000000000000e+00 0.0000000000000000e+00
3 0.0000000000000000e+00 0.0000000000000000e+00 0.0000000000000000e+00
14 0.0000000000000000e+00 0.0000000000000000e+00 0.0000000000000000e+00
15 0.0000000000000000e+00 0.0000000000000000e+00 0.0000000000000000e+00
16 0.0000000000000000e+00 0.0000000000000000e+00 0.0000000000000000e+00
27 0.0000000000000000e+00 0.0000000000000000e+00 0.0000000000000000e+00
28 0.0000000000000000e+00 0.0000000000000000e+00 0.0000000000000000e+00
29 0.0000000000000000e+00 0.0000000000000000e+00 0.0000000000000000e+00
40 0.0000000000000000e+00 0.0000000000000000e+00 0.0000000000000000e+00
41 0.0000000000000000e+00 0.0000000000000000e+00 0.0000000000000000e+00
42 0.0000000000000000e+00 0.0000000000000000e+00 0.0000000000000000e+00
567 3.6965040353783016e-03 5.7414783872082261e-04 -1.7049393154415951e-03
265 1.5042983271816820e-03 4.1660748374172593e-03 -1.7052576323886158e-03
264 -4.2525039738970875e-03 1.6651856550339069e-03 -8.4123490088737680e-04
181 -3.2499766604405342e-03 8.3394653256218881e-04 1.0101345037966144e-04
524 7.0579953252736423e-04 -4.8971391889243857e-03 1.0763674583978155e-03
271 4.6499864100720970e-03 -1.3104309739266793e-03 7.3952253631787135e-04
4 0.0000000000000000e+00 0.0000000000000000e+00 0.0000000000000000e+00
5 0.0000000000000000e+00 0.0000000000000000e+00 0.0000000000000000e+00
17 0.0000000000000000e+00 0.0000000000000000e+00 0.0000000000000000e+00
18 0.0000000000000000e+00 0.0000000000000000e+00 0.0000000000000000e+00
30 0.0000000000000000e+00 0.0000000000000000e+00 0.0000000000000000e+00
31 0.0000000000000000e+00 0.0000000000000000e+00 0.0000000000000000e+00
43 0.0000000000000000e+00 0.0000000000000000e+00 0.0000000000000000e+00
44 0.0000000000000000e+00 0.0000000000000000e+00 0.0000000000000000e+00
278 -2.1117597348087875e-03 -2.0259086907957651e-03 -1.9186746493681833e-03
202 -6.7008607630947628e-04 -1.2202069324258966e-03 -1.1006332332769897e-03
201 6.2782432065061698e-04 2.7137785002231130e-03 1.9073582392904625e-03
286 1.0005846618780718e-03 -2.2288919034795852e-03 1.1005570411563952e-03
6 0.0000000000000000e+00 0.0000000000000000e+00 0.0000000000000000e+00
7 0.0000000000000000e+00 0.0000000000000000e+00 0.0000000000000000e+00
19 0.0000000000000000e+00 0.0000000000000000e+00 0.0000000000000000e+00
20 0.0000000000000000e+00 0.0000000000000000e+00 0.0000000000000000e+00
285 -6.3072446060461341e-04 -1.2391605458478029e-03 -1.2467120422272600e-03
194 -1.9750092906897290e-03 1.6092201723235251e-04 -3.5943297276688166e-04
208 1.1266920205418953e-03 8.7144509925402556e-04 3.7779162570201106e-03
32 0.0000000000000000e+00 0.0000000000000000e+00 0.0000000000000000e+00
33 0.0000000000000000e+00 0.0000000000000000e+00 0.0000000000000000e+00
45 0.0000000000000000e+00 0.0000000000000000e+00 0.0000000000000000e+00
46 0.0000000000000000e+00 0.0000000000000000e+00 0.0000000000000000e+00
8 0.0000000000000000e+00 0.0000000000000000e+00 0.0000000000000000e+00
9 0.0000000000000000e+00 0.0000000000000000e+00 0.0000000000000000e+00
21 0.0000000000000000e+00 0.0000000000000000e+00 0.0000000000000000e+00
22 0.0000000000000000e+00 0.0000000000000000e+00 0.0000000000000000e+00
34 0.0000000000000000e+00 0.0000000000000000e+00 0.0000000000000000e+00
35 0.0000000000000000e+00 0.0000000000000000e+00 0.0000000000000000e+00
47 0.0000000000000000e+00 0.0000000000000000e+00 0.0000000000000000e+00
48 0.0000000000000000e+00 0.0000000000000000e+00 0.0000000000000000e+00
10 0.0000000000000000e+00 0.0000000000000000e+00 0.0000000000000000e+00
11 0.0000000000000000e+00 0.0000000000000000e+00 0.0000000000000000e+00
23 0.0000000000000000e+00 0.0000000000000000e+00 0.0000000000000000e+00
24 0.0000000000000000e+00 0.0000000000000000e+00 0.0000000000000000e+00
36 0.0000000000000000e+00 0.0000000000000000e+00 0.0000000000000000e+00
37 0.0000000000000000e+00 0.0000000000000000e+00 0.0000000000000000e+00
49 0.0000000000000000e+00 0.0000000000000000e+00 0.0000000000000000e+00
50 0.0000000000000000e+00 0.0000000000000000e+00 0.0000000000000000e+00
661 2.8735969382634847e-03 9.9969869341478314e-03 1.2674501746596928e-03
366 -2.7526501689442632e-03 -3.6571840269878438e-03 -6.6147751498066537e-05
376 9.2233779525783177e-04 -3.1472391718922275e-03 -1.7724707379078910e-03
12 0.0000000000000000e+00 0.0000000000000000e+00 0.0000000000000000e+00