LAMMPS data file via write_data, version 30 Jul 2016, timestep = 600000

2080 atoms
8 atom types

0.0000000000000000e+00 4.0000000000000000e+01 xlo xhi
0.0000000000000000e+00 4.0000000000000000e+01 ylo yhi
0.0000000000000000e+00 1.0000000000000000e+02 zlo zhi

Masses

1 3.896
2 5.36
3 1058.08
4 8.378
5 8.378
6 8.378
7 8.378
8 8.378

Atoms # meso-molecular

1 2 4 2.2559723595316457e+00 1.0000000000000000e+00 4.2000000000000000e+03 0.0000000000000000e+00 0.0000000000000000e+00 2.5000000000000000e+00 
2 2 4 2.2559723595316457e+00 1.0000000000000000e+00 4.2000000000000000e+03 0.0000000000000000e+00 2.0000000000000000e+00 2.5000000000000000e+00 
3 2 4 2.2559723595316457e+00 1.0000000000000000e+00 4.2000000000000000e+03 0.0000000000000000e+00 4.0000000000000000e+00 2.5000000000000000e+00 
4 2 4 2.2559723595316457e+00 1.0000000000000000e+00 4.2000000000000000e+03 0.0000000000000000e+00 6.0000000000000000e+00 2.5000000000000000e+00 
21 2 4 2.2559723595316457e+00 1.0000000000000000e+00 4.2000000000000000e+03 2.0000000000000000e+00 0.0000000000000000e+00 2.5000000000000000e+00 
22 2 4 2.2559723595316457e+00 1.0000000000000000e+00 4.2000000000000000e+03 2.0000000000000000e+00 2.0000000000000000e+00 2.5000000000000000e+00 
23 2 4 2.2559723595316457e+00 1.0000000000000000e+00 4.2000000000000000e+03 2.0000000000000000e+00 4.0000000000000000e+00 2.5000000000000000e+00 
24 2 4 2.2559723595316457e+00 1.0000000000000000e+00 4.2000000000000000e+03 2.0000000000000000e+00 6.0000000000000000e+00 2.5000000000000000e+00 
41 2 4 2.2559723595316457e+00 1.0000000000000000e+00 4.2000000000000000e+03 4.0000000000000000e+00 0.0000000000000000e+00 2.5000000000000000e+00 
42 2 4 2.2559723595316457e+00 1.0000000000000000e+00 4.2000000000000000e+03 4.0000000000000000e+00 2.0000000000000000e+00 2.5000000000000000e+00 
43 2 4 2.2559723595316457e+00 1.0000000000000000e+00 4.2000000000000000e+03 4.0000000000000000e+00 4.0000000000000000e+00 2.5000000000000000e+00 
44 2 4 2.2559723595316457e+00 1.0000000000000000e+00 4.2000000000000000e+03 4.0000000000000000e+00 6.0000000000000000e+00 2.5000000000000000e+00 
61 2 4 2.2559723595316457e+00 1.0000000000000000e+00 4.2000000000000000e+03 6.0000000000000000e+00 0.0000000000000000e+00 2.5000000000000000e+00 
62 2 4 2.2559723595316457e+00 1.0000000000000000e+00 4.2000000000000000e+03 6.0000000000000000e+00 2.0000000000000000e+00 2.5000000000000000e+00 
63 2 4 2.2559723595316457e+00 1.0000000000000000e+00 4.2000000000000000e+03 6.0000000000000000e+00 4.0000000000000000e+00 2.5000000000000000e+00 
64 2 4 2.2559723595316457e+00 1.0000000000000000e+00 4.2000000000000000e+03 6.0000000000000000e+00 6.0000000000000000e+00 2.5000000000000000e+00 
81 2 4 2.2559723595316457e+00 1.0000000000000000e+00 4.2000000000000000e+03 8.0000000000000000e+00 0.0000000000000000e+00 2.5000000000000000e+00 
82 2 4 2.2559723595316457e+00 1.0000000000000000e+00 4.2000000000000000e+03 8.0000000000000000e+00 2.0000000000000000e+00 2.5000000000000000e+00 
83 2 4 2.2559723595316457e+00 1.0000000000000000e+00 4.2000000000000000e+03 8.0000000000000000e+00 4.0000000000000000e+00 2.5000000000000000e+00 
84 2 4 2.2559723595316457e+00 1.0000000000000000e+00 4.2000000000000000e+03 8.0000000000000000e+00 6.0000000000000000e+00 2.5000000000000000e+00 
101 2 4 2.2559723595316457e+00 1.0000000000000000e+00 4.2000000000000000e+03 1.0000000000000000e+01 0.0000000000000000e+00 2.5000000000000000e+00 
102 2 4 2.2559723595316457e+00 1.0000000000000000e+00 4.2000000000000000e+03 1.0000000000000000e+01 2.0000000000000000e+00 2.5000000000000000e+00 
103 2 4 2.2559723595316457e+00 1.0000000000000000e+00 4.2000000000000000e+03 1.0000000000000000e+01 4.0000000000000000e+00 2.5000000000000000e+00 
104 2 4 2.2559723595316457e+00 1.0000000000000000e+00 4.2000000000000000e+03 1.0000000000000000e+01 6.0000000000000000e+00 2.5000000000000000e+00 
121 2 4 2.2559723595316457e+00 1.0000000000000000e+00 4.2000000000000000e+03 1.2000000000000000e+01 0.0000000000000000e+00 2.5000000000000000e+00 
122 2 4 2.2559723595316457e+00 1.0000000000000000e+00 4.2000000000000000e+03 1.2000000000000000e+01 2.0000000000000000e+00 2.5000000000000000e+00 
123 2 4 2.2559723595316457e+00 1.0000000000000000e+00 4.2000000000000000e+03 1.2000000000000000e+01 4.0000000000000000e+00 2.5000000000000000e+00 
124 2 4 2.2559723595316457e+00 -1.3734418636154412e+01 4.2000000000000000e+03 1.2000000000000000e+01 6.0000000000000000e+00 2.5000000000000000e+00 
141 2 4 2.2559723595316457e+00 1.0000000000000000e+00 4.2000000000000000e+03 1.4000000000000000e+01 0.0000000000000000e+00 2.5000000000000000e+00 
142 2 4 2.2559723595316457e+00 1.0000000000000000e+00 4.2000000000000000e+03 1.4000000000000000e+01 2.0000000000000000e+00 2.5000000000000000e+00 
143 2 4 2.2559723595316457e+00 5.5178642005886736e-01 4.2000000000000000e+03 1.4000000000000000e+01 4.0000000000000000e+00 2.5000000000000000e+00 
144 2 4 2.2559723595316457e+00 -1.5421749601179573e+02 4.2000000000000000e+03 1.4000000000000000e+01 6.0000000000000000e+00 2.5000000000000000e+00 
161 2 4 2.2559723595316457e+00 1.0000000000000000e+00 4.2000000000000000e+03 1.6000000000000000e+01 0.0000000000000000e+00 2.5000000000000000e+00 
162 2 4 2.2559723595316457e+00 1.0000000000000000e+00 4.2000000000000000e+03 1.6000000000000000e+01 2.0000000000000000e+00 2.5000000000000000e+00 
163 2 4 2.2559723595316457e+00 -3.6286659604609004e+00 4.2000000000000000e+03 1.6000000000000000e+01 4.0000000000000000e+00 2.5000000000000000e+00 
164 2 4 2.2559723595316457e+00 -4.1451678070826347e+02 4.2000000000000000e+03 1.6000000000000000e+01 6.0000000000000000e+00 2.5000000000000000e+00 
181 2 4 2.2559723595316457e+00 1.0000013609911149e+00 4.2000000000000000e+03 1.8000000000000000e+01 0.0000000000000000e+00 2.5000000000000000e+00 
182 2 4 2.2559723595316457e+00 9.9882192438819495e-01 4.2000000000000000e+03 1.8000000000000000e+01 2.0000000000000000e+00 2.5000000000000000e+00 
183 2 4 2.2559723595316457e+00 -4.9390127119458391e+00 4.2000000000000000e+03 1.8000000000000000e+01 4.0000000000000000e+00 2.5000000000000000e+00 
184 2 4 2.2559723595316457e+00 -5.8915241509400812e+02 4.2000000000000000e+03 1.8000000000000000e+01 6.0000000000000000e+00 2.5000000000000000e+00 
5 2 4 2.2559723595316457e+00 1.0000000000000000e+00 4.2000000000000000e+03 0.0000000000000000e+00 8.0000000000000000e+00 2.5000000000000000e+00 
6 2 4 2.2559723595316457e+00 1.0000000000000000e+00 4.2000000000000000e+03 0.0000000000000000e+00 1.0000000000000000e+01 2.5000000000000000e+00 
7 2 4 2.2559723595316457e+00 1.0000000000000000e+00 4.2000000000000000e+03 0.0000000000000000e+00 1.2000000000000000e+01 2.5000000000000000e+00 
25 2 4 2.2559723595316457e+00 1.0000000000000000e+00 4.2000000000000000e+03 2.0000000000000000e+00 8.0000000000000000e+00 2.5000000000000000e+00 
26 2 4 2.2559723595316457e+00 1.0000000000000000e+00 4.2000000000000000e+03 2.0000000000000000e+00 1.0000000000000000e+01 2.5000000000000000e+00 
27 2 4 2.2559723595316457e+00 1.0000000000000000e+00 4.2000000000000000e+03 2.0000000000000000e+00 1.2000000000000000e+01 2.5000000000000000e+00 
45 2 4 2.2559723595316457e+00 1.0000000000000000e+00 4.2000000000000000e+03 4.0000000000000000e+00 8.0000000000000000e+00 2.5000000000000000e+00 
46 2 4 2.2559723595316457e+00 1.0000000000000000e+00 4.2000000000000000e+03 4.0000000000000000e+00 1.0000000000000000e+01 2.5000000000000000e+00 
47 2 4 2.2559723595316457e+00 1.0000000000000000e+00 4.2000000000000000e+03 4.0000000000000000e+00 1.2000000000000000e+01 2.5000000000000000e+00 
65 2 4 2.2559723595316457e+00 1.0000000000000000e+00 4.2000000000000000e+03 6.0000000000000000e+00 8.0000000000000000e+00 2.5000000000000000e+00 
66 2 4 2.2559723595316457e+00 1.0000000000000000e+00 4.2000000000000000e+03 6.0000000000000000e+00 1.0000000000000000e+01 2.5000000000000000e+00 
67 2 4 2.2559723595316457e+00 1.0000000000000000e+00 4.2000000000000000e+03 6.0000000000000000e+00 1.2000000000000000e+01 2.5000000000000000e+00 
85 2 4 2.2559723595316457e+00 1.0000000000000000e+00 4.2000000000000000e+03 8.0000000000000000e+00 8.0000000000000000e+00 2.5000000000000000e+00 
86 2 4 2.2559723595316457e+00 1.0000000000000000e+00 4.2000000000000000e+03 8.0000000000000000e+00 1.0000000000000000e+01 2.5000000000000000e+00 
87 2 4 2.2559723595316457e+00 1.0000000000000000e+00 4.2000000000000000e+03 8.0000000000000000e+00 1.2000000000000000e+01 2.5000000000000000e+00 
105 2 4 2.2559723595316457e+00 5.5801608036385963e-01 4.2000000000000000e+03 1.0000000000000000e+01 8.0000000000000000e+00 2.5000000000000000e+00 
106 2 4 2.2559723595316457e+00 -3.5558528053597285e+00 4.2000000000000000e+03 1.0000000000000000e+01 1.0000000000000000e+01 2.5000000000000000e+00 
107 2 4 2.2559723595316457e+00 -4.8234374722293483e+00 4.2000000000000000e+03 1.0000000000000000e+01 1.2000000000000000e+01 2.5000000000000000e+00 
125 2 4 2.2559723595316457e+00 -1.5421456372935074e+02 4.2000000000000000e+03 1.2000000000000000e+01 8.0000000000000000e+00 2.5000000000000000e+00 
126 2 4 2.2559723595316457e+00 -4.1508224880915350e+02 4.2000000000000000e+03 1.2000000000000000e+01 1.0000000000000000e+01 2.5000000000000000e+00 
127 2 4 2.2559723595316457e+00 -5.9662423093795155e+02 4.2000000000000000e+03 1.2000000000000000e+01 1.2000000000000000e+01 2.5000000000000000e+00 
145 2 4 2.2559723595316457e+00 -9.0959091420543098e+02 4.2000000000000000e+03 1.4000000000000000e+01 8.0000000000000000e+00 2.5000000000000000e+00 
146 2 4 2.2559723595316457e+00 -2.1501668620486998e+03 4.2000000000000000e+03 1.4000000000000000e+01 1.0000000000000000e+01 2.5000000000000000e+00 
147 2 4 2.2559723595316457e+00 -3.0607264701304703e+03 4.2000000000000000e+03 1.4000000000000000e+01 1.2000000000000000e+01 2.5000000000000000e+00 
165 2 4 2.2559723595316457e+00 -2.1462667049048787e+03 4.2000000000000000e+03 1.6000000000000000e+01 8.0000000000000000e+00 2.5000000000000000e+00 
166 2 4 2.2559723595316457e+00 -4.8936481446061334e+03 4.2000000000000000e+03 1.6000000000000000e+01 1.0000000000000000e+01 2.5000000000000000e+00 
167 2 4 2.2559723595316457e+00 -6.9402254042094464e+03 4.2000000000000000e+03 1.6000000000000000e+01 1.2000000000000000e+01 2.5000000000000000e+00 
185 2 4 2.2559723595316457e+00 -3.0192205852792495e+03 4.2000000000000000e+03 1.8000000000000000e+01 8.0000000000000000e+00 2.5000000000000000e+00 
186 2 4 2.2559723595316457e+00 -6.8679701825546790e+03 4.2000000000000000e+03 1.8000000000000000e+01 1.0000000000000000e+01 2.5000000000000000e+00 
187 2 4 2.2559723595316457e+00 -9.7309019834430856e+03 4.2000000000000000e+03 1.8000000000000000e+01 1.2000000000000000e+01 2.5000000000000000e+00 
8 2 4 2.2559723595316457e+00 1.0000000000000000e+00 4.2000000000000000e+03 0.0000000000000000e+00 1.4000000000000000e+01 2.5000000000000000e+00 
9 2 4 2.2559723595316457e+00 1.0000000000000000e+00 4.2000000000000000e+03 0.0000000000000000e+00 1.6000000000000000e+01 2.5000000000000000e+00 
10 2 4 2.2559723595316457e+00 1.0000000000000000e+00 4.2000000000000000e+03 0.0000000000000000e+00 1.8000000000000000e+01 2.5000000000000000e+00 
28 2 4 2.2559723595316457e+00 1.0000000000000000e+00 4.2000000000000000e+03 2.0000000000000000e+00 1.4000000000000000e+01 2.5000000000000000e+00 
29 2 4 2.2559723595316457e+00 1.0000000000000000e+00 4.2000000000000000e+03 2.0000000000000000e+00 1.6000000000000000e+01 2.5000000000000000e+00 
30 2 4 2.2559723595316457e+00 1.0000000000000000e+00 4.2000000000000000e+03 2.0000000000000000e+00 1.8000000000000000e+01 2.5000000000000000e+00 
48 2 4 2.2559723595316457e+00 1.0000000000000000e+00 4.2000000000000000e+03 4.0000000000000000e+00 1.4000000000000000e+01 2.5000000000000000e+00 
49 2 4 2.2559723595316457e+00 1.0000000000000000e+00 4.2000000000000000e+03 4.0000000000000000e+00 1.6000000000000000e+01 2.5000000000000000e+00 
50 2 4 2.2559723595316457e+00 1.0000000000000000e+00 4.2000000000000000e+03 4.0000000000000000e+00 1.8000000000000000e+01 2.5000000000000000e+00 
68 2 4 2.2559723595316457e+00 1.0000000000000000e+00 4.2000000000000000e+03 6.0000000000000000e+00 1.4000000000000000e+01 2.5000000000000000e+00 
69 2 4 2.2559723595316457e+00 1.0000000000000000e+00 4.2000000000000000e+03 6.0000000000000000e+00 1.6000000000000000e+01 2.5000000000000000e+00 
70 2 4 2.2559723595316457e+00 1.0003855245069255e+00 4.2000000000000000e+03 6.0000000000000000e+00 1.8000000000000000e+01 2.5000000000000000e+00 
88 2 4 2.2559723595316457e+00 1.0000000000000000e+00 4.2000000000000000e+03 8.0000000000000000e+00 1.4000000000000000e+01 2.5000000000000000e+00 
89 2 4 2.2559723595316457e+00 9.9978764919070118e-01 4.2000000000000000e+03 8.0000000000000000e+00 1.6000000000000000e+01 2.5000000000000000e+00 
90 2 4 2.2559723595316457e+00 1.0089854965473410e+00 4.2000000000000000e+03 8.0000000000000000e+00 1.8000000000000000e+01 2.5000000000000000e+00 
108 2 4 2.2559723595316457e+00 -5.1232631388774887e+00 4.2000000000000000e+03 1.0000000000000000e+01 1.4000000000000000e+01 2.5000000000000000e+00 
109 2 4 2.2559723595316457e+00 -5.1343806610715070e+00 4.2000000000000000e+03 1.0000000000000000e+01 1.6000000000000000e+01 2.5000000000000000e+00 
110 2 4 2.2559723595316457e+00 -5.1368448761150995e+00 4.2000000000000000e+03 1.0000000000000000e+01 1.8000000000000000e+01 2.5000000000000000e+00 
128 2 4 2.2559723595316457e+00 -6.4043749735554252e+02 4.2000000000000000e+03 1.2000000000000000e+01 1.4000000000000000e+01 2.5000000000000000e+00 
129 2 4 2.2559723595316457e+00 -6.4679742443643875e+02 4.2000000000000000e+03 1.2000000000000000e+01 1.6000000000000000e+01 2.5000000000000000e+00 
130 2 4 2.2559723595316457e+00 -6.4667511912115106e+02 4.2000000000000000e+03 1.2000000000000000e+01 1.8000000000000000e+01 2.5000000000000000e+00 
148 2 4 2.2559723595316457e+00 -3.3335367142643836e+03 4.2000000000000000e+03 1.4000000000000000e+01 1.4000000000000000e+01 2.5000000000000000e+00 
149 2 4 2.2559723595316457e+00 -3.3660592235959812e+03 4.2000000000000000e+03 1.4000000000000000e+01 1.6000000000000000e+01 2.5000000000000000e+00 
150 2 4 2.2559723595316457e+00 -3.3659046679190392e+03 4.2000000000000000e+03 1.4000000000000000e+01 1.8000000000000000e+01 2.5000000000000000e+00 
168 2 4 2.2559723595316457e+00 -7.5729900507535622e+03 4.2000000000000000e+03 1.6000000000000000e+01 1.4000000000000000e+01 2.5000000000000000e+00 
169 2 4 2.2559723595316457e+00 -7.6269035633698859e+03 4.2000000000000000e+03 1.6000000000000000e+01 1.6000000000000000e+01 2.5000000000000000e+00 
170 2 4 2.2559723595316457e+00 -7.6182524843363808e+03 4.2000000000000000e+03 1.6000000000000000e+01 1.8000000000000000e+01 2.5000000000000000e+00 
188 2 4 2.2559723595316457e+00 -1.0592639605267304e+04 4.2000000000000000e+03 1.8000000000000000e+01 1.4000000000000000e+01 2.5000000000000000e+00 
189 2 4 2.2559723595316457e+00 -1.0642506378384176e+04 4.2000000000000000e+03 1.8000000000000000e+01 1.6000000000000000e+01 2.5000000000000000e+00 
190 2 4 2.2559723595316457e+00 -1.0618077132595859e+04 4.2000000000000000e+03 1.8000000000000000e+01 1.8000000000000000e+01 2.5000000000000000e+00 
1959 1561 2 1.0279966544041192e+00 -8.1490140684431135e+03 4.2000000000000000e+03 1.6465874950213763e+01 1.2822287593307303e+01 8.1742101548668074e+01 
708 310 2 1.0279966453293632e+00 -3.6416959445355997e+03 4.2000000000000000e+03 1.5701881292731072e+01 1.2175158584235355e+01 8.1925783979275622e+01 
1085 687 2 1.0279984569208256e+00 2.4076041584081588e+02 4.2000000000000000e+03 1.8247725687484522e+01 1.2309119442543057e+01 8.1947347746193032e+01 
1181 783 2 1.0279990896914970e+00 -9.2447895305601887e+03 4.2000000000000000e+03 1.9699453995283211e+01 1.2929664849516284e+01 8.2013046528671154e+01 
1431 1033 2 1.0279964808297188e+00 -5.3657962977567934e+02 4.2000000000000000e+03 1.5449008128813686e+01 1.3017131299207874e+01 8.2092123550183686e+01 
1833 1435 2 1.0279998319378285e+00 -3.9619179813777578e+03 4.2000000000000000e+03 1.9864212151274007e+01 1.2011877668930710e+01 8.2085362603537035e+01 
404 6 2 1.0279993115000270e+00 -2.0448541257273657e+03 4.2000000000000000e+03 1.9535289256449939e+01 1.2886152672727691e+01 8.2065590368127403e+01 
1268 870 2 1.0279996907760014e+00 -1.6152189479515716e+03 4.2000000000000000e+03 1.8938436227669843e+01 1.2948295837512394e+01 8.2080382344472000e+01 
1265 867 2 1.0279998027183417e+00 -1.6165646181209945e+03 4.2000000000000000e+03 1.8981685778578342e+01 1.2990544412341194e+01 8.2088006482589066e+01 
1601 1203 2 1.0279995685352254e+00 5.0053661223857889e+03 4.2000000000000000e+03 1.9408747843266148e+01 1.3009762924732676e+01 8.2089723792303189e+01 
601 203 2 1.0279966454243938e+00 -2.3579956397247283e+03 4.2000000000000000e+03 1.5156890815122717e+01 1.1945503098307588e+01 8.2172511535084894e+01 
1018 620 2 1.0280009711701326e+00 7.8815365710793585e+03 4.2000000000000000e+03 1.9316833514185440e+01 1.3292048626691354e+01 8.2103589019740340e+01 
597 199 2 1.0280006016205072e+00 -7.1120258088833020e+02 4.2000000000000000e+03 1.9190802887202228e+01 1.2885735832595289e+01 8.2114590951618780e+01 
600 202 2 1.0280003705339029e+00 -7.1122242054852563e+02 4.2000000000000000e+03 1.9172170955133613e+01 1.2960848821952027e+01 8.2112143581462107e+01 
408 10 2 1.0279972882157584e+00 -6.5770981512404906e+03 4.2000000000000000e+03 1.5534426151584006e+01 1.0549762444534450e+01 8.2202377807745066e+01 
1885 1487 2 1.0280006373547137e+00 3.3923153328376970e+03 4.2000000000000000e+03 1.9063860559818757e+01 1.2315709265833812e+01 8.2151091507904027e+01 
1888 1490 2 1.0279996698788512e+00 3.3910842696167811e+03 4.2000000000000000e+03 1.8961832854560043e+01 1.1942020391973749e+01 8.2201301985014538e+01 
1373 975 2 1.0280007991576927e+00 -4.9831410804714369e+03 4.2000000000000000e+03 1.9167681177214433e+01 1.2127475212150705e+01 8.2192320394924863e+01 
736 338 2 1.0279963300777706e+00 -9.5122620430936986e+03 4.2000000000000000e+03 1.5267898168914972e+01 1.3158184392797313e+01 8.2235791341318816e+01 
1701 1303 2 1.0279975535290218e+00 2.1433677022389456e+03 4.2000000000000000e+03 1.5543818675343084e+01 1.0214013113100288e+01 8.2298522461872750e+01 
1795 1397 2 1.0279966351821386e+00 4.8112617455481623e+03 4.2000000000000000e+03 1.5092884275205195e+01 1.3166063088496367e+01 8.2375940149483085e+01 
1836 1438 2 1.0280001584271599e+00 -3.9649310041398380e+03 4.2000000000000000e+03 1.8846315469156668e+01 1.1262714760605126e+01 8.2382683941759510e+01 
645 247 2 1.0279966712661266e+00 -4.2719183826654726e+03 4.2000000000000000e+03 1.5032760301121650e+01 1.3030463028456657e+01 8.2386821536036635e+01 
1376 978 2 1.0280009753514712e+00 -4.9703090103566738e+03 4.2000000000000000e+03 1.8976116991474441e+01 1.1281885903399797e+01 8.2422847251704340e+01 
1495 1097 2 1.0279975700824806e+00 3.7408614043087109e+03 4.2000000000000000e+03 1.4568718030351334e+01 1.1613144609924797e+01 8.2566612772959203e+01 
1149 751 2 1.0280029545824423e+00 -5.1253234450664495e+03 4.2000000000000000e+03 1.9125862235088487e+01 1.2453732446627653e+01 8.2598514521529083e+01 
1556 1158 2 1.0279979589911166e+00 4.7234541169442609e+03 4.2000000000000000e+03 1.4510739380508028e+01 1.1476918232943813e+01 8.2614340943460832e+01 
1739 1341 2 1.0279983535894668e+00 8.0430879668793968e+03 4.2000000000000000e+03 1.4444609286400675e+01 1.0876333353076417e+01 8.2718525569415604e+01 
1949 1551 2 1.0279983633083447e+00 -2.5354775646398934e+03 4.2000000000000000e+03 1.4470908249332526e+01 1.0770220912730839e+01 8.2715649546847260e+01 
1547 1149 2 1.0279980798825499e+00 2.3051412346500447e+03 4.2000000000000000e+03 1.4386198075044316e+01 1.0912634038521409e+01 8.2760545414695542e+01 
476 78 2 1.0279983792979444e+00 -1.0738761465878626e+04 4.2000000000000000e+03 1.4500527385294069e+01 1.0445935249749448e+01 8.2765348326160378e+01 
766 368 2 1.0279981181749733e+00 7.3110307753025054e+03 4.2000000000000000e+03 1.8261279213536497e+01 9.5080828065303660e+00 8.2827666010502185e+01 
1944 1546 2 1.0279984429401561e+00 -1.1918616450478088e+04 4.2000000000000000e+03 1.4424593447283751e+01 1.0446714937804254e+01 8.2823815419175887e+01 
1386 988 2 1.0279985989101308e+00 -8.0469532068903254e+03 4.2000000000000000e+03 1.4276805042497411e+01 1.1098766410929143e+01 8.2833882482122490e+01 
1666 1268 2 1.0279987104336905e+00 1.1993426483705267e+04 4.2000000000000000e+03 1.4240722543244686e+01 1.1210889896002099e+01 8.2859097539758082e+01 
2077 1679 2 1.0279986644649608e+00 -2.5677503249864552e+04 4.2000000000000000e+03 1.4126081747740750e+01 1.0790866769465918e+01 8.3013165111082884e+01 
1791 1393 2 1.0279990028168491e+00 8.9356803651991049e+03 4.2000000000000000e+03 1.7399415749937248e+01 8.2186250197675825e+00 8.3028414433062935e+01 
767 369 2 1.0279939715990656e+00 7.3112704657043359e+03 4.2000000000000000e+03 1.9985531907587351e+01 9.8698737300076331e+00 8.3049349367745265e+01 
1928 1530 2 1.0279990906242402e+00 -3.9826036656993233e+03 4.2000000000000000e+03 1.7784133659945180e+01 8.1044920310634403e+00 8.3112129156314609e+01 
1604 1206 2 1.0280007659795747e+00 5.0061773520602219e+03 4.2000000000000000e+03 1.9342237250220535e+01 1.3327632424404598e+01 8.2098628962171531e+01 
2053 1655 2 1.0279984668057278e+00 -1.1611027277837433e+04 4.2000000000000000e+03 1.8786219658871627e+01 8.9542968742743927e+00 8.3203376323894503e+01 
710 312 2 1.0279987803060584e+00 3.4782004411053367e+02 4.2000000000000000e+03 1.8746286511333366e+01 8.8377347960411967e+00 8.3198869660756358e+01 
1019 621 2 1.0280016087360027e+00 7.8810720156740836e+03 4.2000000000000000e+03 1.9315935567937192e+01 1.3329693225859984e+01 8.2104289405405382e+01 
1857 1459 2 1.0279993234632678e+00 -4.9103127049327668e+02 4.2000000000000000e+03 1.3935261703711747e+01 1.0654059690835407e+01 8.3236336881298755e+01 
1851 1453 2 1.0279994554184801e+00 6.2175097903964670e+03 4.2000000000000000e+03 1.8781355310679412e+01 8.5081165065634021e+00 8.3243379516520719e+01 
2056 1658 2 1.0279985296183956e+00 -1.1611412178750894e+04 4.2000000000000000e+03 1.8903291013310838e+01 8.9745004963802710e+00 8.3250610579910841e+01 
737 339 2 1.0279992061638965e+00 6.8265659860842661e+03 4.2000000000000000e+03 1.3893558171144393e+01 1.0793393965324272e+01 8.3257606746299018e+01 
1854 1456 2 1.0279997346636820e+00 5.1452660579747298e+03 4.2000000000000000e+03 1.8740067630992108e+01 8.2258992148849455e+00 8.3267411832027392e+01 
711 313 2 1.0279989447277824e+00 3.4666154592369969e+02 4.2000000000000000e+03 1.8942609254134840e+01 8.7306232775340629e+00 8.3270330371307779e+01 
494 96 2 1.0279988650254386e+00 -6.0873518099384737e+03 4.2000000000000000e+03 1.4509443109061550e+01 9.2947231327990600e+00 8.3277881501364234e+01 
1850 1452 2 1.0279993346612486e+00 6.2175031862850874e+03 4.2000000000000000e+03 1.8945804442193047e+01 8.5221451818686109e+00 8.3282358730896235e+01 
1222 824 2 1.0279998233240266e+00 -5.7227984744236956e+03 4.2000000000000000e+03 1.8711592259823920e+01 8.1083012238084766e+00 8.3278092181676641e+01 
1925 1527 2 1.0279972344823693e+00 -3.9763911743092644e+03 4.2000000000000000e+03 1.8953566786901003e+01 9.1627410456678486e+00 8.3285396127256334e+01 
1665 1267 2 1.0279991824681571e+00 3.9566113370919988e+03 4.2000000000000000e+03 1.3851915143889627e+01 1.0829348125843843e+01 8.3299862349459701e+01 
1855 1457 2 1.0279997766071998e+00 5.1451130299306824e+03 4.2000000000000000e+03 1.8901110010064038e+01 8.1620172383948777e+00 8.3306199457976092e+01 
1223 825 2 1.0280000476818552e+00 -5.7229802915022028e+03 4.2000000000000000e+03 1.8932675617543360e+01 8.0486255411034673e+00 8.3324950072028514e+01 
1275 877 2 1.0280034086153187e+00 -4.9496142039388161e+02 4.2000000000000000e+03 1.7476583465406588e+01 1.9431321833291282e+01 8.0586997276423219e+01 
1107 709 2 1.0280029648933606e+00 -4.9373593931250639e+02 4.2000000000000000e+03 1.8037845208887493e+01 1.8988476850587219e+01 8.0747776526009247e+01 
418 20 2 1.0280029246851223e+00 9.6253639680050383e+03 4.2000000000000000e+03 1.8533989580610587e+01 1.9616906452581880e+01 8.0775248431209278e+01 
1106 708 2 1.0280010932115407e+00 -4.9359498280894383e+02 4.2000000000000000e+03 1.9961721661948761e+01 1.8836536601190190e+01 8.0775193485003314e+01 
419 21 2 1.0280024005527957e+00 9.6253825605594338e+03 4.2000000000000000e+03 1.9148739677602507e+01 1.9617204325755392e+01 8.0812098891880041e+01 
1782 1384 2 1.0280027507684402e+00 4.7383555476446454e+03 4.2000000000000000e+03 1.8716184930650588e+01 1.9259786680961092e+01 8.0837089816308037e+01 
1930 1532 2 1.0280026639527775e+00 9.6258938944472739e+03 4.2000000000000000e+03 1.8502541469178297e+01 1.8889838264559700e+01 8.0860558962246913e+01 
606 208 2 1.0280028543964828e+00 4.7385649477983670e+03 4.2000000000000000e+03 1.8715642286918879e+01 1.9078297894186175e+01 8.0862691303184647e+01 
1783 1385 2 1.0280024880324932e+00 4.7379997047826100e+03 4.2000000000000000e+03 1.9081223919069995e+01 1.9323908333730458e+01 8.0847517212397051e+01 
607 209 2 1.0280025770167467e+00 4.7381948326333386e+03 4.2000000000000000e+03 1.9072494480799410e+01 1.9164314751029135e+01 8.0869928990470299e+01 
1931 1533 2 1.0280022306844425e+00 9.6258335514882201e+03 4.2000000000000000e+03 1.9128766349432599e+01 1.8913059433633325e+01 8.0909328410846427e+01 
1681 1283 2 1.0280023621691108e+00 -1.4551423686906423e+03 4.2000000000000000e+03 1.8697552898682734e+01 1.8441208694955357e+01 8.0977023889668729e+01 
1684 1286 2 1.0280021521232829e+00 -1.4550420855107720e+03 4.2000000000000000e+03 1.8958134895431346e+01 1.8417139409475283e+01 8.1006386075467262e+01 
1476 1078 2 1.0280016847745979e+00 1.2818899299787970e+03 4.2000000000000000e+03 1.9298208928296884e+01 1.8120265246252359e+01 8.1060292638048111e+01 
1473 1075 2 1.0280019763640060e+00 1.2818759039875742e+03 4.2000000000000000e+03 1.8799332801107582e+01 1.8109814069242169e+01 8.1065065284541788e+01 
521 123 2 1.0279993101533675e+00 -8.9506365569971149e+03 4.2000000000000000e+03 1.6699860656560748e+01 1.6024941401497674e+01 8.1405228535773318e+01 
772 374 2 1.0280004798534894e+00 1.1973991656820701e+03 4.2000000000000000e+03 1.5407595463268933e+01 1.7088544045943959e+01 8.1414801504988844e+01 
1350 952 2 1.0280004313536619e+00 -4.5685864980836714e+03 4.2000000000000000e+03 1.5373045210463323e+01 1.7069541176467137e+01 8.1457204990754519e+01 
1133 735 2 1.0280002519110774e+00 -5.0022901555695289e+03 4.2000000000000000e+03 1.5394662558943539e+01 1.6898561141704441e+01 8.1551612022563575e+01 
939 541 2 1.0279987468256222e+00 2.3192319388067485e+03 4.2000000000000000e+03 1.7746114632476004e+01 1.5253996809857515e+01 8.1651813500645403e+01 
1581 1183 2 1.0280004781498131e+00 2.8493624002231518e+03 4.2000000000000000e+03 1.5136704455258601e+01 1.7152574276385444e+01 8.1660753567415398e+01 
1976 1578 2 1.0280009234993714e+00 -1.1396590115389810e+04 4.2000000000000000e+03 1.9445787893907315e+01 1.4860983458537293e+01 8.1787093329042790e+01 
720 322 2 1.0279998911727621e+00 4.4622762139774868e+03 4.2000000000000000e+03 1.8467127328842889e+01 1.4329613755533915e+01 8.1899668579358362e+01 
401 3 2 1.0280033945139806e+00 -2.0445597306145653e+03 4.2000000000000000e+03 1.9432648885646724e+01 1.4037043122245830e+01 8.2004297540869686e+01 
1184 786 2 1.0280005220826420e+00 -9.2450028346098006e+03 4.2000000000000000e+03 1.9437656774515666e+01 1.3600828481053574e+01 8.2061313370335228e+01 
1395 997 2 1.0280012934111917e+00 1.6860032965483704e+03 4.2000000000000000e+03 1.4742596623045824e+01 1.7531937083325630e+01 8.2086962193438382e+01 
1357 959 2 1.0280015901064086e+00 -5.7761070812584603e+03 4.2000000000000000e+03 1.4623431091085321e+01 1.7826303538726052e+01 8.2116172504562485e+01 
738 340 2 1.0280025112390441e+00 1.4023782200995540e+04 4.2000000000000000e+03 1.4418271625012249e+01 1.9291141788246311e+01 8.2107542640811999e+01 
1017 619 2 1.0279953488934530e+00 -1.0507630221949080e+03 4.2000000000000000e+03 1.5750095458945021e+01 1.5593435721029588e+01 8.2175322259026672e+01 
1131 733 2 1.0280006957595735e+00 4.3132166456663333e+02 4.2000000000000000e+03 1.4839263002946607e+01 1.7288262966532550e+01 8.2127735666075736e+01 
460 62 2 1.0279996071099322e+00 -8.9386879522085073e+03 4.2000000000000000e+03 1.5159398293865975e+01 1.6676603222443969e+01 8.2139299482957824e+01 
795 397 2 1.0280004948083719e+00 6.7611900658553523e+03 4.2000000000000000e+03 1.4993068008171971e+01 1.6979478147007224e+01 8.2133088630011656e+01 
1578 1180 2 1.0280023652136063e+00 1.4024096414137332e+04 4.2000000000000000e+03 1.4411613204505370e+01 1.8854130291857299e+01 8.2148975565684623e+01 
1943 1545 2 1.0279976205297345e+00 1.2227222374039554e+03 4.2000000000000000e+03 1.5492711838825523e+01 1.6058895740294513e+01 8.2229383719403543e+01 
999 601 2 1.0279981327736882e+00 6.0140613917652818e+03 4.2000000000000000e+03 1.5408382852161781e+01 1.6203102572228548e+01 8.2236526675410758e+01 
1973 1575 2 1.0280029804262545e+00 -1.1396688492118934e+04 4.2000000000000000e+03 1.8108370903921298e+01 1.6777303203917675e+01 8.2303042763140198e+01 
1725 1327 2 1.0280000295839600e+00 6.4232669328169704e+03 4.2000000000000000e+03 1.5080821622783640e+01 1.6753177311175744e+01 8.2283247459497929e+01 
729 331 2 1.0279961413521901e+00 2.5755551375179930e+03 4.2000000000000000e+03 1.5269018853477132e+01 1.3559990572795042e+01 8.2360920730673357e+01 
1822 1424 2 1.0280002328987270e+00 5.3769399761527065e+03 4.2000000000000000e+03 1.5033408245290781e+01 1.6829471100688806e+01 8.2315754340980035e+01 
952 554 2 1.0280001030051773e+00 8.2297652408213489e+03 4.2000000000000000e+03 1.5069780842996089e+01 1.6764542066850957e+01 8.2313269490861984e+01 
1213 815 2 1.0280016473469777e+00 2.9105965420344205e+03 4.2000000000000000e+03 1.4574979210585672e+01 1.7861140171124212e+01 8.2309389179302912e+01 
1677 1279 2 1.0279886099261217e+00 9.0542485329026897e+02 4.2000000000000000e+03 1.5817546656496344e+01 1.5146949106829616e+01 8.2363528812849566e+01 
1314 916 2 1.0280005555746550e+00 -7.0438882995003951e+02 4.2000000000000000e+03 1.4923568165000070e+01 1.7031423930213375e+01 8.2330095938161676e+01 