LAMMPS data file via write_data, version 30 Jul 2016, timestep = 50000000

180 atoms
2 atom types

0.0000000000000000e+00 2.0000000000000000e+01 xlo xhi
0.0000000000000000e+00 2.0000000000000000e+01 ylo yhi
0.0000000000000000e+00 2.0000000000000000e+01 zlo zhi

Masses

1 3.896
2 4.31

Atoms # meso-molecular

37 1 2 1.0279999999999996e+00 -5.2273738337501254e+02 1.0000000000000000e+00 7.7894966704865887e+00 4.5061925985357645e+00 4.7624322183923997e+00 
38 1 2 1.0280000000000007e+00 -6.0261351516738500e+02 1.0000000000000000e+00 7.7892420758441991e+00 4.5024957149465736e+00 4.7650161691461168e+00 
43 1 2 1.0279999999999989e+00 -6.4928135142397844e+02 1.0000000000000000e+00 7.7862301564011380e+00 4.5109034720894314e+00 4.7584178399310737e+00 
44 1 2 1.0279999999999998e+00 -7.6040464902976123e+02 1.0000000000000000e+00 7.7862285352720608e+00 4.4988972928661681e+00 4.7669666613510691e+00 
73 1 2 1.0280000000000000e+00 -4.0615009002843732e+02 1.0000000000000000e+00 7.7914446189258824e+00 4.5051601357648074e+00 4.7635872185041093e+00 
74 1 2 1.0280000000000009e+00 -3.6589058462363982e+02 1.0000000000000000e+00 7.7919197765846668e+00 4.5037165844030191e+00 4.7647214326549108e+00 
79 1 2 1.0279999999999998e+00 -5.2068148087901170e+02 1.0000000000000000e+00 7.7907718493512776e+00 4.5064770233948765e+00 4.7625048012679105e+00 
80 1 2 1.0280000000000002e+00 -6.7343053864409683e+02 1.0000000000000000e+00 7.7953911413849521e+00 4.5072335428333767e+00 4.7629807065602483e+00 
1 1 2 1.0280000000000000e+00 -6.7963755998060242e+02 1.0000000000000000e+00 7.7853727706303602e+00 4.5033958611846812e+00 4.7635510335851237e+00 
7 1 2 1.0280000000000000e+00 -7.0476257374889735e+02 1.0000000000000000e+00 7.7844630365720402e+00 4.5122635361575938e+00 4.7571000274905311e+00 
13 1 2 1.0280000000000000e+00 -8.4156147447971159e+02 1.0000000000000000e+00 7.7835044931753350e+00 4.5175927520438570e+00 4.7532129109266164e+00 
50 1 2 1.0279999999999996e+00 -6.3465116268883764e+02 1.0000000000000000e+00 7.7924096465144137e+00 4.5318701035488091e+00 4.7454348798742387e+00 
49 1 2 1.0280000000000018e+00 -5.0722869093686671e+02 1.0000000000000000e+00 7.7973406844978790e+00 4.5501606457883064e+00 4.7346625435813348e+00 
14 1 2 1.0279999999999998e+00 -6.9827708638392107e+02 1.0000000000000000e+00 7.7866968151179483e+00 4.5368629424833538e+00 4.7409551425747614e+00 
8 1 2 1.0279999999999996e+00 -8.3521029201147189e+02 1.0000000000000000e+00 7.7634255135256192e+00 4.4490242720077937e+00 4.8009330062968054e+00 
3 1 2 1.0279999999999998e+00 -7.3358463211753030e+02 1.0000000000000000e+00 7.4562654551077792e+00 4.1296546739214994e+00 5.9754017315621946e+00 
39 1 2 1.0279999999999996e+00 -6.6854312405525775e+02 1.0000000000000000e+00 7.4861981370432042e+00 5.0951407345714887e+00 6.9462691361415256e+00 
9 1 2 1.0279999999999982e+00 -6.6448903292372029e+02 1.0000000000000000e+00 7.3071643955266650e+00 5.3280202232919089e+00 6.9598219091102136e+00 
10 1 2 1.0279999999999943e+00 -6.0531287638879633e+02 1.0000000000000000e+00 7.3170522914225877e+00 5.4057098255287093e+00 6.9642443184515450e+00 
4 1 2 1.0279999999999918e+00 -5.7879815222377908e+02 1.0000000000000000e+00 7.3319501159374409e+00 5.4529346715721143e+00 6.9660250449201468e+00 
46 1 2 1.0280000000000120e+00 -5.5144724319859301e+02 1.0000000000000000e+00 7.3785413744545512e+00 5.4934272487753582e+00 6.9714860947235797e+00 
45 1 2 1.0279999999999994e+00 -6.6722692850819169e+02 1.0000000000000000e+00 7.4617834213180467e+00 5.8473734015561263e+00 6.8854564005608934e+00 
21 1 2 1.0280000000000000e+00 -5.6554432955911295e+02 1.0000000000000000e+00 7.3686445101384948e+00 6.2381334267708599e+00 6.5322350601175270e+00 
58 1 2 1.0280000000000000e+00 -5.4911357448428544e+02 1.0000000000000000e+00 7.3686966691433069e+00 6.2377399829590594e+00 6.5328471441714919e+00 
16 1 2 1.0280000000000005e+00 -5.8616486106108323e+02 1.0000000000000000e+00 7.3685748852816948e+00 6.2376280821699179e+00 6.5329804709111325e+00 
22 1 2 1.0280000000000005e+00 -4.7268654193097905e+02 1.0000000000000000e+00 7.3688572116411351e+00 6.2374507642784831e+00 6.5333327040255194e+00 
86 1 2 1.0280000000000000e+00 -4.5576215414445534e+02 1.0000000000000000e+00 7.6210214004995969e+00 6.4170210546831550e+00 6.0359789489741482e+00 
87 1 2 1.0280000000000005e+00 -3.9359284593496915e+02 1.0000000000000000e+00 7.4175162762864346e+00 6.2019245149998863e+00 6.5946069858218213e+00 
51 1 2 1.0280000000000005e+00 -5.3379233505020784e+02 1.0000000000000000e+00 7.3762666159724066e+00 6.2353539140172813e+00 6.5386195832010507e+00 
52 1 2 1.0280000000000009e+00 -5.0388962363966698e+02 1.0000000000000000e+00 7.3849164517913861e+00 6.2193564598510545e+00 6.5640569779814806e+00 
57 1 2 1.0280000000000000e+00 -5.5556336392428091e+02 1.0000000000000000e+00 7.3689275370971634e+00 6.2381243575112384e+00 6.5323329248998734e+00 
15 1 2 1.0279999999999998e+00 -6.1046090377371354e+02 1.0000000000000000e+00 7.3688776295771259e+00 6.2378091928500607e+00 6.5327959947809280e+00 
20 1 2 1.0280000000000005e+00 -5.3602958023570545e+02 1.0000000000000000e+00 7.3687015875036561e+00 6.2383527731934958e+00 6.5319190382306758e+00 
82 1 2 1.0279999992227147e+00 -4.5684091874071237e+02 1.0000000000000000e+00 1.0202299129536756e+01 4.0848701941008292e+00 1.4393955516516657e+01 
81 1 2 1.0279999991148314e+00 -5.2688682991220139e+02 1.0000000000000000e+00 9.5943533595372319e+00 4.3666485337225787e+00 1.4506367100185056e+01 
88 1 2 1.0279999991519226e+00 -3.5300202946952675e+02 1.0000000000000000e+00 9.0989215271240589e+00 4.4025250558315427e+00 1.4821089109607986e+01 
75 1 2 1.0279999997962548e+00 -5.1061287832190135e+02 1.0000000000000000e+00 1.3025263373138538e+01 4.6065256244245782e+00 1.5117333303858890e+01 
125 1 2 1.0279999996276294e+00 -3.6979102103599251e+02 1.0000000000000000e+00 9.2677774640683932e+00 3.8385567945017391e+00 1.5823139232040088e+01 
119 1 2 1.0279999996276299e+00 -4.9862371473147908e+02 1.0000000000000000e+00 9.2677774652023661e+00 3.8385567932335003e+00 1.5823139231778311e+01 
149 1 2 1.0279999996276306e+00 -7.4386061290833334e+02 1.0000000000000000e+00 9.2677774642160742e+00 3.8385567955280386e+00 1.5823139233669082e+01 
155 1 2 1.0279999996276328e+00 -6.4191577327069422e+02 1.0000000000000000e+00 9.2677774640109778e+00 3.8385567955801676e+00 1.5823139233468993e+01 
120 1 2 1.0279999996276317e+00 -5.8069628721696654e+02 1.0000000000000000e+00 9.2677774641770210e+00 3.8385567951586270e+00 1.5823139233101475e+01 
114 1 2 1.0279999996276292e+00 -6.2293727718550895e+02 1.0000000000000000e+00 9.2677774647534559e+00 3.8385567943555881e+00 1.5823139232747403e+01 
162 1 2 1.0279999996276286e+00 -5.9842968031093892e+02 1.0000000000000000e+00 9.2677774636322408e+00 3.8385567957962525e+00 1.5823139233266822e+01 
150 1 2 1.0279999996276283e+00 -5.7491522001055955e+02 1.0000000000000000e+00 9.2677774642773443e+00 3.8385567953835911e+00 1.5823139233548972e+01 
126 1 2 1.0279999996276301e+00 -4.7327997917650953e+02 1.0000000000000000e+00 9.2677774641513118e+00 3.8385567947793069e+00 1.5823139232537818e+01 
156 1 2 1.0279999996276306e+00 -6.3523165930645257e+02 1.0000000000000000e+00 9.2677774640830464e+00 3.8385567956024302e+00 1.5823139233595942e+01 
53 1 2 1.0279999999083056e+00 -6.5442482344912207e+02 1.0000000000000000e+00 1.3312524962100397e+01 4.0725268387185007e+00 1.5499522670827979e+01 
90 1 2 1.0279999999083056e+00 -5.3591493013754553e+02 1.0000000000000000e+00 1.3312524962100397e+01 4.0725268387185007e+00 1.5499522670827979e+01 
6 1 2 1.0279999999083056e+00 -6.8591741779169240e+02 1.0000000000000000e+00 1.3312524962100397e+01 4.0725268387185007e+00 1.5499522670827979e+01 
12 1 2 1.0279999999083056e+00 -8.0706651800366865e+02 1.0000000000000000e+00 1.3312524962100397e+01 4.0725268387185007e+00 1.5499522670827979e+01 
78 1 2 1.0279999999083056e+00 -5.1826316613939457e+02 1.0000000000000000e+00 1.3312524962100397e+01 4.0725268387185007e+00 1.5499522670827979e+01 
48 1 2 1.0279999999083056e+00 -6.5326305848167908e+02 1.0000000000000000e+00 1.3312524962100397e+01 4.0725268387185007e+00 1.5499522670827979e+01 
42 1 2 1.0279999999083056e+00 -5.6687169934467204e+02 1.0000000000000000e+00 1.3312524962100397e+01 4.0725268387185007e+00 1.5499522670827979e+01 
41 1 2 1.0279999999083056e+00 -7.0254622339393632e+02 1.0000000000000000e+00 1.3312524962100397e+01 4.0725268387185007e+00 1.5499522670827979e+01 
47 1 2 1.0279999999083056e+00 -6.8806007100047248e+02 1.0000000000000000e+00 1.3312524962100397e+01 4.0725268387185007e+00 1.5499522670827979e+01 
84 1 2 1.0279999999083056e+00 -5.5961885068106312e+02 1.0000000000000000e+00 1.3312524962100397e+01 4.0725268387185007e+00 1.5499522670827979e+01 
11 1 2 1.0279999999083056e+00 -7.4056353278498079e+02 1.0000000000000000e+00 1.3312524962100397e+01 4.0725268387185007e+00 1.5499522670827979e+01 
5 1 2 1.0279999999083056e+00 -6.8868451982814781e+02 1.0000000000000000e+00 1.3312524962100397e+01 4.0725268387185007e+00 1.5499522670827979e+01 
89 1 2 1.0279999999083056e+00 -4.2981521898262406e+02 1.0000000000000000e+00 1.3312524962100397e+01 4.0725268387185007e+00 1.5499522670827979e+01 
54 1 2 1.0279999999083056e+00 -4.8420151346908091e+02 1.0000000000000000e+00 1.3312524962100397e+01 4.0725268387185007e+00 1.5499522670827979e+01 
83 1 2 1.0279999999083056e+00 -4.4035429287500267e+02 1.0000000000000000e+00 1.3312524962100397e+01 4.0725268387185007e+00 1.5499522670827979e+01 
18 1 2 1.0279999999083056e+00 -6.5558094935275324e+02 1.0000000000000000e+00 1.3312524962100397e+01 4.0725268387185007e+00 1.5499522670827979e+01 
17 1 2 1.0279999999083056e+00 -6.2324441045992376e+02 1.0000000000000000e+00 1.3312524962100397e+01 4.0725268387185007e+00 1.5499522670827979e+01 
113 1 2 1.0279999999075056e+00 -4.5885198416139610e+02 1.0000000000000000e+00 1.3312583145285316e+01 4.0729364004630009e+00 1.5499323926001239e+01 
77 1 2 1.0279999999124352e+00 -3.9771274293792567e+02 1.0000000000000000e+00 1.3312801404128050e+01 4.0738017384097747e+00 1.5497278535502049e+01 
40 1 2 1.0279999999130141e+00 -4.5926350270949035e+02 1.0000000000000000e+00 1.3312847301716813e+01 4.0740293542716755e+00 1.5496917331774274e+01 
76 1 2 1.0279999999128266e+00 -4.3129861159934899e+02 1.0000000000000000e+00 1.3312857344928194e+01 4.0741059111736249e+00 1.5496888870708906e+01 
111 1 2 1.0280000007218524e+00 -5.8233202761019311e+02 1.0000000000000000e+00 9.2187348943677332e+00 5.0934274897856398e+00 1.5134971659365496e+01 
112 1 2 1.0280000008111936e+00 -6.0065314434626555e+02 1.0000000000000000e+00 9.2030579505052525e+00 5.0979230036967254e+00 1.5182331483392037e+01 
124 1 2 1.0280000007406533e+00 -4.6866510309194001e+02 1.0000000000000000e+00 9.1190219798486094e+00 5.0291567571109210e+00 1.5199971378798477e+01 
118 1 2 1.0280000008068615e+00 -6.8212559294567575e+02 1.0000000000000000e+00 9.1528931994475293e+00 5.0633658634030239e+00 1.5207713900386610e+01 
117 1 2 1.0280000008204178e+00 -6.9355523338997284e+02 1.0000000000000000e+00 9.1562435497851489e+00 5.0675670406529179e+00 1.5211916745017902e+01 
148 1 2 1.0280000008880417e+00 -5.7236098695831572e+02 1.0000000000000000e+00 9.1907759510845537e+00 5.1001518483113149e+00 1.5224840834466972e+01 
147 1 2 1.0280000008826158e+00 -6.7994871363119375e+02 1.0000000000000000e+00 9.1783825405843995e+00 5.0909896988331100e+00 1.5228711968297979e+01 
123 1 2 1.0280000008101011e+00 -4.4287872485753439e+02 1.0000000000000000e+00 9.1218154735401544e+00 5.0406130055400196e+00 1.5229131854762123e+01 
154 1 2 1.0280000008936376e+00 -6.5948653313713260e+02 1.0000000000000000e+00 9.1698767569243049e+00 5.0863064311271700e+00 1.5238816004421928e+01 
153 1 2 1.0280000008892733e+00 -6.9777139212166594e+02 1.0000000000000000e+00 9.1619706202395790e+00 5.0801352117766454e+00 1.5241216979655073e+01 
159 1 2 1.0280000008641306e+00 -6.5157856587138372e+02 1.0000000000000000e+00 9.1397710852407616e+00 5.0608411355002554e+00 1.5242645905472013e+01 
160 1 2 1.0280000008953829e+00 -6.9727494330194190e+02 1.0000000000000000e+00 9.1467472863042634e+00 5.0695733512794829e+00 1.5253500124097281e+01 
68 1 2 4.7282410530841484e-01 -5.2052889144191579e+02 1.0000000000000000e+00 7.7502286029501333e+00 1.6413813190552336e+01 5.2601719426820832e+00 
69 1 2 4.7282410530841484e-01 -6.1305728604831756e+02 1.0000000000000000e+00 7.7502286029501333e+00 1.6413813190552311e+01 5.2601719426820779e+00 
26 1 2 4.7282410530841484e-01 -6.4925244551922833e+02 1.0000000000000000e+00 7.7502286029501262e+00 1.6413813190552322e+01 5.2601719426820823e+00 
2 1 2 4.7282410530841484e-01 -5.7630094917199028e+02 1.0000000000000000e+00 7.7502286029501324e+00 1.6413813190552311e+01 5.2601719426820868e+00 
31 1 2 4.7282410530841484e-01 -6.0768408482036830e+02 1.0000000000000000e+00 7.7502286029501324e+00 1.6413813190552311e+01 5.2601719426820868e+00 
63 1 2 4.7282410530841484e-01 -5.0510528921781861e+02 1.0000000000000000e+00 7.7502286029501333e+00 1.6413813190552347e+01 5.2601719426820850e+00 
32 1 2 4.7282410530841484e-01 -5.8701196895388989e+02 1.0000000000000000e+00 7.7502286029501306e+00 1.6413813190552311e+01 5.2601719426820868e+00 
62 1 2 4.7282410530841484e-01 -4.4565701054524789e+02 1.0000000000000000e+00 7.7502286029501333e+00 1.6413813190552339e+01 5.2601719426820832e+00 
33 1 2 4.7282410530841484e-01 -6.1083649575546622e+02 1.0000000000000000e+00 7.7502286029501324e+00 1.6413813190552311e+01 5.2601719426820868e+00 
105 1 2 4.7282410530841484e-01 -3.5466225553867793e+02 1.0000000000000000e+00 7.7502286029501333e+00 1.6413813190552318e+01 5.2601719426820805e+00 
27 1 2 4.7282410530841484e-01 -7.1862902365552532e+02 1.0000000000000000e+00 7.7502286029501262e+00 1.6413813190552318e+01 5.2601719426820850e+00 
59 1 2 1.0279999999999716e+00 -5.4235789767770564e+02 1.0000000000000000e+00 8.5565026711836492e+00 1.3496468096945291e+01 1.4784753716867034e+01 
65 1 2 1.0279999999999587e+00 -5.7524275373207456e+02 1.0000000000000000e+00 8.5664906596421435e+00 1.3598715857305649e+01 1.4754931439921540e+01 
95 1 2 1.0280000000000180e+00 -4.0761025783384787e+02 1.0000000000000000e+00 8.7866395081393751e+00 1.3241229804809853e+01 1.4971102228635713e+01 
100 1 2 1.0280000000000100e+00 -5.5083538239381267e+02 1.0000000000000000e+00 8.6874381582792690e+00 1.4140310600148201e+01 1.4813528711411704e+01 
101 1 2 1.0279999999999740e+00 -4.9233297667034265e+02 1.0000000000000000e+00 8.7950769312116144e+00 1.4009374849618224e+01 1.4797878382368745e+01 
64 1 2 1.0279999999999341e+00 -6.2681313228118393e+02 1.0000000000000000e+00 8.5008030388612887e+00 1.3963104344482405e+01 1.4746017564956224e+01 
29 1 2 1.0279999999999141e+00 -5.4840037499990694e+02 1.0000000000000000e+00 8.3125103251321466e+00 1.3735239095590211e+01 1.4760497702508387e+01 
34 1 2 1.0279999999999274e+00 -7.2341769659262536e+02 1.0000000000000000e+00 8.3776284498829234e+00 1.4057173519497146e+01 1.4782258928299356e+01 
23 1 2 1.0279999999999667e+00 -4.6939259711281466e+02 1.0000000000000000e+00 8.2691826910348514e+00 1.3598343774573696e+01 1.4794353018971997e+01 
28 1 2 1.0279999999999521e+00 -5.4323474179277116e+02 1.0000000000000000e+00 8.2735543289485083e+00 1.3762830247492724e+01 1.4769700732748252e+01 
35 1 2 1.0279999999999965e+00 -7.5333127853360793e+02 1.0000000000000000e+00 8.3943558822572903e+00 1.4156687220686793e+01 1.4816378597211017e+01 
71 1 2 1.0279999999999596e+00 -7.1671981321296494e+02 1.0000000000000000e+00 8.5608482806530564e+00 1.4227842365387488e+01 1.4840461949261746e+01 
70 1 2 1.0279999999999914e+00 -5.9598894133641841e+02 1.0000000000000000e+00 8.6512118348748128e+00 1.4316346229105340e+01 1.4905182975529140e+01 
106 1 2 1.0279999999999656e+00 -4.7337220961037906e+02 1.0000000000000000e+00 8.7576370091874125e+00 1.4369019693789291e+01 1.4973558990491073e+01 
107 1 2 1.0279999999999325e+00 -4.1643709693668200e+02 1.0000000000000000e+00 8.7763460111782212e+00 1.4423701866161592e+01 1.5031726762010523e+01 
96 1 2 1.0279999999999618e+00 -4.0700247621072185e+02 1.0000000000000000e+00 8.8033901539790964e+00 1.2958241210116107e+01 1.5347420349626772e+01 
60 1 2 1.0279999999999534e+00 -4.6472241631581619e+02 1.0000000000000000e+00 8.4725976817809254e+00 1.3670216689788610e+01 1.6814888290631362e+01 
66 1 2 1.0279999999998646e+00 -6.7258890599088591e+02 1.0000000000000000e+00 8.4725955460663265e+00 1.3670225308541252e+01 1.6814889070255106e+01 
102 1 2 1.0279999999999447e+00 -5.3669869634373993e+02 1.0000000000000000e+00 8.4725986395895330e+00 1.3670225670406715e+01 1.6814889263308057e+01 
97 1 2 1.0279999999999643e+00 -5.4618449166329378e+02 1.0000000000000000e+00 8.4725994336858896e+00 1.3670227098486968e+01 1.6814889450294615e+01 
61 1 2 1.0279999999999594e+00 -6.1616603846320197e+02 1.0000000000000000e+00 8.4725976983117341e+00 1.3670226125013448e+01 1.6814889262694912e+01 
24 1 2 1.0279999999999916e+00 -6.8248932769546229e+02 1.0000000000000000e+00 8.4725938333616408e+00 1.3670222116851193e+01 1.6814888655455423e+01 
72 1 2 1.0279999999999634e+00 -6.8107739654686873e+02 1.0000000000000000e+00 8.4725959916789755e+00 1.3670228679789423e+01 1.6814889439702114e+01 
19 1 2 1.0279999999999452e+00 -7.2457725267772810e+02 1.0000000000000000e+00 8.4725930863153582e+00 1.3670223747081979e+01 1.6814888785635141e+01 
30 1 2 1.0279999999999465e+00 -7.5707516375183229e+02 1.0000000000000000e+00 8.4725930187434653e+00 1.3670226518684109e+01 1.6814889067519289e+01 
25 1 2 1.0279999999999272e+00 -7.3773625971860133e+02 1.0000000000000000e+00 8.4725927277186042e+00 1.3670225256734984e+01 1.6814888922966055e+01 
55 1 2 1.0279999999999545e+00 -3.4140117572287500e+02 1.0000000000000000e+00 8.4725993196683742e+00 1.3670220344412604e+01 1.6814888749328397e+01 
108 1 2 1.0279999999999769e+00 -5.1276022151707252e+02 1.0000000000000000e+00 8.4725992300773729e+00 1.3670229902883255e+01 1.6814889728692602e+01 
36 1 2 1.0279999999999552e+00 -6.6854894888390288e+02 1.0000000000000000e+00 8.4725927255915003e+00 1.3670229592717561e+01 1.6814889369160511e+01 
67 1 2 1.0279999999999545e+00 -4.7263799083692561e+02 1.0000000000000000e+00 8.4725985947292557e+00 1.3670232557371794e+01 1.6814889969908801e+01 
127 1 2 1.0280000000000011e+00 -8.4863027235120694e+02 1.0000000000000000e+00 1.4158426911774447e+01 1.0754297201867837e+01 4.0743214424752052e+00 
128 1 2 1.0280000000000018e+00 -6.5802959634270144e+02 1.0000000000000000e+00 1.4089439528665721e+01 1.0674311770953635e+01 4.0870180502172122e+00 
133 1 2 1.0279999999999996e+00 -7.6000669024181320e+02 1.0000000000000000e+00 1.4252972937821854e+01 1.1053087451531669e+01 4.1313416576507960e+00 
164 1 2 1.0280000000000005e+00 -7.5801392809146614e+02 1.0000000000000000e+00 1.4276214452602485e+01 1.0858274232892763e+01 4.1444713302416414e+00 
169 1 2 1.0280000000000000e+00 -8.6423266667501821e+02 1.0000000000000000e+00 1.4227043341151369e+01 1.0874377713742330e+01 4.0860352600158709e+00 
170 1 2 1.0279999999999998e+00 -8.0526015163742204e+02 1.0000000000000000e+00 1.4296926388671700e+01 1.1000180877751150e+01 4.1718026500493073e+00 
163 1 2 1.0280000000000014e+00 -7.5886540737107339e+02 1.0000000000000000e+00 1.4123171014239032e+01 1.0694679331735513e+01 4.0898375385614836e+00 
92 1 2 1.0280000000000016e+00 -5.0585287122757177e+02 1.0000000000000000e+00 1.3593106570604981e+01 1.1111070665518993e+01 4.6572052912603112e+00 
158 1 2 1.0280000000000014e+00 -6.0347779541987904e+02 1.0000000000000000e+00 1.4064577034089533e+01 1.0638099935324217e+01 4.1078027459515969e+00 
122 1 2 1.0280000000000014e+00 -5.7007945728692800e+02 1.0000000000000000e+00 1.4042841474523483e+01 1.0629115253996005e+01 4.1077941777699136e+00 
85 1 2 1.0280000000000038e+00 -4.8424350175587369e+02 1.0000000000000000e+00 1.4019139307193388e+01 1.0625324763976215e+01 4.1036334179319827e+00 
91 1 2 1.0279999999999998e+00 -3.7975140710154335e+02 1.0000000000000000e+00 1.3505655638366486e+01 1.0829394486932127e+01 4.3164445063530028e+00 
56 1 2 1.0279999999999991e+00 -4.4605407080932832e+02 1.0000000000000000e+00 1.3498616192670484e+01 1.0847935027654849e+01 4.3289863636704329e+00 
157 1 2 1.0280000000000029e+00 -6.2770067258415042e+02 1.0000000000000000e+00 1.4049252738679387e+01 1.0628445658451199e+01 4.1110192923492619e+00 
121 1 2 1.0280000000000014e+00 -5.1972352057876913e+02 1.0000000000000000e+00 1.4039291389016014e+01 1.0625286889515447e+01 4.1104279183953167e+00 
134 1 2 1.0279999999999994e+00 -6.3569496473041954e+02 1.0000000000000000e+00 1.3825538710830481e+01 1.1253527885226671e+01 4.7138877036930760e+00 
98 1 2 1.0279999999999989e+00 -4.6339913170348882e+02 1.0000000000000000e+00 1.3664280759202011e+01 1.1174165503311013e+01 4.6894287532095404e+00 
99 1 2 1.0279999999999998e+00 -5.0326718803672611e+02 1.0000000000000000e+00 1.3727963181577586e+01 1.1164310984903279e+01 4.7450318929980204e+00 
93 1 2 1.0279999999999996e+00 -4.8054918967667794e+02 1.0000000000000000e+00 1.3737166383644434e+01 1.1113429699370259e+01 4.7791814084613762e+00 
94 1 2 1.0279999999999980e+00 -5.1533285694641063e+02 1.0000000000000000e+00 1.3758639904337080e+01 1.1132906781625794e+01 4.7797565572034850e+00 
135 1 2 1.0279999999999978e+00 -5.1626773079618988e+02 1.0000000000000000e+00 1.3794214323480659e+01 1.1149293258990802e+01 4.7849819659926780e+00 
165 1 2 1.0280000000000025e+00 -6.0559383468506405e+02 1.0000000000000000e+00 1.3942802932880275e+01 1.1178266430357979e+01 4.7889057722160251e+00 
171 1 2 1.0279999999999963e+00 -5.9640112804508169e+02 1.0000000000000000e+00 1.3865302332531748e+01 1.1170762038425968e+01 4.7899652625447349e+00 
129 1 2 1.0279999999999991e+00 -5.4628026410527445e+02 1.0000000000000000e+00 1.3790837549083157e+01 1.1136949314715778e+01 4.7905085786662589e+00 
130 1 2 1.0280000000000005e+00 -4.8580126876334890e+02 1.0000000000000000e+00 1.3795703085797417e+01 1.1127173486158796e+01 4.7971019029332629e+00 
139 1 2 6.8774415317587612e-01 -6.7030661505782757e+02 1.0000000000000000e+00 1.5165157980319959e+01 1.9850868773888081e+01 3.2095851359778962e+00 
140 1 2 6.8774415317587612e-01 -5.6531429015454250e+02 1.0000000000000000e+00 1.5165157980319959e+01 1.9850868773888081e+01 3.2095851359778962e+00 
175 1 2 6.8774415317587612e-01 -7.6588713294059312e+02 1.0000000000000000e+00 1.5165157980319959e+01 1.9850868773888081e+01 3.2095851359778989e+00 
176 1 2 6.8774415317587612e-01 -6.9911346291626728e+02 1.0000000000000000e+00 1.5165157980319959e+01 1.9850868773888081e+01 3.2095851359778962e+00 
177 1 2 6.8774415317587612e-01 -6.5578592743205547e+02 1.0000000000000000e+00 1.5165157980319959e+01 1.9850868773888081e+01 3.2095851359778962e+00 
141 1 2 6.8774415317587612e-01 -5.3913463520252060e+02 1.0000000000000000e+00 1.5165157980319959e+01 1.9850868773888081e+01 3.2095851359778962e+00 
103 1 2 6.8774415317587612e-01 -4.3713149558192822e+02 1.0000000000000000e+00 1.5165157980319959e+01 1.9850868773888081e+01 3.2095851359778962e+00 
104 1 2 6.8774415317587612e-01 -3.4602891289386037e+02 1.0000000000000000e+00 1.5165157980319959e+01 1.9850868773888081e+01 3.2095851359778962e+00 
109 1 2 6.8774415317587612e-01 -7.2314984544511140e+02 1.0000000000000000e+00 1.5165157980319941e+01 1.9850868773888074e+01 3.2095851359778935e+00 
110 1 2 6.8774415317587612e-01 -5.9836465527144753e+02 1.0000000000000000e+00 1.5165157980319961e+01 1.9850868773888074e+01 3.2095851359778935e+00 
146 1 2 6.8774415317587612e-01 -6.2562909298910381e+02 1.0000000000000000e+00 1.5165157980319941e+01 1.9850868773888074e+01 3.2095851359778935e+00 
145 1 2 6.8774415317587612e-01 -6.6105052746596698e+02 1.0000000000000000e+00 1.5165157980319931e+01 1.9850868773888074e+01 3.2095851359778962e+00 
152 1 2 6.8774415317587612e-01 -6.1754462051635676e+02 1.0000000000000000e+00 1.5165157980319963e+01 1.9850868773888074e+01 3.2095851359778962e+00 
151 1 2 6.8774415317587612e-01 -5.6347879355276859e+02 1.0000000000000000e+00 1.5165157980319927e+01 1.9850868773888074e+01 3.2095851359778926e+00 
116 1 2 6.8774415317587612e-01 -5.0972899573713426e+02 1.0000000000000000e+00 1.5165157980319961e+01 1.9850868773888074e+01 3.2095851359778971e+00 
115 1 2 6.8774415317587612e-01 -4.6056441201866880e+02 1.0000000000000000e+00 1.5165157980319975e+01 1.9850868773888074e+01 3.2095851359778944e+00 
131 1 2 7.7371217232286060e-01 -5.9402323375016749e+02 1.0000000000000000e+00 1.6107520102846770e+01 1.3282181540677781e+01 1.3612428868358961e+01 
136 1 2 7.7371217232286060e-01 -3.8309180741550409e+02 1.0000000000000000e+00 1.6107520102846795e+01 1.3282181540677804e+01 1.3612428868358990e+01 
137 1 2 7.7371217232286060e-01 -6.1079035545136344e+02 1.0000000000000000e+00 1.6107520102846763e+01 1.3282181540677804e+01 1.3612428868358990e+01 
166 1 2 7.7371217232286060e-01 -6.1952677069026367e+02 1.0000000000000000e+00 1.6107520102846770e+01 1.3282181540677781e+01 1.3612428868358979e+01 
167 1 2 7.7371217232286060e-01 -5.4685682981124512e+02 1.0000000000000000e+00 1.6107520102846770e+01 1.3282181540677781e+01 1.3612428868358956e+01 
172 1 2 7.7371217232286060e-01 -5.2920241901992858e+02 1.0000000000000000e+00 1.6107520102846713e+01 1.3282181540677783e+01 1.3612428868358990e+01 
173 1 2 7.7371217232286060e-01 -6.6962908690072538e+02 1.0000000000000000e+00 1.6107520102846770e+01 1.3282181540677781e+01 1.3612428868358990e+01 
132 1 2 7.7371217232286060e-01 -6.1689641862268297e+02 1.0000000000000000e+00 1.6107520102846770e+01 1.3282181540677781e+01 1.3612428868358986e+01 
138 1 2 7.7371217232286060e-01 -5.7186316262012599e+02 1.0000000000000000e+00 1.6107520102846795e+01 1.3282181540677783e+01 1.3612428868358988e+01 
168 1 2 7.7371217232286060e-01 -5.9904839508847635e+02 1.0000000000000000e+00 1.6107520102846770e+01 1.3282181540677781e+01 1.3612428868358988e+01 
174 1 2 7.7371217232286060e-01 -6.9096162685531908e+02 1.0000000000000000e+00 1.6107520102846770e+01 1.3282181540677781e+01 1.3612428868358990e+01 
143 1 2 7.7371217232286060e-01 -6.4317619963204368e+02 1.0000000000000000e+00 1.6107520102846717e+01 1.3282181540677771e+01 1.3612428868358990e+01 
144 1 2 7.7371217232286060e-01 -5.9670360367893250e+02 1.0000000000000000e+00 1.6107520102846795e+01 1.3282181540677781e+01 1.3612428868358975e+01 
142 1 2 7.7371217232286060e-01 -4.8838535914231852e+02 1.0000000000000000e+00 1.6107520102846795e+01 1.3282181540677804e+01 1.3612428868358990e+01 
179 1 2 7.7371217232286060e-01 -7.0347021615176720e+02 1.0000000000000000e+00 1.6107520102846713e+01 1.3282181540677794e+01 1.3612428868358990e+01 
180 1 2 7.7371217232286060e-01 -7.9208422973208462e+02 1.0000000000000000e+00 1.6107520102846713e+01 1.3282181540677794e+01 1.3612428868358990e+01 
161 1 2 7.7371217232286060e-01 -4.7163887363246664e+02 1.0000000000000000e+00 1.6107520102846770e+01 1.3282181540677781e+01 1.3612428868358988e+01 
178 1 2 7.7371217232286060e-01 -4.3869126565947272e+02 1.0000000000000000e+00 1.6107520102846713e+01 1.3282181540677797e+01 1.3612428868358990e+01 

Velocities

37 -1.9411533216056183e-05 -1.8298682711006821e-05 -5.4421729446366848e-05
38 -1.9411533157482458e-05 -1.8298682903058626e-05 -5.4421729717155922e-05
43 -1.9411533250746525e-05 -1.8298682595395666e-05 -5.4421729277029797e-05
44 -1.9411533212788550e-05 -1.8298682719441883e-05 -5.4421729460376089e-05
73 -1.9411533200369176e-05 -1.8298682762571456e-05 -5.4421729519497633e-05
74 -1.9411533149479806e-05 -1.8298682925468461e-05 -5.4421729749398482e-05
79 -1.9411533200612682e-05 -1.8298682761368510e-05 -5.4421729518069847e-05
80 -1.9411533179748478e-05 -1.8298682826376964e-05 -5.4421729610721299e-05
1 -1.9411533214662925e-05 -1.8298682713112016e-05 -5.4421729450138489e-05
7 -1.9411533224128271e-05 -1.8298682682300461e-05 -5.4421729402297614e-05
13 -1.9411533202921649e-05 -1.8298682753243861e-05 -5.4421729505134367e-05
50 -1.9411533226330103e-05 -1.8298682685822485e-05 -5.4421729398018004e-05
49 -1.9411533110931557e-05 -1.8298683007816988e-05 -5.4421729927438668e-05
14 -1.9411533211645130e-05 -1.8298682728092519e-05 -5.4421729462673377e-05
8 -1.9411533225311732e-05 -1.8298682639362128e-05 -5.4421729379233754e-05
3 -1.9411533161074884e-05 -1.8298682591987202e-05 -5.4421729633786230e-05
39 -1.9411533170842069e-05 -1.8298682733095034e-05 -5.4421729890384121e-05
9 -1.9411532971106435e-05 -1.8298682700250793e-05 -5.4421730515130517e-05
10 -1.9411532624725189e-05 -1.8298682646068630e-05 -5.4421732132977954e-05
4 -1.9411532533163208e-05 -1.8298682742816293e-05 -5.4421732814635050e-05
46 -1.9411533860359089e-05 -1.8298682782705991e-05 -5.4421724914127050e-05
45 -1.9411533166063305e-05 -1.8298682950286889e-05 -5.4421729899777032e-05
21 -1.9411533177156283e-05 -1.8298682842383792e-05 -5.4421729630730596e-05
58 -1.9411533194011086e-05 -1.8298682755225827e-05 -5.4421729578502070e-05
16 -1.9411533226200964e-05 -1.8298682588612118e-05 -5.4421729478639542e-05
22 -1.9411533212716549e-05 -1.8298682657780168e-05 -5.4421729519985090e-05
86 -1.9411533180023740e-05 -1.8298682835950591e-05 -5.4421729619486383e-05
87 -1.9411533188711814e-05 -1.8298682749349749e-05 -5.4421729564086653e-05
51 -1.9411533226207940e-05 -1.8298682572368134e-05 -5.4421729466174984e-05
52 -1.9411533214953044e-05 -1.8298682622170032e-05 -5.4421729485358106e-05
57 -1.9411533168916095e-05 -1.8298682885528686e-05 -5.4421729656536410e-05
15 -1.9411533170775651e-05 -1.8298682876006681e-05 -5.4421729650923611e-05
20 -1.9411533224289119e-05 -1.8298682598095065e-05 -5.4421729484815910e-05
82 -1.7009522051689935e-03 2.6234847824593567e-04 3.8425940339198075e-03
81 -1.7009181802654773e-03 2.6170405074117577e-04 3.8419710384730026e-03
88 -1.7008707464636890e-03 2.6139637557043641e-04 3.8414695475530972e-03
75 -1.7009564997051809e-03 2.6545530180193013e-04 3.8456025766232323e-03
125 -1.7009721693930519e-03 2.6159109154612505e-04 3.8413003933030535e-03
119 -1.7009721694007465e-03 2.6159109153860979e-04 3.8413003933098059e-03
149 -1.7009721693919634e-03 2.6159109154714393e-04 3.8413003933019949e-03
155 -1.7009721693863800e-03 2.6159109155328360e-04 3.8413003932974339e-03
120 -1.7009721693867969e-03 2.6159109155310839e-04 3.8413003932978463e-03