LAMMPS data file via write_data, version 30 Jul 2016, timestep = 50400000

3234 atoms
8 atom types

0.0000000000000000e+00 1.0000000000000000e+02 xlo xhi
0.0000000000000000e+00 4.0000000000000000e+01 ylo yhi
0.0000000000000000e+00 4.0000000000000000e+01 zlo zhi

Masses

1 3.896
2 5.36
3 20.064
4 8.378
5 8.378
6 8.378
7 8.378
8 8.378

Atoms # meso-molecular

98 99 2 1.0280000000000029e+00 -1.7802890461716429e+03 1.0000000000000000e+00 1.5976323548350960e+01 1.0000000000000000e+01 2.0192335091944003e-01 
10 11 2 1.0279999999999949e+00 -4.0144936222508986e+03 1.0000000000000000e+00 1.6762037313463644e+01 1.0000000000000000e+01 1.1011551763909131e+00 
242 243 2 1.0280000000000007e+00 5.8541050559417818e+03 1.0000000000000000e+00 1.9003070822387187e+01 1.0000000000000000e+01 1.2255716420123151e+00 
460 461 2 1.0280000000000011e+00 -1.4219716436198930e+03 1.0000000000000000e+00 1.8341430490576599e+01 1.0000000000000000e+01 1.9499109730203463e+00 
118 119 2 1.0279999999999976e+00 -5.7030000773077631e+02 1.0000000000000000e+00 2.1333015231019875e+01 1.0000000000000000e+01 6.8676510785231148e-01 
240 241 2 1.0280000000000016e+00 -2.0473406118555561e+03 1.0000000000000000e+00 2.0320457094745542e+01 1.0000000000000000e+01 7.4641166996719832e-01 
295 296 2 1.0280000000000011e+00 -4.0299823210174882e+03 1.0000000000000000e+00 2.6255561464391608e+01 1.0000000000000000e+01 9.2243803343428399e-01 
127 128 2 1.0279999999999969e+00 -3.9535717064515907e+03 1.0000000000000000e+00 2.6808432537261876e+01 1.0000000000000000e+01 6.3674156319710928e-01 
94 95 2 1.0280000000000029e+00 7.3871383149338817e+03 1.0000000000000000e+00 2.8602966990324980e+01 1.0000000000000000e+01 6.0839178082470735e-01 
180 181 2 1.0280000000000002e+00 4.2282502325499408e+03 1.0000000000000000e+00 2.8588125741200699e+01 1.0000000000000000e+01 1.2911820727631051e+00 
687 688 2 1.0279999999999907e+00 2.3133026007686076e+03 1.0000000000000000e+00 3.6708218074249177e+00 1.3000000000000000e+01 1.7641594388463770e+00 
605 606 2 1.0280000000000038e+00 -4.8768583668431293e+03 1.0000000000000000e+00 4.0069061637218706e+00 1.3000000000000000e+01 1.2494410499235304e+00 
645 646 2 1.0279999999999976e+00 2.8289158657910493e+03 1.0000000000000000e+00 6.4745998218212550e+00 1.3000000000000000e+01 9.0257736978039049e-01 
484 485 2 1.0279999999999991e+00 1.6462736466578290e+03 1.0000000000000000e+00 6.4265274822967235e+00 1.3000000000000000e+01 1.0432542385484220e+00 
904 905 2 1.0279999999999991e+00 8.1165779428981295e+02 1.0000000000000000e+00 7.8052666530067176e+00 1.3000000000000000e+01 1.6341619755744978e+00 
512 513 2 1.0280000000000094e+00 9.1439096364659554e+02 1.0000000000000000e+00 9.7301029226811035e+00 1.3000000000000000e+01 3.5424712341131331e-01 
846 847 2 1.0280000000000076e+00 -1.7403410230665177e+03 1.0000000000000000e+00 8.4747804350971894e+00 1.3000000000000000e+01 1.1567351484737860e+00 
786 787 2 1.0279999999999874e+00 -6.9476873817183150e+03 1.0000000000000000e+00 1.3119911148327343e+01 1.3000000000000000e+01 8.5836551175606446e-01 
501 502 2 1.0279999999999874e+00 5.7308472554894242e+03 1.0000000000000000e+00 1.3119911144733550e+01 1.3000000000000000e+01 8.5836552231941532e-01 
803 804 2 1.0279999999999718e+00 3.6914402720285398e+03 1.0000000000000000e+00 1.7784066121800340e+01 1.3000000000000000e+01 8.2085169819052084e-01 
836 837 2 1.0280000000000069e+00 3.6256169762125992e+03 1.0000000000000000e+00 1.8830089790891659e+01 1.3000000000000000e+01 1.8122856444421520e+00 
923 924 2 1.0280000000000169e+00 -8.5032559912473857e+02 1.0000000000000000e+00 1.8939089875775583e+01 1.3000000000000000e+01 7.2814703335239384e-01 
674 675 2 1.0279999999999943e+00 -8.7411076945909626e+03 1.0000000000000000e+00 2.0971262185719556e+01 1.3000000000000000e+01 6.8482904322777149e-01 
758 759 2 1.0279999999999869e+00 -1.3538435722593539e+02 1.0000000000000000e+00 2.0969726512404510e+01 1.3000000000000000e+01 6.8396191293617170e-01 
772 773 2 1.0280000000000342e+00 -5.8372199834802705e+03 1.0000000000000000e+00 2.5351290429280393e+01 1.3000000000000000e+01 4.9981005740136142e-01 
627 628 2 1.0279999999999887e+00 -8.1506071233586204e+02 1.0000000000000000e+00 2.7249084890348392e+01 1.3000000000000000e+01 1.6893856679141548e+00 
770 771 2 1.0279999999999856e+00 -3.6014726996009867e+03 1.0000000000000000e+00 2.5556076954778291e+01 1.3000000000000000e+01 1.2162423938497848e+00 
692 693 2 1.0279999999999985e+00 5.3886515435006786e+03 1.0000000000000000e+00 2.9323688465227981e+01 1.3000000000000000e+01 1.1130000334821228e+00 
698 699 2 1.0279999999999985e+00 1.0497870506510575e+04 1.0000000000000000e+00 2.9305062828122942e+01 1.3000000000000000e+01 1.1076574101211520e+00 
533 534 2 1.0280000000000034e+00 -1.4046827078039678e+02 1.0000000000000000e+00 3.1054547904920501e+01 1.3000000000000000e+01 2.9883578367166497e-01 
1256 1257 2 1.0280000000000002e+00 3.8247550898880136e+03 1.0000000000000000e+00 1.0926460555680375e+01 1.6000000000000000e+01 1.9054654521425421e-01 
1343 1344 2 1.0280000000000000e+00 -8.6789505615078315e+02 1.0000000000000000e+00 1.0569815141768773e+01 1.6000000000000000e+01 2.8869488618428268e-01 
1004 1005 2 1.0280000000000002e+00 -7.9395172647870299e+02 1.0000000000000000e+00 1.0890843265236011e+01 1.6000000000000000e+01 1.5072090535813345e+00 
1051 1052 2 1.0279999999999998e+00 -3.9527663204087403e+03 1.0000000000000000e+00 1.5630049459704042e+01 1.6000000000000000e+01 5.3995879021121140e-01 
1218 1219 2 1.0280000000000007e+00 -1.5519736234408547e+03 1.0000000000000000e+00 1.4802651131770595e+01 1.6000000000000000e+01 4.9242033193458568e-01 
1197 1198 2 1.0280000000000005e+00 4.1433998137805293e+02 1.0000000000000000e+00 1.9210735985373731e+01 1.6000000000000000e+01 1.2415342602909092e-01 
1375 1376 2 1.0279999999999980e+00 -1.0020340901929502e+03 1.0000000000000000e+00 1.9840479384033802e+01 1.6000000000000000e+01 1.3638078231521986e+00 
1316 1317 2 1.0280000000000036e+00 2.7228618228110753e+02 1.0000000000000000e+00 2.2753506554392327e+01 1.6000000000000000e+01 4.3328876391020199e-01 
1104 1105 2 1.0280000000000007e+00 4.2285307972538321e+03 1.0000000000000000e+00 2.5037907986439908e+01 1.6000000000000000e+01 1.4736249137108877e+00 
1018 1019 2 1.0280000000000002e+00 7.3871907250481672e+03 1.0000000000000000e+00 2.4300990314619774e+01 1.6000000000000000e+01 6.1228363117061202e-01 
1361 1362 2 1.0280000000000014e+00 -4.8585535909019509e+03 1.0000000000000000e+00 2.6299359224807393e+01 1.6000000000000000e+01 1.3781073945747186e+00 
1364 1365 2 1.0280000000000018e+00 -3.0357489928875812e+03 1.0000000000000000e+00 2.8376870630464246e+01 1.6000000000000000e+01 5.7210921081178800e-01 
1237 1238 2 1.0280000000000018e+00 -1.1271245132720383e+03 1.0000000000000000e+00 2.8370375422397171e+01 1.6000000000000000e+01 5.7129553090617247e-01 
1066 1067 2 1.0279999999999974e+00 -5.8655527281339891e+03 1.0000000000000000e+00 3.1005277588542835e+01 1.6000000000000000e+01 1.4171818338935442e+00 
982 983 2 1.0280000000000016e+00 -2.3297635228967647e+03 1.0000000000000000e+00 3.2388782243232818e+01 1.6000000000000000e+01 8.5028963810675751e-01 
1509 1510 2 1.0280000000000011e+00 1.6784788362660847e+03 1.0000000000000000e+00 4.6389756625587300e+00 1.9000000000000000e+01 3.4797028325113888e-02 
1420 1421 2 1.0279999999999991e+00 -4.0434761306647843e+03 1.0000000000000000e+00 5.2334261184072792e+00 1.9000000000000000e+01 1.5512931796302381e+00 
1428 1429 2 1.0279999999999996e+00 -2.7098397735583085e+03 1.0000000000000000e+00 7.8694142104338232e+00 1.9000000000000000e+01 1.5999493705615142e+00 
1593 1594 2 1.0280000000000005e+00 -4.9805978540003838e+02 1.0000000000000000e+00 7.8806724633624574e+00 1.9000000000000000e+01 1.5520761826230860e+00 
1602 1603 2 1.0280000000000011e+00 9.0663499477428413e+03 1.0000000000000000e+00 1.1601315857469864e+01 1.9000000000000000e+01 1.4807173302121150e+00 
1608 1609 2 1.0280000000000051e+00 -3.5453620074989849e+03 1.0000000000000000e+00 1.2447397204759902e+01 1.9000000000000000e+01 6.4166262363029247e-01 
1529 1530 2 1.0280000000000025e+00 -4.8477962067896005e+03 1.0000000000000000e+00 1.5219659869640132e+01 1.9000000000000000e+01 8.8738916759318087e-01 
1833 1834 2 1.0280000000000000e+00 -1.9983042057958544e+03 1.0000000000000000e+00 1.8298529777495268e+01 1.9000000000000000e+01 2.3924957998285395e-01 
1828 1829 2 1.0280000000000000e+00 8.4131313587998761e+02 1.0000000000000000e+00 1.8298642906850443e+01 1.9000000000000000e+01 2.3912825951160185e-01 
1422 1423 2 1.0280000000000102e+00 1.0618921795275219e+03 1.0000000000000000e+00 2.1593018138096845e+01 1.9000000000000000e+01 1.2221797173967546e+00 
1796 1797 2 1.0279999999999918e+00 -1.9303930232222183e+03 1.0000000000000000e+00 2.1983973105099402e+01 1.9000000000000000e+01 4.1394484669205056e-01 
1688 1689 2 1.0279999999999987e+00 -2.1685113525213214e+03 1.0000000000000000e+00 2.9362327556850719e+01 1.9000000000000000e+01 1.0790302454426652e+00 
1657 1658 2 1.0279999999999974e+00 1.5217407705990327e+03 1.0000000000000000e+00 2.8708757208434900e+01 1.9000000000000000e+01 7.9823596750681047e-01 
1398 1399 2 1.0280000000000005e+00 -8.3942719214917088e+02 1.0000000000000000e+00 3.1432277200952242e+01 1.9000000000000000e+01 1.2197135723871484e+00 
1673 1674 2 1.0280000000000018e+00 3.4381702522865744e+03 1.0000000000000000e+00 3.1755649931569181e+01 1.9000000000000000e+01 4.3985268593863586e-01 
269 270 2 1.0280000000000000e+00 1.8587288718489426e+03 1.0000000000000000e+00 1.5410630701059455e+01 1.0000000000000000e+01 2.1509486633219455e+00 
267 268 2 1.0280000000000002e+00 3.1306315407504371e+03 1.0000000000000000e+00 1.4713669852290710e+01 1.0000000000000000e+01 2.4214950954663474e+00 
309 310 2 1.0279999999999991e+00 -3.8159500862709065e+03 1.0000000000000000e+00 1.4677210077396991e+01 1.0000000000000000e+01 3.4815112702602500e+00 
300 301 2 1.0280000000000002e+00 1.3612394793896004e+02 1.0000000000000000e+00 1.7125995009445397e+01 1.0000000000000000e+01 3.8487439250497535e+00 
381 382 2 1.0280000000000007e+00 -7.0200888124866560e+02 1.0000000000000000e+00 1.7101579318314467e+01 1.0000000000000000e+01 3.8824016947037610e+00 
293 294 2 1.0280000000000005e+00 -1.6991997056798655e+03 1.0000000000000000e+00 1.9122015657555128e+01 1.0000000000000000e+01 3.2055882049348705e+00 
294 295 2 1.0279999999999958e+00 -1.5441912901847909e+03 1.0000000000000000e+00 1.9844807451291377e+01 1.0000000000000000e+01 2.9543049185937273e+00 
313 314 2 1.0280000000000014e+00 -1.1255682701579117e+03 1.0000000000000000e+00 2.1094797841805217e+01 1.0000000000000000e+01 3.8398827440634884e+00 
226 227 2 1.0280000000000011e+00 6.5159522825574604e+03 1.0000000000000000e+00 2.2552994702950979e+01 1.0000000000000000e+01 3.8823227042987924e+00 
318 319 2 1.0280000000000005e+00 -1.3802212805554614e+03 1.0000000000000000e+00 2.5162243540541148e+01 1.0000000000000000e+01 2.5212686656943322e+00 
60 61 2 1.0280000000000007e+00 2.6166583102811969e+03 1.0000000000000000e+00 2.5176476845142329e+01 1.0000000000000000e+01 2.5659557204568708e+00 
231 232 2 1.0280000000000007e+00 7.6832811849196860e+03 1.0000000000000000e+00 2.4075125801773478e+01 1.0000000000000000e+01 3.6546498620064973e+00 
350 351 2 1.0280000000000062e+00 -1.8140937852952989e+03 1.0000000000000000e+00 2.8871649296117546e+01 1.0000000000000000e+01 3.0633909420163272e+00 
49 50 2 1.0279999999999980e+00 -2.3543092119926760e+03 1.0000000000000000e+00 2.8842993534021449e+01 1.0000000000000000e+01 2.9020586879432662e+00 
61 62 2 1.0279999999999998e+00 -9.7741499677917409e+02 1.0000000000000000e+00 3.2137759789668593e+01 1.0000000000000000e+01 2.1107397307346178e+00 
147 148 2 1.0279999999999994e+00 -3.8476738539498315e+03 1.0000000000000000e+00 3.1959670533348923e+01 1.0000000000000000e+01 2.1843335304969926e+00 
91 92 2 1.0280000000000011e+00 -6.7394466422684673e+03 1.0000000000000000e+00 3.2551830100344048e+01 1.0000000000000000e+01 3.3776495405180853e+00 
801 802 2 1.0280000000000022e+00 -7.0445536972271002e+03 1.0000000000000000e+00 3.8757076039285381e+00 1.3000000000000000e+01 3.4148610599697520e+00 
549 550 2 1.0279999999999596e+00 -7.0747765103431084e+03 1.0000000000000000e+00 3.9576137986640632e+00 1.3000000000000000e+01 3.5305211664097689e+00 
881 882 2 1.0280000000000209e+00 -8.6711330251214622e+02 1.0000000000000000e+00 1.3640126984075698e+01 1.3000000000000000e+01 2.5991294169859938e+00 
542 543 2 1.0279999999999903e+00 -7.9561911157141424e+02 1.0000000000000000e+00 1.3818070478219012e+01 1.3000000000000000e+01 3.0022278477496771e+00 
707 708 2 1.0280000000000196e+00 -2.3727267672029748e+03 1.0000000000000000e+00 1.5414812650830246e+01 1.3000000000000000e+01 3.6422887202104897e+00 
706 707 2 1.0279999999999674e+00 1.3885938657471806e+03 1.0000000000000000e+00 1.5451805419272130e+01 1.3000000000000000e+01 3.5069156496341072e+00 
882 883 2 1.0280000000000249e+00 -7.6760698829346779e+02 1.0000000000000000e+00 1.7520550741726858e+01 1.3000000000000000e+01 2.7391347223489593e+00 
920 921 2 1.0279999999999825e+00 3.8275621865515895e+03 1.0000000000000000e+00 1.8321194210396314e+01 1.3000000000000000e+01 3.5749750266155447e+00 
721 722 2 1.0280000000000105e+00 -2.2094911085676875e+02 1.0000000000000000e+00 2.1046067588919946e+01 1.3000000000000000e+01 2.2064339330797411e+00 
717 718 2 1.0279999999999856e+00 -9.6245713808040909e+02 1.0000000000000000e+00 2.1095600261329189e+01 1.3000000000000000e+01 3.5988584910734485e+00 
759 760 2 1.0279999999999823e+00 2.2649470712561401e+03 1.0000000000000000e+00 2.1098763754558085e+01 1.3000000000000000e+01 3.5994014200572200e+00 
866 867 2 1.0280000000000225e+00 1.6754779399418389e+03 1.0000000000000000e+00 2.5785966093008195e+01 1.3000000000000000e+01 2.8105658682029242e+00 
824 825 2 1.0279999999999965e+00 2.6467812220539849e+03 1.0000000000000000e+00 2.6297553267185013e+01 1.3000000000000000e+01 3.3467520478964494e+00 
502 503 2 1.0280000000000056e+00 -1.3957450512415685e+03 1.0000000000000000e+00 2.7576476584541613e+01 1.3000000000000000e+01 2.3268590371149620e+00 
1310 1311 2 1.0280000000000000e+00 8.3899034757557229e+02 1.0000000000000000e+00 4.9338127762785300e+00 1.6000000000000000e+01 3.6822323859934420e+00 
1335 1336 2 1.0279999999999998e+00 -3.3656638666853760e+03 1.0000000000000000e+00 6.4033639791583878e+00 1.6000000000000000e+01 3.2513528115090100e+00 
1254 1255 2 1.0279999999999998e+00 -1.4526147828160993e+03 1.0000000000000000e+00 6.4037608400362078e+00 1.6000000000000000e+01 3.2516657846048478e+00 
1003 1004 2 1.0280000000000007e+00 -1.4768767647702448e+03 1.0000000000000000e+00 9.3197674821872383e+00 1.6000000000000000e+01 2.8849272928069474e+00 
1002 1003 2 1.0279999999999998e+00 -2.1094499212734727e+03 1.0000000000000000e+00 8.4677263232232125e+00 1.6000000000000000e+01 2.9054766898728506e+00 
1007 1008 2 1.0280000000000000e+00 -8.5726969546431314e+02 1.0000000000000000e+00 1.2000868418729773e+01 1.6000000000000000e+01 2.7106008580961793e+00 
1088 1089 2 1.0280000000000011e+00 3.8325611003964405e+03 1.0000000000000000e+00 1.2018114153903918e+01 1.6000000000000000e+01 2.8032284548462085e+00 
1377 1378 2 1.0279999999999985e+00 -4.0256855005567140e+03 1.0000000000000000e+00 1.4678647185966797e+01 1.6000000000000000e+01 2.7041862612611007e+00 
1206 1207 2 1.0280000000000014e+00 3.0224898382438832e+03 1.0000000000000000e+00 1.4669546616106588e+01 1.6000000000000000e+01 2.7543448973780560e+00 
1165 1166 2 1.0280000000000014e+00 -3.5323014518317805e+03 1.0000000000000000e+00 1.6332002965726254e+01 1.6000000000000000e+01 2.8714306505829428e+00 
1365 1366 2 1.0279999999999985e+00 5.4946133333549164e+02 1.0000000000000000e+00 1.6765458746589633e+01 1.6000000000000000e+01 3.3198608002859853e+00 
1192 1193 2 1.0280000000000027e+00 4.9693165740870318e+03 1.0000000000000000e+00 1.9419416827076653e+01 1.6000000000000000e+01 2.2250032100884938e+00 
1275 1276 2 1.0279999999999994e+00 -1.5879328116635079e+03 1.0000000000000000e+00 2.0031381855018584e+01 1.6000000000000000e+01 2.9181652955428796e+00 
1073 1074 2 1.0279999999999978e+00 -3.0493159667076143e+03 1.0000000000000000e+00 2.2173713390204160e+01 1.6000000000000000e+01 2.2044664184503926e+00 
992 993 2 1.0279999999999980e+00 1.7769004184997043e+03 1.0000000000000000e+00 2.2173540382925225e+01 1.6000000000000000e+01 2.2048525807396557e+00 
983 984 2 1.0279999999999956e+00 1.8951847530620412e+03 1.0000000000000000e+00 2.3971118504950130e+01 1.6000000000000000e+01 3.0588629053002356e+00 
1070 1071 2 1.0280000000000000e+00 -2.9163451982257993e+03 1.0000000000000000e+00 2.3996985619492513e+01 1.6000000000000000e+01 3.8702118784129960e+00 
1280 1281 2 1.0279999999999956e+00 1.5902848486007542e+03 1.0000000000000000e+00 2.7003497211720823e+01 1.6000000000000000e+01 2.0047291660451654e+00 
973 974 2 1.0280000000000036e+00 -2.3563518445921809e+03 1.0000000000000000e+00 2.5680112193779390e+01 1.6000000000000000e+01 3.1366167803229650e+00 
1324 1325 2 1.0279999999999994e+00 3.6983967040423213e+03 1.0000000000000000e+00 2.8726685051604903e+01 1.6000000000000000e+01 2.2154138611979484e+00 
1261 1262 2 1.0279999999999996e+00 -1.6535801706247719e+02 1.0000000000000000e+00 2.8808908955544908e+01 1.6000000000000000e+01 3.1656477689437423e+00 
1064 1065 2 1.0280000000000054e+00 -3.5460104361497888e+03 1.0000000000000000e+00 3.0978998852213739e+01 1.6000000000000000e+01 2.4489357246545449e+00 
927 928 2 1.0279999999999978e+00 -1.4287573619671298e+03 1.0000000000000000e+00 3.0170486974019511e+01 1.6000000000000000e+01 3.8753250241780353e+00 
1030 1031 2 1.0279999999999985e+00 1.2612906111211892e+03 1.0000000000000000e+00 3.2925544247058113e+01 1.6000000000000000e+01 2.7479361027462339e+00 
1356 1357 2 1.0279999999999985e+00 -1.0560018937820464e+03 1.0000000000000000e+00 3.2365456907913554e+01 1.6000000000000000e+01 2.9841850940802463e+00 
1578 1579 2 1.0279999999999994e+00 1.4814786110864261e+03 1.0000000000000000e+00 3.3240137071473748e+00 1.9000000000000000e+01 2.0719435580867240e+00 
1537 1538 2 1.0279999999999994e+00 -5.5989097517787523e+03 1.0000000000000000e+00 3.3238465963708341e+00 1.9000000000000000e+01 2.0731148583003258e+00 
1579 1580 2 1.0280000000000009e+00 7.2974064633194703e+03 1.0000000000000000e+00 5.8719320414324399e+00 1.9000000000000000e+01 2.6192823398274325e+00 
1506 1507 2 1.0280000000000014e+00 -6.6916050650491761e+03 1.0000000000000000e+00 4.6431551014540293e+00 1.9000000000000000e+01 2.9072268236423282e+00 
1762 1763 2 1.0280000000000005e+00 -7.0394335125333437e+03 1.0000000000000000e+00 7.3141221008044885e+00 1.9000000000000000e+01 3.4382418194665205e+00 
1510 1511 2 1.0279999999999967e+00 -7.0670268615614550e+03 1.0000000000000000e+00 7.2129702755863363e+00 1.9000000000000000e+01 3.9763379007108433e+00 
1514 1515 2 1.0280000000000014e+00 -1.4983032551769486e+02 1.0000000000000000e+00 9.9925518947360885e+00 1.9000000000000000e+01 2.3271916996626305e+00 
1515 1516 2 1.0280000000000016e+00 2.2540807866308887e+03 1.0000000000000000e+00 1.0011951387872587e+01 1.9000000000000000e+01 2.2950580605927602e+00 
1604 1605 2 1.0279999999999978e+00 -2.3792933141300905e+03 1.0000000000000000e+00 1.2875825804817975e+01 1.9000000000000000e+01 2.3147284347640134e+00 
1599 1600 2 1.0280000000000025e+00 3.1192798869526514e+03 1.0000000000000000e+00 1.3384057981978852e+01 1.9000000000000000e+01 2.9595748382244547e+00 
1389 1390 2 1.0279999999999963e+00 -1.4153183071367901e+03 1.0000000000000000e+00 1.4718429454856521e+01 1.9000000000000000e+01 2.1493419751614149e+00 
1723 1724 2 1.0280000000000018e+00 -1.7228016540284381e+02 1.0000000000000000e+00 1.5975275339894402e+01 1.9000000000000000e+01 2.2381962716735879e+00 
1556 1557 2 1.0279999999999998e+00 -1.6994321485720561e+03 1.0000000000000000e+00 1.7440847112888537e+01 1.9000000000000000e+01 2.6116313890413312e+00 
1555 1556 2 1.0280000000000005e+00 -1.5564476736637721e+03 1.0000000000000000e+00 1.7441782214500140e+01 1.9000000000000000e+01 2.6256928942511171e+00 
1401 1402 2 1.0280000000000029e+00 -5.0758020219212740e+03 1.0000000000000000e+00 2.1401991446473414e+01 1.9000000000000000e+01 3.4242835828560882e+00 
1413 1414 2 1.0280000000000020e+00 -1.2216884440721046e+03 1.0000000000000000e+00 2.1519001948561904e+01 1.9000000000000000e+01 3.4881138975783088e+00 
1545 1546 2 1.0279999999999925e+00 -2.4683829330287490e+03 1.0000000000000000e+00 2.2173069522658178e+01 1.9000000000000000e+01 2.2300397156587648e+00 
1646 1647 2 1.0280000000000002e+00 3.3478976231340293e+03 1.0000000000000000e+00 3.0364061325255165e+01 1.9000000000000000e+01 2.2220168847591921e+00 
1776 1777 2 1.0279999999999989e+00 2.5947769401262904e+03 1.0000000000000000e+00 3.0540708475497009e+01 1.9000000000000000e+01 3.2752714491337263e+00 
2 3 2 1.0279999999999996e+00 -8.4783266623403472e+02 1.0000000000000000e+00 8.6532041403238456e+00 1.0000000000000000e+01 5.1320726100846903e+00 
38 39 2 1.0279999999999994e+00 3.8315473669322491e+03 1.0000000000000000e+00 8.6490808799562622e+00 1.0000000000000000e+01 5.1344870736801536e+00 
257 258 2 1.0280000000000011e+00 2.6595183611574184e+03 1.0000000000000000e+00 1.3166464194986839e+01 1.0000000000000000e+01 4.1824878019775893e+00 
305 306 2 1.0279999999999998e+00 -4.3319783860511634e+03 1.0000000000000000e+00 1.2923686828820024e+01 1.0000000000000000e+01 4.4574017992676982e+00 
3 4 2 1.0279999999999989e+00 -1.4287073185293489e+03 1.0000000000000000e+00 1.1913783323690607e+01 1.0000000000000000e+01 5.7376237699358352e+00 
4 5 2 1.0279999999999994e+00 5.9805335219559902e+03 1.0000000000000000e+00 1.4822559356406334e+01 1.0000000000000000e+01 5.2772057700718928e+00 
261 262 2 1.0280000000000005e+00 3.2658887361758548e+02 1.0000000000000000e+00 1.7689643642116234e+01 1.0000000000000000e+01 5.3559114404099244e+00 
385 386 2 1.0280000000000005e+00 -2.2906630201890521e+03 1.0000000000000000e+00 1.8405308004432371e+01 1.0000000000000000e+01 5.8989846940136781e+00 
440 441 2 1.0279999999999967e+00 -3.0334925305603933e+03 1.0000000000000000e+00 2.1163953176523915e+01 1.0000000000000000e+01 4.9261642890335953e+00 
400 401 2 1.0280000000000000e+00 3.6827371336664164e+03 1.0000000000000000e+00 2.2190135693313476e+01 1.0000000000000000e+01 5.4156007879675991e+00 
228 229 2 1.0280000000000002e+00 9.0639019407228097e+03 1.0000000000000000e+00 2.3735473666716167e+01 1.0000000000000000e+01 4.8548070667588394e+00 
19 20 2 1.0279999999999989e+00 -1.8280778245898673e+03 1.0000000000000000e+00 2.5066382837628314e+01 1.0000000000000000e+01 5.4990284926932045e+00 
407 408 2 1.0280000000000022e+00 6.2944455466844346e+01 1.0000000000000000e+00 2.6720857224007617e+01 1.0000000000000000e+01 5.3817519857022553e+00 
443 444 2 1.0279999999999989e+00 -3.3854920542169461e+03 1.0000000000000000e+00 2.7774066988784281e+01 1.0000000000000000e+01 4.6352369475299309e+00 
450 451 2 1.0279999999999969e+00 2.4596931472830870e+03 1.0000000000000000e+00 2.8476704982749236e+01 1.0000000000000000e+01 5.0716236837277107e+00 
404 405 2 1.0280000000000045e+00 1.6831054638538881e+03 1.0000000000000000e+00 3.0475322268308361e+01 1.0000000000000000e+01 4.9838603379445718e+00 
14 15 2 1.0280000000000025e+00 -3.5066666937320324e+03 1.0000000000000000e+00 3.0285664236503138e+01 1.0000000000000000e+01 4.9412726362953396e+00 
187 188 2 1.0279999999999971e+00 1.5165173571869295e+03 1.0000000000000000e+00 3.3097030325567147e+01 1.0000000000000000e+01 4.4930203481739825e+00 
634 635 2 1.0280000000000189e+00 -4.9297880476794512e+02 1.0000000000000000e+00 4.3928225608060298e+00 1.3000000000000000e+01 5.3228011229814136e+00 
463 464 2 1.0280000000000109e+00 -2.7051895385820681e+03 1.0000000000000000e+00 4.5948243596850160e+00 1.3000000000000000e+01 5.8990544637312219e+00 
681 682 2 1.0280000000000047e+00 1.3657923691749902e+03 1.0000000000000000e+00 6.1488919978568477e+00 1.3000000000000000e+01 4.2440231281992959e+00 
678 679 2 1.0279999999999885e+00 9.0610616233298970e+03 1.0000000000000000e+00 6.2264912304959905e+00 1.3000000000000000e+01 4.2475505543779395e+00 
909 910 2 1.0279999999999974e+00 -2.0465231350465847e+03 1.0000000000000000e+00 7.4348400950037803e+00 1.3000000000000000e+01 5.3428152840380934e+00 
560 561 2 1.0279999999999891e+00 -1.7776767464526729e+03 1.0000000000000000e+00 7.5640400573753244e+00 1.3000000000000000e+01 5.9995830230938409e+00 
794 795 2 1.0280000000000196e+00 3.8231634945080878e+03 1.0000000000000000e+00 1.3872039823439168e+01 1.3000000000000000e+01 5.5729688876645254e+00 
709 710 2 1.0279999999999958e+00 9.0789366089100913e+03 1.0000000000000000e+00 1.5197565838394386e+01 1.3000000000000000e+01 5.8315110346733610e+00 
497 498 2 1.0279999999999943e+00 1.4829340485865214e+02 1.0000000000000000e+00 1.3820742908687000e+01 1.3000000000000000e+01 5.9163727424625332e+00 
754 755 2 1.0279999999999994e+00 -1.0265450138425513e+03 1.0000000000000000e+00 1.7580426259849858e+01 1.3000000000000000e+01 4.0668488841051529e+00 
884 885 2 1.0280000000000034e+00 -8.4077399612301065e+02 1.0000000000000000e+00 1.8406433420218960e+01 1.3000000000000000e+01 5.9037992408187332e+00 
642 643 2 1.0279999999999889e+00 4.2277478936214575e+03 1.0000000000000000e+00 2.3285887284435393e+01 1.3000000000000000e+01 4.3909706722526183e+00 
556 557 2 1.0280000000000082e+00 7.3862128488311791e+03 1.0000000000000000e+00 2.3909125608859078e+01 1.3000000000000000e+01 4.0494460163098109e+00 
511 512 2 1.0279999999999878e+00 -2.3551200447955034e+03 1.0000000000000000e+00 2.4606151928708417e+01 1.3000000000000000e+01 4.9395656542114343e+00 
840 841 2 1.0279999999999994e+00 -2.2630963297538435e+02 1.0000000000000000e+00 2.7940349768183026e+01 1.3000000000000000e+01 4.5310287871205492e+00 
737 738 2 1.0279999999999927e+00 2.7325383511397599e+03 1.0000000000000000e+00 2.7842681604638983e+01 1.3000000000000000e+01 4.5945957388160101e+00 
907 908 2 1.0280000000000071e+00 -3.0670985157139000e+02 1.0000000000000000e+00 2.8845471422530835e+01 1.3000000000000000e+01 5.8645756849592363e+00 
694 695 2 1.0280000000000147e+00 7.6951027133549342e+03 1.0000000000000000e+00 3.0886306538294917e+01 1.3000000000000000e+01 5.1591247694268745e+00 
697 698 2 1.0280000000000014e+00 9.0642079831859846e+03 1.0000000000000000e+00 3.1697974921985406e+01 1.3000000000000000e+01 4.9432687856790469e+00 
699 700 2 1.0279999999999982e+00 6.5044671189804940e+03 1.0000000000000000e+00 3.1853435223553355e+01 1.3000000000000000e+01 5.8415739915899687e+00 
1271 1272 2 1.0280000000000002e+00 8.7342497453917599e+02 1.0000000000000000e+00 4.0111169590223232e+00 1.6000000000000000e+01 4.6708644384009386e+00 
1231 1232 2 1.0280000000000005e+00 -6.9467475334257415e+03 1.0000000000000000e+00 4.0144685244720382e+00 1.6000000000000000e+01 4.6740209405306636e+00 
1075 1076 2 1.0279999999999998e+00 -5.5948296388899162e+03 1.0000000000000000e+00 7.7781235270900444e+00 1.6000000000000000e+01 5.8506427317476488e+00 
1116 1117 2 1.0280000000000000e+00 1.4856182842264766e+03 1.0000000000000000e+00 7.7783188353136881e+00 1.6000000000000000e+01 5.8517272614937017e+00 
1126 1127 2 1.0280000000000002e+00 1.2011108797948778e+02 1.0000000000000000e+00 8.5217285494435853e+00 1.6000000000000000e+01 4.0424863369262738e+00 
977 978 2 1.0280000000000005e+00 -1.9414737530673788e+03 1.0000000000000000e+00 9.4215604697012569e+00 1.6000000000000000e+01 5.9857865496346090e+00 
1006 1007 2 1.0279999999999991e+00 -6.6572556767840751e+02 1.0000000000000000e+00 1.0769047834840036e+01 1.6000000000000000e+01 4.2007732007547807e+00 
1087 1088 2 1.0280000000000011e+00 1.7187053977040540e+02 1.0000000000000000e+00 1.0431803256429591e+01 1.6000000000000000e+01 4.3975992780302491e+00 
1040 1041 2 1.0280000000000009e+00 8.6465258305788120e+02 1.0000000000000000e+00 1.3195749301436871e+01 1.6000000000000000e+01 4.8358783619891419e+00 
1001 1002 2 1.0279999999999987e+00 8.8694152051144715e+02 1.0000000000000000e+00 1.2566984193490985e+01 1.6000000000000000e+01 5.7585263765547934e+00 
1080 1081 2 1.0280000000000014e+00 -6.9343620362192505e+03 1.0000000000000000e+00 1.3943718588928741e+01 1.6000000000000000e+01 4.7804351351361261e+00 
1289 1290 2 1.0279999999999996e+00 -1.7603352141388900e+03 1.0000000000000000e+00 1.5784697602227777e+01 1.6000000000000000e+01 5.5384117707214893e+00 
1205 1206 2 1.0279999999999998e+00 7.3193495728214039e+03 1.0000000000000000e+00 1.5851061360147584e+01 1.6000000000000000e+01 4.9368551400365588e+00 
1384 1385 2 1.0280000000000058e+00 -1.4167427848303751e+03 1.0000000000000000e+00 1.7883769075995769e+01 1.6000000000000000e+01 4.5909630131488326e+00 
1217 1218 2 1.0279999999999945e+00 -1.6936888446500147e+03 1.0000000000000000e+00 1.8291927496370811e+01 1.6000000000000000e+01 4.6433624215925322e+00 
1234 1235 2 1.0279999999999960e+00 -5.8338489932204047e+03 1.0000000000000000e+00 2.0360357366531389e+01 1.6000000000000000e+01 4.4557513796493211e+00 
1241 1242 2 1.0280000000000060e+00 -2.8403760357585643e+03 1.0000000000000000e+00 2.0937802370820709e+01 1.6000000000000000e+01 4.7182872177758508e+00 
1368 1369 2 1.0280000000000060e+00 -1.6128870579161239e+03 1.0000000000000000e+00 2.2401614931213686e+01 1.6000000000000000e+01 4.1707240782476420e+00 
1158 1159 2 1.0279999999999956e+00 4.5567026087684308e+03 1.0000000000000000e+00 2.3440599139807674e+01 1.6000000000000000e+01 5.5495584242590370e+00 
1153 1154 2 1.0279999999999956e+00 4.5637461237188272e+03 1.0000000000000000e+00 2.2805875102540380e+01 1.6000000000000000e+01 5.7057692192421499e+00 
1272 1273 2 1.0279999999999934e+00 2.0684821311562232e+03 1.0000000000000000e+00 2.6504626770243394e+01 1.6000000000000000e+01 4.4882631914583797e+00 
1182 1183 2 1.0280000000000062e+00 -2.0499566365743021e+03 1.0000000000000000e+00 2.6497056762344531e+01 1.6000000000000000e+01 4.5123420992002279e+00 
1274 1275 2 1.0280000000000020e+00 -1.8132629429223186e+03 1.0000000000000000e+00 2.9006999644109737e+01 1.6000000000000000e+01 4.6541314435124264e+00 
1190 1191 2 1.0280000000000002e+00 7.3186702376496087e+03 1.0000000000000000e+00 2.9815467403639243e+01 1.6000000000000000e+01 5.1497149253502519e+00 