LAMMPS data file via write_data, version 30 Jul 2016, timestep = 50000000

180 atoms
2 atom types

0.0000000000000000e+00 2.0000000000000000e+01 xlo xhi
0.0000000000000000e+00 2.0000000000000000e+01 ylo yhi
0.0000000000000000e+00 2.0000000000000000e+01 zlo zhi

Masses

1 3.896
2 4.31

Atoms # meso-molecular

174 1 2 1.0280000011682253e+00 -2.3393294345868659e+02 1.0000000000000000e+00 4.8454063948981725e+00 6.8835050994397022e+00 1.3467052540889227e+01 
57 1 2 1.0280000011682384e+00 -2.8354525146433394e+02 1.0000000000000000e+00 4.8454064273586166e+00 6.8835051733709305e+00 1.3467052546169022e+01 
80 1 2 1.0280000011682007e+00 -2.7694371539875999e+02 1.0000000000000000e+00 4.8454063623538257e+00 6.8835050688961061e+00 1.3467052568591747e+01 
82 1 2 1.0280000011682253e+00 -1.8699084878357036e+02 1.0000000000000000e+00 4.8454063949002437e+00 6.8835050994399873e+00 1.3467052540886213e+01 
172 1 2 1.0280000011681840e+00 -5.4164591085694752e+01 1.0000000000000000e+00 4.8454063213530709e+00 6.8835049673368358e+00 1.3467052555731929e+01 
77 1 2 1.0280000011682253e+00 -1.6373697577177546e+02 1.0000000000000000e+00 4.8454063948996176e+00 6.8835050994394313e+00 1.3467052540886765e+01 
178 1 2 1.0280000011682007e+00 -1.3093989568990133e+02 1.0000000000000000e+00 4.8454063623557868e+00 6.8835050688952784e+00 1.3467052568588057e+01 
132 1 2 1.0279999330203486e+00 -1.7980900683116573e+02 1.0000000000000000e+00 5.4329664641055810e+00 1.3458090453537176e+01 8.2450435442326719e-01 
126 1 2 1.0279999340548922e+00 -1.7753934577081310e+02 1.0000000000000000e+00 5.5506887485616430e+00 1.3393242581084559e+01 7.7756073991551344e-01 
95 1 2 1.0279999340549186e+00 -2.5055580588074679e+02 1.0000000000000000e+00 5.5506886425263859e+00 1.3393242394691855e+01 7.7756023473141966e-01 
11 1 2 1.0279999340548882e+00 -1.8882621259431522e+02 1.0000000000000000e+00 5.5506887868409791e+00 1.3393242648480241e+01 7.7756092254465259e-01 
138 1 2 1.0279999340551518e+00 -1.8026761195815823e+02 1.0000000000000000e+00 5.5506808252123339e+00 1.3393229526732627e+01 7.7752507362667322e-01 
109 1 2 1.0279999969791997e+00 -1.6995358749304521e+02 1.0000000000000000e+00 5.2100669164336075e+00 1.4723014935068017e+01 6.9854212537788074e-01 
128 1 2 1.0280014525097778e+00 -2.2685250161591554e+02 1.0000000000000000e+00 8.4892576844966661e-01 1.2326271339643542e+01 8.9739967901029996e+00 
92 1 2 1.0280015048292181e+00 -2.0285223465868660e+02 1.0000000000000000e+00 8.4879515277147122e-01 1.2328293077400096e+01 8.9667021429133928e+00 
122 1 2 1.0280013701342863e+00 -2.5747504584395341e+02 1.0000000000000000e+00 8.3150280240788366e-01 1.2339138539461150e+01 8.9705375119659099e+00 
19 1 2 1.0280014297844231e+00 -2.1900429220227716e+02 1.0000000000000000e+00 8.3490525748346667e-01 1.2337987407162691e+01 8.9651494996508880e+00 
165 1 2 1.0280001474737179e+00 -1.5465560623676328e+02 1.0000000000000000e+00 3.7976016880546823e+00 1.1008141207055445e+01 7.5254395064894331e+00 
103 1 2 1.0280001465563982e+00 -2.2353368055883408e+02 1.0000000000000000e+00 3.7977696278757369e+00 1.1007783871546458e+01 7.5255303867286933e+00 
173 1 2 1.0280002312909595e+00 -2.1459000120881839e+02 1.0000000000000000e+00 6.0039479942831786e+00 1.1803457829207339e+01 7.0872056324970512e+00 
168 1 2 1.0280002316926726e+00 -1.8278183240133816e+02 1.0000000000000000e+00 6.0039141889533196e+00 1.1803545074213163e+01 7.0871123929448112e+00 
90 1 2 1.0280002332710201e+00 -1.8999026094605645e+02 1.0000000000000000e+00 6.0039508728955635e+00 1.1804137627617411e+01 7.0881743155586205e+00 
12 1 2 1.0280002328614792e+00 -7.2937183432666401e+01 1.0000000000000000e+00 6.0039633799233840e+00 1.1804016059977668e+01 7.0880830998529376e+00 
112 1 2 1.0280002328096904e+00 -1.2391401853622844e+02 1.0000000000000000e+00 6.0039618336082441e+00 1.1803995976204435e+01 7.0880448898198223e+00 
74 1 2 1.0280002313182455e+00 -1.8923336638610766e+02 1.0000000000000000e+00 6.0039551271092186e+00 1.1803477442488612e+01 7.0872779686750729e+00 
21 1 2 1.0280001474737182e+00 -1.8501691622042739e+02 1.0000000000000000e+00 3.7976016880546903e+00 1.1008141207055425e+01 7.5254395064894126e+00 
159 1 2 1.0280001474737182e+00 -2.0472852831158309e+02 1.0000000000000000e+00 3.7976016880546735e+00 1.1008141207055463e+01 7.5254395064894277e+00 
166 1 2 1.0280001474737177e+00 -2.3211731802146841e+02 1.0000000000000000e+00 3.7976016880546934e+00 1.1008141207055418e+01 7.5254395064894419e+00 
160 1 2 1.0280001474737179e+00 -1.9778717799333589e+02 1.0000000000000000e+00 3.7976016880546632e+00 1.1008141207055488e+01 7.5254395064894277e+00 
63 1 2 1.0280011046725797e+00 -1.8931009469622637e+02 1.0000000000000000e+00 1.3651968672123975e+00 1.0462168305960972e+01 1.3156931885805987e+01 
33 1 2 1.0280011046725797e+00 -1.9023328611277924e+02 1.0000000000000000e+00 1.3651968672123678e+00 1.0462168305960974e+01 1.3156931885805978e+01 
69 1 2 1.0280011046725797e+00 -2.1937426058504332e+02 1.0000000000000000e+00 1.3651968672123678e+00 1.0462168305960974e+01 1.3156931885805978e+01 
27 1 2 1.0280011046725797e+00 -1.9119872084267706e+02 1.0000000000000000e+00 1.3651968672123678e+00 1.0462168305960974e+01 1.3156931885805978e+01 
131 1 2 1.0280011046725797e+00 -2.6920745670359992e+02 1.0000000000000000e+00 1.3651968672123678e+00 1.0462168305960974e+01 1.3156931885805978e+01 
127 1 2 1.0280011046725797e+00 -2.3959695426417045e+02 1.0000000000000000e+00 1.3651968672123942e+00 1.0462168305960981e+01 1.3156931885805990e+01 
149 1 2 1.0280011046725797e+00 -2.9629915245642923e+02 1.0000000000000000e+00 1.3651968672123975e+00 1.0462168305960972e+01 1.3156931885805987e+01 
16 1 2 1.0279987564564950e+00 -1.9115471611273520e+02 1.0000000000000000e+00 2.3731588276440250e+00 1.2056986612915718e+01 1.0463611292199142e+01 
15 1 2 1.0279987564564650e+00 -2.4500123294810473e+02 1.0000000000000000e+00 2.3731588245353201e+00 1.2056986633887481e+01 1.0463611289224803e+01 
52 1 2 1.0279987564566053e+00 -1.6812427309084967e+02 1.0000000000000000e+00 2.3731588418631402e+00 1.2056986475402844e+01 1.0463611323509188e+01 
22 1 2 1.0279987564565585e+00 -1.7735232238833225e+02 1.0000000000000000e+00 2.3731588351438764e+00 1.2056986515142158e+01 1.0463611319459872e+01 
30 1 2 1.0280005862343173e+00 -5.8562260506704881e+01 1.0000000000000000e+00 2.1439978238658211e+00 1.1519671732339345e+01 1.0294412490749322e+01 
111 1 2 1.0280005860044867e+00 -2.1421507823940030e+02 1.0000000000000000e+00 2.1441749970524473e+00 1.1519736619473653e+01 1.0294392310644964e+01 
161 1 2 1.0280010437428035e+00 -1.9468620030063471e+02 1.0000000000000000e+00 3.5258173663037309e+00 1.3623295434399319e+01 1.2937755135639373e+01 
167 1 2 1.0280010437428035e+00 -1.9607818422486676e+02 1.0000000000000000e+00 3.5258173663037429e+00 1.3623295434399322e+01 1.2937755135639367e+01 
110 1 2 1.0280010437428035e+00 -1.6889422674190027e+02 1.0000000000000000e+00 3.5258173663037384e+00 1.3623295434399335e+01 1.2937755135639360e+01 
162 1 2 1.0280010437428035e+00 -1.9462790017903481e+02 1.0000000000000000e+00 3.5258173663037224e+00 1.3623295434399296e+01 1.2937755135639392e+01 
58 1 2 1.0280010437428035e+00 -2.6373232479005060e+02 1.0000000000000000e+00 3.5258173663037309e+00 1.3623295434399319e+01 1.2937755135639373e+01 
64 1 2 1.0280010437428035e+00 -1.9948888043137876e+02 1.0000000000000000e+00 3.5258173663037384e+00 1.3623295434399335e+01 1.2937755135639360e+01 
20 1 2 1.0280010437428035e+00 -2.4687586637300811e+02 1.0000000000000000e+00 3.5258173663037384e+00 1.3623295434399335e+01 1.2937755135639360e+01 
40 1 2 1.0279960985438776e+00 -1.7339643878291969e+02 1.0000000000000000e+00 1.6010271310576565e+00 1.2549325084665062e+01 1.9956406435491388e+01 
113 1 2 1.0279960985438776e+00 -2.7730143603314241e+02 1.0000000000000000e+00 1.6010271310576565e+00 1.2549325084665062e+01 1.9956406435491388e+01 
139 1 2 1.0279960985438776e+00 -2.2678529733541416e+02 1.0000000000000000e+00 1.6010271310576565e+00 1.2549325084665062e+01 1.9956406435491388e+01 
143 1 2 1.0279960985438776e+00 -2.6072227759471019e+02 1.0000000000000000e+00 1.6010271310545190e+00 1.2549325084666009e+01 1.9956406435491839e+01 
46 1 2 1.0279960985438776e+00 -1.6464532843731806e+02 1.0000000000000000e+00 1.6010271310545190e+00 1.2549325084666009e+01 1.9956406435491839e+01 
47 1 2 1.0279960985438776e+00 -1.9284015563034086e+02 1.0000000000000000e+00 1.6010271310545190e+00 1.2549325084666009e+01 1.9956406435491839e+01 
41 1 2 1.0279960985438776e+00 -1.7398852879646489e+02 1.0000000000000000e+00 1.6010271310545190e+00 1.2549325084666009e+01 1.9956406435491839e+01 
94 1 2 1.0280039338257942e+00 -1.5361561602140301e+02 1.0000000000000000e+00 2.2211242278427474e+00 1.5351622722530703e+01 1.8396491668250853e+01 
18 1 2 1.0280039338257942e+00 -2.8369790245171259e+02 1.0000000000000000e+00 2.2211242278427474e+00 1.5351622722530703e+01 1.8396491668250853e+01 
129 1 2 1.0280039338257942e+00 -1.9977471396391581e+02 1.0000000000000000e+00 2.2211242278427474e+00 1.5351622722530703e+01 1.8396491668250853e+01 
60 1 2 1.0280039338257942e+00 -2.6369441219618096e+02 1.0000000000000000e+00 2.2211242278427474e+00 1.5351622722530703e+01 1.8396491668250853e+01 
93 1 2 1.0280039338257942e+00 -2.3268035073560600e+02 1.0000000000000000e+00 2.2211242278426808e+00 1.5351622722530806e+01 1.8396491668251013e+01 
135 1 2 1.0280039338257942e+00 -1.9352539797723546e+02 1.0000000000000000e+00 2.2211242278427474e+00 1.5351622722530703e+01 1.8396491668250853e+01 
54 1 2 1.0280039338257942e+00 -2.3614010274694738e+02 1.0000000000000000e+00 2.2211242278426808e+00 1.5351622722530806e+01 1.8396491668251013e+01 
107 1 2 1.0280000687003650e+00 -2.7315531070821550e+02 1.0000000000000000e+00 6.2429007632644495e+00 1.5089783418231352e+01 1.9867631012748490e+01 
177 1 2 1.0280000687003639e+00 -1.5924545181602346e+02 1.0000000000000000e+00 6.2429007632644611e+00 1.5089783418231425e+01 1.9867631012748603e+01 
144 1 2 1.0280000687003650e+00 -2.2980951896178613e+02 1.0000000000000000e+00 6.2429007632644922e+00 1.5089783418231523e+01 1.9867631012748785e+01 
50 1 2 1.0280000687003643e+00 -2.4145479398617985e+02 1.0000000000000000e+00 6.2429007632645064e+00 1.5089783418231567e+01 1.9867631012748859e+01 
24 1 2 1.0280000687003643e+00 -2.7550354000212474e+02 1.0000000000000000e+00 6.2429007632645330e+00 1.5089783418231457e+01 1.9867631012748717e+01 
169 1 2 1.0279661621252856e+00 -1.9381088798069538e+02 1.0000000000000000e+00 1.2841907089227750e+01 9.0534370428840099e+00 8.3702630228352941e+00 
145 1 2 1.0279661621252856e+00 -1.0303191222217886e+02 1.0000000000000000e+00 1.2841907089227750e+01 9.0534370428840099e+00 8.3702630228352941e+00 
29 1 2 1.0279661621252856e+00 -2.2124968904349302e+02 1.0000000000000000e+00 1.2841907089227750e+01 9.0534370428840099e+00 8.3702630228352941e+00 
180 1 2 1.0279661621252856e+00 -2.4873581651559397e+02 1.0000000000000000e+00 1.2841907089227746e+01 9.0534370428840116e+00 8.3702630228352959e+00 
179 1 2 1.0279661621252856e+00 -2.3471647862121046e+02 1.0000000000000000e+00 1.2841907089227734e+01 9.0534370428840205e+00 8.3702630228353065e+00 
28 1 2 1.0279661621252856e+00 -2.1815849043091526e+02 1.0000000000000000e+00 1.2841907089227734e+01 9.0534370428840205e+00 8.3702630228353065e+00 
133 1 2 1.0279661621252856e+00 -1.9019126553871183e+02 1.0000000000000000e+00 1.2841907089227758e+01 9.0534370428840116e+00 8.3702630228352906e+00 
67 1 2 1.0280000011682164e+00 -2.4672105684535083e+02 1.0000000000000000e+00 7.3923096804716719e+00 5.6488116550966385e+00 1.5097735324632941e+01 
51 1 2 1.0280000011682164e+00 -1.8969110894367211e+02 1.0000000000000000e+00 7.3923096804716799e+00 5.6488116550966438e+00 1.5097735324632932e+01 
42 1 2 1.0280000011682164e+00 -2.7287902264934155e+02 1.0000000000000000e+00 7.3923096804716799e+00 5.6488116550966438e+00 1.5097735324632932e+01 
68 1 2 1.0280000011682164e+00 -2.1573096170856428e+02 1.0000000000000000e+00 7.3923096804716613e+00 5.6488116550966323e+00 1.5097735324632952e+01 
36 1 2 1.0280000011682164e+00 -2.2967392934354382e+02 1.0000000000000000e+00 7.3923096804716719e+00 5.6488116550966385e+00 1.5097735324632941e+01 
72 1 2 1.0280000011682164e+00 -2.6098345688460734e+02 1.0000000000000000e+00 7.3923096804716613e+00 5.6488116550966323e+00 1.5097735324632952e+01 
6 1 2 1.0280000011682164e+00 -2.6588328026335262e+02 1.0000000000000000e+00 7.3923096804716613e+00 5.6488116550966323e+00 1.5097735324632952e+01 
123 1 2 1.0279998979848748e+00 -2.2749284094865030e+02 1.0000000000000000e+00 1.2103416718985892e+01 8.4027798670302793e+00 1.4254297606290834e+01 
147 1 2 1.0279998979848748e+00 -1.6412555157937786e+02 1.0000000000000000e+00 1.2103416718985892e+01 8.4027798670302793e+00 1.4254297606290834e+01 
152 1 2 1.0279998979848748e+00 -2.2292895213346205e+02 1.0000000000000000e+00 1.2103416718985892e+01 8.4027798670302793e+00 1.4254297606290834e+01 
117 1 2 1.0279998979848748e+00 -1.9609927852502940e+02 1.0000000000000000e+00 1.2103416718985892e+01 8.4027798670302793e+00 1.4254297606290834e+01 
115 1 2 1.0279998979848748e+00 -2.3339074816606993e+02 1.0000000000000000e+00 1.2103416718985892e+01 8.4027798670302793e+00 1.4254297606290834e+01 
146 1 2 1.0279998979848748e+00 -2.0408380394598370e+02 1.0000000000000000e+00 1.2103416718985892e+01 8.4027798670302793e+00 1.4254297606290834e+01 
116 1 2 1.0279998979848748e+00 -2.2187460135910104e+02 1.0000000000000000e+00 1.2103416718985892e+01 8.4027798670302793e+00 1.4254297606290834e+01 
108 1 2 1.0279998108348554e+00 -6.6112248829092209e+01 1.0000000000000000e+00 9.7311994855756527e+00 1.2735475003459023e+01 5.8032757570116678e+00 
55 1 2 1.0279998108348551e+00 -2.3733813072906636e+02 1.0000000000000000e+00 9.7311994855756776e+00 1.2735475003459021e+01 5.8032757570116678e+00 
17 1 2 1.0279998108348554e+00 -1.5604659931931903e+02 1.0000000000000000e+00 9.7311994855756563e+00 1.2735475003459023e+01 5.8032757570116669e+00 
96 1 2 1.0279998108348554e+00 -1.7917242940090367e+02 1.0000000000000000e+00 9.7311994855756527e+00 1.2735475003459023e+01 5.8032757570116678e+00 
114 1 2 1.0279998108348551e+00 -1.9449461344469850e+02 1.0000000000000000e+00 9.7311994855756652e+00 1.2735475003459024e+01 5.8032757570116775e+00 
49 1 2 1.0279998108348551e+00 -2.1916278732298238e+02 1.0000000000000000e+00 9.7311994855756776e+00 1.2735475003459021e+01 5.8032757570116678e+00 
10 1 2 1.0279998108348551e+00 -1.7475825840933268e+02 1.0000000000000000e+00 9.7311994855756776e+00 1.2735475003459021e+01 5.8032757570116678e+00 
124 1 2 1.0280000000272680e+00 -2.5744078439494217e+02 1.0000000000000000e+00 7.0686717330287001e+00 1.4832811150374326e+01 6.0997459387694217e+00 
118 1 2 1.0280000000272680e+00 -2.2467354012082282e+02 1.0000000000000000e+00 7.0686717330286521e+00 1.4832811150374306e+01 6.0997459387693862e+00 
125 1 2 1.0280000000272680e+00 -1.7741297381211007e+02 1.0000000000000000e+00 7.0686717330287010e+00 1.4832811150374315e+01 6.0997459387693524e+00 
89 1 2 1.0280000000272680e+00 -2.5259932548399016e+02 1.0000000000000000e+00 7.0686717330287001e+00 1.4832811150374326e+01 6.0997459387694217e+00 
88 1 2 1.0280000000272682e+00 -2.5123701276866561e+02 1.0000000000000000e+00 7.0686717330286610e+00 1.4832811150374301e+01 6.0997459387693418e+00 
53 1 2 1.0280000000272680e+00 -2.4492846177848102e+02 1.0000000000000000e+00 7.0686717330287001e+00 1.4832811150374326e+01 6.0997459387694217e+00 
119 1 2 1.0280000000272682e+00 -2.0964208248925684e+02 1.0000000000000000e+00 7.0686717330286610e+00 1.4832811150374301e+01 6.0997459387693418e+00 
85 1 2 1.0279998597706062e+00 -2.1737307845936428e+02 1.0000000000000000e+00 1.2585297075091088e+01 1.4303193654300838e+01 4.8762657100389006e+00 
97 1 2 1.0279998597706066e+00 -2.5671719367605306e+02 1.0000000000000000e+00 1.2585297075090972e+01 1.4303193654300896e+01 4.8762657100389646e+00 
86 1 2 1.0279998597706064e+00 -1.9443485007804426e+02 1.0000000000000000e+00 1.2585297075091255e+01 1.4303193654300664e+01 4.8762657100387230e+00 
91 1 2 1.0279998597706064e+00 -2.4566100612522274e+02 1.0000000000000000e+00 1.2585297075091257e+01 1.4303193654300674e+01 4.8762657100387319e+00 
61 1 2 1.0279998597706059e+00 -2.4123410416517098e+02 1.0000000000000000e+00 1.2585297075091052e+01 1.4303193654300898e+01 4.8762657100389610e+00 
81 1 2 1.0279998597706066e+00 -2.1004983926085427e+02 1.0000000000000000e+00 1.2585297075091168e+01 1.4303193654300754e+01 4.8762657100388154e+00 
137 1 2 1.0279998597706066e+00 -2.0261233462729891e+02 1.0000000000000000e+00 1.2585297075090972e+01 1.4303193654300896e+01 4.8762657100389646e+00 
32 1 2 1.0279999999930629e+00 -2.2833938699181914e+02 1.0000000000000000e+00 1.0741597174856052e+01 1.5870962510869997e+01 1.3063931925980240e+01 
105 1 2 1.0279999999930629e+00 -2.0401380482259887e+02 1.0000000000000000e+00 1.0741597174856054e+01 1.5870962510869997e+01 1.3063931925980237e+01 
75 1 2 1.0279999999930629e+00 -2.1761888738208137e+02 1.0000000000000000e+00 1.0741597174856054e+01 1.5870962510869994e+01 1.3063931925980230e+01 
26 1 2 1.0279999999930629e+00 -2.0225681871018901e+02 1.0000000000000000e+00 1.0741597174856063e+01 1.5870962510869980e+01 1.3063931925980247e+01 
25 1 2 1.0279999999930629e+00 -2.1466917359137892e+02 1.0000000000000000e+00 1.0741597174856054e+01 1.5870962510869994e+01 1.3063931925980230e+01 
99 1 2 1.0279999999930629e+00 -1.5573649151836872e+02 1.0000000000000000e+00 1.0741597174856063e+01 1.5870962510869980e+01 1.3063931925980247e+01 
106 1 2 1.0279999999930629e+00 -1.7649832688700224e+02 1.0000000000000000e+00 1.0741597174856054e+01 1.5870962510869994e+01 1.3063931925980230e+01 
65 1 2 1.0280004937154874e+00 -3.0445796744357403e+02 1.0000000000000000e+00 1.3192274919127982e+01 1.0295903100031337e+01 1.6738658490784960e+01 
120 1 2 1.0280004443355752e+00 -1.6260360148715273e+02 1.0000000000000000e+00 1.3194477192082594e+01 1.0313173109593082e+01 1.6717930548193451e+01 
153 1 2 1.0280004345157514e+00 -1.9634123071356598e+02 1.0000000000000000e+00 1.3195287737992308e+01 1.0316062197971297e+01 1.6714414359156695e+01 
151 1 2 1.0280005035069439e+00 -2.0108592928460584e+02 1.0000000000000000e+00 1.3192664671486028e+01 1.0291760658689718e+01 1.6743935658461186e+01 
163 1 2 1.0280341900313779e+00 -2.2189975928295760e+02 1.0000000000000000e+00 1.4256022048352927e+01 8.0200765325570043e+00 1.1128227022304319e+01 
79 1 2 1.0280341900313776e+00 -2.2829688204268191e+02 1.0000000000000000e+00 1.4256022048374335e+01 8.0200765325482095e+00 1.1128227022289359e+01 
158 1 2 1.0280341900313779e+00 -2.0452840030432665e+02 1.0000000000000000e+00 1.4256022048352927e+01 8.0200765325570043e+00 1.1128227022304319e+01 
43 1 2 1.0280341900313765e+00 -2.0729831853478859e+02 1.0000000000000000e+00 1.4256022048438656e+01 8.0200765325398446e+00 1.1128227022251373e+01 
157 1 2 1.0280341900313772e+00 -2.3223201244165054e+02 1.0000000000000000e+00 1.4256022048391074e+01 8.0200765325485328e+00 1.1128227022280425e+01 
48 1 2 1.0280341900313779e+00 -1.7777801950831113e+02 1.0000000000000000e+00 1.4256022048352927e+01 8.0200765325570043e+00 1.1128227022304319e+01 
73 1 2 1.0280341900313779e+00 -2.2243305726544062e+02 1.0000000000000000e+00 1.4256022048352927e+01 8.0200765325570043e+00 1.1128227022304319e+01 
56 1 2 1.0279999812018712e+00 -2.6323669018878280e+02 1.0000000000000000e+00 1.5117585801563337e+01 8.4372788265803322e+00 1.8593455318634216e+01 
155 1 2 1.0279999812018712e+00 -2.3263668507380083e+02 1.0000000000000000e+00 1.5117585801563330e+01 8.4372788265803322e+00 1.8593455318634224e+01 
13 1 2 1.0279999812018712e+00 -1.9429890995953187e+02 1.0000000000000000e+00 1.5117585801563330e+01 8.4372788265803322e+00 1.8593455318634224e+01 
14 1 2 1.0279999812018712e+00 -2.0827026301119432e+02 1.0000000000000000e+00 1.5117585801563321e+01 8.4372788265803358e+00 1.8593455318634234e+01 
100 1 2 1.0279999812018712e+00 -1.8906010795781421e+02 1.0000000000000000e+00 1.5117585801563330e+01 8.4372788265803322e+00 1.8593455318634224e+01 
8 1 2 1.0279999812018712e+00 -2.0494040365023741e+02 1.0000000000000000e+00 1.5117585801563330e+01 8.4372788265803322e+00 1.8593455318634224e+01 
154 1 2 1.0279999812018712e+00 -2.0840513998041857e+02 1.0000000000000000e+00 1.5117585801563333e+01 8.4372788265803447e+00 1.8593455318634231e+01 
4 1 2 1.0280004081787548e+00 -2.2347745577796488e+02 1.0000000000000000e+00 1.5434401116083821e+01 1.2140374780099057e+01 4.8045812978428790e+00 
70 1 2 1.0280004081787548e+00 -2.0529936562866823e+02 1.0000000000000000e+00 1.5434401116083821e+01 1.2140374780099057e+01 4.8045812978428790e+00 
45 1 2 1.0280004081787548e+00 -1.7313546924267592e+02 1.0000000000000000e+00 1.5434401116083821e+01 1.2140374780099057e+01 4.8045812978428790e+00 
35 1 2 1.0280004081787546e+00 -2.2591131468779719e+02 1.0000000000000000e+00 1.5434401116083814e+01 1.2140374780099030e+01 4.8045812978429270e+00 
176 1 2 1.0280004081787548e+00 -2.3758196659146142e+02 1.0000000000000000e+00 1.5434401116083821e+01 1.2140374780099057e+01 4.8045812978428790e+00 
34 1 2 1.0280004081787548e+00 -1.8193064991666409e+02 1.0000000000000000e+00 1.5434401116083821e+01 1.2140374780099057e+01 4.8045812978428790e+00 
5 1 2 1.0280004081787548e+00 -2.1834870605977528e+02 1.0000000000000000e+00 1.5434401116083821e+01 1.2140374780099057e+01 4.8045812978428790e+00 
23 1 2 1.0279993453206178e+00 -2.0492513683440740e+02 1.0000000000000000e+00 1.5507620055293511e+01 1.4872221166080118e+01 6.5173968089070815e+00 
101 1 2 1.0279993453206175e+00 -2.4329777453547996e+02 1.0000000000000000e+00 1.5507620055293541e+01 1.4872221166080180e+01 6.5173968089070851e+00 
76 1 2 1.0279993453206180e+00 -1.1220525191054698e+02 1.0000000000000000e+00 1.5507620055293600e+01 1.4872221166080267e+01 6.5173968089070620e+00 
31 1 2 1.0279993453206169e+00 -1.2521413691305443e+02 1.0000000000000000e+00 1.5507620055293490e+01 1.4872221166080095e+01 6.5173968089070895e+00 
71 1 2 1.0279993453206175e+00 -2.3669400608363293e+02 1.0000000000000000e+00 1.5507620055293518e+01 1.4872221166080161e+01 6.5173968089071073e+00 
140 1 2 1.0279994250028519e+00 -1.8435996674025020e+02 1.0000000000000000e+00 1.6716146688290834e+01 1.2977484302281038e+01 8.8711341266427848e+00 
134 1 2 1.0279994250033184e+00 -1.9984955255318431e+02 1.0000000000000000e+00 1.6716146423668629e+01 1.2977485254327910e+01 8.8711367786387392e+00 
39 1 2 1.0279994250038955e+00 -9.9715584943458239e+01 1.0000000000000000e+00 1.6716146089444457e+01 1.2977486456821737e+01 8.8711401282142859e+00 
141 1 2 1.0279994250034867e+00 -2.2990604209811676e+02 1.0000000000000000e+00 1.6716146327363720e+01 1.2977485600872642e+01 8.8711377439518238e+00 
3 1 2 1.0279994249941893e+00 -8.4192338977152147e+01 1.0000000000000000e+00 1.6716151697265854e+01 1.2977466283417144e+01 8.8710839261265981e+00 
130 1 2 1.0280005357471398e+00 -1.9422398818531209e+02 1.0000000000000000e+00 1.3654916998737432e+01 1.3963777724730939e+01 9.5572529885733193e+00 
170 1 2 1.0280005357471398e+00 -1.2242025539681198e+02 1.0000000000000000e+00 1.3654916998737432e+01 1.3963777724730939e+01 9.5572529885733193e+00 
136 1 2 1.0280005357471402e+00 -2.0141812385848769e+02 1.0000000000000000e+00 1.3654916998737468e+01 1.3963777724730988e+01 9.5572529885734170e+00 
175 1 2 1.0280005357471402e+00 -1.1716423050196140e+02 1.0000000000000000e+00 1.3654916998737468e+01 1.3963777724730988e+01 9.5572529885734170e+00 
142 1 2 1.0280005357471402e+00 -1.3349065582140636e+02 1.0000000000000000e+00 1.3654916998737468e+01 1.3963777724730988e+01 9.5572529885734170e+00 
164 1 2 1.0280005357471402e+00 -1.1107745598861911e+02 1.0000000000000000e+00 1.3654916998737466e+01 1.3963777724730987e+01 9.5572529885734117e+00 
171 1 2 1.0280005357471402e+00 -1.3916938305569138e+02 1.0000000000000000e+00 1.3654916998737468e+01 1.3963777724730988e+01 9.5572529885734170e+00 
87 1 2 1.0280013416709635e+00 -2.3505510977822527e+02 1.0000000000000000e+00 1.6760836779314626e+01 1.4933108719732896e+01 7.1119425372204264e+00 
121 1 2 1.0280013414123839e+00 -2.6859192243145287e+02 1.0000000000000000e+00 1.6760769474097618e+01 1.4933161270041673e+01 7.1118623768472169e+00 
9 1 2 1.0280013414142974e+00 -1.7115280999123380e+02 1.0000000000000000e+00 1.6760769957881003e+01 1.4933160870566754e+01 7.1118628909007606e+00 
2 1 2 1.0279996122568849e+00 -2.6353003891435270e+02 1.0000000000000000e+00 1.9729041115038797e+01 1.3674635318758167e+01 7.6515385308873300e+00 
44 1 2 1.0279996122568849e+00 -2.1749066896253561e+02 1.0000000000000000e+00 1.9729041114348608e+01 1.3674635317832813e+01 7.6515385302489936e+00 
1 1 2 1.0279996122571380e+00 -2.8379910652254978e+02 1.0000000000000000e+00 1.9729041210999988e+01 1.3674635240115741e+01 7.6515384398284345e+00 
7 1 2 1.0279996122566633e+00 -2.3708828798151944e+02 1.0000000000000000e+00 1.9729041037780640e+01 1.3674635393025689e+01 7.6515386136989409e+00 
38 1 2 1.0279996122568831e+00 -2.2340227445790001e+02 1.0000000000000000e+00 1.9729041114555923e+01 1.3674635317082352e+01 7.6515385295486755e+00 
37 1 2 1.0279996122568771e+00 -2.7068406159846512e+02 1.0000000000000000e+00 1.9729041116036164e+01 1.3674635315899446e+01 7.6515385281701720e+00 
66 1 2 1.0280000775008231e+00 -1.8640523967083493e+02 1.0000000000000000e+00 1.6848698980980636e+01 1.3916681378740133e+01 9.0171596672060925e+00 
102 1 2 1.0280000775008324e+00 -1.8037070363007845e+02 1.0000000000000000e+00 1.6848698976416451e+01 1.3916681368778791e+01 9.0171596750477736e+00 
78 1 2 1.0279999999930629e+00 -2.2553612337233386e+02 1.0000000000000000e+00 1.3619302714576353e+01 1.7415499659516573e+01 1.3004547272013628e+01 
83 1 2 1.0279999999930629e+00 -2.0964062531032772e+02 1.0000000000000000e+00 1.3619302714577266e+01 1.7415499659514641e+01 1.3004547272007594e+01 
98 1 2 1.0279999999930629e+00 -1.6823233225510592e+02 1.0000000000000000e+00 1.3619302714577286e+01 1.7415499659514598e+01 1.3004547272007366e+01 
84 1 2 1.0279999999930629e+00 -1.9923827841851650e+02 1.0000000000000000e+00 1.3619302714576792e+01 1.7415499659515643e+01 1.3004547272010656e+01 
150 1 2 1.0279999999930629e+00 -1.6532429254093398e+02 1.0000000000000000e+00 1.3619302714576353e+01 1.7415499659516573e+01 1.3004547272013628e+01 
104 1 2 1.0279999999930629e+00 -2.2966139707901667e+02 1.0000000000000000e+00 1.3619302714577122e+01 1.7415499659514943e+01 1.3004547272008427e+01 
62 1 2 1.0279999999930629e+00 -2.0758456244617992e+02 1.0000000000000000e+00 1.3619302714576744e+01 1.7415499659515749e+01 1.3004547272011097e+01 
59 1 2 1.0279992975902723e+00 -2.2899966070451546e+02 1.0000000000000000e+00 1.3470790938096705e+01 1.0212616937070846e+01 1.6494618149505875e+01 
156 1 2 1.0279996471907626e+00 -1.9073814412563755e+02 1.0000000000000000e+00 1.3336252663025357e+01 1.0358151805418231e+01 1.6545381115707627e+01 
148 1 2 1.0279994533510854e+00 -1.4904299668193735e+02 1.0000000000000000e+00 1.3398072618364138e+01 1.0315859357443276e+01 1.6514173226621690e+01 

Velocities

174 -7.3941306516056668e-02 -3.9775865317782363e-02 3.6355442647470826e-01
57 -7.3941306516266958e-02 -3.9775865317670599e-02 3.6355442647457142e-01
80 -7.3941306515718466e-02 -3.9775865317951277e-02 3.6355442647492731e-01
82 -7.3941306516057348e-02 -3.9775865317781982e-02 3.6355442647470793e-01
172 -7.3941306515473898e-02 -3.9775865318083956e-02 3.6355442647508662e-01
77 -7.3941306516056710e-02 -3.9775865317782370e-02 3.6355442647470826e-01
178 -7.3941306515718508e-02 -3.9775865317951270e-02 3.6355442647492731e-01
132 -7.5036002467372478e-02 -5.1681287129803612e-02 3.5817897589628156e-01
126 -7.5038157583852905e-02 -5.1680268569588038e-02 3.5817985609826619e-01
95 -7.5038157581964818e-02 -5.1680268566391692e-02 3.5817985610738223e-01
11 -7.5038157584545101e-02 -5.1680268570786080e-02 3.5817985609498559e-01
138 -7.5038157444975537e-02 -5.1680268357391076e-02 3.5817985674651626e-01
109 -7.5029829098139447e-02 -5.1681398210958490e-02 3.5817892295659282e-01
128 -7.2857894171681287e-02 -5.7003782154534638e-02 3.6778529318730718e-01
92 -7.2859131465794397e-02 -5.7004825522037297e-02 3.6778323358138831e-01
122 -7.2861322340236234e-02 -5.6999857133355723e-02 3.6778717688952350e-01
19 -7.2861720353108325e-02 -5.7001545075664059e-02 3.6778515056633981e-01
165 -7.3451241863204508e-02 -5.6581986706414920e-02 3.6736499890733854e-01
103 -7.3451219071622928e-02 -5.6581958666841639e-02 3.6736499560688374e-01
173 -7.3429501850214338e-02 -5.6527694028581765e-02 3.6733944344895642e-01
168 -7.3429490267914996e-02 -5.6527682902795515e-02 3.6733943210061115e-01
90 -7.3429416577927939e-02 -5.6527600011513142e-02 3.6733957810666801e-01
12 -7.3429432028634167e-02 -5.6527616511461168e-02 3.6733956476194579e-01
112 -7.3429434502578869e-02 -5.6527619331952876e-02 3.6733955951455094e-01
74 -7.3429499493447029e-02 -5.6527691133505510e-02 3.6733945315430472e-01
21 -7.3451241863204911e-02 -5.6581986706415184e-02 3.6736499890733854e-01
159 -7.3451241863205036e-02 -5.6581986706415281e-02 3.6736499890733848e-01
166 -7.3451241863204841e-02 -5.6581986706415316e-02 3.6736499890733876e-01
160 -7.3451241863205105e-02 -5.6581986706414920e-02 3.6736499890733854e-01
63 -7.2552631503976853e-02 -5.6880944644425571e-02 3.6768724645900974e-01
33 -7.2552631503976978e-02 -5.6880944644425765e-02 3.6768724645901019e-01
69 -7.2552631503976978e-02 -5.6880944644425765e-02 3.6768724645901019e-01
27 -7.2552631503976978e-02 -5.6880944644425765e-02 3.6768724645901019e-01
131 -7.2552631503976978e-02 -5.6880944644425765e-02 3.6768724645901019e-01
127 -7.2552631503977033e-02 -5.6880944644425870e-02 3.6768724645901024e-01
149 -7.2552631503976853e-02 -5.6880944644425571e-02 3.6768724645900974e-01
16 -7.2639762156525456e-02 -5.6898208829766143e-02 3.6763605226068691e-01
15 -7.2639762156355842e-02 -5.6898208835323677e-02 3.6763605226116719e-01
52 -7.2639762156837484e-02 -5.6898208793677199e-02 3.6763605225426599e-01
22 -7.2639762156330209e-02 -5.6898208804224776e-02 3.6763605225476509e-01
30 -7.2588077429512565e-02 -5.6900752573873531e-02 3.6770168050194357e-01
111 -7.2588078989589758e-02 -5.6900729710280366e-02 3.6770167132465470e-01