LAMMPS data file via write_data, version 30 Jul 2016, timestep = 50400000

180 atoms
2 atom types

0.0000000000000000e+00 2.0000000000000000e+01 xlo xhi
0.0000000000000000e+00 2.0000000000000000e+01 ylo yhi
0.0000000000000000e+00 2.0000000000000000e+01 zlo zhi

Masses

1 3.896
2 4.31

Atoms # meso-molecular

5 1 2 4.4565821125796801e-01 -5.1792335347202823e+02 1.0000000000000000e+00 5.5695159532573371e+00 8.4922411870886905e-01 1.6331778026761576e+01 
42 1 2 4.4565821125796801e-01 -4.0581272238865051e+02 1.0000000000000000e+00 5.5695159532573371e+00 8.4922411870886716e-01 1.6331778026761576e+01 
41 1 2 4.4565821125796801e-01 -3.8361914220384114e+02 1.0000000000000000e+00 5.5695159532573371e+00 8.4922411870886716e-01 1.6331778026761576e+01 
12 1 2 4.4565821125796801e-01 -6.4281972759903863e+02 1.0000000000000000e+00 5.5695159532573317e+00 8.4922411870886905e-01 1.6331778026761590e+01 
6 1 2 4.4565821125796801e-01 -5.8826697889623654e+02 1.0000000000000000e+00 5.5695159532573317e+00 8.4922411870886805e-01 1.6331778026761590e+01 
1 1 2 4.4565821125796801e-01 -5.3127368341708871e+02 1.0000000000000000e+00 5.5695159532573317e+00 8.4922411870886905e-01 1.6331778026761590e+01 
34 1 2 3.7138184271497332e-01 -4.2741166930517568e+02 1.0000000000000000e+00 5.8554392414212160e+00 1.8851560791099512e+01 7.8585172723058498e+00 
3 1 2 3.7138184271497332e-01 -4.2030011824662040e+02 1.0000000000000000e+00 5.8554392414212160e+00 1.8851560791099512e+01 7.8585172723058694e+00 
33 1 2 3.7138184271497332e-01 -5.3546221248690506e+02 1.0000000000000000e+00 5.8554392414212160e+00 1.8851560791099608e+01 7.8585172723058552e+00 
2 1 2 3.7138184271497332e-01 -5.0867781463106076e+02 1.0000000000000000e+00 5.8554392414212160e+00 1.8851560791099576e+01 7.8585172723058694e+00 
4 1 2 3.7138184271497332e-01 -4.9250966626927186e+02 1.0000000000000000e+00 5.8554392414212160e+00 1.8851560791099608e+01 7.8585172723058552e+00 
11 1 2 1.0280000000000058e+00 -4.4654477381552402e+02 1.0000000000000000e+00 7.5519217154235561e+00 4.2164857685773747e+00 9.9624857359168768e+00 
52 1 2 1.0279999999999840e+00 -4.5985345462106864e+02 1.0000000000000000e+00 7.5521104884039216e+00 4.2168528001791810e+00 9.9622797864870840e+00 
59 1 2 1.0280000000000049e+00 -3.4696555448302541e+02 1.0000000000000000e+00 7.5519063982762971e+00 4.2175713510462636e+00 9.9619325392636835e+00 
16 1 2 1.0280000000000040e+00 -4.7271515410551029e+02 1.0000000000000000e+00 7.5720059131060014e+00 4.2076953238904107e+00 9.9653955719803555e+00 
48 1 2 1.0280000000000058e+00 -4.9151406775634672e+02 1.0000000000000000e+00 7.5500781267875130e+00 4.2176164427366354e+00 9.9620881569770141e+00 
47 1 2 1.0280000000000051e+00 -4.5856145930579100e+02 1.0000000000000000e+00 7.5509197929575596e+00 4.2171044857412676e+00 9.9622666514561224e+00 
53 1 2 1.0280000000000047e+00 -4.6793836409632644e+02 1.0000000000000000e+00 7.5510347911842404e+00 4.2173923768396326e+00 9.9621084061639955e+00 
17 1 2 1.0279999999999836e+00 -5.2142132756231229e+02 1.0000000000000000e+00 7.5511569226281559e+00 4.2173580769136674e+00 9.9621139964946348e+00 
39 1 2 1.0279999999999954e+00 -4.4395260703621227e+02 1.0000000000000000e+00 7.5038480351813970e+00 5.2668493115163626e+00 1.1776886110502652e+01 
82 1 2 1.0279999999999800e+00 -3.7369442022914438e+02 1.0000000000000000e+00 7.5038815820953566e+00 5.2668226501905631e+00 1.1776907339081326e+01 
46 1 2 1.0280000000000227e+00 -4.6736943373459457e+02 1.0000000000000000e+00 7.5037634477890602e+00 5.2669022889336681e+00 1.1776841608652855e+01 
75 1 2 1.0279999999999883e+00 -3.5838954308951713e+02 1.0000000000000000e+00 7.5038745229130202e+00 5.2668335572032356e+00 1.1776899512402817e+01 
10 1 2 1.0279999999999943e+00 -5.4441942410286981e+02 1.0000000000000000e+00 8.0836947459761070e+00 4.0787407474613540e+00 1.0252425995745220e+01 
76 1 2 1.0280000000000189e+00 -4.1010479301970020e+02 1.0000000000000000e+00 7.5038973546265408e+00 5.2668333137326311e+00 1.1776902603603213e+01 
40 1 2 1.0280000000000160e+00 -5.0316026430567098e+02 1.0000000000000000e+00 7.5038074200371376e+00 5.2668967805405895e+00 1.1776850766807451e+01 
81 1 2 1.0279999999999725e+00 -4.2510290821980664e+02 1.0000000000000000e+00 7.5038659420338982e+00 5.2668321506597726e+00 1.1776899300691687e+01 
45 1 2 1.0280000000000022e+00 -4.3817914943384966e+02 1.0000000000000000e+00 7.5034539945532064e+00 5.2669887922028042e+00 1.1776746772789675e+01 
15 1 2 1.0280000000000118e+00 -5.8012774058164348e+02 1.0000000000000000e+00 8.4255675805561854e+00 4.3041786270494855e+00 1.0945906441246368e+01 
9 1 2 1.0280000000000036e+00 -4.5746792728135790e+02 1.0000000000000000e+00 7.5037851052162905e+00 5.2669395000217767e+00 1.1776820786491225e+01 
56 1 2 1.0278436091013952e+00 -3.3811158980849541e+02 1.0000000000000000e+00 1.0724199542834254e+01 1.7507873310015320e+01 2.3537170295963308e+00 
61 1 2 1.0278436091013952e+00 -3.6273202722736789e+02 1.0000000000000000e+00 1.0724199542834254e+01 1.7507873310015320e+01 2.3537170295963308e+00 
67 1 2 1.0278436091013952e+00 -5.9002742801069428e+02 1.0000000000000000e+00 1.0724199542834254e+01 1.7507873310015320e+01 2.3537170295963308e+00 
97 1 2 1.0278436091013952e+00 -5.1924843344125293e+02 1.0000000000000000e+00 1.0724199542834254e+01 1.7507873310015320e+01 2.3537170295963308e+00 
31 1 2 1.0278436091013952e+00 -6.3054323868924905e+02 1.0000000000000000e+00 1.0724199542834254e+01 1.7507873310015320e+01 2.3537170295963308e+00 
103 1 2 1.0278436091013952e+00 -6.0555030112241036e+02 1.0000000000000000e+00 1.0724199542834254e+01 1.7507873310015320e+01 2.3537170295963308e+00 
25 1 2 1.0278436091013952e+00 -4.6138321140879123e+02 1.0000000000000000e+00 1.0724199542834254e+01 1.7507873310015320e+01 2.3537170295963308e+00 
68 1 2 1.0278436091013952e+00 -3.7415819553203164e+02 1.0000000000000000e+00 1.0724199542834254e+01 1.7507873310015320e+01 2.3537170295963308e+00 
32 1 2 1.0278436091013952e+00 -5.1573650455104428e+02 1.0000000000000000e+00 1.0724199542834254e+01 1.7507873310015320e+01 2.3537170295963308e+00 
26 1 2 1.0278436091013952e+00 -4.6194831339002837e+02 1.0000000000000000e+00 1.0724199542834254e+01 1.7507873310015320e+01 2.3537170295963308e+00 
20 1 2 1.0278436091013952e+00 -3.7386963179917774e+02 1.0000000000000000e+00 1.0724199542834254e+01 1.7507873310015320e+01 2.3537170295963308e+00 
62 1 2 1.0278436091013952e+00 -3.8873930904440277e+02 1.0000000000000000e+00 1.0724199542834254e+01 1.7507873310015320e+01 2.3537170295963308e+00 
7 1 2 1.0278435808962725e+00 -5.6263127537829473e+02 1.0000000000000000e+00 1.0724220589840984e+01 1.7507807565293692e+01 2.3536982248452980e+00 
92 1 2 1.0177578616018730e+00 -3.5466933836883953e+02 1.0000000000000000e+00 1.3328852417878222e+01 1.2946050311858587e+01 6.2340719910093876e+00 
14 1 2 1.0283395798099939e+00 -4.9132232058180438e+02 1.0000000000000000e+00 1.1016952595371606e+01 1.6549259258018477e+01 4.6024804092862199e+00 
43 1 2 1.0283461353663179e+00 -5.6017300978271214e+02 1.0000000000000000e+00 1.1018319313884769e+01 1.6546565049088709e+01 4.6060609020539234e+00 
19 1 2 1.0313315054158554e+00 -4.0611336706606522e+02 1.0000000000000000e+00 1.1187749695598148e+01 1.5345298622505137e+01 6.0195024872021241e+00 
55 1 2 1.0313876504980037e+00 -3.3749816254546596e+02 1.0000000000000000e+00 1.1193601494639376e+01 1.5330822990692893e+01 6.0350069324210471e+00 
13 1 2 1.0319752277026941e+00 -5.5366799728472620e+02 1.0000000000000000e+00 1.1265194235207522e+01 1.5188718179734780e+01 6.1832989742665454e+00 
50 1 2 1.0243443688299831e+00 -5.2921759056402914e+02 1.0000000000000000e+00 1.1385122559621898e+01 1.7448716118980254e+01 6.5827129361777317e+00 
8 1 2 1.0248398239707350e+00 -6.3597426692246654e+02 1.0000000000000000e+00 1.1544721917231852e+01 1.7606603049703264e+01 6.1884008111464865e+00 
74 1 2 1.0248028215328686e+00 -3.7412969590682587e+02 1.0000000000000000e+00 1.1542097624805635e+01 1.7601270238688752e+01 6.2130678089714912e+00 
111 1 2 1.0248028215328686e+00 -4.3006941431034613e+02 1.0000000000000000e+00 1.1542097624805635e+01 1.7601270238688752e+01 6.2130678089714912e+00 
110 1 2 1.0248028215328686e+00 -4.4505328203263934e+02 1.0000000000000000e+00 1.1542097624805635e+01 1.7601270238688752e+01 6.2130678089714912e+00 
37 1 2 1.0248028215328686e+00 -5.6679474191893166e+02 1.0000000000000000e+00 1.1542097624805635e+01 1.7601270238688752e+01 6.2130678089714912e+00 
38 1 2 1.0248028215328686e+00 -4.3418693266383713e+02 1.0000000000000000e+00 1.1542097624805635e+01 1.7601270238688752e+01 6.2130678089714912e+00 
73 1 2 1.0248028215328686e+00 -5.3709903126498534e+02 1.0000000000000000e+00 1.1542097624805635e+01 1.7601270238688752e+01 6.2130678089714912e+00 
80 1 2 1.0248028215328686e+00 -4.0589615102053767e+02 1.0000000000000000e+00 1.1542097624805635e+01 1.7601270238688752e+01 6.2130678089714912e+00 
94 1 2 1.0280000004644845e+00 -3.7483165034983239e+02 1.0000000000000000e+00 8.8090444931144525e+00 1.0631183149612529e+01 8.8870337236877415e+00 
88 1 2 1.0280000004644856e+00 -3.4659858385594941e+02 1.0000000000000000e+00 8.8090445050550645e+00 1.0631183156520430e+01 8.8870336803574990e+00 
64 1 2 1.0279999995414910e+00 -5.1259451680900827e+02 1.0000000000000000e+00 8.1674326870247747e+00 1.1721548635653827e+01 8.5109813089796500e+00 
21 1 2 1.0279999994840365e+00 -4.9281421750087236e+02 1.0000000000000000e+00 8.1686056854512792e+00 1.1721563252036631e+01 8.5102752795841159e+00 
23 1 2 1.0280000004072680e+00 -3.6875192135115412e+02 1.0000000000000000e+00 8.5127586959464043e+00 1.0589206048918735e+01 9.1968070166803617e+00 
27 1 2 1.0279999995705753e+00 -5.0173832557769265e+02 1.0000000000000000e+00 8.1667518132124712e+00 1.1721867717608736e+01 8.5119798147371917e+00 
28 1 2 1.0280000001374934e+00 -4.9626803076500681e+02 1.0000000000000000e+00 8.0455712106904578e+00 1.0894049156703774e+01 9.3515380161677104e+00 
22 1 2 1.0280000001870222e+00 -4.0590377337305705e+02 1.0000000000000000e+00 8.1180728787076291e+00 1.0816268004222696e+01 9.3523932031946622e+00 
58 1 2 1.0280000001401430e+00 -4.3757968111348805e+02 1.0000000000000000e+00 8.0484028200428828e+00 1.0887529227692690e+01 9.3503266726990244e+00 
87 1 2 1.0280000004644851e+00 -3.0712856670944592e+02 1.0000000000000000e+00 8.8090445248955263e+00 1.0631183169750551e+01 8.8870336296698476e+00 
57 1 2 1.0279999995130640e+00 -3.9320630849889437e+02 1.0000000000000000e+00 8.1678821560184485e+00 1.1721622756523798e+01 8.5108321591160490e+00 
93 1 2 1.0280000004644851e+00 -3.4491751213116680e+02 1.0000000000000000e+00 8.8090444952254590e+00 1.0631183146901847e+01 8.8870336682024931e+00 
51 1 2 1.0280000004644849e+00 -3.8715891222004893e+02 1.0000000000000000e+00 8.8090444886739814e+00 1.0631183140719763e+01 8.8870336628833950e+00 
63 1 2 1.0279999995702374e+00 -4.4175359410432816e+02 1.0000000000000000e+00 8.1668333209868749e+00 1.1721616681914133e+01 8.5114793919455884e+00 
69 1 2 1.0279999995702183e+00 -3.9960577535089993e+02 1.0000000000000000e+00 8.1663454275792482e+00 1.1721593379503501e+01 8.5117455957250723e+00 
70 1 2 1.0279999995700215e+00 -4.7392632415130606e+02 1.0000000000000000e+00 8.1664402270601624e+00 1.1721447872779466e+01 8.5114256951314342e+00 
60 1 2 1.0317183575906252e+00 -4.4921733250634804e+02 1.0000000000000000e+00 1.1471511856511032e+01 1.5029392438252545e+01 6.7159198515611145e+00 
49 1 2 1.0309706604323765e+00 -4.8149457408564217e+02 1.0000000000000000e+00 1.1590496549367415e+01 1.5088821541999895e+01 6.9020725247004293e+00 
54 1 2 1.0305989065766095e+00 -4.3428950107307395e+02 1.0000000000000000e+00 1.1558991465226393e+01 1.5165470710003977e+01 6.9317976426383279e+00 
24 1 2 1.0305574777237816e+00 -5.1831648875513133e+02 1.0000000000000000e+00 1.1551239543376562e+01 1.5175809477327478e+01 6.9330272532188975e+00 
18 1 2 1.0300149290477436e+00 -6.3123792168805687e+02 1.0000000000000000e+00 1.1572197596374926e+01 1.5289193586768910e+01 7.0086075173592484e+00 
44 1 2 1.0248291597989219e+00 -4.5100581093647719e+02 1.0000000000000000e+00 1.1472326159426872e+01 1.7315648382725414e+01 6.7520719355229399e+00 
149 1 2 1.0279999999999978e+00 -5.2009647751706507e+02 1.0000000000000000e+00 1.2933101043087259e+01 1.8758324396627934e+01 1.1583169149033852e+01 
112 1 2 1.0280000000000695e+00 -5.6330199011220282e+02 1.0000000000000000e+00 1.2933336671666488e+01 1.8757350124519014e+01 1.1584056571540936e+01 
147 1 2 1.0280000000000427e+00 -4.3433381786871115e+02 1.0000000000000000e+00 1.2933773829827180e+01 1.8756969834519264e+01 1.1583898462668216e+01 
148 1 2 1.0280000000000649e+00 -4.6440178248460091e+02 1.0000000000000000e+00 1.2933901762726197e+01 1.8756872406019816e+01 1.1583834879941600e+01 
178 1 2 1.0280000000000054e+00 -5.4266755768777796e+02 1.0000000000000000e+00 1.2934282988360879e+01 1.8756222936998551e+01 1.1584103501861133e+01 
179 1 2 1.0279999999999807e+00 -5.3973884038407539e+02 1.0000000000000000e+00 1.2938138757356917e+01 1.8746636529120000e+01 1.1591029261666556e+01 
143 1 2 1.0280000000000449e+00 -3.9605762176379665e+02 1.0000000000000000e+00 1.3114263759496442e+01 1.9445931728166830e+01 1.1562690241002677e+01 
150 1 2 1.0279999999999692e+00 -3.8551677531323537e+02 1.0000000000000000e+00 1.3243568366415836e+01 1.9491716982548176e+01 1.2048741213287856e+01 
65 1 2 5.9421094834395738e-01 -3.7146471721306989e+02 1.0000000000000000e+00 6.6829191093537581e+00 1.5646641741266290e+01 1.5656247990722898e+01 
71 1 2 5.9421094834395738e-01 -5.0921356084923525e+02 1.0000000000000000e+00 6.6829191093537581e+00 1.5646641741266230e+01 1.5656247990722898e+01 
66 1 2 5.9421094834395738e-01 -5.7586916382582933e+02 1.0000000000000000e+00 6.6829191093537581e+00 1.5646641741266290e+01 1.5656247990722898e+01 
29 1 2 5.9421094834395738e-01 -4.0616493437639389e+02 1.0000000000000000e+00 6.6829191093537581e+00 1.5646641741266290e+01 1.5656247990722898e+01 
72 1 2 5.9421094834395738e-01 -3.9875076689463845e+02 1.0000000000000000e+00 6.6829191093537590e+00 1.5646641741266290e+01 1.5656247990722898e+01 
30 1 2 5.9421094834395738e-01 -5.5958468032273515e+02 1.0000000000000000e+00 6.6829191093537572e+00 1.5646641741266290e+01 1.5656247990722900e+01 
36 1 2 5.9421094834395738e-01 -4.4453705101615202e+02 1.0000000000000000e+00 6.6829191093537412e+00 1.5646641741266290e+01 1.5656247990722955e+01 
35 1 2 5.9421094834395738e-01 -4.6457235375287462e+02 1.0000000000000000e+00 6.6829191093537412e+00 1.5646641741266290e+01 1.5656247990722898e+01 
146 1 2 2.9710547417197863e-01 -4.7266966198475865e+02 1.0000000000000000e+00 1.7224958368842863e+01 3.5455919105260434e+00 3.3279962670282845e+00 
116 1 2 2.9710547417197863e-01 -4.8655081685685997e+02 1.0000000000000000e+00 1.7224958368842863e+01 3.5455919105260434e+00 3.3279962670282921e+00 
151 1 2 2.9710547417197863e-01 -5.2680037312799197e+02 1.0000000000000000e+00 1.7224958368842834e+01 3.5455919105260421e+00 3.3279962670282819e+00 
152 1 2 2.9710547417197863e-01 -3.6397021881682792e+02 1.0000000000000000e+00 1.7224958368842859e+01 3.5455919105260438e+00 3.3279962670282903e+00 
121 1 2 9.1325504484408637e-01 -5.3952473482826463e+02 1.0000000000000000e+00 1.4116642650005492e+01 9.3180881187609241e+00 1.8149628083920473e+00 
122 1 2 9.1325504484408637e-01 -6.2052543655099157e+02 1.0000000000000000e+00 1.4116642650005492e+01 9.3180881187609241e+00 1.8149628083920473e+00 
157 1 2 9.1325504484408637e-01 -5.1819180262950681e+02 1.0000000000000000e+00 1.4116642650005492e+01 9.3180881187609241e+00 1.8149628083920473e+00 
127 1 2 9.1325504484408637e-01 -4.9919875869106522e+02 1.0000000000000000e+00 1.4116642650005492e+01 9.3180881187609241e+00 1.8149628083920473e+00 
163 1 2 9.1325504484408637e-01 -4.2900342360670993e+02 1.0000000000000000e+00 1.4116642650005492e+01 9.3180881187609241e+00 1.8149628083920473e+00 
91 1 2 9.1325504484408637e-01 -4.1944443251570596e+02 1.0000000000000000e+00 1.4116642650005492e+01 9.3180881187609241e+00 1.8149628083920473e+00 
132 1 2 9.1325504484408637e-01 -4.2297559213800031e+02 1.0000000000000000e+00 1.4116642650005492e+01 9.3180881187609241e+00 1.8149628083920473e+00 
115 1 2 9.1325504484408637e-01 -5.9390141284854576e+02 1.0000000000000000e+00 1.4116642650005492e+01 9.3180881187609241e+00 1.8149628083920473e+00 
85 1 2 9.1325504484408637e-01 -5.0508956024079384e+02 1.0000000000000000e+00 1.4116642650005492e+01 9.3180881187609241e+00 1.8149628083920473e+00 
86 1 2 9.1325504484408637e-01 -4.9989131723357013e+02 1.0000000000000000e+00 1.4116642650005492e+01 9.3180881187609241e+00 1.8149628083920473e+00 
79 1 2 9.1325504484408637e-01 -4.7094340008781381e+02 1.0000000000000000e+00 1.4116642650005492e+01 9.3180881187609241e+00 1.8149628083920473e+00 
153 1 2 1.0279999999999814e+00 -4.5546896133796093e+02 1.0000000000000000e+00 1.5443241226869294e+01 6.0024845535454272e+00 1.1579271244620779e+01 
117 1 2 1.0280000000000189e+00 -5.1649233055432580e+02 1.0000000000000000e+00 1.5443230118268131e+01 6.0025135806157914e+00 1.1579254354547087e+01 
118 1 2 1.0279999999999996e+00 -4.5112542921439695e+02 1.0000000000000000e+00 1.5443236185427207e+01 6.0025616864397380e+00 1.1579234491888167e+01 
154 1 2 1.0280000000000167e+00 -5.1452099467403059e+02 1.0000000000000000e+00 1.5443274928103248e+01 6.0025591919676051e+00 1.1579248488138802e+01 
123 1 2 1.0279999999999649e+00 -4.9244737064343741e+02 1.0000000000000000e+00 1.5443227222479241e+01 6.0025687268490335e+00 1.1579228315347082e+01 
124 1 2 1.0280000000000116e+00 -5.0676103056638340e+02 1.0000000000000000e+00 1.5443670404449673e+01 6.0031468682016991e+00 1.1579112944586109e+01 
130 1 2 1.0279999999999987e+00 -4.4540201760478396e+02 1.0000000000000000e+00 1.5445254637304272e+01 6.0051791471326483e+00 1.1578722643097965e+01 
160 1 2 1.0279999999999694e+00 -5.2782928852741350e+02 1.0000000000000000e+00 1.5445310547320975e+01 6.0051707469499780e+00 1.1578745145592237e+01 
166 1 2 1.0280000000000029e+00 -4.9698259109387544e+02 1.0000000000000000e+00 1.5445430123408967e+01 6.0053230950019181e+00 1.1578716574693654e+01 
167 1 2 1.0279999999999752e+00 -5.0358860809056932e+02 1.0000000000000000e+00 1.5445567115078962e+01 6.0054734721756491e+00 1.1578694785263034e+01 
161 1 2 1.0280000000000136e+00 -4.0390789685429752e+02 1.0000000000000000e+00 1.5455086244508504e+01 6.0175147763315353e+00 1.1576644894256189e+01 
119 1 2 1.0280000000000054e+00 -3.7746470157925620e+02 1.0000000000000000e+00 1.4357943421254138e+01 6.5176509715906858e+00 1.4118755125448804e+01 
120 1 2 1.0280000000000173e+00 -3.9034479489775316e+02 1.0000000000000000e+00 1.4357223556112471e+01 6.6598478897531184e+00 1.4162816245478433e+01 
83 1 2 1.0280000000000198e+00 -3.5719795724504752e+02 1.0000000000000000e+00 1.4314693346683391e+01 6.5091643179984224e+00 1.4083858770509401e+01 
84 1 2 1.0280000000000113e+00 -4.0974743638977583e+02 1.0000000000000000e+00 1.4315099907785445e+01 6.5658972842498455e+00 1.4106257842538744e+01 
77 1 2 1.0279999999999967e+00 -3.3628626221871167e+02 1.0000000000000000e+00 1.4311789473173516e+01 6.4774073226702242e+00 1.4067287519237745e+01 
156 1 2 1.0280000000000045e+00 -5.7098363480766204e+02 1.0000000000000000e+00 1.5108013862999197e+01 6.8927995215305629e+00 1.4266363816853552e+01 
155 1 2 1.0279999999999994e+00 -6.0012493025734818e+02 1.0000000000000000e+00 1.5140686634224375e+01 6.9507145424782752e+00 1.4247910959743923e+01 
162 1 2 1.0280000000000074e+00 -5.8545149417546156e+02 1.0000000000000000e+00 1.5164571593300453e+01 7.0123752137086637e+00 1.4226590608877997e+01 
125 1 2 1.0280000000000007e+00 -2.9112510896202684e+02 1.0000000000000000e+00 1.4664087342507804e+01 7.6570632639347593e+00 1.3720272531850163e+01 
90 1 2 1.0280000000000074e+00 -2.8536329397593880e+02 1.0000000000000000e+00 1.4651063712569350e+01 7.6643370043534889e+00 1.3692929873549510e+01 
89 1 2 1.0279999999999911e+00 -3.1313272756689526e+02 1.0000000000000000e+00 1.4664647523141884e+01 7.6738684762357927e+00 1.3674458433142458e+01 
126 1 2 1.0280000000000025e+00 -2.9226996490471458e+02 1.0000000000000000e+00 1.4673254507493654e+01 7.6766093391846510e+00 1.3671768985931411e+01 
131 1 2 1.0279999999999971e+00 -3.7702148520597427e+02 1.0000000000000000e+00 1.4721727743364596e+01 7.7074358448556683e+00 1.3598221244256903e+01 
139 1 2 2.9710547417197863e-01 -3.4921007167323501e+02 1.0000000000000000e+00 1.6551961622293536e+01 1.8919764425823079e+01 1.5906603864671043e-01 
109 1 2 2.9710547417197863e-01 -3.6516246806411601e+02 1.0000000000000000e+00 1.6551961622293568e+01 1.8919764425823050e+01 1.5906603864671068e-01 
145 1 2 2.9710547417197863e-01 -2.8678652316367595e+02 1.0000000000000000e+00 1.6551961622293568e+01 1.8919764425823050e+01 1.5906603864671068e-01 
175 1 2 2.9710547417197863e-01 -2.8608425309263441e+02 1.0000000000000000e+00 1.6551961622293536e+01 1.8919764425823079e+01 1.5906603864671043e-01 
128 1 2 1.0592635733793911e+00 -5.0825400073851944e+02 1.0000000000000000e+00 1.4571787200009407e+01 1.1202217978895908e+01 3.8847173757193927e+00 
129 1 2 1.0483523354730888e+00 -3.9682837811285100e+02 1.0000000000000000e+00 1.4798985145017324e+01 1.1317565909645552e+01 4.2682282837428565e+00 
170 1 2 1.0521413751626516e+00 -4.8097982062623203e+02 1.0000000000000000e+00 1.4832912075646002e+01 1.1438831747561135e+01 4.0244874288891994e+00 
133 1 2 1.0594312096087122e+00 -5.1341569922458712e+02 1.0000000000000000e+00 1.4604368081601052e+01 1.1257210091938143e+01 3.8462265057731617e+00 
164 1 2 1.0481648644347854e+00 -3.6396044360230047e+02 1.0000000000000000e+00 1.4819154454327157e+01 1.1333351862408081e+01 4.2581217624696430e+00 
165 1 2 1.0478567209835328e+00 -4.4734826078696221e+02 1.0000000000000000e+00 1.4821791631473481e+01 1.1335809874076753e+01 4.2652194242674257e+00 
159 1 2 1.0478717441924676e+00 -3.3701421203352965e+02 1.0000000000000000e+00 1.4821377650070483e+01 1.1335452552167299e+01 4.2651194417146288e+00 
158 1 2 1.0479219203454209e+00 -3.5571738241496473e+02 1.0000000000000000e+00 1.4821138866129584e+01 1.1335208137912002e+01 4.2638055277867650e+00 
134 1 2 1.0498091647279388e+00 -5.1168934641068086e+02 1.0000000000000000e+00 1.4803909270739654e+01 1.1577811660506001e+01 3.9634072088451351e+00 
169 1 2 1.0322617413822031e+00 -5.2583810854496608e+02 1.0000000000000000e+00 1.4987426904069613e+01 1.1856164144870004e+01 4.1852774124135967e+00 
176 1 2 1.0039965527070032e+00 -4.3828547740040972e+02 1.0000000000000000e+00 1.4930125232344189e+01 1.2589058268841125e+01 4.5505803098534399e+00 
171 1 2 9.9343687633607158e-01 -6.4830947498715466e+02 1.0000000000000000e+00 1.5002944134140607e+01 1.2762768640253578e+01 4.9314006671027828e+00 
177 1 2 9.9358457375477993e-01 -6.2826908672215222e+02 1.0000000000000000e+00 1.4988096700769326e+01 1.2780690429943597e+01 4.9287084163783552e+00 
98 1 2 1.0166394432185262e+00 -4.3507854862307863e+02 1.0000000000000000e+00 1.3336008359201816e+01 1.3305670585042101e+01 6.5227128503291807e+00 
140 1 2 1.0125380352862217e+00 -4.9048970924086115e+02 1.0000000000000000e+00 1.3569798953377470e+01 1.3507006607681665e+01 6.5616839134563163e+00 
104 1 2 1.0119327816377244e+00 -4.1936877961692551e+02 1.0000000000000000e+00 1.3588790596877464e+01 1.3482766449937731e+01 6.5590595809312413e+00 
106 1 2 1.0114776600249766e+00 -3.5583511664353080e+02 1.0000000000000000e+00 1.3603151766754086e+01 1.3464009108895871e+01 6.5568771781628774e+00 
100 1 2 1.0114624644325090e+00 -3.8063188748489472e+02 1.0000000000000000e+00 1.3603539033001690e+01 1.3463230571011614e+01 6.5568434065366388e+00 
105 1 2 1.0116298870464635e+00 -4.4670684367703598e+02 1.0000000000000000e+00 1.3598403237945247e+01 1.3470435450017408e+01 6.5575992399790897e+00 
141 1 2 1.0115716972442002e+00 -4.9644521834834370e+02 1.0000000000000000e+00 1.3600265511894667e+01 1.3468059240511051e+01 6.5573038157161339e+00 
99 1 2 1.0124020754202629e+00 -4.8945827747754703e+02 1.0000000000000000e+00 1.3552124408819383e+01 1.3466286635579699e+01 6.5699187758706392e+00 
135 1 2 1.0132198248953754e+00 -4.5992932581024581e+02 1.0000000000000000e+00 1.3498689086965413e+01 1.3441329426881698e+01 6.5784200792596925e+00 
113 1 2 1.0280000000000358e+00 -3.7464733243309757e+02 1.0000000000000000e+00 1.3526074341614251e+01 1.9303921116130304e+01 1.1472031173760012e+01 
107 1 2 1.0279999999999418e+00 -3.9806266882858961e+02 1.0000000000000000e+00 1.3681808183089910e+01 1.9332729983311125e+01 1.1743850913013821e+01 
108 1 2 1.0280000000000056e+00 -3.7204840487664802e+02 1.0000000000000000e+00 1.3668018428618621e+01 1.9199718239750101e+01 1.2096276506598812e+01 
180 1 2 1.0279999999999363e+00 -6.3604077881513558e+02 1.0000000000000000e+00 1.3627239186318565e+01 1.9207566399124701e+01 1.2142859105364979e+01 
78 1 2 1.0279999999999971e+00 -5.5425136948942293e+02 1.0000000000000000e+00 1.3593183196574072e+01 1.9180227395159765e+01 1.2186586100611665e+01 
144 1 2 1.0279999999999787e+00 -4.6626924434041211e+02 1.0000000000000000e+00 1.3562585879862480e+01 1.9075268452155466e+01 1.2229441039512832e+01 
114 1 2 1.0279999999999991e+00 -5.4075944774773507e+02 1.0000000000000000e+00 1.3484574514879824e+01 1.8977079626611523e+01 1.2266761150793942e+01 
95 1 2 8.9131642251593612e-01 -4.2375202683304389e+02 1.0000000000000000e+00 1.4305859278775513e+01 1.2832780018498703e+01 1.4732408970206890e+01 
102 1 2 8.9131642251593612e-01 -4.4937038055491411e+02 1.0000000000000000e+00 1.4305859278775433e+01 1.2832780018498703e+01 1.4732408970206961e+01 
101 1 2 8.9131642251593612e-01 -4.4152579356234810e+02 1.0000000000000000e+00 1.4305859278775513e+01 1.2832780018498703e+01 1.4732408970206890e+01 
137 1 2 8.9131642251593612e-01 -3.9942356553416016e+02 1.0000000000000000e+00 1.4305859278775396e+01 1.2832780018498703e+01 1.4732408970206929e+01 
173 1 2 8.9131642251593612e-01 -3.9813314704473453e+02 1.0000000000000000e+00 1.4305859278775369e+01 1.2832780018498703e+01 1.4732408970206876e+01 
172 1 2 8.9131642251593612e-01 -3.9656222487264756e+02 1.0000000000000000e+00 1.4305859278775396e+01 1.2832780018498703e+01 1.4732408970206953e+01 
136 1 2 8.9131642251593612e-01 -3.9507260043589429e+02 1.0000000000000000e+00 1.4305859278775513e+01 1.2832780018498703e+01 1.4732408970206869e+01 
142 1 2 8.9131642251593612e-01 -4.2355603158925408e+02 1.0000000000000000e+00 1.4305859278775369e+01 1.2832780018498703e+01 1.4732408970206816e+01 
138 1 2 8.9131642251593612e-01 -4.3090763754176396e+02 1.0000000000000000e+00 1.4305859278775506e+01 1.2832780018498703e+01 1.4732408970206881e+01 
174 1 2 8.9131642251593612e-01 -4.3616725145123377e+02 1.0000000000000000e+00 1.4305859278775396e+01 1.2832780018498703e+01 1.4732408970206953e+01 
168 1 2 8.9131642251593612e-01 -4.6342808732044125e+02 1.0000000000000000e+00 1.4305859278775396e+01 1.2832780018498703e+01 1.4732408970206874e+01 
96 1 2 8.9131642251593612e-01 -4.3826425521385511e+02 1.0000000000000000e+00 1.4305859278775396e+01 1.2832780018498703e+01 1.4732408970206881e+01 

Velocities

5 -6.9404630670530298e-16 -2.0724993880783433e-16 1.8507901512141427e-15
42 -6.9404630670530298e-16 2.8436619510842338e-16 1.8507901512141427e-15
41 -6.9404630670530298e-16 2.8436619510842338e-16 1.8507901512141427e-15
12 6.9404630670530298e-16 -2.0724993880783379e-16 -1.8507901512141427e-15
6 6.9404630670530298e-16 5.3017426206655542e-17 -1.8507901512141427e-15
1 6.9404630670530298e-16 -2.0724993880783379e-16 -1.8507901512141427e-15
34 6.4228533959362051e-323 1.6018333959467810e-14 3.1146760476743413e-15
3 6.4228533959362051e-323 1.6018333959467810e-14 -3.0034376174002452e-15
33 6.4228533959362051e-323 -1.4016042214534340e-14 1.4460995935630842e-15
2 6.4228533959362051e-323 -4.0045834898669391e-15 -3.0034376174002629e-15
4 6.4228533959362051e-323 -1.4016042214534340e-14 1.4460995935630842e-15
11 -2.1231872098422243e-16 -5.2470082178788794e-16 -1.1293959786908872e-15
52 2.4089832766909479e-16 1.3630981558473572e-15 2.6581000303606802e-15
59 -1.9317564456959168e-16 -4.4337661687349514e-16 -9.7085768756033680e-16
16 -1.5251827209467861e-16 -3.9725645315682000e-16 -8.4712299653442567e-16
48 -2.1570852365075837e-16 -5.2258036337336076e-16 -1.1301208187021703e-15
47 -1.9958805686972194e-16 -4.6400045356122466e-16 -1.0101706174303758e-15
53 -1.8969211773425271e-16 -4.2386224110494839e-16 -9.3066531991335551e-16
17 2.5569137855714527e-16 1.4001220407162113e-15 2.7389237287362536e-15
39 -8.4417987783518206e-18 -4.2727273819633540e-16 -7.6183309627799582e-16
82 3.2160006225451401e-16 -2.0088944392797000e-15 -3.2466000006320546e-15
46 -5.9816608224005498e-16 2.3944260409498438e-15 3.6693488914147855e-15
75 1.4426370221107092e-16 -1.1590889237672371e-15 -1.9114873555827626e-15
10 -9.0248783075826966e-16 7.4107299913022601e-16 4.1232612998190727e-16
76 -5.1831507163001787e-16 2.0161614041059308e-15 3.0764640689247920e-15
40 -4.5477714983898933e-16 1.7096122654770717e-15 2.5940658974505206e-15
81 4.8433213317595532e-16 -2.7880147591700158e-15 -4.4703506380735043e-15
45 -1.5910492888822385e-16 2.9290502520766016e-16 3.6909645933626044e-16
15 2.5459526081909217e-15 -1.1929243686298719e-15 2.9863781953722304e-16
9 -1.8844401402157062e-16 4.3457424746659628e-16 5.9164148365545730e-16
56 2.6471539553782056e-05 1.5555773195035347e-05 1.1914598430745266e-04
61 2.6471539553782056e-05 1.5555773195035347e-05 1.1914598430745266e-04
67 2.6471539553782056e-05 1.5555773195035347e-05 1.1914598430745266e-04
97 2.6471539553782056e-05 1.5555773195035347e-05 1.1914598430745266e-04
31 2.6471539553782056e-05 1.5555773195035347e-05 1.1914598430745266e-04
103 2.6471539553782056e-05 1.5555773195035347e-05 1.1914598430745266e-04
25 2.6471539553782056e-05 1.5555773195035347e-05 1.1914598430745266e-04
68 2.6471539553782056e-05 1.5555773195035347e-05 1.1914598430745266e-04
32 2.6471539553782056e-05 1.5555773195035347e-05 1.1914598430745266e-04
26 2.6471539553782056e-05 1.5555773195035347e-05 1.1914598430745266e-04
20 2.6471539553782056e-05 1.5555773195035347e-05 1.1914598430745266e-04
62 2.6471539553782056e-05 1.5555773195035347e-05 1.1914598430745266e-04
7 2.6467879030989134e-05 1.5565274418075578e-05 1.1914544191421232e-04