LAMMPS data file via write_data, version 30 Jul 2016, timestep = 100400000

622 atoms
2 atom types

0.0000000000000000e+00 2.0000000000000000e+01 xlo xhi
0.0000000000000000e+00 2.0000000000000000e+01 ylo yhi
0.0000000000000000e+00 2.0000000000000000e+01 zlo zhi

Masses

1 4.31
2 3.896

Atoms # meso-molecular

278 0 1 1.0279988173323169e+00 -4.7672540495380096e+00 1.0000000000000000e+00 6.0752869147972026e+00 8.6841032784955736e+00 5.0361103479845131e+00 
532 0 1 1.0279988191245346e+00 -4.6448109519740065e+01 1.0000000000000000e+00 6.0752328129382978e+00 8.6842468456414732e+00 5.0360888472629632e+00 
153 0 1 1.0279988167084662e+00 -5.3322202681421182e+01 1.0000000000000000e+00 6.0752643864214617e+00 8.6841605294259470e+00 5.0361023225663883e+00 
531 0 1 1.0279988175154646e+00 -3.0523202202104258e+01 1.0000000000000000e+00 6.0752599113680663e+00 8.6841150138355214e+00 5.0361218364909686e+00 
467 0 1 1.0279988159802851e+00 -1.6174627736004222e+01 1.0000000000000000e+00 6.0752831762265913e+00 8.6840221214450857e+00 5.0361426504019784e+00 
517 0 1 1.0279988158055100e+00 -2.9970227350028100e+01 1.0000000000000000e+00 6.0752943270077280e+00 8.6840171022674806e+00 5.0361379708459406e+00 
563 0 1 1.0279988162161768e+00 -4.7400922330281880e+01 1.0000000000000000e+00 6.0755021856911302e+00 8.6840509784388740e+00 5.0360035041091757e+00 
160 0 1 1.0279988173414825e+00 -4.9631607805322545e+01 1.0000000000000000e+00 6.0752045849304377e+00 8.6841626622238604e+00 5.0361366202370492e+00 
284 0 1 1.0279856073194678e+00 -6.9859012155691982e+00 1.0000000000000000e+00 4.7058207263065155e+00 6.0508711183291322e+00 7.8534893082581725e+00 
221 0 1 1.0279856382027006e+00 -1.3097971738016621e+01 1.0000000000000000e+00 4.7028367906217383e+00 6.0524451976245999e+00 7.8587527847726326e+00 
562 0 1 1.0279856243155161e+00 -5.2801753170119952e+01 1.0000000000000000e+00 4.7029447679875203e+00 6.0535235652954063e+00 7.8579845742126828e+00 
336 0 1 1.0279856009656010e+00 -5.2145701269248910e+01 1.0000000000000000e+00 4.7075746041132254e+00 6.0490520728688093e+00 7.8509025571397695e+00 
558 0 1 1.0279856401551839e+00 -3.5193350369407852e+01 1.0000000000000000e+00 4.7007786766566335e+00 6.0554452868196087e+00 7.8614811406981335e+00 
570 0 1 1.0279856516624384e+00 -5.3559097389340934e+01 1.0000000000000000e+00 4.6967938349322989e+00 6.0607120280603164e+00 7.8672178749322823e+00 
624 0 1 1.0280042908517586e+00 -7.0735918692818757e+01 1.0000000000000000e+00 5.7520455276748752e+00 5.7296549449881402e+00 8.9924595794642528e+00 
479 0 1 1.0280058345200134e+00 -3.4251661597928184e+01 1.0000000000000000e+00 5.8103965059502150e+00 5.5463253062015578e+00 8.6377279334618855e+00 
572 0 1 1.0279965957245727e+00 -6.2678635257191310e+01 1.0000000000000000e+00 4.7175238061200666e+00 5.9517289124211690e+00 8.4848947443896154e+00 
251 0 1 1.0280063095560383e+00 -3.5508582701891669e+01 1.0000000000000000e+00 6.1897617920348003e+00 5.5845930896011637e+00 8.3656830163312836e+00 
271 0 1 1.0280043560163339e+00 -7.6871654822770719e+00 1.0000000000000000e+00 6.2628936558503066e+00 5.9871725668600089e+00 7.5356886549874726e+00 
524 0 1 1.0280010968634892e+00 -4.1212850131663252e+01 1.0000000000000000e+00 3.0713887515959200e+00 9.8404490537749272e+00 9.9669482835606189e+00 
332 0 1 1.0279723883964795e+00 -2.1047991725720056e+01 1.0000000000000000e+00 5.2612523259660646e+00 8.8127737564580624e+00 9.2796790628834938e+00 
634 0 1 1.0278317279693052e+00 -3.8102353014790822e+01 1.0000000000000000e+00 5.9168684576424644e+00 8.1178219827942861e+00 7.1607716494810134e+00 
249 0 1 1.0282105291969221e+00 -2.0464921577583628e+01 1.0000000000000000e+00 5.9883307888379838e+00 8.0199943054977414e+00 9.9271288356190936e+00 
163 0 1 1.0280342822915880e+00 -6.9308800376795929e+01 1.0000000000000000e+00 5.9654532170407881e+00 8.0125399142526987e+00 9.9317930888225145e+00 
315 0 1 1.0280014694526374e+00 -4.6893846527319653e+01 1.0000000000000000e+00 5.0345256581228952e+00 6.3633725353116422e+00 1.2492969866097484e+01 
285 0 1 1.0280014708971270e+00 -1.0043996630464404e+01 1.0000000000000000e+00 5.0318064463492522e+00 6.3658029614146248e+00 1.2488750665132397e+01 
429 0 1 1.0280015495964734e+00 -1.6238384527929025e+01 1.0000000000000000e+00 5.0424091651136402e+00 6.3575139310731084e+00 1.2511530686935432e+01 
63 0 1 1.0280015413324646e+00 -4.3671495643916039e+01 1.0000000000000000e+00 5.0392711671656052e+00 6.3599724933104618e+00 1.2505685235336387e+01 
372 0 1 1.0280014550968612e+00 -3.5186481960570966e+01 1.0000000000000000e+00 5.0331043040585923e+00 6.3645194857753093e+00 1.2489753688755194e+01 
6 0 1 1.0280015562583649e+00 -7.6351089746903199e+01 1.0000000000000000e+00 5.0417611727329010e+00 6.3580978912626671e+00 1.2510895292205852e+01 
65 0 1 1.0280015494152510e+00 -4.0474161737373208e+01 1.0000000000000000e+00 5.0419019374655178e+00 6.3579165469320067e+00 1.2510659973776969e+01 
14 0 1 1.0280015249538874e+00 -8.5336670921356230e+01 1.0000000000000000e+00 5.0349357456074273e+00 6.3634880538764431e+00 1.2497473642543234e+01 
328 0 1 1.0279994860158255e+00 -5.3158473928738658e+01 1.0000000000000000e+00 3.2329854315261479e+00 9.8540581515543817e+00 1.0324356332642985e+01 
326 0 1 1.0280004807875165e+00 -5.3975914055214439e+01 1.0000000000000000e+00 3.1120148660380305e+00 9.8731368781023985e+00 1.0098936796920098e+01 
580 0 1 1.0279990370482066e+00 -5.3236898168913861e+01 1.0000000000000000e+00 3.2843144402814808e+00 9.7919599870647556e+00 1.0373950759644456e+01 
557 0 1 1.0279990250891389e+00 -3.6015151793406879e+01 1.0000000000000000e+00 3.2853219123053408e+00 9.7893055114225760e+00 1.0374016644608494e+01 
97 0 1 1.0279989953970003e+00 -5.2597417105126326e+01 1.0000000000000000e+00 3.2886522434379932e+00 9.7897515592577822e+00 1.0379121327563199e+01 
327 0 1 1.0279989526142062e+00 -4.9450352987047765e+01 1.0000000000000000e+00 3.2932025527743938e+00 9.7875780001428119e+00 1.0384558542503068e+01 
129 0 1 1.0275893802039933e+00 -2.2607952932398394e+01 1.0000000000000000e+00 5.5267035994480134e+00 8.6019174574145651e+00 1.0871621503885036e+01 
412 0 1 1.0281945686191420e+00 -3.7059744987713991e+01 1.0000000000000000e+00 5.7476456051177598e+00 8.9025323453451897e+00 1.1171420741399066e+01 
189 0 1 1.0278702997823310e+00 -4.3014746236062962e+01 1.0000000000000000e+00 5.6117048121515891e+00 7.5708946144977434e+00 1.0257657126457596e+01 
311 0 1 1.0280020210070784e+00 -1.6791011068795900e+01 1.0000000000000000e+00 5.2948675057077974e+00 9.8867730230107629e+00 1.4640306132883749e+01 
165 0 1 1.0279899395877332e+00 -5.4011171818930237e+01 1.0000000000000000e+00 5.9906487252522647e+00 7.5442949420080154e+00 1.3575327679646557e+01 
500 0 1 1.0280291938692225e+00 -3.7011740901638127e+01 1.0000000000000000e+00 6.2900602088723998e+00 9.5884886837860908e+00 1.3868580469453843e+01 
377 0 1 1.0279888771838013e+00 -2.5879626050449144e+01 1.0000000000000000e+00 6.0594413047928795e+00 7.5504363880034697e+00 1.3597203583419136e+01 
113 0 1 1.0280040759297726e+00 -5.4954186558352035e+01 1.0000000000000000e+00 5.9341541203135169e+00 1.0302552033418786e+01 6.0978186090610249e+00 
302 0 1 1.0280017727671322e+00 -4.2220724937969614e+01 1.0000000000000000e+00 3.1878598101853446e+00 1.0185969591219578e+01 8.4822630337532754e+00 
371 0 1 1.0280015339644699e+00 -2.2015744463240559e+01 1.0000000000000000e+00 3.1995671222044533e+00 1.0211643629954805e+01 8.4557252217028314e+00 
279 0 1 1.0280102674377340e+00 -2.0675729401277252e+01 1.0000000000000000e+00 4.4002696312511116e+00 1.0751315209471791e+01 7.4295020715224958e+00 
350 0 1 1.0280084552497595e+00 -3.9138005645764515e+01 1.0000000000000000e+00 4.5837918379246192e+00 1.0872328223611277e+01 7.4108422542535868e+00 
47 0 1 1.0280102391916988e+00 -4.1936279566180481e+01 1.0000000000000000e+00 4.3938059771358642e+00 1.0750100851305900e+01 7.4322010306895949e+00 
217 0 1 1.0280102711320229e+00 -4.9123859594020210e+01 1.0000000000000000e+00 4.3994895261583880e+00 1.0750836649160910e+01 7.4296720906498788e+00 
87 0 1 1.0280101529662464e+00 -4.7399187055077711e+01 1.0000000000000000e+00 4.3700843088286359e+00 1.0745471352619218e+01 7.4421963421387511e+00 
28 0 1 1.0280103461056060e+00 -7.7606426141322302e+01 1.0000000000000000e+00 4.4192006125337144e+00 1.0753753474371813e+01 7.4211808941347632e+00 
58 0 1 1.0277853270060238e+00 -4.3195307332319182e+01 1.0000000000000000e+00 6.4563102906624499e+00 1.1387025340445177e+01 7.6350055311894751e+00 
644 0 1 1.0280016274278956e+00 -7.5397306033293646e+01 1.0000000000000000e+00 3.3839567435498004e+00 1.0375714811502998e+01 8.1640377842717502e+00 
193 0 1 1.0279396238959693e+00 -1.2495531339518458e+01 1.0000000000000000e+00 4.6978916203071375e+00 1.1489745904504199e+01 9.7092660277102798e+00 
182 0 1 1.0279947202131454e+00 -3.2973126199908016e+01 1.0000000000000000e+00 5.5818599464012228e+00 1.3088074015420304e+01 9.9871604193478252e+00 
571 0 1 1.0279996343165436e+00 -5.0627407615145174e+01 1.0000000000000000e+00 5.0283518494539940e+00 1.4884465998970425e+01 6.9910825118570097e+00 
75 0 1 1.0279925583259399e+00 -4.4724858157125482e+01 1.0000000000000000e+00 5.1086308294256737e+00 1.5148595634814656e+01 7.3428000116369407e+00 
614 0 1 1.0279996572073571e+00 -3.1422793387232051e+01 1.0000000000000000e+00 5.0280912943422686e+00 1.4883856916167025e+01 6.9911068652776720e+00 
481 0 1 1.0279996482224270e+00 -2.6627025600268340e+01 1.0000000000000000e+00 5.0281499530439815e+00 1.4884115271699500e+01 6.9911651606356680e+00 
376 0 1 1.0280604619576235e+00 -1.3236411026176199e+01 1.0000000000000000e+00 5.8328075034666869e+00 1.4071338768912161e+01 8.8887060385272694e+00 
352 0 1 1.0279995416747263e+00 -2.5378279193873585e+01 1.0000000000000000e+00 5.0287414373336645e+00 1.4887357139316920e+01 6.9921088495707888e+00 
273 0 1 1.0279996581948088e+00 -4.1098650652471555e+01 1.0000000000000000e+00 5.0280251199093948e+00 1.4883830585334763e+01 6.9911808135714804e+00 
430 0 1 1.0279996179362862e+00 -1.1638056122468941e+01 1.0000000000000000e+00 5.0282927651628926e+00 1.4885074872584688e+01 6.9914834115428617e+00 
299 0 1 1.0279995563557685e+00 -1.2576471074527060e+01 1.0000000000000000e+00 5.0286750454441869e+00 1.4886912869594022e+01 6.9919578045557431e+00 
459 0 1 1.0279996674507710e+00 -1.9019357127038322e+01 1.0000000000000000e+00 5.0280700306527617e+00 1.4883513032406398e+01 6.9909542686296673e+00 
337 0 1 1.0280112848533978e+00 -4.9992827391461596e+01 1.0000000000000000e+00 4.2313059116342924e+00 1.0703700109179106e+01 1.2636507002352149e+01 
441 0 1 1.0280086875030423e+00 -3.0091051763217685e+01 1.0000000000000000e+00 4.3049520022254946e+00 1.1004971180126422e+01 1.2697006665621386e+01 
460 0 1 1.0280097080366524e+00 -1.4040281851425737e+01 1.0000000000000000e+00 4.2652535261291984e+00 1.0938731174181322e+01 1.2710164608960872e+01 
496 0 1 1.0286111519914758e+00 -5.0201277083215516e+01 1.0000000000000000e+00 5.9194998547378184e+00 1.1404608191007574e+01 1.1158342765426740e+01 
529 0 1 1.0277951680129156e+00 -2.0003556298365986e+01 1.0000000000000000e+00 6.3977874882227539e+00 1.1785826185283035e+01 1.1724972874425227e+01 
586 0 1 1.0277333655558767e+00 -2.7857458464674412e+01 1.0000000000000000e+00 5.4114766203357716e+00 1.1559431222174165e+01 1.1602525976012378e+01 
582 0 1 1.0279908387922432e+00 -6.8581358270440774e+01 1.0000000000000000e+00 5.4106166247950389e+00 1.3007325807495278e+01 1.0197609650383672e+01 
197 0 1 1.0279868154930607e+00 -3.2910248884357500e+01 1.0000000000000000e+00 4.4516411122585051e+00 1.3704836790413294e+01 1.1052358033881267e+01 
579 0 1 1.0279862173394660e+00 -3.4898876180681683e+01 1.0000000000000000e+00 4.3950273664637356e+00 1.3732497253879810e+01 1.1252363996856454e+01 
206 0 1 1.0280156305270702e+00 -1.6748430855427138e+01 1.0000000000000000e+00 4.9793852933108598e+00 1.5499233191112708e+01 1.1965198943139729e+01 
394 0 1 1.0280156342126854e+00 -3.5688314113780088e+01 1.0000000000000000e+00 4.9807708707229148e+00 1.5499658459305463e+01 1.1965635033528351e+01 
385 0 1 1.0280156318958389e+00 -2.0587499197729759e+01 1.0000000000000000e+00 4.9798409078016030e+00 1.5499409251845625e+01 1.1965262142290563e+01 
143 0 1 1.0280156365336455e+00 -2.4014912652836379e+01 1.0000000000000000e+00 4.9813250426872653e+00 1.5500011599651867e+01 1.1965401103525142e+01 
568 0 1 1.0280156305476400e+00 -9.8126197186753615e+01 1.0000000000000000e+00 4.9794266038514783e+00 1.5499237240646121e+01 1.1965231208747598e+01 
54 0 1 1.0279913901143072e+00 -3.7308760053949037e+01 1.0000000000000000e+00 4.2649731047754731e+00 1.4196930419276651e+01 1.1290950363950030e+01 
36 0 1 1.0280154323031119e+00 -4.7848111194360435e+01 1.0000000000000000e+00 5.0491877261818914e+00 1.5466805751676130e+01 1.2084679248414187e+01 
591 0 1 1.0279909268029399e+00 -3.1734582311431069e+01 1.0000000000000000e+00 4.2704012799764062e+00 1.4163759139880636e+01 1.1289933020713452e+01 
480 0 1 1.0279918015504195e+00 -3.1356060015674942e+01 1.0000000000000000e+00 4.2664265311485527e+00 1.4223243900061716e+01 1.1258975510433753e+01 
90 0 1 1.0280494802745508e+00 -6.2958914303765788e+01 1.0000000000000000e+00 6.3697026325894761e+00 1.4759788789548738e+01 1.0127345860693188e+01 
333 0 1 1.0280151796189871e+00 -2.6313160771996724e+01 1.0000000000000000e+00 6.4762771852367775e+00 1.4840815028040256e+01 1.2929531223267487e+01 
313 0 1 1.0280636160414192e+00 -2.1866680085809648e+01 1.0000000000000000e+00 6.3197585796194771e+00 1.2386428252704624e+01 1.3367074630355942e+01 
310 0 1 1.0280028749667505e+00 -2.6693245109590720e+01 1.0000000000000000e+00 3.9672747180143340e+00 1.0615380122792414e+01 1.4503222937020784e+01 
434 0 1 1.0280028755055657e+00 -4.3797539725970005e+01 1.0000000000000000e+00 3.9673446352250585e+00 1.0615676674254729e+01 1.4503325147859773e+01 
295 0 1 1.0280028765303000e+00 -2.4522645852101803e+01 1.0000000000000000e+00 3.9674332872075970e+00 1.0616112941414039e+01 1.4503454527713876e+01 
347 0 1 1.0280028770179730e+00 -3.8284372182626139e+00 1.0000000000000000e+00 3.9675521866796917e+00 1.0616543760544403e+01 1.4503627243394330e+01 
92 0 1 1.0280028785572493e+00 -5.4164042803007916e+01 1.0000000000000000e+00 3.9680870224487945e+00 1.0618040471527811e+01 1.4504399471355478e+01 
465 0 1 1.0280028768204406e+00 -1.4189645373389556e+01 1.0000000000000000e+00 3.9675781906028624e+00 1.0616626802467723e+01 1.4503664948323458e+01 
230 0 1 1.0280028732126125e+00 -3.4043206600687128e+01 1.0000000000000000e+00 3.9680923763154849e+00 1.0616894536347445e+01 1.4504408722547227e+01 
387 0 1 1.0280018746722899e+00 -1.2806657743841924e+01 1.0000000000000000e+00 5.5683231651407770e+00 1.0007823312593350e+01 1.4687309239230773e+01 
543 0 1 1.0279993051867282e+00 -2.4349721618162100e+01 1.0000000000000000e+00 6.1290599297861403e+00 1.3486894824859588e+01 1.5637589496932284e+01 
253 0 1 1.0279989396405107e+00 -3.6528408460658639e+01 1.0000000000000000e+00 6.1475620278067717e+00 1.3531355235082003e+01 1.5562753360925711e+01 
513 0 1 1.0279873923063239e+00 -4.3291765282006033e+01 1.0000000000000000e+00 6.4133169259933238e+00 1.3795913824785515e+01 1.4594954751164035e+01 
127 0 1 1.0279978170641799e+00 -5.6572015399909041e+01 1.0000000000000000e+00 6.2186409683325943e+00 1.3655169472144649e+01 1.5301123327197866e+01 
395 0 1 1.0279994384999183e+00 -2.6054393114730164e+01 1.0000000000000000e+00 6.1378253205309354e+00 1.3486705949103559e+01 1.5668089752770909e+01 
526 0 1 1.0279989964639835e+00 -5.3546748393222181e+01 1.0000000000000000e+00 6.1449683565479498e+00 1.3525300321040053e+01 1.5573843559421620e+01 
282 0 1 1.0279743578449396e+00 -1.4456818513618341e+01 1.0000000000000000e+00 6.4566709544234939e+00 1.3753153649990798e+01 1.4342041696865794e+01 
431 0 1 1.0279458296651542e+00 -1.8694946779368340e+01 1.0000000000000000e+00 6.5217355309304148e+00 1.3569405395198768e+01 1.3968759214991103e+01 
287 0 1 1.0280000051388620e+00 -4.4299452452161098e+01 1.0000000000000000e+00 6.5345256362306463e+00 1.2046893840194564e+01 1.6881460813520889e+01 
498 0 1 1.0279926507721431e+00 -5.4274640320563805e+01 1.0000000000000000e+00 1.0259858290115096e+01 8.7052109695573758e+00 3.1704912419318512e+00 
539 0 1 1.0279926968843562e+00 -5.5572963561924936e+01 1.0000000000000000e+00 1.0271967993850740e+01 8.6898809329643836e+00 3.1647659352351636e+00 
338 0 1 1.0279932558351792e+00 -2.2427052103525337e+01 1.0000000000000000e+00 1.0349975766777225e+01 8.5767937232327647e+00 3.1343936331468587e+00 
110 0 1 1.0279951343291565e+00 -2.7425216294296739e+01 1.0000000000000000e+00 1.0228551397588424e+01 8.9349602192901347e+00 3.2740238886324970e+00 
471 0 1 1.0280091218014562e+00 -2.7242441230409415e+01 1.0000000000000000e+00 9.0982275276768991e+00 5.1909073117946143e+00 5.9642304744398214e+00 
623 0 1 1.0280091222067611e+00 -7.1012430248792128e+01 1.0000000000000000e+00 9.0983832940195359e+00 5.1911397553040031e+00 5.9639332912559313e+00 
243 0 1 1.0280091245437166e+00 -4.4182364330213105e+01 1.0000000000000000e+00 9.0998282279348039e+00 5.1935981200172456e+00 5.9609275183123547e+00 
31 0 1 1.0280094238662778e+00 -3.5899131643092716e+01 1.0000000000000000e+00 9.1180731700126216e+00 5.1689535388921346e+00 5.9725083360026412e+00 
493 0 1 1.0280095527519644e+00 -3.8319126922063518e+01 1.0000000000000000e+00 9.1275222756462711e+00 5.1620264439861145e+00 5.9736353406752487e+00 
308 0 1 1.0280090747188837e+00 -2.2055888354579320e+01 1.0000000000000000e+00 9.0908573858507822e+00 5.1695638846012679e+00 5.9884025508351471e+00 
133 0 1 1.0280089545580322e+00 -3.8046951586717597e+01 1.0000000000000000e+00 9.0842353954054005e+00 5.1501071713157689e+00 6.0122985043733994e+00 
422 0 1 1.0280102422932684e+00 -3.3012992555287916e+01 1.0000000000000000e+00 9.1806478521267767e+00 5.1520844086215218e+00 5.9552057123252835e+00 
547 0 1 1.0283858709370908e+00 -4.3200105442697058e+01 1.0000000000000000e+00 8.8962046159646491e+00 9.6273881683284621e+00 5.8423639989229699e+00 
356 0 1 1.0279968721152077e+00 -2.4129578695015525e+01 1.0000000000000000e+00 9.4941622432083914e+00 8.0668777522558770e+00 4.0347426713030732e+00 
179 0 1 1.0276356907673130e+00 -2.1400798127249178e+01 1.0000000000000000e+00 8.8287851651924818e+00 9.4833829249023349e+00 5.4577356879792909e+00 
117 0 1 1.0279702651316380e+00 -1.6535736185401142e+01 1.0000000000000000e+00 8.0476554856725642e+00 9.3416094417602444e+00 5.1768117058379346e+00 
475 0 1 1.0279966174067721e+00 -3.9895352001660406e+01 1.0000000000000000e+00 1.0140607868080732e+01 9.0603429833172342e+00 3.3664038982395099e+00 
40 0 1 1.0280064546000252e+00 -3.6104580625848342e+01 1.0000000000000000e+00 1.0669964490944928e+01 7.7187610099937833e+00 3.5237031726311985e+00 
390 0 1 1.0280063986534722e+00 -8.4616708587785379e+00 1.0000000000000000e+00 1.0664538636042201e+01 7.7173773295132255e+00 3.5236286211127958e+00 
504 0 1 1.0280625845556235e+00 -3.4246895844198875e+01 1.0000000000000000e+00 1.0159476694855750e+01 7.0021538836084956e+00 6.1336912915129860e+00 
564 0 1 1.0280227646996158e+00 -4.8913970367861843e+01 1.0000000000000000e+00 1.0331614050147014e+01 7.3805455404761764e+00 4.4395021044740357e+00 
577 0 1 1.0280094581132604e+00 -4.6169350443268826e+01 1.0000000000000000e+00 1.0591774433182506e+01 7.5756812601065135e+00 3.7319922871108968e+00 
274 0 1 1.0279741147856463e+00 -3.9311360155320955e+01 1.0000000000000000e+00 1.2344789889346250e+01 7.8976846042262290e+00 5.9608845390298484e+00 
192 0 1 1.0279750872805864e+00 -1.9472600311598914e+01 1.0000000000000000e+00 1.2294097249935261e+01 7.9123278827148571e+00 5.9767371646745993e+00 
71 0 1 1.0279758910881616e+00 -7.6496466572042337e+01 1.0000000000000000e+00 1.2275529266929857e+01 7.9180725509460448e+00 5.9774344395455881e+00 
157 0 1 1.0280126553107365e+00 -3.6962298413994866e+01 1.0000000000000000e+00 1.1181246116693869e+01 7.9468491260266170e+00 3.6290655520598984e+00 
124 0 1 1.0280122975892947e+00 -2.3969020931477644e+01 1.0000000000000000e+00 1.3233670876997886e+01 9.4546491564196806e+00 4.7184111771737500e+00 
629 0 1 1.0280170681972327e+00 -3.3273821904522862e+01 1.0000000000000000e+00 8.7279436158048380e+00 4.5131243979966253e+00 9.5980964790486336e+00 
537 0 1 1.0279962863596055e+00 -2.7548426635247214e+01 1.0000000000000000e+00 9.0584311252368384e+00 5.4868930436930130e+00 7.9854416410496487e+00 
101 0 1 1.0277566876475872e+00 -2.1530195942125573e+01 1.0000000000000000e+00 7.9580725482593344e+00 6.3894216861470401e+00 8.8529245384839523e+00 
550 0 1 1.0280912101733657e+00 -2.5441835205361123e+01 1.0000000000000000e+00 8.0771977825592511e+00 6.5726849458206695e+00 9.1091716781381180e+00 
329 0 1 1.0279954575789620e+00 -6.7856942700300635e+01 1.0000000000000000e+00 7.7534219317062396e+00 6.5007116000695424e+00 7.3474680993823673e+00 
171 0 1 1.0280065153530005e+00 -3.0060979687583899e+01 1.0000000000000000e+00 1.2123543353777830e+01 4.6212096035745871e+00 6.8577783784255431e+00 
391 0 1 1.0279962192349215e+00 -2.2191181675956521e+01 1.0000000000000000e+00 1.0163734687365269e+01 5.8064314339444056e+00 7.9936811206122904e+00 
616 0 1 1.0280065644713188e+00 -4.5898500951947952e+01 1.0000000000000000e+00 1.2120566516314263e+01 4.6327026946660599e+00 6.8488399803796653e+00 
592 0 1 1.0280065602519264e+00 -3.4275841595274883e+01 1.0000000000000000e+00 1.2120898728075082e+01 4.6327326147650858e+00 6.8487702110326403e+00 
602 0 1 1.0280065575885651e+00 -4.6250597780897799e+01 1.0000000000000000e+00 1.2121133557742002e+01 4.6330915046304506e+00 6.8484504577817944e+00 
425 0 1 1.0280065488932457e+00 -1.8223934338812001e+01 1.0000000000000000e+00 1.2121825884020318e+01 4.6333272191349808e+00 6.8481672660372475e+00 
458 0 1 1.0279975238069148e+00 -1.3437943914237195e+01 1.0000000000000000e+00 1.2917051774281511e+01 4.5114849207589298e+00 7.0677059546821122e+00 
495 0 1 1.0279961593317297e+00 -4.3368487524646511e+01 1.0000000000000000e+00 1.3095253294548803e+01 4.3297699346034451e+00 7.4988623145892230e+00 
16 0 1 1.0279932497716986e+00 -4.8548031037660294e+01 1.0000000000000000e+00 1.3194913939239521e+01 4.3794770903275460e+00 7.9645162848699433e+00 
62 0 1 1.0279932559765306e+00 -3.2628394744833727e+01 1.0000000000000000e+00 1.3196194936301321e+01 4.3798520189642858e+00 7.9616377718127609e+00 
98 0 1 1.0280129077812048e+00 -6.0924548761383846e+01 1.0000000000000000e+00 1.2588309402556352e+01 5.8643018791753043e+00 9.8588309921206960e+00 
256 0 1 1.0279927251238852e+00 -2.2675955927858617e+01 1.0000000000000000e+00 1.3285521341382477e+01 5.4207989119893067e+00 9.1167916364655941e+00 
293 0 1 1.0279902409514028e+00 -1.7163086905623491e+01 1.0000000000000000e+00 1.3311333583394118e+01 5.1350555766998989e+00 8.8961922126096695e+00 
342 0 1 1.0279444107718356e+00 -1.7155274396985458e+01 1.0000000000000000e+00 7.9140438381597100e+00 8.3166159163385114e+00 6.8023205912211049e+00 
509 0 1 1.0274812576556607e+00 -2.3308868151373968e+01 1.0000000000000000e+00 7.7073167382133114e+00 8.6416526208380304e+00 8.2689543425456584e+00 
53 0 1 1.0281113963486912e+00 -3.8759714015864340e+01 1.0000000000000000e+00 7.3496529035044160e+00 9.5930557149059084e+00 7.6290372003252074e+00 
166 0 1 1.0278854334218039e+00 -5.5051086871507650e+01 1.0000000000000000e+00 9.9157214753555927e+00 7.6545744367678319e+00 8.0307736922388404e+00 
227 0 1 1.0284222000830829e+00 -1.5253837741509619e+01 1.0000000000000000e+00 7.0296654322556611e+00 7.7895025388694945e+00 7.3458528450671041e+00 
151 0 1 1.0285206096923161e+00 -3.0587354340918147e+01 1.0000000000000000e+00 9.6224455074046631e+00 7.8012394162300831e+00 8.2876632373525307e+00 
312 0 1 1.0280700864004786e+00 -2.2481880135298262e+01 1.0000000000000000e+00 9.3217581370269489e+00 9.6758278952888617e+00 9.8621846494642611e+00 
25 0 1 1.0280113393912087e+00 -3.9226027996980974e+01 1.0000000000000000e+00 9.1236589749701906e+00 7.9587399085052004e+00 8.8887072111374277e+00 
158 0 1 1.0275738471534501e+00 -3.8516033010264742e+01 1.0000000000000000e+00 7.2114853895282822e+00 9.9220756941419239e+00 9.8366277464399410e+00 
245 0 1 1.0284440163791098e+00 -8.9047165863270195e+01 1.0000000000000000e+00 9.7719852721902711e+00 7.8432480825083495e+00 9.3115073408378013e+00 
32 0 1 1.0278242639053836e+00 -4.7898292942507204e+01 1.0000000000000000e+00 1.2521639379546354e+01 7.6721522006522633e+00 8.4332484420720064e+00 
116 0 1 1.0276481392959178e+00 -2.7772877448677757e+01 1.0000000000000000e+00 1.0038523924510326e+01 7.4460731232253172e+00 7.9444007814002795e+00 
232 0 1 1.0276391709550563e+00 -5.5281472678551296e+01 1.0000000000000000e+00 1.1683163805792949e+01 9.8627560850208980e+00 9.3789603703294855e+00 
203 0 1 1.0275997517966609e+00 -4.8517170688481734e+01 1.0000000000000000e+00 1.1032606489906771e+01 8.3383302052599202e+00 7.2692715352738935e+00 
367 0 1 1.0278224057579248e+00 -8.1976702480585786e+00 1.0000000000000000e+00 1.2146600171674185e+01 9.4433099970012311e+00 8.2355638927127561e+00 
306 0 1 1.0279176953236748e+00 -7.4177667126876381e+00 1.0000000000000000e+00 1.2834721380606213e+01 6.7827923391062779e+00 7.2442155941213340e+00 
134 0 1 1.0285017507904854e+00 -3.2471068775457269e+01 1.0000000000000000e+00 1.2382943409135288e+01 7.6627731211530925e+00 7.8760441676559712e+00 
183 0 1 1.0274185974817103e+00 -1.8500264990815992e+01 1.0000000000000000e+00 1.1821352930225439e+01 9.4031085797401381e+00 9.7130666085312960e+00 
149 0 1 1.0291818445646441e+00 -4.6474964766791778e+01 1.0000000000000000e+00 1.1634022622017888e+01 9.9863976938133288e+00 7.4693839499908314e+00 
340 0 1 1.0280101496806175e+00 -1.3888780139411830e+01 1.0000000000000000e+00 8.2182184711197834e+00 4.1260409192669592e+00 1.1122706708082072e+01 
552 0 1 1.0280101542026123e+00 -4.2790261540137671e+01 1.0000000000000000e+00 8.1988791677220725e+00 4.1497244656333372e+00 1.1138244739606254e+01 
3 0 1 1.0280101171455007e+00 -7.3006789318307995e+01 1.0000000000000000e+00 8.1987049557560425e+00 4.1523034865262982e+00 1.1142051071444190e+01 
613 0 1 1.0280101098129730e+00 -4.0124365429474892e+01 1.0000000000000000e+00 8.2202518724320797e+00 4.1258559073696111e+00 1.1124723420733321e+01 
275 0 1 1.0280169624620732e+00 -2.5128507010207883e+01 1.0000000000000000e+00 8.1295376641322932e+00 4.0474141632132596e+00 1.0653338343547945e+01 
400 0 1 1.0280149531203897e+00 -5.9531111138916941e+01 1.0000000000000000e+00 8.1485619026034293e+00 4.0469830861393570e+00 1.0794509143200482e+01 
505 0 1 1.0279873203512111e+00 -3.5279688372559733e+01 1.0000000000000000e+00 9.8167385969589240e+00 4.6370379250691558e+00 1.0400155037895820e+01 
420 0 1 1.0277543199664678e+00 -5.0972111408588205e+01 1.0000000000000000e+00 7.6661336474856485e+00 6.3760704334940410e+00 1.1164251375816095e+01 
487 0 1 1.0280168654011186e+00 -6.3159119573416149e+01 1.0000000000000000e+00 8.5199458050031964e+00 3.9693144900609996e+00 1.0221283376672030e+01 
417 0 1 1.0279822410537560e+00 -3.4055097497130987e+01 1.0000000000000000e+00 9.9194849058323147e+00 4.7549347448922648e+00 1.0504190016100896e+01 
324 0 1 1.0279810431586451e+00 -6.0283559860094677e+01 1.0000000000000000e+00 9.9456763119056060e+00 4.7995481741600070e+00 1.0491812572004779e+01 
246 0 1 1.0278506442851050e+00 -5.7826769866811446e+01 1.0000000000000000e+00 8.6066750287076967e+00 6.6162959074490804e+00 1.2612735736767418e+01 
510 0 1 1.0279789029023279e+00 -3.1163680961180958e+01 1.0000000000000000e+00 9.9964836776768173e+00 4.9278245460216068e+00 1.0377039290957747e+01 
228 0 1 1.0280063900084484e+00 -1.8417899789184972e+01 1.0000000000000000e+00 1.2603962619203836e+01 3.6043604736828456e+00 1.2972077613435491e+01 
546 0 1 1.0280063697441932e+00 -3.8931395732834659e+01 1.0000000000000000e+00 1.2590490659984269e+01 3.5999916139011265e+00 1.2953221038385005e+01 
643 0 1 1.0280063647618165e+00 -5.8046928935540890e+01 1.0000000000000000e+00 1.2590151683131994e+01 3.5996345977224191e+00 1.2951579781492701e+01 
382 0 1 1.0279900212243960e+00 -3.7786899340723705e+00 1.0000000000000000e+00 1.2421040735873788e+01 5.2223971038423898e+00 1.1159626335743212e+01 
72 0 1 1.0280002313796794e+00 -5.2261976671134789e+01 1.0000000000000000e+00 1.2513164013781477e+01 4.9994023311164666e+00 1.1310595712170681e+01 
150 0 1 1.0280063397896788e+00 -3.3751504010736490e+01 1.0000000000000000e+00 1.2584117024456827e+01 3.5977351345543513e+00 1.2941906030520324e+01 
283 0 1 1.0280063336431566e+00 -8.9865065275127254e+00 1.0000000000000000e+00 1.2585580489950649e+01 3.5975491681359806e+00 1.2941215187370243e+01 
296 0 1 1.0280063324150952e+00 -2.4004153366939722e+01 1.0000000000000000e+00 1.2584659355278792e+01 3.5974031350672258e+00 1.2940361910618140e+01 
357 0 1 1.0280063301102107e+00 -2.6403855101766592e+01 1.0000000000000000e+00 1.2582827481949165e+01 3.5971384237976474e+00 1.2938755736636157e+01 
186 0 1 1.0279935489814132e+00 -1.8502829040110740e+01 1.0000000000000000e+00 1.3311874259533246e+01 4.4136212328112236e+00 1.2958956175693666e+01 
46 0 1 1.0279689586927965e+00 -3.4895320714181480e+01 1.0000000000000000e+00 1.3222245232092707e+01 5.9669935568723869e+00 1.2662378547417017e+01 
583 0 1 1.0284170277878675e+00 -4.3043549060245688e+01 1.0000000000000000e+00 8.5462530823754168e+00 6.7604717839314254e+00 1.2008463110614507e+01 
567 0 1 1.0281729932773500e+00 -9.5306323661635133e+01 1.0000000000000000e+00 8.4391005896329077e+00 6.6892327045951987e+00 1.2154672613461015e+01 
554 0 1 1.0274651083795410e+00 -6.3055634408563193e+01 1.0000000000000000e+00 8.4898146783772823e+00 9.6589880582680312e+00 1.1341960330397677e+01 
593 0 1 1.0281836613831512e+00 -3.1796785154179766e+01 1.0000000000000000e+00 6.9973147222440968e+00 9.3326539457126465e+00 1.0490881819176934e+01 
74 0 1 1.0280020485290462e+00 -4.5657011747665919e+01 1.0000000000000000e+00 9.1352422508682309e+00 7.5337457380358241e+00 1.1892452891381332e+01 
410 0 1 1.0274738099131528e+00 -3.5450311384656338e+01 1.0000000000000000e+00 9.0887663412358926e+00 7.9307677989705754e+00 1.0997369117264224e+01 