LAMMPS data file via write_data, version 30 Jul 2016, timestep = 600000

2080 atoms
8 atom types

0.0000000000000000e+00 4.0000000000000000e+01 xlo xhi
0.0000000000000000e+00 4.0000000000000000e+01 ylo yhi
0.0000000000000000e+00 1.0000000000000000e+02 zlo zhi

Masses

1 3.896
2 10.72
3 1058.08
4 8.378
5 8.378
6 8.378
7 8.378
8 8.378

Atoms # meso-molecular

1 2 4 2.2559723595316457e+00 6.0915179169885758e-01 4.2000000000000000e+03 0.0000000000000000e+00 0.0000000000000000e+00 2.5000000000000000e+00 
2 2 4 2.2559723595316457e+00 9.5401888591467354e-01 4.2000000000000000e+03 0.0000000000000000e+00 2.0000000000000000e+00 2.5000000000000000e+00 
3 2 4 2.2559723595316457e+00 8.7431435357836107e-01 4.2000000000000000e+03 0.0000000000000000e+00 4.0000000000000000e+00 2.5000000000000000e+00 
4 2 4 2.2559723595316457e+00 9.6346829988452110e-01 4.2000000000000000e+03 0.0000000000000000e+00 6.0000000000000000e+00 2.5000000000000000e+00 
21 2 4 2.2559723595316457e+00 1.0098573203717787e+00 4.2000000000000000e+03 2.0000000000000000e+00 0.0000000000000000e+00 2.5000000000000000e+00 
22 2 4 2.2559723595316457e+00 9.5614893215393759e-01 4.2000000000000000e+03 2.0000000000000000e+00 2.0000000000000000e+00 2.5000000000000000e+00 
23 2 4 2.2559723595316457e+00 1.0061093598506901e+00 4.2000000000000000e+03 2.0000000000000000e+00 4.0000000000000000e+00 2.5000000000000000e+00 
24 2 4 2.2559723595316457e+00 1.0415332230919345e+00 4.2000000000000000e+03 2.0000000000000000e+00 6.0000000000000000e+00 2.5000000000000000e+00 
41 2 4 2.2559723595316457e+00 9.8951421619913038e-01 4.2000000000000000e+03 4.0000000000000000e+00 0.0000000000000000e+00 2.5000000000000000e+00 
42 2 4 2.2559723595316457e+00 1.0005665336173282e+00 4.2000000000000000e+03 4.0000000000000000e+00 2.0000000000000000e+00 2.5000000000000000e+00 
43 2 4 2.2559723595316457e+00 9.9822325692355651e-01 4.2000000000000000e+03 4.0000000000000000e+00 4.0000000000000000e+00 2.5000000000000000e+00 
44 2 4 2.2559723595316457e+00 1.0127696271615640e+00 4.2000000000000000e+03 4.0000000000000000e+00 6.0000000000000000e+00 2.5000000000000000e+00 
61 2 4 2.2559723595316457e+00 9.5896395069501217e-01 4.2000000000000000e+03 6.0000000000000000e+00 0.0000000000000000e+00 2.5000000000000000e+00 
62 2 4 2.2559723595316457e+00 1.0075973433887508e+00 4.2000000000000000e+03 6.0000000000000000e+00 2.0000000000000000e+00 2.5000000000000000e+00 
63 2 4 2.2559723595316457e+00 9.9392026759973873e-01 4.2000000000000000e+03 6.0000000000000000e+00 4.0000000000000000e+00 2.5000000000000000e+00 
64 2 4 2.2559723595316457e+00 1.0048332249980279e+00 4.2000000000000000e+03 6.0000000000000000e+00 6.0000000000000000e+00 2.5000000000000000e+00 
81 2 4 2.2559723595316457e+00 8.9363602663542152e-01 4.2000000000000000e+03 8.0000000000000000e+00 0.0000000000000000e+00 2.5000000000000000e+00 
82 2 4 2.2559723595316457e+00 9.7354040751873738e-01 4.2000000000000000e+03 8.0000000000000000e+00 2.0000000000000000e+00 2.5000000000000000e+00 
83 2 4 2.2559723595316457e+00 9.8528600605324423e-01 4.2000000000000000e+03 8.0000000000000000e+00 4.0000000000000000e+00 2.5000000000000000e+00 
84 2 4 2.2559723595316457e+00 1.0128430237391988e+00 4.2000000000000000e+03 8.0000000000000000e+00 6.0000000000000000e+00 2.5000000000000000e+00 
101 2 4 2.2559723595316457e+00 9.3098279672820450e-01 4.2000000000000000e+03 1.0000000000000000e+01 0.0000000000000000e+00 2.5000000000000000e+00 
102 2 4 2.2559723595316457e+00 9.3653208808305610e-01 4.2000000000000000e+03 1.0000000000000000e+01 2.0000000000000000e+00 2.5000000000000000e+00 
103 2 4 2.2559723595316457e+00 9.6157364833146775e-01 4.2000000000000000e+03 1.0000000000000000e+01 4.0000000000000000e+00 2.5000000000000000e+00 
104 2 4 2.2559723595316457e+00 9.5349051283678543e-01 4.2000000000000000e+03 1.0000000000000000e+01 6.0000000000000000e+00 2.5000000000000000e+00 
121 2 4 2.2559723595316457e+00 8.6811343778557593e-01 4.2000000000000000e+03 1.2000000000000000e+01 0.0000000000000000e+00 2.5000000000000000e+00 
122 2 4 2.2559723595316457e+00 9.7580939807594425e-01 4.2000000000000000e+03 1.2000000000000000e+01 2.0000000000000000e+00 2.5000000000000000e+00 
123 2 4 2.2559723595316457e+00 1.0110626828792766e+00 4.2000000000000000e+03 1.2000000000000000e+01 4.0000000000000000e+00 2.5000000000000000e+00 
124 2 4 2.2559723595316457e+00 -3.7974838581111221e+01 4.2000000000000000e+03 1.2000000000000000e+01 6.0000000000000000e+00 2.5000000000000000e+00 
141 2 4 2.2559723595316457e+00 9.0764456825081175e-01 4.2000000000000000e+03 1.4000000000000000e+01 0.0000000000000000e+00 2.5000000000000000e+00 
142 2 4 2.2559723595316457e+00 9.9464135991401681e-01 4.2000000000000000e+03 1.4000000000000000e+01 2.0000000000000000e+00 2.5000000000000000e+00 
143 2 4 2.2559723595316457e+00 -2.3179704134726470e-01 4.2000000000000000e+03 1.4000000000000000e+01 4.0000000000000000e+00 2.5000000000000000e+00 
144 2 4 2.2559723595316457e+00 -3.9526408480236205e+02 4.2000000000000000e+03 1.4000000000000000e+01 6.0000000000000000e+00 2.5000000000000000e+00 
161 2 4 2.2559723595316457e+00 9.7697211657047434e-01 4.2000000000000000e+03 1.6000000000000000e+01 0.0000000000000000e+00 2.5000000000000000e+00 
162 2 4 2.2559723595316457e+00 1.0208612940278465e+00 4.2000000000000000e+03 1.6000000000000000e+01 2.0000000000000000e+00 2.5000000000000000e+00 
163 2 4 2.2559723595316457e+00 -1.1067005217937499e+01 4.2000000000000000e+03 1.6000000000000000e+01 4.0000000000000000e+00 2.5000000000000000e+00 
164 2 4 2.2559723595316457e+00 -1.0132449312965717e+03 4.2000000000000000e+03 1.6000000000000000e+01 6.0000000000000000e+00 2.5000000000000000e+00 
181 2 4 2.2559723595316457e+00 9.0566816565509023e-01 4.2000000000000000e+03 1.8000000000000000e+01 0.0000000000000000e+00 2.5000000000000000e+00 
182 2 4 2.2559723595316457e+00 9.8756808608634894e-01 4.2000000000000000e+03 1.8000000000000000e+01 2.0000000000000000e+00 2.5000000000000000e+00 
183 2 4 2.2559723595316457e+00 -1.2801264191122881e+01 4.2000000000000000e+03 1.8000000000000000e+01 4.0000000000000000e+00 2.5000000000000000e+00 
184 2 4 2.2559723595316457e+00 -1.3936809702608562e+03 4.2000000000000000e+03 1.8000000000000000e+01 6.0000000000000000e+00 2.5000000000000000e+00 
5 2 4 2.2559723595316457e+00 1.0000000000000000e+00 4.2000000000000000e+03 0.0000000000000000e+00 8.0000000000000000e+00 2.5000000000000000e+00 
6 2 4 2.2559723595316457e+00 1.0000000000098961e+00 4.2000000000000000e+03 0.0000000000000000e+00 1.0000000000000000e+01 2.5000000000000000e+00 
7 2 4 2.2559723595316457e+00 1.0266190088698344e+00 4.2000000000000000e+03 0.0000000000000000e+00 1.2000000000000000e+01 2.5000000000000000e+00 
25 2 4 2.2559723595316457e+00 1.0037641340919552e+00 4.2000000000000000e+03 2.0000000000000000e+00 8.0000000000000000e+00 2.5000000000000000e+00 
26 2 4 2.2559723595316457e+00 9.9347975626997020e-01 4.2000000000000000e+03 2.0000000000000000e+00 1.0000000000000000e+01 2.5000000000000000e+00 
27 2 4 2.2559723595316457e+00 9.5491154172069370e-01 4.2000000000000000e+03 2.0000000000000000e+00 1.2000000000000000e+01 2.5000000000000000e+00 
45 2 4 2.2559723595316457e+00 9.8321365496986823e-01 4.2000000000000000e+03 4.0000000000000000e+00 8.0000000000000000e+00 2.5000000000000000e+00 
46 2 4 2.2559723595316457e+00 9.2778789466495537e-01 4.2000000000000000e+03 4.0000000000000000e+00 1.0000000000000000e+01 2.5000000000000000e+00 
47 2 4 2.2559723595316457e+00 9.1465199837428313e-01 4.2000000000000000e+03 4.0000000000000000e+00 1.2000000000000000e+01 2.5000000000000000e+00 
65 2 4 2.2559723595316457e+00 9.9483078314597129e-01 4.2000000000000000e+03 6.0000000000000000e+00 8.0000000000000000e+00 2.5000000000000000e+00 
66 2 4 2.2559723595316457e+00 9.6996697965426371e-01 4.2000000000000000e+03 6.0000000000000000e+00 1.0000000000000000e+01 2.5000000000000000e+00 
67 2 4 2.2559723595316457e+00 9.8582167334633120e-01 4.2000000000000000e+03 6.0000000000000000e+00 1.2000000000000000e+01 2.5000000000000000e+00 
85 2 4 2.2559723595316457e+00 9.8466444449213064e-01 4.2000000000000000e+03 8.0000000000000000e+00 8.0000000000000000e+00 2.5000000000000000e+00 
86 2 4 2.2559723595316457e+00 9.8762738993731969e-01 4.2000000000000000e+03 8.0000000000000000e+00 1.0000000000000000e+01 2.5000000000000000e+00 
87 2 4 2.2559723595316457e+00 9.9608726450198648e-01 4.2000000000000000e+03 8.0000000000000000e+00 1.2000000000000000e+01 2.5000000000000000e+00 
105 2 4 2.2559723595316457e+00 -3.0362314661265716e-01 4.2000000000000000e+03 1.0000000000000000e+01 8.0000000000000000e+00 2.5000000000000000e+00 
106 2 4 2.2559723595316457e+00 -1.1321464762855715e+01 4.2000000000000000e+03 1.0000000000000000e+01 1.0000000000000000e+01 2.5000000000000000e+00 
107 2 4 2.2559723595316457e+00 -1.2885202704606534e+01 4.2000000000000000e+03 1.0000000000000000e+01 1.2000000000000000e+01 2.5000000000000000e+00 
125 2 4 2.2559723595316457e+00 -3.9528015970175653e+02 4.2000000000000000e+03 1.2000000000000000e+01 8.0000000000000000e+00 2.5000000000000000e+00 
126 2 4 2.2559723595316457e+00 -1.0138301608012390e+03 4.2000000000000000e+03 1.2000000000000000e+01 1.0000000000000000e+01 2.5000000000000000e+00 
127 2 4 2.2559723595316457e+00 -1.3987883269707556e+03 4.2000000000000000e+03 1.2000000000000000e+01 1.2000000000000000e+01 2.5000000000000000e+00 
145 2 4 2.2559723595316457e+00 -2.2109804355987580e+03 4.2000000000000000e+03 1.4000000000000000e+01 8.0000000000000000e+00 2.5000000000000000e+00 
146 2 4 2.2559723595316457e+00 -5.0526890338119410e+03 4.2000000000000000e+03 1.4000000000000000e+01 1.0000000000000000e+01 2.5000000000000000e+00 
147 2 4 2.2559723595316457e+00 -7.0167595720915933e+03 4.2000000000000000e+03 1.4000000000000000e+01 1.2000000000000000e+01 2.5000000000000000e+00 
165 2 4 2.2559723595316457e+00 -5.0488397443379617e+03 4.2000000000000000e+03 1.6000000000000000e+01 8.0000000000000000e+00 2.5000000000000000e+00 
166 2 4 2.2559723595316457e+00 -1.1275458173104347e+04 4.2000000000000000e+03 1.6000000000000000e+01 1.0000000000000000e+01 2.5000000000000000e+00 
167 2 4 2.2559723595316457e+00 -1.5766526217687415e+04 4.2000000000000000e+03 1.6000000000000000e+01 1.2000000000000000e+01 2.5000000000000000e+00 
185 2 4 2.2559723595316457e+00 -6.9866712369796687e+03 4.2000000000000000e+03 1.8000000000000000e+01 8.0000000000000000e+00 2.5000000000000000e+00 
186 2 4 2.2559723595316457e+00 -1.5700437243958724e+04 4.2000000000000000e+03 1.8000000000000000e+01 1.0000000000000000e+01 2.5000000000000000e+00 
187 2 4 2.2559723595316457e+00 -2.2060547842418713e+04 4.2000000000000000e+03 1.8000000000000000e+01 1.2000000000000000e+01 2.5000000000000000e+00 
8 2 4 2.2559723595316457e+00 1.0121508868314104e+00 4.2000000000000000e+03 0.0000000000000000e+00 1.4000000000000000e+01 2.5000000000000000e+00 
9 2 4 2.2559723595316457e+00 9.9877641088785862e-01 4.2000000000000000e+03 0.0000000000000000e+00 1.6000000000000000e+01 2.5000000000000000e+00 
10 2 4 2.2559723595316457e+00 1.0199074470022174e+00 4.2000000000000000e+03 0.0000000000000000e+00 1.8000000000000000e+01 2.5000000000000000e+00 
28 2 4 2.2559723595316457e+00 9.1945845868967524e-01 4.2000000000000000e+03 2.0000000000000000e+00 1.4000000000000000e+01 2.5000000000000000e+00 
29 2 4 2.2559723595316457e+00 9.9396956613787402e-01 4.2000000000000000e+03 2.0000000000000000e+00 1.6000000000000000e+01 2.5000000000000000e+00 
30 2 4 2.2559723595316457e+00 9.5740132635210795e-01 4.2000000000000000e+03 2.0000000000000000e+00 1.8000000000000000e+01 2.5000000000000000e+00 
48 2 4 2.2559723595316457e+00 9.7011336091759803e-01 4.2000000000000000e+03 4.0000000000000000e+00 1.4000000000000000e+01 2.5000000000000000e+00 
49 2 4 2.2559723595316457e+00 9.9992031948472437e-01 4.2000000000000000e+03 4.0000000000000000e+00 1.6000000000000000e+01 2.5000000000000000e+00 
50 2 4 2.2559723595316457e+00 9.4189836027961704e-01 4.2000000000000000e+03 4.0000000000000000e+00 1.8000000000000000e+01 2.5000000000000000e+00 
68 2 4 2.2559723595316457e+00 1.0119146684101992e+00 4.2000000000000000e+03 6.0000000000000000e+00 1.4000000000000000e+01 2.5000000000000000e+00 
69 2 4 2.2559723595316457e+00 9.9221758939885807e-01 4.2000000000000000e+03 6.0000000000000000e+00 1.6000000000000000e+01 2.5000000000000000e+00 
70 2 4 2.2559723595316457e+00 9.1174364287581722e-01 4.2000000000000000e+03 6.0000000000000000e+00 1.8000000000000000e+01 2.5000000000000000e+00 
88 2 4 2.2559723595316457e+00 9.4799147823069152e-01 4.2000000000000000e+03 8.0000000000000000e+00 1.4000000000000000e+01 2.5000000000000000e+00 
89 2 4 2.2559723595316457e+00 9.7564336328788048e-01 4.2000000000000000e+03 8.0000000000000000e+00 1.6000000000000000e+01 2.5000000000000000e+00 
90 2 4 2.2559723595316457e+00 9.9127361864158869e-01 4.2000000000000000e+03 8.0000000000000000e+00 1.8000000000000000e+01 2.5000000000000000e+00 
108 2 4 2.2559723595316457e+00 -1.3002735212066757e+01 4.2000000000000000e+03 1.0000000000000000e+01 1.4000000000000000e+01 2.5000000000000000e+00 
109 2 4 2.2559723595316457e+00 -1.3009574765934353e+01 4.2000000000000000e+03 1.0000000000000000e+01 1.6000000000000000e+01 2.5000000000000000e+00 
110 2 4 2.2559723595316457e+00 -1.3015153421352988e+01 4.2000000000000000e+03 1.0000000000000000e+01 1.8000000000000000e+01 2.5000000000000000e+00 
128 2 4 2.2559723595316457e+00 -1.4577726228907882e+03 4.2000000000000000e+03 1.2000000000000000e+01 1.4000000000000000e+01 2.5000000000000000e+00 
129 2 4 2.2559723595316457e+00 -1.4628317064041605e+03 4.2000000000000000e+03 1.2000000000000000e+01 1.6000000000000000e+01 2.5000000000000000e+00 
130 2 4 2.2559723595316457e+00 -1.4630572887380642e+03 4.2000000000000000e+03 1.2000000000000000e+01 1.8000000000000000e+01 2.5000000000000000e+00 
148 2 4 2.2559723595316457e+00 -7.5113430149020078e+03 4.2000000000000000e+03 1.4000000000000000e+01 1.4000000000000000e+01 2.5000000000000000e+00 
149 2 4 2.2559723595316457e+00 -7.5425380550751452e+03 4.2000000000000000e+03 1.4000000000000000e+01 1.6000000000000000e+01 2.5000000000000000e+00 
150 2 4 2.2559723595316457e+00 -7.5443294172227725e+03 4.2000000000000000e+03 1.4000000000000000e+01 1.8000000000000000e+01 2.5000000000000000e+00 
168 2 4 2.2559723595316457e+00 -1.7029653258521888e+04 4.2000000000000000e+03 1.6000000000000000e+01 1.4000000000000000e+01 2.5000000000000000e+00 
169 2 4 2.2559723595316457e+00 -1.7100162182581651e+04 4.2000000000000000e+03 1.6000000000000000e+01 1.6000000000000000e+01 2.5000000000000000e+00 
170 2 4 2.2559723595316457e+00 -1.7102730926013777e+04 4.2000000000000000e+03 1.6000000000000000e+01 1.8000000000000000e+01 2.5000000000000000e+00 
188 2 4 2.2559723595316457e+00 -2.3847974608241595e+04 4.2000000000000000e+03 1.8000000000000000e+01 1.4000000000000000e+01 2.5000000000000000e+00 
189 2 4 2.2559723595316457e+00 -2.3936319160782889e+04 4.2000000000000000e+03 1.8000000000000000e+01 1.6000000000000000e+01 2.5000000000000000e+00 
190 2 4 2.2559723595316457e+00 -2.3935835585468245e+04 4.2000000000000000e+03 1.8000000000000000e+01 1.8000000000000000e+01 2.5000000000000000e+00 
1027 629 2 1.0279959643889125e+00 -1.3239418870015786e+03 4.2000000000000000e+03 5.7989431540377945e+00 9.9953176553835288e-01 5.7019446124905741e+01 
775 377 2 1.0279972491264735e+00 2.6011014986181362e+02 4.2000000000000000e+03 5.3454305609517689e+00 4.4978157337790586e-01 5.7030075358499893e+01 
725 327 2 1.0279966523761210e+00 6.4774606528759477e+02 4.2000000000000000e+03 5.7507468532969783e+00 1.5036560221693771e+00 5.7172688773805696e+01 
1256 858 2 1.0279975877662872e+00 -6.8277742380173561e+02 4.2000000000000000e+03 5.1794142602479374e+00 6.9041456151851954e-01 5.7163945185330441e+01 
1640 1242 2 1.0279994210801175e+00 4.7991528053808952e+03 4.2000000000000000e+03 4.8263438576249689e+00 1.5216467081754248e+00 5.7517066212992297e+01 
1339 941 2 1.0279996151610729e+00 -3.3313324508210858e+03 4.2000000000000000e+03 4.9502993245073235e+00 2.2796915605963806e+00 5.7615485046610964e+01 
1803 1405 2 1.0280036276342990e+00 2.6836667347113994e+03 4.2000000000000000e+03 4.2885927675479731e+00 2.4610334817148183e+00 5.7947542522657471e+01 
1277 879 2 1.0280050153143430e+00 2.1392987420193417e+03 4.2000000000000000e+03 4.4232117058233635e+00 3.5035935283401800e+00 5.8151164698446181e+01 
1569 1171 2 1.0280057514963150e+00 -1.0367112957163540e+03 4.2000000000000000e+03 4.1601340220336560e+00 3.2027485207120314e+00 5.8155209949278515e+01 
1066 668 2 1.0280060301337555e+00 6.2886070533630857e+02 4.2000000000000000e+03 3.9769415026079287e+00 3.6732546778483588e+00 5.8365456386775449e+01 
1648 1250 2 1.0280049675450016e+00 -6.3573446068765679e+02 4.2000000000000000e+03 2.8956273432580870e+00 3.5855234186459914e+00 5.8782471529647438e+01 
1483 1085 2 1.0280047901646454e+00 -3.4808251561289831e+02 4.2000000000000000e+03 2.8812781180627964e+00 3.7398297623235290e+00 5.8817716711539092e+01 
614 216 2 1.0280044994932789e+00 -7.0469248948257629e+01 4.2000000000000000e+03 2.5166040042944111e+00 3.8280099943385295e+00 5.8981540143851888e+01 
568 170 2 1.0280021740539766e+00 -4.3079161461679687e+03 4.2000000000000000e+03 1.8849040831574759e+00 4.4744747883202018e+00 5.9342976366943830e+01 
489 91 2 1.0280005864901243e+00 1.9212899251525764e+03 4.2000000000000000e+03 2.8881706672264280e+00 5.3200522357577622e+00 5.9405453749495621e+01 
1546 1148 2 1.0279942633620460e+00 1.5004413647137399e+03 4.2000000000000000e+03 8.9833125920707824e-01 5.5159635302508345e+00 5.9849120969503325e+01 
669 271 2 1.0279964928851748e+00 2.0450809852408281e+02 4.2000000000000000e+03 2.8766506230018252e-01 4.2359049072811885e+00 5.9829455238535900e+01 
439 41 2 1.0279970472577071e+00 2.8674661982223638e+03 4.2000000000000000e+03 2.5082969486461554e-01 5.1087974111105723e+00 5.9915251115247777e+01 
1272 874 2 1.0280028126932341e+00 6.3126593636231919e+03 4.2000000000000000e+03 1.3019582196706603e+00 1.8559851457904181e-01 6.0079096466663430e+01 
852 454 2 1.0280170353426372e+00 2.2434169475942704e+03 4.2000000000000000e+03 2.8412246453163970e-01 3.6724256342470283e+00 6.0446641112219957e+01 
2074 1676 2 1.0279955119102155e+00 -4.4722898027117062e+03 4.2000000000000000e+03 5.1308147435274210e-01 5.8470701729871266e-01 6.0467812095629711e+01 
2014 1616 2 1.0280081533346310e+00 -7.3570417854282266e+02 4.2000000000000000e+03 2.0794045740152849e+00 4.8065810498346258e+00 6.0898271006168571e+01 
1297 899 2 1.0280028205532177e+00 1.4138013876791870e+03 4.2000000000000000e+03 3.9131367679952094e+00 6.4386732812664533e+00 6.0962355408267477e+01 
427 29 2 1.0280125758436536e+00 4.4550416758333986e+03 4.2000000000000000e+03 7.9212184976243227e-01 5.7577758607693416e-02 6.1090346765636909e+01 
537 139 2 1.0279944294386909e+00 -1.4531771882803137e+03 4.2000000000000000e+03 6.9415023665101501e+00 8.3781773036551765e-01 5.7049918524810643e+01 
1830 1432 2 1.0279948052689869e+00 1.9208257021130944e+03 4.2000000000000000e+03 6.7304508811118504e+00 2.7238192620586830e+00 5.7693726698176384e+01 
1362 964 2 1.0279935368171829e+00 -2.8940599452749707e+03 4.2000000000000000e+03 6.7699299284570316e+00 2.8417973833200212e+00 5.7759743406613545e+01 
964 566 2 1.0280007279934105e+00 4.7265520356168417e+03 4.2000000000000000e+03 6.8397752579105742e+00 4.3338545048150738e+00 5.8618188181022752e+01 
866 468 2 1.0279939814848407e+00 1.4445615360341105e+03 4.2000000000000000e+03 9.1533014750780257e+00 4.4931833875830701e-01 5.8833817396053206e+01 
1597 1199 2 1.0279917945895265e+00 4.7331806707144115e+03 4.2000000000000000e+03 8.4224104223724403e+00 2.8268839946895197e+00 5.8949007116217288e+01 
1512 1114 2 1.0279934777448141e+00 -2.7874126290949954e+02 4.2000000000000000e+03 9.2294989500609201e+00 8.7679741819999291e-01 5.9052858936948603e+01 
1312 914 2 1.0279922368275860e+00 -3.0654586436549442e+02 4.2000000000000000e+03 8.2152036178101699e+00 3.4435885661922541e+00 5.9069771312775671e+01 
1996 1598 2 1.0279916216445408e+00 -6.0015492446251517e+02 4.2000000000000000e+03 8.9915825499533302e+00 2.2900780808176409e+00 5.9338496006515335e+01 
826 428 2 1.0279923631865899e+00 2.1851900142481850e+03 4.2000000000000000e+03 7.8718160097914183e+00 4.8213229756109843e+00 5.9633233724306841e+01 
1744 1346 2 1.0279923436218215e+00 -1.3854851161854178e+03 4.2000000000000000e+03 7.8660727109869839e+00 4.8381194141315671e+00 5.9639789154728099e+01 
532 134 2 1.0279916257610411e+00 1.3131064950665379e+03 4.2000000000000000e+03 8.1049808508810415e+00 4.6361194294731192e+00 5.9718422255531777e+01 
1574 1176 2 1.0279919066266017e+00 -5.7157969314333684e+02 4.2000000000000000e+03 7.9605558603754627e+00 4.8349057816265928e+00 5.9719566775636210e+01 
667 269 2 1.0279921838001407e+00 1.6508018509743438e+03 4.2000000000000000e+03 7.9272222334727953e+00 4.8822219929140482e+00 5.9722342835176207e+01 
1298 900 2 1.0279919798777137e+00 6.0829603315001600e+02 4.2000000000000000e+03 7.9170189727459341e+00 4.9455805066603959e+00 5.9756330163201959e+01 
1825 1427 2 1.0279948629529898e+00 -3.9944473161600271e+01 4.2000000000000000e+03 1.0738398500392847e+01 4.9230238412279032e-01 6.0372387041551320e+01 
1402 1004 2 1.0279899075643062e+00 2.3262934829870583e+03 4.2000000000000000e+03 7.7879235654003223e+00 6.0924589377579599e+00 6.0398126944213999e+01 
811 413 2 1.0279891090843756e+00 2.6659732916792814e+03 4.2000000000000000e+03 9.7994242809083634e+00 3.2563274293802156e+00 6.0645590148619888e+01 
1406 1008 2 1.0279879713982307e+00 8.6240174931978163e+02 4.2000000000000000e+03 9.9727696884622965e+00 3.2859242190557061e+00 6.0794688500651127e+01 
2058 1660 2 1.0280034659080766e+00 -2.4411297394412222e+03 4.2000000000000000e+03 1.2157379579542818e+01 1.4804285711750245e-01 6.0917373581574175e+01 
1736 1338 2 1.0280059163871458e+00 4.5322324353243866e+03 4.2000000000000000e+03 1.4825415284209120e+00 1.0630876224960890e+01 5.9427746885793830e+01 
679 281 2 1.0280046594039207e+00 5.9785527617476220e+01 4.2000000000000000e+03 1.5470841565728191e+00 1.0363481359610638e+01 5.9647882928214997e+01 
1415 1017 2 1.0280039690792901e+00 1.5993494137469809e+03 4.2000000000000000e+03 2.0960669654818451e+00 1.0715740169386368e+01 5.9736410166342559e+01 
1359 961 2 1.0280050259914950e+00 -2.2768215680977028e+03 4.2000000000000000e+03 3.3107265157315813e+00 1.2015368297645674e+01 5.9810036329141589e+01 
501 103 2 1.0280024970588304e+00 1.4352188668879901e+03 4.2000000000000000e+03 1.0061742410369507e+00 9.7426149925304557e+00 5.9820470096173423e+01 
541 143 2 1.0280027988247740e+00 -7.0035641090342978e+01 4.2000000000000000e+03 1.1625837110496704e+00 9.8582406613277431e+00 5.9835426484921669e+01 
1334 936 2 1.0280041866619662e+00 -1.6168431762565863e+03 4.2000000000000000e+03 1.9538324331279480e+00 1.0464502934107498e+01 5.9876869960461470e+01 
887 489 2 1.0279998283249601e+00 -1.7179424678353058e+02 4.2000000000000000e+03 7.8562836956345017e-01 9.5055895592626616e+00 5.9870477219970645e+01 
705 307 2 1.0280004579482076e+00 2.2845189999107470e+03 4.2000000000000000e+03 6.2320621645739738e-01 9.3269645997027908e+00 5.9893840714566565e+01 
1587 1189 2 1.0279981485255336e+00 5.0576720123301775e+03 4.2000000000000000e+03 5.0773588575749669e+00 1.1957803181404158e+01 6.0011842620235377e+01 
939 541 2 1.0279961220597547e+00 1.9631424162761532e+03 4.2000000000000000e+03 4.1327564026657830e+00 1.2373116708640246e+01 6.0048693120140108e+01 
1568 1170 2 1.0280067214534678e+00 2.1056295237931690e+03 4.2000000000000000e+03 2.2764139208382794e-01 8.8861318273108072e+00 6.0176697315006294e+01 
1410 1012 2 1.0279908567854112e+00 -1.0353280651658770e+04 4.2000000000000000e+03 3.9172270777151112e+00 1.1413580505647900e+01 6.0231604673176101e+01 
885 487 2 1.0279983729947963e+00 5.2453181287901425e+03 4.2000000000000000e+03 4.4199254480928190e+00 1.0456636503238773e+01 6.0519800613325167e+01 
864 466 2 1.0280148883731077e+00 2.7330225721198794e+03 4.2000000000000000e+03 9.9011211013391980e-03 1.3231178965451724e+01 6.0520596141868047e+01 
997 599 2 1.0279987233582872e+00 1.7010746837165600e+03 4.2000000000000000e+03 5.1129479126695543e+00 9.9229792102557379e+00 6.0608861824299296e+01 
485 87 2 1.0279850724290776e+00 5.4340475106766735e+02 4.2000000000000000e+03 5.0295653659008295e+00 7.7863337083564996e+00 6.0850719724279294e+01 
1521 1123 2 1.0280048930056533e+00 2.3926182305267039e+03 4.2000000000000000e+03 4.8592504024059782e+00 1.0192466418924321e+01 6.1012880379422000e+01 
659 261 2 1.0279907926540379e+00 4.0804226307978342e+03 4.2000000000000000e+03 7.0523387230446355e+00 7.8187718421336427e+00 6.0947178170191627e+01 
1632 1234 2 1.0280040988749366e+00 2.6360765215316101e+03 4.2000000000000000e+03 3.3941489121706954e+00 1.8799666144588315e+01 5.8545003496617227e+01 
1332 934 2 1.0280036034981266e+00 1.9150239279700463e+03 4.2000000000000000e+03 3.0196414818719806e+00 1.8494506077172872e+01 5.8556258256280067e+01 
1164 766 2 1.0280035937288545e+00 1.9142198011821370e+03 4.2000000000000000e+03 3.0685334664556758e+00 1.9003825118722986e+01 5.8569410112807887e+01 
1243 845 2 1.0280047587543406e+00 -1.0356838597642205e+04 4.2000000000000000e+03 3.7756282084983046e+00 1.8569365271232353e+01 5.8578032917374102e+01 
985 587 2 1.0280047748977501e+00 -5.4239815508948297e+01 4.2000000000000000e+03 4.0623856509372711e+00 1.7545509670692191e+01 5.8616295093830416e+01 
1075 677 2 1.0280018197197593e+00 -1.0351809651058378e+04 4.2000000000000000e+03 2.7473759873311283e+00 1.9513014544225360e+01 5.8622795973254085e+01 
1349 951 2 1.0280077639605152e+00 2.0772911797775182e+03 4.2000000000000000e+03 2.5230396051387833e+00 1.4577893291985017e+01 5.8582553051650535e+01 
1289 891 2 1.0280052157196866e+00 1.2441621740491707e+03 4.2000000000000000e+03 4.1563902553130605e+00 1.8803770220718878e+01 5.8674827301659455e+01 
1121 723 2 1.0280052149826266e+00 1.2436999802093012e+03 4.2000000000000000e+03 4.1643227743098121e+00 1.8757220033014089e+01 5.8677234975138902e+01 
858 460 2 1.0280040560500723e+00 3.3778066218032404e+03 4.2000000000000000e+03 4.0025111253436896e-01 1.5373599949911682e+01 5.8666878721546802e+01 
462 64 2 1.0280052319380724e+00 2.5376426006389202e+01 4.2000000000000000e+03 4.4695827341605909e+00 1.8771428814594721e+01 5.8784351306964112e+01 
1489 1091 2 1.0280059052969219e+00 -5.2752461440612230e+01 4.2000000000000000e+03 4.5841770474541548e+00 1.9737548145164894e+01 5.8793139815490107e+01 
792 394 2 1.0279971428685857e+00 2.6375677273830738e+03 4.2000000000000000e+03 2.3948529914686572e+00 1.8114677165747029e+01 5.8852624563372835e+01 
1255 857 2 1.0279969831926128e+00 -6.3289249920623170e+03 4.2000000000000000e+03 2.5570908033582143e+00 1.8974474872070946e+01 5.8853288973301154e+01 
1249 851 2 1.0279974043866291e+00 -4.6593953306494914e+03 4.2000000000000000e+03 1.8327964841524778e+00 1.7132111197085333e+01 5.8854545686702608e+01 
1974 1576 2 1.0280060534507840e+00 2.7000995220421167e+01 4.2000000000000000e+03 4.6808299195148138e+00 1.8733910799578663e+01 5.8874706652966772e+01 
1087 689 2 1.0279965809212919e+00 -6.3284275483320616e+03 4.2000000000000000e+03 2.5443937006374204e+00 1.8924937807009382e+01 5.8895665043870984e+01 
1232 834 2 1.0280042980315902e+00 1.4070099127865610e+03 4.2000000000000000e+03 4.5654056654414079e+00 1.5897791966448448e+01 5.9068359748516862e+01 
1032 634 2 1.0280065799370006e+00 6.7981447039077693e+02 4.2000000000000000e+03 3.1277049365923522e+00 1.3905982279299771e+01 5.9079694138848737e+01 
2055 1657 2 1.0280057087343248e+00 -7.3964986540188067e+02 4.2000000000000000e+03 3.5579530918275877e+00 1.4342189154477166e+01 5.9167561099929785e+01 
1211 813 2 1.0280060677047809e+00 -1.1853586291585793e+03 4.2000000000000000e+03 3.5954135994487881e+00 1.4027266347090361e+01 5.9327582666565611e+01 
1954 1556 2 1.0280061901987980e+00 6.6664310315658702e+02 4.2000000000000000e+03 3.7101972854374683e+00 1.3802893639605610e+01 5.9508460662136834e+01 
471 73 2 1.0280062557049361e+00 -2.5261320245012448e+03 4.2000000000000000e+03 4.0504915612932582e+00 1.4142887031311618e+01 5.9565467861505830e+01 
1691 1293 2 1.0280026249218255e+00 9.9809582339508495e+02 4.2000000000000000e+03 5.7891244593604663e+00 1.8845475909446616e+01 5.9716601121935291e+01 
1920 1522 2 1.0280010047569750e+00 -3.1260399281558953e+03 4.2000000000000000e+03 4.9780965990136288e+00 1.7041819093551148e+01 5.9899070286438103e+01 
1780 1382 2 1.0279874698850331e+00 1.4954385013017218e+03 4.2000000000000000e+03 4.4331948724467143e+00 1.3829152492645626e+01 5.9911010874674588e+01 
1624 1226 2 1.0280067684700360e+00 3.7850675049329611e+03 4.2000000000000000e+03 3.0263051017221301e+00 1.4591507493512307e+01 6.0004683842548090e+01 
1320 922 2 1.0280050043639590e+00 5.8832745213731232e+02 4.2000000000000000e+03 6.8930439729626043e+00 1.6691766560085995e+01 5.9853592396355211e+01 
1321 923 2 1.0280052213949677e+00 2.8276298180771141e+02 4.2000000000000000e+03 7.8915568504561273e+00 1.6444343898221810e+01 6.0131769446995349e+01 
790 392 2 1.0279967736529956e+00 1.8794860318044363e+02 4.2000000000000000e+03 7.7181109451853986e+00 1.3800157481396310e+01 6.0173948086922323e+01 
851 453 2 1.0279850895756124e+00 9.9320798343125637e+02 4.2000000000000000e+03 7.2593398917369827e+00 1.7562364526092061e+01 6.0277149405339223e+01 
424 26 2 1.0280081916427133e+00 6.0613353394381229e+03 4.2000000000000000e+03 8.7170483345251988e+00 1.6918380661525681e+01 6.0427688642212956e+01 
1655 1257 2 1.0280048452928112e+00 2.7579891201453133e+03 4.2000000000000000e+03 8.9215645691497620e+00 1.5879202700216981e+01 6.0678279612342237e+01 
1453 1055 2 1.0279959517106587e+00 1.3919432907303556e+02 4.2000000000000000e+03 8.3929998973179369e+00 1.3369938456160286e+01 6.0667250403135519e+01 
1427 1029 2 1.0280086334925165e+00 1.7334274381948742e+03 4.2000000000000000e+03 9.5015621340652459e+00 1.6993046609416503e+01 6.0753457927818204e+01 
1454 1056 2 1.0280001498005098e+00 -3.1628827893540802e+03 4.2000000000000000e+03 8.9204687505792641e+00 1.4958355749395595e+01 6.0805319277438443e+01 