LAMMPS data file via write_data, version 30 Jul 2016, timestep = 50400000

1920 atoms
8 atom types

0.0000000000000000e+00 4.0000000000000000e+01 xlo xhi
0.0000000000000000e+00 4.0000000000000000e+01 ylo yhi
0.0000000000000000e+00 1.0000000000000000e+02 zlo zhi

Masses

1 3.896
2 5.36
3 20.064
4 8.378
5 8.378
6 8.378
7 8.378
8 8.378

Atoms # meso-molecular

1 2 4 2.2559723595316457e+00 7.3187639953866845e-02 1.0000000000000000e+00 0.0000000000000000e+00 0.0000000000000000e+00 2.5000000000000000e+00 
21 2 4 2.2559723595316457e+00 2.1141086292178041e-09 1.0000000000000000e+00 2.0000000000000000e+00 0.0000000000000000e+00 2.5000000000000000e+00 
41 2 4 2.2559723595316457e+00 -9.0911836222604532e-05 1.0000000000000000e+00 4.0000000000000000e+00 0.0000000000000000e+00 2.5000000000000000e+00 
61 2 4 2.2559723595316457e+00 9.1033620972605329e-07 1.0000000000000000e+00 6.0000000000000000e+00 0.0000000000000000e+00 2.5000000000000000e+00 
81 2 4 2.2559723595316457e+00 -6.0254514330941256e-01 1.0000000000000000e+00 8.0000000000000000e+00 0.0000000000000000e+00 2.5000000000000000e+00 
101 2 4 2.2559723595316457e+00 -9.4569124357040302e-01 1.0000000000000000e+00 1.0000000000000000e+01 0.0000000000000000e+00 2.5000000000000000e+00 
121 2 4 2.2559723595316457e+00 1.2805843107088233e+00 1.0000000000000000e+00 1.2000000000000000e+01 0.0000000000000000e+00 2.5000000000000000e+00 
141 2 4 2.2559723595316457e+00 -3.0763498093288999e-01 1.0000000000000000e+00 1.4000000000000000e+01 0.0000000000000000e+00 2.5000000000000000e+00 
161 2 4 2.2559723595316457e+00 1.0240031929265010e+00 1.0000000000000000e+00 1.6000000000000000e+01 0.0000000000000000e+00 2.5000000000000000e+00 
181 2 4 2.2559723595316457e+00 -1.3583579236648075e-02 1.0000000000000000e+00 1.8000000000000000e+01 0.0000000000000000e+00 2.5000000000000000e+00 
2 2 4 2.2559723595316457e+00 -9.1810640658462521e+00 1.0000000000000000e+00 0.0000000000000000e+00 2.0000000000000000e+00 2.5000000000000000e+00 
22 2 4 2.2559723595316457e+00 5.1469042830838924e-10 1.0000000000000000e+00 2.0000000000000000e+00 2.0000000000000000e+00 2.5000000000000000e+00 
42 2 4 2.2559723595316457e+00 -5.9925321185853417e-06 1.0000000000000000e+00 4.0000000000000000e+00 2.0000000000000000e+00 2.5000000000000000e+00 
62 2 4 2.2559723595316457e+00 -1.6672233901631424e-04 1.0000000000000000e+00 6.0000000000000000e+00 2.0000000000000000e+00 2.5000000000000000e+00 
82 2 4 2.2559723595316457e+00 -4.8590451758590072e-02 1.0000000000000000e+00 8.0000000000000000e+00 2.0000000000000000e+00 2.5000000000000000e+00 
102 2 4 2.2559723595316457e+00 1.4664947753864182e-07 1.0000000000000000e+00 1.0000000000000000e+01 2.0000000000000000e+00 2.5000000000000000e+00 
122 2 4 2.2559723595316457e+00 2.5609097422651472e+00 1.0000000000000000e+00 1.2000000000000000e+01 2.0000000000000000e+00 2.5000000000000000e+00 
142 2 4 2.2559723595316457e+00 -2.4882551422014447e-02 1.0000000000000000e+00 1.4000000000000000e+01 2.0000000000000000e+00 2.5000000000000000e+00 
162 2 4 2.2559723595316457e+00 -1.2191457564008224e-05 1.0000000000000000e+00 1.6000000000000000e+01 2.0000000000000000e+00 2.5000000000000000e+00 
182 2 4 2.2559723595316457e+00 9.7526482164151974e-03 1.0000000000000000e+00 1.8000000000000000e+01 2.0000000000000000e+00 2.5000000000000000e+00 
3 2 4 2.2559723595316457e+00 2.4370335298675528e-06 1.0000000000000000e+00 0.0000000000000000e+00 4.0000000000000000e+00 2.5000000000000000e+00 
23 2 4 2.2559723595316457e+00 1.7222158205240242e-09 1.0000000000000000e+00 2.0000000000000000e+00 4.0000000000000000e+00 2.5000000000000000e+00 
43 2 4 2.2559723595316457e+00 6.1816448579197205e-09 1.0000000000000000e+00 4.0000000000000000e+00 4.0000000000000000e+00 2.5000000000000000e+00 
63 2 4 2.2559723595316457e+00 5.5720639502988363e-09 1.0000000000000000e+00 6.0000000000000000e+00 4.0000000000000000e+00 2.5000000000000000e+00 
83 2 4 2.2559723595316457e+00 7.2826161040555617e-10 1.0000000000000000e+00 8.0000000000000000e+00 4.0000000000000000e+00 2.5000000000000000e+00 
103 2 4 2.2559723595316457e+00 -6.3638223279135362e-06 1.0000000000000000e+00 1.0000000000000000e+01 4.0000000000000000e+00 2.5000000000000000e+00 
123 2 4 2.2559723595316457e+00 -4.1744275531642458e-08 1.0000000000000000e+00 1.2000000000000000e+01 4.0000000000000000e+00 2.5000000000000000e+00 
143 2 4 2.2559723595316457e+00 -1.2864633860965030e-04 1.0000000000000000e+00 1.4000000000000000e+01 4.0000000000000000e+00 2.5000000000000000e+00 
163 2 4 2.2559723595316457e+00 7.2000587930955881e-08 1.0000000000000000e+00 1.6000000000000000e+01 4.0000000000000000e+00 2.5000000000000000e+00 
183 2 4 2.2559723595316457e+00 5.6617863729989129e-02 1.0000000000000000e+00 1.8000000000000000e+01 4.0000000000000000e+00 2.5000000000000000e+00 
4 2 4 2.2559723595316457e+00 6.8319849150335070e-04 1.0000000000000000e+00 0.0000000000000000e+00 6.0000000000000000e+00 2.5000000000000000e+00 
24 2 4 2.2559723595316457e+00 -2.3359040267164882e-02 1.0000000000000000e+00 2.0000000000000000e+00 6.0000000000000000e+00 2.5000000000000000e+00 
44 2 4 2.2559723595316457e+00 2.3654304530203763e-09 1.0000000000000000e+00 4.0000000000000000e+00 6.0000000000000000e+00 2.5000000000000000e+00 
64 2 4 2.2559723595316457e+00 4.5477965911393565e-05 1.0000000000000000e+00 6.0000000000000000e+00 6.0000000000000000e+00 2.5000000000000000e+00 
84 2 4 2.2559723595316457e+00 2.7673695808987124e-03 1.0000000000000000e+00 8.0000000000000000e+00 6.0000000000000000e+00 2.5000000000000000e+00 
104 2 4 2.2559723595316457e+00 -6.2556471414929099e-03 1.0000000000000000e+00 1.0000000000000000e+01 6.0000000000000000e+00 2.5000000000000000e+00 
124 2 4 2.2559723595316457e+00 7.5569368861787432e-07 1.0000000000000000e+00 1.2000000000000000e+01 6.0000000000000000e+00 2.5000000000000000e+00 
144 2 4 2.2559723595316457e+00 1.3924131033354819e-07 1.0000000000000000e+00 1.4000000000000000e+01 6.0000000000000000e+00 2.5000000000000000e+00 
164 2 4 2.2559723595316457e+00 1.1760614271321480e-07 1.0000000000000000e+00 1.6000000000000000e+01 6.0000000000000000e+00 2.5000000000000000e+00 
184 2 4 2.2559723595316457e+00 -2.0883990984648027e-01 1.0000000000000000e+00 1.8000000000000000e+01 6.0000000000000000e+00 2.5000000000000000e+00 
5 2 4 2.2559723595316457e+00 1.0505868724618666e-09 1.0000000000000000e+00 0.0000000000000000e+00 8.0000000000000000e+00 2.5000000000000000e+00 
25 2 4 2.2559723595316457e+00 -3.2388555896947231e-02 1.0000000000000000e+00 2.0000000000000000e+00 8.0000000000000000e+00 2.5000000000000000e+00 
45 2 4 2.2559723595316457e+00 1.9014266422234603e-09 1.0000000000000000e+00 4.0000000000000000e+00 8.0000000000000000e+00 2.5000000000000000e+00 
65 2 4 2.2559723595316457e+00 6.1057810777628698e-07 1.0000000000000000e+00 6.0000000000000000e+00 8.0000000000000000e+00 2.5000000000000000e+00 
85 2 4 2.2559723595316457e+00 3.2627879465795406e-09 1.0000000000000000e+00 8.0000000000000000e+00 8.0000000000000000e+00 2.5000000000000000e+00 
105 2 4 2.2559723595316457e+00 -2.5150886028766972e-02 1.0000000000000000e+00 1.0000000000000000e+01 8.0000000000000000e+00 2.5000000000000000e+00 
125 2 4 2.2559723595316457e+00 2.8293461969365289e-07 1.0000000000000000e+00 1.2000000000000000e+01 8.0000000000000000e+00 2.5000000000000000e+00 
145 2 4 2.2559723595316457e+00 2.2149222511999582e+00 1.0000000000000000e+00 1.4000000000000000e+01 8.0000000000000000e+00 2.5000000000000000e+00 
165 2 4 2.2559723595316457e+00 3.1018024412561762e+00 1.0000000000000000e+00 1.6000000000000000e+01 8.0000000000000000e+00 2.5000000000000000e+00 
185 2 4 2.2559723595316457e+00 -7.5882245030346862e-01 1.0000000000000000e+00 1.8000000000000000e+01 8.0000000000000000e+00 2.5000000000000000e+00 
6 2 4 2.2559723595316457e+00 -1.0018197722156966e-01 1.0000000000000000e+00 0.0000000000000000e+00 1.0000000000000000e+01 2.5000000000000000e+00 
26 2 4 2.2559723595316457e+00 7.2026277535584939e-10 1.0000000000000000e+00 2.0000000000000000e+00 1.0000000000000000e+01 2.5000000000000000e+00 
46 2 4 2.2559723595316457e+00 3.5462128458669682e-08 1.0000000000000000e+00 4.0000000000000000e+00 1.0000000000000000e+01 2.5000000000000000e+00 
66 2 4 2.2559723595316457e+00 8.5284932248634614e-08 1.0000000000000000e+00 6.0000000000000000e+00 1.0000000000000000e+01 2.5000000000000000e+00 
86 2 4 2.2559723595316457e+00 -7.3775321853720749e-05 1.0000000000000000e+00 8.0000000000000000e+00 1.0000000000000000e+01 2.5000000000000000e+00 
106 2 4 2.2559723595316457e+00 8.4087046260578687e-04 1.0000000000000000e+00 1.0000000000000000e+01 1.0000000000000000e+01 2.5000000000000000e+00 
126 2 4 2.2559723595316457e+00 2.2212017165466922e-07 1.0000000000000000e+00 1.2000000000000000e+01 1.0000000000000000e+01 2.5000000000000000e+00 
146 2 4 2.2559723595316457e+00 4.0663236128740535e-04 1.0000000000000000e+00 1.4000000000000000e+01 1.0000000000000000e+01 2.5000000000000000e+00 
166 2 4 2.2559723595316457e+00 3.8608008303629175e-03 1.0000000000000000e+00 1.6000000000000000e+01 1.0000000000000000e+01 2.5000000000000000e+00 
186 2 4 2.2559723595316457e+00 -9.7050566398907157e-01 1.0000000000000000e+00 1.8000000000000000e+01 1.0000000000000000e+01 2.5000000000000000e+00 
7 2 4 2.2559723595316457e+00 2.7188809888408860e-01 1.0000000000000000e+00 0.0000000000000000e+00 1.2000000000000000e+01 2.5000000000000000e+00 
27 2 4 2.2559723595316457e+00 -1.2304547076542023e-01 1.0000000000000000e+00 2.0000000000000000e+00 1.2000000000000000e+01 2.5000000000000000e+00 
47 2 4 2.2559723595316457e+00 2.7615498957169679e-02 1.0000000000000000e+00 4.0000000000000000e+00 1.2000000000000000e+01 2.5000000000000000e+00 
67 2 4 2.2559723595316457e+00 6.3346555676161003e-09 1.0000000000000000e+00 6.0000000000000000e+00 1.2000000000000000e+01 2.5000000000000000e+00 
87 2 4 2.2559723595316457e+00 1.0136110342680295e-06 1.0000000000000000e+00 8.0000000000000000e+00 1.2000000000000000e+01 2.5000000000000000e+00 
107 2 4 2.2559723595316457e+00 -1.1667411705848682e-02 1.0000000000000000e+00 1.0000000000000000e+01 1.2000000000000000e+01 2.5000000000000000e+00 
127 2 4 2.2559723595316457e+00 4.7563051489877411e-02 1.0000000000000000e+00 1.2000000000000000e+01 1.2000000000000000e+01 2.5000000000000000e+00 
147 2 4 2.2559723595316457e+00 5.5002037475065089e-04 1.0000000000000000e+00 1.4000000000000000e+01 1.2000000000000000e+01 2.5000000000000000e+00 
167 2 4 2.2559723595316457e+00 3.8720000108879638e+00 1.0000000000000000e+00 1.6000000000000000e+01 1.2000000000000000e+01 2.5000000000000000e+00 
187 2 4 2.2559723595316457e+00 -2.8521716017414983e-03 1.0000000000000000e+00 1.8000000000000000e+01 1.2000000000000000e+01 2.5000000000000000e+00 
8 2 4 2.2559723595316457e+00 -7.9612876555627127e-02 1.0000000000000000e+00 0.0000000000000000e+00 1.4000000000000000e+01 2.5000000000000000e+00 
28 2 4 2.2559723595316457e+00 -2.5893271411163371e-01 1.0000000000000000e+00 2.0000000000000000e+00 1.4000000000000000e+01 2.5000000000000000e+00 
48 2 4 2.2559723595316457e+00 3.8694183498729268e-09 1.0000000000000000e+00 4.0000000000000000e+00 1.4000000000000000e+01 2.5000000000000000e+00 
68 2 4 2.2559723595316457e+00 -6.7993705695492681e-05 1.0000000000000000e+00 6.0000000000000000e+00 1.4000000000000000e+01 2.5000000000000000e+00 
88 2 4 2.2559723595316457e+00 -2.3083132887506284e-04 1.0000000000000000e+00 8.0000000000000000e+00 1.4000000000000000e+01 2.5000000000000000e+00 
108 2 4 2.2559723595316457e+00 4.3835888887229033e-03 1.0000000000000000e+00 1.0000000000000000e+01 1.4000000000000000e+01 2.5000000000000000e+00 
128 2 4 2.2559723595316457e+00 -4.0289156320553890e-03 1.0000000000000000e+00 1.2000000000000000e+01 1.4000000000000000e+01 2.5000000000000000e+00 
148 2 4 2.2559723595316457e+00 -3.8052589234580027e-04 1.0000000000000000e+00 1.4000000000000000e+01 1.4000000000000000e+01 2.5000000000000000e+00 
168 2 4 2.2559723595316457e+00 -3.7603861360068441e-01 1.0000000000000000e+00 1.6000000000000000e+01 1.4000000000000000e+01 2.5000000000000000e+00 
188 2 4 2.2559723595316457e+00 1.0751133875874048e-03 1.0000000000000000e+00 1.8000000000000000e+01 1.4000000000000000e+01 2.5000000000000000e+00 
9 2 4 2.2559723595316457e+00 3.7250973588465066e+00 1.0000000000000000e+00 0.0000000000000000e+00 1.6000000000000000e+01 2.5000000000000000e+00 
29 2 4 2.2559723595316457e+00 2.2976638861039130e-09 1.0000000000000000e+00 2.0000000000000000e+00 1.6000000000000000e+01 2.5000000000000000e+00 
49 2 4 2.2559723595316457e+00 6.8568564008171985e-09 1.0000000000000000e+00 4.0000000000000000e+00 1.6000000000000000e+01 2.5000000000000000e+00 
69 2 4 2.2559723595316457e+00 -5.9554082790886088e-06 1.0000000000000000e+00 6.0000000000000000e+00 1.6000000000000000e+01 2.5000000000000000e+00 
89 2 4 2.2559723595316457e+00 -5.3742386972444782e-03 1.0000000000000000e+00 8.0000000000000000e+00 1.6000000000000000e+01 2.5000000000000000e+00 
109 2 4 2.2559723595316457e+00 -3.1925735039474562e-05 1.0000000000000000e+00 1.0000000000000000e+01 1.6000000000000000e+01 2.5000000000000000e+00 
129 2 4 2.2559723595316457e+00 -1.5509951644266388e-02 1.0000000000000000e+00 1.2000000000000000e+01 1.6000000000000000e+01 2.5000000000000000e+00 
149 2 4 2.2559723595316457e+00 -9.2548692250932034e-03 1.0000000000000000e+00 1.4000000000000000e+01 1.6000000000000000e+01 2.5000000000000000e+00 
169 2 4 2.2559723595316457e+00 -2.6070582232459016e-03 1.0000000000000000e+00 1.6000000000000000e+01 1.6000000000000000e+01 2.5000000000000000e+00 
189 2 4 2.2559723595316457e+00 -5.3200019552549981e-05 1.0000000000000000e+00 1.8000000000000000e+01 1.6000000000000000e+01 2.5000000000000000e+00 
10 2 4 2.2559723595316457e+00 8.2762357156184546e-08 1.0000000000000000e+00 0.0000000000000000e+00 1.8000000000000000e+01 2.5000000000000000e+00 
30 2 4 2.2559723595316457e+00 1.9121949807455967e-09 1.0000000000000000e+00 2.0000000000000000e+00 1.8000000000000000e+01 2.5000000000000000e+00 
50 2 4 2.2559723595316457e+00 1.3487408473863271e-09 1.0000000000000000e+00 4.0000000000000000e+00 1.8000000000000000e+01 2.5000000000000000e+00 
70 2 4 2.2559723595316457e+00 3.9917141530054048e+00 1.0000000000000000e+00 6.0000000000000000e+00 1.8000000000000000e+01 2.5000000000000000e+00 
90 2 4 2.2559723595316457e+00 1.6396873558200080e+00 1.0000000000000000e+00 8.0000000000000000e+00 1.8000000000000000e+01 2.5000000000000000e+00 
110 2 4 2.2559723595316457e+00 2.0100657931199887e-09 1.0000000000000000e+00 1.0000000000000000e+01 1.8000000000000000e+01 2.5000000000000000e+00 
130 2 4 2.2559723595316457e+00 -1.7581466123561786e-05 1.0000000000000000e+00 1.2000000000000000e+01 1.8000000000000000e+01 2.5000000000000000e+00 
150 2 4 2.2559723595316457e+00 5.2961068878995101e-05 1.0000000000000000e+00 1.4000000000000000e+01 1.8000000000000000e+01 2.5000000000000000e+00 
170 2 4 2.2559723595316457e+00 9.2261559446243685e-04 1.0000000000000000e+00 1.6000000000000000e+01 1.8000000000000000e+01 2.5000000000000000e+00 
190 2 4 2.2559723595316457e+00 -3.4901886667380554e-03 1.0000000000000000e+00 1.8000000000000000e+01 1.8000000000000000e+01 2.5000000000000000e+00 
1008 610 2 1.0279996850712261e+00 1.8097546967267485e+03 1.0000000000000000e+00 3.0523186188084233e+00 9.8085713559596535e+00 5.5423687183756485e+00 
1614 1216 2 1.0279996851188293e+00 -1.5094934460004692e+03 1.0000000000000000e+00 3.0521880899858602e+00 9.8087780669305999e+00 5.5423633425844869e+00 
531 133 2 1.0279999997176381e+00 -5.1487393031067350e+03 1.0000000000000000e+00 7.0579209671966101e+00 8.5477786893771199e+00 5.5381226087861197e+00 
776 378 2 1.0279999490283322e+00 -1.1448534452517958e+03 1.0000000000000000e+00 4.4997441178998510e-01 1.1100976808935471e+01 5.8309775630734135e+00 
580 182 2 1.0280001053985581e+00 2.2831285919874290e+03 1.0000000000000000e+00 4.4702365728773632e+00 1.1629980550212936e+01 5.5865307635038439e+00 
1039 641 2 1.0279999045204891e+00 1.0992612666592640e+03 1.0000000000000000e+00 5.2891572511399927e+00 1.0441675744100948e+01 5.7667204190390766e+00 
584 186 2 1.0279996033440355e+00 -1.7099775026791549e+03 1.0000000000000000e+00 5.6886329142329952e+00 1.0820564866187047e+01 5.6108532389851531e+00 
893 495 2 1.0280005654998545e+00 5.1344506042827852e+03 1.0000000000000000e+00 7.6747501995792178e-01 1.3447528440869444e+01 5.5200501712126728e+00 
616 218 2 1.0280000021945213e+00 -7.7971847822635345e+02 1.0000000000000000e+00 8.7731151906003806e+00 1.2950754852940610e+01 5.7897926415000880e+00 
631 233 2 1.0279999932455726e+00 1.9789071438492140e+03 1.0000000000000000e+00 9.1477408407572014e+00 1.2556109468858951e+01 5.5486353012928538e+00 
740 342 2 1.0279997778173466e+00 -7.5577803009421345e+01 1.0000000000000000e+00 2.3266754487583863e+00 1.4099786004464494e+01 5.5391347049912030e+00 
958 560 2 1.0280003820181733e+00 2.7602386427469642e+03 1.0000000000000000e+00 3.2689589876126210e+00 1.9843217228756021e+01 5.4950617878182921e+00 
517 119 2 1.0280000947071839e+00 2.5247524985152431e+03 1.0000000000000000e+00 5.6452542778044261e+00 1.8362481159490343e+01 5.6083736782799196e+00 
1885 1487 2 1.0279999693918120e+00 2.5271047702141150e+03 1.0000000000000000e+00 5.7061957790344939e+00 1.8346958746410415e+01 5.6066497254640728e+00 
511 113 2 1.0279996816065249e+00 -8.2560662350834064e+03 1.0000000000000000e+00 7.3833900203926577e+00 1.8807364311060656e+01 5.5787527272287631e+00 
1895 1497 2 1.0280001597567936e+00 -9.3291167777494884e+03 1.0000000000000000e+00 8.7709308642765684e+00 1.8296379931503559e+01 5.6131094420741112e+00 
527 129 2 1.0280000215411602e+00 -9.2985965933463885e+03 1.0000000000000000e+00 8.8925459320445857e+00 1.8421921673235694e+01 5.5888338655186693e+00 
1070 672 2 1.0279996687071924e+00 3.7596861005485825e+03 1.0000000000000000e+00 1.0701857759260694e+01 1.9644603759074457e+01 5.8375334480751242e+00 
1743 1345 2 1.0280001530475409e+00 1.7157024227566283e+03 1.0000000000000000e+00 1.1399941456588586e+01 1.9032556306115129e+01 5.5685814691068192e+00 
1738 1340 2 1.0280000681937416e+00 2.1700590863038537e+03 1.0000000000000000e+00 1.1613863279459723e+01 1.9787055441562895e+01 5.5820027682193523e+00 
435 37 2 1.0279992961675115e+00 -6.1341702620396145e+03 1.0000000000000000e+00 9.7706637369987970e-01 8.6441108158330735e+00 6.5507729809081106e+00 
1797 1399 2 1.0279999861374161e+00 3.2874559022673343e+03 1.0000000000000000e+00 2.0393171339741469e+00 8.6389064985322488e+00 6.0666949973230189e+00 
1887 1489 2 1.0279999944719003e+00 -6.1074580372816017e+03 1.0000000000000000e+00 2.8721142888050482e+00 8.6423102782706263e+00 7.5154281894789881e+00 
413 15 2 1.0280002279917884e+00 -1.4410732901270594e+03 1.0000000000000000e+00 5.6780173632197464e+00 9.7063439812840677e+00 7.7887308496359813e+00 
1620 1222 2 1.0280000681034298e+00 3.4606194232431612e+03 1.0000000000000000e+00 6.7159764152811405e+00 8.3791614889387454e+00 6.0639407058496211e+00 
1808 1410 2 1.0279999127167736e+00 3.7593228076224959e+03 1.0000000000000000e+00 6.9664379176999525e+00 8.4629676093212662e+00 7.6476905473737400e+00 
1682 1284 2 1.0279999788697147e+00 1.5726150442768032e+03 1.0000000000000000e+00 8.3908696593998524e+00 9.2872923457854366e+00 5.9719500304277053e+00 
1193 795 2 1.0279999342124275e+00 -1.0760736875750554e+03 1.0000000000000000e+00 8.4724555470970060e+00 8.6562068855500449e+00 6.3754323229550325e+00 
1485 1087 2 1.0279993376639407e+00 -7.2547775368764451e+02 1.0000000000000000e+00 7.5905499096545970e-01 1.1530142304822531e+01 6.4145189640252767e+00 
913 515 2 1.0280005880479790e+00 7.9836618536599553e+03 1.0000000000000000e+00 1.4528987657125083e+00 1.0364356022576786e+01 6.7957683649590734e+00 
1687 1289 2 1.0280000501934403e+00 1.0762764435241752e+03 1.0000000000000000e+00 2.4937641438511671e+00 1.1966230942535239e+01 7.4178410514754241e+00 
1915 1517 2 1.0280000124680806e+00 2.0639247730209863e+02 1.0000000000000000e+00 2.8027426492218344e+00 1.1550055618846971e+01 7.3493711420613508e+00 
1544 1146 2 1.0279998043000973e+00 -2.3216525187002458e+03 1.0000000000000000e+00 6.9702048181588125e+00 1.1212766558894998e+01 7.1368581217455613e+00 
416 18 2 1.0279999350730660e+00 -1.4594606957277392e+03 1.0000000000000000e+00 7.1573374203518796e+00 1.1048738242735192e+01 7.1005461781503110e+00 
1451 1053 2 1.0279999865065477e+00 -2.1809917895900930e+03 1.0000000000000000e+00 9.6662069810451303e+00 1.0055480387854239e+01 6.8697305891358527e+00 
995 597 2 1.0279999983970454e+00 -2.1859202692265721e+03 1.0000000000000000e+00 9.9533331015981972e+00 1.1896430170144088e+01 7.0599722793602018e+00 
1441 1043 2 1.0280000325880370e+00 3.2570726061679602e+03 1.0000000000000000e+00 9.9856567961003346e+00 1.0492837402323447e+01 7.6422440568304966e+00 
822 424 2 1.0279999859034374e+00 -5.0939419793006600e+03 1.0000000000000000e+00 1.0629520643438937e+01 1.1286919554112165e+01 6.8366221452605771e+00 
892 494 2 1.0279998784184439e+00 6.8780489752363101e+03 1.0000000000000000e+00 2.7437254376825622e+00 1.2752239740937393e+01 5.9306114102817906e+00 
1530 1132 2 1.0280002642097301e+00 -2.7165680831087875e+03 1.0000000000000000e+00 3.5673897235304817e+00 1.3979806423692628e+01 6.7004876222408729e+00 
642 244 2 1.0279998017041885e+00 2.2637823388299407e+03 1.0000000000000000e+00 4.1076699427091521e+00 1.2272811894822933e+01 6.3575003617083885e+00 
1695 1297 2 1.0279998529430276e+00 1.9257857819401647e+03 1.0000000000000000e+00 8.0072401736182126e+00 1.2032629573575715e+01 6.1666212234710809e+00 
959 561 2 1.0279995347498039e+00 3.0446046292912069e+03 1.0000000000000000e+00 6.4300031652249134e-01 1.4182065787623323e+01 6.0348167364370848e+00 
786 388 2 1.0280000787249202e+00 -4.9357393555969802e+03 1.0000000000000000e+00 1.9907316108046209e+00 1.4471797449043791e+01 7.4873338336085657e+00 
1073 675 2 1.0279999246993794e+00 -4.5778391525230136e+03 1.0000000000000000e+00 2.2177245138655555e+00 1.5319207223709302e+01 6.3889101505071491e+00 
629 231 2 1.0280000366824391e+00 -8.7045353704695185e+02 1.0000000000000000e+00 4.1087238570087017e+00 1.5323252992027088e+01 6.1731152508608771e+00 
795 397 2 1.0279999254167289e+00 -5.8990622207333445e+03 1.0000000000000000e+00 4.2070964789080385e+00 1.5441821609804967e+01 7.8154011745182483e+00 
1283 885 2 1.0279998391779510e+00 1.4635138772834921e+03 1.0000000000000000e+00 1.1956716006957395e+00 1.6627005940740471e+01 7.6370909409628718e+00 
744 346 2 1.0280001447787619e+00 1.3767268280633125e+03 1.0000000000000000e+00 2.7328828845644355e+00 1.7905631312077610e+01 6.2553080443955595e+00 
1048 650 2 1.0279997972329558e+00 -2.5723216709333828e+03 1.0000000000000000e+00 3.2982053871757757e+00 1.7605478320627022e+01 6.2980831915094395e+00 
1685 1287 2 1.0279998951894367e+00 -1.1126288584056981e+03 1.0000000000000000e+00 3.6222655559202077e+00 1.6429650385958368e+01 5.9723947648872722e+00 
530 132 2 1.0280003392889128e+00 -5.2495873029051227e+03 1.0000000000000000e+00 9.5535082174059527e-01 1.8677112348579620e+01 6.8575356071034381e+00 
1433 1035 2 1.0279996857682940e+00 2.9671781304418596e+03 1.0000000000000000e+00 1.1564470079607982e+00 1.8159364992338762e+01 7.2377234101103491e+00 
766 368 2 1.0279988746137854e+00 -5.7567823701472380e+03 1.0000000000000000e+00 2.4522072887774486e+00 1.9936957517845716e+01 6.8149480558096878e+00 
1129 731 2 1.0280001280386941e+00 -8.9741857061802094e+01 1.0000000000000000e+00 3.9317587042313753e+00 1.9730495844023576e+01 7.1649693384339157e+00 
815 417 2 1.0279998835641602e+00 -5.3198650226969048e+03 1.0000000000000000e+00 4.8211887805571534e+00 1.9391904122045503e+01 6.7096699554522043e+00 
678 280 2 1.0280000170589032e+00 1.7171141597238470e+03 1.0000000000000000e+00 7.5929612017480723e+00 1.9903516724393501e+01 7.1886098602752009e+00 
675 277 2 1.0280000865458796e+00 2.1594486535058809e+03 1.0000000000000000e+00 8.4327665901354170e+00 1.9932813907277957e+01 6.9446210147224265e+00 
1452 1054 2 1.0279999846508212e+00 5.0558182832207676e+03 1.0000000000000000e+00 2.5735162766512256e+00 7.8673079946258309e+00 8.3805596072434128e+00 
1873 1475 2 1.0279999777906534e+00 4.1265447068348840e+03 1.0000000000000000e+00 3.4251018139800968e+00 7.5667180122936744e+00 7.8909837886499039e+00 
1164 766 2 1.0279999874487893e+00 -2.0498914153291144e+03 1.0000000000000000e+00 3.8764418618397936e+00 7.9264527046952189e+00 9.4879267862514887e+00 
1372 974 2 1.0279999865679394e+00 7.5315259746758265e+03 1.0000000000000000e+00 6.6331077027833434e+00 7.9013255891638572e+00 8.6439870513901216e+00 
1556 1158 2 1.0280001731305375e+00 1.1276058021746633e+02 1.0000000000000000e+00 2.0928388782303596e-02 9.4434580052162449e+00 8.4613742643487555e+00 
674 276 2 1.0279998129093870e+00 2.2924637376996079e+03 1.0000000000000000e+00 4.3794626847662697e+00 8.7407059602035950e+00 9.0950791079862334e+00 
578 180 2 1.0279999569574823e+00 1.7087489411167412e+03 1.0000000000000000e+00 5.1736355854700600e+00 9.5131602691911468e+00 8.0927269683471650e+00 
1185 787 2 1.0279999789416792e+00 -1.7075167913114628e+03 1.0000000000000000e+00 6.0441836066031112e+00 8.0180086286928915e+00 8.9860916119156844e+00 
1511 1113 2 1.0279997721538845e+00 -4.0605389545064504e+03 1.0000000000000000e+00 1.3044231494237639e+00 1.4959954711994909e+01 8.2898091259258013e+00 
1156 758 2 1.0279998589101587e+00 1.0842293953304640e+02 1.0000000000000000e+00 4.0059914066901614e+00 1.5532334931103414e+01 7.8608360400898940e+00 
496 98 2 1.0280002007779050e+00 2.8366857138875012e+03 1.0000000000000000e+00 1.1379442801407385e+00 1.6208912898229098e+01 8.2947098803702239e+00 
1314 916 2 1.0280000094468922e+00 -8.9437079209796877e+02 1.0000000000000000e+00 2.3556216106922174e+00 6.5635608116687782e+00 1.1092976675429577e+01 
1776 1378 2 1.0279999222632994e+00 2.4888338468639731e+03 1.0000000000000000e+00 2.5552740444923692e+00 6.8629978144875388e+00 1.1540691954010489e+01 
1318 920 2 1.0280001160114671e+00 -6.5857035588074552e+02 1.0000000000000000e+00 3.1265952357465610e+00 7.2711494792837970e+00 1.0652028927372557e+01 
1021 623 2 1.0280047120217133e+00 4.1073648067078848e+03 1.0000000000000000e+00 1.5385428303438864e+00 1.9361663316544867e+01 1.1469026358862063e+01 
604 206 2 1.0279981315984243e+00 -8.5105649044047493e+02 1.0000000000000000e+00 2.6684688709657864e+00 1.9678839012381019e+01 1.0271844344767594e+01 
805 407 2 1.0279982527177116e+00 -8.8741900634731246e+02 1.0000000000000000e+00 2.7241917137304577e+00 1.9764719863291255e+01 1.0315888026044270e+01 
1552 1154 2 1.0279999862865541e+00 -2.0378308952847096e+03 1.0000000000000000e+00 8.1101221483715467e+00 1.1728494055251014e+01 1.3184398201089135e+01 
1166 768 2 1.0280002298503859e+00 1.0541855167910828e+02 1.0000000000000000e+00 4.1327396247481083e+00 1.7240142301380207e+01 1.3275146255314109e+01 
1010 612 2 1.0280013927389478e+00 -2.0312979719856983e+03 1.0000000000000000e+00 4.1926126143113489e+00 1.7297866925359358e+01 1.3215711126016201e+01 
1468 1070 2 1.0279992068427866e+00 -3.2588150143128255e+03 1.0000000000000000e+00 3.1018852989011825e-01 1.9246227518391496e+01 1.1917745203565550e+01 
1176 778 2 1.0280049701303731e+00 3.6258432198420510e+03 1.0000000000000000e+00 1.7423372036369231e-01 1.9879297071413191e+01 1.2992417681680621e+01 
1789 1391 2 1.0280010562294382e+00 4.0301058806819360e+03 1.0000000000000000e+00 2.9200571863175431e+00 1.8692177174204240e+01 1.2212817587425507e+01 
844 446 2 1.0279997688470728e+00 2.3560991631364946e+03 1.0000000000000000e+00 3.1846741445763289e+00 1.9178438268050751e+01 1.2001998212280625e+01 
661 263 2 1.0279996692471958e+00 3.2977753604887312e+02 1.0000000000000000e+00 5.9693931293441027e+00 1.8720408549770521e+01 1.3559154769849078e+01 
1920 1522 2 1.0279997617016821e+00 -5.2390888173507228e+03 1.0000000000000000e+00 6.3707015583786584e+00 1.8415474977159171e+01 1.3715039660485687e+01 
784 386 2 1.0280003291895865e+00 -2.2550195348810134e+03 1.0000000000000000e+00 8.9213924190032579e+00 1.9660530162785165e+01 1.3200386964501240e+01 
1903 1505 2 1.0279997050840004e+00 -1.1009382099491247e+03 1.0000000000000000e+00 9.2790569914997612e+00 1.9858181518240158e+01 1.3156330633754695e+01 
1595 1197 2 1.0279999010870968e+00 -6.7203266216124857e+03 1.0000000000000000e+00 1.4633372360491615e+01 1.9763629200789790e+01 1.3370623219392110e+01 
1591 1193 2 1.0279999072051669e+00 -6.0709745168929167e+03 1.0000000000000000e+00 1.4762537669734151e+01 1.9781735618409371e+01 1.3475473801987940e+01 
825 427 2 1.0280000043626836e+00 -6.4658043282691722e+02 1.0000000000000000e+00 6.7005391883574088e+00 1.1795624187207839e+01 1.4131278548256097e+01 
1225 827 2 1.0280000393052000e+00 -3.4940410601535009e+03 1.0000000000000000e+00 8.1598618175530024e+00 1.1448523707022849e+01 1.4481126067408612e+01 
1273 875 2 1.0279999269077944e+00 -2.3124690242643765e+03 1.0000000000000000e+00 6.8584598679860740e+00 1.2456962534526303e+01 1.4319508978322528e+01 
1102 704 2 1.0280000327372762e+00 4.2377384170364430e+03 1.0000000000000000e+00 8.5473030312358187e+00 1.2419129378251174e+01 1.3768208889305360e+01 
532 134 2 1.0280000613794271e+00 4.1763694310605651e+03 1.0000000000000000e+00 8.0258997714640419e+00 1.4277068270691668e+01 1.4833390778000037e+01 
686 288 2 1.0279998876092793e+00 8.1885934038992275e+02 1.0000000000000000e+00 8.0359794636935504e+00 1.4778268688494109e+01 1.4858305232193095e+01 
1500 1102 2 1.0280009421076637e+00 4.7782898112021871e+02 1.0000000000000000e+00 5.2809529539429407e+00 1.6314175709911812e+01 1.4565400966601041e+01 
1497 1099 2 1.0280008030627514e+00 4.7727578139907223e+02 1.0000000000000000e+00 5.4150242140656202e+00 1.6319968218803268e+01 1.4439633432105595e+01 
1765 1367 2 1.0280006633403420e+00 2.6561707613051844e+03 1.0000000000000000e+00 6.7115809427276094e+00 1.7793164279188204e+01 1.5138421499322085e+01 
1078 680 2 1.0280000696967619e+00 5.8872368513611336e+03 1.0000000000000000e+00 1.5234672459827125e+01 1.7320295867310904e+01 1.4564352912654083e+01 
1378 980 2 1.0280001475684999e+00 1.1122132995142474e+03 1.0000000000000000e+00 1.5264452887890323e+01 1.7396471288942774e+01 1.4504288005319644e+01 