LAMMPS data file via write_data, version 30 Jul 2016, timestep = 50000000

1920 atoms
8 atom types

0.0000000000000000e+00 4.0000000000000000e+01 xlo xhi
0.0000000000000000e+00 4.0000000000000000e+01 ylo yhi
0.0000000000000000e+00 1.0000000000000000e+02 zlo zhi

Masses

1 3.896
2 5.36
3 20.064
4 8.378
5 8.378
6 8.378
7 8.378
8 8.378

Atoms # meso-molecular

1 2 4 2.2559723595316457e+00 7.3187639953866845e-02 1.0000000000000000e+00 0.0000000000000000e+00 0.0000000000000000e+00 2.5000000000000000e+00 
21 2 4 2.2559723595316457e+00 2.1141086292178041e-09 1.0000000000000000e+00 2.0000000000000000e+00 0.0000000000000000e+00 2.5000000000000000e+00 
41 2 4 2.2559723595316457e+00 -9.0911836222604532e-05 1.0000000000000000e+00 4.0000000000000000e+00 0.0000000000000000e+00 2.5000000000000000e+00 
61 2 4 2.2559723595316457e+00 9.1033620972605329e-07 1.0000000000000000e+00 6.0000000000000000e+00 0.0000000000000000e+00 2.5000000000000000e+00 
81 2 4 2.2559723595316457e+00 -6.0254514330941256e-01 1.0000000000000000e+00 8.0000000000000000e+00 0.0000000000000000e+00 2.5000000000000000e+00 
101 2 4 2.2559723595316457e+00 -9.4569124357040302e-01 1.0000000000000000e+00 1.0000000000000000e+01 0.0000000000000000e+00 2.5000000000000000e+00 
121 2 4 2.2559723595316457e+00 1.2805843107088233e+00 1.0000000000000000e+00 1.2000000000000000e+01 0.0000000000000000e+00 2.5000000000000000e+00 
141 2 4 2.2559723595316457e+00 -3.0763498093288999e-01 1.0000000000000000e+00 1.4000000000000000e+01 0.0000000000000000e+00 2.5000000000000000e+00 
161 2 4 2.2559723595316457e+00 1.0240031929265010e+00 1.0000000000000000e+00 1.6000000000000000e+01 0.0000000000000000e+00 2.5000000000000000e+00 
181 2 4 2.2559723595316457e+00 -1.3583579236648075e-02 1.0000000000000000e+00 1.8000000000000000e+01 0.0000000000000000e+00 2.5000000000000000e+00 
2 2 4 2.2559723595316457e+00 -9.1810640658462521e+00 1.0000000000000000e+00 0.0000000000000000e+00 2.0000000000000000e+00 2.5000000000000000e+00 
22 2 4 2.2559723595316457e+00 5.1469042830838924e-10 1.0000000000000000e+00 2.0000000000000000e+00 2.0000000000000000e+00 2.5000000000000000e+00 
42 2 4 2.2559723595316457e+00 -5.9925321185853417e-06 1.0000000000000000e+00 4.0000000000000000e+00 2.0000000000000000e+00 2.5000000000000000e+00 
62 2 4 2.2559723595316457e+00 -1.6672233901631424e-04 1.0000000000000000e+00 6.0000000000000000e+00 2.0000000000000000e+00 2.5000000000000000e+00 
82 2 4 2.2559723595316457e+00 -4.8590451758590072e-02 1.0000000000000000e+00 8.0000000000000000e+00 2.0000000000000000e+00 2.5000000000000000e+00 
102 2 4 2.2559723595316457e+00 1.4664947753864182e-07 1.0000000000000000e+00 1.0000000000000000e+01 2.0000000000000000e+00 2.5000000000000000e+00 
122 2 4 2.2559723595316457e+00 2.5609097422651472e+00 1.0000000000000000e+00 1.2000000000000000e+01 2.0000000000000000e+00 2.5000000000000000e+00 
142 2 4 2.2559723595316457e+00 -2.4882551422014447e-02 1.0000000000000000e+00 1.4000000000000000e+01 2.0000000000000000e+00 2.5000000000000000e+00 
162 2 4 2.2559723595316457e+00 -1.2191457564008224e-05 1.0000000000000000e+00 1.6000000000000000e+01 2.0000000000000000e+00 2.5000000000000000e+00 
182 2 4 2.2559723595316457e+00 9.7526482164151974e-03 1.0000000000000000e+00 1.8000000000000000e+01 2.0000000000000000e+00 2.5000000000000000e+00 
3 2 4 2.2559723595316457e+00 2.4370335298675528e-06 1.0000000000000000e+00 0.0000000000000000e+00 4.0000000000000000e+00 2.5000000000000000e+00 
23 2 4 2.2559723595316457e+00 1.7222158205240242e-09 1.0000000000000000e+00 2.0000000000000000e+00 4.0000000000000000e+00 2.5000000000000000e+00 
43 2 4 2.2559723595316457e+00 6.1816448579197205e-09 1.0000000000000000e+00 4.0000000000000000e+00 4.0000000000000000e+00 2.5000000000000000e+00 
63 2 4 2.2559723595316457e+00 5.5720639502988363e-09 1.0000000000000000e+00 6.0000000000000000e+00 4.0000000000000000e+00 2.5000000000000000e+00 
83 2 4 2.2559723595316457e+00 7.2826161040555617e-10 1.0000000000000000e+00 8.0000000000000000e+00 4.0000000000000000e+00 2.5000000000000000e+00 
103 2 4 2.2559723595316457e+00 -6.3638223279135362e-06 1.0000000000000000e+00 1.0000000000000000e+01 4.0000000000000000e+00 2.5000000000000000e+00 
123 2 4 2.2559723595316457e+00 -4.1744275531642458e-08 1.0000000000000000e+00 1.2000000000000000e+01 4.0000000000000000e+00 2.5000000000000000e+00 
143 2 4 2.2559723595316457e+00 -1.2864633860965030e-04 1.0000000000000000e+00 1.4000000000000000e+01 4.0000000000000000e+00 2.5000000000000000e+00 
163 2 4 2.2559723595316457e+00 7.2000587930955881e-08 1.0000000000000000e+00 1.6000000000000000e+01 4.0000000000000000e+00 2.5000000000000000e+00 
183 2 4 2.2559723595316457e+00 5.6617863729989129e-02 1.0000000000000000e+00 1.8000000000000000e+01 4.0000000000000000e+00 2.5000000000000000e+00 
4 2 4 2.2559723595316457e+00 6.8319849150335070e-04 1.0000000000000000e+00 0.0000000000000000e+00 6.0000000000000000e+00 2.5000000000000000e+00 
24 2 4 2.2559723595316457e+00 -2.3359040267164882e-02 1.0000000000000000e+00 2.0000000000000000e+00 6.0000000000000000e+00 2.5000000000000000e+00 
44 2 4 2.2559723595316457e+00 2.3654304530203763e-09 1.0000000000000000e+00 4.0000000000000000e+00 6.0000000000000000e+00 2.5000000000000000e+00 
64 2 4 2.2559723595316457e+00 4.5477965911393565e-05 1.0000000000000000e+00 6.0000000000000000e+00 6.0000000000000000e+00 2.5000000000000000e+00 
84 2 4 2.2559723595316457e+00 2.7673695808987124e-03 1.0000000000000000e+00 8.0000000000000000e+00 6.0000000000000000e+00 2.5000000000000000e+00 
104 2 4 2.2559723595316457e+00 -6.2556471414929099e-03 1.0000000000000000e+00 1.0000000000000000e+01 6.0000000000000000e+00 2.5000000000000000e+00 
124 2 4 2.2559723595316457e+00 7.5569368861787432e-07 1.0000000000000000e+00 1.2000000000000000e+01 6.0000000000000000e+00 2.5000000000000000e+00 
144 2 4 2.2559723595316457e+00 1.3924131033354819e-07 1.0000000000000000e+00 1.4000000000000000e+01 6.0000000000000000e+00 2.5000000000000000e+00 
164 2 4 2.2559723595316457e+00 1.1760614271321480e-07 1.0000000000000000e+00 1.6000000000000000e+01 6.0000000000000000e+00 2.5000000000000000e+00 
184 2 4 2.2559723595316457e+00 -2.0883990984648027e-01 1.0000000000000000e+00 1.8000000000000000e+01 6.0000000000000000e+00 2.5000000000000000e+00 
5 2 4 2.2559723595316457e+00 1.0505868724618666e-09 1.0000000000000000e+00 0.0000000000000000e+00 8.0000000000000000e+00 2.5000000000000000e+00 
25 2 4 2.2559723595316457e+00 -3.2388555896947231e-02 1.0000000000000000e+00 2.0000000000000000e+00 8.0000000000000000e+00 2.5000000000000000e+00 
45 2 4 2.2559723595316457e+00 1.9014266422234603e-09 1.0000000000000000e+00 4.0000000000000000e+00 8.0000000000000000e+00 2.5000000000000000e+00 
65 2 4 2.2559723595316457e+00 6.1057810777628698e-07 1.0000000000000000e+00 6.0000000000000000e+00 8.0000000000000000e+00 2.5000000000000000e+00 
85 2 4 2.2559723595316457e+00 5.3075982887171369e-09 1.0000000000000000e+00 8.0000000000000000e+00 8.0000000000000000e+00 2.5000000000000000e+00 
105 2 4 2.2559723595316457e+00 -2.5150886028766972e-02 1.0000000000000000e+00 1.0000000000000000e+01 8.0000000000000000e+00 2.5000000000000000e+00 
125 2 4 2.2559723595316457e+00 2.8293461969365289e-07 1.0000000000000000e+00 1.2000000000000000e+01 8.0000000000000000e+00 2.5000000000000000e+00 
145 2 4 2.2559723595316457e+00 2.2149222511999582e+00 1.0000000000000000e+00 1.4000000000000000e+01 8.0000000000000000e+00 2.5000000000000000e+00 
165 2 4 2.2559723595316457e+00 3.1018024412561762e+00 1.0000000000000000e+00 1.6000000000000000e+01 8.0000000000000000e+00 2.5000000000000000e+00 
185 2 4 2.2559723595316457e+00 -7.5882245030346862e-01 1.0000000000000000e+00 1.8000000000000000e+01 8.0000000000000000e+00 2.5000000000000000e+00 
6 2 4 2.2559723595316457e+00 -1.0018197722156966e-01 1.0000000000000000e+00 0.0000000000000000e+00 1.0000000000000000e+01 2.5000000000000000e+00 
26 2 4 2.2559723595316457e+00 7.2026277535584939e-10 1.0000000000000000e+00 2.0000000000000000e+00 1.0000000000000000e+01 2.5000000000000000e+00 
46 2 4 2.2559723595316457e+00 3.5462128458669682e-08 1.0000000000000000e+00 4.0000000000000000e+00 1.0000000000000000e+01 2.5000000000000000e+00 
66 2 4 2.2559723595316457e+00 8.5284932248634614e-08 1.0000000000000000e+00 6.0000000000000000e+00 1.0000000000000000e+01 2.5000000000000000e+00 
86 2 4 2.2559723595316457e+00 -7.3775321853720749e-05 1.0000000000000000e+00 8.0000000000000000e+00 1.0000000000000000e+01 2.5000000000000000e+00 
106 2 4 2.2559723595316457e+00 8.4087046260578687e-04 1.0000000000000000e+00 1.0000000000000000e+01 1.0000000000000000e+01 2.5000000000000000e+00 
126 2 4 2.2559723595316457e+00 2.2212017165466922e-07 1.0000000000000000e+00 1.2000000000000000e+01 1.0000000000000000e+01 2.5000000000000000e+00 
146 2 4 2.2559723595316457e+00 4.0663236128740535e-04 1.0000000000000000e+00 1.4000000000000000e+01 1.0000000000000000e+01 2.5000000000000000e+00 
166 2 4 2.2559723595316457e+00 3.8608008303629175e-03 1.0000000000000000e+00 1.6000000000000000e+01 1.0000000000000000e+01 2.5000000000000000e+00 
186 2 4 2.2559723595316457e+00 -9.7050566398907157e-01 1.0000000000000000e+00 1.8000000000000000e+01 1.0000000000000000e+01 2.5000000000000000e+00 
7 2 4 2.2559723595316457e+00 2.7188809888408860e-01 1.0000000000000000e+00 0.0000000000000000e+00 1.2000000000000000e+01 2.5000000000000000e+00 
27 2 4 2.2559723595316457e+00 -1.2304547076542023e-01 1.0000000000000000e+00 2.0000000000000000e+00 1.2000000000000000e+01 2.5000000000000000e+00 
47 2 4 2.2559723595316457e+00 2.7615498957169679e-02 1.0000000000000000e+00 4.0000000000000000e+00 1.2000000000000000e+01 2.5000000000000000e+00 
67 2 4 2.2559723595316457e+00 6.3346555676161003e-09 1.0000000000000000e+00 6.0000000000000000e+00 1.2000000000000000e+01 2.5000000000000000e+00 
87 2 4 2.2559723595316457e+00 1.0136110342680295e-06 1.0000000000000000e+00 8.0000000000000000e+00 1.2000000000000000e+01 2.5000000000000000e+00 
107 2 4 2.2559723595316457e+00 -1.1667411705848682e-02 1.0000000000000000e+00 1.0000000000000000e+01 1.2000000000000000e+01 2.5000000000000000e+00 
127 2 4 2.2559723595316457e+00 4.7563051489877411e-02 1.0000000000000000e+00 1.2000000000000000e+01 1.2000000000000000e+01 2.5000000000000000e+00 
147 2 4 2.2559723595316457e+00 5.5002037475065089e-04 1.0000000000000000e+00 1.4000000000000000e+01 1.2000000000000000e+01 2.5000000000000000e+00 
167 2 4 2.2559723595316457e+00 3.8720000108879638e+00 1.0000000000000000e+00 1.6000000000000000e+01 1.2000000000000000e+01 2.5000000000000000e+00 
187 2 4 2.2559723595316457e+00 -2.8521716017414983e-03 1.0000000000000000e+00 1.8000000000000000e+01 1.2000000000000000e+01 2.5000000000000000e+00 
8 2 4 2.2559723595316457e+00 -7.9612876555627127e-02 1.0000000000000000e+00 0.0000000000000000e+00 1.4000000000000000e+01 2.5000000000000000e+00 
28 2 4 2.2559723595316457e+00 -2.5893271411163371e-01 1.0000000000000000e+00 2.0000000000000000e+00 1.4000000000000000e+01 2.5000000000000000e+00 
48 2 4 2.2559723595316457e+00 3.8694183498729268e-09 1.0000000000000000e+00 4.0000000000000000e+00 1.4000000000000000e+01 2.5000000000000000e+00 
68 2 4 2.2559723595316457e+00 -6.7993705695492681e-05 1.0000000000000000e+00 6.0000000000000000e+00 1.4000000000000000e+01 2.5000000000000000e+00 
88 2 4 2.2559723595316457e+00 -2.3083132887506284e-04 1.0000000000000000e+00 8.0000000000000000e+00 1.4000000000000000e+01 2.5000000000000000e+00 
108 2 4 2.2559723595316457e+00 4.3835888887229033e-03 1.0000000000000000e+00 1.0000000000000000e+01 1.4000000000000000e+01 2.5000000000000000e+00 
128 2 4 2.2559723595316457e+00 -4.0289156320553890e-03 1.0000000000000000e+00 1.2000000000000000e+01 1.4000000000000000e+01 2.5000000000000000e+00 
148 2 4 2.2559723595316457e+00 -3.8052589234580027e-04 1.0000000000000000e+00 1.4000000000000000e+01 1.4000000000000000e+01 2.5000000000000000e+00 
168 2 4 2.2559723595316457e+00 -3.7603861360068441e-01 1.0000000000000000e+00 1.6000000000000000e+01 1.4000000000000000e+01 2.5000000000000000e+00 
188 2 4 2.2559723595316457e+00 1.0751133875874048e-03 1.0000000000000000e+00 1.8000000000000000e+01 1.4000000000000000e+01 2.5000000000000000e+00 
9 2 4 2.2559723595316457e+00 3.7250973588465066e+00 1.0000000000000000e+00 0.0000000000000000e+00 1.6000000000000000e+01 2.5000000000000000e+00 
29 2 4 2.2559723595316457e+00 2.2976638861039130e-09 1.0000000000000000e+00 2.0000000000000000e+00 1.6000000000000000e+01 2.5000000000000000e+00 
49 2 4 2.2559723595316457e+00 6.8568564008171985e-09 1.0000000000000000e+00 4.0000000000000000e+00 1.6000000000000000e+01 2.5000000000000000e+00 
69 2 4 2.2559723595316457e+00 -5.9554082790886088e-06 1.0000000000000000e+00 6.0000000000000000e+00 1.6000000000000000e+01 2.5000000000000000e+00 
89 2 4 2.2559723595316457e+00 -5.3742386972444782e-03 1.0000000000000000e+00 8.0000000000000000e+00 1.6000000000000000e+01 2.5000000000000000e+00 
109 2 4 2.2559723595316457e+00 -3.1925735039474562e-05 1.0000000000000000e+00 1.0000000000000000e+01 1.6000000000000000e+01 2.5000000000000000e+00 
129 2 4 2.2559723595316457e+00 -1.5509951644266388e-02 1.0000000000000000e+00 1.2000000000000000e+01 1.6000000000000000e+01 2.5000000000000000e+00 
149 2 4 2.2559723595316457e+00 -9.2548692250932034e-03 1.0000000000000000e+00 1.4000000000000000e+01 1.6000000000000000e+01 2.5000000000000000e+00 
169 2 4 2.2559723595316457e+00 -2.6070582232459016e-03 1.0000000000000000e+00 1.6000000000000000e+01 1.6000000000000000e+01 2.5000000000000000e+00 
189 2 4 2.2559723595316457e+00 -5.3200019552549981e-05 1.0000000000000000e+00 1.8000000000000000e+01 1.6000000000000000e+01 2.5000000000000000e+00 
10 2 4 2.2559723595316457e+00 8.2762357156184546e-08 1.0000000000000000e+00 0.0000000000000000e+00 1.8000000000000000e+01 2.5000000000000000e+00 
30 2 4 2.2559723595316457e+00 1.9121949807455967e-09 1.0000000000000000e+00 2.0000000000000000e+00 1.8000000000000000e+01 2.5000000000000000e+00 
50 2 4 2.2559723595316457e+00 1.3487408473863271e-09 1.0000000000000000e+00 4.0000000000000000e+00 1.8000000000000000e+01 2.5000000000000000e+00 
70 2 4 2.2559723595316457e+00 3.9917141530054048e+00 1.0000000000000000e+00 6.0000000000000000e+00 1.8000000000000000e+01 2.5000000000000000e+00 
90 2 4 2.2559723595316457e+00 1.6396873558200080e+00 1.0000000000000000e+00 8.0000000000000000e+00 1.8000000000000000e+01 2.5000000000000000e+00 
110 2 4 2.2559723595316457e+00 2.0100657931199887e-09 1.0000000000000000e+00 1.0000000000000000e+01 1.8000000000000000e+01 2.5000000000000000e+00 
130 2 4 2.2559723595316457e+00 -1.7581466123561786e-05 1.0000000000000000e+00 1.2000000000000000e+01 1.8000000000000000e+01 2.5000000000000000e+00 
150 2 4 2.2559723595316457e+00 5.2961068878995101e-05 1.0000000000000000e+00 1.4000000000000000e+01 1.8000000000000000e+01 2.5000000000000000e+00 
170 2 4 2.2559723595316457e+00 9.2261559446243685e-04 1.0000000000000000e+00 1.6000000000000000e+01 1.8000000000000000e+01 2.5000000000000000e+00 
190 2 4 2.2559723595316457e+00 -3.4901886667380554e-03 1.0000000000000000e+00 1.8000000000000000e+01 1.8000000000000000e+01 2.5000000000000000e+00 
1529 1131 2 1.0279999236036352e+00 -2.0559307677937968e+03 1.0000000000000000e+00 1.5658851566123136e-01 9.0371994120552124e+00 5.5889389733331827e+00 
1008 610 2 1.0279997183170255e+00 1.8097545774704834e+03 1.0000000000000000e+00 4.4406505508162235e+00 9.4627043581055084e+00 5.4896290583113894e+00 
1614 1216 2 1.0279997183468623e+00 -1.5094935652669744e+03 1.0000000000000000e+00 4.4405134806167386e+00 9.4629236078848269e+00 5.4896248558851974e+00 
531 133 2 1.0280000295750125e+00 -5.1487393549250819e+03 1.0000000000000000e+00 8.3149739771825679e+00 8.0886687552412049e+00 5.4820528737628820e+00 
478 80 2 1.0279997613518730e+00 -5.2311583266649277e+03 1.0000000000000000e+00 5.5223733971959188e-01 1.0353643951134361e+01 5.5647514400181395e+00 
776 378 2 1.0279999080760454e+00 -1.1448536100108020e+03 1.0000000000000000e+00 1.9280889654351516e+00 1.0800375768189221e+01 5.8038096323161916e+00 
580 182 2 1.0280001725433725e+00 2.2831280749264733e+03 1.0000000000000000e+00 5.8593768864694109e+00 1.1279463761296391e+01 5.5418338107130980e+00 
1039 641 2 1.0279998413329017e+00 1.0992607492181492e+03 1.0000000000000000e+00 6.6372020970101797e+00 1.0044116193260502e+01 5.7161240719591211e+00 
584 186 2 1.0279996743204096e+00 -1.7099779759187325e+03 1.0000000000000000e+00 7.0439734764366646e+00 1.0427030488037234e+01 5.5456493698490945e+00 
489 91 2 1.0279996356599013e+00 2.8256612974534492e+03 1.0000000000000000e+00 8.4896916782003906e-01 1.3389392500533555e+01 5.5530041543298543e+00 
893 495 2 1.0280001284585858e+00 5.1344504318224508e+03 1.0000000000000000e+00 2.3049648649418555e+00 1.3194469986855703e+01 5.4980907479045769e+00 
740 342 2 1.0279998586985306e+00 -7.5578002495649997e+01 1.0000000000000000e+00 3.8549910775879019e+00 1.3823735229633520e+01 5.4999893447483785e+00 
631 233 2 1.0280000053755436e+00 1.9789071246421677e+03 1.0000000000000000e+00 1.0422381112973138e+01 1.2115949484827592e+01 5.4884419184551003e+00 
616 218 2 1.0280000369025919e+00 -7.7971849272098109e+02 1.0000000000000000e+00 1.0048456792691725e+01 1.2512801995779448e+01 5.7303165097531972e+00 
1895 1497 2 1.0280000963080018e+00 -9.3291167947836693e+03 1.0000000000000000e+00 1.0480470129448332e+01 1.7891042469434321e+01 5.5763537922302797e+00 
958 560 2 1.0280002365754779e+00 2.7602375278663908e+03 1.0000000000000000e+00 5.0245580545164330e+00 1.9585727265507082e+01 5.4444035720065891e+00 
1885 1487 2 1.0280000890389382e+00 2.5271045001909065e+03 1.0000000000000000e+00 7.4055610991990468e+00 1.8002769186446812e+01 5.5590342116568747e+00 
517 119 2 1.0280001796425084e+00 2.5247522059906655e+03 1.0000000000000000e+00 7.3459819664879609e+00 1.8021150769418728e+01 5.5618926994179665e+00 
511 113 2 1.0279998423183556e+00 -8.2560664443480127e+03 1.0000000000000000e+00 9.0906629008136033e+00 1.8413012524221685e+01 5.5336221307358251e+00 
527 129 2 1.0280000563016762e+00 -9.2985966196813915e+03 1.0000000000000000e+00 1.0601599002787836e+01 1.8012959551827041e+01 5.5519874176076005e+00 
1070 672 2 1.0279997589505676e+00 3.7596860344313723e+03 1.0000000000000000e+00 1.2421093648562472e+01 1.9212879525294561e+01 5.8046935617205584e+00 
1743 1345 2 1.0280001216437973e+00 1.7157024230495097e+03 1.0000000000000000e+00 1.3123499738920048e+01 1.8599409200538986e+01 5.5316123617706001e+00 
1738 1340 2 1.0280000480841305e+00 2.1700590885522611e+03 1.0000000000000000e+00 1.3339157436242738e+01 1.9346747222378486e+01 5.5441712083405204e+00 
1620 1222 2 1.0280000700427876e+00 3.4606193620898675e+03 1.0000000000000000e+00 7.9781385423407594e+00 7.9243716359309113e+00 6.0091059619856777e+00 
488 90 2 1.0279997761172273e+00 3.8894064004755191e+03 1.0000000000000000e+00 1.4256726451034776e+00 8.5873993930066472e+00 6.8242493780223050e+00 
435 37 2 1.0279994883501238e+00 -6.1341708098955023e+03 1.0000000000000000e+00 2.3866341830576214e+00 8.2923917968611818e+00 6.5162696344246251e+00 
1797 1399 2 1.0280000573069785e+00 3.2874555368363731e+03 1.0000000000000000e+00 3.4368905444781550e+00 8.2799990768659697e+00 6.0293725436183339e+00 
1887 1489 2 1.0279999475514048e+00 -6.1074586208572937e+03 1.0000000000000000e+00 4.2116625594299109e+00 8.2436477144310665e+00 7.4903273035404734e+00 
413 15 2 1.0280001198130615e+00 -1.4410733949123678e+03 1.0000000000000000e+00 6.9698112822289042e+00 9.2625016008902605e+00 7.7506950463098123e+00 
1808 1410 2 1.0280000062814891e+00 3.7593227663763050e+03 1.0000000000000000e+00 8.2358811804837124e+00 8.0148411612735604e+00 7.6006724949241908e+00 
1682 1284 2 1.0280000261509161e+00 1.5726150235330454e+03 1.0000000000000000e+00 9.6472355789151880e+00 8.8278877382636516e+00 5.9136457449004256e+00 
1193 795 2 1.0279998625313409e+00 -1.0760736982100595e+03 1.0000000000000000e+00 9.7311036246166456e+00 8.1926368452687743e+00 6.3191838047938909e+00 
1451 1053 2 1.0280000389858173e+00 -2.1809917984412314e+03 1.0000000000000000e+00 1.0920555081521206e+01 9.5957237127529567e+00 6.8139185452873869e+00 
913 515 2 1.0280004642316596e+00 7.9836614893043889e+03 1.0000000000000000e+00 2.8951756085852494e+00 1.0043437749169893e+01 6.7666685315696622e+00 
1485 1087 2 1.0279995439659919e+00 -7.2547804445677002e+02 1.0000000000000000e+00 2.2340411605811545e+00 1.1235531799306111e+01 6.4060899758646634e+00 
1687 1289 2 1.0280000754073810e+00 1.0762762213382039e+03 1.0000000000000000e+00 3.9437491183895843e+00 1.1637319476545937e+01 7.3899187005495062e+00 
1915 1517 2 1.0280000296580898e+00 2.0639234289199595e+02 1.0000000000000000e+00 4.2406341703041122e+00 1.1220015373239114e+01 7.3229931535668058e+00 
642 244 2 1.0279998300350079e+00 2.2637817697942123e+03 1.0000000000000000e+00 5.5418069368274949e+00 1.1951379077188927e+01 6.3231071031820960e+00 
416 18 2 1.0279999482358049e+00 -1.4594608693808605e+03 1.0000000000000000e+00 8.4558370385379504e+00 1.0608981970431769e+01 7.0778149594535567e+00 
1544 1146 2 1.0279998886014279e+00 -2.3216527013994050e+03 1.0000000000000000e+00 8.2677561688603678e+00 1.0778284079598254e+01 7.1183285062189174e+00 
1695 1297 2 1.0279997996130732e+00 1.9257856744539022e+03 1.0000000000000000e+00 9.2874825338523017e+00 1.1596113827276477e+01 6.1143130903554797e+00 
1441 1043 2 1.0280000415059163e+00 3.2570726022607669e+03 1.0000000000000000e+00 1.1237741709070443e+01 1.0033395314841494e+01 7.5839167833493901e+00 
995 597 2 1.0279999687587491e+00 -2.1859203051333784e+03 1.0000000000000000e+00 1.1212238180858218e+01 1.1441147828620142e+01 7.0040647628746617e+00 
822 424 2 1.0279999690753134e+00 -5.0939419883962528e+03 1.0000000000000000e+00 1.1883856142307142e+01 1.0827876107015481e+01 6.7798293905877101e+00 
854 456 2 1.0280000300274894e+00 -1.2721485368022318e+03 1.0000000000000000e+00 9.8194598759929162e-03 1.2074122099985289e+01 7.1873053775321631e+00 
959 561 2 1.0279999766856920e+00 3.0446044915272905e+03 1.0000000000000000e+00 2.1857151756880402e+00 1.3930508748689396e+01 6.0112909240894892e+00 
892 494 2 1.0279999355728469e+00 6.8780484344443084e+03 1.0000000000000000e+00 4.2196642791438768e+00 1.2450711709750829e+01 5.8973144412069329e+00 
1530 1132 2 1.0280002909671768e+00 -2.7165685397127363e+03 1.0000000000000000e+00 5.0725562906851938e+00 1.3698584012904741e+01 6.6650209201725126e+00 
786 388 2 1.0279998054688444e+00 -4.9357396662766332e+03 1.0000000000000000e+00 3.5488506861230715e+00 1.4202369910606853e+01 7.4699837918637133e+00 
1073 675 2 1.0280001372652745e+00 -4.5778394348117472e+03 1.0000000000000000e+00 3.7766272649571748e+00 1.5049772919278867e+01 6.3637044144025552e+00 
1156 758 2 1.0279999065401895e+00 1.0842284966649530e+02 1.0000000000000000e+00 5.5464041444279166e+00 1.5236997401644807e+01 7.8339825683731510e+00 
629 231 2 1.0280000115428423e+00 -8.7045374768895374e+02 1.0000000000000000e+00 5.6524266454532253e+00 1.5028514319323500e+01 6.1393155687023437e+00 
795 397 2 1.0279999441797676e+00 -5.8990622946297381e+03 1.0000000000000000e+00 5.7489074515330456e+00 1.5143106257602064e+01 7.7851962328128179e+00 
471 73 2 1.0279991196918377e+00 -3.5084063171308171e+03 1.0000000000000000e+00 4.9525359950345826e-01 1.6668490036770564e+01 7.2306424687864403e+00 
540 142 2 1.0279998924550418e+00 -7.9750433048884940e+02 1.0000000000000000e+00 6.5055311159778173e-01 1.6337853156028523e+01 7.1074939801060566e+00 
1283 885 2 1.0279999994400695e+00 1.4635131242379937e+03 1.0000000000000000e+00 2.8327193577172780e+00 1.6396820423063321e+01 7.6260649818159330e+00 
1433 1035 2 1.0280001080635357e+00 2.9671775714408145e+03 1.0000000000000000e+00 2.8408413622524309e+00 1.7941749634783086e+01 7.2254123720853718e+00 
1685 1287 2 1.0279998332903297e+00 -1.1126293749778938e+03 1.0000000000000000e+00 5.2078996464348650e+00 1.6150689193172440e+01 5.9339655142627326e+00 
744 346 2 1.0279996219197605e+00 1.3767259146229283e+03 1.0000000000000000e+00 4.3919316541971964e+00 1.7646728915192035e+01 6.2159310822593135e+00 
1048 650 2 1.0280004591914427e+00 -2.5723224628450125e+03 1.0000000000000000e+00 4.9404211738435366e+00 1.7338399463113316e+01 6.2563383081722757e+00 
530 132 2 1.0280000521369470e+00 -5.2495879691802766e+03 1.0000000000000000e+00 2.6565780568488186e+00 1.8465877311799659e+01 6.8567903457255923e+00 
967 569 2 1.0280004185442546e+00 4.8058978228984876e+02 1.0000000000000000e+00 2.8828167877494990e+00 1.9879381280324210e+01 6.6405327533129457e+00 
766 368 2 1.0279997150553926e+00 -5.7567843885466355e+03 1.0000000000000000e+00 4.1866955618382180e+00 1.9698608326958869e+01 6.8088976069963056e+00 
1129 731 2 1.0280000707622334e+00 -8.9742517900231093e+01 1.0000000000000000e+00 5.6804800561647086e+00 1.9446765023346355e+01 7.1079062956302401e+00 
815 417 2 1.0279999380272393e+00 -5.3198656370733288e+03 1.0000000000000000e+00 6.5487280022322327e+00 1.9085079533864640e+01 6.6511222490596085e+00 
494 96 2 1.0280000844156223e+00 -6.6393589420028902e+03 1.0000000000000000e+00 8.9013276947712434e+00 1.9882547022181150e+01 6.2239406486904070e+00 
678 280 2 1.0279999612156010e+00 1.7171141217635557e+03 1.0000000000000000e+00 9.3208610344064944e+00 1.9497279404355126e+01 7.1528876245476081e+00 
675 277 2 1.0280000383689276e+00 2.1594485682835084e+03 1.0000000000000000e+00 1.0160899483557683e+01 1.9523547030684192e+01 6.9068987751030466e+00 
1452 1054 2 1.0280000079848459e+00 5.0558180897923894e+03 1.0000000000000000e+00 3.8848279731251023e+00 7.4460082209137424e+00 8.3575260528205000e+00 
1873 1475 2 1.0279999734180874e+00 4.1265445776442848e+03 1.0000000000000000e+00 4.7350301913906261e+00 7.1430609971898704e+00 7.8631519736795026e+00 
1164 766 2 1.0279999948401228e+00 -2.0498915121904101e+03 1.0000000000000000e+00 5.1609221242435348e+00 7.4874439092746616e+00 9.4665318793222610e+00 
1185 787 2 1.0279999650718865e+00 -1.7075168208661037e+03 1.0000000000000000e+00 7.3234185893800738e+00 7.5728321251459709e+00 8.9485597376134507e+00 
1372 974 2 1.0279999777153763e+00 7.5315259602703109e+03 1.0000000000000000e+00 7.9084151257943791e+00 7.4543198326609872e+00 8.6033467843738105e+00 
944 546 2 1.0279998963961332e+00 6.3756164232152714e+03 1.0000000000000000e+00 1.3439953792059391e+00 9.2739963875423932e+00 8.6155573543968984e+00 
1556 1158 2 1.0280002402547839e+00 1.1276046010957656e+02 1.0000000000000000e+00 1.4753886750654148e+00 9.1713233504617229e+00 8.4483397738574606e+00 
674 276 2 1.0279998666461596e+00 2.2924636486293807e+03 1.0000000000000000e+00 5.6706502395210521e+00 8.3132167035749607e+00 9.0712261769219040e+00 
578 180 2 1.0279999759162985e+00 1.7087488847355696e+03 1.0000000000000000e+00 6.4671481789332255e+00 9.0802950366075965e+00 8.0501005734052544e+00 
655 257 2 1.0280002845218592e+00 2.2420831863566259e+03 1.0000000000000000e+00 8.3546738435365442e-01 1.3519763696110402e+01 8.4545920575240174e+00 
908 510 2 1.0279998742265182e+00 9.4073331743425624e+03 1.0000000000000000e+00 1.2803022970746236e-01 1.4346383820293488e+01 9.3210411562886346e+00 
1415 1017 2 1.0280000536966321e+00 2.8885719747459261e+03 1.0000000000000000e+00 1.1150146646439829e+00 1.4494992052565037e+01 8.2548387336537576e+00 
496 98 2 1.0280000488096732e+00 2.8366852898807674e+03 1.0000000000000000e+00 2.7543230893251369e+00 1.5974755340837007e+01 8.2767412648609415e+00 
1511 1113 2 1.0280000373300833e+00 -4.0605392293364753e+03 1.0000000000000000e+00 2.8818418624575242e+00 1.4717394651680925e+01 8.2804271478044456e+00 
1780 1382 2 1.0279998690767391e+00 -6.4918348855677314e+03 1.0000000000000000e+00 1.1636906098294734e-02 1.7406398615683475e+01 9.7199928214148432e+00 
1314 916 2 1.0279999626667771e+00 -8.9437079424712647e+02 1.0000000000000000e+00 3.6182236641235943e+00 6.1170251861295242e+00 1.1053180951366206e+01 
1776 1378 2 1.0279999476700328e+00 2.4888338456592246e+03 1.0000000000000000e+00 3.8173753222635716e+00 6.4166155890228866e+00 1.1503895098197853e+01 
1318 920 2 1.0280001381550194e+00 -6.5857039448136106e+02 1.0000000000000000e+00 4.3903799068850091e+00 6.8238364932195532e+00 1.0618058984259200e+01 
1006 608 2 1.0279997784609773e+00 -1.0500452079668091e+03 1.0000000000000000e+00 2.3614977698634132e-01 8.8633802286921668e+00 9.9507379465734580e+00 
1617 1219 2 1.0279999257165013e+00 2.9115465979578430e+03 1.0000000000000000e+00 1.0441695977476202e+00 1.1634873526449775e+01 1.0810278825539005e+01 
1465 1067 2 1.0279999358101717e+00 -3.4113391574390089e+03 1.0000000000000000e+00 1.0701391713901196e+00 1.1519111315003665e+01 1.0667891622619543e+01 
811 413 2 1.0280000554363626e+00 -3.7069259828795680e+03 1.0000000000000000e+00 3.8063482768921053e-01 1.3015318503406139e+01 1.0196625962711508e+01 
434 36 2 1.0280000243897609e+00 -5.9205600753675517e+03 1.0000000000000000e+00 6.6726212642454046e+00 9.9453140909988349e+00 1.5432062312174864e+01 
1046 648 2 1.0279999185600706e+00 1.8742309465709573e+03 1.0000000000000000e+00 5.3936028699089125e+00 1.0348535812545110e+01 1.4842048440040450e+01 
533 135 2 1.0280000244062393e+00 1.8645336223968613e+02 1.0000000000000000e+00 6.7245751596500636e+00 1.0136776682093599e+01 1.4874394219363722e+01 
1894 1496 2 1.0280001906349241e+00 -9.1771346099002203e+03 1.0000000000000000e+00 9.7813100814754328e-01 1.3154192874618605e+01 1.5427925647895565e+01 
1303 905 2 1.0279998973124076e+00 -5.6064238194867175e+03 1.0000000000000000e+00 1.5948836410803630e-01 1.3784727404453347e+01 1.4802862606700140e+01 
825 427 2 1.0280000130047866e+00 -6.4658044558953588e+02 1.0000000000000000e+00 1.3112680629974863e+01 1.3943815903518056e+01 1.5303491439038480e+01 
1552 1154 2 1.0279999961231678e+00 -2.0378309001172104e+03 1.0000000000000000e+00 1.4524437892342007e+01 1.3877052435610135e+01 1.4357212956497499e+01 
1225 827 2 1.0280000329401224e+00 -3.4940410679767579e+03 1.0000000000000000e+00 1.4572670600712549e+01 1.3599504997888822e+01 1.5651180873585098e+01 
1273 875 2 1.0279999201202321e+00 -2.3124692379380749e+03 1.0000000000000000e+00 1.3260059918818996e+01 1.4611411812849333e+01 1.5491366079117801e+01 