LAMMPS data file via write_data, version 30 Jul 2016, timestep = 50000000

4620 atoms
8 atom types

0.0000000000000000e+00 1.0000000000000000e+02 xlo xhi
0.0000000000000000e+00 4.0000000000000000e+01 ylo yhi
0.0000000000000000e+00 4.0000000000000000e+01 zlo zhi

Masses

1 3.896
2 5.36
3 20.064
4 8.378
5 8.378
6 8.378
7 8.378
8 8.378

Atoms # meso-molecular

2611 2612 2 1.0280000000000891e+00 -1.5383119470849465e+03 1.0000000000000000e+00 3.9234354689400823e+00 1.7578978180437854e+01 2.3654074034399887e+01 
2149 2150 2 1.0280000000000347e+00 -1.5390531050914678e+03 1.0000000000000000e+00 4.4908135763967190e+00 1.8722500636854132e+01 2.3829893332672139e+01 
3076 3077 2 1.0279999999998608e+00 3.2057628938956791e+03 1.0000000000000000e+00 3.0875294352965641e+00 1.7460771578665128e+01 2.5020911255104490e+01 
423 424 2 1.0280000000000264e+00 -1.1941981609217728e+03 1.0000000000000000e+00 4.2986259636499033e+00 1.7152688452015550e+01 2.4769415806909244e+01 
2860 2861 2 1.0279999999999034e+00 -5.8032731368681698e+02 1.0000000000000000e+00 4.3866072401685753e-02 1.8449565563177821e+01 2.5487004856465628e+01 
1690 1691 2 1.0280000000000480e+00 3.2073363073380842e+03 1.0000000000000000e+00 3.3279708096557039e+00 1.8757927650372132e+01 2.5094013527349823e+01 
4581 4582 2 1.0279999999999334e+00 -1.1945772439689295e+03 1.0000000000000000e+00 4.6308615311601198e+00 1.8823063541849251e+01 2.4908541968785052e+01 
4078 4079 2 1.0280000000002170e+00 2.6615360436333513e+03 1.0000000000000000e+00 1.9161699014024806e-02 1.6771825037140879e+01 2.6544422654769253e+01 
843 844 2 1.0279999999998322e+00 2.4469269026974980e+03 1.0000000000000000e+00 1.3147045293238770e+00 1.6544579829506539e+01 2.6177657885329673e+01 
2489 2490 2 1.0280000000001979e+00 -1.1873477619902410e+03 1.0000000000000000e+00 1.7379327825828406e+00 1.7431973775712212e+01 2.7440377007581294e+01 
422 423 2 1.0280000000001006e+00 -1.6796731600354160e+03 1.0000000000000000e+00 2.1712372003990468e+00 1.6695110456785820e+01 2.6507185209874702e+01 
844 845 2 1.0280000000000966e+00 2.6615354639580059e+03 1.0000000000000000e+00 5.6780382249096872e-01 1.9445135172629609e+01 2.6642426036064862e+01 
4077 4078 2 1.0279999999997680e+00 2.4466153075264301e+03 1.0000000000000000e+00 1.5928023479156461e+00 1.9982155621800601e+01 2.6131845225794091e+01 
2027 2028 2 1.0280000000001630e+00 -1.1881593508106230e+03 1.0000000000000000e+00 2.0474863444243345e+00 1.9065749294497099e+01 2.7415497851664348e+01 
4580 4581 2 1.0280000000000507e+00 -1.6796268836630306e+03 1.0000000000000000e+00 2.4896368367801385e+00 1.9883404945364664e+01 2.6529044842419665e+01 
4542 4543 2 1.0279999999999845e+00 -1.3995040228259213e+03 1.0000000000000000e+00 3.3565535950522579e-01 1.2298741638664488e+01 2.9176764561306193e+01 
2103 2104 2 1.0280000000000216e+00 -1.1716641919636174e+02 1.0000000000000000e+00 4.7842854669904794e-01 1.2788155494727489e+01 2.9422633529651812e+01 
2573 2574 2 1.0280000000000000e+00 -1.1861233737735038e+03 1.0000000000000000e+00 2.5770359397683271e+00 1.7547575811326563e+01 2.9027294300349407e+01 
1060 1061 2 1.0279999999999148e+00 -1.1950346210771231e+03 1.0000000000000000e+00 3.2488425907498204e+00 1.6955278636647872e+01 2.8195095598329441e+01 
1228 1229 2 1.0280000000000931e+00 -1.1950148343758083e+03 1.0000000000000000e+00 3.3700122461604001e+00 1.6893268046119431e+01 2.9360231875688214e+01 
3400 3401 2 1.0280000000000200e+00 2.2109889447118894e+03 1.0000000000000000e+00 4.9046280499709933e+00 1.7892436794144221e+01 2.9162193440469437e+01 
2111 2112 2 1.0280000000000145e+00 -1.1872698903856744e+03 1.0000000000000000e+00 2.9287019782300003e+00 1.9456486147383480e+01 2.9353719666143068e+01 
3370 3371 2 1.0279999999998573e+00 -1.1950114187999257e+03 1.0000000000000000e+00 3.3421756239741347e+00 1.9963306220852186e+01 2.8225611849276881e+01 
3568 3569 2 1.0280000000001308e+00 2.2107063979894788e+03 1.0000000000000000e+00 5.0499277907074678e+00 1.8074981155002632e+01 2.8178390697818468e+01 
1090 1091 2 1.0280000000001110e+00 2.2110354839922998e+03 1.0000000000000000e+00 5.0738358486898338e+00 1.9322564618887352e+01 2.9301564265723592e+01 
1258 1259 2 1.0280000000000729e+00 2.2108635115007578e+03 1.0000000000000000e+00 5.1259802631336813e+00 1.9312028885458378e+01 2.8197379158461622e+01 
507 508 2 1.0280000000000185e+00 2.4476203182877925e+03 1.0000000000000000e+00 2.6689058631295142e+00 1.6597685922201901e+01 3.1453375259791883e+01 
2 3 2 1.0280000000000673e+00 -1.6791461847496171e+03 1.0000000000000000e+00 2.9503758022219091e+00 1.6563045506398392e+01 3.1286602651917100e+01 
2908 2909 2 1.0280000000000360e+00 3.2056155957242026e+03 1.0000000000000000e+00 3.1017654387645472e+00 1.7221090625562262e+01 3.2576902358402997e+01 
3 4 2 1.0279999999999270e+00 -1.1913656794055887e+03 1.0000000000000000e+00 4.6748036007822584e+00 1.7134636286770679e+01 3.3167239687117380e+01 
3741 3742 2 1.0280000000000344e+00 2.4471732247584532e+03 1.0000000000000000e+00 1.8748082148233931e+00 1.9395589425515968e+01 3.2311641087050837e+01 
4160 4161 2 1.0280000000000047e+00 -1.6798926454121736e+03 1.0000000000000000e+00 2.1251640838289885e+00 1.9530812729313269e+01 3.2011453447907400e+01 
1522 1523 2 1.0279999999999720e+00 3.2065042620081294e+03 1.0000000000000000e+00 2.9440665148104728e+00 1.8862793860112241e+01 3.2661070730852288e+01 
4161 4162 2 1.0279999999998188e+00 -1.1912891036853453e+03 1.0000000000000000e+00 4.7901358467409851e+00 1.8472426184317101e+01 3.2967400790027447e+01 
1981 1982 2 1.0280000000000433e+00 -1.5387353216595511e+03 1.0000000000000000e+00 4.5418169613264530e+00 1.8584505101108316e+01 3.3981190152981860e+01 
2443 2444 2 1.0279999999999490e+00 -1.5382355597299343e+03 1.0000000000000000e+00 4.1997218491675516e+00 1.7448075515136669e+01 3.4144464410642463e+01 
3538 3539 2 1.0280000000001268e+00 -1.1955821295979440e+03 1.0000000000000000e+00 3.4359798303034168e+00 2.0084977669015338e+01 2.9468093827697761e+01 
55 56 2 1.0279999999999867e+00 -4.2961617472732257e+02 1.0000000000000000e+00 6.5842775200038730e+01 7.9290581182524922e-01 1.2659615731931144e+00 
2196 2197 2 1.0279999999999858e+00 3.9617461905513619e+02 1.0000000000000000e+00 6.4636396074060684e+01 8.0036365152250841e+00 8.8631749449674102e-01 
100 101 2 1.0279999999999874e+00 8.7804895897331198e+02 1.0000000000000000e+00 6.4105307286687392e+01 8.8230437770651111e+00 1.0269807224859253e+00 
13 14 2 1.0279999999999543e+00 -2.4584172844508248e+03 1.0000000000000000e+00 6.5080447551576896e+01 9.4998472842387169e+00 1.5448046344599284e+00 
3292 3293 2 1.0280000000000147e+00 -1.2916414170918915e+03 1.0000000000000000e+00 6.5423906878934488e+01 9.1667979518923701e+00 4.0368705141558006e-02 
2497 2498 2 1.0279999999999894e+00 -2.4225122805187029e+03 1.0000000000000000e+00 6.2975629073856553e+01 1.1789295050080030e+01 1.5505919490174795e+00 
1991 1992 2 1.0279999999999441e+00 -1.8672932699475027e+03 1.0000000000000000e+00 6.5738235203557281e+01 1.1296263295132961e+01 4.2590616151409111e-01 
933 934 2 1.0279999999999878e+00 1.7477881579289010e+03 1.0000000000000000e+00 6.0270055883435170e+01 1.4083255046244110e+01 7.3299978482669259e-01 
56 57 2 1.0280000000000240e+00 3.6436148026251701e+01 1.0000000000000000e+00 6.1508278767274433e+01 1.4088422079282223e+01 7.1551523658029437e-01 
567 568 2 1.0280000000000242e+00 -2.1684786696476649e+03 1.0000000000000000e+00 6.5841806570747295e+01 1.4869874487889394e+01 2.3315074616754453e-01 
4221 4222 2 1.0280000000000409e+00 -1.2556033801044982e+03 1.0000000000000000e+00 6.6070699319624026e+01 1.5017037955760477e+01 1.4694220869694590e+00 
565 566 2 1.0279999999999783e+00 1.9637188053284697e+03 1.0000000000000000e+00 6.6631492589710419e+01 1.5920946016287541e+01 1.9014500460268746e+00 
2948 2949 2 1.0279999999999812e+00 2.7448171742760331e+02 1.0000000000000000e+00 6.1954036389718780e+01 1.7622947077623699e+01 3.8856046076851208e-01 
1317 1318 2 1.0280000000000198e+00 -1.0658608994009699e+03 1.0000000000000000e+00 6.2456860596210447e+01 1.6152470383511645e+01 9.8183614995981647e-02 
1571 1572 2 1.0280000000000202e+00 -3.4743835562423442e+02 1.0000000000000000e+00 6.3561107429469445e+01 1.6403191911008633e+01 9.6790173891893350e-01 
136 137 2 1.0279999999999270e+00 -2.9941833920246972e+03 1.0000000000000000e+00 6.4351116190522660e+01 1.7809697418511316e+01 4.7431814499343833e-01 
2260 2261 2 1.0279999999999998e+00 -4.1871972804081065e+02 1.0000000000000000e+00 6.5436364607902775e+01 1.6736834996674318e+01 1.6698772955325691e+00 
3625 3626 2 1.0279999999999836e+00 -2.2809579939515852e+03 1.0000000000000000e+00 6.1748243496044672e+01 1.9882386801667995e+01 1.3571372695911548e+00 
4294 4295 2 1.0280000000000225e+00 -2.9924071457554528e+03 1.0000000000000000e+00 6.1827469357841672e+01 1.8825909698989072e+01 5.2200572023090930e-01 
3790 3791 2 1.0280000000000031e+00 -6.6487586852877007e+02 1.0000000000000000e+00 6.3551514473728929e+01 1.8328277919811036e+01 1.1407013144036724e+00 
4128 4129 2 1.0280000000000609e+00 -8.7342475303952665e+02 1.0000000000000000e+00 6.4901349979732473e+01 1.9830645738779687e+01 1.0839440821142274e+00 
558 559 2 1.0279999999999421e+00 -1.2481881202379845e+03 1.0000000000000000e+00 6.5917873716487776e+01 1.8920335549726417e+01 1.4413366461235415e+00 
2722 2723 2 1.0280000000000895e+00 -4.0120613382327576e+02 1.0000000000000000e+00 6.6449737807485363e+01 1.9697082093534245e+01 1.2330001105780932e+00 
3890 3891 2 1.0280000000001037e+00 3.3773416817894338e+02 1.0000000000000000e+00 6.5905984939790642e+01 4.9226968415388223e-01 2.5220401357457676e+00 
2911 2912 2 1.0279999999999789e+00 4.6384250739486833e+03 1.0000000000000000e+00 6.0832527398722483e+01 3.8357097273450211e+00 2.9027072791708375e+00 
1989 1990 2 1.0279999999999851e+00 -3.2726080166558904e+03 1.0000000000000000e+00 6.0877681589634591e+01 3.5187253542355510e+00 2.5392177492365215e+00 
2500 2501 2 1.0280000000000871e+00 -2.2154352050302177e+03 1.0000000000000000e+00 6.4889723662614813e+01 3.9199961078744927e+00 2.9541448956885259e+00 
533 534 2 1.0279999999999858e+00 6.3467131797689729e+02 1.0000000000000000e+00 6.5397384116443504e+01 2.5703708372720531e+00 2.7509955889223159e+00 
195 196 2 1.0280000000001335e+00 9.8442535939126651e+02 1.0000000000000000e+00 6.5483457626349917e+01 2.3174980335984992e+00 2.6254142943431424e+00 
3797 3798 2 1.0280000000000302e+00 -1.1668121108000782e+03 1.0000000000000000e+00 6.1689569970016429e+01 4.3655576406625665e+00 2.1349173264163386e+00 
641 642 2 1.0280000000000236e+00 -8.5120322185671864e+02 1.0000000000000000e+00 6.2938163267263739e+01 4.4469482849486806e+00 2.9053725256541152e+00 
642 643 2 1.0279999999999339e+00 -6.0158551304657317e+02 1.0000000000000000e+00 6.3497817655804980e+01 4.0957449248618403e+00 2.4977744110087587e+00 
1998 1999 2 1.0280000000000094e+00 -2.3883550901051567e+03 1.0000000000000000e+00 6.4547692919730181e+01 5.7703843746227950e+00 3.1891557537895099e+00 
2920 2921 2 1.0280000000000102e+00 6.0508861089564552e+03 1.0000000000000000e+00 6.4707171911305863e+01 5.2140734976854315e+00 3.6787235891296710e+00 
1114 1115 2 1.0280000000000749e+00 3.7830280639575512e+03 1.0000000000000000e+00 6.3591961514541580e+01 6.6996945040979874e+00 3.9158738708455987e+00 
1111 1112 2 1.0280000000000280e+00 4.2205787140498660e+03 1.0000000000000000e+00 6.6629457662038178e+01 9.6030362728321847e+00 2.4830497865262795e+00 
512 513 2 1.0280000000000025e+00 4.9086996493391086e+02 1.0000000000000000e+00 5.7094609976906604e+01 1.1529770220966647e+01 3.7508166448450058e+00 
1950 1951 2 1.0279999999999940e+00 -1.0448815860725883e+03 1.0000000000000000e+00 6.3717789857216637e+01 1.1602372810985026e+01 2.0495934855640292e+00 
14 15 2 1.0280000000000591e+00 -2.2216257882523141e+03 1.0000000000000000e+00 6.2953865550507587e+01 1.1466827289757443e+01 3.9689554488069505e+00 
1059 1060 2 1.0279999999999876e+00 3.6310925919930725e+01 1.0000000000000000e+00 5.8062873552955452e+01 1.2430554641750215e+01 3.3528939631031407e+00 
3373 3374 2 1.0280000000000649e+00 1.1187235488796118e+03 1.0000000000000000e+00 5.9665518487919741e+01 1.2078090136607216e+01 3.0245846130426086e+00 
513 514 2 1.0279999999999854e+00 1.2985548213684967e+03 1.0000000000000000e+00 5.9754531361347041e+01 1.2983494554990353e+01 2.2243764315029448e+00 
1865 1866 2 1.0280000000000045e+00 3.4773492025678888e+03 1.0000000000000000e+00 6.0816704073958768e+01 1.3066794196271704e+01 3.0438525119211071e+00 
1572 1573 2 1.0279999999999854e+00 4.1756772472373223e+02 1.0000000000000000e+00 6.2274518618952669e+01 1.2617242456027714e+01 2.9472608423948987e+00 
1068 1069 2 1.0280000000000309e+00 -1.7107387761783771e+03 1.0000000000000000e+00 6.3579753934226858e+01 1.2952494676716704e+01 2.1293449016699681e+00 
1025 1026 2 1.0279999999999569e+00 5.4991332003978332e+03 1.0000000000000000e+00 6.3759172476095614e+01 1.2552269116134536e+01 3.7144413584626297e+00 
1029 1030 2 1.0280000000000011e+00 5.9393981161364281e+03 1.0000000000000000e+00 6.5763649503453792e+01 1.3969265963791008e+01 3.3780388710411886e+00 
188 189 2 1.0280000000000378e+00 3.7548001447148613e+02 1.0000000000000000e+00 6.6664840672026102e+01 1.2191299336889582e+01 2.7185873737263031e+00 
2234 2235 2 1.0280000000000007e+00 -6.8498580746196285e+02 1.0000000000000000e+00 5.7502532646740832e+01 1.5211161240658745e+01 3.8608022295801545e+00 
597 598 2 1.0280000000000078e+00 1.0577797077688768e+02 1.0000000000000000e+00 5.7877921281039342e+01 1.5635676286043399e+01 3.6376755804168930e+00 
3745 3746 2 1.0280000000000107e+00 3.2567141426903218e+03 1.0000000000000000e+00 6.0066133048303584e+01 1.4453292552433965e+01 2.0029752828244285e+00 
944 945 2 1.0279999999999794e+00 2.1138214087854631e+03 1.0000000000000000e+00 6.0740965119688966e+01 1.5221234046541815e+01 3.0621859874966804e+00 
1869 1870 2 1.0280000000000196e+00 2.9861457406391287e+03 1.0000000000000000e+00 6.1910192491533614e+01 1.5174765439825240e+01 2.3322416869673650e+00 
942 943 2 1.0279999999999809e+00 9.4307709249966069e+02 1.0000000000000000e+00 6.2315428421121005e+01 1.5069743028552065e+01 3.1811810255859752e+00 
3376 3377 2 1.0280000000000715e+00 -7.8819832494674711e+02 1.0000000000000000e+00 6.3494209538265459e+01 1.4218440242273255e+01 3.5937912551172593e+00 
894 895 2 1.0280000000000107e+00 -8.6183054299645914e+02 1.0000000000000000e+00 6.4657963945574551e+01 1.5773196168301242e+01 2.2246954931276375e+00 
1410 1411 2 1.0280000000000029e+00 -3.4149299312509429e+03 1.0000000000000000e+00 6.5390636750348406e+01 1.5120369269900918e+01 3.9645404773054187e+00 
895 896 2 1.0279999999999656e+00 1.4337325792909082e+03 1.0000000000000000e+00 5.9891173745082341e+01 1.7098705285221492e+01 3.9514845160838394e+00 
1315 1316 2 1.0280000000000273e+00 -2.2793346236176117e+03 1.0000000000000000e+00 6.0966505098602148e+01 1.7024645147275805e+01 2.9023788512603876e+00 
51 52 2 1.0279999999999936e+00 -4.0015530660340028e+02 1.0000000000000000e+00 6.2632196278067305e+01 1.7421341632251252e+01 3.3198815042243837e+00 
2742 2743 2 1.0279999999999614e+00 2.4186011850838436e+03 1.0000000000000000e+00 6.3640223637474641e+01 1.6682042729489332e+01 2.3643786706508307e+00 
940 941 2 1.0280000000000420e+00 2.5983553776823710e+03 1.0000000000000000e+00 6.5193245475295498e+01 1.7841732703560140e+01 3.4807477688327881e+00 
3794 3795 2 1.0279999999999379e+00 -1.8585737794732881e+03 1.0000000000000000e+00 5.9200502070143727e+01 1.9248789660293902e+01 3.9593929044787912e+00 
1520 1521 2 1.0280000000000575e+00 4.4189147123024768e+03 1.0000000000000000e+00 6.0618725789238589e+01 1.8393609353412067e+01 2.8370335813542495e+00 
3748 3749 2 1.0279999999999569e+00 1.6622049080662605e+03 1.0000000000000000e+00 6.1727595943313055e+01 1.9670232478206170e+01 2.5793758854916073e+00 
4209 4210 2 1.0280000000000995e+00 -4.0050274951968117e+02 1.0000000000000000e+00 6.2718887527874458e+01 1.9272347257641982e+01 3.0464128284065302e+00 
1940 1941 2 1.0279999999999763e+00 6.0958037102519506e+02 1.0000000000000000e+00 6.1260696978321810e+01 1.8041286722091169e+01 3.9961346760222578e+00 
2280 2281 2 1.0279999999999201e+00 2.4266880478329476e+03 1.0000000000000000e+00 6.4222140460494217e+01 1.9366133112254047e+01 3.7739575979196376e+00 
2697 2698 2 1.0280000000000413e+00 -3.7655323521717844e+02 1.0000000000000000e+00 6.5503265782115790e+01 1.9647947792962011e+01 3.2802080025099052e+00 
108 109 2 1.0280000000000185e+00 1.9452204090944210e+03 1.0000000000000000e+00 6.3253695899833943e+01 7.0188445190879589e+00 4.3061993564377952e+00 
602 603 2 1.0280000000001266e+00 6.7992536413188986e+02 1.0000000000000000e+00 6.2924138911906368e+01 9.6648340246090552e+00 4.3908464138354697e+00 
4308 4309 2 1.0280000000000293e+00 -3.5198280696457005e+03 1.0000000000000000e+00 6.2920096588044444e+01 8.2311598096847760e+00 5.2805923747521337e+00 
1536 1537 2 1.0279999999999185e+00 5.7617149430564568e+03 1.0000000000000000e+00 6.3671773169138412e+01 8.0591024587175113e+00 5.5967246320695558e+00 
190 191 2 1.0279999999999438e+00 1.5986556992432429e+03 1.0000000000000000e+00 6.4958895758778880e+01 8.9705854504981275e+00 5.2046068933916931e+00 
1072 1073 2 1.0279999999999538e+00 -1.3088545698289042e+03 1.0000000000000000e+00 6.5269692892266235e+01 9.0413670714042684e+00 4.9829038781419834e+00 
12 13 2 1.0279999999999752e+00 -3.6163773494321953e+02 1.0000000000000000e+00 5.7814069299234248e+01 1.1261678984844290e+01 4.8024729969405033e+00 
1108 1109 2 1.0279999999999896e+00 4.4247653937138875e+03 1.0000000000000000e+00 5.9061128857800334e+01 1.1372954594838042e+01 4.3019836376523513e+00 
1488 1489 2 1.0280000000000034e+00 6.8113535614573630e+02 1.0000000000000000e+00 6.2381260568049669e+01 1.1711044374170555e+01 5.6038649055119976e+00 
645 646 2 1.0280000000000336e+00 -1.1640045870663703e+03 1.0000000000000000e+00 6.2781100918076298e+01 1.0039041923003373e+01 4.3095832703753132e+00 
612 613 2 1.0280000000000689e+00 -8.8227441341574740e+02 1.0000000000000000e+00 6.4863995251639864e+01 1.1740636161404970e+01 5.5259939072638806e+00 
654 655 2 1.0279999999999581e+00 -3.1230029713922077e+03 1.0000000000000000e+00 6.6438258870329193e+01 1.0366469398423625e+01 4.7804396603396135e+00 
66 67 2 1.0279999999999283e+00 -9.8412194649208504e+02 1.0000000000000000e+00 6.6523638027536109e+01 1.0223932108936218e+01 4.4862744083989154e+00 
1397 1398 2 1.0280000000000413e+00 -4.6026350174286872e+03 1.0000000000000000e+00 5.7087398893971702e+01 1.2471469061226724e+01 4.4838615827379860e+00 
140 141 2 1.0280000000000085e+00 -2.9689193134839416e+03 1.0000000000000000e+00 5.8236942136953928e+01 1.3730262495909518e+01 5.2314293198619906e+00 
2496 2497 2 1.0279999999999805e+00 -1.9201711140481157e+03 1.0000000000000000e+00 5.9482685842705799e+01 1.2471563592710771e+01 5.0655153894471985e+00 
1018 1019 2 1.0280000000000133e+00 3.9267679615015786e+03 1.0000000000000000e+00 6.0736693022326136e+01 1.3705775292855455e+01 5.0993481250289108e+00 
18 19 2 1.0280000000000398e+00 -1.3637998086927942e+03 1.0000000000000000e+00 6.0896061994222698e+01 1.2505745021469419e+01 4.9116901965717821e+00 
3337 3338 2 1.0279999999999887e+00 3.9205910478379774e+03 1.0000000000000000e+00 6.5088942183550287e+01 1.2081098741383235e+01 5.4437484207759441e+00 
1064 1065 2 1.0279999999999001e+00 -3.3847215526544517e+02 1.0000000000000000e+00 6.5270447672224236e+01 1.3768124040224951e+01 4.4191075797541943e+00 
932 933 2 1.0280000000000142e+00 2.9651947023585517e+03 1.0000000000000000e+00 5.8194602796358964e+01 1.4211096336214700e+01 5.2319531779846411e+00 
929 930 2 1.0279999999999714e+00 2.2904212541037741e+03 1.0000000000000000e+00 5.9169456321098110e+01 1.5491792040140115e+01 4.4014293216309852e+00 
1406 1407 2 1.0280000000000018e+00 -3.8859086151321171e+03 1.0000000000000000e+00 6.0590078663510411e+01 1.5211096828562093e+01 5.1142301264526004e+00 
17 18 2 1.0279999999999336e+00 -1.0330582946597287e+03 1.0000000000000000e+00 6.3603836778996907e+01 1.4281566795404860e+01 5.3638888928109534e+00 
1407 1408 2 1.0279999999999956e+00 -4.0720660945911945e+03 1.0000000000000000e+00 6.3920312926312754e+01 1.5316607054540794e+01 4.6299487325583746e+00 
4562 4563 2 1.0280000000001546e+00 4.6117732833373771e+02 1.0000000000000000e+00 6.6487421747898367e+01 1.5185801296256525e+01 5.9430497247188550e+00 
638 639 2 1.0280000000000162e+00 -6.2712541026791996e+02 1.0000000000000000e+00 5.6878163475535672e+01 1.6612064447514811e+01 4.8872993091831045e+00 
134 135 2 1.0280000000000116e+00 -3.8809329847284230e+03 1.0000000000000000e+00 5.7351657090012274e+01 1.6877530671987643e+01 5.5404629882197991e+00 
515 516 2 1.0280000000000411e+00 7.5118232080591019e+02 1.0000000000000000e+00 5.8641130195805751e+01 1.7673631671512801e+01 4.7135431543374935e+00 
560 561 2 1.0279999999999490e+00 -1.8615875199594534e+03 1.0000000000000000e+00 5.9017978174975852e+01 1.7974801456245352e+01 5.8269365741836188e+00 
1109 1110 2 1.0280000000000780e+00 4.8035152936724689e+03 1.0000000000000000e+00 6.0070697115311056e+01 1.6422586771864847e+01 5.7077122647814900e+00 
1570 1571 2 1.0279999999999982e+00 -6.9014782811886494e+02 1.0000000000000000e+00 6.2107686125898077e+01 1.6289850721919663e+01 5.7513882065115691e+00 
807 808 2 1.0279999999999034e+00 -5.4411359273947255e+02 1.0000000000000000e+00 6.2296763342947834e+01 1.6671535897745610e+01 5.1377794288717240e+00 
2235 2236 2 1.0280000000000780e+00 -3.7156600361456810e+02 1.0000000000000000e+00 6.3842356270980090e+01 1.7028236246187060e+01 5.7398594676559016e+00 
1454 1455 2 1.0280000000000014e+00 -7.3198302844632826e+02 1.0000000000000000e+00 6.5747256078808235e+01 1.7170214234145661e+01 4.1740659079579272e+00 
158 159 2 1.0280000000000014e+00 -4.4599877848340075e+03 1.0000000000000000e+00 6.6296771982538687e+01 1.6702492016470210e+01 5.3176849222224787e+00 
2914 2915 2 1.0279999999999685e+00 4.9975208913847200e+03 1.0000000000000000e+00 5.6633491707192810e+01 1.8118566423827286e+01 4.9674606336085327e+00 
3878 3879 2 1.0279999999999978e+00 -1.2090685044727638e+03 1.0000000000000000e+00 5.6576519626857355e+01 1.8907849740693315e+01 5.4841334417839036e+00 
4208 4209 2 1.0279999999999254e+00 -5.1772722432727414e+02 1.0000000000000000e+00 5.7862566059237004e+01 1.9807424929230535e+01 5.9135555638579103e+00 
1984 1985 2 1.0280000000000153e+00 1.2077991941503210e+03 1.0000000000000000e+00 6.3527528388688637e+01 1.8153990675824005e+01 4.0613737593528905e+00 
2956 2957 2 1.0279999999999325e+00 -6.8405586974079142e+02 1.0000000000000000e+00 6.3931711516439101e+01 1.9903264471028606e+01 5.7870384438219498e+00 
1015 1016 2 1.0280000000000276e+00 5.6730881245670917e+03 1.0000000000000000e+00 6.5995392040519675e+01 1.8633645827473416e+01 4.9988378785041627e+00 
1065 1066 2 1.0279999999999845e+00 -4.1322269178131427e+02 1.0000000000000000e+00 6.2117550596910640e+01 1.1700850770201415e+01 6.5615725147771018e+00 
1110 1111 2 1.0280000000000165e+00 4.3542667220343446e+03 1.0000000000000000e+00 6.0565985291547733e+01 1.3230026627872947e+01 7.1256124787010462e+00 
1988 1989 2 1.0280000000000129e+00 -2.8587767589042878e+03 1.0000000000000000e+00 6.0987337338705650e+01 1.2316926632662932e+01 6.8116772927682234e+00 
61 62 2 1.0280000000001059e+00 -9.8775134443428897e+02 1.0000000000000000e+00 6.3047259376105117e+01 1.3122368490053530e+01 7.5435338977312183e+00 
146 147 2 1.0279999999999645e+00 -1.2147308992862511e+02 1.0000000000000000e+00 6.3799560391480483e+01 1.2430029731548057e+01 6.2135905702947660e+00 
523 524 2 1.0280000000000409e+00 7.7513523390141836e+02 1.0000000000000000e+00 6.5887327258324078e+01 1.2557664209036197e+01 7.9819040712115417e+00 
2866 2867 2 1.0280000000000191e+00 1.1038255865627298e+03 1.0000000000000000e+00 6.0130937958782056e+01 1.4314062086732635e+01 6.5738966904230791e+00 
3334 3335 2 1.0280000000000753e+00 6.3162404629294260e+03 1.0000000000000000e+00 6.1294641056713360e+01 1.4938446146592147e+01 7.8017932771203098e+00 
1028 1029 2 1.0279999999998755e+00 4.9821782319565227e+03 1.0000000000000000e+00 6.1543104804503024e+01 1.4882019312627017e+01 7.0202050506007589e+00 
1997 1998 2 1.0280000000000133e+00 -1.6188195558750799e+03 1.0000000000000000e+00 6.3677766833300069e+01 1.4746388795573036e+01 6.5567546989959107e+00 
3796 3797 2 1.0279999999999998e+00 -1.1776555031093899e+03 1.0000000000000000e+00 6.4460949612774954e+01 1.5407956083167424e+01 6.6943184550989896e+00 
1030 1031 2 1.0279999999999623e+00 5.8196660268818505e+03 1.0000000000000000e+00 6.6243414008266029e+01 1.4365266441200736e+01 6.6428838313952596e+00 
520 521 2 1.0280000000000165e+00 1.1578328151699361e+03 1.0000000000000000e+00 5.8304709137008587e+01 1.6746104390634205e+01 7.9658732858579810e+00 
1399 1400 2 1.0279999999999820e+00 -1.6945599595717913e+03 1.0000000000000000e+00 6.0235818573516930e+01 1.7367676969731967e+01 6.6383877078623286e+00 
893 894 2 1.0280000000000862e+00 -1.2282027166045496e+03 1.0000000000000000e+00 6.1048671626747861e+01 1.7658248931083246e+01 7.5956863967102519e+00 
1942 1943 2 1.0279999999998704e+00 -2.3360192106412487e+03 1.0000000000000000e+00 6.2077141894074842e+01 1.7905359909418351e+01 6.8450580505756058e+00 
2248 2249 2 1.0279999999998672e+00 -9.0455497121495887e+02 1.0000000000000000e+00 6.5003118496294007e+01 1.6846769135889190e+01 6.6960651755685641e+00 
1082 1083 2 1.0280000000000480e+00 -1.9897821887548928e+03 1.0000000000000000e+00 6.6449176870336487e+01 1.7573426528298612e+01 6.3070300631739729e+00 
50 51 2 1.0279999999999125e+00 -5.1647482732554772e+02 1.0000000000000000e+00 5.5996529737772086e+01 1.8116594490484385e+01 7.8180938715561510e+00 
2819 2820 2 1.0279999999999829e+00 -8.5778381065343228e+02 1.0000000000000000e+00 5.6548494131182110e+01 1.9614547081719163e+01 7.9708571213168815e+00 
2402 2403 2 1.0280000000001261e+00 6.0924014962789795e+02 1.0000000000000000e+00 5.9033823239334858e+01 1.9357863966056058e+01 6.6246223207362380e+00 
2906 2907 2 1.0279999999999183e+00 4.4139531150446901e+03 1.0000000000000000e+00 5.9933715386194763e+01 1.9045703544533637e+01 7.8680763714575628e+00 
1562 1563 2 1.0279999999999681e+00 2.7484082854162091e+02 1.0000000000000000e+00 6.0598585782952760e+01 1.9866119326351466e+01 7.5997922017441342e+00 
4254 4255 2 1.0279999999999145e+00 -1.7379192415128301e+02 1.0000000000000000e+00 6.2834683503267300e+01 1.8598552911061223e+01 7.2147943140711401e+00 
1360 1361 2 1.0280000000000873e+00 2.5973105766974722e+03 1.0000000000000000e+00 6.4115994305619751e+01 1.8310335265116734e+01 6.1458336737524384e+00 
4247 4248 2 1.0280000000000411e+00 1.9898132165248262e+03 1.0000000000000000e+00 6.4525190069858454e+01 1.9061335135845770e+01 7.7843204177359953e+00 
3371 3372 2 1.0279999999999316e+00 -1.9029429425516955e+03 1.0000000000000000e+00 6.5409682822509239e+01 1.9644576283573606e+01 7.5928800646083179e+00 
186 187 2 1.0280000000000287e+00 1.2304635049851872e+03 1.0000000000000000e+00 6.5956788870077247e+01 1.0306721572224886e+01 9.4696203695563028e+00 
19 20 2 1.0279999999999749e+00 -1.0261950660396305e+03 1.0000000000000000e+00 6.6099317687903152e+01 1.0190714928647175e+01 9.4404991608457944e+00 
649 650 2 1.0279999999998846e+00 -3.1235732565816152e+03 1.0000000000000000e+00 6.3280788939254876e+01 1.3079621189251860e+01 8.1510223324858870e+00 
564 565 2 1.0280000000000125e+00 8.1802175373728596e+02 1.0000000000000000e+00 6.4124000626616876e+01 1.3248144108730179e+01 9.7649102363145488e+00 
3880 3881 2 1.0279999999999774e+00 -1.6300527008768727e+03 1.0000000000000000e+00 6.5179796934381272e+01 1.3794252256614806e+01 8.2925982593374954e+00 
524 525 2 1.0280000000000658e+00 1.4680167238680283e+03 1.0000000000000000e+00 6.5240287441584158e+01 1.2788539685811246e+01 9.3550351676563928e+00 
2779 2780 2 1.0279999999999829e+00 -4.4378352640493631e+03 1.0000000000000000e+00 5.7077682993294928e+01 1.5281109405799377e+01 8.2743974973286036e+00 
1987 1988 2 1.0279999999999720e+00 -2.3949695054145513e+03 1.0000000000000000e+00 5.7088434338778100e+01 1.5270171995756028e+01 8.2654742573236550e+00 
521 522 2 1.0280000000000142e+00 1.9214796109800300e+03 1.0000000000000000e+00 5.8943360422333654e+01 1.5977262757228972e+01 8.2670608182708936e+00 
1574 1575 2 1.0280000000000487e+00 -6.6048574488122904e+02 1.0000000000000000e+00 6.1186749366395262e+01 1.5914493241060734e+01 9.2537169831757087e+00 
900 901 2 1.0279999999998575e+00 -6.6598688546286326e+02 1.0000000000000000e+00 6.3036814843278876e+01 1.5916546599090429e+01 8.7844085779253422e+00 
143 144 2 1.0280000000000857e+00 -2.0137601616122624e+03 1.0000000000000000e+00 6.3103204181257567e+01 1.4187974717287153e+01 9.4551787314710971e+00 
1412 1413 2 1.0280000000000453e+00 -4.1104649895899001e+03 1.0000000000000000e+00 6.4143572580178201e+01 1.5873881060168486e+01 8.6902499111563198e+00 
522 523 2 1.0279999999998686e+00 1.6670051784708803e+03 1.0000000000000000e+00 6.4907068606138424e+01 1.4624647418083450e+01 9.8557431144354659e+00 
822 823 2 1.0280000000001017e+00 2.2649732449757053e+03 1.0000000000000000e+00 6.5679559588727685e+01 1.5603811703158460e+01 9.2348354406452717e+00 
1433 1434 2 1.0280000000000169e+00 -8.6043208400733238e+02 1.0000000000000000e+00 5.5556681627661256e+01 1.7883028408439039e+01 8.6206927134437681e+00 
519 520 2 1.0280000000000036e+00 1.3257681035849112e+03 1.0000000000000000e+00 5.8147120035578467e+01 1.6045234646489714e+01 9.4283339238249777e+00 
1489 1490 2 1.0279999999999136e+00 -4.9873337553743931e+02 1.0000000000000000e+00 6.0702710270648787e+01 1.6294426702424360e+01 8.8975095602682028e+00 
1058 1059 2 1.0280000000001241e+00 2.3728856720757898e+02 1.0000000000000000e+00 6.2968055874176926e+01 1.7372089797758402e+01 9.4366507118829315e+00 
1911 1912 2 1.0279999999998801e+00 -8.9892351885332755e+02 1.0000000000000000e+00 6.5389544471592444e+01 1.6821436526654530e+01 9.7648149170864311e+00 
2831 2832 2 1.0280000000000418e+00 -7.6902197856551470e+02 1.0000000000000000e+00 6.5509372790180549e+01 1.7691701939665165e+01 8.4561799149929566e+00 