LAMMPS data file via write_data, version 30 Jul 2016, timestep = 1000000

2080 atoms
8 atom types

0.0000000000000000e+00 4.0000000000000000e+01 xlo xhi
0.0000000000000000e+00 4.0000000000000000e+01 ylo yhi
0.0000000000000000e+00 1.0000000000000000e+02 zlo zhi

Masses

1 3.896
2 21.44
3 1058.08
4 8.378
5 8.378
6 8.378
7 8.378
8 8.378

Atoms # meso-molecular

1 2 4 2.2559723595316457e+00 2.9223541469182010e+03 4.2000000000000000e+03 0.0000000000000000e+00 0.0000000000000000e+00 2.5000000000000000e+00 
2 2 4 2.2559723595471013e+00 -1.1893449187318722e+03 4.2000000000000000e+03 0.0000000000000000e+00 2.0000000000000000e+00 2.5000000000000000e+00 
21 2 4 2.2559723595316457e+00 1.1738399481501692e+02 4.2000000000000000e+03 2.0000000000000000e+00 0.0000000000000000e+00 2.5000000000000000e+00 
22 2 4 2.2559723595316457e+00 2.7115140359511188e+03 4.2000000000000000e+03 2.0000000000000000e+00 2.0000000000000000e+00 2.5000000000000000e+00 
41 2 4 2.2559723595316457e+00 -1.6556806091008489e+03 4.2000000000000000e+03 4.0000000000000000e+00 0.0000000000000000e+00 2.5000000000000000e+00 
42 2 4 2.2559723595530308e+00 2.8048763853039900e+03 4.2000000000000000e+03 4.0000000000000000e+00 2.0000000000000000e+00 2.5000000000000000e+00 
61 2 4 2.2559723595316457e+00 2.6443119137333333e+03 4.2000000000000000e+03 6.0000000000000000e+00 0.0000000000000000e+00 2.5000000000000000e+00 
62 2 4 2.2559723595316457e+00 1.4064456414055530e+03 4.2000000000000000e+03 6.0000000000000000e+00 2.0000000000000000e+00 2.5000000000000000e+00 
81 2 4 2.2559723595316457e+00 7.7325888641882084e+03 4.2000000000000000e+03 8.0000000000000000e+00 0.0000000000000000e+00 2.5000000000000000e+00 
82 2 4 2.2559723595373926e+00 3.9002070715671530e+03 4.2000000000000000e+03 8.0000000000000000e+00 2.0000000000000000e+00 2.5000000000000000e+00 
101 2 4 2.2559723595316457e+00 4.4023928130517379e+03 4.2000000000000000e+03 1.0000000000000000e+01 0.0000000000000000e+00 2.5000000000000000e+00 
102 2 4 2.2559723595317389e+00 4.9613460611629553e+03 4.2000000000000000e+03 1.0000000000000000e+01 2.0000000000000000e+00 2.5000000000000000e+00 
121 2 4 2.2559723595339909e+00 1.2250732820691146e+03 4.2000000000000000e+03 1.2000000000000000e+01 0.0000000000000000e+00 2.5000000000000000e+00 
122 2 4 2.2559723595316457e+00 1.5010869202386582e+03 4.2000000000000000e+03 1.2000000000000000e+01 2.0000000000000000e+00 2.5000000000000000e+00 
141 2 4 2.2559723595316457e+00 2.0780385217756952e+03 4.2000000000000000e+03 1.4000000000000000e+01 0.0000000000000000e+00 2.5000000000000000e+00 
142 2 4 2.2559723595324273e+00 2.4826911766652397e+03 4.2000000000000000e+03 1.4000000000000000e+01 2.0000000000000000e+00 2.5000000000000000e+00 
161 2 4 2.2559723595353258e+00 2.9412060028875408e+03 4.2000000000000000e+03 1.6000000000000000e+01 0.0000000000000000e+00 2.5000000000000000e+00 
162 2 4 2.2559723595316457e+00 4.2858044729965268e+03 4.2000000000000000e+03 1.6000000000000000e+01 2.0000000000000000e+00 2.5000000000000000e+00 
181 2 4 2.2559723595316474e+00 1.4822158915353095e+03 4.2000000000000000e+03 1.8000000000000000e+01 0.0000000000000000e+00 2.5000000000000000e+00 
182 2 4 2.2559723595359324e+00 4.3500360065941486e+03 4.2000000000000000e+03 1.8000000000000000e+01 2.0000000000000000e+00 2.5000000000000000e+00 
3 2 4 2.2559723595316457e+00 4.7468561047802104e+03 4.2000000000000000e+03 0.0000000000000000e+00 4.0000000000000000e+00 2.5000000000000000e+00 
4 2 4 2.2559723595331023e+00 -4.6210539844435829e+02 4.2000000000000000e+03 0.0000000000000000e+00 6.0000000000000000e+00 2.5000000000000000e+00 
23 2 4 2.2559723595316457e+00 5.4711821509066594e+03 4.2000000000000000e+03 2.0000000000000000e+00 4.0000000000000000e+00 2.5000000000000000e+00 
24 2 4 2.2559723595316457e+00 2.2193972162057189e+03 4.2000000000000000e+03 2.0000000000000000e+00 6.0000000000000000e+00 2.5000000000000000e+00 
43 2 4 2.2559723595316541e+00 3.8811957003683187e+03 4.2000000000000000e+03 4.0000000000000000e+00 4.0000000000000000e+00 2.5000000000000000e+00 
44 2 4 2.2559723595423975e+00 2.2147037912126557e+03 4.2000000000000000e+03 4.0000000000000000e+00 6.0000000000000000e+00 2.5000000000000000e+00 
63 2 4 2.2559723595321337e+00 7.0319322532319381e+02 4.2000000000000000e+03 6.0000000000000000e+00 4.0000000000000000e+00 2.5000000000000000e+00 
64 2 4 2.2559723595316457e+00 1.7852668817209735e+03 4.2000000000000000e+03 6.0000000000000000e+00 6.0000000000000000e+00 2.5000000000000000e+00 
83 2 4 2.2559723595316457e+00 2.9076144609713933e+03 4.2000000000000000e+03 8.0000000000000000e+00 4.0000000000000000e+00 2.5000000000000000e+00 
84 2 4 2.2559723595316457e+00 1.8344536572983625e+03 4.2000000000000000e+03 8.0000000000000000e+00 6.0000000000000000e+00 2.5000000000000000e+00 
103 2 4 2.2559723595316457e+00 3.5235710641310752e+03 4.2000000000000000e+03 1.0000000000000000e+01 4.0000000000000000e+00 2.5000000000000000e+00 
104 2 4 2.2559723595333905e+00 1.9075528190867849e+03 4.2000000000000000e+03 1.0000000000000000e+01 6.0000000000000000e+00 2.5000000000000000e+00 
123 2 4 2.2559723595316457e+00 1.6369639897136190e+03 4.2000000000000000e+03 1.2000000000000000e+01 4.0000000000000000e+00 2.5000000000000000e+00 
124 2 4 2.2559723595385281e+00 1.7505924806002233e+03 4.2000000000000000e+03 1.2000000000000000e+01 6.0000000000000000e+00 2.5000000000000000e+00 
143 2 4 2.2559723595391814e+00 2.7630525357187216e+03 4.2000000000000000e+03 1.4000000000000000e+01 4.0000000000000000e+00 2.5000000000000000e+00 
144 2 4 2.2559723595316457e+00 4.0746477568287564e+03 4.2000000000000000e+03 1.4000000000000000e+01 6.0000000000000000e+00 2.5000000000000000e+00 
163 2 4 2.2559723595316457e+00 4.7284544218931660e+03 4.2000000000000000e+03 1.6000000000000000e+01 4.0000000000000000e+00 2.5000000000000000e+00 
164 2 4 2.2559723595334700e+00 4.3877947600417720e+03 4.2000000000000000e+03 1.6000000000000000e+01 6.0000000000000000e+00 2.5000000000000000e+00 
183 2 4 2.2559723595316457e+00 5.4093842900569380e+03 4.2000000000000000e+03 1.8000000000000000e+01 4.0000000000000000e+00 2.5000000000000000e+00 
184 2 4 2.2559723595316576e+00 3.3752772587379736e+03 4.2000000000000000e+03 1.8000000000000000e+01 6.0000000000000000e+00 2.5000000000000000e+00 
5 2 4 2.2559723595316457e+00 3.4714759839016374e+03 4.2000000000000000e+03 0.0000000000000000e+00 8.0000000000000000e+00 2.5000000000000000e+00 
25 2 4 2.2559723595316457e+00 6.3819922370539666e+02 4.2000000000000000e+03 2.0000000000000000e+00 8.0000000000000000e+00 2.5000000000000000e+00 
45 2 4 2.2559723595316457e+00 3.3642298594333761e+03 4.2000000000000000e+03 4.0000000000000000e+00 8.0000000000000000e+00 2.5000000000000000e+00 
65 2 4 2.2559723595379273e+00 8.0359484284568180e+02 4.2000000000000000e+03 6.0000000000000000e+00 8.0000000000000000e+00 2.5000000000000000e+00 
85 2 4 2.2559723595328181e+00 1.3881035341028669e+03 4.2000000000000000e+03 8.0000000000000000e+00 8.0000000000000000e+00 2.5000000000000000e+00 
105 2 4 2.2559723595316457e+00 1.1060129905453291e+03 4.2000000000000000e+03 1.0000000000000000e+01 8.0000000000000000e+00 2.5000000000000000e+00 
125 2 4 2.2559723595316457e+00 1.5834028793978803e+03 4.2000000000000000e+03 1.2000000000000000e+01 8.0000000000000000e+00 2.5000000000000000e+00 
145 2 4 2.2559723595316457e+00 5.1810616444594452e+03 4.2000000000000000e+03 1.4000000000000000e+01 8.0000000000000000e+00 2.5000000000000000e+00 
165 2 4 2.2559723595316457e+00 5.7649205586304706e+03 4.2000000000000000e+03 1.6000000000000000e+01 8.0000000000000000e+00 2.5000000000000000e+00 
185 2 4 2.2559723595316457e+00 3.4454400989549804e+03 4.2000000000000000e+03 1.8000000000000000e+01 8.0000000000000000e+00 2.5000000000000000e+00 
6 2 4 2.2559723595316457e+00 3.3613322218265257e+03 4.2000000000000000e+03 0.0000000000000000e+00 1.0000000000000000e+01 2.5000000000000000e+00 
7 2 4 2.2559723595316457e+00 3.8568034010898566e+02 4.2000000000000000e+03 0.0000000000000000e+00 1.2000000000000000e+01 2.5000000000000000e+00 
26 2 4 2.2559723595320844e+00 8.4566703608431453e+03 4.2000000000000000e+03 2.0000000000000000e+00 1.0000000000000000e+01 2.5000000000000000e+00 
27 2 4 2.2559723595321182e+00 3.9889621239174853e+03 4.2000000000000000e+03 2.0000000000000000e+00 1.2000000000000000e+01 2.5000000000000000e+00 
46 2 4 2.2559723595316457e+00 6.8073947050571505e+03 4.2000000000000000e+03 4.0000000000000000e+00 1.0000000000000000e+01 2.5000000000000000e+00 
47 2 4 2.2559723595316457e+00 8.4302030327709144e+03 4.2000000000000000e+03 4.0000000000000000e+00 1.2000000000000000e+01 2.5000000000000000e+00 
66 2 4 2.2559723595316457e+00 6.8855113790352834e+02 4.2000000000000000e+03 6.0000000000000000e+00 1.0000000000000000e+01 2.5000000000000000e+00 
67 2 4 2.2559723595322470e+00 4.3494389789368352e+03 4.2000000000000000e+03 6.0000000000000000e+00 1.2000000000000000e+01 2.5000000000000000e+00 
86 2 4 2.2559723595316457e+00 4.9323596576793989e+02 4.2000000000000000e+03 8.0000000000000000e+00 1.0000000000000000e+01 2.5000000000000000e+00 
87 2 4 2.2559723595316585e+00 9.7058008064454771e+02 4.2000000000000000e+03 8.0000000000000000e+00 1.2000000000000000e+01 2.5000000000000000e+00 
106 2 4 2.2559723595316457e+00 4.5134561121183515e+02 4.2000000000000000e+03 1.0000000000000000e+01 1.0000000000000000e+01 2.5000000000000000e+00 
107 2 4 2.2559723595325840e+00 2.0541086333520052e+03 4.2000000000000000e+03 1.0000000000000000e+01 1.2000000000000000e+01 2.5000000000000000e+00 
126 2 4 2.2559723595316457e+00 1.7723113563666614e+03 4.2000000000000000e+03 1.2000000000000000e+01 1.0000000000000000e+01 2.5000000000000000e+00 
127 2 4 2.2559723595316457e+00 2.8692064561001739e+03 4.2000000000000000e+03 1.2000000000000000e+01 1.2000000000000000e+01 2.5000000000000000e+00 
146 2 4 2.2559723595316457e+00 3.7242106577885224e+03 4.2000000000000000e+03 1.4000000000000000e+01 1.0000000000000000e+01 2.5000000000000000e+00 
147 2 4 2.2559723595316457e+00 4.2257289210998406e+03 4.2000000000000000e+03 1.4000000000000000e+01 1.2000000000000000e+01 2.5000000000000000e+00 
166 2 4 2.2559723595331747e+00 1.9131863169508881e+03 4.2000000000000000e+03 1.6000000000000000e+01 1.0000000000000000e+01 2.5000000000000000e+00 
167 2 4 2.2559723595316457e+00 4.2691065624482471e+03 4.2000000000000000e+03 1.6000000000000000e+01 1.2000000000000000e+01 2.5000000000000000e+00 
186 2 4 2.2559723595316457e+00 2.2775171262288877e+03 4.2000000000000000e+03 1.8000000000000000e+01 1.0000000000000000e+01 2.5000000000000000e+00 
187 2 4 2.2559723595316457e+00 6.8214214704030601e+03 4.2000000000000000e+03 1.8000000000000000e+01 1.2000000000000000e+01 2.5000000000000000e+00 
8 2 4 2.2559723595316457e+00 5.8449284461765001e+02 4.2000000000000000e+03 0.0000000000000000e+00 1.4000000000000000e+01 2.5000000000000000e+00 
9 2 4 2.2559723595546526e+00 3.5697597080644086e+03 4.2000000000000000e+03 0.0000000000000000e+00 1.6000000000000000e+01 2.5000000000000000e+00 
28 2 4 2.2559723595316457e+00 1.3542695428860761e+03 4.2000000000000000e+03 2.0000000000000000e+00 1.4000000000000000e+01 2.5000000000000000e+00 
29 2 4 2.2559723595316563e+00 4.5344748706278069e+03 4.2000000000000000e+03 2.0000000000000000e+00 1.6000000000000000e+01 2.5000000000000000e+00 
48 2 4 2.2559723595316457e+00 5.5841197830182973e+03 4.2000000000000000e+03 4.0000000000000000e+00 1.4000000000000000e+01 2.5000000000000000e+00 
49 2 4 2.2559723595316457e+00 7.0551381428120376e+03 4.2000000000000000e+03 4.0000000000000000e+00 1.6000000000000000e+01 2.5000000000000000e+00 
68 2 4 2.2559723595316457e+00 5.1621491753173477e+03 4.2000000000000000e+03 6.0000000000000000e+00 1.4000000000000000e+01 2.5000000000000000e+00 
69 2 4 2.2559723595341792e+00 8.8514769753090077e+03 4.2000000000000000e+03 6.0000000000000000e+00 1.6000000000000000e+01 2.5000000000000000e+00 
88 2 4 2.2559723595316457e+00 4.3971428102590398e+03 4.2000000000000000e+03 8.0000000000000000e+00 1.4000000000000000e+01 2.5000000000000000e+00 
89 2 4 2.2559723595316457e+00 5.9115393319281375e+03 4.2000000000000000e+03 8.0000000000000000e+00 1.6000000000000000e+01 2.5000000000000000e+00 
108 2 4 2.2559723595316457e+00 2.9970524807341881e+03 4.2000000000000000e+03 1.0000000000000000e+01 1.4000000000000000e+01 2.5000000000000000e+00 
109 2 4 2.2559723595316457e+00 3.0072935892576588e+03 4.2000000000000000e+03 1.0000000000000000e+01 1.6000000000000000e+01 2.5000000000000000e+00 
128 2 4 2.2559723595323318e+00 3.7635783290365080e+03 4.2000000000000000e+03 1.2000000000000000e+01 1.4000000000000000e+01 2.5000000000000000e+00 
129 2 4 2.2559723595316457e+00 5.6183741634070229e+03 4.2000000000000000e+03 1.2000000000000000e+01 1.6000000000000000e+01 2.5000000000000000e+00 
148 2 4 2.2559723595316457e+00 4.3110490140430675e+03 4.2000000000000000e+03 1.4000000000000000e+01 1.4000000000000000e+01 2.5000000000000000e+00 
149 2 4 2.2559723595316457e+00 8.4303572027354076e+03 4.2000000000000000e+03 1.4000000000000000e+01 1.6000000000000000e+01 2.5000000000000000e+00 
168 2 4 2.2559723595316457e+00 5.2031236935581737e+03 4.2000000000000000e+03 1.6000000000000000e+01 1.4000000000000000e+01 2.5000000000000000e+00 
169 2 4 2.2559723595316457e+00 7.7736719870534826e+03 4.2000000000000000e+03 1.6000000000000000e+01 1.6000000000000000e+01 2.5000000000000000e+00 
188 2 4 2.2559723595322456e+00 6.2163152051993802e+03 4.2000000000000000e+03 1.8000000000000000e+01 1.4000000000000000e+01 2.5000000000000000e+00 
189 2 4 2.2559723595316457e+00 4.4016585943862228e+03 4.2000000000000000e+03 1.8000000000000000e+01 1.6000000000000000e+01 2.5000000000000000e+00 
10 2 4 2.2559723595316457e+00 2.3736394444964653e+03 4.2000000000000000e+03 0.0000000000000000e+00 1.8000000000000000e+01 2.5000000000000000e+00 
30 2 4 2.2559723595316457e+00 2.6504509331824684e+03 4.2000000000000000e+03 2.0000000000000000e+00 1.8000000000000000e+01 2.5000000000000000e+00 
50 2 4 2.2559723595316457e+00 5.7715608568622665e+03 4.2000000000000000e+03 4.0000000000000000e+00 1.8000000000000000e+01 2.5000000000000000e+00 
70 2 4 2.2559723595326204e+00 7.0168321552595171e+03 4.2000000000000000e+03 6.0000000000000000e+00 1.8000000000000000e+01 2.5000000000000000e+00 
90 2 4 2.2559723595316457e+00 5.1278901078605613e+03 4.2000000000000000e+03 8.0000000000000000e+00 1.8000000000000000e+01 2.5000000000000000e+00 
110 2 4 2.2559723595316457e+00 2.3927534838062456e+03 4.2000000000000000e+03 1.0000000000000000e+01 1.8000000000000000e+01 2.5000000000000000e+00 
130 2 4 2.2559723595325361e+00 4.5422992256578036e+03 4.2000000000000000e+03 1.2000000000000000e+01 1.8000000000000000e+01 2.5000000000000000e+00 
150 2 4 2.2559723595333296e+00 8.0468948950146159e+03 4.2000000000000000e+03 1.4000000000000000e+01 1.8000000000000000e+01 2.5000000000000000e+00 
170 2 4 2.2559723595316457e+00 8.1856987600366629e+03 4.2000000000000000e+03 1.6000000000000000e+01 1.8000000000000000e+01 2.5000000000000000e+00 
190 2 4 2.2559723595320409e+00 4.0419308011349267e+03 4.2000000000000000e+03 1.8000000000000000e+01 1.8000000000000000e+01 2.5000000000000000e+00 
1287 889 2 1.0280005254718751e+00 -9.5403676536505821e+05 4.2000000000000000e+03 2.4248968390168288e-01 1.8471860505404717e+01 1.9161423685052561e+01 
1756 1358 2 1.0280004382416545e+00 2.7108546727578313e+05 4.2000000000000000e+03 6.2107050367829020e-01 1.9069732314263380e+01 1.9216311999873678e+01 
1641 1243 2 1.0279975366817313e+00 2.6890650068298448e+05 4.2000000000000000e+03 1.6643568720877644e+00 6.6262094599454868e-01 7.3038030702024130e+01 
1263 865 2 1.0279935716746280e+00 -8.2527044089897303e+05 4.2000000000000000e+03 2.1646066983479990e+00 8.7911761614113570e-01 7.3244752968600835e+01 
1249 851 2 1.0279961799316908e+00 5.0587105899011111e+05 4.2000000000000000e+03 3.5714397238631004e+00 9.2157265612103778e-01 7.6250688762840895e+01 
1584 1186 2 1.0279971288888479e+00 8.1352576662271807e+05 4.2000000000000000e+03 3.5468637667463314e+00 8.8833255085661678e-01 7.6136829958961826e+01 
1573 1175 2 1.0279963099366811e+00 3.2740572035370191e+05 4.2000000000000000e+03 7.1349139140828335e+00 1.7868426324879980e-01 7.6614559489619793e+01 
429 31 2 1.0280126011308137e+00 9.7545139732288558e+05 4.2000000000000000e+03 2.2125586328416911e+00 1.2559138243385655e+00 7.9339922300324446e+01 
1427 1029 2 1.0280150598437179e+00 -8.8343259369301086e+05 4.2000000000000000e+03 2.4771504021787169e-01 6.7205256047050010e-01 7.7083355983951236e+01 
1985 1587 2 1.0279892402756983e+00 5.7781564917703706e+05 4.2000000000000000e+03 4.0635757125275767e+00 2.5965069262064966e-01 7.8907792250732641e+01 
751 353 2 1.0280242441358065e+00 -9.0224510827548080e+05 4.2000000000000000e+03 6.5997091405126529e+00 5.0324792783217623e-02 7.9677349011972638e+01 
1030 632 2 1.0280031177292175e+00 -1.1014722114800115e+06 4.2000000000000000e+03 1.4454790102161889e+01 3.4613281588986733e-01 7.7829999977072376e+01 
1493 1095 2 1.0279956265796597e+00 7.3239346797351958e+05 4.2000000000000000e+03 1.5347305259335263e+01 2.3620299865360375e-01 7.8764876855397219e+01 
1731 1333 2 1.0279983862451847e+00 -8.6056064828898141e+05 4.2000000000000000e+03 1.6972039490128712e+00 5.5540255205577980e+00 7.9306342170543161e+01 
1999 1601 2 1.0280093071061740e+00 9.2010377360831341e+05 4.2000000000000000e+03 1.2526190288719121e+00 7.8732949708303401e+00 7.8893170811484111e+01 
2017 1619 2 1.0280004994761911e+00 8.6408765220361040e+05 4.2000000000000000e+03 2.7228598034574825e+00 7.0484208240335882e+00 7.9186855856567249e+01 
887 489 2 1.0279936703159596e+00 -9.9631432610477740e+05 4.2000000000000000e+03 1.2028757679969826e+00 9.2579329394478052e+00 7.9654676310616836e+01 
995 597 2 1.0280050474165745e+00 -8.9247654107925796e+05 4.2000000000000000e+03 2.7158710339590790e+00 1.9395456448429698e+01 7.9357687080765629e+01 
1115 717 2 1.0279995967444897e+00 -1.0215515293274646e+06 4.2000000000000000e+03 2.1905390363147872e-01 1.8091983738405215e+01 7.7196735512466518e+01 
1803 1405 2 1.0279969149239672e+00 -8.7092291849677952e+05 4.2000000000000000e+03 1.9277762278198871e-02 1.7949821841434634e+01 7.7148357630437999e+01 
1864 1466 2 1.0280066659158063e+00 4.9168136999164999e+05 4.2000000000000000e+03 1.0994548774206783e+00 2.4406739945813780e+00 8.0993659365702001e+01 
1292 894 2 1.0280054540125554e+00 8.3311064731636632e+05 4.2000000000000000e+03 2.0623395103748403e+00 2.6653781571622446e+00 8.1711644248089783e+01 
512 114 2 1.0279937371304855e+00 7.0296044214456761e+05 4.2000000000000000e+03 8.0562399530516107e+00 2.0386855934845474e+00 8.0175397300126846e+01 
785 387 2 1.0280132617708577e+00 2.3872824327535732e+05 4.2000000000000000e+03 7.5473940565667652e+00 1.8308029830877921e+00 8.0992994150546494e+01 
662 264 2 1.0280067754394493e+00 -7.8517292588328023e+05 4.2000000000000000e+03 9.9396685399993423e+00 1.8887492989732129e+00 8.1102631519380807e+01 
996 598 2 1.0280175583491840e+00 3.4028978254535532e+05 4.2000000000000000e+03 1.0836011302192126e+01 6.3284400039175159e-01 8.1522853837880120e+01 
1532 1134 2 1.0279862946796965e+00 5.1787114121256437e+05 4.2000000000000000e+03 1.4814647927804970e+01 1.8430530223202815e+00 8.2010372213822976e+01 
1238 840 2 1.0280114935567104e+00 3.9493483000825701e+05 4.2000000000000000e+03 1.5694011337061166e+01 7.5359186039555137e-01 8.0878944743140039e+01 
1458 1060 2 1.0279961556644439e+00 -1.0793581318004061e+06 4.2000000000000000e+03 1.9804371893770693e+01 3.2695485531034496e+00 8.0753602950046798e+01 
910 512 2 1.0280023816678971e+00 -5.8760745465323271e+05 4.2000000000000000e+03 1.7247274183485679e+01 3.1125564496069162e+00 8.0880491861275900e+01 
671 273 2 1.0279955636114257e+00 -8.5650068131148862e+05 4.2000000000000000e+03 1.8849208351014539e+01 6.8727745976744858e-01 8.3070920137791532e+01 
816 418 2 1.0279907272347097e+00 2.3393138936486695e+05 4.2000000000000000e+03 1.8470391304869658e+01 2.0240291096276497e+00 8.0533757765581456e+01 
503 105 2 1.0280041526533636e+00 6.1570455883405358e+05 4.2000000000000000e+03 2.8049004110608005e+00 4.9246140584865810e+00 8.1123651294963182e+01 
553 155 2 1.0280103271440988e+00 7.5331728088098264e+05 4.2000000000000000e+03 2.3235579909956391e-01 5.1432231333712268e+00 8.1520952747677057e+01 
1213 815 2 1.0280077187706391e+00 4.5778659854734549e+05 4.2000000000000000e+03 1.0824430783468426e+01 5.7382111472404675e+00 8.2156549745527954e+01 
1310 912 2 1.0280172689906266e+00 -6.7133494143753604e+05 4.2000000000000000e+03 1.1430586173692380e+01 4.7247384460831725e+00 8.2766707184917422e+01 
425 27 2 1.0280098830504163e+00 5.6094919109881867e+05 4.2000000000000000e+03 1.4622262440512626e+01 3.3815080631859527e+00 8.3279614831342698e+01 
1617 1219 2 1.0280149467226625e+00 3.1582216968574532e+05 4.2000000000000000e+03 1.8124430543562614e+01 3.7303550344256973e+00 8.3053506323211366e+01 
517 119 2 1.0279980421942916e+00 6.7405396477057890e+05 4.2000000000000000e+03 7.0725431345023837e-01 6.8217786060160543e+00 8.2488468238590244e+01 
2014 1616 2 1.0280150359983280e+00 5.8602902314853505e+05 4.2000000000000000e+03 5.7625772200988559e+00 8.2127844982138498e+00 8.0546583389069283e+01 
823 425 2 1.0279946188941511e+00 -7.5595348627037555e+05 4.2000000000000000e+03 4.6785435139988207e+00 9.3314949243691903e+00 8.1358174854269564e+01 
1598 1200 2 1.0279942868813274e+00 -8.4497305361155886e+05 4.2000000000000000e+03 4.3601886833837860e+00 6.7849722411251241e+00 8.3024213633676865e+01 
492 94 2 1.0279934531356087e+00 5.0752536999080371e+05 4.2000000000000000e+03 7.2792361697482582e+00 6.7567283930879487e+00 8.0892739619706887e+01 
458 60 2 1.0279934278591856e+00 3.7745983700558858e+05 4.2000000000000000e+03 7.2813980623729471e+00 6.7560551276622833e+00 8.0894414139512037e+01 
1220 822 2 1.0279974863259327e+00 7.0990197401774349e+05 4.2000000000000000e+03 9.9919805644628408e+00 7.6832040685201664e+00 8.2740052992116489e+01 
1301 903 2 1.0279953029588254e+00 9.9235310446030821e+05 4.2000000000000000e+03 5.3225492038194766e-01 1.2955563184063559e+01 8.0005834371690355e+01 
1908 1510 2 1.0280047512476080e+00 3.0696296486937813e+05 4.2000000000000000e+03 8.6272148103148538e-01 1.1447087044163567e+01 8.1804446629289075e+01 
948 550 2 1.0280149098656373e+00 5.1988231725707359e+05 4.2000000000000000e+03 3.7863247587675462e+00 1.0391413278825134e+01 8.2295002626444585e+01 
943 545 2 1.0280003197287855e+00 -7.6781917804280075e+05 4.2000000000000000e+03 5.0629265169683499e+00 1.2467280896927655e+01 8.2405738916277912e+01 
575 177 2 1.0280027041979172e+00 -7.2080845459080534e+05 4.2000000000000000e+03 2.8568030598213925e+00 1.5814326569326791e+01 8.2605995841035821e+01 
1449 1051 2 1.0279991710915160e+00 5.2217252944026486e+05 4.2000000000000000e+03 9.8663455601455086e-01 1.4572408794364039e+01 8.0990520394671321e+01 
540 142 2 1.0280013824272904e+00 9.6593590060253697e+05 4.2000000000000000e+03 5.1481950948266189e+00 1.3769161313178452e+01 8.2354949753427036e+01 
1313 915 2 1.0279972298441107e+00 8.9291547312733554e+05 4.2000000000000000e+03 2.1525362403911870e+00 1.7769188053322679e+01 8.0030042753227477e+01 
1599 1201 2 1.0279995897000085e+00 -8.1821761796329066e+05 4.2000000000000000e+03 4.2459857119662003e-01 1.6951573058673549e+01 8.1058828899583673e+01 
1481 1083 2 1.0280005507825443e+00 4.6181673285095795e+05 4.2000000000000000e+03 3.0419893195171177e-01 1.9521911532996395e+01 8.2177530019138857e+01 
577 179 2 1.0280004025941087e+00 3.0727368848456838e+05 4.2000000000000000e+03 4.5927760056622073e+00 1.6818802707894442e+01 8.1544641855861187e+01 
1053 655 2 1.0280016824022251e+00 9.7702163861370843e+05 4.2000000000000000e+03 5.3188981548925609e+00 1.7505417302524695e+01 8.2387524927143176e+01 
1979 1581 2 1.0280016476019369e+00 4.2050423105161061e+05 4.2000000000000000e+03 7.8490096412800670e+00 1.9987100634345872e+01 8.2024802764097728e+01 
754 356 2 1.0280016462101851e+00 -7.5409889708717249e+05 4.2000000000000000e+03 7.8491023649774316e+00 1.9987139330990683e+01 8.2024794055106028e+01 
1581 1183 2 1.0280081474684759e+00 7.6325337766751554e+05 4.2000000000000000e+03 3.0973290409598708e+00 9.2388201218561561e-01 8.3796601011946876e+01 
1484 1086 2 1.0279980190545968e+00 4.4588029215326684e+05 4.2000000000000000e+03 4.0043942065998612e+00 2.4057357596425559e+00 8.6503580760555025e+01 
1600 1202 2 1.0280266607927093e+00 6.1939465731732221e+05 4.2000000000000000e+03 3.5680199715113079e+00 2.0374547606889277e+00 8.5634786787983899e+01 
1375 977 2 1.0279985375689202e+00 -1.0294434451727906e+06 4.2000000000000000e+03 8.1515733318640518e+00 1.9515499358856223e+00 8.4784391496855761e+01 
1333 935 2 1.0280240196052624e+00 7.7269279432719585e+05 4.2000000000000000e+03 7.8592389457719678e+00 1.9938821321277438e+00 8.5063370221937646e+01 
988 590 2 1.0279953804701343e+00 5.5809650838052027e+05 4.2000000000000000e+03 1.2351763204019298e+01 2.4266855624389194e+00 8.3744209578507721e+01 
1721 1323 2 1.0280115862957175e+00 3.6068601312417613e+05 4.2000000000000000e+03 1.1137044839099584e+01 4.6162587879466238e-01 8.6548120832587671e+01 
705 307 2 1.0280072179000310e+00 5.2667278365740064e+05 4.2000000000000000e+03 1.3540578104786755e+01 8.6996222041624227e-01 8.4743427968683989e+01 
1639 1241 2 1.0279923973706167e+00 -7.5132388680861122e+05 4.2000000000000000e+03 1.8671163783170879e+01 4.9506620991733669e-01 8.4494669940024863e+01 
735 337 2 1.0279913953884068e+00 2.5008709380333198e+05 4.2000000000000000e+03 1.8358747708244047e-01 6.1163073584397853e+00 8.4597672307785473e+01 
1314 916 2 1.0280052897917016e+00 -9.3099936186522595e+05 4.2000000000000000e+03 3.3705986296382360e+00 6.0559355844520306e+00 8.4691870904258536e+01 
1521 1123 2 1.0280137857932103e+00 1.0371341337433306e+06 4.2000000000000000e+03 5.4798863883728810e+00 4.6380326639539806e+00 8.3641757278196792e+01 
1936 1538 2 1.0279981110946690e+00 5.7899722935472499e+05 4.2000000000000000e+03 6.3079396700425070e+00 6.1211979508684493e+00 8.5745271441779707e+01 
412 14 2 1.0280181130257815e+00 3.2391823181687796e+05 4.2000000000000000e+03 6.8681698235193096e+00 4.1026050889913677e+00 8.3371827051547797e+01 
1266 868 2 1.0279786656815384e+00 -9.9444726892487460e+05 4.2000000000000000e+03 8.9337062220500787e+00 5.0152523329833496e+00 8.4601100369862280e+01 
1412 1014 2 1.0280013603648959e+00 5.5330747171134187e+05 4.2000000000000000e+03 1.2338774224926816e+01 3.8852453778984497e+00 8.5828520425902695e+01 
817 419 2 1.0280044538969193e+00 2.4916931373771350e+05 4.2000000000000000e+03 1.4501566156233320e+01 5.1215534578167325e+00 8.4845041666350895e+01 
1525 1127 2 1.0279915257947196e+00 5.6829972544207156e+05 4.2000000000000000e+03 1.5200417195507825e+01 3.3819191269276332e+00 8.6344743199241748e+01 
723 325 2 1.0279905749228140e+00 -7.1463498772648233e+05 4.2000000000000000e+03 1.6989816006546377e+01 4.7099159583787973e+00 8.6420543655579053e+01 
873 475 2 1.0280110745401814e+00 1.4316473573454708e+05 4.2000000000000000e+03 1.9271028609475664e+01 3.8625303603246270e+00 8.4390745727862850e+01 
1076 678 2 1.0280098568154121e+00 6.2758152068705962e+05 4.2000000000000000e+03 1.8542986723173861e+01 5.9327301679698561e+00 8.5096478489891823e+01 
949 551 2 1.0280139194030944e+00 5.7308274456039292e+05 4.2000000000000000e+03 9.0889112033972086e-01 7.1870024467744704e+00 8.6296752361645005e+01 
1428 1030 2 1.0280027281700443e+00 7.3352773809504113e+05 4.2000000000000000e+03 2.1600078528191555e+00 8.7889706763636113e+00 8.6544231393603326e+01 
1378 980 2 1.0279992949929435e+00 -7.3438236322625109e+05 4.2000000000000000e+03 6.0559687420276065e+00 9.0039932923239707e+00 8.4391137924414082e+01 
1855 1457 2 1.0280030018584436e+00 -1.0778275405063464e+06 4.2000000000000000e+03 5.7138990916368932e+00 9.4587562644848795e+00 8.4712800550966818e+01 
1222 824 2 1.0280189111629092e+00 -7.6883573688127112e+05 4.2000000000000000e+03 8.5737123199204071e+00 7.6206009976321383e+00 8.4109986260353182e+01 
840 442 2 1.0279911596077729e+00 2.4044254135601726e+05 4.2000000000000000e+03 1.2343278857418756e+01 7.1542488854086237e+00 8.3439363222975118e+01 
1678 1280 2 1.0280062124221847e+00 -1.0038164273162654e+06 4.2000000000000000e+03 1.3197354833825031e+01 8.9642274188519178e+00 8.4716589536999450e+01 
1858 1460 2 1.0280012596177590e+00 -9.1476150664879987e+05 4.2000000000000000e+03 1.0610686377736663e+01 9.1251695550893253e+00 8.5358736564501257e+01 
1668 1270 2 1.0280003650784379e+00 2.0272320956783698e+05 4.2000000000000000e+03 1.4707587114172572e+01 8.1304307067125361e+00 8.4535091495622979e+01 
418 20 2 1.0280036687387359e+00 5.6217714598039654e+05 4.2000000000000000e+03 1.6580637777582279e+01 8.5475735283540093e+00 8.5056969770334263e+01 
619 221 2 1.0279989206330387e+00 -1.0421470036300836e+06 4.2000000000000000e+03 1.7656102538974537e+01 9.8520169788353300e+00 8.5052857228463850e+01 
1438 1040 2 1.0279898711425848e+00 -1.0253571652389131e+06 4.2000000000000000e+03 2.5453914877419717e+00 1.2142832516273316e+01 8.3866020720707624e+01 
860 462 2 1.0280145214969474e+00 3.8855258817064931e+05 4.2000000000000000e+03 1.7668612611831283e+00 1.1989427055010335e+01 8.5324555737817533e+01 
1637 1239 2 1.0280003935545339e+00 2.3306949704378692e+05 4.2000000000000000e+03 5.8498646623777235e+00 1.2755881127495343e+01 8.4993699959859256e+01 
713 315 2 1.0280050847848907e+00 4.1801793090749276e+05 4.2000000000000000e+03 4.8333803728697733e+00 1.2655993418304888e+01 8.6600795166768222e+01 
2033 1635 2 1.0279974717422296e+00 6.3760473532309919e+05 4.2000000000000000e+03 1.0667739104070264e+01 1.1903765701201538e+01 8.5644164389300258e+01 
1700 1302 2 1.0280092953677897e+00 4.3508811492357205e+05 4.2000000000000000e+03 1.1970352448015177e+01 1.1565374667251609e+01 8.5563499156744328e+01 
749 351 2 1.0280048059723121e+00 6.8282040281290060e+05 4.2000000000000000e+03 1.4592005760410942e+01 1.1651930113361589e+01 8.6162085219091281e+01 
1657 1259 2 1.0280036432589674e+00 1.9813069049921833e+05 4.2000000000000000e+03 1.7512271786803918e+01 1.2191473859996023e+01 8.4439880061337178e+01 