LAMMPS data file via write_data, version 30 Jul 2016, timestep = 600000

2080 atoms
8 atom types

0.0000000000000000e+00 4.0000000000000000e+01 xlo xhi
0.0000000000000000e+00 4.0000000000000000e+01 ylo yhi
0.0000000000000000e+00 1.0000000000000000e+02 zlo zhi

Masses

1 3.896
2 21.44
3 1058.08
4 8.378
5 8.378
6 8.378
7 8.378
8 8.378

Atoms # meso-molecular

1 2 4 2.2559723598750767e+00 2.9223630203451694e+03 4.2000000000000000e+03 0.0000000000000000e+00 0.0000000000000000e+00 2.5000000000000000e+00 
2 2 4 2.2559723595316457e+00 -1.1893457991894622e+03 4.2000000000000000e+03 0.0000000000000000e+00 2.0000000000000000e+00 2.5000000000000000e+00 
21 2 4 2.2559723595316457e+00 1.1738399472634246e+02 4.2000000000000000e+03 2.0000000000000000e+00 0.0000000000000000e+00 2.5000000000000000e+00 
22 2 4 2.2559723595316457e+00 2.7115140358882190e+03 4.2000000000000000e+03 2.0000000000000000e+00 2.0000000000000000e+00 2.5000000000000000e+00 
41 2 4 2.2559723595316457e+00 -1.6556806091008489e+03 4.2000000000000000e+03 4.0000000000000000e+00 0.0000000000000000e+00 2.5000000000000000e+00 
42 2 4 2.2559723595316457e+00 2.8048752419457774e+03 4.2000000000000000e+03 4.0000000000000000e+00 2.0000000000000000e+00 2.5000000000000000e+00 
61 2 4 2.2559723595672674e+00 2.6443135609059359e+03 4.2000000000000000e+03 6.0000000000000000e+00 0.0000000000000000e+00 2.5000000000000000e+00 
62 2 4 2.2559723595316550e+00 1.4064456468560240e+03 4.2000000000000000e+03 6.0000000000000000e+00 2.0000000000000000e+00 2.5000000000000000e+00 
81 2 4 2.2559723595316457e+00 7.7325888641882084e+03 4.2000000000000000e+03 8.0000000000000000e+00 0.0000000000000000e+00 2.5000000000000000e+00 
82 2 4 2.2559723595316457e+00 3.9002066602449668e+03 4.2000000000000000e+03 8.0000000000000000e+00 2.0000000000000000e+00 2.5000000000000000e+00 
101 2 4 2.2559723595429988e+00 4.4023935144068191e+03 4.2000000000000000e+03 1.0000000000000000e+01 0.0000000000000000e+00 2.5000000000000000e+00 
102 2 4 2.2559723595316457e+00 4.9613460404189345e+03 4.2000000000000000e+03 1.0000000000000000e+01 2.0000000000000000e+00 2.5000000000000000e+00 
121 2 4 2.2559723595316457e+00 1.2250730699226360e+03 4.2000000000000000e+03 1.2000000000000000e+01 0.0000000000000000e+00 2.5000000000000000e+00 
122 2 4 2.2559723595316457e+00 1.5010869201380149e+03 4.2000000000000000e+03 1.2000000000000000e+01 2.0000000000000000e+00 2.5000000000000000e+00 
141 2 4 2.2559723595417069e+00 2.0780391589971473e+03 4.2000000000000000e+03 1.4000000000000000e+01 0.0000000000000000e+00 2.5000000000000000e+00 
142 2 4 2.2559723595316457e+00 2.4826910952928711e+03 4.2000000000000000e+03 1.4000000000000000e+01 2.0000000000000000e+00 2.5000000000000000e+00 
161 2 4 2.2559723595316457e+00 2.9412057009362179e+03 4.2000000000000000e+03 1.6000000000000000e+01 0.0000000000000000e+00 2.5000000000000000e+00 
162 2 4 2.2559723595316457e+00 4.2858044728967679e+03 4.2000000000000000e+03 1.6000000000000000e+01 2.0000000000000000e+00 2.5000000000000000e+00 
181 2 4 2.2559723595316457e+00 1.4822158882974659e+03 4.2000000000000000e+03 1.8000000000000000e+01 0.0000000000000000e+00 2.5000000000000000e+00 
182 2 4 2.2559723595316457e+00 4.3500356687747790e+03 4.2000000000000000e+03 1.8000000000000000e+01 2.0000000000000000e+00 2.5000000000000000e+00 
3 2 4 2.2559723595316457e+00 4.7468561046550149e+03 4.2000000000000000e+03 0.0000000000000000e+00 4.0000000000000000e+00 2.5000000000000000e+00 
4 2 4 2.2559723595316457e+00 -4.6210555024860457e+02 4.2000000000000000e+03 0.0000000000000000e+00 6.0000000000000000e+00 2.5000000000000000e+00 
23 2 4 2.2559723595316545e+00 5.4711821529796216e+03 4.2000000000000000e+03 2.0000000000000000e+00 4.0000000000000000e+00 2.5000000000000000e+00 
24 2 4 2.2559723595316457e+00 2.2193972162057189e+03 4.2000000000000000e+03 2.0000000000000000e+00 6.0000000000000000e+00 2.5000000000000000e+00 
43 2 4 2.2559723595316457e+00 3.8811956941442709e+03 4.2000000000000000e+03 4.0000000000000000e+00 4.0000000000000000e+00 2.5000000000000000e+00 
44 2 4 2.2559723595316457e+00 2.2147031337089638e+03 4.2000000000000000e+03 4.0000000000000000e+00 6.0000000000000000e+00 2.5000000000000000e+00 
63 2 4 2.2559723595316457e+00 7.0319316224545594e+02 4.2000000000000000e+03 6.0000000000000000e+00 4.0000000000000000e+00 2.5000000000000000e+00 
64 2 4 2.2559723595316457e+00 1.7852668816793077e+03 4.2000000000000000e+03 6.0000000000000000e+00 6.0000000000000000e+00 2.5000000000000000e+00 
83 2 4 2.2559723595316457e+00 2.9076144608555619e+03 4.2000000000000000e+03 8.0000000000000000e+00 4.0000000000000000e+00 2.5000000000000000e+00 
84 2 4 2.2559723595432377e+00 1.8344543660842091e+03 4.2000000000000000e+03 8.0000000000000000e+00 6.0000000000000000e+00 2.5000000000000000e+00 
103 2 4 2.2559723595343457e+00 3.5235713099433428e+03 4.2000000000000000e+03 1.0000000000000000e+01 4.0000000000000000e+00 2.5000000000000000e+00 
104 2 4 2.2559723595316457e+00 1.9075526507666382e+03 4.2000000000000000e+03 1.0000000000000000e+01 6.0000000000000000e+00 2.5000000000000000e+00 
123 2 4 2.2559723595374077e+00 1.6369644098198567e+03 4.2000000000000000e+03 1.2000000000000000e+01 4.0000000000000000e+00 2.5000000000000000e+00 
124 2 4 2.2559723597538999e+00 1.7505986456153614e+03 4.2000000000000000e+03 1.2000000000000000e+01 6.0000000000000000e+00 2.5000000000000000e+00 
143 2 4 2.2559723595316457e+00 2.7630520227920570e+03 4.2000000000000000e+03 1.4000000000000000e+01 4.0000000000000000e+00 2.5000000000000000e+00 
144 2 4 2.2559723595316457e+00 4.0746477568078490e+03 4.2000000000000000e+03 1.4000000000000000e+01 6.0000000000000000e+00 2.5000000000000000e+00 
163 2 4 2.2559723595316457e+00 4.7284544218809260e+03 4.2000000000000000e+03 1.6000000000000000e+01 4.0000000000000000e+00 2.5000000000000000e+00 
164 2 4 2.2559723595317269e+00 4.3877945953096332e+03 4.2000000000000000e+03 1.6000000000000000e+01 6.0000000000000000e+00 2.5000000000000000e+00 
183 2 4 2.2559723595316457e+00 5.4093842899135743e+03 4.2000000000000000e+03 1.8000000000000000e+01 4.0000000000000000e+00 2.5000000000000000e+00 
184 2 4 2.2559723595316457e+00 3.3752772544592685e+03 4.2000000000000000e+03 1.8000000000000000e+01 6.0000000000000000e+00 2.5000000000000000e+00 
5 2 4 2.2559723595316457e+00 3.4714759836379340e+03 4.2000000000000000e+03 0.0000000000000000e+00 8.0000000000000000e+00 2.5000000000000000e+00 
25 2 4 2.2559723595316457e+00 6.3819922365421780e+02 4.2000000000000000e+03 2.0000000000000000e+00 8.0000000000000000e+00 2.5000000000000000e+00 
45 2 4 2.2559723595316394e+00 3.3642298661428299e+03 4.2000000000000000e+03 4.0000000000000000e+00 8.0000000000000000e+00 2.5000000000000000e+00 
65 2 4 2.2559723596792103e+00 8.0359922940775277e+02 4.2000000000000000e+03 6.0000000000000000e+00 8.0000000000000000e+00 2.5000000000000000e+00 
85 2 4 2.2559723595316457e+00 1.3881034098833143e+03 4.2000000000000000e+03 8.0000000000000000e+00 8.0000000000000000e+00 2.5000000000000000e+00 
105 2 4 2.2559723595611683e+00 1.1060144218383132e+03 4.2000000000000000e+03 1.0000000000000000e+01 8.0000000000000000e+00 2.5000000000000000e+00 
125 2 4 2.2559723595316457e+00 1.5834028792828688e+03 4.2000000000000000e+03 1.2000000000000000e+01 8.0000000000000000e+00 2.5000000000000000e+00 
145 2 4 2.2559723595316457e+00 5.1810616444464995e+03 4.2000000000000000e+03 1.4000000000000000e+01 8.0000000000000000e+00 2.5000000000000000e+00 
165 2 4 2.2559723595316457e+00 5.7649205585646469e+03 4.2000000000000000e+03 1.6000000000000000e+01 8.0000000000000000e+00 2.5000000000000000e+00 
185 2 4 2.2559723595316457e+00 3.4454400988573843e+03 4.2000000000000000e+03 1.8000000000000000e+01 8.0000000000000000e+00 2.5000000000000000e+00 
6 2 4 2.2559723595341157e+00 3.3613324391532769e+03 4.2000000000000000e+03 0.0000000000000000e+00 1.0000000000000000e+01 2.5000000000000000e+00 
7 2 4 2.2559723595316457e+00 3.8568034010549866e+02 4.2000000000000000e+03 0.0000000000000000e+00 1.2000000000000000e+01 2.5000000000000000e+00 
26 2 4 2.2559723595332790e+00 8.4566704588061166e+03 4.2000000000000000e+03 2.0000000000000000e+00 1.0000000000000000e+01 2.5000000000000000e+00 
27 2 4 2.2559723595379273e+00 3.9889625053836926e+03 4.2000000000000000e+03 2.0000000000000000e+00 1.2000000000000000e+01 2.5000000000000000e+00 
46 2 4 2.2559723595316457e+00 6.8073947050571505e+03 4.2000000000000000e+03 4.0000000000000000e+00 1.0000000000000000e+01 2.5000000000000000e+00 
47 2 4 2.2559723595316457e+00 8.4302030327309149e+03 4.2000000000000000e+03 4.0000000000000000e+00 1.2000000000000000e+01 2.5000000000000000e+00 
66 2 4 2.2559723595316457e+00 6.8855113781350428e+02 4.2000000000000000e+03 6.0000000000000000e+00 1.0000000000000000e+01 2.5000000000000000e+00 
67 2 4 2.2559723595414134e+00 4.3494395243760337e+03 4.2000000000000000e+03 6.0000000000000000e+00 1.2000000000000000e+01 2.5000000000000000e+00 
86 2 4 2.2559723595316457e+00 4.9323596575106865e+02 4.2000000000000000e+03 8.0000000000000000e+00 1.0000000000000000e+01 2.5000000000000000e+00 
87 2 4 2.2559723596840326e+00 9.7058491616611013e+02 4.2000000000000000e+03 8.0000000000000000e+00 1.2000000000000000e+01 2.5000000000000000e+00 
106 2 4 2.2559723595316457e+00 4.5134561113328755e+02 4.2000000000000000e+03 1.0000000000000000e+01 1.0000000000000000e+01 2.5000000000000000e+00 
107 2 4 2.2559723595316457e+00 2.0541085259434740e+03 4.2000000000000000e+03 1.0000000000000000e+01 1.2000000000000000e+01 2.5000000000000000e+00 
126 2 4 2.2559723595569641e+00 1.7723126155421830e+03 4.2000000000000000e+03 1.2000000000000000e+01 1.0000000000000000e+01 2.5000000000000000e+00 
127 2 4 2.2559723595671977e+00 2.8692080913931750e+03 4.2000000000000000e+03 1.2000000000000000e+01 1.2000000000000000e+01 2.5000000000000000e+00 
146 2 4 2.2559723595316457e+00 3.7242106576824390e+03 4.2000000000000000e+03 1.4000000000000000e+01 1.0000000000000000e+01 2.5000000000000000e+00 
147 2 4 2.2559723595316457e+00 4.2257289209656410e+03 4.2000000000000000e+03 1.4000000000000000e+01 1.2000000000000000e+01 2.5000000000000000e+00 
166 2 4 2.2559723595365782e+00 1.9131865539786252e+03 4.2000000000000000e+03 1.6000000000000000e+01 1.0000000000000000e+01 2.5000000000000000e+00 
167 2 4 2.2559723595316457e+00 4.2691065624482471e+03 4.2000000000000000e+03 1.6000000000000000e+01 1.2000000000000000e+01 2.5000000000000000e+00 
186 2 4 2.2559723596318513e+00 2.2775205309677649e+03 4.2000000000000000e+03 1.8000000000000000e+01 1.0000000000000000e+01 2.5000000000000000e+00 
187 2 4 2.2559723595830983e+00 6.8214236571645106e+03 4.2000000000000000e+03 1.8000000000000000e+01 1.2000000000000000e+01 2.5000000000000000e+00 
8 2 4 2.2559723595338959e+00 5.8449304604846020e+02 4.2000000000000000e+03 0.0000000000000000e+00 1.4000000000000000e+01 2.5000000000000000e+00 
9 2 4 2.2559723595316457e+00 3.5697585159915911e+03 4.2000000000000000e+03 0.0000000000000000e+00 1.6000000000000000e+01 2.5000000000000000e+00 
28 2 4 2.2559723595319046e+00 1.3542695788946589e+03 4.2000000000000000e+03 2.0000000000000000e+00 1.4000000000000000e+01 2.5000000000000000e+00 
29 2 4 2.2559723595316457e+00 4.5344748667190133e+03 4.2000000000000000e+03 2.0000000000000000e+00 1.6000000000000000e+01 2.5000000000000000e+00 
48 2 4 2.2559723595484158e+00 5.5841207030771302e+03 4.2000000000000000e+03 4.0000000000000000e+00 1.4000000000000000e+01 2.5000000000000000e+00 
49 2 4 2.2559723595349772e+00 7.0551384206999483e+03 4.2000000000000000e+03 4.0000000000000000e+00 1.6000000000000000e+01 2.5000000000000000e+00 
68 2 4 2.2559723595316457e+00 5.1621491752499887e+03 4.2000000000000000e+03 6.0000000000000000e+00 1.4000000000000000e+01 2.5000000000000000e+00 
69 2 4 2.2559723595348018e+00 8.8514770132687845e+03 4.2000000000000000e+03 6.0000000000000000e+00 1.6000000000000000e+01 2.5000000000000000e+00 
88 2 4 2.2559723595316457e+00 4.3971428101525307e+03 4.2000000000000000e+03 8.0000000000000000e+00 1.4000000000000000e+01 2.5000000000000000e+00 
89 2 4 2.2559723595370786e+00 5.9115397346992586e+03 4.2000000000000000e+03 8.0000000000000000e+00 1.6000000000000000e+01 2.5000000000000000e+00 
108 2 4 2.2559723595316457e+00 2.9970524806695266e+03 4.2000000000000000e+03 1.0000000000000000e+01 1.4000000000000000e+01 2.5000000000000000e+00 
109 2 4 2.2559723595936823e+00 3.0072960450145461e+03 4.2000000000000000e+03 1.0000000000000000e+01 1.6000000000000000e+01 2.5000000000000000e+00 
128 2 4 2.2559723595316457e+00 3.7635782420994710e+03 4.2000000000000000e+03 1.2000000000000000e+01 1.4000000000000000e+01 2.5000000000000000e+00 
129 2 4 2.2559723595418912e+00 5.6183748084099716e+03 4.2000000000000000e+03 1.2000000000000000e+01 1.6000000000000000e+01 2.5000000000000000e+00 
148 2 4 2.2559723595692347e+00 4.3110507126669881e+03 4.2000000000000000e+03 1.4000000000000000e+01 1.4000000000000000e+01 2.5000000000000000e+00 
149 2 4 2.2559723595543137e+00 8.4303583634931238e+03 4.2000000000000000e+03 1.4000000000000000e+01 1.6000000000000000e+01 2.5000000000000000e+00 
168 2 4 2.2559723595316457e+00 5.2031236935581737e+03 4.2000000000000000e+03 1.6000000000000000e+01 1.4000000000000000e+01 2.5000000000000000e+00 
169 2 4 2.2559723595361763e+00 7.7736723375114052e+03 4.2000000000000000e+03 1.6000000000000000e+01 1.6000000000000000e+01 2.5000000000000000e+00 
188 2 4 2.2559723595316457e+00 6.2163151238024466e+03 4.2000000000000000e+03 1.8000000000000000e+01 1.4000000000000000e+01 2.5000000000000000e+00 
189 2 4 2.2559723595316457e+00 4.4016585942192778e+03 4.2000000000000000e+03 1.8000000000000000e+01 1.6000000000000000e+01 2.5000000000000000e+00 
10 2 4 2.2559723595317731e+00 2.3736394652845224e+03 4.2000000000000000e+03 0.0000000000000000e+00 1.8000000000000000e+01 2.5000000000000000e+00 
30 2 4 2.2559723595316457e+00 2.6504509331299560e+03 4.2000000000000000e+03 2.0000000000000000e+00 1.8000000000000000e+01 2.5000000000000000e+00 
50 2 4 2.2559723595316457e+00 5.7715608568365151e+03 4.2000000000000000e+03 4.0000000000000000e+00 1.8000000000000000e+01 2.5000000000000000e+00 
70 2 4 2.2559723595488164e+00 7.0168329132418085e+03 4.2000000000000000e+03 6.0000000000000000e+00 1.8000000000000000e+01 2.5000000000000000e+00 
90 2 4 2.2559723595316457e+00 5.1278901077889932e+03 4.2000000000000000e+03 8.0000000000000000e+00 1.8000000000000000e+01 2.5000000000000000e+00 
110 2 4 2.2559723595316457e+00 2.3927534837662624e+03 4.2000000000000000e+03 1.0000000000000000e+01 1.8000000000000000e+01 2.5000000000000000e+00 
130 2 4 2.2559723595316457e+00 4.5422991198573245e+03 4.2000000000000000e+03 1.2000000000000000e+01 1.8000000000000000e+01 2.5000000000000000e+00 
150 2 4 2.2559723595316457e+00 8.0468947394151483e+03 4.2000000000000000e+03 1.4000000000000000e+01 1.8000000000000000e+01 2.5000000000000000e+00 
170 2 4 2.2559723595538728e+00 8.1856999062190334e+03 4.2000000000000000e+03 1.6000000000000000e+01 1.8000000000000000e+01 2.5000000000000000e+00 
190 2 4 2.2559723595316457e+00 4.0419307414787590e+03 4.2000000000000000e+03 1.8000000000000000e+01 1.8000000000000000e+01 2.5000000000000000e+00 
1429 1031 2 1.0279999790488197e+00 5.9439315411048743e+05 4.2000000000000000e+03 6.5447326708614026e+00 8.3544276305008847e+00 3.8411118466518296e+01 
1351 953 2 1.0279999724566791e+00 -1.1007206512688685e+06 4.2000000000000000e+03 6.5969552587783475e+00 8.5498776877845302e+00 3.8366625173954453e+01 
759 361 2 1.0280000254437902e+00 -7.9769886261935276e+05 4.2000000000000000e+03 7.6204491059333312e+00 7.7522061015506845e+00 3.7804607436560062e+01 
1821 1423 2 1.0279999966646078e+00 4.5789927401465829e+05 4.2000000000000000e+03 9.9074596603240046e+00 8.7455443172962823e+00 3.7241815618558100e+01 
633 235 2 1.0279999886577447e+00 7.3596541026163986e+05 4.2000000000000000e+03 1.1913248667321382e+01 9.2633260392848271e+00 3.8126982652944086e+01 
493 95 2 1.0280000002328391e+00 7.3768940507745522e+05 4.2000000000000000e+03 1.1989322068830162e+01 1.0070047498820832e+01 3.7893730094725491e+01 
533 135 2 1.0280000097484578e+00 5.6507647350725473e+05 4.2000000000000000e+03 1.0360922217924585e+01 1.0253117827278311e+01 3.7274496463158883e+01 
642 244 2 1.0279965364957626e+00 -9.8258354856773466e+05 4.2000000000000000e+03 1.9425213367951162e+01 1.0435019095312073e+01 5.2242048110387039e+01 
1647 1249 2 1.0280538770753260e+00 -7.1434960131427052e+05 4.2000000000000000e+03 1.9326571619329595e+01 1.0437230753102794e+01 5.2184507382086259e+01 
1413 1015 2 1.0279652320119732e+00 8.4745690139566650e+04 4.2000000000000000e+03 1.9952144840292725e+01 1.0506608608204701e+01 5.1139497034303830e+01 
1278 880 2 1.0280021010622651e+00 -1.0193025011177638e+06 4.2000000000000000e+03 3.5580026508594416e+00 4.1577417105488577e+00 5.6321566712704488e+01 
1597 1199 2 1.0280050403605914e+00 6.5434379610158643e+05 4.2000000000000000e+03 3.7483754606383561e+00 4.2404481488426873e+00 5.5272151089474967e+01 
915 517 2 1.0280020768768405e+00 -8.0735494968051615e+05 4.2000000000000000e+03 4.8187882258829715e+00 5.3439107736221780e+00 5.4477888287189465e+01 
444 46 2 1.0279850349879756e+00 8.5814570891555282e+05 4.2000000000000000e+03 6.7931041704296780e+00 5.8377070301686365e+00 5.5515272709360168e+01 
1988 1590 2 1.0279948352355066e+00 5.7587713998304319e+05 4.2000000000000000e+03 1.2744092431311916e+01 4.1927754103879060e+00 5.5947481150668537e+01 
1447 1049 2 1.0279957761273444e+00 -8.0842231121574284e+05 4.2000000000000000e+03 1.2977992062255412e+01 4.5065619142582785e+00 5.6011640756799530e+01 
616 218 2 1.0279907653156350e+00 3.9593859959542786e+05 4.2000000000000000e+03 1.0861252698519941e+01 4.8590372450124804e+00 5.5719472570237905e+01 
2044 1646 2 1.0280010086038689e+00 1.2580140012237835e+06 4.2000000000000000e+03 2.6150184621209505e+00 7.1143050177138294e+00 5.5735581593302435e+01 
1646 1248 2 1.0279959042446645e+00 -7.1085463084279478e+05 4.2000000000000000e+03 4.5541570670458249e+00 8.5871001765945572e+00 5.5628275616068485e+01 
1806 1408 2 1.0279961895349079e+00 -9.8319259472052811e+05 4.2000000000000000e+03 5.0594594289442769e+00 8.8356177706520338e+00 5.6409855796430662e+01 
1078 680 2 1.0280240763380903e+00 -8.0106937798070291e+05 4.2000000000000000e+03 7.4813301830181329e+00 7.1774970753916847e+00 5.4304723840722701e+01 
1765 1367 2 1.0280242032949287e+00 5.2552313260236825e+05 4.2000000000000000e+03 7.4821614957696267e+00 7.1772858600597775e+00 5.4305425532965792e+01 
1131 733 2 1.0280160916819741e+00 -8.7682863892218389e+05 4.2000000000000000e+03 1.1505402723564350e+01 6.6973420383036899e+00 5.4699795594902405e+01 
1777 1379 2 1.0280121788675844e+00 4.1277442008112889e+05 4.2000000000000000e+03 1.1582118650281894e+01 6.6841377290409607e+00 5.4671518298913050e+01 
1604 1206 2 1.0279957810015452e+00 4.4428651308620680e+05 4.2000000000000000e+03 1.6799879469968035e+00 5.8974052489348141e+00 5.7582220734019934e+01 
1056 658 2 1.0279953447662740e+00 9.7733391839754523e+05 4.2000000000000000e+03 1.6882988479552166e+00 5.9299383736914519e+00 5.7601716450676875e+01 
1233 835 2 1.0280044482597515e+00 3.4729117149622779e+05 4.2000000000000000e+03 4.8539908343592497e+00 7.0193710470613144e+00 5.8270376648244969e+01 
2028 1630 2 1.0280041404575757e+00 3.4433242899224727e+05 4.2000000000000000e+03 4.8015268949682017e+00 7.2061901639329635e+00 5.8310340524507680e+01 
1580 1182 2 1.0280000381547134e+00 9.7162706939210393e+05 4.2000000000000000e+03 2.3501879301888112e-01 5.5134872008341231e+00 6.3071702792202053e+01 
513 115 2 1.0280195124205029e+00 3.5330200144345209e+05 4.2000000000000000e+03 3.6771852535298882e-01 6.0851347356121623e+00 6.3947421051903405e+01 
1461 1063 2 1.0280057861399032e+00 2.2995093011799428e+05 4.2000000000000000e+03 1.9235460399739457e+00 6.5526920310382648e+00 6.3999286108205922e+01 
548 150 2 1.0279835441993277e+00 7.3885031847535272e+05 4.2000000000000000e+03 4.1521095189657231e+00 6.5894266632574494e+00 6.5994691982464033e+01 
811 413 2 1.0279841289948166e+00 -5.8452832619424036e+05 4.2000000000000000e+03 4.1875993143347960e+00 6.5916429525261870e+00 6.5943380110698811e+01 
1410 1012 2 1.0279790357232990e+00 5.3218260890003887e+05 4.2000000000000000e+03 9.9903115302553291e-01 9.8185720001408203e+00 6.6432351701112566e+01 
1577 1179 2 1.0280153597044377e+00 1.0360133471347158e+06 4.2000000000000000e+03 2.9476764378910985e+00 9.0465410599934479e+00 6.4840963929858816e+01 
1775 1377 2 1.0280031600300690e+00 -7.7392577659354697e+05 4.2000000000000000e+03 3.7175591194547630e+00 9.0048302354349090e+00 6.5433001989116320e+01 
1979 1581 2 1.0279955597752035e+00 4.2048909718176239e+05 4.2000000000000000e+03 3.8969790586276765e+00 2.3005371531894903e+00 6.7156475151978640e+01 
754 356 2 1.0279955599079844e+00 -7.5411403103083058e+05 4.2000000000000000e+03 3.8969833486237833e+00 2.3005376382749900e+00 6.7156475714721637e+01 
1331 933 2 1.0279956961595476e+00 -9.6506151414737408e+05 4.2000000000000000e+03 3.7990178103584902e+00 3.4744084458437263e+00 6.6799241169891928e+01 
1743 1345 2 1.0279792106132004e+00 2.9039099154617701e+05 4.2000000000000000e+03 8.8252713038260922e-01 8.7214439862698949e+00 6.7834710193086295e+01 
995 597 2 1.0279651980118869e+00 -8.9248148593058204e+05 4.2000000000000000e+03 2.7280425930148816e-02 1.2889264786306844e+01 7.3525222718511003e+01 
419 21 2 1.0279563198223789e+00 5.2102536186709843e+05 4.2000000000000000e+03 4.9421621737767268e-01 1.3499142379385829e+01 7.3684552298302052e+01 
2000 1602 2 1.0279801060469804e+00 4.6884736371511797e+05 4.2000000000000000e+03 8.4593506428917464e-01 1.6958906051092900e+01 7.6190880463482841e+01 
437 39 2 1.0279804191413651e+00 7.1239531130022998e+05 4.2000000000000000e+03 8.3677954091090812e-01 1.6961284935657545e+01 7.6190828379258292e+01 
577 179 2 1.0280732360192706e+00 3.0726553684241109e+05 4.2000000000000000e+03 1.3121774774484307e+00 1.4635570192561785e+01 7.7110860930811072e+01 
1053 655 2 1.0279674783594102e+00 9.7700120066447032e+05 4.2000000000000000e+03 2.5870573150632068e+00 1.5033944151372728e+01 7.7840705305904649e+01 
540 142 2 1.0280109663414299e+00 9.6593015974687133e+05 4.2000000000000000e+03 3.2784325541447932e+00 1.4312149467776669e+01 7.9530008858117853e+01 
575 177 2 1.0279828942567921e+00 -7.2080959425946034e+05 4.2000000000000000e+03 7.3609905215426563e-01 1.6269398559291403e+01 7.9982532349304918e+01 
1005 607 2 1.0280012074959008e+00 8.0018857009684609e+05 4.2000000000000000e+03 1.8288876162187723e+01 1.4786775155085506e+01 7.9081690811817325e+01 
1697 1299 2 1.0280643699958574e+00 2.9849745914028399e+05 4.2000000000000000e+03 1.8054644477305860e+01 1.4585920029439272e+01 7.9538113665881383e+01 
893 495 2 1.0280704729017249e+00 7.4031861346845154e+05 4.2000000000000000e+03 9.3828026800498265e-01 1.8164984142458486e+01 7.8956454043512338e+01 
810 412 2 1.0280929051636267e+00 -5.4476801023686095e+05 4.2000000000000000e+03 1.9677016326018400e+01 1.7116757624798144e+01 7.7703691501066373e+01 
2015 1617 2 1.0280956575897413e+00 6.3801451330716687e+05 4.2000000000000000e+03 1.9690862054827953e+01 1.7119771653120857e+01 7.7691319100950608e+01 
1864 1466 2 1.0280025596951694e+00 4.9168029654156498e+05 4.2000000000000000e+03 3.6788435529478423e+00 1.4469049543630159e+00 8.2185145803628913e+01 
1292 894 2 1.0279947751755509e+00 8.3310958970379923e+05 4.2000000000000000e+03 3.8482754585890913e+00 1.8103063678785651e+00 8.2531192330991601e+01 
662 264 2 1.0280070790866060e+00 -7.8517323010879138e+05 4.2000000000000000e+03 1.0672102793848273e+01 3.8948577901036191e-01 8.2197043917856888e+01 
1532 1134 2 1.0280053492769468e+00 5.1787050617515336e+05 4.2000000000000000e+03 1.4732628542552826e+01 1.5870901022331427e+00 8.3102697794820287e+01 
910 512 2 1.0279976276844771e+00 -5.8760908679467416e+05 4.2000000000000000e+03 1.6700888475127915e+01 1.8001584956324248e+00 8.2322103201776159e+01 
2017 1619 2 1.0279983170322589e+00 8.6408740953714959e+05 4.2000000000000000e+03 1.0727321016006079e+00 8.9353828365518915e+00 8.0024461785311658e+01 
1731 1333 2 1.0279993506555665e+00 -8.6056089467747556e+05 4.2000000000000000e+03 4.8904090573095577e-01 7.2980664271955780e+00 8.0446228997473767e+01 
503 105 2 1.0279953669002095e+00 6.1570346644258942e+05 4.2000000000000000e+03 1.2418114834806893e+00 7.0885889750902207e+00 8.2147741433696780e+01 
492 94 2 1.0279951631532389e+00 5.0752529738988803e+05 4.2000000000000000e+03 6.1506931491380836e+00 8.5196286672313910e+00 8.1681187490578054e+01 
458 60 2 1.0279952561261638e+00 3.7745976424933609e+05 4.2000000000000000e+03 6.1527689980301776e+00 8.5189977620118373e+00 8.1683093342901216e+01 
2014 1616 2 1.0280001675494801e+00 5.8602887598040863e+05 4.2000000000000000e+03 4.5942039319586154e+00 9.7681419954891986e+00 8.1149249007216909e+01 
1220 822 2 1.0280084275439776e+00 7.0990186697225564e+05 4.2000000000000000e+03 8.9041108787776366e+00 9.0940711538654941e+00 8.3315999156027729e+01 
1213 815 2 1.0280000570451719e+00 4.5778646711162326e+05 4.2000000000000000e+03 1.0081325257053937e+01 7.0971161109284706e+00 8.3114759788818859e+01 
823 425 2 1.0279897949455481e+00 -7.5595400930979266e+05 4.2000000000000000e+03 2.9576599754225663e+00 1.0877283442806393e+01 8.1232669084128844e+01 
948 550 2 1.0279983063321276e+00 5.1988195632496290e+05 4.2000000000000000e+03 2.3592929607930060e+00 1.1950804809441584e+01 8.2321331906150718e+01 
1438 1040 2 1.0279920435125578e+00 -1.0253573405863662e+06 4.2000000000000000e+03 1.2241924622253075e+00 1.4002660032481746e+01 8.3123041099246208e+01 
1921 1523 2 1.0280230543614051e+00 2.7970710677032155e+05 4.2000000000000000e+03 3.0183554595743680e+00 1.5951793310611952e+01 8.1603528429650737e+01 
943 545 2 1.0279859731090362e+00 -7.6782034351821104e+05 4.2000000000000000e+03 3.6634066662513076e+00 1.3483086417468186e+01 8.0754318223528955e+01 
786 388 2 1.0279470241544622e+00 -9.8680738681315503e+05 4.2000000000000000e+03 1.6234174359878054e+01 1.4420211770043368e+01 8.2036854053318450e+01 
1657 1259 2 1.0280023173136983e+00 1.9812973343493295e+05 4.2000000000000000e+03 1.5653742733496026e+01 1.4607361204560178e+01 8.2465571773486005e+01 
1146 748 2 1.0280769548638344e+00 -8.6454670279741415e+05 4.2000000000000000e+03 1.8241485073826475e+01 1.6176453047147135e+01 8.1604082612304992e+01 
1813 1415 2 1.0280132513710001e+00 4.6915701877682999e+05 4.2000000000000000e+03 1.9402433730741471e+01 1.4360914854541171e+01 8.2689509989453498e+01 
1377 979 2 1.0279695182535689e+00 5.2365296101232525e+05 4.2000000000000000e+03 2.1264024872725211e+00 1.9071920773834034e+01 8.0398714415427165e+01 
1478 1080 2 1.0280045571208964e+00 -8.4518099817869416e+05 4.2000000000000000e+03 2.3292601984877672e+00 1.7771434735784027e+01 8.2948359890938178e+01 
524 126 2 1.0279854664161105e+00 5.5200980035018048e+05 4.2000000000000000e+03 6.1676481615558298e+00 1.9713939704261332e+01 8.0085538333326113e+01 
1980 1582 2 1.0280337835924036e+00 7.1504931002331863e+05 4.2000000000000000e+03 5.9248618499293277e+00 1.9409207583485596e+01 8.1446930037122030e+01 
1816 1418 2 1.0279394359503564e+00 4.3074261359737848e+05 4.2000000000000000e+03 9.3535629434508856e+00 1.9116218042287393e+01 8.2449826029668273e+01 
1260 862 2 1.0279956174052551e+00 1.0638997464304529e+06 4.2000000000000000e+03 8.3716294301503797e+00 1.7363689607898571e+01 8.2620350133741439e+01 
490 92 2 1.0280438148474149e+00 3.8572503523746919e+05 4.2000000000000000e+03 1.1434134259610005e+01 1.9667670785346417e+01 8.1103348950703435e+01 
1065 667 2 1.0279771036257004e+00 3.9094577217786713e+05 4.2000000000000000e+03 1.2151027886106657e+01 1.8762070707653471e+01 8.1803608836176977e+01 
2003 1605 2 1.0280104278660906e+00 5.6304151439118700e+05 4.2000000000000000e+03 1.5510599388471398e+01 1.9510245696307152e+01 8.0127115989623462e+01 
485 87 2 1.0279654565077021e+00 5.1459234733102552e+05 4.2000000000000000e+03 1.3625413531803412e+01 1.9778343856511956e+01 8.0916567162853241e+01 
941 543 2 1.0281574577091956e+00 5.1991993965687661e+05 4.2000000000000000e+03 1.9641973358628817e+01 1.9637580015748327e+01 8.0748854276665170e+01 
1456 1058 2 1.0279419611543705e+00 4.8936918481886416e+05 4.2000000000000000e+03 1.8955686443854106e+01 1.8199810727621642e+01 8.3223700491346136e+01 
1581 1183 2 1.0280172183303886e+00 7.6325231513276428e+05 4.2000000000000000e+03 4.3094213082421069e+00 2.0041754755121719e+00 8.4673498204587162e+01 
839 441 2 1.0279956659245764e+00 -1.0051091928429661e+06 4.2000000000000000e+03 3.9820111803376426e+00 6.0571535130873289e-01 8.5373938710337313e+01 
1020 622 2 1.0280172665073088e+00 1.0568108015980884e+06 4.2000000000000000e+03 8.2762961609174379e+00 3.1586485766918920e-01 8.6310886494417289e+01 
1375 977 2 1.0280211322917705e+00 -1.0294438500571849e+06 4.2000000000000000e+03 8.1305892142784586e+00 2.8939243979343541e+00 8.5904549623706743e+01 
1333 935 2 1.0280149996604049e+00 7.7269249773339671e+05 4.2000000000000000e+03 8.0263273879229899e+00 2.8913000073679260e+00 8.5925246700597810e+01 
705 307 2 1.0280447481259665e+00 5.2667242140224518e+05 4.2000000000000000e+03 1.3079030191667878e+01 1.7245943055793738e+00 8.5322423744103119e+01 
988 590 2 1.0280033051156883e+00 5.5809613439906819e+05 4.2000000000000000e+03 1.2407357856472711e+01 3.2919545033315507e+00 8.4544725646145466e+01 
1340 942 2 1.0280037036707976e+00 6.1387147361488559e+05 4.2000000000000000e+03 1.6152269185941780e+01 6.4219747618843651e-02 8.6662846595175495e+01 
1639 1241 2 1.0279884092865998e+00 -7.5132426618427108e+05 4.2000000000000000e+03 1.7789624572873116e+01 8.2009984931033697e-01 8.4953438963802640e+01 
412 14 2 1.0279869409347320e+00 3.2391787666285137e+05 4.2000000000000000e+03 6.5978409300655114e+00 5.2438349755859113e+00 8.4976363219788169e+01 
1521 1123 2 1.0280159930075323e+00 1.0371339456540809e+06 4.2000000000000000e+03 4.8767834787157751e+00 6.2594466944923361e+00 8.4962770197913102e+01 
1600 1202 2 1.0280040468250120e+00 6.1939397584047844e+05 4.2000000000000000e+03 4.0036572485515256e+00 4.2825388606398693e+00 8.6591716149102638e+01 