LAMMPS data file via write_data, version 30 Jul 2016, timestep = 50400000

180 atoms
2 atom types

0.0000000000000000e+00 2.0000000000000000e+01 xlo xhi
0.0000000000000000e+00 2.0000000000000000e+01 ylo yhi
0.0000000000000000e+00 2.0000000000000000e+01 zlo zhi

Masses

1 3.896
2 4.31

Atoms # meso-molecular

8 1 2 1.0280000000005616e+00 9.4246295674551178e+01 1.0000000000000000e+00 6.5605062288622706e+00 1.3210213864791909e+01 1.2351836391203962e+01 
86 1 2 1.0280000000000953e+00 3.8680823506241694e+01 1.0000000000000000e+00 5.9380270773562520e+00 1.3751739039787704e+01 1.0406724860104408e+01 
79 1 2 1.0280000000003870e+00 1.1115668889393413e+02 1.0000000000000000e+00 5.2657148640273856e+00 1.4298764634687428e+01 1.1214368464001595e+01 
174 1 2 1.0280000000004677e+00 -8.4048902804601568e+01 1.0000000000000000e+00 6.0960118894739663e+00 1.4308309143059882e+01 1.2740069439272890e+01 
89 1 2 1.0280000000005041e+00 -4.8028005775086086e+01 1.0000000000000000e+00 6.4843804546654829e+00 1.4324933526625971e+01 1.2940775902588280e+01 
94 1 2 1.0280000000006102e+00 1.5262784480518110e+02 1.0000000000000000e+00 6.3618401191095026e+00 1.4401931666357941e+01 1.2897840271311457e+01 
74 1 2 1.0280000000000291e+00 -2.3808530258568652e+01 1.0000000000000000e+00 5.1219329435502789e+00 1.4687353685383348e+01 1.1087415707068924e+01 
49 1 2 1.0280000000012128e+00 -2.7330738000282068e+01 1.0000000000000000e+00 5.1377433362898115e+00 1.4785278458884996e+01 1.0881457330077597e+01 
139 1 2 1.0279999999994227e+00 -4.1635562561371870e+01 1.0000000000000000e+00 5.0090624639636117e+00 1.5023651810463750e+01 1.1177202400342974e+01 
98 1 2 1.0279999999983120e+00 1.4779056073911551e+02 1.0000000000000000e+00 4.7782383117794236e+00 1.6171948111644198e+01 1.1682555163384166e+01 
26 1 2 1.0280000000006961e+00 1.4206284967713711e+02 1.0000000000000000e+00 6.0761453533332395e+00 1.5826771223003192e+01 1.0100608068623862e+01 
53 1 2 1.0279999999990668e+00 2.2106823219873739e+01 1.0000000000000000e+00 5.3596219993641094e+00 1.6317209760100813e+01 1.0653602228422274e+01 
106 1 2 1.0279999999973566e+00 6.7046337371737351e+01 1.0000000000000000e+00 5.5597855507511600e+00 1.6550472182369713e+01 1.0778319952512637e+01 
35 1 2 1.0280000000008818e+00 -4.7670625257065026e+01 1.0000000000000000e+00 3.0812076671398612e+00 1.8819000574103605e+01 1.2249559670497332e+01 
165 1 2 1.0279999999973730e+00 6.2131680521477875e+01 1.0000000000000000e+00 3.0372595146521464e+00 1.8829914260102580e+01 1.2282940252231626e+01 
133 1 2 1.0279999999998453e+00 -6.7100256631744202e+01 1.0000000000000000e+00 3.1134146910592309e+00 1.8924974241588654e+01 1.2386273364288444e+01 
159 1 2 1.0279999999995397e+00 -5.0132891069302275e+01 1.0000000000000000e+00 5.2201324950540959e+00 1.6667989520879143e+01 1.1025895166453783e+01 
48 1 2 1.0279999999992480e+00 7.5762103210768387e+01 1.0000000000000000e+00 5.0850768489233271e+00 1.6852657445290554e+01 1.1313784748909592e+01 
11 1 2 1.0279999999986995e+00 -3.4756802107098181e+01 1.0000000000000000e+00 3.6213766659874747e+00 1.8373581935753212e+01 1.1793283253632568e+01 
54 1 2 1.0280000000013136e+00 3.5522160182210243e+01 1.0000000000000000e+00 4.3229035401815628e+00 1.7626933507858840e+01 1.1599344904417855e+01 
15 1 2 1.0279999999988800e+00 -2.6973339339441850e+01 1.0000000000000000e+00 4.0229819396824844e+00 1.8035156924369975e+01 1.1673293151092013e+01 
97 1 2 1.0280000000008254e+00 -4.4828929327329014e+01 1.0000000000000000e+00 3.8697556536871649e+00 1.8205589731443535e+01 1.1725133142548193e+01 
167 1 2 1.0279999999985943e+00 -7.1970955833954662e+01 1.0000000000000000e+00 3.7802897638031228e+00 1.8267723326978818e+01 1.1744556430565570e+01 
88 1 2 1.0280000000001579e+00 1.7167128130303561e+02 1.0000000000000000e+00 3.7589504293926281e+00 1.8301728855713311e+01 1.1761520764854760e+01 
39 1 2 1.0279999999998015e+00 1.9032240391814078e+01 1.0000000000000000e+00 2.5880017405834446e+00 1.8344275230129149e+01 1.4017679116573856e+01 
153 1 2 1.0279999999981622e+00 -1.4689388726415376e+02 1.0000000000000000e+00 2.4988299761240222e+00 1.8768099891196712e+01 1.3592207999608668e+01 
132 1 2 1.0279999999992770e+00 -2.2093503185162683e+02 1.0000000000000000e+00 3.1763408120038359e+00 1.7542151768151871e+01 1.3882705738475996e+01 
119 1 2 1.0280000000004765e+00 1.2301229963238394e+02 1.0000000000000000e+00 3.0842489580090708e+00 1.7607924886586350e+01 1.3945561834926428e+01 
109 1 2 1.0280000000008538e+00 -1.0814959563751486e+02 1.0000000000000000e+00 2.5519959928034148e+00 1.7958258484698138e+01 1.3971608200949236e+01 
91 1 2 1.0280000000012559e+00 8.6058888596427735e+01 1.0000000000000000e+00 2.6382301422410266e+00 1.7999815478601754e+01 1.4042980139899203e+01 
57 1 2 1.0280000000005050e+00 6.4122766099006071e+01 1.0000000000000000e+00 2.8495838200321471e+00 1.8025902115967320e+01 1.4127645715483297e+01 
67 1 2 1.0280000000005993e+00 1.0001484732929083e+02 1.0000000000000000e+00 2.7060336996673047e+00 1.8123306158304015e+01 1.4097201070694602e+01 
101 1 2 1.0279999999995986e+00 1.0497953804057714e+02 1.0000000000000000e+00 2.5513884840123189e+00 1.8125075723037178e+01 1.4010417509344556e+01 
102 1 2 1.0280000000003211e+00 -1.4281052190975566e+02 1.0000000000000000e+00 2.9801249278069797e+00 1.8220040748955331e+01 1.4153937749016071e+01 
46 1 2 1.0280000000015510e+00 1.2054532854427592e+01 1.0000000000000000e+00 2.6932364754085918e+00 1.8251637818651545e+01 1.4090121852431260e+01 
112 1 2 1.0279999999999523e+00 8.5550028783043786e+00 1.0000000000000000e+00 1.3136002607117719e+01 3.4561495624633816e+00 5.2376726985207487e+00 
44 1 2 1.0280000000005376e+00 5.8478653700473998e+01 1.0000000000000000e+00 1.2986024738662621e+01 4.0163704456606490e+00 5.3397904594939538e+00 
5 1 2 1.0279999999996550e+00 -8.9310627645810115e+01 1.0000000000000000e+00 1.2900298157544357e+01 4.1733881207802552e+00 5.4421047447172350e+00 
34 1 2 1.0280000000012257e+00 3.9671679536674972e+01 1.0000000000000000e+00 1.2907880984198869e+01 4.2199304814702465e+00 5.4400675120540338e+00 
84 1 2 1.0280000000005440e+00 -8.8021887753344146e+00 1.0000000000000000e+00 1.2243963209616577e+01 5.3966006355649734e+00 6.4335122681272123e+00 
170 1 2 1.0279999999998106e+00 -1.0854168222526923e+02 1.0000000000000000e+00 1.3146730747636395e+01 2.8253205988905417e+00 7.6775154423824672e+00 
61 1 2 1.0279999999988212e+00 -1.4411580207048658e+01 1.0000000000000000e+00 1.3020673400901776e+01 2.9296020498605775e+00 7.6250229809415924e+00 
123 1 2 1.0279999999983824e+00 1.2176776187338427e+02 1.0000000000000000e+00 1.3059739540704754e+01 2.9524163187090324e+00 7.6775482471064116e+00 
24 1 2 1.0280000000000244e+00 -1.3779146865919398e+02 1.0000000000000000e+00 1.3211733925483529e+01 2.6438036522786525e+00 7.6120466067183798e+00 
105 1 2 1.0279999999999274e+00 5.3201493929557788e+00 1.0000000000000000e+00 1.3235743978010643e+01 2.4788888640395599e+00 7.4969584015617228e+00 
110 1 2 1.0279999999979814e+00 1.8544005315626979e+01 1.0000000000000000e+00 1.2817625021540762e+01 3.6175787974551668e+00 7.8028818726105449e+00 
177 1 2 1.0279999999990557e+00 -1.3721936427418183e+02 1.0000000000000000e+00 1.1675423822290774e+01 5.8318333827167326e+00 8.6803269352255761e+00 
45 1 2 1.0279999999984593e+00 2.9915568556832022e+02 1.0000000000000000e+00 1.3107325721267046e+01 5.0943858573546015e+00 8.5775871053401733e+00 
75 1 2 1.0279999999999090e+00 1.3890297807672769e+02 1.0000000000000000e+00 1.1514780312834967e+01 6.1053002315655309e+00 8.8878136317021763e+00 
1 1 2 1.0279999999996590e+00 -2.1380972758542282e+02 1.0000000000000000e+00 1.1516752701265686e+01 6.2192451747526309e+00 9.0138264527090666e+00 
118 1 2 1.0280000000001088e+00 3.3875008789987021e+01 1.0000000000000000e+00 1.0998126839224973e+01 6.2588722038948612e+00 8.0877871183034351e+00 
135 1 2 1.0280000000009755e+00 1.3214179473145290e+01 1.0000000000000000e+00 1.1676388233486396e+01 6.5711182680239233e+00 6.7490981651542112e+00 
96 1 2 1.0279999999983551e+00 -1.4755188398106907e+02 1.0000000000000000e+00 9.4683471151582985e+00 9.1250500053691308e+00 9.2204422640429726e+00 
12 1 2 1.0279999999981877e+00 -1.0458405153375085e+02 1.0000000000000000e+00 9.1334096985204809e+00 9.8801412075932582e+00 9.3714749999159448e+00 
124 1 2 1.0279999999996254e+00 6.0466631553666872e+01 1.0000000000000000e+00 9.0968171015662698e+00 9.9760429729210198e+00 9.3546267264131657e+00 
31 1 2 1.0280000000007901e+00 -6.2647282670241580e+01 1.0000000000000000e+00 1.1009830078415044e+01 6.7562334758828992e+00 7.2715845891917938e+00 
179 1 2 1.0280000000018064e+00 -1.3340569904259672e+02 1.0000000000000000e+00 1.1370309202816246e+01 9.8017463977782224e+00 7.6951818598209458e+00 
17 1 2 1.0280000000006995e+00 2.5580293240042931e+01 1.0000000000000000e+00 1.1432907821131581e+01 9.7458779490502359e+00 7.6682154093052555e+00 
83 1 2 1.0279999999996945e+00 1.5047797164777137e+02 1.0000000000000000e+00 1.2289331785078053e+01 8.4221095971300652e+00 6.9565352487084455e+00 
113 1 2 1.0279999999989520e+00 -1.4499332896968036e+02 1.0000000000000000e+00 1.1605943988978895e+01 8.8920975809302174e+00 9.7745534024250240e+00 
2 1 2 1.0279999999998477e+00 -1.2173358538769631e+02 1.0000000000000000e+00 1.2677712237949715e+01 8.4481021025459189e+00 7.1632543017268260e+00 
42 1 2 1.0279999999995975e+00 -7.6433077769683990e+01 1.0000000000000000e+00 1.1339239333991765e+01 9.1749530641543355e+00 9.8689281320861308e+00 
37 1 2 1.0280000000002341e+00 -2.3023139338268635e+01 1.0000000000000000e+00 1.1963432758845844e+01 9.2393209488716064e+00 7.4422684449535037e+00 
23 1 2 1.0279999999999072e+00 -3.3770252559981685e+01 1.0000000000000000e+00 1.2343617256632360e+01 8.8905255096866860e+00 7.3360709946316316e+00 
90 1 2 1.0279999999984777e+00 6.1688757325815821e+01 1.0000000000000000e+00 1.1153903259000277e+01 7.9147422176296391e+00 9.7669002090289592e+00 
154 1 2 1.0279999999984915e+00 4.6920083717340908e+01 1.0000000000000000e+00 1.0124151211259042e+01 7.9290718170307368e+00 7.9996880678816780e+00 
149 1 2 1.0279999999992497e+00 -2.1659822851602638e+02 1.0000000000000000e+00 1.2224898537410548e+01 8.8609582961938926e+00 7.2364064062965801e+00 
25 1 2 1.0279999999990761e+00 -2.3613595514803592e+01 1.0000000000000000e+00 1.1255574444853639e+01 9.3531037414376694e+00 9.8911703599609790e+00 
38 1 2 1.0279999999989995e+00 -2.6607443320072584e+01 1.0000000000000000e+00 1.0316905915688375e+01 7.4137526706439694e+00 7.9832851861565652e+00 
157 1 2 1.0280000000000757e+00 6.4717958311022542e+01 1.0000000000000000e+00 1.1489436638344570e+01 9.0635593057384245e+00 9.8084692719833093e+00 
66 1 2 1.0280000000004879e+00 -7.5969269290101010e+01 1.0000000000000000e+00 1.3135752283035732e+01 7.0028304705550326e+00 9.2228482589843157e+00 
60 1 2 1.0279999999989520e+00 -3.3497202774800797e+01 1.0000000000000000e+00 1.3068037437159562e+01 8.0959472785563964e+00 7.1898964025648615e+00 
151 1 2 1.0280000000001119e+00 -2.0990151495543643e+01 1.0000000000000000e+00 1.3135985627479116e+01 7.0008695086346719e+00 9.2226125898474791e+00 
122 1 2 1.0279999999993314e+00 -8.8696378254664921e+01 1.0000000000000000e+00 1.0459897830852691e+01 7.2842089285799512e+00 7.7507891020614634e+00 
76 1 2 1.0279999999998926e+00 1.9048566500471534e+01 1.0000000000000000e+00 1.0857141423867546e+01 6.6745151158582532e+00 8.8557324313441779e+00 
3 1 2 1.0279999999997156e+00 8.8970752352309574e+01 1.0000000000000000e+00 1.0624260299499459e+01 7.1097363648617105e+00 7.5795581244833325e+00 
14 1 2 1.0280000000000908e+00 -1.1485900592122557e+02 1.0000000000000000e+00 9.4500988076837338e+00 1.1466991506328220e+01 9.2292422431972998e+00 
9 1 2 1.0279999999989851e+00 1.5938062478819839e+02 1.0000000000000000e+00 8.2346796564111759e+00 1.3199462530679440e+01 9.8030336359475214e+00 
59 1 2 1.0280000000002785e+00 1.4042189346504228e+01 1.0000000000000000e+00 9.3432988089685338e+00 1.1459019220021684e+01 9.2400278011001316e+00 
150 1 2 1.0279999999990561e+00 -6.1600924584738785e+01 1.0000000000000000e+00 8.8001095633384239e+00 1.1269550231295542e+01 9.6634052592663657e+00 
180 1 2 1.0280000000005403e+00 6.1737057605082271e+01 1.0000000000000000e+00 9.6760685035484109e+00 1.1248011803501209e+01 8.9400938832177630e+00 
142 1 2 1.0279999999999820e+00 -1.4493663821351822e+02 1.0000000000000000e+00 8.9411551439896311e+00 1.0515062853094149e+01 9.4132230501292948e+00 
21 1 2 1.0280000000004368e+00 -4.5189410767777048e+01 1.0000000000000000e+00 7.0624388205200894e+00 1.3246572258332817e+01 9.9788248853052437e+00 
32 1 2 1.0280000000016487e+00 -1.9053345653026517e+02 1.0000000000000000e+00 1.1166346176197456e+01 1.0108298030743818e+01 7.9121693053286588e+00 
68 1 2 1.0280000000013665e+00 -1.1023790120812293e+02 1.0000000000000000e+00 1.0289010503605054e+01 1.0990611419803500e+01 8.6609212114967615e+00 
163 1 2 1.0280000000024023e+00 5.1814922099393712e+01 1.0000000000000000e+00 1.0611744888195654e+01 1.0524918956537483e+01 8.1672067785618481e+00 
92 1 2 1.0279999999985387e+00 5.3424838443571176e+01 1.0000000000000000e+00 8.2168338692439225e+00 1.3525458931115843e+01 9.7968653420378988e+00 
134 1 2 1.0279999999989162e+00 -4.2985961585229234e+01 1.0000000000000000e+00 7.3917227506209180e+00 1.4467626858892331e+01 9.6713794747825439e+00 
73 1 2 1.0279999999987373e+00 8.1971321047560195e+01 1.0000000000000000e+00 7.1488923584243880e+00 1.5032050011813309e+01 9.7386107454133430e+00 
47 1 2 1.0280000000010840e+00 1.5229573395074382e+02 1.0000000000000000e+00 7.5227156330991871e+00 1.3088361090905932e+01 1.2547028179684284e+01 
173 1 2 1.0280000000000464e+00 3.9748996035551130e+01 1.0000000000000000e+00 8.3260550487640668e+00 1.2552705539899137e+01 1.1673703974759313e+01 
82 1 2 1.0280000000002141e+00 8.1278925868277483e+01 1.0000000000000000e+00 8.2996445847148763e+00 1.2551844782012846e+01 1.1686064622783885e+01 
104 1 2 1.0280000000006966e+00 1.0805991525960499e+02 1.0000000000000000e+00 7.7940700643574905e+00 1.2453490673990501e+01 1.1611917704320406e+01 
130 1 2 1.0279999999995868e+00 1.2707238144434660e+02 1.0000000000000000e+00 6.9316412325239014e+00 1.3275345913746573e+01 1.0025204592038611e+01 
13 1 2 1.0280000000015099e+00 -7.1052440260356406e+01 1.0000000000000000e+00 9.4185812493463263e+00 1.0728449505898919e+01 1.0296075602103008e+01 
70 1 2 1.0279999999998044e+00 7.1797811171273667e+00 1.0000000000000000e+00 9.7707706480071241e+00 1.1332816501062453e+01 1.0121284968519470e+01 
103 1 2 1.0280000000005887e+00 2.4612761979682517e+01 1.0000000000000000e+00 9.5983724506075934e+00 1.0042997456833247e+01 1.0176244782737029e+01 
50 1 2 1.0280000000004559e+00 1.8831969791773582e+00 1.0000000000000000e+00 1.0111843428762745e+01 1.0348978629621666e+01 1.0271815676551613e+01 
40 1 2 1.0279999999995346e+00 -8.3895332599560589e+01 1.0000000000000000e+00 6.7046386445186492e+00 1.3422109564472834e+01 1.0050122874780589e+01 
81 1 2 1.0280000000010321e+00 6.2616132620568592e+01 1.0000000000000000e+00 6.9857615130191135e+00 1.3556489181422908e+01 1.2848427402442395e+01 
20 1 2 1.0279999999997407e+00 -1.0704586398850958e+02 1.0000000000000000e+00 9.1187212684667625e+00 1.3727051559056433e+01 1.1556122654270716e+01 
178 1 2 1.0280000000002858e+00 -3.4762657911657669e+01 1.0000000000000000e+00 7.0577396735013691e+00 1.3930417190704269e+01 1.3015638061235220e+01 
33 1 2 1.0279999999988185e+00 -3.4798440972310161e+01 1.0000000000000000e+00 9.1555168883007507e+00 1.3885191913596580e+01 1.1378311211407185e+01 
43 1 2 1.0279999999987015e+00 -6.7548325141917559e+01 1.0000000000000000e+00 8.7126932191411246e+00 1.4806729827464391e+01 1.2230250619935623e+01 
4 1 2 1.0279999999995009e+00 -8.2267079962009660e+01 1.0000000000000000e+00 8.9648138695039208e+00 1.4761336615343048e+01 1.1643811786459391e+01 
176 1 2 1.0280000000012841e+00 5.2180319517883632e+01 1.0000000000000000e+00 8.9712209855636740e+00 1.4775336268449969e+01 1.1564051216285652e+01 
41 1 2 1.0279999999992466e+00 -5.0348782949998323e+01 1.0000000000000000e+00 7.8345388137039311e+00 1.5092978207661346e+01 1.2786088613470190e+01 
161 1 2 1.0280000000007297e+00 5.8814034229552476e+01 1.0000000000000000e+00 8.8380109889336786e+00 1.5072534429776875e+01 1.1419273137057676e+01 
136 1 2 1.0279999999987934e+00 -2.4047891689513747e+01 1.0000000000000000e+00 8.7964180710623143e+00 1.5126119176971070e+01 1.1229032299674408e+01 
80 1 2 1.0280000000007836e+00 2.1838308061350534e+02 1.0000000000000000e+00 7.8933510397680067e+00 1.5969613143283468e+01 1.1000306319442135e+01 
107 1 2 1.0279999999992195e+00 -1.3104172513392626e+02 1.0000000000000000e+00 7.1558608063386320e+00 1.6106016316387450e+01 1.0462907795038410e+01 
114 1 2 1.0279999999997331e+00 9.9938514239528260e+01 1.0000000000000000e+00 7.0006792665270874e+00 1.6382104109485894e+01 1.1587989357866975e+01 
145 1 2 1.0280000000009188e+00 -2.5142521248876825e+01 1.0000000000000000e+00 7.0839215717098654e+00 1.4966813933608904e+01 1.2982283979700620e+01 
7 1 2 1.0279999999996412e+00 -8.9965098722832579e+01 1.0000000000000000e+00 6.7638144328227323e+00 1.6433778251924814e+01 1.0849607483296525e+01 
63 1 2 1.0279999999999945e+00 1.2072411578485143e+01 1.0000000000000000e+00 1.6469691939444164e+01 3.6920362850061800e-01 1.8516061344426999e+00 
128 1 2 1.0279999999997955e+00 1.7441973722075608e+02 1.0000000000000000e+00 1.5481735877821112e+01 1.9027830757035249e+00 3.1873454629756721e+00 
175 1 2 1.0280000000006302e+00 -6.3030935170989430e+01 1.0000000000000000e+00 1.7432081005315421e+01 2.4637253027433914e-02 2.0526986321274072e+00 
116 1 2 1.0280000000005316e+00 -9.7557770294135395e+01 1.0000000000000000e+00 1.7771641114639962e+01 2.9403815711169590e-01 2.2648332895498329e+00 
30 1 2 1.0280000000007870e+00 -4.2839272479749525e+01 1.0000000000000000e+00 1.7432375777955215e+01 3.1193224975598038e-01 1.9350819424796748e+00 
127 1 2 1.0280000000004561e+00 -8.6251523308516227e+01 1.0000000000000000e+00 1.7601029677768850e+01 5.9031713711575073e-01 2.0311395071053160e+00 
144 1 2 1.0279999999998610e+00 8.2246042910507455e+01 1.0000000000000000e+00 1.7833998840962074e+01 5.9815192316781129e-01 2.3041019449801481e+00 
62 1 2 1.0280000000008307e+00 1.1240433688771718e+02 1.0000000000000000e+00 1.7693974924314421e+01 1.5885258971625413e+00 2.8915732462370802e+00 
64 1 2 1.0279999999999319e+00 9.8927256533468949e+01 1.0000000000000000e+00 1.5431540726286363e+01 2.0361727302202843e+00 3.3576501681906543e+00 
18 1 2 1.0280000000007448e+00 2.3447479926495610e+01 1.0000000000000000e+00 1.5141280591946364e+01 1.3785841520325941e+00 3.3707156227350192e+00 
172 1 2 1.0279999999984222e+00 -1.2395961097007662e+02 1.0000000000000000e+00 1.5261347149910979e+01 2.2364156862026627e+00 3.6828529371348009e+00 
171 1 2 1.0279999999998515e+00 7.4041941097094366e+01 1.0000000000000000e+00 1.5630220531811466e+01 1.7911179821048248e-01 4.7543118732071861e+00 
28 1 2 1.0279999999988945e+00 -5.3706586155680043e+01 1.0000000000000000e+00 1.5410432518953266e+01 2.1457230498307756e-01 4.2255485130932371e+00 
137 1 2 1.0279999999989726e+00 -3.0704588880066140e+01 1.0000000000000000e+00 1.5284325724484924e+01 4.4820479215135162e-01 4.7973878004763071e+00 
120 1 2 1.0280000000003990e+00 -3.4082952708178496e+01 1.0000000000000000e+00 1.4791751579702398e+01 9.0808890126125397e-01 5.6009994464578430e+00 
146 1 2 1.0280000000004959e+00 -1.4914010512938074e+02 1.0000000000000000e+00 1.4730421779066923e+01 2.7965450106882961e+00 4.2906578636571640e+00 
100 1 2 1.0280000000002232e+00 2.2275321441866581e+01 1.0000000000000000e+00 1.7334075874545491e+01 2.1472440727992677e+00 3.4522845310917689e+00 
36 1 2 1.0280000000005296e+00 -4.4386675155038219e+01 1.0000000000000000e+00 1.7153639514365295e+01 1.1590567531468245e+00 6.4744086822012665e+00 
166 1 2 1.0279999999999827e+00 3.8369712015373850e+01 1.0000000000000000e+00 1.7104983121929418e+01 1.2328918256756378e+00 6.6186003864192910e+00 
51 1 2 1.0280000000003564e+00 1.1177751967713286e+02 1.0000000000000000e+00 1.7614129190139266e+01 1.1846745713751416e+00 5.3473139575566275e+00 
22 1 2 1.0280000000011265e+00 4.6529678195692881e+01 1.0000000000000000e+00 1.7219978050461663e+01 1.4007383931473261e+00 6.5926241556536942e+00 
152 1 2 1.0279999999979026e+00 -2.9153855133007148e+01 1.0000000000000000e+00 1.7286745991830458e+01 1.6844742978218510e+00 6.6301132943476793e+00 
87 1 2 1.0280000000001104e+00 2.4357885782486915e+02 1.0000000000000000e+00 1.7712447018814011e+01 1.8322799001349781e+00 3.8567999566122055e+00 
71 1 2 1.0280000000010272e+00 1.0277322561823070e+01 1.0000000000000000e+00 1.7167313905866060e+01 2.4281911803816265e+00 3.9570261239449001e+00 
147 1 2 1.0280000000000800e+00 1.5590576517857471e+01 1.0000000000000000e+00 1.7170707347519219e+01 2.5614597606987850e+00 4.3955820228406211e+00 
131 1 2 1.0279999999989777e+00 -8.0361175792015274e+01 1.0000000000000000e+00 1.7038811426723836e+01 2.9602066181988227e+00 5.4089619209475011e+00 
138 1 2 1.0279999999997007e+00 7.9744742334017346e+01 1.0000000000000000e+00 1.6767660570166626e+01 3.2633603289899353e+00 5.7913706303519135e+00 
155 1 2 1.0280000000004006e+00 3.9962474437743474e+01 1.0000000000000000e+00 1.4311582770129387e+01 3.7242964286522002e+00 4.6542624666086336e+00 
141 1 2 1.0280000000004914e+00 -8.3988878646503466e+01 1.0000000000000000e+00 1.4662717883840848e+01 3.5819860997687734e+00 4.5704683781219790e+00 
58 1 2 1.0280000000003391e+00 1.6455219285380525e+02 1.0000000000000000e+00 1.6182584516450714e+01 3.7858162298529154e+00 6.0524704224169064e+00 
55 1 2 1.0280000000002052e+00 -8.4202863804721233e+01 1.0000000000000000e+00 1.4553431004796911e+01 4.8671409788716984e+00 5.3727812783545916e+00 
93 1 2 1.0280000000010181e+00 1.3000951088442204e+02 1.0000000000000000e+00 1.3466591496686336e+01 4.7405568581115514e+00 5.2268679946815304e+00 
78 1 2 1.0279999999997433e+00 4.1989761319826677e+01 1.0000000000000000e+00 1.3760756671499500e+01 5.2620164266878904e+00 5.4958297664686775e+00 
143 1 2 1.0280000000006058e+00 -6.4240895123542487e+01 1.0000000000000000e+00 1.3453688668248100e+01 4.1294142625939552e+00 5.0110933438815231e+00 
52 1 2 1.0279999999996907e+00 8.1497751738428690e+01 1.0000000000000000e+00 1.4041060607107116e+01 5.8077772850218530e+00 6.0507024305959609e+00 
10 1 2 1.0280000000002518e+00 2.1906978825149145e+02 1.0000000000000000e+00 1.6172580031116489e+01 7.8531502240518036e-01 6.7288582066523528e+00 
16 1 2 1.0279999999993437e+00 1.0107935596614917e+02 1.0000000000000000e+00 1.3779596385448299e+01 1.6509637269078801e+00 6.7354270873643882e+00 
6 1 2 1.0280000000002505e+00 -1.5057064464761351e+02 1.0000000000000000e+00 1.6368396180304071e+01 8.3425503550861324e-01 6.7450549001074194e+00 
156 1 2 1.0279999999995528e+00 -1.4693143258884174e+02 1.0000000000000000e+00 1.3996123303089252e+01 1.5027094407097301e+00 6.7467614781641734e+00 
129 1 2 1.0280000000002316e+00 1.1126582214354764e+02 1.0000000000000000e+00 1.4110351733627857e+01 1.5726338195754412e+00 7.1455197243077562e+00 
27 1 2 1.0280000000003868e+00 -6.7414365548627416e+01 1.0000000000000000e+00 1.5683699061353813e+01 1.7782589032981870e+00 7.6375009214437863e+00 
56 1 2 1.0279999999998810e+00 4.7049113684869670e-01 1.0000000000000000e+00 1.6374520266194768e+01 1.8194946177064757e+00 7.4436625432467523e+00 
168 1 2 1.0280000000000447e+00 2.3454354581009295e+02 1.0000000000000000e+00 1.3421205399088945e+01 2.2261445067491739e+00 7.4268710587188647e+00 
115 1 2 1.0279999999996559e+00 -1.3460784001668381e+02 1.0000000000000000e+00 1.3474172658454391e+01 2.6842134090617953e+00 7.8158663423694970e+00 
29 1 2 1.0280000000001770e+00 1.2669768497929672e+02 1.0000000000000000e+00 1.6318700885763764e+01 3.2339379394818710e+00 7.0567828953771050e+00 
65 1 2 1.0280000000013971e+00 2.5771115073827119e+01 1.0000000000000000e+00 1.7002905047895872e+01 2.3940167546295528e+00 6.9351662207932643e+00 
125 1 2 1.0279999999997078e+00 -2.2786981080359816e+01 1.0000000000000000e+00 1.6816605767494917e+01 1.3463006254252516e+00 6.9975732048440493e+00 
164 1 2 1.0279999999996012e+00 1.2082368361119904e+02 1.0000000000000000e+00 1.5450176384946120e+01 4.0310204268685439e+00 7.3319877482740781e+00 
77 1 2 1.0279999999995713e+00 1.4183223310073885e+00 1.0000000000000000e+00 1.5422542380615550e+01 4.3204946493546874e+00 7.1112580879379657e+00 
162 1 2 1.0279999999986080e+00 1.0490892916663650e+01 1.0000000000000000e+00 1.5243181917922600e+01 4.5038409208433521e+00 7.2250670605251424e+00 
158 1 2 1.0280000000008853e+00 5.8560830192391535e+01 1.0000000000000000e+00 1.4554134222309411e+01 5.7993302774914168e+00 7.3329604257810903e+00 
121 1 2 1.0279999999998433e+00 -4.8632593349654030e+01 1.0000000000000000e+00 1.3893745113182732e+01 6.1846435863233102e+00 8.4801372742621393e+00 
108 1 2 1.0280000000004967e+00 -7.1536653866714261e+01 1.0000000000000000e+00 1.4245722338886834e+01 6.2980623270324729e+00 6.9558239423926729e+00 
126 1 2 1.0280000000004494e+00 -8.3122090887212039e+00 1.0000000000000000e+00 1.3711540258546723e+01 6.4777894902759972e+00 8.6904374569998293e+00 
148 1 2 1.0280000000007019e+00 -9.5251336966659693e+01 1.0000000000000000e+00 1.4160755613682372e+01 6.4464673310894023e+00 7.0039489090593410e+00 
169 1 2 1.0280000000002749e+00 -1.1072573594652974e+02 1.0000000000000000e+00 1.4101771442307969e+01 6.7065830356769807e+00 7.3798674412979643e+00 
140 1 2 1.0280000000005562e+00 3.0965901225145211e+00 1.0000000000000000e+00 1.3338798795552350e+01 7.0839465536416153e+00 9.0573556851573436e+00 
72 1 2 1.0280000000004614e+00 -1.5831378163316305e+02 1.0000000000000000e+00 1.3340818697771541e+01 6.9217382532498437e+00 9.0621475870366783e+00 
95 1 2 1.0279999999979124e+00 3.1131537054319402e+01 1.0000000000000000e+00 1.5774600130460785e+01 1.9763990138836931e+01 3.1275769590204958e+00 
111 1 2 1.0280000000013227e+00 3.7241385209224118e+00 1.0000000000000000e+00 1.6041893346419567e+01 1.9771848332621005e+01 2.4796554151687031e+00 
19 1 2 1.0280000000006650e+00 -2.3760018995216791e+02 1.0000000000000000e+00 1.6044066003225183e+01 1.9982398045590081e+01 2.2507169656325465e+00 
117 1 2 1.0280000000015095e+00 -3.3601823815902465e+00 1.0000000000000000e+00 1.7372861231374621e+01 1.9697582965558414e+01 2.3610268120087885e+00 
99 1 2 1.0280000000005831e+00 1.5170850020425667e+02 1.0000000000000000e+00 1.7491653901561509e+01 1.9833023706498583e+01 2.2833946686945437e+00 
85 1 2 1.0279999999989053e+00 8.9780962615718920e+01 1.0000000000000000e+00 1.7626029018054933e+01 1.9963367333306838e+01 2.2992578444749290e+00 
160 1 2 1.0280000000012959e+00 -6.6926699516908315e+01 1.0000000000000000e+00 1.5670256294486538e+01 1.9871605618398529e+01 3.6877211519396931e+00 
69 1 2 1.0279999999990828e+00 -1.0130721816110159e+02 1.0000000000000000e+00 1.7229613540979184e+01 1.9683294919251537e+01 3.7054979479383299e+00 

Velocities

8 3.4335056787532199e-09 3.9412391455482038e-09 -3.3294488906639205e-09
86 3.5638820578926432e-09 4.1069697106740481e-09 -3.5066982498216240e-09
79 3.7929148618407197e-09 4.3548958410454496e-09 -3.6694588639461968e-09
174 3.6431448999114249e-09 4.2353021730254648e-09 -3.5360670763354000e-09
89 3.6140778238988436e-09 4.1972794262860132e-09 -3.4851923931336262e-09
94 3.6318446570576721e-09 4.2191285321500173e-09 -3.5092468860850936e-09
74 3.9028801751485928e-09 4.4376555277937227e-09 -3.7361825894589387e-09
49 3.9184270961689845e-09 4.4447757317014802e-09 -3.7364032830520774e-09
139 4.0239539679646287e-09 4.5231789965349778e-09 -3.8107480680130185e-09
98 4.3951716309180508e-09 4.9099399800442625e-09 -4.1862040076326039e-09
26 3.9183516047841466e-09 4.4164655754564130e-09 -3.7458264846659982e-09
53 4.1860757219435436e-09 4.6695052796059655e-09 -3.9578575991843311e-09
106 4.1921049298149658e-09 4.6643032726748829e-09 -3.9736820680987103e-09
35 5.1250363000385280e-09 5.8738752319883284e-09 -4.8280689696100840e-09
165 5.1320521876539556e-09 5.8836546348331628e-09 -4.8356782967563182e-09
133 5.1236845642988712e-09 5.8865733550331993e-09 -4.8526550421299139e-09
159 4.3217221009341711e-09 4.8104175857878787e-09 -4.0972072808482336e-09
48 4.4125461792347520e-09 5.0188480393817601e-09 -4.2606686234563849e-09
11 4.9972951514420188e-09 5.7895903593979705e-09 -4.7886731718790727e-09
54 4.8477688586591282e-09 5.5235444840547710e-09 -4.7260114125101265e-09
15 4.9243570777557266e-09 5.6773271475957973e-09 -4.7545750706231128e-09
97 4.9548922070850790e-09 5.7288113469676276e-09 -4.7632480405309259e-09
167 4.9711801826830829e-09 5.7587982462665276e-09 -4.7841745539999719e-09
88 4.9760975453425917e-09 5.7614548294813842e-09 -4.7775579600206863e-09
39 5.0970184065934014e-09 6.1171413867068368e-09 -4.8004969985948389e-09
153 5.1446251089401055e-09 6.1012192888437852e-09 -4.9063512162376221e-09
132 5.1691226697422676e-09 5.8506836208769962e-09 -4.7185116662172190e-09
119 5.1581844506273659e-09 5.8966130414919342e-09 -4.7333047427520338e-09
109 5.0441452373639223e-09 6.0177261549030147e-09 -4.7594431557946190e-09
91 5.0648790886938329e-09 6.0283252040918910e-09 -4.7301514101089704e-09
57 5.1308590207233198e-09 6.0384116099032550e-09 -4.7160500910970775e-09
67 5.1007935113913226e-09 6.0701689049838658e-09 -4.7437127975019588e-09
101 5.0561995152588426e-09 6.0703678882331107e-09 -4.7615148242787121e-09
102 5.1657481463014262e-09 6.0871425430188447e-09 -4.7619736727131428e-09
46 5.1046440761819877e-09 6.1029099066036173e-09 -4.7588734470015282e-09
112 -2.8646734514807667e-09 -3.1957614728460434e-09 2.7284862281387281e-09
44 -2.7464698609223326e-09 -3.0845647490328983e-09 2.6366364228689547e-09
5 -2.6945518280041464e-09 -3.0384355251149296e-09 2.6001709572459889e-09
34 -2.6907013190937313e-09 -3.0305088235529068e-09 2.5890621515873551e-09
84 -2.1736274396897972e-09 -2.3955919283451794e-09 1.9716629557213443e-09
170 -2.6869483568216688e-09 -2.9872607591941759e-09 2.5509843760128595e-09
61 -2.6347171234072580e-09 -2.9649157954400172e-09 2.5317382975199455e-09
123 -2.6315713308359452e-09 -2.9600470319550990e-09 2.5100359653576790e-09
24 -2.7625197422324672e-09 -3.0345676408629020e-09 2.6313576356572990e-09