LAMMPS data file via write_data, version 30 Jul 2016, timestep = 50000000

180 atoms
2 atom types

0.0000000000000000e+00 2.0000000000000000e+01 xlo xhi
0.0000000000000000e+00 2.0000000000000000e+01 ylo yhi
0.0000000000000000e+00 2.0000000000000000e+01 zlo zhi

Masses

1 3.896
2 4.31

Atoms # meso-molecular

8 1 2 1.0280000000011822e+00 9.4246295674551178e+01 1.0000000000000000e+00 6.5605060837262306e+00 1.3210213698217963e+01 1.2351836531991138e+01 
86 1 2 1.0280000000008054e+00 3.8680823506241694e+01 1.0000000000000000e+00 5.9380269269590098e+00 1.3751738866347452e+01 1.0406725008648884e+01 
79 1 2 1.0279999999986835e+00 1.1115668889393413e+02 1.0000000000000000e+00 5.2657147042977703e+00 1.4298764450836906e+01 1.1214368619222361e+01 
174 1 2 1.0280000000003633e+00 -8.4048902804601568e+01 1.0000000000000000e+00 6.0960117352747485e+00 1.4308308963896195e+01 1.2740069589071444e+01 
89 1 2 1.0279999999988494e+00 -4.8028005775086086e+01 1.0000000000000000e+00 6.4843803019442445e+00 1.4324933349143040e+01 1.2940776049869182e+01 
94 1 2 1.0279999999983847e+00 1.5262784480518110e+02 1.0000000000000000e+00 6.3618399654740019e+00 1.4401931487904246e+01 1.2897840419966517e+01 
74 1 2 1.0279999999991174e+00 -2.3808530258568652e+01 1.0000000000000000e+00 5.1219327785311846e+00 1.4687353497649854e+01 1.1087415865076728e+01 
49 1 2 1.0280000000002016e+00 -2.7330738000282068e+01 1.0000000000000000e+00 5.1377431706739856e+00 1.4785278270842788e+01 1.0881457488086632e+01 
139 1 2 1.0279999999995129e+00 -4.1635562561371870e+01 1.0000000000000000e+00 5.0090622936958029e+00 1.5023651619060743e+01 1.1177202561529441e+01 
98 1 2 1.0279999999986531e+00 1.4779056073911551e+02 1.0000000000000000e+00 4.7782381264290548e+00 1.6171947904041456e+01 1.1682555340348692e+01 
26 1 2 1.0279999999997673e+00 1.4206284967713711e+02 1.0000000000000000e+00 6.0761451876906332e+00 1.5826771036216716e+01 1.0100608226907029e+01 
53 1 2 1.0279999999987974e+00 2.2106823219873739e+01 1.0000000000000000e+00 5.3596218220204515e+00 1.6317209563255556e+01 1.0653602395103444e+01 
106 1 2 1.0280000000002820e+00 6.7046337371737351e+01 1.0000000000000000e+00 5.5597853736435976e+00 1.6550471984805895e+01 1.0778320120916243e+01 
35 1 2 1.0279999999987224e+00 -4.7670625257065026e+01 1.0000000000000000e+00 3.0812074506934231e+00 1.8819000325445089e+01 1.2249559875018191e+01 
165 1 2 1.0280000000007889e+00 6.2131680521477875e+01 1.0000000000000000e+00 3.0372592978781783e+00 1.8829914011065956e+01 1.2282940456942452e+01 
133 1 2 1.0280000000013167e+00 -6.7100256631744202e+01 1.0000000000000000e+00 3.1134144744464858e+00 1.8924973993006038e+01 1.2386273569381652e+01 
159 1 2 1.0279999999984970e+00 -5.0132891069302275e+01 1.0000000000000000e+00 5.2201323123997021e+00 1.6667989317435108e+01 1.1025895339775449e+01 
48 1 2 1.0280000000018805e+00 7.5762103210768387e+01 1.0000000000000000e+00 5.0850766623673369e+00 1.6852657233788207e+01 1.1313784928761681e+01 
11 1 2 1.0279999999981215e+00 -3.4756802107098181e+01 1.0000000000000000e+00 3.6213764547009810e+00 1.8373581691388502e+01 1.1793283455768407e+01 
54 1 2 1.0280000000007643e+00 3.5522160182210243e+01 1.0000000000000000e+00 4.3229033352143738e+00 1.7626933274389444e+01 1.1599345104358543e+01 
15 1 2 1.0280000000011376e+00 -2.6973339339441850e+01 1.0000000000000000e+00 4.0229817314747436e+00 1.8035156684393439e+01 1.1673293352202368e+01 
97 1 2 1.0280000000006948e+00 -4.4828929327329014e+01 1.0000000000000000e+00 3.8697554441858260e+00 1.8205589489274562e+01 1.1725133344074466e+01 
167 1 2 1.0279999999988703e+00 -7.1970955833954662e+01 1.0000000000000000e+00 3.7802895537003240e+00 1.8267723084039407e+01 1.1744556632341821e+01 
88 1 2 1.0279999999996283e+00 1.7167128130303561e+02 1.0000000000000000e+00 3.7589502190365476e+00 1.8301728612475475e+01 1.1761520966708444e+01 
39 1 2 1.0280000000013507e+00 1.9032240391814078e+01 1.0000000000000000e+00 2.5880015251872686e+00 1.8344274971615935e+01 1.4017679319445183e+01 
153 1 2 1.0279999999997376e+00 -1.4689388726415376e+02 1.0000000000000000e+00 2.4988297585580090e+00 1.8768099633547269e+01 1.3592208207047703e+01 
132 1 2 1.0280000000008493e+00 -2.2093503185162683e+02 1.0000000000000000e+00 3.1763405936600013e+00 1.7542151520297750e+01 1.3882705938557578e+01 
119 1 2 1.0280000000000298e+00 1.2301229963238394e+02 1.0000000000000000e+00 3.0842487399924243e+00 1.7607924637634955e+01 1.3945562034830319e+01 
109 1 2 1.0280000000005929e+00 -1.0814959563751486e+02 1.0000000000000000e+00 2.5519957796047406e+00 1.7958258230385614e+01 1.3971608402154496e+01 
91 1 2 1.0280000000010470e+00 8.6058888596427735e+01 1.0000000000000000e+00 2.6382299278749808e+00 1.7999815223649605e+01 1.4042980340332761e+01 
57 1 2 1.0280000000010607e+00 6.4122766099006071e+01 1.0000000000000000e+00 2.8495836031111024e+00 1.8025901860672491e+01 1.4127645915277178e+01 
67 1 2 1.0280000000003762e+00 1.0001484732929083e+02 1.0000000000000000e+00 2.7060334840682052e+00 1.8123305901738235e+01 1.4097201271273166e+01 
101 1 2 1.0280000000022045e+00 1.0497953804057714e+02 1.0000000000000000e+00 2.5513882700861652e+00 1.8125075466447019e+01 1.4010417710882784e+01 
102 1 2 1.0280000000011849e+00 -1.4281052190975566e+02 1.0000000000000000e+00 2.9801247094871752e+00 1.8220040491689968e+01 1.4153937950365698e+01 
46 1 2 1.0280000000012099e+00 1.2054532854427592e+01 1.0000000000000000e+00 2.6932362594786854e+00 1.8251637560767410e+01 1.4090122054013703e+01 
112 1 2 1.0280000000003120e+00 8.5550028783043786e+00 1.0000000000000000e+00 1.3136002727985968e+01 3.4561496975423052e+00 5.2376725829611006e+00 
44 1 2 1.0280000000005474e+00 5.8478653700473998e+01 1.0000000000000000e+00 1.2986024854712108e+01 4.0163705760671453e+00 5.3397903479518041e+00 
5 1 2 1.0280000000006284e+00 -8.9310627645810115e+01 1.0000000000000000e+00 1.2900298271597897e+01 4.1733882492224348e+00 5.4421046348729405e+00 
34 1 2 1.0280000000003524e+00 3.9671679536674972e+01 1.0000000000000000e+00 1.2907881097994650e+01 4.2199306095812741e+00 5.4400674025771742e+00 
84 1 2 1.0280000000011846e+00 -8.8021887753344146e+00 1.0000000000000000e+00 1.2243963301442985e+01 5.3966007367951550e+00 6.4335121846050356e+00 
170 1 2 1.0279999999991121e+00 -1.0854168222526923e+02 1.0000000000000000e+00 1.3146730861334049e+01 2.8253207252329120e+00 7.6775153342963707e+00 
61 1 2 1.0279999999989784e+00 -1.4411580207048658e+01 1.0000000000000000e+00 1.3020673512050640e+01 2.9296021750307841e+00 7.6250228740216706e+00 
123 1 2 1.0279999999991305e+00 1.2176776187338427e+02 1.0000000000000000e+00 1.3059739651876511e+01 2.9524164437655762e+00 7.6775481409781312e+00 
24 1 2 1.0279999999999287e+00 -1.3779146865919398e+02 1.0000000000000000e+00 1.3211734042081604e+01 2.6438037803803285e+00 7.6120464955766467e+00 
105 1 2 1.0280000000007985e+00 5.3201493929557788e+00 1.0000000000000000e+00 1.3235744096813917e+01 2.4788889937848793e+00 7.4969582877370016e+00 
110 1 2 1.0279999999977461e+00 1.8544005315626979e+01 1.0000000000000000e+00 1.2817625120637052e+01 3.6175789152178428e+00 7.8028817777778574e+00 
177 1 2 1.0279999999990301e+00 -1.3721936427418183e+02 1.0000000000000000e+00 1.1675423882906282e+01 5.8318334512534769e+00 8.6803268779136111e+00 
45 1 2 1.0279999999983127e+00 2.9915568556832022e+02 1.0000000000000000e+00 1.3107325806151147e+01 5.0943859521540951e+00 8.5775870331908362e+00 
75 1 2 1.0279999999990750e+00 1.3890297807672769e+02 1.0000000000000000e+00 1.1514780368768530e+01 6.1053002943610002e+00 8.8878135794751767e+00 
1 1 2 1.0279999999998439e+00 -2.1380972758542282e+02 1.0000000000000000e+00 1.1516752755786861e+01 6.2192452358350785e+00 9.0138264021855132e+00 
118 1 2 1.0279999999998930e+00 3.3875008789987021e+01 1.0000000000000000e+00 1.0998126892213492e+01 6.2588722645820063e+00 8.0877870652059869e+00 
135 1 2 1.0280000000005121e+00 1.3214179473145290e+01 1.0000000000000000e+00 1.1676388299946401e+01 6.5711183412047722e+00 6.7490981062609636e+00 
96 1 2 1.0279999999984446e+00 -1.4755188398106907e+02 1.0000000000000000e+00 9.4683471048611949e+00 9.1250500005142765e+00 9.2204422678303501e+00 
12 1 2 1.0279999999999032e+00 -1.0458405153375085e+02 1.0000000000000000e+00 9.1334096764528816e+00 9.8801411848991627e+00 9.3714750189850324e+00 
124 1 2 1.0280000000001943e+00 6.0466631553666872e+01 1.0000000000000000e+00 9.0968170780898383e+00 9.9760429481670112e+00 9.3546267471356437e+00 
31 1 2 1.0280000000003149e+00 -6.2647282670241580e+01 1.0000000000000000e+00 1.1009830131163639e+01 6.7562335361137054e+00 7.2715845369590859e+00 
179 1 2 1.0280000000020661e+00 -1.3340569904259672e+02 1.0000000000000000e+00 1.1370309216215070e+01 9.8017464139035564e+00 7.6951818516557724e+00 
17 1 2 1.0280000000009397e+00 2.5580293240042931e+01 1.0000000000000000e+00 1.1432907835884157e+01 9.7458779675529215e+00 7.6682153991585054e+00 
83 1 2 1.0279999999996452e+00 1.5047797164777137e+02 1.0000000000000000e+00 1.2289331829989701e+01 8.4221096518190812e+00 6.9565352039197546e+00 
113 1 2 1.0279999999991418e+00 -1.4499332896968036e+02 1.0000000000000000e+00 1.1605944010338639e+01 8.8920976056828014e+00 9.7745533867261294e+00 
2 1 2 1.0279999999990257e+00 -1.2173358538769631e+02 1.0000000000000000e+00 1.2677712285530092e+01 8.4481021591311620e+00 7.1632542558598100e+00 
42 1 2 1.0279999999995175e+00 -7.6433077769683990e+01 1.0000000000000000e+00 1.1339239348242234e+01 9.1749530813400835e+00 9.8689281229932906e+00 
37 1 2 1.0280000000002063e+00 -2.3023139338268635e+01 1.0000000000000000e+00 1.1963432787593014e+01 9.2393209866811681e+00 7.4422684176751552e+00 
23 1 2 1.0280000000001814e+00 -3.3770252559981685e+01 1.0000000000000000e+00 1.2343617294912983e+01 8.8905255578348559e+00 7.3360709575443357e+00 
90 1 2 1.0279999999992040e+00 6.1688757325815821e+01 1.0000000000000000e+00 1.1153903287692392e+01 7.9147422502693052e+00 9.7669001876739578e+00 
154 1 2 1.0279999999978915e+00 4.6920083717340908e+01 1.0000000000000000e+00 1.0124151231959441e+01 7.9290718508544433e+00 7.9996880360405385e+00 
149 1 2 1.0279999999991860e+00 -2.1659822851602638e+02 1.0000000000000000e+00 1.2224898575330336e+01 8.8609583441545201e+00 7.2364063692124851e+00 
25 1 2 1.0279999999993874e+00 -2.3613595514803592e+01 1.0000000000000000e+00 1.1255574455521433e+01 9.3531037548757681e+00 9.8911703532804207e+00 
38 1 2 1.0279999999995899e+00 -2.6607443320072584e+01 1.0000000000000000e+00 1.0316905945896192e+01 7.4137527121198659e+00 7.9832851475209479e+00 
157 1 2 1.0279999999995519e+00 6.4717958311022542e+01 1.0000000000000000e+00 1.1489436655952098e+01 9.0635593265775309e+00 9.8084692594772616e+00 
66 1 2 1.0280000000006990e+00 -7.5969269290101010e+01 1.0000000000000000e+00 1.3135752340755566e+01 7.0028305376202535e+00 9.2228481995442930e+00 
60 1 2 1.0279999999999518e+00 -3.3497202774800797e+01 1.0000000000000000e+00 1.3068037491511452e+01 8.0959473411696923e+00 7.1898963509404394e+00 
151 1 2 1.0280000000011662e+00 -2.0990151495543643e+01 1.0000000000000000e+00 1.3135985685220954e+01 7.0008695757300883e+00 9.2226125303804576e+00 
122 1 2 1.0279999999993565e+00 -8.8696378254664921e+01 1.0000000000000000e+00 1.0459897866252550e+01 7.2842089743826586e+00 7.7507890594390485e+00 
76 1 2 1.0279999999994291e+00 1.9048566500471534e+01 1.0000000000000000e+00 1.0857141467107136e+01 6.6745151658792343e+00 8.8557323891431619e+00 
3 1 2 1.0279999999992437e+00 8.8970752352309574e+01 1.0000000000000000e+00 1.0624260340506465e+01 7.1097364150791442e+00 7.5795580783628944e+00 
14 1 2 1.0280000000008971e+00 -1.1485900592122557e+02 1.0000000000000000e+00 9.4500987661905800e+00 1.1466991452875614e+01 9.2292422851952072e+00 
9 1 2 1.0279999999969225e+00 1.5938062478819839e+02 1.0000000000000000e+00 8.2346795403916353e+00 1.3199462393490320e+01 9.8030337412034925e+00 
59 1 2 1.0280000000013676e+00 1.4042189346504228e+01 1.0000000000000000e+00 9.3432987659361597e+00 1.1459019165374070e+01 9.2400278443095818e+00 
150 1 2 1.0279999999992697e+00 -6.1600924584738785e+01 1.0000000000000000e+00 8.8001095074571172e+00 1.1269550168331662e+01 9.6634053104912265e+00 
180 1 2 1.0280000000014118e+00 6.1737057605082271e+01 1.0000000000000000e+00 9.6760684729181623e+00 1.1248011759957729e+01 8.9400939173164780e+00 
142 1 2 1.0279999999997653e+00 -1.4493663821351822e+02 1.0000000000000000e+00 8.9411551104065445e+00 1.0515062814592222e+01 9.4132230818849933e+00 
21 1 2 1.0279999999993286e+00 -4.5189410767777048e+01 1.0000000000000000e+00 7.0624386855930643e+00 1.3246572104302023e+01 9.9788250184525182e+00 
32 1 2 1.0280000000028739e+00 -1.9053345653026517e+02 1.0000000000000000e+00 1.1166346181862819e+01 1.0108298034548998e+01 7.9121693055025135e+00 
68 1 2 1.0280000000022480e+00 -1.1023790120812293e+02 1.0000000000000000e+00 1.0289010485413247e+01 1.0990611390480174e+01 8.6609212330970315e+00 
163 1 2 1.0280000000022560e+00 5.1814922099393712e+01 1.0000000000000000e+00 1.0611744884637009e+01 1.0524918943493812e+01 8.1672067912782573e+00 
92 1 2 1.0279999999975249e+00 5.3424838443571176e+01 1.0000000000000000e+00 8.2168337469347659e+00 1.3525458787467729e+01 9.7968654552196348e+00 
134 1 2 1.0279999999995502e+00 -4.2985961585229234e+01 1.0000000000000000e+00 7.3917226043731921e+00 1.4467626692373054e+01 9.6713796141666855e+00 
73 1 2 1.0280000000001837e+00 8.1971321047560195e+01 1.0000000000000000e+00 7.1488922055283251e+00 1.5032049838412485e+01 9.7386108915312430e+00 
47 1 2 1.0280000000008838e+00 1.5229573395074382e+02 1.0000000000000000e+00 7.5227154896549351e+00 1.3088360931070101e+01 1.2547028313534634e+01 
173 1 2 1.0280000000005813e+00 3.9748996035551130e+01 1.0000000000000000e+00 8.3260549223754445e+00 1.2552705404001632e+01 1.1673704091529949e+01 
82 1 2 1.0280000000019229e+00 8.1278925868277483e+01 1.0000000000000000e+00 8.2996444580580437e+00 1.2551844645910556e+01 1.1686064739812673e+01 
104 1 2 1.0280000000015135e+00 1.0805991525960499e+02 1.0000000000000000e+00 7.7940699377880609e+00 1.2453490538121491e+01 1.1611917823998727e+01 
130 1 2 1.0280000000003435e+00 1.2707238144434660e+02 1.0000000000000000e+00 6.9316410958852774e+00 1.3275345757650387e+01 1.0025204727451921e+01 
13 1 2 1.0280000000003957e+00 -7.1052440260356406e+01 1.0000000000000000e+00 9.4185812103215074e+00 1.0728449460725434e+01 1.0296075639880391e+01 
70 1 2 1.0279999999992167e+00 7.1797811171273667e+00 1.0000000000000000e+00 9.7707706043758336e+00 1.1332816448101626e+01 1.0121285014377509e+01 
103 1 2 1.0280000000002354e+00 2.4612761979682517e+01 1.0000000000000000e+00 9.5983724269580755e+00 1.0042997430668812e+01 1.0176244806634099e+01 
50 1 2 1.0280000000001055e+00 1.8831969791773582e+00 1.0000000000000000e+00 1.0111843405802931e+01 1.0348978603801061e+01 1.0271815698367986e+01 
40 1 2 1.0279999999988003e+00 -8.3895332599560589e+01 1.0000000000000000e+00 6.7046385038590488e+00 1.3422109403464040e+01 1.0050123014149733e+01 
81 1 2 1.0280000000005836e+00 6.2616132620568592e+01 1.0000000000000000e+00 6.9857613651204993e+00 1.3556489012350877e+01 1.2848427541960165e+01 
20 1 2 1.0279999999979881e+00 -1.0704586398850958e+02 1.0000000000000000e+00 9.1187211394015844e+00 1.3727051404428618e+01 1.1556122786381968e+01 
178 1 2 1.0280000000005796e+00 -3.4762657911657669e+01 1.0000000000000000e+00 7.0577395235134794e+00 1.3930417018170081e+01 1.3015638202704389e+01 
33 1 2 1.0279999999994924e+00 -3.4798440972310161e+01 1.0000000000000000e+00 9.1555167602597702e+00 1.3885191758800477e+01 1.1378311343521416e+01 
43 1 2 1.0280000000000606e+00 -6.7548325141917559e+01 1.0000000000000000e+00 8.7126930736631572e+00 1.4806729659291985e+01 1.2230250765418706e+01 
4 1 2 1.0279999999999436e+00 -8.2267079962009660e+01 1.0000000000000000e+00 8.9648137290328371e+00 1.4761336450968923e+01 1.1643811929073156e+01 
176 1 2 1.0279999999986955e+00 5.2180319517883632e+01 1.0000000000000000e+00 8.9712208454799978e+00 1.4775336104469886e+01 1.1564051358501944e+01 
41 1 2 1.0279999999997496e+00 -5.0348782949998323e+01 1.0000000000000000e+00 7.8345386614484429e+00 1.5092978032980380e+01 1.2786088761576186e+01 
161 1 2 1.0279999999988831e+00 5.8814034229552476e+01 1.0000000000000000e+00 8.8380108463757878e+00 1.5072534264436326e+01 1.1419273280552060e+01 
136 1 2 1.0279999999991438e+00 -2.4047891689513747e+01 1.0000000000000000e+00 8.7964179284201673e+00 1.5126119011788584e+01 1.1229032442550229e+01 
80 1 2 1.0280000000003917e+00 2.1838308061350534e+02 1.0000000000000000e+00 7.8933508853809560e+00 1.5969612968796049e+01 1.1000306469770782e+01 
107 1 2 1.0280000000001235e+00 -1.3104172513392626e+02 1.0000000000000000e+00 7.1558606460577776e+00 1.6106016135777978e+01 1.0462907949272029e+01 
114 1 2 1.0279999999999827e+00 9.9938514239528260e+01 1.0000000000000000e+00 7.0006791029936686e+00 1.6382103924811251e+01 1.1587989516152636e+01 
145 1 2 1.0280000000007503e+00 -2.5142521248876825e+01 1.0000000000000000e+00 7.0839214174189724e+00 1.4966813755708717e+01 1.2982284128801904e+01 
7 1 2 1.0279999999987905e+00 -8.9965098722832579e+01 1.0000000000000000e+00 6.7638142672531059e+00 1.6433778065174035e+01 1.0849607642803528e+01 
63 1 2 1.0279999999985687e+00 1.2072411578485143e+01 1.0000000000000000e+00 1.6469692091872677e+01 3.6920380720980950e-01 1.8516059911590173e+00 
128 1 2 1.0279999999984841e+00 1.7441973722075608e+02 1.0000000000000000e+00 1.5481736022869047e+01 1.9027832448907225e+00 3.1873453258776236e+00 
175 1 2 1.0280000000005975e+00 -6.3030935170989430e+01 1.0000000000000000e+00 1.7432081157057024e+01 2.4637433175071947e-02 2.0526984885541166e+00 
116 1 2 1.0280000000013516e+00 -9.7557770294135395e+01 1.0000000000000000e+00 1.7771641265036283e+01 2.9403833674679825e-01 2.2648331461919833e+00 
30 1 2 1.0279999999988285e+00 -4.2839272479749525e+01 1.0000000000000000e+00 1.7432375929228879e+01 3.1193242947256933e-01 1.9350817999229772e+00 
127 1 2 1.0279999999990468e+00 -8.6251523308516227e+01 1.0000000000000000e+00 1.7601029828011388e+01 5.9031731592256653e-01 2.0311393649625704e+00 
144 1 2 1.0280000000010912e+00 8.2246042910507455e+01 1.0000000000000000e+00 1.7833998990494855e+01 5.9815210184009149e-01 2.3041018021034532e+00 
62 1 2 1.0280000000000555e+00 1.1240433688771718e+02 1.0000000000000000e+00 1.7693975071734609e+01 1.5885260710563796e+00 2.8915731048282107e+00 
64 1 2 1.0279999999996765e+00 9.8927256533468949e+01 1.0000000000000000e+00 1.5431540870229361e+01 2.0361728977599314e+00 3.3576500322367848e+00 
18 1 2 1.0279999999999438e+00 2.3447479926495610e+01 1.0000000000000000e+00 1.5141280736763411e+01 1.3785843219525407e+00 3.3707154848275969e+00 
172 1 2 1.0280000000008775e+00 -1.2395961097007662e+02 1.0000000000000000e+00 1.5261347291519781e+01 2.2364158501220182e+00 3.6828528036252495e+00 
171 1 2 1.0279999999979679e+00 7.4041941097094366e+01 1.0000000000000000e+00 1.5630220676250712e+01 1.7911196657723646e-01 4.7543117352380069e+00 
28 1 2 1.0279999999981628e+00 -5.3706586155680043e+01 1.0000000000000000e+00 1.5410432664416755e+01 2.1457247522873499e-01 4.2255483741140258e+00 
137 1 2 1.0280000000007077e+00 -3.0704588880066140e+01 1.0000000000000000e+00 1.5284325867764062e+01 4.4820495903027696e-01 4.7973876637346349e+00 
120 1 2 1.0280000000002705e+00 -3.4082952708178496e+01 1.0000000000000000e+00 1.4791751718894938e+01 9.0808906053554739e-01 5.6009993144854917e+00 
146 1 2 1.0280000000009317e+00 -1.4914010512938074e+02 1.0000000000000000e+00 1.4730421914235881e+01 2.7965451634301819e+00 4.2906577384314639e+00 
100 1 2 1.0280000000008940e+00 2.2275321441866581e+01 1.0000000000000000e+00 1.7334076019749862e+01 2.1472442425517309e+00 3.4522843917003554e+00 
36 1 2 1.0279999999987528e+00 -4.4386675155038219e+01 1.0000000000000000e+00 1.7153639654698512e+01 1.1590569143531573e+00 6.4744085468190367e+00 
166 1 2 1.0279999999999920e+00 3.8369712015373850e+01 1.0000000000000000e+00 1.7104983261833407e+01 1.2328919861630192e+00 6.6186002515034934e+00 
51 1 2 1.0280000000014293e+00 1.1177751967713286e+02 1.0000000000000000e+00 1.7614129332081568e+01 1.1846747384497105e+00 5.3473138187278959e+00 
22 1 2 1.0280000000015075e+00 4.6529678195692881e+01 1.0000000000000000e+00 1.7219978190166294e+01 1.4007385537699533e+00 6.5926240205716375e+00 
152 1 2 1.0279999999990683e+00 -2.9153855133007148e+01 1.0000000000000000e+00 1.7286746130830217e+01 1.6844744579665287e+00 6.6301131593949707e+00 
87 1 2 1.0280000000003708e+00 2.4357885782486915e+02 1.0000000000000000e+00 1.7712447163001372e+01 1.8322800704012991e+00 3.8567998162363897e+00 
71 1 2 1.0280000000010190e+00 1.0277322561823070e+01 1.0000000000000000e+00 1.7167314048634960e+01 2.4281913466155332e+00 3.9570259862702799e+00 
147 1 2 1.0279999999996190e+00 1.5590576517857471e+01 1.0000000000000000e+00 1.7170707488127217e+01 2.5614599243611265e+00 4.3955818862156333e+00 
131 1 2 1.0280000000002625e+00 -8.0361175792015274e+01 1.0000000000000000e+00 1.7038811562878490e+01 2.9602067756236301e+00 5.4089617875179767e+00 
138 1 2 1.0279999999998242e+00 7.9744742334017346e+01 1.0000000000000000e+00 1.6767660703956132e+01 3.2633604824443188e+00 5.7913704995669262e+00 
155 1 2 1.0280000000006950e+00 3.9962474437743474e+01 1.0000000000000000e+00 1.4311582896089680e+01 3.7242965689349239e+00 4.6542623506246059e+00 
141 1 2 1.0280000000009122e+00 -8.3988878646503466e+01 1.0000000000000000e+00 1.4662718012057265e+01 3.5819862431748293e+00 4.5704682597248132e+00 
58 1 2 1.0280000000001341e+00 1.6455219285380525e+02 1.0000000000000000e+00 1.6182584644723828e+01 3.7858163756109549e+00 6.0524702974245947e+00 
55 1 2 1.0280000000008480e+00 -8.4202863804721233e+01 1.0000000000000000e+00 1.4553431119135590e+01 4.8671411079596183e+00 5.3727811692217848e+00 
93 1 2 1.0279999999994704e+00 1.3000951088442204e+02 1.0000000000000000e+00 1.3466591609692470e+01 4.7405569848148525e+00 5.2268678876050831e+00 
78 1 2 1.0279999999998715e+00 4.1989761319826677e+01 1.0000000000000000e+00 1.3760756778705842e+01 5.2620165479538068e+00 5.4958296641362638e+00 
143 1 2 1.0280000000003322e+00 -6.4240895123542487e+01 1.0000000000000000e+00 1.3453688787119194e+01 4.1294143951837050e+00 5.0110932320139288e+00 
52 1 2 1.0280000000005562e+00 8.1497751738428690e+01 1.0000000000000000e+00 1.4041060705281307e+01 5.8077773972278415e+00 6.0507023365358537e+00 
10 1 2 1.0279999999988660e+00 2.1906978825149145e+02 1.0000000000000000e+00 1.6172580169698755e+01 7.8531518132853584e-01 6.7288580727947025e+00 
16 1 2 1.0279999999997878e+00 1.0107935596614917e+02 1.0000000000000000e+00 1.3779596515914349e+01 1.6509638699558287e+00 6.7354269635337891e+00 
6 1 2 1.0280000000005058e+00 -1.5057064464761351e+02 1.0000000000000000e+00 1.6368396319206859e+01 8.3425519461813291e-01 6.7450547661038511e+00 
156 1 2 1.0279999999996097e+00 -1.4693143258884174e+02 1.0000000000000000e+00 1.3996123435177553e+01 1.5027095865052718e+00 6.7467613528537962e+00 
129 1 2 1.0280000000001341e+00 1.1126582214354764e+02 1.0000000000000000e+00 1.4110351864915788e+01 1.5726339641163762e+00 7.1455195987987405e+00 
27 1 2 1.0280000000001339e+00 -6.7414365548627416e+01 1.0000000000000000e+00 1.5683699195426916e+01 1.7782590544377528e+00 7.6375007895645757e+00 
56 1 2 1.0280000000001992e+00 4.7049113684869670e-01 1.0000000000000000e+00 1.6374520401974262e+01 1.8194947723424093e+00 7.4436624104450608e+00 
168 1 2 1.0280000000007148e+00 2.3454354581009295e+02 1.0000000000000000e+00 1.3421205521868787e+01 2.2261446398052613e+00 7.4268709414366096e+00 
115 1 2 1.0279999999984577e+00 -1.3460784001668381e+02 1.0000000000000000e+00 1.3474172776906563e+01 2.6842135380955976e+00 7.8158662318703236e+00 
29 1 2 1.0280000000004048e+00 1.2669768497929672e+02 1.0000000000000000e+00 1.6318701016582509e+01 3.2339380871358534e+00 7.0567827683895414e+00 
65 1 2 1.0279999999988314e+00 2.5771115073827119e+01 1.0000000000000000e+00 1.7002905184158980e+01 2.3940169107702625e+00 6.9351660877185370e+00 
125 1 2 1.0280000000014931e+00 -2.2786981080359816e+01 1.0000000000000000e+00 1.6816605906057266e+01 1.3463007839772041e+00 6.9975730710810238e+00 
164 1 2 1.0280000000003531e+00 1.2082368361119904e+02 1.0000000000000000e+00 1.5450176506593197e+01 4.0310205632224179e+00 7.3319876339897041e+00 
77 1 2 1.0280000000003959e+00 1.4183223310073885e+00 1.0000000000000000e+00 1.5422542499748420e+01 4.3204947837572556e+00 7.1112579750933849e+00 
162 1 2 1.0279999999992395e+00 1.0490892916663650e+01 1.0000000000000000e+00 1.5243182033917467e+01 4.5038410520581795e+00 7.2250669512948722e+00 
158 1 2 1.0280000000003358e+00 5.8560830192391535e+01 1.0000000000000000e+00 1.4554134313693977e+01 5.7993303848308804e+00 7.3329603362459723e+00 
121 1 2 1.0280000000014682e+00 -4.8632593349654030e+01 1.0000000000000000e+00 1.3893745186458935e+01 6.1846436749849243e+00 8.4801371990479169e+00 
108 1 2 1.0280000000008915e+00 -7.1536653866714261e+01 1.0000000000000000e+00 1.4245722423577961e+01 6.2980624259525992e+00 6.9558238596165003e+00 
126 1 2 1.0280000000002614e+00 -8.3122090887212039e+00 1.0000000000000000e+00 1.3711540325298403e+01 6.4777895716658946e+00 8.6904373863039339e+00 
148 1 2 1.0280000000006939e+00 -9.5251336966659693e+01 1.0000000000000000e+00 1.4160755695264616e+01 6.4464674263931592e+00 7.0039488291861698e+00 
169 1 2 1.0280000000003493e+00 -1.1072573594652974e+02 1.0000000000000000e+00 1.4101771516358886e+01 6.7065831234245570e+00 7.3798673668022756e+00 
140 1 2 1.0280000000009382e+00 3.0965901225145211e+00 1.0000000000000000e+00 1.3338798853285047e+01 7.0839466216730678e+00 9.0573556242385180e+00 
72 1 2 1.0280000000000720e+00 -1.5831378163316305e+02 1.0000000000000000e+00 1.3340818756967975e+01 6.9217383234855676e+00 9.0621475244601069e+00 
95 1 2 1.0279999999969160e+00 3.1131537054319402e+01 1.0000000000000000e+00 1.5774600279594125e+01 1.9763990313417839e+01 3.1275768159478465e+00 
111 1 2 1.0279999999998366e+00 3.7241385209224118e+00 1.0000000000000000e+00 1.6041893497249852e+01 1.9771848509384583e+01 2.4796552706022665e+00 
19 1 2 1.0279999999988498e+00 -2.3760018995216791e+02 1.0000000000000000e+00 1.6044066154446167e+01 1.9982398223105495e+01 2.2507168211454087e+00 
117 1 2 1.0279999999985199e+00 -3.3601823815902465e+00 1.0000000000000000e+00 1.7372861383717360e+01 1.9697583144960230e+01 2.3610266674238209e+00 
99 1 2 1.0280000000007476e+00 1.5170850020425667e+02 1.0000000000000000e+00 1.7491654053545130e+01 1.9833023886345789e+01 2.2833945243848710e+00 
85 1 2 1.0279999999990099e+00 8.9780962615718920e+01 1.0000000000000000e+00 1.7626029169549877e+01 1.9963367513241966e+01 2.2992577004121375e+00 
160 1 2 1.0280000000010259e+00 -6.6926699516908315e+01 1.0000000000000000e+00 1.5670256442300609e+01 1.9871605791233073e+01 3.6877210106191058e+00 
69 1 2 1.0279999999990246e+00 -1.0130721816110159e+02 1.0000000000000000e+00 1.7229613691595723e+01 1.9683295094825858e+01 3.7054978049270195e+00 

Velocities

8 3.8275151397036095e-09 4.3905635578538112e-09 -3.7155719994014530e-09
86 3.9702659003647442e-09 4.5776647436844623e-09 -3.9270928317805951e-09
79 4.2068951483920822e-09 4.8520165091607627e-09 -4.1025884448394161e-09
174 4.0639667046486014e-09 4.7297158742369821e-09 -3.9493413733740412e-09
89 4.0292175786296962e-09 4.6862692097873106e-09 -3.8848118723666653e-09
94 4.0497043527320824e-09 4.7114767103699304e-09 -3.9148594704856991e-09
74 4.3452531190822170e-09 4.9562402793825285e-09 -4.1768370146488013e-09
49 4.3586916446682408e-09 4.9636666776808550e-09 -4.1801286689152033e-09
139 4.4828348668015559e-09 5.0551293337712122e-09 -4.2590299067260495e-09
98 4.8876551620066173e-09 5.4847120323885191e-09 -4.6739304131056936e-09
26 4.3677899949987906e-09 4.9377157024177659e-09 -4.1901088072258641e-09
53 4.6871112911622261e-09 5.1967357456221982e-09 -4.3854328879896592e-09
106 4.6696772275161129e-09 5.2287991676658520e-09 -4.4532097274196792e-09
35 5.7103200942427028e-09 6.5742984987814156e-09 -5.4108725171082171e-09
165 5.7322120377972432e-09 6.5509805865865747e-09 -5.3937118980324684e-09
133 5.7158233147816510e-09 6.5735455453786905e-09 -5.4248093978501719e-09
159 4.8220162616173996e-09 5.3661641494587038e-09 -4.5690032948840513e-09
48 4.9218519059960578e-09 5.5862767809096981e-09 -4.7485718084361645e-09
11 5.5781771844291495e-09 6.4527185294196359e-09 -5.3438398412457424e-09
54 5.4083772854805010e-09 6.1630112264717787e-09 -5.2778044707844373e-09
15 5.4958752005651041e-09 6.3334377606793468e-09 -5.3127161390638541e-09
97 5.5289812074204413e-09 6.3863538334118759e-09 -5.3161470887941040e-09
167 5.5462285462116523e-09 6.4108467677156224e-09 -5.3255079362356529e-09
88 5.5531235969049042e-09 6.4202731922368173e-09 -5.3293956551683830e-09
39 5.6817166671047814e-09 6.8272373414667726e-09 -5.3549680032440166e-09
153 5.7478907462510888e-09 6.7967732792673624e-09 -5.4827133138553842e-09
132 5.7643782662880161e-09 6.5408215885140180e-09 -5.2826678473716254e-09
119 5.7551591319369500e-09 6.5721526110521528e-09 -5.2788202517469478e-09
109 5.6239752360735367e-09 6.7129205340464105e-09 -5.3119407339604104e-09
91 5.6538416290875470e-09 6.7280471722201186e-09 -5.2886366422203351e-09
57 5.7250293090170928e-09 6.7390127433339846e-09 -5.2748430489105970e-09
67 5.6932374591774147e-09 6.7732319624309166e-09 -5.3050117942244147e-09
101 5.6446061520111429e-09 6.7734232740944343e-09 -5.3225171340472196e-09
102 5.7618554511146507e-09 6.7899470491041928e-09 -5.3329454644749813e-09
46 5.6988598546463540e-09 6.8075504254642930e-09 -5.3246351342703691e-09
112 -3.1848342519298274e-09 -3.5630370951381008e-09 3.0560401835246043e-09
44 -3.0592351661258298e-09 -3.4411996911010598e-09 2.9482799916703091e-09
5 -3.0132464008613992e-09 -3.3886538363278396e-09 2.8970018528905624e-09
34 -3.0048244957049798e-09 -3.3799750990052113e-09 2.8882011705910049e-09
84 -2.4240757545695286e-09 -2.6703882040331467e-09 2.2026686859827708e-09
170 -2.9961876852949690e-09 -3.3323546982252470e-09 2.8496088368357978e-09
61 -2.9379787363358025e-09 -3.3071691589559623e-09 2.8277827012170114e-09
123 -2.9396436363476163e-09 -3.3048880577236819e-09 2.8090124068583765e-09
24 -3.0806480100544778e-09 -3.3855972978597036e-09 2.9394317661038795e-09