LAMMPS data file via write_data, version 30 Jul 2016, timestep = 50000000

180 atoms
2 atom types

0.0000000000000000e+00 2.0000000000000000e+01 xlo xhi
0.0000000000000000e+00 2.0000000000000000e+01 ylo yhi
0.0000000000000000e+00 2.0000000000000000e+01 zlo zhi

Masses

1 3.896
2 4.31

Atoms # meso-molecular

105 1 2 1.0280014319459698e+00 -2.7198754397871096e+02 1.0000000000000000e+00 2.9091993131958640e+00 6.3675167306306566e+00 3.3206061779280387e+00 
142 1 2 1.0280014319459698e+00 -2.6929054109597575e+02 1.0000000000000000e+00 2.9091993131958644e+00 6.3675167306306575e+00 3.3206061779280356e+00 
135 1 2 1.0280042870515766e+00 -3.0211554162309574e+02 1.0000000000000000e+00 3.8965436899732659e+00 6.1390204364124257e+00 1.6061092058914110e+00 
172 1 2 1.0280042870515771e+00 -2.7386307922224165e+02 1.0000000000000000e+00 3.8965436899729631e+00 6.1390204364117995e+00 1.6061092058920297e+00 
177 1 2 1.0280042870515769e+00 -3.3434389653536857e+02 1.0000000000000000e+00 3.8965436899734796e+00 6.1390204364119967e+00 1.6061092058911719e+00 
165 1 2 1.0280042870515771e+00 -2.3839890936098297e+02 1.0000000000000000e+00 3.8965436899728414e+00 6.1390204364120171e+00 1.6061092058921715e+00 
164 1 2 1.0280042870515771e+00 -2.3630130086411100e+02 1.0000000000000000e+00 3.8965436899731860e+00 6.1390204364120340e+00 1.6061092058916260e+00 
170 1 2 1.0280042870515769e+00 -2.5943606632617201e+02 1.0000000000000000e+00 3.8965436899737966e+00 6.1390204364118146e+00 1.6061092058907147e+00 
154 1 2 1.0280023112884324e+00 -1.9509600838313372e+02 1.0000000000000000e+00 1.6153017868894615e+00 6.3495507529958326e+00 4.1502100020711064e+00 
148 1 2 1.0280023112884324e+00 -2.1446331369099227e+02 1.0000000000000000e+00 1.6153017868893746e+00 6.3495507529958113e+00 4.1502100020709820e+00 
179 1 2 1.0280023112884324e+00 -1.8867171077610658e+02 1.0000000000000000e+00 1.6153017868893169e+00 6.3495507529957180e+00 4.1502100020709021e+00 
153 1 2 1.0280023112884324e+00 -2.7054566506262307e+02 1.0000000000000000e+00 1.6153017868892035e+00 6.3495507529957287e+00 4.1502100020707413e+00 
171 1 2 1.0280023112884327e+00 -4.0217631316703643e+02 1.0000000000000000e+00 1.6153017868894195e+00 6.3495507529957438e+00 4.1502100020710451e+00 
147 1 2 1.0280023112884324e+00 -2.1368832566141168e+02 1.0000000000000000e+00 1.6153017868893456e+00 6.3495507529957447e+00 4.1502100020709420e+00 
150 1 2 1.0279510653562995e+00 -2.5544461940160664e+02 1.0000000000000000e+00 5.0152234347532634e+00 9.8358898156375272e+00 1.2412044724113290e+01 
180 1 2 1.0279510653562947e+00 -2.5690773927849347e+02 1.0000000000000000e+00 5.0152234347497915e+00 9.8358898156358787e+00 1.2412044724117028e+01 
75 1 2 1.0279526325945898e+00 -2.5739815030224048e+02 1.0000000000000000e+00 5.0163205057862283e+00 9.8366926031972550e+00 1.2410135033541462e+01 
111 1 2 1.0279526327038249e+00 -3.0769966471241764e+02 1.0000000000000000e+00 5.0163205800343604e+00 9.8366926427737997e+00 1.2410134942538470e+01 
110 1 2 1.0281607825438475e+00 -3.2255031039602437e+02 1.0000000000000000e+00 5.3644603126366963e+00 9.9007309557209400e+00 1.2238076964518690e+01 
40 1 2 1.0280008546837280e+00 -2.2428752846710057e+02 1.0000000000000000e+00 5.1922808663453699e+00 2.9889277201003206e+00 1.4746188690980910e+01 
27 1 2 1.0280064068685797e+00 -2.5000206842698827e+02 1.0000000000000000e+00 5.7466667539308824e+00 2.7001738991395459e+00 1.4404642624403015e+01 
88 1 2 1.0280064074306701e+00 -2.2195126970831504e+02 1.0000000000000000e+00 5.7469180876995463e+00 2.7005122928674536e+00 1.4404602503833264e+01 
45 1 2 1.0280064318971072e+00 -1.8022437809456235e+02 1.0000000000000000e+00 5.7568844288581262e+00 2.7035286642829219e+00 1.4403141133295161e+01 
82 1 2 1.0279924900989841e+00 -2.4272843310205351e+02 1.0000000000000000e+00 5.0409016175535326e+00 3.2139301217649705e+00 1.5438533320530903e+01 
59 1 2 1.0279692562594949e+00 -2.7077638406005082e+02 1.0000000000000000e+00 3.1827924396135749e+00 5.3183367790219016e+00 1.6435756962831906e+01 
42 1 2 1.0280306823567222e+00 -2.8121957733577011e+02 1.0000000000000000e+00 3.2808062260900828e+00 6.0363529870721297e+00 1.5323987871264697e+01 
39 1 2 1.0279882098154132e+00 -1.9904660601683233e+02 1.0000000000000000e+00 5.0478591667464672e+00 3.3914169209349638e+00 1.5336410147860670e+01 
87 1 2 1.0279842587072803e+00 -2.0846358637728858e+02 1.0000000000000000e+00 5.0631301951162495e+00 3.4978993741741045e+00 1.5457074988710472e+01 
5 1 2 1.0280702277572371e+00 -2.4071444665947163e+02 1.0000000000000000e+00 3.7388762596190839e+00 6.1501953205210036e+00 1.5317422538506662e+01 
6 1 2 1.0280702277572371e+00 -2.4458628778147951e+02 1.0000000000000000e+00 3.7388762596190839e+00 6.1501953205210036e+00 1.5317422538506662e+01 
78 1 2 1.0280092119079947e+00 -2.7954222111171538e+02 1.0000000000000000e+00 4.1076767598721258e+00 6.0216440377804128e+00 1.5551547557338425e+01 
41 1 2 1.0280092119079833e+00 -2.9964610150420731e+02 1.0000000000000000e+00 4.1076767598710138e+00 6.0216440377249141e+00 1.5551547557292201e+01 
48 1 2 1.0280092119079833e+00 -2.5676791713961069e+02 1.0000000000000000e+00 4.1076767598710138e+00 6.0216440377249141e+00 1.5551547557292201e+01 
146 1 2 1.0279760632629731e+00 -3.5151633612914446e+02 1.0000000000000000e+00 2.6403918714999768e+00 8.8463828992872067e+00 1.3469856317954122e+01 
139 1 2 1.0279901409455980e+00 -2.9038713056254255e+02 1.0000000000000000e+00 1.3150033788065902e+00 9.3562772959265459e+00 1.4445564005000842e+01 
99 1 2 1.0279901409455980e+00 -2.6527359893158462e+02 1.0000000000000000e+00 1.3150033788065902e+00 9.3562772959265459e+00 1.4445564005000842e+01 
140 1 2 1.0279901409455980e+00 -2.4818812325439171e+02 1.0000000000000000e+00 1.3150033788065902e+00 9.3562772959265459e+00 1.4445564005000842e+01 
98 1 2 1.0279901409455980e+00 -3.0578460439495615e+02 1.0000000000000000e+00 1.3150033788065902e+00 9.3562772959265459e+00 1.4445564005000842e+01 
104 1 2 1.0279901409455980e+00 -3.2323535506712102e+02 1.0000000000000000e+00 1.3150033788065902e+00 9.3562772959265459e+00 1.4445564005000842e+01 
134 1 2 1.0279901409455980e+00 -2.7627742707107444e+02 1.0000000000000000e+00 1.3150033788065902e+00 9.3562772959265459e+00 1.4445564005000842e+01 
145 1 2 1.0280433493553418e+00 -3.5906830577123941e+02 1.0000000000000000e+00 3.5806644648957464e+00 9.0266252153231168e+00 1.3659311138947590e+01 
176 1 2 1.0280433272138936e+00 -3.5093880561759920e+02 1.0000000000000000e+00 3.5809649309604672e+00 9.0266327400433557e+00 1.3658906435705696e+01 
109 1 2 1.0280433257851904e+00 -2.9957999421529718e+02 1.0000000000000000e+00 3.5810037511407793e+00 9.0266291078981311e+00 1.3658847622444620e+01 
175 1 2 1.0280433661297361e+00 -3.1474586797027507e+02 1.0000000000000000e+00 3.5804876101395648e+00 9.0266086665691994e+00 1.3659532160922307e+01 
9 1 2 1.0279648323598456e+00 -2.7147306098498757e+02 1.0000000000000000e+00 2.0291230297875038e+00 6.0363779383342964e+00 1.7095242510929900e+01 
10 1 2 1.0279648323598456e+00 -2.4965596366959119e+02 1.0000000000000000e+00 2.0291230297875038e+00 6.0363779383342964e+00 1.7095242510929900e+01 
4 1 2 1.0279648323598456e+00 -2.6447010754215387e+02 1.0000000000000000e+00 2.0291230297875038e+00 6.0363779383342964e+00 1.7095242510929900e+01 
3 1 2 1.0279648323598451e+00 -2.9282483896336566e+02 1.0000000000000000e+00 2.0291230297874816e+00 6.0363779383343070e+00 1.7095242510929907e+01 
178 1 2 1.0280036375708992e+00 -3.1093964228449471e+02 1.0000000000000000e+00 5.0733532846271014e+00 5.3513866747653234e+00 1.8132950811609817e+01 
141 1 2 1.0280036375708983e+00 -2.2412767978514287e+02 1.0000000000000000e+00 5.0733532846275020e+00 5.3513866747650356e+00 1.8132950811609330e+01 
166 1 2 1.0280059498998417e+00 -2.3920299203148542e+02 1.0000000000000000e+00 4.8915967694208593e+00 5.7949681208761534e+00 1.9095622966354874e+01 
129 1 2 1.0280059498998417e+00 -2.7842249608198131e+02 1.0000000000000000e+00 4.8915967694209277e+00 5.7949681208761286e+00 1.9095622966354995e+01 
130 1 2 1.0280059498998420e+00 -2.6216743414312037e+02 1.0000000000000000e+00 4.8915967694209312e+00 5.7949681208761277e+00 1.9095622966355002e+01 
136 1 2 1.0280059498998415e+00 -2.4039931408209631e+02 1.0000000000000000e+00 4.8915967694209179e+00 5.7949681208761330e+00 1.9095622966354973e+01 
93 1 2 1.0280059498998415e+00 -2.1945363227536370e+02 1.0000000000000000e+00 4.8915967694209179e+00 5.7949681208761330e+00 1.9095622966354973e+01 
152 1 2 1.0280370315139444e+00 -2.9028617136779644e+02 1.0000000000000000e+00 9.9388315234811453e-01 7.7271016802213630e+00 1.7822013276361766e+01 
121 1 2 1.0280370315139418e+00 -3.0218019978147470e+02 1.0000000000000000e+00 9.9388315234208657e-01 7.7271016802163448e+00 1.7822013276364661e+01 
158 1 2 1.0280370315139418e+00 -3.2469666361743424e+02 1.0000000000000000e+00 9.9388315234208657e-01 7.7271016802163448e+00 1.7822013276364661e+01 
122 1 2 1.0280370315139449e+00 -2.7980443126476501e+02 1.0000000000000000e+00 9.9388315234814528e-01 7.7271016802213763e+00 1.7822013276361773e+01 
151 1 2 1.0280370314320952e+00 -3.0877241551157880e+02 1.0000000000000000e+00 9.9388277548916082e-01 7.7271013713800301e+00 1.7822013445251343e+01 
157 1 2 1.0280370314320944e+00 -2.8281910381876486e+02 1.0000000000000000e+00 9.9388277548915638e-01 7.7271013713800292e+00 1.7822013445251351e+01 
161 1 2 1.0279976916824631e+00 -3.0971001740748710e+02 1.0000000000000000e+00 1.0494425505086868e+01 6.5831490168831106e+00 2.8827408642754803e-02 
167 1 2 1.0279976916824631e+00 -2.5286157888312073e+02 1.0000000000000000e+00 1.0494425505086868e+01 6.5831490168831106e+00 2.8827408642754803e-02 
168 1 2 1.0279976916824631e+00 -2.5481792388327756e+02 1.0000000000000000e+00 1.0494425505086868e+01 6.5831490168831106e+00 2.8827408642754803e-02 
126 1 2 1.0279976916824631e+00 -2.6313869741768258e+02 1.0000000000000000e+00 1.0494425505086868e+01 6.5831490168831106e+00 2.8827408642754803e-02 
162 1 2 1.0279976916824631e+00 -2.9998721797136551e+02 1.0000000000000000e+00 1.0494425505086868e+01 6.5831490168831106e+00 2.8827408642754803e-02 
89 1 2 1.0280007390269661e+00 -3.1041269651024669e+02 1.0000000000000000e+00 1.0389648085962158e+01 6.7502974248073535e+00 2.2733597351277450e+00 
83 1 2 1.0280007390269661e+00 -3.3434623654832114e+02 1.0000000000000000e+00 1.0389648085962158e+01 6.7502974248073535e+00 2.2733597351277450e+00 
53 1 2 1.0280007390269661e+00 -1.8873966368466890e+02 1.0000000000000000e+00 1.0389648085962158e+01 6.7502974248073535e+00 2.2733597351277450e+00 
125 1 2 1.0280007390269661e+00 -3.4262792818577401e+02 1.0000000000000000e+00 1.0389648085962158e+01 6.7502974248073535e+00 2.2733597351277450e+00 
84 1 2 1.0280007390269661e+00 -3.1310543826234590e+02 1.0000000000000000e+00 1.0389648085962158e+01 6.7502974248073535e+00 2.2733597351277450e+00 
47 1 2 1.0280007390269661e+00 -1.9552909176266076e+02 1.0000000000000000e+00 1.0389648085962158e+01 6.7502974248073535e+00 2.2733597351277450e+00 
127 1 2 1.0279975413418549e+00 -2.9557312486814300e+02 1.0000000000000000e+00 7.2021118075563413e+00 1.1983530017635950e+00 1.5993550709033292e+01 
132 1 2 1.0279975413418549e+00 -2.4684019475867404e+02 1.0000000000000000e+00 7.2021118075563413e+00 1.1983530017635950e+00 1.5993550709033292e+01 
163 1 2 1.0279975413418549e+00 -3.1519528074395430e+02 1.0000000000000000e+00 7.2021118075563413e+00 1.1983530017635950e+00 1.5993550709033292e+01 
169 1 2 1.0279975413418549e+00 -3.2106508672877368e+02 1.0000000000000000e+00 7.2021118075563413e+00 1.1983530017635950e+00 1.5993550709033292e+01 
133 1 2 1.0279975413418558e+00 -3.0330028043575118e+02 1.0000000000000000e+00 7.2021118075563466e+00 1.1983530017635933e+00 1.5993550709033277e+01 
128 1 2 1.0279975413418554e+00 -2.8863776312954485e+02 1.0000000000000000e+00 7.2021118075562987e+00 1.1983530017635582e+00 1.5993550709033256e+01 
81 1 2 1.0280040770597272e+00 -1.8576234453405550e+02 1.0000000000000000e+00 6.8036576619556648e+00 2.4233280197373763e+00 1.4717338056299761e+01 
76 1 2 1.0280002558017578e+00 -2.2503378767908535e+02 1.0000000000000000e+00 1.2261905473203567e+01 2.2555143785560743e+00 1.5735638157364072e+01 
77 1 2 1.0280002558017578e+00 -3.0027532867291353e+02 1.0000000000000000e+00 1.2261905473203567e+01 2.2555143785560743e+00 1.5735638157364072e+01 
118 1 2 1.0280002558017578e+00 -2.6387307613776602e+02 1.0000000000000000e+00 1.2261905473203567e+01 2.2555143785560743e+00 1.5735638157364072e+01 
112 1 2 1.0280002558017578e+00 -2.6883826583344552e+02 1.0000000000000000e+00 1.2261905473203567e+01 2.2555143785560743e+00 1.5735638157364072e+01 
119 1 2 1.0280002558017578e+00 -2.0761208875058296e+02 1.0000000000000000e+00 1.2261905473203567e+01 2.2555143785560743e+00 1.5735638157364072e+01 
113 1 2 1.0280002558017578e+00 -2.4298135914183777e+02 1.0000000000000000e+00 1.2261905473203567e+01 2.2555143785560743e+00 1.5735638157364072e+01 
71 1 2 1.0279992997119041e+00 -2.8180994895248716e+02 1.0000000000000000e+00 1.1983912004179746e+01 7.6412053444088546e+00 1.6505534167007525e+01 
16 1 2 1.0279986078060392e+00 -2.6722900441648000e+02 1.0000000000000000e+00 1.2246817645810992e+01 7.6241997387755474e+00 1.6006246227502906e+01 
46 1 2 1.0280024195317130e+00 -2.7395359908940685e+02 1.0000000000000000e+00 6.7716917613059628e+00 3.9611580923623877e+00 1.7175436156307871e+01 
102 1 2 1.0280035628609234e+00 -2.4851317296401015e+02 1.0000000000000000e+00 6.7696288959539617e+00 3.8499861047439037e+00 1.7263125079041295e+01 
96 1 2 1.0280035628609234e+00 -2.5675917748768364e+02 1.0000000000000000e+00 6.7696288959539617e+00 3.8499861047439037e+00 1.7263125079041295e+01 
66 1 2 1.0280035628609234e+00 -2.4443894031978638e+02 1.0000000000000000e+00 6.7696288959539617e+00 3.8499861047439037e+00 1.7263125079041295e+01 
131 1 2 1.0280035628609234e+00 -2.4293405566520408e+02 1.0000000000000000e+00 6.7696288959539617e+00 3.8499861047439037e+00 1.7263125079041295e+01 
95 1 2 1.0280035628609234e+00 -2.2132721777507359e+02 1.0000000000000000e+00 6.7696288959539617e+00 3.8499861047439037e+00 1.7263125079041295e+01 
28 1 2 1.0280012416333879e+00 -2.2936435499191461e+02 1.0000000000000000e+00 1.1794828337975657e+01 5.8905344487969300e+00 1.6999554427359122e+01 
22 1 2 1.0280012431479295e+00 -2.6055691343297497e+02 1.0000000000000000e+00 1.1798196949871636e+01 5.8893354695462383e+00 1.7001131381593694e+01 
101 1 2 1.0279986415075710e+00 -3.0547662632174701e+02 1.0000000000000000e+00 1.2186961312764874e+01 6.1536250313773895e+00 1.7047652917141360e+01 
120 1 2 1.0279991273345819e+00 -2.4913864183618500e+02 1.0000000000000000e+00 1.2255398992489823e+01 3.9195598302744847e+00 1.7274272356816937e+01 
149 1 2 1.0279991273345819e+00 -2.3607469642310255e+02 1.0000000000000000e+00 1.2255398992489823e+01 3.9195598302744847e+00 1.7274272356816937e+01 
155 1 2 1.0279991273345819e+00 -2.3880192012363918e+02 1.0000000000000000e+00 1.2255398992489823e+01 3.9195598302744847e+00 1.7274272356816937e+01 
156 1 2 1.0279991273345819e+00 -2.9295388706361604e+02 1.0000000000000000e+00 1.2255398992489823e+01 3.9195598302744847e+00 1.7274272356816937e+01 
58 1 2 1.0279990631778031e+00 -2.1655581823465877e+02 1.0000000000000000e+00 1.2112852033025369e+01 3.8016911107701370e+00 1.7295882626303552e+01 
49 1 2 1.0279974348007272e+00 -2.8261881276271345e+02 1.0000000000000000e+00 1.0856716841489554e+01 7.0627384457023039e+00 1.8491961782242313e+01 
14 1 2 1.0279996728649121e+00 -2.4019336388993244e+02 1.0000000000000000e+00 1.1161946217877519e+01 7.5372140013582447e+00 1.7762305790200951e+01 
15 1 2 1.0279996728649121e+00 -2.5757725505619214e+02 1.0000000000000000e+00 1.1161946217877519e+01 7.5372140013582447e+00 1.7762305790200951e+01 
107 1 2 1.0280002810765096e+00 -2.8232269864103165e+02 1.0000000000000000e+00 1.1112102399470542e+01 7.4226375174457404e+00 1.7051850269876592e+01 
106 1 2 1.0280002810765096e+00 -2.8688316641558572e+02 1.0000000000000000e+00 1.1112102399470542e+01 7.4226375174457404e+00 1.7051850269876592e+01 
26 1 2 1.0279982310658999e+00 -3.1126673727907507e+02 1.0000000000000000e+00 1.0068796594101901e+01 1.2856858492225971e+01 1.1319970268339843e+00 
13 1 2 1.0279977750256244e+00 -2.6093844509801556e+02 1.0000000000000000e+00 1.0094551804045075e+01 1.2855504733375895e+01 1.0747291856411232e+00 
20 1 2 1.0279977750256244e+00 -2.7082311456970024e+02 1.0000000000000000e+00 1.0094551804045075e+01 1.2855504733375895e+01 1.0747291856411232e+00 
19 1 2 1.0279977750256244e+00 -2.5116666457244693e+02 1.0000000000000000e+00 1.0094551804045075e+01 1.2855504733375895e+01 1.0747291856411232e+00 
12 1 2 1.0280044126288637e+00 -2.5989910517768436e+02 1.0000000000000000e+00 1.1187050612436460e+01 1.2561788306765553e+01 1.2008710220907715e+00 
11 1 2 1.0280044126288637e+00 -2.1891141809513718e+02 1.0000000000000000e+00 1.1187050612436460e+01 1.2561788306765553e+01 1.2008710220907715e+00 
18 1 2 1.0280044126288637e+00 -2.6077215867062569e+02 1.0000000000000000e+00 1.1187050612436460e+01 1.2561788306765553e+01 1.2008710220907715e+00 
17 1 2 1.0280044126288637e+00 -2.4086014319989141e+02 1.0000000000000000e+00 1.1187050612436460e+01 1.2561788306765553e+01 1.2008710220907715e+00 
51 1 2 1.0279538206720995e+00 -2.4974429403856152e+02 1.0000000000000000e+00 7.3178602905237113e+00 1.2841439651881110e+01 5.6038573325155641e+00 
65 1 2 1.0279514476980360e+00 -2.4722758841638111e+02 1.0000000000000000e+00 7.4450924029206380e+00 1.2918439991935541e+01 5.4704630281110118e+00 
29 1 2 1.0279514476980474e+00 -2.5500290075788089e+02 1.0000000000000000e+00 7.4450924029092409e+00 1.2918439991928498e+01 5.4704630281189548e+00 
30 1 2 1.0279514476980467e+00 -2.5671648415893225e+02 1.0000000000000000e+00 7.4450924029173171e+00 1.2918439991931914e+01 5.4704630281153381e+00 
55 1 2 1.0279514476976732e+00 -3.0224175331811188e+02 1.0000000000000000e+00 7.4450924483227556e+00 1.2918440153165351e+01 5.4704628295385822e+00 
68 1 2 1.0279912725277702e+00 -2.3989311813655090e+02 1.0000000000000000e+00 1.0468569893118129e+01 1.3298122594532305e+01 3.8680024041735814e+00 
1 1 2 1.0279912727315095e+00 -3.2622895568237351e+02 1.0000000000000000e+00 1.0468559055950120e+01 1.3298126312867947e+01 3.8679831858431619e+00 
2 1 2 1.0279912727103853e+00 -3.1351503238215599e+02 1.0000000000000000e+00 1.0468559359922146e+01 1.3298126497738615e+01 3.8679842539326570e+00 
38 1 2 1.0279912727105958e+00 -3.0805659064934360e+02 1.0000000000000000e+00 1.0468559347699156e+01 1.3298126503676023e+01 3.8679842354450531e+00 
173 1 2 1.0280481107833299e+00 -2.9613332725364177e+02 1.0000000000000000e+00 7.3208784307737789e+00 1.4315330058260747e+01 6.5599776146873880e+00 
137 1 2 1.0280481107833306e+00 -3.0216667508362741e+02 1.0000000000000000e+00 7.3208784307738153e+00 1.4315330058260789e+01 6.5599776146873312e+00 
138 1 2 1.0280481107833277e+00 -2.1983672165493783e+02 1.0000000000000000e+00 7.3208784307738002e+00 1.4315330058260757e+01 6.5599776146873872e+00 
174 1 2 1.0280481107833306e+00 -2.4122955784511808e+02 1.0000000000000000e+00 7.3208784307738153e+00 1.4315330058260789e+01 6.5599776146873312e+00 
143 1 2 1.0280481107833299e+00 -2.4160523148445580e+02 1.0000000000000000e+00 7.3208784307737789e+00 1.4315330058260747e+01 6.5599776146873880e+00 
31 1 2 1.0280067748842285e+00 -2.7750322372647145e+02 1.0000000000000000e+00 1.1578548990850777e+01 1.4328028532375972e+01 4.2241542989436338e+00 
67 1 2 1.0280067751242783e+00 -2.6507750145576438e+02 1.0000000000000000e+00 1.1578537166861461e+01 1.4328059532830853e+01 4.2241050749853830e+00 
61 1 2 1.0280067750908652e+00 -2.0640932217009797e+02 1.0000000000000000e+00 1.1578539961358903e+01 1.4328054720900379e+01 4.2241101413184943e+00 
25 1 2 1.0280067750648114e+00 -1.7264240243171022e+02 1.0000000000000000e+00 1.1578539708000539e+01 1.4328052021262748e+01 4.2241178742632313e+00 
32 1 2 1.0280065226802066e+00 -2.6700918580647999e+02 1.0000000000000000e+00 1.1604083512237608e+01 1.4293684761386723e+01 4.2378199440683879e+00 
144 1 2 1.0280009814625504e+00 -2.4917397179633895e+02 1.0000000000000000e+00 8.4782847606774290e+00 1.1308536219217853e+01 9.1376962936919028e+00 
114 1 2 1.0280009814625546e+00 -2.3285489450241857e+02 1.0000000000000000e+00 8.4782847606238310e+00 1.1308536219216831e+01 9.1376962936510910e+00 
108 1 2 1.0280009814625546e+00 -2.4108181992222677e+02 1.0000000000000000e+00 8.4782847606238310e+00 1.1308536219216831e+01 9.1376962936510910e+00 
79 1 2 1.0279978249824699e+00 -2.6814236391440329e+02 1.0000000000000000e+00 7.4462550069940061e+00 1.0905587722496696e+01 9.2621301380530880e+00 
44 1 2 1.0279965683041468e+00 -2.9277181897492341e+02 1.0000000000000000e+00 8.7176724132051966e+00 1.0965906163317879e+01 9.4005807639497618e+00 
74 1 2 1.0279969917690854e+00 -3.1363222872583037e+02 1.0000000000000000e+00 8.7127150676239147e+00 1.1001442963880530e+01 9.3583046093884317e+00 
80 1 2 1.0279966453782070e+00 -2.9759148938951324e+02 1.0000000000000000e+00 8.7174831084949265e+00 1.0973723584866882e+01 9.3937884919229973e+00 
115 1 2 1.0280169462943132e+00 -3.1850273665891513e+02 1.0000000000000000e+00 6.6821978832335658e+00 1.0450009018840833e+01 1.0901508881750404e+01 
116 1 2 1.0280169462846471e+00 -3.1871446253848916e+02 1.0000000000000000e+00 6.6821979628070345e+00 1.0450009179998624e+01 1.0901508950984077e+01 
37 1 2 1.0280164570870158e+00 -2.2688102185077204e+02 1.0000000000000000e+00 6.6825617495831491e+00 1.0448780668859388e+01 1.0900965914180544e+01 
73 1 2 1.0280164570870158e+00 -2.3926554800397199e+02 1.0000000000000000e+00 6.6825617495831491e+00 1.0448780668859388e+01 1.0900965914180544e+01 
85 1 2 1.0279782637311026e+00 -2.3350128903173564e+02 1.0000000000000000e+00 6.6830842535834121e+00 1.0621112508627878e+01 1.0721043103712617e+01 
56 1 2 1.0280007035172862e+00 -2.9824185217905608e+02 1.0000000000000000e+00 9.7282829670722926e+00 1.5267067050277944e+01 1.2660920590897312e+01 
21 1 2 1.0280000999273566e+00 -2.6261971227204521e+02 1.0000000000000000e+00 9.7548942447692131e+00 1.6802978135985899e+01 1.1632883692990962e+01 
7 1 2 1.0280000508457643e+00 -2.9540248881962356e+02 1.0000000000000000e+00 9.7345856418088434e+00 1.6810498066440559e+01 1.1633633351106415e+01 
8 1 2 1.0280000508457643e+00 -2.6183723997284943e+02 1.0000000000000000e+00 9.7345856418088434e+00 1.6810498066440559e+01 1.1633633351106415e+01 
43 1 2 1.0280000508457643e+00 -2.9237088044326208e+02 1.0000000000000000e+00 9.7345856418088434e+00 1.6810498066440559e+01 1.1633633351106415e+01 
62 1 2 1.0280001866057131e+00 -3.0597923463628189e+02 1.0000000000000000e+00 9.8588237107623762e+00 1.6815517730712116e+01 1.1650992055711590e+01 
86 1 2 1.0280000372897313e+00 -3.1278382101107547e+02 1.0000000000000000e+00 9.7374594018436298e+00 1.6817060445313626e+01 1.1635033220068678e+01 
123 1 2 1.0279997993741112e+00 -1.7874984601627042e+02 1.0000000000000000e+00 8.4152220124150610e+00 1.4018210493644947e+01 1.3564901787692461e+01 
159 1 2 1.0279997993741112e+00 -2.2565448067867993e+02 1.0000000000000000e+00 8.4152220124150610e+00 1.4018210493644947e+01 1.3564901787692461e+01 
117 1 2 1.0279997993741112e+00 -2.1474324593646671e+02 1.0000000000000000e+00 8.4152220124150610e+00 1.4018210493644947e+01 1.3564901787692461e+01 
124 1 2 1.0279997993741112e+00 -1.9451924472498439e+02 1.0000000000000000e+00 8.4152220124150610e+00 1.4018210493644947e+01 1.3564901787692461e+01 
35 1 2 1.0280005777704726e+00 -2.4426574195552055e+02 1.0000000000000000e+00 8.2607987072486537e+00 1.4404288720752808e+01 1.4280318265791166e+01 
23 1 2 1.0280005777704726e+00 -2.0746562103787363e+02 1.0000000000000000e+00 8.2607987072486537e+00 1.4404288720752808e+01 1.4280318265791166e+01 
24 1 2 1.0280005777486712e+00 -1.8808641308698907e+02 1.0000000000000000e+00 8.2603573543692672e+00 1.4404687875860503e+01 1.4280067005918818e+01 
69 1 2 1.0279996051969942e+00 -2.9398846201252917e+02 1.0000000000000000e+00 1.0276635867564130e+01 1.6201628481544777e+01 1.4159663196659256e+01 
33 1 2 1.0279996051970104e+00 -3.1468027291110690e+02 1.0000000000000000e+00 1.0276635867087561e+01 1.6201628480797893e+01 1.4159663197183606e+01 
64 1 2 1.0279996051970040e+00 -2.6007554036648213e+02 1.0000000000000000e+00 1.0276635867033610e+01 1.6201628480614151e+01 1.4159663197232886e+01 
34 1 2 1.0279996051969984e+00 -2.4277385041678926e+02 1.0000000000000000e+00 1.0276635868536900e+01 1.6201628483238672e+01 1.4159663195606081e+01 
63 1 2 1.0279996051970124e+00 -2.7310318712802137e+02 1.0000000000000000e+00 1.0276635866482872e+01 1.6201628479784098e+01 1.4159663197842253e+01 
57 1 2 1.0279996544530063e+00 -2.3934979888392783e+02 1.0000000000000000e+00 8.3800639375810579e+00 1.7050434082200294e+01 1.4156185179445247e+01 
60 1 2 1.0279964710849809e+00 -2.3028655632264312e+02 1.0000000000000000e+00 8.5069486260842062e+00 1.8747451786885872e+01 1.4018794652794485e+01 
54 1 2 1.0279964710849754e+00 -2.3744453778642654e+02 1.0000000000000000e+00 8.5069486263732035e+00 1.8747451786951821e+01 1.4018794653188602e+01 
90 1 2 1.0279964710849776e+00 -2.2031889834573471e+02 1.0000000000000000e+00 8.5069486271852597e+00 1.8747451787126071e+01 1.4018794653568683e+01 
50 1 2 1.0280004506369063e+00 -2.6326058527646597e+02 1.0000000000000000e+00 8.1598318654765336e+00 1.7857996019977776e+01 1.3521687552263510e+01 
52 1 2 1.0280013910283861e+00 -2.6136913682804550e+02 1.0000000000000000e+00 8.2520187397418638e+00 1.7758127710424166e+01 1.4350468683303465e+01 
36 1 2 1.0279993161279244e+00 -2.7998020476692079e+02 1.0000000000000000e+00 8.8259025118607095e+00 1.8703165759997187e+01 1.4150008807816565e+01 
72 1 2 1.0279993161279244e+00 -2.7333007894949878e+02 1.0000000000000000e+00 8.8259025118607095e+00 1.8703165759997187e+01 1.4150008807816565e+01 
103 1 2 1.0279977427025504e+00 -2.2229989559653342e+02 1.0000000000000000e+00 1.3467226436670042e+01 7.7755063902761590e+00 1.4551564148514085e+01 
92 1 2 1.0279985298420973e+00 -2.5397000806501407e+02 1.0000000000000000e+00 1.3423158630851800e+01 7.1410018665672528e+00 1.4633892290943997e+01 
94 1 2 1.0280025434203310e+00 -2.6954071267787117e+02 1.0000000000000000e+00 1.4271263062348083e+01 7.3666077895481132e+00 1.5459936744339416e+01 
70 1 2 1.0280025434203284e+00 -2.3391519873819104e+02 1.0000000000000000e+00 1.4271263062333365e+01 7.3666077895604447e+00 1.5459936744374687e+01 
97 1 2 1.0279977427025466e+00 -1.9770497988212372e+02 1.0000000000000000e+00 1.3467226436670051e+01 7.7755063902761670e+00 1.4551564148514073e+01 
91 1 2 1.0279977036582970e+00 -2.6729295072198755e+02 1.0000000000000000e+00 1.3429817166741341e+01 7.7690096877272641e+00 1.4561165098352234e+01 
160 1 2 1.0280022268867095e+00 -1.8557617850421769e+02 1.0000000000000000e+00 1.4338789869788174e+01 7.5764888165908664e+00 1.5294558355330246e+01 
100 1 2 1.0280025434203288e+00 -2.7758724720921771e+02 1.0000000000000000e+00 1.4271263062345898e+01 7.3666077895638429e+00 1.5459936744350481e+01 

Velocities

105 2.1721388752681314e-02 2.1562800951495330e-02 -2.6308798932819146e-02
142 2.1721388752682667e-02 2.1562800951495761e-02 -2.6308798932818907e-02
135 1.9098715499656787e-02 2.1504384362661930e-02 -2.7643575712935489e-02
172 1.9098715499662990e-02 2.1504384362661021e-02 -2.7643575712931578e-02
177 1.9098715499656409e-02 2.1504384362660799e-02 -2.7643575712935915e-02
165 1.9098715499663309e-02 2.1504384362661635e-02 -2.7643575712931294e-02
164 1.9098715499659063e-02 2.1504384362661184e-02 -2.7643575712934070e-02
170 1.9098715499652578e-02 2.1504384362659827e-02 -2.7643575712938309e-02
154 2.1630881160053284e-02 2.1141548406865895e-02 -2.6217851892350232e-02
148 2.1630881160050869e-02 2.1141548406865936e-02 -2.6217851892348390e-02
179 2.1630881160052198e-02 2.1141548406865784e-02 -2.6217851892349760e-02
153 2.1630881160052285e-02 2.1141548406865784e-02 -2.6217851892350364e-02
171 2.1630881160052979e-02 2.1141548406865794e-02 -2.6217851892350052e-02
147 2.1630881160052497e-02 2.1141548406865801e-02 -2.6217851892349809e-02
150 -3.3590463197385068e-02 -9.6393958155655025e-03 4.3729154868300840e-02
180 -3.3590463197334407e-02 -9.6393958155775485e-03 4.3729154868224068e-02
75 -3.3602282347126498e-02 -9.6430667310578484e-03 4.3763208915571720e-02
111 -3.3602283357868981e-02 -9.6430666062770794e-03 4.3763210661425016e-02
110 -3.0483785449049065e-02 -1.0039558147286689e-02 4.6856251541975195e-02
40 2.4529400176066390e-03 1.1188445155532739e-02 -2.1439743598105604e-02
27 2.6640636399186055e-03 1.1368596677911534e-02 -2.4327698216283836e-02
88 2.6649106640842550e-03 1.1369734720438143e-02 -2.4328355726302694e-02
45 2.7010551145681678e-03 1.1381479277566126e-02 -2.4357540862091898e-02
82 4.9897852142761030e-03 1.0428096455438164e-02 -2.2849635405698163e-02
59 -1.3233411681329858e-02 1.0694763228226312e-02 -1.3115901216033916e-02
42 -1.9970318007266688e-02 4.7793345082770174e-03 -1.4678279232428039e-02
39 5.4188811266034807e-03 9.1218126579902040e-03 -2.1768856223161749e-02
87 5.9179563671461028e-03 8.3532728381354240e-03 -2.2454380527544643e-02
5 -1.4369200483204640e-02 7.9480072357358648e-03 -1.8445706416874208e-02
6 -1.4369200483204640e-02 7.9480072357358648e-03 -1.8445706416874208e-02
78 -1.1227443476736302e-02 5.2639567498089981e-03 -1.3450832487058393e-02
41 -1.1227443477037939e-02 5.2639567491607241e-03 -1.3450832487263923e-02
48 -1.1227443477037939e-02 5.2639567491607241e-03 -1.3450832487263923e-02
146 -4.1584519010852680e-02 -3.2403775291904233e-03 4.6475527299445533e-02
139 -3.6719154463338136e-02 -4.2800329267742446e-03 4.6710483190804487e-02
99 -3.6719154463338136e-02 -4.2800329267742446e-03 4.6710483190804487e-02
140 -3.6719154463338136e-02 -4.2800329267742446e-03 4.6710483190804487e-02
98 -3.6719154463338136e-02 -4.2800329267742446e-03 4.6710483190804487e-02
104 -3.6719154463338136e-02 -4.2800329267742446e-03 4.6710483190804487e-02
134 -3.6719154463338136e-02 -4.2800329267742446e-03 4.6710483190804487e-02
145 -3.4921850724927463e-02 -5.0602875116522780e-03 4.5285415967956828e-02
176 -3.4921075725206759e-02 -5.0594574484640375e-03 4.5279292136576409e-02