LAMMPS data file via write_data, version 30 Jul 2016, timestep = 50400000

180 atoms
2 atom types

0.0000000000000000e+00 2.0000000000000000e+01 xlo xhi
0.0000000000000000e+00 2.0000000000000000e+01 ylo yhi
0.0000000000000000e+00 2.0000000000000000e+01 zlo zhi

Masses

1 3.896
2 4.31

Atoms # meso-molecular

154 1 2 1.0279936673199199e+00 -1.9509600961798446e+02 1.0000000000000000e+00 2.4689561461091962e+00 7.2329825260198000e+00 3.0853655961473683e+00 
148 1 2 1.0279936673199204e+00 -2.1446331492584301e+02 1.0000000000000000e+00 2.4689561461091127e+00 7.2329825260197813e+00 3.0853655961472497e+00 
179 1 2 1.0279936673199204e+00 -1.8867171201095732e+02 1.0000000000000000e+00 2.4689561461090590e+00 7.2329825260196952e+00 3.0853655961471729e+00 
153 1 2 1.0279936673199201e+00 -2.7054566629772836e+02 1.0000000000000000e+00 2.4689561461089458e+00 7.2329825260197058e+00 3.0853655961470166e+00 
171 1 2 1.0279936673199204e+00 -4.0217631440214171e+02 1.0000000000000000e+00 2.4689561461091589e+00 7.2329825260197200e+00 3.0853655961473119e+00 
147 1 2 1.0279936673199201e+00 -2.1368832689626242e+02 1.0000000000000000e+00 2.4689561461090830e+00 7.2329825260197209e+00 3.0853655961472084e+00 
135 1 2 1.0279929723376509e+00 -3.0211543898921758e+02 1.0000000000000000e+00 4.6363323437044039e+00 7.0165550183025642e+00 4.9318137588512562e-01 
172 1 2 1.0279929723376511e+00 -2.7386297658836349e+02 1.0000000000000000e+00 4.6363323437044022e+00 7.0165550183019878e+00 4.9318137588583538e-01 
177 1 2 1.0279929723376506e+00 -3.3434379390149041e+02 1.0000000000000000e+00 4.6363323437045594e+00 7.0165550183021184e+00 4.9318137588487859e-01 
165 1 2 1.0279929723376509e+00 -2.3839880672718942e+02 1.0000000000000000e+00 4.6363323437043240e+00 7.0165550183022116e+00 4.9318137588598404e-01 
164 1 2 1.0279929723376511e+00 -2.3630119823031745e+02 1.0000000000000000e+00 4.6363323437044395e+00 7.0165550183021859e+00 4.9318137588538707e-01 
170 1 2 1.0279929723376504e+00 -2.5943596369229385e+02 1.0000000000000000e+00 4.6363323437047113e+00 7.0165550183019025e+00 4.9318137588438948e-01 
105 1 2 1.0280137847263546e+00 -2.7198750958667830e+02 1.0000000000000000e+00 3.7763588586312888e+00 7.2652065491057183e+00 2.2615183318370162e+00 
142 1 2 1.0280137847263544e+00 -2.6929050670394309e+02 1.0000000000000000e+00 3.7763588586312924e+00 7.2652065491057094e+00 2.2615183318370158e+00 
37 1 2 1.0279789700623490e+00 -2.2688092672764520e+02 1.0000000000000000e+00 5.5452328673790783e+00 9.8719727241442907e+00 1.2668550152553156e+01 
73 1 2 1.0279789700623490e+00 -2.3926545288084515e+02 1.0000000000000000e+00 5.5452328673790783e+00 9.8719727241442907e+00 1.2668550152553156e+01 
115 1 2 1.0279792044864691e+00 -3.1850264113308845e+02 1.0000000000000000e+00 5.5447095155065549e+00 9.8734309146576251e+00 1.2669820797593946e+01 
116 1 2 1.0279792045063880e+00 -3.1871436701263440e+02 1.0000000000000000e+00 5.5447096162399170e+00 9.8734311188847315e+00 1.2669820937405097e+01 
27 1 2 1.0280029444636045e+00 -2.5000200943577232e+02 1.0000000000000000e+00 5.9144942944360661e+00 3.1511057845456087e+00 1.3371304682757309e+01 
88 1 2 1.0280029446336378e+00 -2.2195121071245546e+02 1.0000000000000000e+00 5.9147668262739126e+00 3.1514713604685181e+00 1.3371250965797772e+01 
45 1 2 1.0280029538169335e+00 -1.8022431926388646e+02 1.0000000000000000e+00 5.9255650382954590e+00 3.1548835735884815e+00 1.3369086015783331e+01 
59 1 2 1.0280142890482376e+00 -2.7077562320520849e+02 1.0000000000000000e+00 2.4525846081316223e+00 5.5386002811909947e+00 1.6139129699654553e+01 
42 1 2 1.0280004623616297e+00 -2.8121708176570814e+02 1.0000000000000000e+00 2.2178612220514853e+00 6.1185326657197834e+00 1.4895556250161883e+01 
5 1 2 1.0280011107566640e+00 -2.4071051128581973e+02 1.0000000000000000e+00 3.0634215703777175e+00 6.3600021135877922e+00 1.4702326101009081e+01 
6 1 2 1.0280011107566640e+00 -2.4458235240782761e+02 1.0000000000000000e+00 3.0634215703777175e+00 6.3600021135877922e+00 1.4702326101009081e+01 
9 1 2 1.0279887637506344e+00 -2.7147201427571736e+02 1.0000000000000000e+00 1.6812535430397617e+00 6.0618748611247790e+00 1.6490605941519227e+01 
10 1 2 1.0279887637506344e+00 -2.4965491696031131e+02 1.0000000000000000e+00 1.6812535430397617e+00 6.0618748611247790e+00 1.6490605941519227e+01 
4 1 2 1.0279887637506344e+00 -2.6446906083288366e+02 1.0000000000000000e+00 1.6812535430397617e+00 6.0618748611247790e+00 1.6490605941519227e+01 
3 1 2 1.0279887637506337e+00 -2.9282379225409545e+02 1.0000000000000000e+00 1.6812535430397475e+00 6.0618748611247986e+00 1.6490605941519245e+01 
40 1 2 1.0280000673016831e+00 -2.2428739752283880e+02 1.0000000000000000e+00 5.3601381023890484e+00 3.4125938660660857e+00 1.3783590987743921e+01 
82 1 2 1.0279942208886164e+00 -2.4272812108764981e+02 1.0000000000000000e+00 5.2718516010384020e+00 3.5973655998774161e+00 1.4464143180735267e+01 
39 1 2 1.0279918031178110e+00 -1.9904623155390865e+02 1.0000000000000000e+00 5.2891187940579281e+00 3.7375597189876482e+00 1.4384046643650663e+01 
87 1 2 1.0279897283490367e+00 -2.0846313960032714e+02 1.0000000000000000e+00 5.3179343935024574e+00 3.8228965219803852e+00 1.4496228348051961e+01 
78 1 2 1.0279900272549725e+00 -2.7954015723320470e+02 1.0000000000000000e+00 3.6602308292440604e+00 6.1502138725240663e+00 1.5187693702781745e+01 
41 1 2 1.0279900272549813e+00 -2.9964403762569708e+02 1.0000000000000000e+00 3.6602308292055095e+00 6.1502138724392665e+00 1.5187693702729598e+01 
48 1 2 1.0279900272549813e+00 -2.5676585326110046e+02 1.0000000000000000e+00 3.6602308292055095e+00 6.1502138724392665e+00 1.5187693702729598e+01 
146 1 2 1.0280229603462654e+00 -3.5151084945340210e+02 1.0000000000000000e+00 1.5090849807519959e+00 8.9649560591010680e+00 1.5582359232320561e+01 
145 1 2 1.0280090340433998e+00 -3.5906589822732303e+02 1.0000000000000000e+00 2.1874449276955561e+00 8.8270507279048882e+00 1.5290658412791371e+01 
176 1 2 1.0280106738980361e+00 -3.5093639294451020e+02 1.0000000000000000e+00 2.1887924981762077e+00 8.8270549868590464e+00 1.5291052654674552e+01 
175 1 2 1.0280081424207737e+00 -3.1474346297568565e+02 1.0000000000000000e+00 2.1867115897019267e+00 8.8270312173029648e+00 1.5290455800045702e+01 
109 1 2 1.0280109118212946e+00 -2.9957758070418259e+02 1.0000000000000000e+00 2.1889888574434444e+00 8.8270492668559974e+00 1.5291114879545777e+01 
110 1 2 1.0279815941338624e+00 -3.2255011173246163e+02 1.0000000000000000e+00 4.1432358163677971e+00 9.5561332788140323e+00 1.3930809545087540e+01 
150 1 2 1.0280303799777719e+00 -2.5544437028342614e+02 1.0000000000000000e+00 3.7300275425583740e+00 9.5543051231054541e+00 1.4118313529070837e+01 
180 1 2 1.0280303799777784e+00 -2.5690749016030969e+02 1.0000000000000000e+00 3.7300275425533780e+00 9.5543051231048324e+00 1.4118313529075531e+01 
75 1 2 1.0280267909697256e+00 -2.5739790230327986e+02 1.0000000000000000e+00 3.7315959335979323e+00 9.5545871960287041e+00 1.4115768662120926e+01 
111 1 2 1.0280267908080352e+00 -3.0769941671352331e+02 1.0000000000000000e+00 3.7315960400572274e+00 9.5545872105206833e+00 1.4115768547842730e+01 
178 1 2 1.0279788212785066e+00 -3.1093842472460892e+02 1.0000000000000000e+00 5.3035720261826116e+00 5.9310224891464527e+00 1.6982975053650367e+01 
141 1 2 1.0279788212785068e+00 -2.2412646222524032e+02 1.0000000000000000e+00 5.3035720261830619e+00 5.9310224891461623e+00 1.6982975053650144e+01 
166 1 2 1.0280095622768564e+00 -2.3920247095871386e+02 1.0000000000000000e+00 5.2691416470576327e+00 6.5268431894102132e+00 1.7874595731625899e+01 
129 1 2 1.0280095622768564e+00 -2.7842197500928881e+02 1.0000000000000000e+00 5.2691416470577366e+00 6.5268431894101804e+00 1.7874595731626037e+01 
130 1 2 1.0280095622768564e+00 -2.6216691307042788e+02 1.0000000000000000e+00 5.2691416470577428e+00 6.5268431894101786e+00 1.7874595731626044e+01 
136 1 2 1.0280095622768564e+00 -2.4039879300932475e+02 1.0000000000000000e+00 5.2691416470577233e+00 6.5268431894101822e+00 1.7874595731626002e+01 
93 1 2 1.0280095622768564e+00 -2.1945311120259214e+02 1.0000000000000000e+00 5.2691416470577233e+00 6.5268431894101822e+00 1.7874595731626002e+01 
157 1 2 1.0280103346561515e+00 -2.8281578333041745e+02 1.0000000000000000e+00 1.7145754092326063e-01 7.6413344573282043e+00 1.7793563518421099e+01 
151 1 2 1.0280103346561529e+00 -3.0876909502323139e+02 1.0000000000000000e+00 1.7145754092327228e-01 7.6413344573282167e+00 1.7793563518421099e+01 
122 1 2 1.0280103347717904e+00 -2.7980111077347436e+02 1.0000000000000000e+00 1.7145814290156400e-01 7.6413356813170017e+00 1.7793563902586659e+01 
158 1 2 1.0280103347717791e+00 -3.2469334312614359e+02 1.0000000000000000e+00 1.7145814289218803e-01 7.6413356812967059e+00 1.7793563902580505e+01 
121 1 2 1.0280103347717791e+00 -3.0217687929018405e+02 1.0000000000000000e+00 1.7145814289218803e-01 7.6413356812967059e+00 1.7793563902580505e+01 
152 1 2 1.0280103347717884e+00 -2.9028285087650579e+02 1.0000000000000000e+00 1.7145814290147965e-01 7.6413356813169564e+00 1.7793563902586634e+01 
85 1 2 1.0281148080067823e+00 -2.3350119502817441e+02 1.0000000000000000e+00 5.5322410945785752e+00 1.0074486471364295e+01 1.2453838671657101e+01 
79 1 2 1.0280003052369959e+00 -2.6814232510750213e+02 1.0000000000000000e+00 6.3668711760332162e+00 1.0214606961876344e+01 1.1019586126893397e+01 
161 1 2 1.0279980996035893e+00 -3.0970995442246732e+02 1.0000000000000000e+00 1.0293632765853099e+01 6.6357946846274105e+00 8.5926945288475809e-01 
167 1 2 1.0279980996035893e+00 -2.5286151589810723e+02 1.0000000000000000e+00 1.0293632765853099e+01 6.6357946846274105e+00 8.5926945288475809e-01 
168 1 2 1.0279980996035893e+00 -2.5481786089826406e+02 1.0000000000000000e+00 1.0293632765853099e+01 6.6357946846274105e+00 8.5926945288475809e-01 
126 1 2 1.0279980996035893e+00 -2.6313863443266280e+02 1.0000000000000000e+00 1.0293632765853099e+01 6.6357946846274105e+00 8.5926945288475809e-01 
162 1 2 1.0279980996035893e+00 -2.9998715498634573e+02 1.0000000000000000e+00 1.0293632765853099e+01 6.6357946846274105e+00 8.5926945288475809e-01 
89 1 2 1.0280006368759962e+00 -3.1041268795480090e+02 1.0000000000000000e+00 1.0275847752899129e+01 6.7783623914164792e+00 3.1078608687789435e+00 
83 1 2 1.0280006368759962e+00 -3.3434622799287536e+02 1.0000000000000000e+00 1.0275847752899129e+01 6.7783623914164792e+00 3.1078608687789435e+00 
53 1 2 1.0280006368759962e+00 -1.8873965512927163e+02 1.0000000000000000e+00 1.0275847752899129e+01 6.7783623914164792e+00 3.1078608687789435e+00 
125 1 2 1.0280006368759962e+00 -3.4262791963032822e+02 1.0000000000000000e+00 1.0275847752899129e+01 6.7783623914164792e+00 3.1078608687789435e+00 
84 1 2 1.0280006368759962e+00 -3.1310542970690011e+02 1.0000000000000000e+00 1.0275847752899129e+01 6.7783623914164792e+00 3.1078608687789435e+00 
47 1 2 1.0280006368759962e+00 -1.9552908320726348e+02 1.0000000000000000e+00 1.0275847752899129e+01 6.7783623914164792e+00 3.1078608687789435e+00 
127 1 2 1.0279981257827411e+00 -2.9557307605960233e+02 1.0000000000000000e+00 7.4852540824006875e+00 1.6727384661617408e+00 1.4889224145897517e+01 
132 1 2 1.0279981257827411e+00 -2.4684014595013130e+02 1.0000000000000000e+00 7.4852540824006875e+00 1.6727384661617408e+00 1.4889224145897517e+01 
163 1 2 1.0279981257827411e+00 -3.1519523193541363e+02 1.0000000000000000e+00 7.4852540824006875e+00 1.6727384661617408e+00 1.4889224145897517e+01 
169 1 2 1.0279981257827411e+00 -3.2106503792023301e+02 1.0000000000000000e+00 7.4852540824006875e+00 1.6727384661617408e+00 1.4889224145897517e+01 
133 1 2 1.0279981257827406e+00 -3.0330023162721051e+02 1.0000000000000000e+00 7.4852540824007017e+00 1.6727384661617437e+00 1.4889224145897497e+01 
128 1 2 1.0279981257827409e+00 -2.8863771432100418e+02 1.0000000000000000e+00 7.4852540824006430e+00 1.6727384661617042e+00 1.4889224145897478e+01 
81 1 2 1.0280014715680075e+00 -1.8576230189122944e+02 1.0000000000000000e+00 7.0555914798744022e+00 2.8784134275148134e+00 1.3650153032552051e+01 
76 1 2 1.0280001165434869e+00 -2.2503378550313346e+02 1.0000000000000000e+00 1.1518526143764960e+01 2.2946895877969564e+00 1.6372309121959969e+01 
77 1 2 1.0280001165434869e+00 -3.0027532649680114e+02 1.0000000000000000e+00 1.1518526143764960e+01 2.2946895877969564e+00 1.6372309121959969e+01 
118 1 2 1.0280001165434869e+00 -2.6387307396165363e+02 1.0000000000000000e+00 1.1518526143764960e+01 2.2946895877969564e+00 1.6372309121959969e+01 
112 1 2 1.0280001165434869e+00 -2.6883826365733313e+02 1.0000000000000000e+00 1.1518526143764960e+01 2.2946895877969564e+00 1.6372309121959969e+01 
119 1 2 1.0280001165434869e+00 -2.0761208657463106e+02 1.0000000000000000e+00 1.1518526143764960e+01 2.2946895877969564e+00 1.6372309121959969e+01 
113 1 2 1.0280001165434869e+00 -2.4298135696588588e+02 1.0000000000000000e+00 1.1518526143764960e+01 2.2946895877969564e+00 1.6372309121959969e+01 
46 1 2 1.0280038676576255e+00 -2.7395353558230454e+02 1.0000000000000000e+00 7.0543026581382460e+00 4.4695279724778247e+00 1.6022643469019293e+01 
102 1 2 1.0280040176351226e+00 -2.4851312168243629e+02 1.0000000000000000e+00 7.0575033120070412e+00 4.3571640839242862e+00 1.6115838871666146e+01 
96 1 2 1.0280040176351226e+00 -2.5675912620629015e+02 1.0000000000000000e+00 7.0575033120070412e+00 4.3571640839242862e+00 1.6115838871666146e+01 
66 1 2 1.0280040176351226e+00 -2.4443888903821252e+02 1.0000000000000000e+00 7.0575033120070412e+00 4.3571640839242862e+00 1.6115838871666146e+01 
131 1 2 1.0280040176351226e+00 -2.4293400438363022e+02 1.0000000000000000e+00 7.0575033120070412e+00 4.3571640839242862e+00 1.6115838871666146e+01 
95 1 2 1.0280040176351226e+00 -2.2132716649349973e+02 1.0000000000000000e+00 7.0575033120070412e+00 4.3571640839242862e+00 1.6115838871666146e+01 
92 1 2 1.0279987499128105e+00 -2.5396999582894023e+02 1.0000000000000000e+00 1.2781688427874709e+01 7.3042407895560011e+00 1.5277003770960818e+01 
91 1 2 1.0279980513004014e+00 -2.6729294196145469e+02 1.0000000000000000e+00 1.2789905882236098e+01 7.9094892336995253e+00 1.5212002713280095e+01 
103 1 2 1.0279980818870695e+00 -2.2229988703015127e+02 1.0000000000000000e+00 1.2825177523161637e+01 7.9161870378204151e+00 1.5201861033106164e+01 
97 1 2 1.0279980818870691e+00 -1.9770497131574157e+02 1.0000000000000000e+00 1.2825177523161619e+01 7.9161870378204444e+00 1.5201861033106184e+01 
28 1 2 1.0280005364570446e+00 -2.2936427715473258e+02 1.0000000000000000e+00 1.1225636603501410e+01 5.9480803242786697e+00 1.7709917246768615e+01 
22 1 2 1.0280005338644478e+00 -2.6055683556455267e+02 1.0000000000000000e+00 1.1228952605015010e+01 5.9468598443533223e+00 1.7711474466774835e+01 
101 1 2 1.0279992773664091e+00 -3.0547655360560066e+02 1.0000000000000000e+00 1.1611197164659210e+01 6.2259070707817026e+00 1.7758254657913621e+01 
120 1 2 1.0279992739689765e+00 -2.4913862073932620e+02 1.0000000000000000e+00 1.1556994862280895e+01 3.9560709646875361e+00 1.7914250341486039e+01 
149 1 2 1.0279992739689765e+00 -2.3607467532624375e+02 1.0000000000000000e+00 1.1556994862280895e+01 3.9560709646875361e+00 1.7914250341486039e+01 
155 1 2 1.0279992739689765e+00 -2.3880189902678038e+02 1.0000000000000000e+00 1.1556994862280895e+01 3.9560709646875361e+00 1.7914250341486039e+01 
156 1 2 1.0279992739689765e+00 -2.9295386596686933e+02 1.0000000000000000e+00 1.1556994862280895e+01 3.9560709646875361e+00 1.7914250341486039e+01 
58 1 2 1.0279992143011778e+00 -2.1655579952933172e+02 1.0000000000000000e+00 1.1416028870552037e+01 3.8402845297706145e+00 1.7933554254455988e+01 
16 1 2 1.0279990915946273e+00 -2.6722895944751207e+02 1.0000000000000000e+00 1.1673903047019797e+01 7.7253731108882002e+00 1.6695104851615813e+01 
71 1 2 1.0279997238805427e+00 -2.8180990278702751e+02 1.0000000000000000e+00 1.1432460678407802e+01 7.7301064708367084e+00 1.7213845002026616e+01 
49 1 2 1.0279976145726577e+00 -2.8261867908800622e+02 1.0000000000000000e+00 1.0475532174133425e+01 7.1095500354827150e+00 1.9290518513935453e+01 
14 1 2 1.0279997662235458e+00 -2.4019327892410428e+02 1.0000000000000000e+00 1.0701924113827213e+01 7.5937598590811435e+00 1.8538043199963411e+01 
15 1 2 1.0279997662235458e+00 -2.5757717009036799e+02 1.0000000000000000e+00 1.0701924113827213e+01 7.5937598590811435e+00 1.8538043199963411e+01 
107 1 2 1.0280003033193938e+00 -2.8232264236250421e+02 1.0000000000000000e+00 1.0613075435047291e+01 7.4949482320201417e+00 1.7802898421200346e+01 
106 1 2 1.0280003033193938e+00 -2.8688311013705828e+02 1.0000000000000000e+00 1.0613075435047291e+01 7.4949482320201417e+00 1.7802898421200346e+01 
26 1 2 1.0279994541663706e+00 -3.1126671171548406e+02 1.0000000000000000e+00 1.0732568337033868e+01 1.2275583375728878e+01 1.3777019574656646e+00 
13 1 2 1.0279993566314674e+00 -2.6093842170099691e+02 1.0000000000000000e+00 1.0759799805571721e+01 1.2275402321358099e+01 1.3211890259437997e+00 
20 1 2 1.0279993566314674e+00 -2.7082309117268159e+02 1.0000000000000000e+00 1.0759799805571721e+01 1.2275402321358099e+01 1.3211890259437997e+00 
19 1 2 1.0279993566314674e+00 -2.5116664117545474e+02 1.0000000000000000e+00 1.0759799805571721e+01 1.2275402321358099e+01 1.3211890259437997e+00 
12 1 2 1.0280010059740146e+00 -2.5989907546744877e+02 1.0000000000000000e+00 1.1866675582233814e+01 1.1970186587260430e+01 1.4346735661195533e+00 
11 1 2 1.0280010059740146e+00 -2.1891138838487430e+02 1.0000000000000000e+00 1.1866675582233814e+01 1.1970186587260430e+01 1.4346735661195533e+00 
18 1 2 1.0280010059740146e+00 -2.6077212896039009e+02 1.0000000000000000e+00 1.1866675582233814e+01 1.1970186587260430e+01 1.4346735661195533e+00 
17 1 2 1.0280010059740146e+00 -2.4086011348962853e+02 1.0000000000000000e+00 1.1866675582233814e+01 1.1970186587260430e+01 1.4346735661195533e+00 
51 1 2 1.0279810828504490e+00 -2.4974420048503785e+02 1.0000000000000000e+00 7.8600937582779089e+00 1.0807796767681102e+01 5.8123178834718248e+00 
65 1 2 1.0279811691989325e+00 -2.4722747631638245e+02 1.0000000000000000e+00 7.8777326627648456e+00 1.0820117925383467e+01 5.7986559175919616e+00 
29 1 2 1.0279811691989147e+00 -2.5500278865788229e+02 1.0000000000000000e+00 7.8777326627634023e+00 1.0820117925382526e+01 5.7986559175928400e+00 
30 1 2 1.0279811691989253e+00 -2.5671637205893290e+02 1.0000000000000000e+00 7.8777326627643864e+00 1.0820117925383043e+01 5.7986559175923897e+00 
55 1 2 1.0279811691989904e+00 -3.0224164121805012e+02 1.0000000000000000e+00 7.8777326723381256e+00 1.0820117941181298e+01 5.7986558992390371e+00 
68 1 2 1.0279995456988311e+00 -2.3989294480687974e+02 1.0000000000000000e+00 1.1070386408227645e+01 1.2478758885507981e+01 4.1136383258008378e+00 
1 1 2 1.0279995457542113e+00 -3.2622878235152876e+02 1.0000000000000000e+00 1.1070375683777815e+01 1.2478762508653540e+01 4.1136205144484386e+00 
2 1 2 1.0279995457512909e+00 -3.1351485905126077e+02 1.0000000000000000e+00 1.1070376010696396e+01 1.2478762678237851e+01 4.1136215014461133e+00 
38 1 2 1.0279995457514195e+00 -3.0805641731844622e+02 1.0000000000000000e+00 1.1070375998758104e+01 1.2478762683959120e+01 4.1136214842942955e+00 
31 1 2 1.0280014062769973e+00 -2.7750321233720183e+02 1.0000000000000000e+00 1.2214484184088832e+01 1.3484778446585377e+01 4.4647309405712452e+00 
67 1 2 1.0280014064441425e+00 -2.6507749006557106e+02 1.0000000000000000e+00 1.2214472892190111e+01 1.3484812798369651e+01 4.4646798174938853e+00 
61 1 2 1.0280014064232463e+00 -2.0640931077989754e+02 1.0000000000000000e+00 1.2214475682706071e+01 1.3484807528544005e+01 4.4646850679044645e+00 
25 1 2 1.0280014064019454e+00 -1.7264239104170005e+02 1.0000000000000000e+00 1.2214475277841231e+01 1.3484804453612387e+01 4.4646931144793180e+00 
32 1 2 1.0280012926346793e+00 -2.6700917415409856e+02 1.0000000000000000e+00 1.2240402086826508e+01 1.3447816221339703e+01 4.4786866111035648e+00 
173 1 2 1.0280188285569767e+00 -2.9613330987720320e+02 1.0000000000000000e+00 7.7205497033385333e+00 1.2203765538265841e+01 6.8947915194045652e+00 
143 1 2 1.0280188285569767e+00 -2.4160521410823688e+02 1.0000000000000000e+00 7.7205497033385333e+00 1.2203765538265841e+01 6.8947915194045652e+00 
174 1 2 1.0280188285569780e+00 -2.4122954046889916e+02 1.0000000000000000e+00 7.7205497033386505e+00 1.2203765538266040e+01 6.8947915194043237e+00 
137 1 2 1.0280188285569780e+00 -3.0216665770718885e+02 1.0000000000000000e+00 7.7205497033386505e+00 1.2203765538266040e+01 6.8947915194043237e+00 
138 1 2 1.0280188285569760e+00 -2.1983670427871891e+02 1.0000000000000000e+00 7.7205497033386354e+00 1.2203765538265916e+01 6.8947915194044880e+00 
44 1 2 1.0279983967370081e+00 -2.9277179212002346e+02 1.0000000000000000e+00 7.6277643011227338e+00 1.0239414853860831e+01 1.1199045991961244e+01 
80 1 2 1.0279985067010546e+00 -2.9759146250436169e+02 1.0000000000000000e+00 7.6281925230982992e+00 1.0246792342272746e+01 1.1192459724070337e+01 
74 1 2 1.0279989363345614e+00 -3.1363220190656568e+02 1.0000000000000000e+00 7.6261262717660241e+00 1.0272969300577298e+01 1.1157640093979404e+01 
144 1 2 1.0280024978403068e+00 -2.4917394902854159e+02 1.0000000000000000e+00 7.4047681272265189e+00 1.0596396772163983e+01 1.0917371033271355e+01 
114 1 2 1.0280024978403000e+00 -2.3285487173462121e+02 1.0000000000000000e+00 7.4047681271697128e+00 1.0596396772163605e+01 1.0917371033226154e+01 
108 1 2 1.0280024978403000e+00 -2.4108179715442941e+02 1.0000000000000000e+00 7.4047681271697128e+00 1.0596396772163605e+01 1.0917371033226154e+01 
123 1 2 1.0279998267623949e+00 -1.7874984336481700e+02 1.0000000000000000e+00 9.7189767222280761e+00 1.4480437331986625e+01 1.2346544430530869e+01 
159 1 2 1.0279998267623949e+00 -2.2565447802722650e+02 1.0000000000000000e+00 9.7189767222280761e+00 1.4480437331986625e+01 1.2346544430530869e+01 
117 1 2 1.0279998267623949e+00 -2.1474324328501328e+02 1.0000000000000000e+00 9.7189767222280761e+00 1.4480437331986625e+01 1.2346544430530869e+01 
124 1 2 1.0279998267623949e+00 -1.9451924207353096e+02 1.0000000000000000e+00 9.7189767222280761e+00 1.4480437331986625e+01 1.2346544430530869e+01 
35 1 2 1.0280006236374972e+00 -2.4426573839913499e+02 1.0000000000000000e+00 9.5570747723213447e+00 1.4866654843748490e+01 1.3068573536441695e+01 
23 1 2 1.0280006236374972e+00 -2.0746561748148807e+02 1.0000000000000000e+00 9.5570747723213447e+00 1.4866654843748490e+01 1.3068573536441695e+01 
24 1 2 1.0280006238175496e+00 -1.8808640953018991e+02 1.0000000000000000e+00 9.5566236400799234e+00 1.4867061085074706e+01 1.3068319455237642e+01 
56 1 2 1.0280005205773037e+00 -2.9824184579659970e+02 1.0000000000000000e+00 1.1008137235076807e+01 1.5741426285887828e+01 1.1454102725414979e+01 
50 1 2 1.0279990734487281e+00 -2.6326057520550398e+02 1.0000000000000000e+00 9.3690141488495247e+00 1.8347723093698114e+01 1.2354373542391057e+01 
90 1 2 1.0280004256230699e+00 -2.2031884039618006e+02 1.0000000000000000e+00 9.6805841387426526e+00 1.9208304225037693e+01 1.2850826793901872e+01 
60 1 2 1.0280004256230910e+00 -2.3028649837308859e+02 1.0000000000000000e+00 9.6805841377036526e+00 1.9208304224808909e+01 1.2850826793161998e+01 
54 1 2 1.0280004256230664e+00 -2.3744447983687184e+02 1.0000000000000000e+00 9.6805841379738080e+00 1.9208304224858907e+01 1.2850826793539916e+01 
57 1 2 1.0279989932656346e+00 -2.3934978415097763e+02 1.0000000000000000e+00 9.6120727944299862e+00 1.7547763433397598e+01 1.2966905474265380e+01 
72 1 2 1.0280004284255924e+00 -2.7333004502018957e+02 1.0000000000000000e+00 9.9965923073127740e+00 1.9177667586667642e+01 1.2978408617805771e+01 
36 1 2 1.0280004284255924e+00 -2.7998017083761158e+02 1.0000000000000000e+00 9.9965923073127740e+00 1.9177667586667642e+01 1.2978408617805771e+01 
52 1 2 1.0279991039506582e+00 -2.6136912764954934e+02 1.0000000000000000e+00 9.4513166182856647e+00 1.8248362053226543e+01 1.3173688914920847e+01 
69 1 2 1.0279999578232448e+00 -2.9398845509887281e+02 1.0000000000000000e+00 1.1527237107464456e+01 1.6692797128375744e+01 1.2958845771120274e+01 
33 1 2 1.0279999578232668e+00 -3.1468026599745053e+02 1.0000000000000000e+00 1.1527237107005675e+01 1.6692797127629575e+01 1.2958845771640597e+01 
64 1 2 1.0279999578232522e+00 -2.6007553345282577e+02 1.0000000000000000e+00 1.1527237106956767e+01 1.6692797127445882e+01 1.2958845771690109e+01 
34 1 2 1.0279999578232530e+00 -2.4277384350312451e+02 1.0000000000000000e+00 1.1527237108395589e+01 1.6692797130068147e+01 1.2958845770074332e+01 
63 1 2 1.0279999578232641e+00 -2.7310318021436501e+02 1.0000000000000000e+00 1.1527237106425648e+01 1.6692797126616561e+01 1.2958845772294517e+01 
7 1 2 1.0279999872883041e+00 -2.9540248587259350e+02 1.0000000000000000e+00 1.0994866231777392e+01 1.7300130135680199e+01 1.0448689516785587e+01 
8 1 2 1.0279999872883041e+00 -2.6183723702581938e+02 1.0000000000000000e+00 1.0994866231777392e+01 1.7300130135680199e+01 1.0448689516785587e+01 
43 1 2 1.0279999872883041e+00 -2.9237087749623203e+02 1.0000000000000000e+00 1.0994866231777392e+01 1.7300130135680199e+01 1.0448689516785587e+01 
86 1 2 1.0279999783884213e+00 -3.1278381804861374e+02 1.0000000000000000e+00 1.0997691513154146e+01 1.7306683460171175e+01 1.0450213655847046e+01 
21 1 2 1.0280000084917231e+00 -2.6261970939354387e+02 1.0000000000000000e+00 1.1015327599702450e+01 1.7292635831097993e+01 1.0447580129893586e+01 
62 1 2 1.0280000294401801e+00 -3.0597923188202560e+02 1.0000000000000000e+00 1.1119646629742558e+01 1.7305259485591318e+01 1.0465157066238087e+01 
160 1 2 1.0280018523149541e+00 -1.8557617009964241e+02 1.0000000000000000e+00 1.3718405879100283e+01 7.7367466684518140e+00 1.5922166350562081e+01 
100 1 2 1.0280021499785694e+00 -2.7758723880273283e+02 1.0000000000000000e+00 1.3653839052403347e+01 7.5133840933988552e+00 1.6098711448248409e+01 
94 1 2 1.0280021499785699e+00 -2.6954070427138629e+02 1.0000000000000000e+00 1.3653839052405502e+01 7.5133840933821459e+00 1.6098711448236493e+01 
70 1 2 1.0280021499785681e+00 -2.3391519033169286e+02 1.0000000000000000e+00 1.3653839052390566e+01 7.5133840933950511e+00 1.6098711448274329e+01 
139 1 2 1.0279916575481833e+00 -2.9038426122751787e+02 1.0000000000000000e+00 1.9532039046445909e+01 9.4395154152117620e+00 1.5865500573839531e+01 
99 1 2 1.0279916575481833e+00 -2.6527072959655993e+02 1.0000000000000000e+00 1.9532039046445909e+01 9.4395154152117620e+00 1.5865500573839531e+01 
140 1 2 1.0279916575481833e+00 -2.4818525391934512e+02 1.0000000000000000e+00 1.9532039046445909e+01 9.4395154152117620e+00 1.5865500573839531e+01 
98 1 2 1.0279916575481833e+00 -3.0578173505993146e+02 1.0000000000000000e+00 1.9532039046445909e+01 9.4395154152117620e+00 1.5865500573839531e+01 
104 1 2 1.0279916575481833e+00 -3.2323248573209634e+02 1.0000000000000000e+00 1.9532039046445909e+01 9.4395154152117620e+00 1.5865500573839531e+01 
134 1 2 1.0279916575481833e+00 -2.7627455773604976e+02 1.0000000000000000e+00 1.9532039046445909e+01 9.4395154152117620e+00 1.5865500573839531e+01 

Velocities

154 2.1371233375692005e-02 2.2956916735231279e-02 -2.7489224168941440e-02
148 2.1371233375693899e-02 2.2956916735231384e-02 -2.7489224168942023e-02
179 2.1371233375697771e-02 2.2956916735231848e-02 -2.7489224168943609e-02
153 2.1371233375697619e-02 2.2956916735231807e-02 -2.7489224168942613e-02
171 2.1371233375694406e-02 2.2956916735231762e-02 -2.7489224168942800e-02
147 2.1371233375694215e-02 2.2956916735231734e-02 -2.7489224168941836e-02
135 1.7929165889723951e-02 2.2155402947651621e-02 -2.8489738812921380e-02
172 1.7929165889731955e-02 2.2155402947656680e-02 -2.8489738812923104e-02
177 1.7929165889720655e-02 2.2155402947653242e-02 -2.8489738812920769e-02
165 1.7929165889733506e-02 2.2155402947655643e-02 -2.8489738812923437e-02
164 1.7929165889726727e-02 2.2155402947654206e-02 -2.8489738812922025e-02
170 1.7929165889715735e-02 2.2155402947653120e-02 -2.8489738812919382e-02
105 2.2027982371273177e-02 2.3243900603611919e-02 -2.7131266625453569e-02
142 2.2027982371274148e-02 2.3243900603612092e-02 -2.7131266625453062e-02
37 -2.6321160320573890e-02 -1.3137805138338956e-02 4.2633916520444959e-02
73 -2.6321160320573890e-02 -1.3137805138338956e-02 4.2633916520444959e-02
115 -2.6321341604812410e-02 -1.3132732939217269e-02 4.2643743309269684e-02
116 -2.6321341210686775e-02 -1.3132732284982669e-02 4.2643744591530239e-02
27 4.9279638953518522e-03 1.1506796264278512e-02 -2.6796269711562397e-02
88 4.9282729071468542e-03 1.1507261829388944e-02 -2.6796581300959497e-02
45 4.9420088231611915e-03 1.1513177399319015e-02 -2.6810962762324472e-02
59 -1.5415288017502624e-02 -1.9092093766770576e-04 -7.1028383274276035e-03
42 -1.9385770559163813e-02 -3.0344782664686748e-04 -4.1220369990238002e-03
5 -1.6843547377486456e-02 -2.1242390348312970e-04 -4.4161812211145884e-03
6 -1.6843547377486456e-02 -2.1242390348312970e-04 -4.4161812211145884e-03
9 -1.2281603715868386e-02 7.9458502030718535e-05 -8.7105616303224977e-03
10 -1.2281603715868386e-02 7.9458502030718535e-05 -8.7105616303224977e-03
4 -1.2281603715868386e-02 7.9458502030718535e-05 -8.7105616303224977e-03
3 -1.2281603715858699e-02 7.9458502047714352e-05 -8.7105616303341290e-03
40 4.9861972084274519e-03 1.1301221046010616e-02 -2.5428437984343338e-02
82 6.1356567681502983e-03 1.0970575579695895e-02 -2.5972849498045077e-02
39 6.3211733783823274e-03 1.0337503858081035e-02 -2.5454192946227434e-02
87 6.4631992372305149e-03 1.0009863436747302e-02 -2.5687616259147766e-02
78 -1.3733565900560784e-02 1.9579609031278918e-03 -6.8670211566122831e-03
41 -1.3733565901091579e-02 1.9579609033553978e-03 -6.8670211563940176e-03
48 -1.3733565901091579e-02 1.9579609033553978e-03 -6.8670211563940176e-03
146 -3.5235514843562028e-02 8.5975062082853711e-03 3.8169584917818120e-02
145 -3.5533885890253740e-02 -4.2663204826419452e-03 3.5562453461935317e-02
176 -3.5521811701284392e-02 -4.2676863349162012e-03 3.5572667986234353e-02
175 -3.5540101346721031e-02 -4.2646593450679417e-03 3.5557392009458386e-02
109 -3.5519925894490642e-02 -4.2676060774318458e-03 3.5574323614269626e-02
110 -2.9008772887087253e-02 -7.2703375839256717e-03 4.0716472723160993e-02