LAMMPS data file via write_data, version 30 Jul 2016, timestep = 50000000

384 atoms
2 atom types

0.0000000000000000e+00 2.0000000000000000e+01 xlo xhi
0.0000000000000000e+00 2.0000000000000000e+01 ylo yhi
0.0000000000000000e+00 2.0000000000000000e+01 zlo zhi

Masses

1 3.89
2 10.47

Atoms # meso-molecular

192 1 2 2.4999999999999996e+00 -8.4704293893044820e+01 1.0000000000000000e+00 6.1097813885918049e+00 3.1737106437361517e+00 5.7257548753898613e+00 
236 1 2 2.4999999999999956e+00 4.2923714179801058e+00 1.0000000000000000e+00 6.1888033459118779e+00 2.6652336758431567e+00 5.5774720706098124e+00 
141 1 2 2.4999999999999925e+00 1.2107560299259671e+02 1.0000000000000000e+00 6.3533647248399499e+00 2.1641501127569578e+00 5.5857995709873656e+00 
168 1 2 2.4999999999999996e+00 4.6639975460955924e+01 1.0000000000000000e+00 6.1350382417048639e+00 3.3924757327673771e+00 5.7604403892705234e+00 
377 1 2 2.5000000000000040e+00 1.5269126218488691e+02 1.0000000000000000e+00 6.0847788628040576e+00 3.5186085973424603e+00 5.9076062895846722e+00 
61 1 2 2.5000000000000058e+00 -9.4226468445190335e+01 1.0000000000000000e+00 6.1446539393245230e+00 3.8690382226646509e+00 5.9815284091089840e+00 
156 1 2 2.4999999999999858e+00 -1.6479043198384903e+02 1.0000000000000000e+00 6.1911853636566061e+00 4.2401296313072381e+00 6.1071761873971226e+00 
142 1 2 2.4999999999999849e+00 2.1435107086146758e+02 1.0000000000000000e+00 6.1949322491063441e+00 4.2851980756489558e+00 6.1248851901256600e+00 
27 1 2 2.4999999999999911e+00 -2.0689175356008184e+02 1.0000000000000000e+00 6.3202787742301272e+00 5.8318577171485098e+00 6.2699917936723404e+00 
294 1 2 2.4999999999999716e+00 5.1169060201265040e+01 1.0000000000000000e+00 6.3991970770145112e+00 6.1313052500116010e+00 6.2495347218367776e+00 
248 1 2 2.4999999999999911e+00 1.5636999976047044e+01 1.0000000000000000e+00 6.5453361520103286e+00 6.4266915075409994e+00 6.2471339336333616e+00 
187 1 2 2.4999999999999947e+00 6.2436421299812366e+01 1.0000000000000000e+00 3.5149028593962357e+00 6.6485210428220913e+00 9.3912190274156551e+00 
48 1 2 2.5000000000000040e+00 1.6010398488770858e+02 1.0000000000000000e+00 3.6775244657675299e+00 6.4286607458831844e+00 9.5005866189522212e+00 
146 1 2 2.5000000000000062e+00 1.5549817998180464e+02 1.0000000000000000e+00 3.3095010321894374e+00 6.9741035077657179e+00 9.0331510039609739e+00 
175 1 2 2.4999999999999978e+00 2.9408174326393555e+02 1.0000000000000000e+00 3.3102489243168840e+00 7.3671283754882593e+00 8.6638322894709212e+00 
335 1 2 2.5000000000000036e+00 -1.3227262678531190e+02 1.0000000000000000e+00 3.4223933017161432e+00 6.6786971090321270e+00 9.2012376154594566e+00 
186 1 2 2.5000000000000178e+00 -2.8883442642030953e+01 1.0000000000000000e+00 3.9675090106806219e+00 6.7061075069912448e+00 7.7433982594641835e+00 
343 1 2 2.5000000000000182e+00 -1.8232744539762774e+02 1.0000000000000000e+00 3.4025881627203760e+00 6.8445013505424521e+00 9.2605694613603564e+00 
150 1 2 2.5000000000000324e+00 -3.2056438883422430e+01 1.0000000000000000e+00 4.0369154688393012e+00 6.9012687100527064e+00 7.5892059295973713e+00 
165 1 2 2.5000000000000120e+00 1.8262643766336552e+01 1.0000000000000000e+00 3.3377313022008792e+00 6.9381227512736761e+00 9.1219433086255961e+00 
170 1 2 2.5000000000000262e+00 2.5360883204449175e+02 1.0000000000000000e+00 4.3429720810558283e+00 6.9550435014345959e+00 7.3599373346994259e+00 
286 1 2 2.5000000000000195e+00 3.0186035110224260e+01 1.0000000000000000e+00 3.6866686977499361e+00 6.9803192328364920e+00 7.8695127779584766e+00 
144 1 2 2.5000000000000169e+00 3.6491727652703567e+01 1.0000000000000000e+00 5.1072949711963718e+00 7.2302820314653973e+00 6.8902602642971376e+00 
231 1 2 2.5000000000000062e+00 2.2081121846432971e+01 1.0000000000000000e+00 3.6313177203404239e+00 7.0762288610988566e+00 9.5919390915003131e+00 
275 1 2 2.5000000000000133e+00 1.5174063242344755e+02 1.0000000000000000e+00 3.3522116309958139e+00 7.4825696195473865e+00 8.8175110657971310e+00 
267 1 2 2.4999999999999489e+00 9.3067529170014836e+01 1.0000000000000000e+00 5.0346411026016513e+00 9.5597432150904407e+00 8.7344109344871832e+00 
129 1 2 2.5000000000000071e+00 -8.5867173249217672e+01 1.0000000000000000e+00 4.4312347449618557e+00 7.5231845780482400e+00 7.2938643562423113e+00 
285 1 2 2.5000000000000031e+00 -9.3142369837039666e+01 1.0000000000000000e+00 4.2415096225664666e+00 8.3546937416221194e+00 9.1696747238820553e+00 
20 1 2 2.4999999999999227e+00 -1.1540751200049030e+01 1.0000000000000000e+00 5.5163211217786046e+00 9.2367031610795074e+00 7.8479741309325419e+00 
100 1 2 2.4999999999999778e+00 -5.5382173678464440e+01 1.0000000000000000e+00 5.8439910867154579e+00 8.8086329514049222e+00 7.2762980839438089e+00 
339 1 2 2.4999999999999223e+00 3.3573000440580847e+02 1.0000000000000000e+00 6.0847919556602790e+00 9.7716371716425687e+00 7.7242343608717725e+00 
197 1 2 2.4999999999999818e+00 -1.9677564428615517e+02 1.0000000000000000e+00 6.4522197842195403e+00 9.7978404184397174e+00 7.5143747818324984e+00 
155 1 2 2.5000000000000306e+00 -1.7667275797108374e+01 1.0000000000000000e+00 6.5812397223869636e+00 9.9089064099553781e+00 7.4711974178870619e+00 
40 1 2 2.4999999999999671e+00 -1.1565218228997543e+02 1.0000000000000000e+00 6.6443912307220110e+00 9.1067364481357345e+00 7.1669611458727704e+00 
135 1 2 2.4999999999999583e+00 1.7915147650078683e+02 1.0000000000000000e+00 4.6988346944420547e+00 5.7565915339849782e+00 1.0065393678037317e+01 
99 1 2 2.5000000000000164e+00 5.9230990369451547e+01 1.0000000000000000e+00 5.5859854267727220e+00 5.4235156789188075e+00 1.1038538057010426e+01 
381 1 2 2.5000000000000169e+00 8.0554668667455758e+01 1.0000000000000000e+00 5.8606030668025708e+00 4.8947062165842832e+00 1.0906786906308918e+01 
319 1 2 2.5000000000000147e+00 2.5550384347814600e+02 1.0000000000000000e+00 5.8811373957388575e+00 4.9623982285842043e+00 1.1044343343506135e+01 
290 1 2 2.4999999999999596e+00 -8.6291387374683438e+01 1.0000000000000000e+00 5.6956035784460841e+00 5.9881935640925228e+00 1.1028939524319009e+01 
322 1 2 2.5000000000000044e+00 -1.3844272293889478e+02 1.0000000000000000e+00 5.7944859467426282e+00 5.3142960993003632e+00 1.1172591822318260e+01 
76 1 2 2.5000000000000022e+00 7.4322082006621969e+01 1.0000000000000000e+00 6.0308858521799218e+00 4.8376035594217974e+00 1.1105163262110390e+01 
334 1 2 2.4999999999999916e+00 -8.8158521942230408e+01 1.0000000000000000e+00 6.0814523040774970e+00 6.0160970275469898e+00 1.1082929621370761e+01 
32 1 2 2.4999999999999991e+00 -3.3494717927744333e+01 1.0000000000000000e+00 6.1905094331491775e+00 5.1621167655549725e+00 1.1341443727964318e+01 
358 1 2 2.4999999999999907e+00 1.4340426073978744e+01 1.0000000000000000e+00 6.2930254436270214e+00 5.5851759081806263e+00 1.1328278319147858e+01 
179 1 2 2.5000000000000093e+00 1.6579491687150994e+02 1.0000000000000000e+00 6.3384507616476276e+00 5.6754455586168993e+00 1.1300095723335637e+01 
249 1 2 2.4999999999999845e+00 -5.6118240539104903e+01 1.0000000000000000e+00 6.4434964368071048e+00 5.6724347182115764e+00 1.1301966753751039e+01 
250 1 2 2.5000000000000142e+00 -3.5157587486829414e+01 1.0000000000000000e+00 6.2420547712097934e+00 9.8427545639001188e+00 1.1510617791069778e+01 
159 1 2 2.5000000000000036e+00 1.0062379086234930e+02 1.0000000000000000e+00 5.5080770443968010e+00 9.6605741863182608e+00 1.0382982643360265e+01 
8 1 2 2.5000000000000169e+00 2.0889710673903402e+01 1.0000000000000000e+00 5.7585322397307257e+00 1.2097874587672592e+01 9.8297060088644930e+00 
262 1 2 2.5000000000000329e+00 3.0586495758418991e+01 1.0000000000000000e+00 5.0254932166721353e+00 1.0787241371588172e+01 9.0730259126348578e+00 
204 1 2 2.5000000000000289e+00 -1.0245262767919399e+02 1.0000000000000000e+00 5.0295711813771060e+00 1.0962796024356718e+01 9.1625652658048971e+00 
120 1 2 2.5000000000000289e+00 -3.0065949597271398e+01 1.0000000000000000e+00 4.7848188309608357e+00 1.0513161847077512e+01 9.6122137743995566e+00 
241 1 2 2.5000000000000027e+00 8.3603611393251782e+01 1.0000000000000000e+00 6.5953784070382602e+00 1.0919815514308521e+01 7.7428208081420902e+00 
82 1 2 2.4999999999999947e+00 5.2531941176993428e+01 1.0000000000000000e+00 5.8131470936973253e+00 1.1321217737583634e+01 1.1770667194020898e+01 
73 1 2 2.5000000000000000e+00 -1.4837484604682231e+02 1.0000000000000000e+00 5.1565420864536984e+00 1.1429547151944424e+01 1.1140970219313678e+01 
222 1 2 2.5000000000000315e+00 1.5830224139574749e+01 1.0000000000000000e+00 4.9611478163976530e+00 1.1256916843210062e+01 1.0953247573669650e+01 
263 1 2 2.5000000000000004e+00 5.6002155546450751e+01 1.0000000000000000e+00 5.3572978152908961e+00 1.1875976668620039e+01 1.0612752660039414e+01 
199 1 2 2.5000000000000044e+00 1.8211672613721902e+02 1.0000000000000000e+00 5.4419342061966782e+00 1.0884359494003727e+01 1.1716026181239167e+01 
70 1 2 2.5000000000000204e+00 3.5313495444073726e+02 1.0000000000000000e+00 5.4069193059034522e+00 1.0548776796910110e+01 1.1651461155759920e+01 
370 1 2 2.5000000000000058e+00 -5.4369753625108416e+01 1.0000000000000000e+00 6.3810406346953865e+00 1.0279472494472857e+01 1.2168176079315920e+01 
247 1 2 2.5000000000000240e+00 6.6725314859309364e+01 1.0000000000000000e+00 4.7436839388086423e+00 1.0917105072633824e+01 1.0332595482589438e+01 
208 1 2 2.5000000000000249e+00 -8.4343162195470825e+01 1.0000000000000000e+00 4.8564221766299731e+00 1.1324520813608832e+01 1.0318261760981718e+01 
313 1 2 2.4999999999999472e+00 -1.7921527211743734e+02 1.0000000000000000e+00 6.5321545996059998e+00 1.0632522546522997e+01 1.2276526225679161e+01 
118 1 2 2.4999999999999956e+00 1.3557373482975120e+02 1.0000000000000000e+00 7.1689556997035595e+00 1.5799419184931764e+00 5.8275726160693884e+00 
320 1 2 2.4999999999999964e+00 2.6443953950465402e+02 1.0000000000000000e+00 7.1474377382843670e+00 1.5864639408597194e+00 5.8182037482996982e+00 
180 1 2 2.5000000000000031e+00 1.8828610305256284e+01 1.0000000000000000e+00 6.7298341843070073e+00 1.8028271090391472e+00 5.6384652327815159e+00 
33 1 2 2.4999999999999933e+00 -3.6048367419450835e+02 1.0000000000000000e+00 7.3294623771183192e+00 1.5269922026000040e+00 5.9184674994214452e+00 
93 1 2 2.4999999999999973e+00 3.7057437888599907e+01 1.0000000000000000e+00 7.1308657030323568e+00 1.5943601342916820e+00 5.8074771764687316e+00 
85 1 2 2.4999999999999996e+00 9.7249119578260348e+01 1.0000000000000000e+00 6.9876820169130367e+00 1.6452907734155466e+00 5.7511811355674913e+00 
26 1 2 2.4999999999999911e+00 -2.9537705007016007e+02 1.0000000000000000e+00 7.4422684511524029e+00 1.4901944430812553e+00 5.9970261595880778e+00 
202 1 2 2.5000000000000004e+00 -5.9054218365048612e+01 1.0000000000000000e+00 6.8879079313027294e+00 1.7186959135366109e+00 5.6802346660290945e+00 
260 1 2 2.4999999999999765e+00 -1.4689848024072887e+02 1.0000000000000000e+00 6.8376940747485451e+00 6.1778526410306958e+00 6.1925782776351461e+00 
315 1 2 2.5000000000000191e+00 -7.1495835302975081e+01 1.0000000000000000e+00 7.1753169856805208e+00 6.7125981107787904e+00 6.3644734750294862e+00 
77 1 2 2.5000000000000266e+00 -1.2610954003131940e+02 1.0000000000000000e+00 7.3794053370517805e+00 6.7223159099931546e+00 6.4501590956585790e+00 
51 1 2 2.4999999999999796e+00 -2.2264093383398847e+02 1.0000000000000000e+00 6.8035328358323106e+00 6.7712452887049999e+00 6.3029102073843335e+00 
219 1 2 2.4999999999999782e+00 -1.3319229367938982e+02 1.0000000000000000e+00 6.9791626343475244e+00 6.9955227877239254e+00 6.3810978276175634e+00 
115 1 2 2.5000000000000053e+00 -8.1323608555876454e+00 1.0000000000000000e+00 6.8708301435471224e+00 1.9149633147171443e+00 7.2806623158086978e+00 
39 1 2 2.5000000000001563e+00 -1.1028459749351683e+02 1.0000000000000000e+00 9.4989019717727050e+00 1.2412210774650358e-01 9.0908340532826291e+00 
256 1 2 2.5000000000000058e+00 -1.1220646608429726e+02 1.0000000000000000e+00 8.3789967121744819e+00 1.4373591332103912e+00 7.6207591060033453e+00 
185 1 2 2.4999999999999991e+00 -1.1262186699065040e+01 1.0000000000000000e+00 8.4824261867950472e+00 2.4489754676932587e+00 9.1170487944277401e+00 
3 1 2 2.4999999999999871e+00 -2.4314131578749638e+02 1.0000000000000000e+00 8.9059498308409282e+00 8.0554782468517738e-01 8.9384893317086753e+00 
166 1 2 2.4999999999999774e+00 -1.4016281682873871e+01 1.0000000000000000e+00 9.1536841371263691e+00 3.8680068199984036e-01 9.0455789489909435e+00 
145 1 2 2.4999999999999845e+00 1.0657264850156776e+02 1.0000000000000000e+00 8.9504339977257583e+00 6.2527866210736815e-01 8.9863944544043548e+00 
323 1 2 2.5000000000000875e+00 2.7531711955305049e+01 1.0000000000000000e+00 8.4505663194895302e+00 2.4518420917869150e+00 8.0730645296167189e+00 
169 1 2 2.4999999999999925e+00 -8.7532929058889039e+01 1.0000000000000000e+00 8.4799648215502277e+00 2.4345153759262489e-01 9.6431153943283157e+00 
281 1 2 2.5000000000000440e+00 1.3190864948928757e+02 1.0000000000000000e+00 7.6699037148385356e+00 6.5988454081676498e+00 9.0960275936204766e+00 
307 1 2 2.4999999999999800e+00 1.2187425739861919e+02 1.0000000000000000e+00 8.3028388905885588e+00 3.6843396091848217e+00 8.0356809480079026e+00 
164 1 2 2.4999999999999551e+00 3.9997722533498171e+02 1.0000000000000000e+00 8.3090972512578727e+00 3.8476979420804702e+00 8.0003549849923807e+00 
133 1 2 2.4999999999999512e+00 1.7190826529028229e+02 1.0000000000000000e+00 8.3088009562608391e+00 3.9771900424601716e+00 8.0196090537480842e+00 
356 1 2 2.4999999999999534e+00 1.0280079828400974e+02 1.0000000000000000e+00 8.3119094165100051e+00 4.1127173358306637e+00 8.0545921044194806e+00 
119 1 2 2.4999999999999254e+00 -7.8927385487931172e+00 1.0000000000000000e+00 8.3169273595303377e+00 4.1558060660515084e+00 8.0510339946920322e+00 
253 1 2 2.5000000000001124e+00 3.4464360605741724e+01 1.0000000000000000e+00 8.2981355171443809e+00 4.1735164523388697e+00 8.1666882454312244e+00 
9 1 2 2.5000000000000497e+00 -2.1510824718948278e+01 1.0000000000000000e+00 8.1659104654909918e+00 5.4716629685949378e+00 6.9597303198672282e+00 
195 1 2 2.5000000000001026e+00 7.9192496784724966e+01 1.0000000000000000e+00 8.3395176259753647e+00 4.3826160655771353e+00 8.1269005308101967e+00 
35 1 2 2.4999999999999232e+00 5.6430912935120517e+01 1.0000000000000000e+00 8.9868503336381202e+00 5.8665909078468044e+00 9.6180377259681116e+00 
245 1 2 2.5000000000001323e+00 -1.3026657139897014e+02 1.0000000000000000e+00 8.6995726629372090e+00 6.5391937025108264e+00 8.0838395927460116e+00 
325 1 2 2.5000000000000240e+00 4.4978453332302024e+01 1.0000000000000000e+00 8.7599334092249617e+00 6.6264711769136113e+00 8.2191594516430992e+00 
154 1 2 2.4999999999999276e+00 -2.2810654441924401e+00 1.0000000000000000e+00 9.7101111146960157e+00 6.5586198124601234e+00 9.8196680965143006e+00 
60 1 2 2.5000000000000262e+00 -1.3472503058150261e+02 1.0000000000000000e+00 7.7346707179730956e+00 7.9117298130278906e+00 6.9373835691319110e+00 
183 1 2 2.4999999999999751e+00 -9.6568399513534814e+01 1.0000000000000000e+00 8.4743965575859121e+00 8.7768610471935897e+00 7.3310395723375112e+00 
309 1 2 2.4999999999999285e+00 7.2696860215892684e+01 1.0000000000000000e+00 8.6901299532081939e+00 7.1068337699349353e+00 8.6199344490056049e+00 
372 1 2 2.4999999999999964e+00 7.9912136111167769e+01 1.0000000000000000e+00 9.2698749437109100e+00 9.1638004342480368e+00 7.3430579690417472e+00 
255 1 2 2.4999999999999787e+00 -3.0980008423748916e+02 1.0000000000000000e+00 9.9179841418136672e+00 8.9109626910669792e+00 7.8138613332740308e+00 
209 1 2 2.4999999999999849e+00 -2.8340425093568260e+01 1.0000000000000000e+00 9.9392480358610165e+00 8.9366331333445146e+00 7.7956657431802991e+00 
291 1 2 2.4999999999998708e+00 3.6199900631777155e+01 1.0000000000000000e+00 1.0239249883772640e+01 8.2860628062737725e+00 8.5123556467807369e+00 
102 1 2 2.5000000000000271e+00 -1.9555080400615674e+02 1.0000000000000000e+00 1.0604883622039937e+01 9.2950151633014890e+00 7.8156738698709143e+00 
342 1 2 2.4999999999996567e+00 1.4176477903571070e+00 1.0000000000000000e+00 1.2083542304303123e+01 9.5118190351026168e+00 9.8112677961168817e+00 
363 1 2 2.5000000000000555e+00 -1.2403590390033133e+02 1.0000000000000000e+00 1.1752320758484236e+01 8.9899619556988988e+00 9.4931467961234990e+00 
300 1 2 2.5000000000000209e+00 1.2419962385013250e+02 1.0000000000000000e+00 1.0742127905812749e+01 9.2482281472702290e+00 7.9624206886484847e+00 
59 1 2 2.4999999999999085e+00 -2.9289992973199787e+02 1.0000000000000000e+00 1.1843906102404585e+01 9.4111584264506689e+00 9.5255450776986130e+00 
22 1 2 2.5000000000001692e+00 -2.8518482974300866e+02 1.0000000000000000e+00 1.1812169857580589e+01 9.4118598884512661e+00 9.4624526843159700e+00 
83 1 2 2.5000000000001141e+00 -9.1551395032189419e+01 1.0000000000000000e+00 1.1434009051756687e+01 9.2321210566382241e+00 8.8219644751828703e+00 
11 1 2 2.5000000000001452e+00 2.1828387590100928e+02 1.0000000000000000e+00 1.1133231977074294e+01 8.9874805695457471e+00 8.6214914846425792e+00 
15 1 2 2.5000000000000071e+00 -4.3900458887301470e+00 1.0000000000000000e+00 8.1928606986755863e+00 7.7108408506544235e-01 1.1540627538552231e+01 
380 1 2 2.5000000000000138e+00 -2.5336210873231217e+01 1.0000000000000000e+00 7.5442639436264702e+00 2.0654327751364514e+00 1.1157493581883140e+01 
194 1 2 2.4999999999999845e+00 6.8310747760878073e+01 1.0000000000000000e+00 7.6056309049929487e+00 1.7789772894969069e+00 1.1280013549620104e+01 
198 1 2 2.5000000000000075e+00 2.0008758632336853e+02 1.0000000000000000e+00 7.4445432890762371e+00 2.5571908583242413e+00 1.0901458347321766e+01 
34 1 2 2.5000000000000018e+00 -1.6571525889851250e+02 1.0000000000000000e+00 7.5448391808259743e+00 1.7710974872232552e+00 1.1226505033535068e+01 
79 1 2 2.5000000000000133e+00 -2.1032402307356944e+02 1.0000000000000000e+00 7.7643182519871781e+00 1.5042689721450255e+00 1.1426886562357092e+01 
217 1 2 2.5000000000000031e+00 -1.4690954462409132e+02 1.0000000000000000e+00 7.6453321177838358e+00 1.6514257760823396e+00 1.1331448152768418e+01 
366 1 2 2.5000000000000151e+00 7.8956832713096333e+01 1.0000000000000000e+00 7.9421128403042305e+00 1.2081111796206618e+00 1.1521929858506891e+01 
64 1 2 2.5000000000000084e+00 5.1688765881580238e+01 1.0000000000000000e+00 8.3492478264554801e+00 5.7782896804963013e-01 1.1524713020982714e+01 
207 1 2 2.5000000000000262e+00 3.2069944271984366e+02 1.0000000000000000e+00 7.5548436092580449e+00 1.9478811759803087e+00 1.1199906621217940e+01 
348 1 2 2.5000000000000009e+00 8.2756818465721295e+01 1.0000000000000000e+00 7.4165494043751874e+00 2.7260407497000112e+00 1.0822883966607183e+01 
353 1 2 2.4999999999999902e+00 3.6491614716211313e+02 1.0000000000000000e+00 7.3972458956934073e+00 2.8225553051991961e+00 1.0781310416119716e+01 
215 1 2 2.4999999999999685e+00 2.5029375687114060e+02 1.0000000000000000e+00 7.3325869703600697e+00 5.7886648630092425e+00 1.1057214175804411e+01 
108 1 2 2.5000000000000382e+00 -1.4577604120601228e+02 1.0000000000000000e+00 7.8212757350537645e+00 5.9207367546723404e+00 1.0807828431499980e+01 
71 1 2 2.4999999999998650e+00 -1.7126831414047246e+02 1.0000000000000000e+00 9.3247156521278516e+00 6.6474533463652454e+00 1.0384626202025430e+01 
371 1 2 2.5000000000000164e+00 -1.4988669105215820e+02 1.0000000000000000e+00 9.7799881362087291e+00 6.6282016341111465e+00 1.0285869899753344e+01 
233 1 2 2.4999999999999005e+00 -8.6827542443576391e+01 1.0000000000000000e+00 6.6768248351655304e+00 9.9153223683921521e+00 1.1928233377411862e+01 
114 1 2 2.5000000000000204e+00 -1.0009334989939063e+02 1.0000000000000000e+00 8.7814890757105157e+00 9.5049351208501918e+00 1.2969991995022646e+01 
276 1 2 2.5000000000000133e+00 -2.9364604485721284e+01 1.0000000000000000e+00 8.0954516670011216e+00 9.8380517018751092e+00 1.2756014836240327e+01 
89 1 2 2.5000000000000124e+00 -5.2085641599548694e+01 1.0000000000000000e+00 8.7001479150028196e+00 9.6649634928617463e+00 1.3039070426444306e+01 
152 1 2 2.5000000000000018e+00 6.2401361557587180e+01 1.0000000000000000e+00 8.2296498589468232e+00 9.7556293322099226e+00 1.2793138541259516e+01 
167 1 2 2.5000000000000204e+00 -1.4042118038483920e+02 1.0000000000000000e+00 7.5773400987293078e+00 9.9973300610025433e+00 1.2524068265442798e+01 
351 1 2 2.5000000000000182e+00 -1.9071890879024136e+02 1.0000000000000000e+00 8.7445872992362048e+00 9.6744316399687929e+00 1.3067036132391113e+01 
352 1 2 2.5000000000000151e+00 -9.1937449376934381e+01 1.0000000000000000e+00 8.7127072068355460e+00 9.7325005218940266e+00 1.3077824651522238e+01 
288 1 2 2.5000000000000244e+00 -6.3527096818235037e+01 1.0000000000000000e+00 9.2550573625703727e+00 9.6134291700543990e+00 1.3252417616812666e+01 
63 1 2 2.5000000000000546e+00 -3.4947436357070515e+01 1.0000000000000000e+00 9.7284715523381156e+00 6.8692718576511531e+00 1.0746748470928402e+01 
16 1 2 2.4999999999999281e+00 -1.9126509586915233e+02 1.0000000000000000e+00 9.8299726953172453e+00 9.1968330775208518e+00 1.1858316016735312e+01 
23 1 2 2.5000000000000506e+00 -6.7857882812812676e+01 1.0000000000000000e+00 9.9630950889772816e+00 7.2579599247427620e+00 1.1357906562481165e+01 
355 1 2 2.5000000000000160e+00 1.6694353750176467e+02 1.0000000000000000e+00 1.0584047333394837e+01 6.9235551855840285e+00 1.0937635757717644e+01 
143 1 2 2.4999999999999933e+00 6.9357450894614402e+01 1.0000000000000000e+00 1.1005431006495021e+01 7.0756825853478587e+00 1.1227689274154651e+01 
310 1 2 2.5000000000000315e+00 1.4121331938080669e+02 1.0000000000000000e+00 1.0415022750897402e+01 7.0032850193252472e+00 1.1184468201385487e+01 
116 1 2 2.5000000000000355e+00 -1.2275052246012379e+02 1.0000000000000000e+00 1.0219196799492964e+01 7.0392503976326894e+00 1.1202671658360069e+01 
216 1 2 2.5000000000000293e+00 2.0754866585782560e+02 1.0000000000000000e+00 1.0729659942421220e+01 6.9817109788919813e+00 1.1070717127933779e+01 
214 1 2 2.5000000000000120e+00 -1.4520089103059348e+02 1.0000000000000000e+00 1.2418100193551812e+01 7.7294251921459214e+00 1.2429686726425553e+01 
101 1 2 2.5000000000000204e+00 1.7055528435489120e+02 1.0000000000000000e+00 1.2364399593285061e+01 7.6179350298660209e+00 1.1894548411376332e+01 
243 1 2 2.5000000000000369e+00 -8.9750904128147909e+01 1.0000000000000000e+00 1.2693792970420620e+01 7.7939546937492485e+00 1.2262225838342985e+01 
232 1 2 2.5000000000000200e+00 1.2053578898865058e+02 1.0000000000000000e+00 1.2347607267600793e+01 7.9311247913741401e+00 1.0850675699142759e+01 
330 1 2 2.5000000000000093e+00 -1.3636045578944294e+02 1.0000000000000000e+00 1.2411570647379550e+01 7.7583418881493778e+00 1.2518880288599384e+01 
191 1 2 2.4999999999999853e+00 -1.9278030698525083e+02 1.0000000000000000e+00 1.3122130382891084e+01 8.0460167713211241e+00 1.2497676304109110e+01 
88 1 2 2.4999999999999369e+00 2.7187551447606313e+02 1.0000000000000000e+00 9.9165123411527585e+00 9.8821614722134221e+00 1.3495408427937875e+01 
52 1 2 2.4999999999999614e+00 -3.0247533987218060e+02 1.0000000000000000e+00 9.8543046153435512e+00 9.9524711938138974e+00 1.3483959570158298e+01 
110 1 2 2.4999999999999361e+00 1.5021857712423929e+02 1.0000000000000000e+00 9.9806854683338084e+00 9.6616261470027389e+00 1.3478425744290721e+01 
341 1 2 2.5000000000000049e+00 2.9762300700488211e+01 1.0000000000000000e+00 1.1973365002857676e+01 9.5077575519506912e+00 1.3988988726128035e+01 
292 1 2 2.4999999999999658e+00 1.2733838782951641e+02 1.0000000000000000e+00 1.0866489061696905e+01 9.6525955881192438e+00 1.3720546888486393e+01 
282 1 2 2.5000000000000164e+00 1.8530587521102720e+02 1.0000000000000000e+00 1.1327215336793641e+01 9.4948463498123807e+00 1.3818765551479949e+01 
337 1 2 2.5000000000000320e+00 6.5840771441178447e+01 1.0000000000000000e+00 1.2768448519547896e+01 9.8599751748538509e+00 1.4203405901940849e+01 
283 1 2 2.4999999999999769e+00 -1.7178880563324367e+02 1.0000000000000000e+00 1.2267820030968224e+01 8.9264095785807687e+00 1.3809325890452584e+01 
287 1 2 2.5000000000000191e+00 3.1275309000726247e+02 1.0000000000000000e+00 1.3324147758054345e+01 9.2032793276238873e+00 1.3927620672582572e+01 
221 1 2 2.4999999999999445e+00 1.5659541662650540e+02 1.0000000000000000e+00 1.0269665630551780e+01 1.9447224021172524e+01 6.3558368554287741e+00 
244 1 2 2.4999999999999285e+00 5.4624806041430247e+01 1.0000000000000000e+00 1.0290061493050006e+01 1.9434110878563747e+01 6.3446880471658007e+00 
140 1 2 2.4999999999999725e+00 1.1134860087507454e+02 1.0000000000000000e+00 1.0319346288642302e+01 1.9407586285015842e+01 6.3264602198029838e+00 
279 1 2 2.4999999999999347e+00 5.0509111749818857e+01 1.0000000000000000e+00 1.0355156712915647e+01 1.9383740333768639e+01 6.3074819264979851e+00 
237 1 2 2.4999999999999387e+00 -1.6451126686819828e+02 1.0000000000000000e+00 1.0384543748388442e+01 1.9362713107034832e+01 6.2918431898568512e+00 
1 1 2 2.4999999999999738e+00 -1.8197107625229199e+02 1.0000000000000000e+00 1.0477841932732844e+01 1.9296798900005673e+01 6.2448757906413528e+00 
182 1 2 2.4999999999999609e+00 1.5432121697938891e+02 1.0000000000000000e+00 1.1962197973988589e+01 1.8351036482405114e+01 6.0980543130577933e+00 
69 1 2 2.5000000000000058e+00 1.3463277263494732e+02 1.0000000000000000e+00 1.3041381296892441e+01 1.7560143252348404e+01 6.1382297757192994e+00 
270 1 2 2.4999999999999649e+00 -3.8389985089595513e+01 1.0000000000000000e+00 1.1378433403398343e+01 1.8740135356552571e+01 6.0255592866290444e+00 
193 1 2 2.4999999999999543e+00 -5.7772425906053826e+01 1.0000000000000000e+00 1.0632671126204659e+01 1.9194582342158810e+01 6.1772395504093272e+00 
224 1 2 2.4999999999999494e+00 1.1237967204496522e+02 1.0000000000000000e+00 1.2888159570706540e+01 1.7645221870248694e+01 6.1973037028626159e+00 
268 1 2 2.4999999999999627e+00 6.5745112964868639e+01 1.0000000000000000e+00 1.1892332059138385e+01 1.8374939342215619e+01 6.0784488042037452e+00 
235 1 2 2.4999999999999232e+00 5.6380909741983643e+01 1.0000000000000000e+00 1.0355115628564647e+01 1.9529335008654556e+01 6.3712057533052011e+00 
138 1 2 2.4999999999999689e+00 -3.5136969314503006e+01 1.0000000000000000e+00 8.9222514848136019e+00 1.0966720014880664e+01 6.8815741838851121e+00 
327 1 2 2.4999999999999689e+00 -1.3609572144405223e+02 1.0000000000000000e+00 8.7880022306244303e+00 1.1127817068515482e+01 6.9359897789130533e+00 
289 1 2 2.4999999999999813e+00 -6.6659156045705913e+01 1.0000000000000000e+00 8.6383743730973190e+00 1.1158621682644819e+01 6.9712501249661853e+00 
340 1 2 2.5000000000000000e+00 2.7798490185803166e+02 1.0000000000000000e+00 7.7662074174436935e+00 1.0722781468109829e+01 7.1144336802922847e+00 
94 1 2 2.4999999999999987e+00 -1.6590697736414592e+02 1.0000000000000000e+00 9.5983887016169795e+00 1.1801784956884893e+01 7.2452697720996397e+00 
131 1 2 2.4999999999999551e+00 3.2971421578022438e+02 1.0000000000000000e+00 8.4438375746058085e+00 1.2608160547668087e+01 9.8265940850445226e+00 
376 1 2 2.4999999999999556e+00 7.1785233516764350e+01 1.0000000000000000e+00 8.2219521211262059e+00 1.2586890184918325e+01 9.3804820186229723e+00 
314 1 2 2.5000000000000511e+00 -1.0592673659834571e+02 1.0000000000000000e+00 8.8125309782653929e+00 1.2888437947555346e+01 9.5207753038791054e+00 
139 1 2 2.5000000000000675e+00 9.0129806113345964e+01 1.0000000000000000e+00 9.9406741706911692e+00 1.2869474500869064e+01 8.7612227410940147e+00 
324 1 2 2.5000000000000004e+00 -1.6273609137066700e+02 1.0000000000000000e+00 6.9488428204873181e+00 1.2299711080011171e+01 9.4390509524619439e+00 
364 1 2 2.4999999999999614e+00 3.2858346544791665e+01 1.0000000000000000e+00 7.9774934670364779e+00 1.2490043850222030e+01 9.2193105613967354e+00 
196 1 2 2.5000000000000142e+00 -1.0040981170082398e+02 1.0000000000000000e+00 7.0796135762337356e+00 1.2280891751337817e+01 9.2433502824543670e+00 
230 1 2 2.4999999999999996e+00 2.9399033680581006e+01 1.0000000000000000e+00 7.0799177895552052e+00 1.2236052310280495e+01 9.0652540560984871e+00 
251 1 2 2.4999999999999840e+00 -1.9944855482834726e+02 1.0000000000000000e+00 7.6679984779316444e+00 1.1968744991916770e+01 8.0181841613253546e+00 
134 1 2 2.5000000000000266e+00 2.3626682530694873e+02 1.0000000000000000e+00 6.8650447293943664e+00 1.0110994258199456e+01 7.3717811103878548e+00 
7 1 2 2.5000000000000764e+00 3.1045099196156890e+01 1.0000000000000000e+00 9.9712731099865746e+00 1.2584440008482160e+01 8.2114887821979146e+00 
117 1 2 2.4999999999999751e+00 9.1454421998232419e+01 1.0000000000000000e+00 1.0017034915120258e+01 1.1145467901139803e+01 7.0303291061629043e+00 
128 1 2 2.4999999999999907e+00 -8.9644375904085791e+01 1.0000000000000000e+00 1.0018989223058361e+01 1.1645763327550535e+01 7.2300778751812080e+00 
302 1 2 2.5000000000000049e+00 8.9508843860106026e+01 1.0000000000000000e+00 1.0428255129550797e+01 1.1738045605734355e+01 7.4061893782565980e+00 
362 1 2 2.5000000000000195e+00 -2.3808858620944477e+02 1.0000000000000000e+00 1.1431899642381547e+01 1.1918123001464750e+01 7.8268818417668440e+00 
98 1 2 2.5000000000000160e+00 1.1093605247760985e+02 1.0000000000000000e+00 1.1202853612597908e+01 1.1809923038790899e+01 7.7103743611841233e+00 
58 1 2 2.4999999999999920e+00 -9.9552046801609961e+01 1.0000000000000000e+00 1.0542655175320688e+01 1.2978394510088899e+01 9.2427060773021061e+00 
12 1 2 2.4999999999999325e+00 -1.0657463333376734e+02 1.0000000000000000e+00 1.2807187344088042e+01 1.0623864490638594e+01 9.3562964282480436e+00 
242 1 2 2.5000000000001465e+00 1.8225089635855099e+02 1.0000000000000000e+00 1.2817958520880907e+01 1.0272330609544250e+01 9.7939500668620116e+00 
365 1 2 2.4999999999999658e+00 1.0487576774878406e+01 1.0000000000000000e+00 1.0614625970229858e+01 1.0540557608145120e+01 7.2242008744594006e+00 
190 1 2 2.4999999999999876e+00 4.4528136865572296e+00 1.0000000000000000e+00 1.2446694010764748e+01 1.3549290103472842e+01 7.7706389103394988e+00 
75 1 2 2.4999999999999383e+00 9.5854962588921495e+01 1.0000000000000000e+00 1.2787485933156519e+01 1.6492621373930550e+01 7.0956230711165933e+00 