LAMMPS data file via write_data, version 30 Jul 2016, timestep = 50400000

180 atoms
2 atom types

0.0000000000000000e+00 2.0000000000000000e+01 xlo xhi
0.0000000000000000e+00 2.0000000000000000e+01 ylo yhi
0.0000000000000000e+00 2.0000000000000000e+01 zlo zhi

Masses

1 3.896
2 4.31

Atoms # meso-molecular

144 1 2 1.0279999999999891e+00 2.8434089036863540e+01 1.0000000000000000e+00 6.6664573537680187e+00 8.3433474393480438e+00 9.7131258315175550e+00 
149 1 2 1.0279999999999991e+00 -3.7422907010451553e+01 1.0000000000000000e+00 9.9289668418749120e+00 1.6734666374728930e+00 6.4431761616318433e+00 
82 1 2 1.0279999999999929e+00 6.7555618465233735e+01 1.0000000000000000e+00 9.3763725429025104e+00 2.8748098780885711e+00 5.8226164952226744e+00 
168 1 2 1.0279999999999929e+00 -8.1677244852580543e+01 1.0000000000000000e+00 1.0014303240015465e+01 1.8634881138003911e+00 5.5473231303762738e+00 
171 1 2 1.0279999999999985e+00 3.9241580988191693e+01 1.0000000000000000e+00 1.0044797243434703e+01 1.5731771745419481e+00 6.2786466950177457e+00 
116 1 2 1.0279999999999965e+00 -9.3897641841170014e+01 1.0000000000000000e+00 1.0379028350563674e+01 1.4413101990786878e+00 6.2690019553006007e+00 
65 1 2 1.0279999999999976e+00 -2.4658276391163980e+01 1.0000000000000000e+00 1.0545647173506454e+01 1.4599078927071205e+00 5.7244967837645024e+00 
143 1 2 1.0279999999999976e+00 -8.8435982821665903e+01 1.0000000000000000e+00 1.1245856888404660e+01 1.5289959641498401e+00 5.9913239540413166e+00 
112 1 2 1.0279999999999940e+00 -1.1781467799991400e+02 1.0000000000000000e+00 1.1241939753298990e+01 1.6827202818572682e+00 5.5592295064079815e+00 
29 1 2 1.0279999999999998e+00 -1.2925628236263748e+02 1.0000000000000000e+00 1.1579693320613130e+01 1.8963632146420857e+00 6.4062172946160478e+00 
14 1 2 1.0279999999999905e+00 -1.4471897373588934e+02 1.0000000000000000e+00 1.0588929783191013e+01 1.8497917388737923e+00 5.2765457277987311e+00 
173 1 2 1.0279999999999871e+00 -1.6735570007832965e+02 1.0000000000000000e+00 1.1500987612563126e+01 1.9695704341031404e+00 5.5541425517714069e+00 
108 1 2 1.0279999999999800e+00 -3.9018389242250819e+01 1.0000000000000000e+00 1.1729552444803675e+01 2.0703114985888882e+00 6.1288231086400966e+00 
172 1 2 1.0280000000000229e+00 -2.0514811590117574e+01 1.0000000000000000e+00 1.1840741887574913e+01 2.5667749169093654e+00 6.0202533114777355e+00 
20 1 2 1.0279999999999967e+00 -2.0604197500543455e+02 1.0000000000000000e+00 1.1419269218585621e+01 2.8591323538138087e+00 5.4141108189788536e+00 
133 1 2 1.0280000000000076e+00 3.9520310480334544e+00 1.0000000000000000e+00 1.1715281021951553e+01 2.9836099306120167e+00 5.8057903167153242e+00 
147 1 2 1.0280000000000007e+00 -3.7660767576990366e+01 1.0000000000000000e+00 1.1514088313720581e+01 3.3102961245870355e+00 5.7168386357308734e+00 
138 1 2 1.0280000000000029e+00 -2.6242003744283821e+01 1.0000000000000000e+00 9.3482728153239041e+00 6.1651201789292500e+00 5.1856862270455260e+00 
180 1 2 1.0279999999999994e+00 5.6883160819996746e+01 1.0000000000000000e+00 9.4864237555249904e+00 6.1823983911095430e+00 5.1421849162030533e+00 
26 1 2 1.0280000000000145e+00 -1.0645046428982988e+02 1.0000000000000000e+00 9.0739750746711696e+00 6.1892814517338124e+00 5.2911249008481702e+00 
33 1 2 1.0280000000000085e+00 -9.9253700134720106e+01 1.0000000000000000e+00 9.4779507791223416e+00 6.2892322491714152e+00 5.0638838456448676e+00 
87 1 2 1.0280000000000209e+00 2.2371059831814938e+02 1.0000000000000000e+00 1.0400377021894855e+01 5.1231867737885954e+00 5.9639145305327501e+00 
18 1 2 1.0280000000000249e+00 4.7685040963036656e+01 1.0000000000000000e+00 1.1552717175093164e+01 4.1860168178111667e+00 6.3767974092863486e+00 
77 1 2 1.0279999999999607e+00 -1.2681661402652472e+02 1.0000000000000000e+00 1.1850819398792162e+01 6.3044061552765909e+00 6.6564448099621636e+00 
55 1 2 1.0280000000000007e+00 -5.2385041072663633e+01 1.0000000000000000e+00 9.5539713522171166e+00 7.0158146668002752e+00 4.6740082110654182e+00 
167 1 2 1.0279999999999976e+00 2.0112986412387130e+01 1.0000000000000000e+00 9.8598779256060851e+00 6.7413891743967884e+00 4.7773774008909813e+00 
101 1 2 1.0280000000000054e+00 6.3413415772473201e+01 1.0000000000000000e+00 9.6468962727705314e+00 7.2115473660979639e+00 4.6267051344416483e+00 
92 1 2 1.0279999999999943e+00 -5.0558996569812294e+01 1.0000000000000000e+00 9.3231044686795652e+00 7.8150104435477221e+00 4.8513173290026090e+00 
164 1 2 1.0279999999999867e+00 2.2435765751215592e+02 1.0000000000000000e+00 9.4394097306055311e+00 7.5773024434045260e+00 4.6991840636736919e+00 
102 1 2 1.0279999999999914e+00 3.7452780499316077e+01 1.0000000000000000e+00 9.8160413234786503e+00 7.8067988340315990e+00 4.7162860166898897e+00 
135 1 2 1.0280000000000236e+00 2.6959153034712187e+01 1.0000000000000000e+00 9.5565004087283150e+00 8.2260939276699094e+00 5.0539741390697861e+00 
17 1 2 1.0279999999999909e+00 -5.2315051134005472e+01 1.0000000000000000e+00 9.7270230642965405e+00 7.8477976910452751e+00 4.7369924576285900e+00 
36 1 2 1.0280000000000364e+00 9.1800236057417919e+01 1.0000000000000000e+00 9.8882458237780266e+00 8.6695563641976428e+00 5.5262193070425782e+00 
151 1 2 1.0280000000000289e+00 -4.6282103706519351e+01 1.0000000000000000e+00 1.0227509126234013e+01 8.5365748412028655e+00 5.3690855204037673e+00 
115 1 2 1.0280000000000233e+00 7.5942705571820454e+01 1.0000000000000000e+00 1.0552980714960146e+01 8.3653611589252961e+00 5.3300901516331107e+00 
22 1 2 1.0279999999999681e+00 -3.2852315344590281e+01 1.0000000000000000e+00 1.2254999384999744e+01 8.5998316853401935e+00 6.5842276596398204e+00 
52 1 2 1.0279999999999931e+00 -1.0630564780240300e+02 1.0000000000000000e+00 9.3141885862402507e+00 2.5018316786030432e+00 7.0375314657870769e+00 
150 1 2 1.0280000000000018e+00 9.7569679330179770e+00 1.0000000000000000e+00 8.7991612487564250e+00 3.2218247726464404e+00 6.8769919457992525e+00 
43 1 2 1.0280000000000129e+00 -5.1064778599106447e+01 1.0000000000000000e+00 8.5530845177412615e+00 3.5165225630630808e+00 7.4137531694310130e+00 
59 1 2 1.0280000000000116e+00 -3.4033793377960961e+01 1.0000000000000000e+00 8.5589558591282611e+00 3.5115159326606458e+00 7.3747254485064992e+00 
70 1 2 1.0280000000000065e+00 4.8550522746827554e+01 1.0000000000000000e+00 7.9045899999977749e+00 4.4148779144026244e+00 7.2977526095153422e+00 
166 1 2 1.0279999999999900e+00 -8.2251730428079981e+01 1.0000000000000000e+00 7.7346365179916337e+00 4.5716490536998169e+00 7.4963359063132984e+00 
44 1 2 1.0279999999999958e+00 -3.7640219918132217e+01 1.0000000000000000e+00 8.0373591592960967e+00 4.2031082612436794e+00 7.2827461048579742e+00 
117 1 2 1.0279999999999965e+00 1.0034233399087631e+02 1.0000000000000000e+00 7.6212734740140586e+00 5.3000096206828200e+00 7.4649672099262361e+00 
98 1 2 1.0280000000000067e+00 4.2710804047948507e+01 1.0000000000000000e+00 8.6744069992067825e+00 3.3797211415739223e+00 7.1565696728828492e+00 
153 1 2 1.0280000000000222e+00 5.1752652819311663e+01 1.0000000000000000e+00 7.7006790063621766e+00 4.2590527380419045e+00 8.1960255485742071e+00 
128 1 2 1.0279999999999756e+00 1.8740252942796309e+02 1.0000000000000000e+00 7.7099974784459224e+00 6.1150627524627597e+00 7.8741804829238058e+00 
94 1 2 1.0280000000000094e+00 -1.0338527816197523e+01 1.0000000000000000e+00 7.7628323530922465e+00 6.1390633501591152e+00 7.8036238707985017e+00 
129 1 2 1.0280000000000225e+00 5.0422473980859039e+01 1.0000000000000000e+00 7.8921042043390690e+00 6.1994555138165870e+00 7.6233022143131377e+00 
75 1 2 1.0280000000000007e+00 1.2619317962215553e+02 1.0000000000000000e+00 7.8383188529061112e+00 6.2171833027827521e+00 7.7649479687473786e+00 
96 1 2 1.0279999999999867e+00 3.4931514887533224e+00 1.0000000000000000e+00 7.1549476468959252e+00 6.0159136951715277e+00 9.3792104146879538e+00 
140 1 2 1.0279999999999960e+00 -4.0090241567368977e+01 1.0000000000000000e+00 8.0388991669067629e+00 6.4086505900569941e+00 7.7172892391595687e+00 
58 1 2 1.0279999999999858e+00 4.7084887767842964e+01 1.0000000000000000e+00 8.0957587496373264e+00 6.4176654990750208e+00 7.5893379009719970e+00 
71 1 2 1.0279999999999923e+00 -6.8749435030053007e+01 1.0000000000000000e+00 7.6343603744315729e+00 4.2341738048410704e+00 9.8121825925317712e+00 
162 1 2 1.0280000000000615e+00 1.1509781890327993e+01 1.0000000000000000e+00 1.1656852720146482e+01 4.7762511626976050e+00 6.8140988769116415e+00 
53 1 2 1.0279999999999694e+00 -9.3904357670663842e+01 1.0000000000000000e+00 1.1377392264044573e+01 4.2043174712268856e+00 9.2230958394055396e+00 
83 1 2 1.0279999999999156e+00 7.4434141063912289e+00 1.0000000000000000e+00 1.2310184524049715e+01 6.0487408596686363e+00 7.5279835404024356e+00 
154 1 2 1.0279999999999809e+00 -5.8560310218280396e+00 1.0000000000000000e+00 1.1195791957109233e+01 4.1942222670348457e+00 9.4822833326477127e+00 
123 1 2 1.0279999999999911e+00 1.8781201902650531e+02 1.0000000000000000e+00 1.1214153692475540e+01 4.1384290007131961e+00 9.4133499458380019e+00 
91 1 2 1.0280000000000558e+00 -1.5028886982382073e+02 1.0000000000000000e+00 1.2285646283961686e+01 5.9620140169097890e+00 7.8031353470227849e+00 
10 1 2 1.0279999999999840e+00 -5.0002913209235281e+01 1.0000000000000000e+00 1.1236391945389798e+01 4.1246246495075685e+00 9.3686810577105888e+00 
97 1 2 1.0279999999999521e+00 -4.4584061403567556e+00 1.0000000000000000e+00 1.1516767784757965e+01 4.2835200836435128e+00 9.0702764959505497e+00 
1 1 2 1.0279999999999565e+00 -2.8995723936131867e+01 1.0000000000000000e+00 1.1558731849984461e+01 4.3066651185707832e+00 9.0215690691504751e+00 
105 1 2 1.0279999999999416e+00 6.9595937655186120e+01 1.0000000000000000e+00 1.1715362482502778e+01 4.6554175091915644e+00 8.8981612654874915e+00 
68 1 2 1.0279999999999232e+00 2.4263942637162025e+01 1.0000000000000000e+00 1.2024370806860995e+01 5.5884374062184481e+00 8.2862681651993082e+00 
114 1 2 1.0279999999999767e+00 5.6699593465506464e+00 1.0000000000000000e+00 1.1280501247505715e+01 4.2487603033009353e+00 9.3916751570830179e+00 
155 1 2 1.0279999999999689e+00 -3.6915992721133293e+01 1.0000000000000000e+00 1.1348923425704447e+01 4.3933853703044914e+00 9.3541040523836614e+00 
69 1 2 1.0280000000000644e+00 1.1836596034304816e+02 1.0000000000000000e+00 1.2520339186346247e+01 6.5977803719448307e+00 7.6013499686033503e+00 
37 1 2 1.0280000000000307e+00 -8.9944672235107447e+01 1.0000000000000000e+00 1.0648283007574680e+01 3.8331863353786453e+00 9.9152876640750485e+00 
157 1 2 1.0280000000000353e+00 -1.2584311450663230e+02 1.0000000000000000e+00 8.9159753190625093e+00 9.3526556801681267e+00 7.9796383294030084e+00 
60 1 2 1.0280000000000360e+00 2.9143639427177142e+01 1.0000000000000000e+00 8.4343825392702900e+00 9.7192235475913300e+00 8.2918840500946001e+00 
72 1 2 1.0279999999998923e+00 2.7394139203377364e+01 1.0000000000000000e+00 8.8443266907026636e+00 9.8797492859315312e+00 8.1481192312405870e+00 
3 1 2 1.0279999999997749e+00 -1.3352312114764106e+02 1.0000000000000000e+00 9.5739189520268706e+00 8.9932161202722991e+00 7.4110404336636746e+00 
163 1 2 1.0280000000000060e+00 2.2643477910624662e+02 1.0000000000000000e+00 9.6205585711489050e+00 9.1097833682434022e+00 6.9066949563783355e+00 
23 1 2 1.0280000000000544e+00 6.3171655433978047e-01 1.0000000000000000e+00 8.0424463987169634e+00 9.5495123350938034e+00 8.4206129947032498e+00 
80 1 2 1.0280000000001408e+00 2.4646147814164483e+01 1.0000000000000000e+00 9.9331223435310196e+00 9.6599835429298686e+00 7.1864097793817736e+00 
2 1 2 1.0280000000000471e+00 7.1046539371143957e+00 1.0000000000000000e+00 7.2721746354336245e+00 8.8230906288808129e+00 8.6818684586125663e+00 
158 1 2 1.0279999999999843e+00 1.0040302461687602e+02 1.0000000000000000e+00 7.3295034218562281e+00 9.8938963546099465e+00 9.5516651475346475e+00 
13 1 2 1.0279999999999982e+00 -1.0626541220951967e+01 1.0000000000000000e+00 6.7140274473294079e+00 8.9779628730114158e+00 9.6143915466129997e+00 
74 1 2 1.0279999999999885e+00 -1.1350055532745864e+02 1.0000000000000000e+00 6.9190063041624903e+00 9.5281243618899634e+00 9.7672751532962980e+00 
132 1 2 1.0280000000000302e+00 1.7324240841550910e+01 1.0000000000000000e+00 1.2765849911725347e+01 7.1714256369068021e+00 7.4668352356534005e+00 
39 1 2 1.0279999999999618e+00 -3.1265308890633552e+01 1.0000000000000000e+00 1.2618195144438499e+01 8.6928611159615912e+00 6.8711635744746049e+00 
119 1 2 1.0279999999999059e+00 2.4067548762490517e+01 1.0000000000000000e+00 1.2954189349154611e+01 8.3917866372856658e+00 7.2014270406402678e+00 
131 1 2 1.0279999999999163e+00 4.9959033272317171e+01 1.0000000000000000e+00 1.3063919120578980e+01 8.9881645579348781e+00 7.4171839151321661e+00 
81 1 2 1.0280000000000662e+00 2.1087708468214589e+02 1.0000000000000000e+00 1.2944203890349952e+01 7.8961663756742775e+00 7.2494085359645215e+00 
62 1 2 1.0279999999998943e+00 1.3004422406332782e+02 1.0000000000000000e+00 1.3037786114988753e+01 8.5858031916031070e+00 7.3974998530829845e+00 
89 1 2 1.0280000000000542e+00 -1.1492122698124194e+02 1.0000000000000000e+00 1.2714629237058251e+01 7.0633304799782843e+00 7.5345832163674329e+00 
176 1 2 1.0280000000000971e+00 -4.5186868623450408e+01 1.0000000000000000e+00 1.2972477115351946e+01 7.9295679554771024e+00 7.5198880033651880e+00 
79 1 2 1.0280000000000982e+00 -9.9781904717288427e+01 1.0000000000000000e+00 1.3013223018841527e+01 8.9270544438932085e+00 8.3669151034500775e+00 
122 1 2 1.0280000000000398e+00 1.4670762834780317e+02 1.0000000000000000e+00 1.2772437237498128e+01 7.2027682613891111e+00 7.4994645095054846e+00 
170 1 2 1.0279999999999871e+00 4.9698568557054763e+00 1.0000000000000000e+00 7.5382190829014997e+00 6.2255648894416735e+00 1.0607047884797039e+01 
107 1 2 1.0279999999999978e+00 -4.2828376801888680e+01 1.0000000000000000e+00 7.5865221181983351e+00 6.0943986230281570e+00 1.0678507742126767e+01 
111 1 2 1.0279999999999900e+00 4.0500916040063892e+01 1.0000000000000000e+00 7.4818007642320437e+00 5.0912528993003487e+00 1.0614509171662924e+01 
9 1 2 1.0280000000000435e+00 6.0580788867759992e+01 1.0000000000000000e+00 8.2290568023060739e+00 6.4426986917245230e+00 1.0689008322850990e+01 
61 1 2 1.0279999999999947e+00 1.0011606054024590e+01 1.0000000000000000e+00 8.0705037281671643e+00 4.6196960279825694e+00 1.1263481818936333e+01 
30 1 2 1.0280000000000127e+00 -1.9347654166738215e+02 1.0000000000000000e+00 8.1280195571085976e+00 3.8421583173036553e+00 1.0287409223656539e+01 
46 1 2 1.0280000000000222e+00 -2.6366085681511660e+01 1.0000000000000000e+00 8.7215302769909062e+00 5.5653215508294336e+00 1.1193483882093112e+01 
106 1 2 1.0280000000000025e+00 2.3820639962050006e+01 1.0000000000000000e+00 8.6197666288166737e+00 4.6616646548071738e+00 1.1505060595818030e+01 
41 1 2 1.0279999999999936e+00 2.7517412890322559e+00 1.0000000000000000e+00 8.7623812982970382e+00 4.2861341933510584e+00 1.1430925359765764e+01 
88 1 2 1.0279999999999998e+00 -1.6261033329819327e+01 1.0000000000000000e+00 8.8972628176280750e+00 4.0249472597913503e+00 1.1281796685520543e+01 
161 1 2 1.0280000000000014e+00 8.3178873363290109e+01 1.0000000000000000e+00 8.9392219313601551e+00 4.2079372254082053e+00 1.1402650536050984e+01 
177 1 2 1.0280000000000131e+00 -1.6418760134870382e+02 1.0000000000000000e+00 8.9945344203652322e+00 4.4557488418626257e+00 1.1481580718860995e+01 
100 1 2 1.0280000000000209e+00 -1.9639437431067414e+01 1.0000000000000000e+00 9.1688343258696072e+00 3.9252920844209638e+00 1.1187368104453437e+01 
63 1 2 1.0279999999999982e+00 2.0238091712042049e+01 1.0000000000000000e+00 9.2128375311624744e+00 4.3003546550325504e+00 1.1403570285195508e+01 
137 1 2 1.0280000000000213e+00 -5.0350273259749422e+01 1.0000000000000000e+00 9.4149745070954882e+00 3.8879279043079822e+00 1.1095074519470369e+01 
152 1 2 1.0279999999999982e+00 -4.8697544054775442e+01 1.0000000000000000e+00 7.0387722914789173e+00 7.1848953656446399e+00 1.0125943713991306e+01 
174 1 2 1.0279999999999880e+00 -4.3642705498347922e+01 1.0000000000000000e+00 6.6808675296285616e+00 8.7813894291680867e+00 1.0227519414466403e+01 
165 1 2 1.0279999999999414e+00 4.2200176610940851e+01 1.0000000000000000e+00 8.3755715048134984e+00 9.9269031305222235e+00 1.0370795904961925e+01 
121 1 2 1.0280000000000007e+00 8.1830210162709335e+01 1.0000000000000000e+00 7.1348542486013944e+00 9.4395202499459447e+00 1.0605251136465926e+01 
127 1 2 1.0280000000000478e+00 1.7546753291818578e+02 1.0000000000000000e+00 7.5180748609128480e+00 8.9358799688282904e+00 1.0984136432887727e+01 
148 1 2 1.0279999999999860e+00 -1.3753715280495419e+02 1.0000000000000000e+00 8.0701774870113550e+00 8.2485610944158498e+00 1.0854036265373088e+01 
47 1 2 1.0280000000000071e+00 2.7570186473246075e+01 1.0000000000000000e+00 7.3741072197260973e+00 9.6066655513674775e+00 1.0623176673156211e+01 
136 1 2 1.0279999999999760e+00 1.2690678829936382e+02 1.0000000000000000e+00 8.0388840660969318e+00 9.7567437356851112e+00 1.0593446968645418e+01 
6 1 2 1.0279999999999918e+00 -1.8757126703094980e+02 1.0000000000000000e+00 7.7951968335782835e+00 8.5897810834113102e+00 1.0993354391266363e+01 
28 1 2 1.0280000000000602e+00 4.3942000866824316e+01 1.0000000000000000e+00 7.6524895450540447e+00 8.6670084266379739e+00 1.1009078174433183e+01 
124 1 2 1.0279999999999720e+00 -7.0590792066263191e+01 1.0000000000000000e+00 8.5178924088104395e+00 9.8180065042230993e+00 1.0422098082278868e+01 
141 1 2 1.0280000000000555e+00 1.5091905475090437e+02 1.0000000000000000e+00 1.1352043159517784e+01 9.9664163098737752e+00 1.0358678174190894e+01 
78 1 2 1.0279999999999843e+00 6.9781946835034191e+01 1.0000000000000000e+00 1.0150575930878267e+01 1.0936341135197365e+01 7.9570538814046383e+00 
160 1 2 1.0280000000000922e+00 1.2030402840450826e+02 1.0000000000000000e+00 1.0218544122876846e+01 1.0234162770220967e+01 7.3644587849112355e+00 
35 1 2 1.0279999999999374e+00 -5.1835746903471303e+01 1.0000000000000000e+00 1.0332482881414061e+01 1.1268344928856258e+01 8.2068764911445840e+00 
57 1 2 1.0279999999999672e+00 5.3255082637095100e+01 1.0000000000000000e+00 1.2639616198074307e+01 1.2770993778957417e+01 8.6093876684043558e+00 
11 1 2 1.0280000000000125e+00 1.3490797005981401e+02 1.0000000000000000e+00 1.0379074868172152e+01 1.1005378902573410e+01 7.8388401219395005e+00 
64 1 2 1.0279999999999483e+00 7.9404610014341998e+01 1.0000000000000000e+00 1.1317224056743740e+01 1.2119141221704652e+01 8.4964468773118860e+00 
130 1 2 1.0280000000000116e+00 -6.9232153452985415e+01 1.0000000000000000e+00 1.0872352436332573e+01 1.1187767568787752e+01 7.6949617113479638e+00 
31 1 2 1.0279999999999314e+00 -8.9315540218357825e+01 1.0000000000000000e+00 1.0963228077433325e+01 1.1759840612921302e+01 8.2461156997029352e+00 
169 1 2 1.0279999999999394e+00 -3.3823658102118145e+01 1.0000000000000000e+00 1.0957493726372519e+01 1.1787881500196210e+01 8.2989385665331810e+00 
103 1 2 1.0279999999999563e+00 -7.0377834847658818e+01 1.0000000000000000e+00 1.2636362884659359e+01 1.2871449034059232e+01 8.9970485965032463e+00 
125 1 2 1.0279999999999432e+00 5.4868794201128139e+01 1.0000000000000000e+00 1.0995402239680383e+01 1.2014770930601919e+01 8.8433383921164079e+00 
66 1 2 1.0280000000000262e+00 -3.4965624853237387e+01 1.0000000000000000e+00 1.1419284578787892e+01 1.1260176068297678e+01 1.0784839800983036e+01 
7 1 2 1.0280000000000280e+00 -2.9614334051807297e+01 1.0000000000000000e+00 1.3092907714553734e+01 1.1873676142760278e+01 1.0583151743438846e+01 
27 1 2 1.0280000000000418e+00 -4.4716972732570976e+00 1.0000000000000000e+00 1.2832038798938372e+01 1.2287287863718888e+01 1.0423513736829820e+01 
40 1 2 1.0280000000000249e+00 2.4523164868331410e+01 1.0000000000000000e+00 1.2836894305023849e+01 1.1687207532001160e+01 1.0773864750246247e+01 
12 1 2 1.0280000000000185e+00 4.9051849095616426e+01 1.0000000000000000e+00 1.2596564021641363e+01 1.1742455454329864e+01 1.0815588583423322e+01 
45 1 2 1.0280000000000142e+00 1.8095412738403928e+02 1.0000000000000000e+00 1.2905963759255311e+01 1.1140877120626907e+01 1.0847885554353695e+01 
76 1 2 1.0280000000000236e+00 6.2976572916741249e+00 1.0000000000000000e+00 1.1403503942930833e+01 1.0773315276606931e+01 1.0832605981973183e+01 
38 1 2 1.0280000000000498e+00 6.3818561831776350e+01 1.0000000000000000e+00 1.0879673491929500e+01 1.0477514859708222e+01 1.0490667176559212e+01 
109 1 2 1.0280000000000122e+00 -1.2709555095644539e+02 1.0000000000000000e+00 1.2461504526980876e+01 1.0448489698534127e+01 1.0848357723863556e+01 
48 1 2 1.0280000000000136e+00 2.8085670645056389e+01 1.0000000000000000e+00 1.2812689047779292e+01 1.0399033760354193e+01 1.0657601193292958e+01 
54 1 2 1.0280000000000431e+00 -1.3140807145054350e+02 1.0000000000000000e+00 1.3097226152819816e+01 1.0078641233413784e+01 1.0101253511432960e+01 
25 1 2 1.0280000000000200e+00 -5.7805532238482513e+01 1.0000000000000000e+00 1.2312512408606915e+01 1.0077638815027429e+01 1.0592070286233090e+01 
104 1 2 1.0280000000000256e+00 8.0166471796560543e+00 1.0000000000000000e+00 1.2002951251058027e+01 1.0055172765718382e+01 1.0596946525412536e+01 
51 1 2 1.0280000000000602e+00 6.9378928258063624e+01 1.0000000000000000e+00 1.1257890263522299e+01 1.0013353465904803e+01 1.0373276289492885e+01 
16 1 2 1.0279999999999820e+00 1.8567495558699441e+01 1.0000000000000000e+00 1.5391522395914407e+01 1.3284638332873815e+01 8.1318472576855072e+00 
146 1 2 1.0279999999999485e+00 -7.0326126515962159e+01 1.0000000000000000e+00 1.4554092579705125e+01 1.2450674171629453e+01 8.1183842499958399e+00 
5 1 2 1.0279999999999383e+00 -1.2112607887491315e+02 1.0000000000000000e+00 1.4427004414044378e+01 1.2272634012191935e+01 8.1025202774354277e+00 
145 1 2 1.0280000000000267e+00 -1.2842484914312956e+02 1.0000000000000000e+00 1.4165203179842798e+01 1.1953820899887342e+01 7.9765931600755486e+00 
93 1 2 1.0279999999999376e+00 9.4082153466220895e+00 1.0000000000000000e+00 1.4385552737261062e+01 1.2215023833498158e+01 8.0902719289761471e+00 
120 1 2 1.0280000000000145e+00 3.5964983363390203e+01 1.0000000000000000e+00 1.3980717593455820e+01 1.1677565101847662e+01 7.8705229532156720e+00 
134 1 2 1.0280000000001426e+00 -6.7772351418219188e+01 1.0000000000000000e+00 1.4645245503434461e+01 1.2459130415478402e+01 8.2303255380646796e+00 
156 1 2 1.0280000000000165e+00 8.0076578825260967e+01 1.0000000000000000e+00 1.3913048776980341e+01 1.1557901868409550e+01 7.8292875871076166e+00 
142 1 2 1.0280000000000040e+00 1.2029890875774979e+02 1.0000000000000000e+00 1.3878914840235216e+01 1.1196965379644013e+01 7.8469159262147956e+00 
49 1 2 1.0279999999999800e+00 -1.1366536272616088e+02 1.0000000000000000e+00 1.3577439523840113e+01 1.0488708727563154e+01 7.6935095953362280e+00 
4 1 2 1.0279999999999740e+00 1.2321039970859570e+02 1.0000000000000000e+00 1.3434931788264388e+01 1.0087794177708606e+01 7.6560322935427578e+00 
24 1 2 1.0280000000000304e+00 -5.8619943945876081e+01 1.0000000000000000e+00 1.5530591597160564e+01 1.4192939153741696e+01 7.7440910152976459e+00 
139 1 2 1.0280000000000555e+00 -1.8248212040599452e+02 1.0000000000000000e+00 1.5936276713477803e+01 1.4569466808204554e+01 7.9759082328043363e+00 
34 1 2 1.0279999999999936e+00 3.1281406750699098e+01 1.0000000000000000e+00 1.5951775383939053e+01 1.4777088186480357e+01 8.0141160324032068e+00 
85 1 2 1.0279999999999860e+00 -1.2700252236851087e+02 1.0000000000000000e+00 1.6008491537410222e+01 1.4797609996771534e+01 8.0759112533064084e+00 
113 1 2 1.0279999999999931e+00 1.1702166289120740e+02 1.0000000000000000e+00 1.5949496796422888e+01 1.5048126295777411e+01 8.1012065579041792e+00 
8 1 2 1.0279999999999880e+00 1.7660194675323805e+02 1.0000000000000000e+00 1.5993199202888494e+01 1.5046620059182711e+01 8.1429546211280890e+00 
84 1 2 1.0279999999999898e+00 2.3790647644194763e+02 1.0000000000000000e+00 1.5796934702864293e+01 1.5302150481927926e+01 8.1306338366543240e+00 
126 1 2 1.0279999999999898e+00 1.3012272571145891e+02 1.0000000000000000e+00 1.6041334928353383e+01 1.5142412278912440e+01 8.2477164186903327e+00 
175 1 2 1.0279999999999301e+00 -2.4294201075803709e+01 1.0000000000000000e+00 1.3714123768975496e+01 1.4338019896932485e+01 9.9437643923856793e+00 
159 1 2 1.0279999999999851e+00 2.2789514380427863e+02 1.0000000000000000e+00 1.6090538051216235e+01 1.4312052736660622e+01 8.2773020979859400e+00 
50 1 2 1.0279999999999865e+00 -4.6001874641690449e+01 1.0000000000000000e+00 1.6088429539539518e+01 1.5130388190321220e+01 8.3062162016260288e+00 
67 1 2 1.0279999999999978e+00 -1.2309991207550731e+01 1.0000000000000000e+00 1.4610362352709640e+01 1.5482288015590274e+01 8.3859989330541573e+00 
90 1 2 1.0280000000000669e+00 1.0567013100517025e+02 1.0000000000000000e+00 1.5419301823099614e+01 1.6473034980594743e+01 9.8200318562002273e+00 
118 1 2 1.0280000000000038e+00 6.2526670958860706e+01 1.0000000000000000e+00 1.4153645168157762e+01 1.5666351403635799e+01 1.1171223190199372e+01 
21 1 2 1.0279999999999960e+00 -4.9065038109141398e+01 1.0000000000000000e+00 1.4141032921620621e+01 1.5942992240296661e+01 1.1137794863468098e+01 
19 1 2 1.0280000000000045e+00 -1.8239857664019024e+02 1.0000000000000000e+00 1.4045040157446991e+01 1.5828969796464728e+01 1.1101446577579431e+01 
32 1 2 1.0280000000000018e+00 -1.3314615065523799e+02 1.0000000000000000e+00 1.3852832787043587e+01 1.5554906266809587e+01 1.0927941003802779e+01 
56 1 2 1.0280000000000029e+00 3.4970436853859333e+01 1.0000000000000000e+00 1.3881656919183111e+01 1.5915304020380940e+01 1.0917462179973111e+01 
179 1 2 1.0279999999999927e+00 -1.0772260607947175e+02 1.0000000000000000e+00 1.4541201896018562e+01 1.6468981935346577e+01 1.0895697165904842e+01 
95 1 2 1.0279999999999880e+00 1.2114982662515061e+02 1.0000000000000000e+00 1.4601026392253949e+01 1.6491359294868506e+01 1.0865800728409040e+01 
73 1 2 1.0279999999999954e+00 3.4269952808815916e+00 1.0000000000000000e+00 1.4766930071289321e+01 1.6512482662367670e+01 1.0805993892629616e+01 
178 1 2 1.0279999999999831e+00 -8.9297877408641199e+01 1.0000000000000000e+00 1.4641427845070872e+01 1.6556134328685108e+01 1.0750849351591222e+01 
42 1 2 1.0280000000000131e+00 -1.8722784290951716e+02 1.0000000000000000e+00 1.3738978086824748e+01 1.5136844746447245e+01 1.0618718958800313e+01 
99 1 2 1.0280000000000111e+00 2.3225854140235731e+02 1.0000000000000000e+00 1.3767312352492358e+01 1.5948993621975836e+01 1.0674465780344898e+01 
110 1 2 1.0280000000000020e+00 -3.1208550952285883e+01 1.0000000000000000e+00 1.5045974239278419e+01 1.4453866233763069e+01 1.0495258083689430e+01 
15 1 2 1.0279999999999985e+00 2.2678073968136360e+01 1.0000000000000000e+00 1.5676451935409178e+01 1.5475866598770427e+01 1.0565299931743230e+01 
86 1 2 1.0279999999999794e+00 -4.2878555218863823e+01 1.0000000000000000e+00 1.5242992142369721e+01 1.6537156478639588e+01 1.0271977338266785e+01 

Velocities

144 4.4061166171037846e-12 3.7805188407372827e-12 -1.9953887492681525e-12
149 2.6831489448269798e-12 -1.0957173113631238e-12 3.6501697100354065e-13
82 3.1466225285369645e-12 -1.3271892917505856e-12 7.5348148495151226e-13
168 2.9554114275374123e-12 -1.0988941494613030e-12 1.2078618755802227e-12
171 2.6310066003896757e-12 -1.0534706895374841e-12 4.3070542111177949e-13
116 2.4558033061930855e-12 -7.3134791177363608e-13 4.7620449565917617e-13
65 2.2348339195484653e-12 -1.0914877940199373e-12 8.4221734676171695e-13
143 1.6701178521808743e-12 -1.0899048283271585e-12 8.4275800822051092e-13
112 1.4544145839434027e-12 -1.0912424389018978e-12 1.2958214461291250e-12
29 1.6466290410987612e-12 -1.0888206775429303e-12 1.0431786636659412e-12
14 2.2912321550170311e-12 -1.1052777146519701e-12 1.9174641651347142e-12
173 5.9798835895974152e-13 -1.0643014849231578e-12 1.8597401840180232e-12
108 -6.6907871457609114e-13 -2.2658426681214142e-13 1.1564059278155689e-12
172 4.5209077385750863e-12 -1.7035108087837071e-12 6.5209783188225859e-13
20 1.6091224465219948e-12 -1.9181979870723732e-12 1.2909251115382927e-12
133 2.5897729189440018e-12 -1.3657255201216443e-12 7.8836906961227346e-13
147 1.8866208433327740e-12 -1.5011177836706606e-12 1.1566928072845479e-12
138 3.4073115638969797e-13 2.0674015073859970e-12 -8.3082173975339103e-13
180 4.2956106639885003e-13 2.2458730761012861e-12 -5.7129577084308066e-13
26 -3.3018230113635999e-13 1.6325689722679583e-12 -1.5727440841025161e-12
33 2.3476941778341162e-13 1.8258442849116241e-12 -1.3580042769330220e-12
87 1.7671601004167889e-12 3.2088410096683412e-13 -6.8339400506821646e-13
18 3.4690784770629771e-12 -3.4031163203513241e-13 4.8516940177465936e-13
77 -2.3014006880955449e-12 1.5065526863768402e-12 4.0165199798852579e-12
55 2.3533118970411866e-13 2.4918195613876234e-12 -8.5489983279819426e-13
167 3.1342342828593237e-13 2.5332521437059685e-12 -5.1995874268521440e-13
101 2.1092918886428016e-13 2.4912486961711574e-12 -1.3487542202127044e-12
92 4.5370097057718940e-13 2.3351252815373991e-12 -1.3885862805802297e-13
164 6.9083281387814308e-13 2.2484676442969854e-12 5.8605416515694390e-13
102 3.1750710775539866e-13 2.2736535051507266e-12 1.8962557787350339e-13
135 -5.9227670882584850e-13 4.5437436675458077e-12 -2.2089346369774640e-12
17 3.7035621834640259e-13 2.2139506895400296e-12 2.0988095009513264e-13
36 1.4272387169845322e-13 6.4156807330903167e-12 -1.7756167042809307e-12
151 1.4630102645076643e-12 5.4709082148671336e-12 -1.8397467371469597e-12
115 2.2114181644393250e-12 4.6219999658710598e-12 -1.5766457376604128e-12
22 -1.1667987546109528e-12 2.5652647076550729e-12 4.3826261159375280e-12
52 3.6540503537939143e-12 -1.6931055245728731e-13 -1.7798343298487315e-13
150 2.6773704395636785e-12 -5.3776858626671978e-13 -2.4620180965737680e-13
43 2.0728161465317273e-12 -6.7053532965233722e-13 -5.3602760365542232e-13
59 2.1253443244788382e-12 -6.0611541771274199e-13 -5.3272305523336637e-13
70 1.8745220894943833e-12 9.2796482871870876e-13 -1.0945350418931454e-12
166 3.4339759917557311e-12 1.7388799590714966e-12 -5.4548710789275513e-13
44 2.8894464122941935e-12 1.1172482743099007e-12 -5.6263405827822870e-13