LAMMPS data file via write_data, version 30 Jul 2016, timestep = 600000

2080 atoms
8 atom types

0.0000000000000000e+00 4.0000000000000000e+01 xlo xhi
0.0000000000000000e+00 4.0000000000000000e+01 ylo yhi
0.0000000000000000e+00 1.0000000000000000e+02 zlo zhi

Masses

1 3.896
2 4.306
3 20.064
4 8.378
5 8.378
6 8.378
7 8.378
8 8.378

Atoms # meso-molecular

1 2 4 2.2559723595316457e+00 0.0000000000000000e+00 1.0000000000000000e+00 0.0000000000000000e+00 0.0000000000000000e+00 2.5000000000000000e+00 
2 2 4 2.2559723595316457e+00 0.0000000000000000e+00 1.0000000000000000e+00 0.0000000000000000e+00 2.0000000000000000e+00 2.5000000000000000e+00 
3 2 4 2.2559723595316457e+00 0.0000000000000000e+00 1.0000000000000000e+00 0.0000000000000000e+00 4.0000000000000000e+00 2.5000000000000000e+00 
4 2 4 2.2559723595316457e+00 0.0000000000000000e+00 1.0000000000000000e+00 0.0000000000000000e+00 6.0000000000000000e+00 2.5000000000000000e+00 
5 2 4 2.2559723595316457e+00 0.0000000000000000e+00 1.0000000000000000e+00 0.0000000000000000e+00 8.0000000000000000e+00 2.5000000000000000e+00 
21 2 4 2.2559723595316457e+00 0.0000000000000000e+00 1.0000000000000000e+00 2.0000000000000000e+00 0.0000000000000000e+00 2.5000000000000000e+00 
22 2 4 2.2559723595316457e+00 0.0000000000000000e+00 1.0000000000000000e+00 2.0000000000000000e+00 2.0000000000000000e+00 2.5000000000000000e+00 
23 2 4 2.2559723595316457e+00 0.0000000000000000e+00 1.0000000000000000e+00 2.0000000000000000e+00 4.0000000000000000e+00 2.5000000000000000e+00 
24 2 4 2.2559723595316457e+00 0.0000000000000000e+00 1.0000000000000000e+00 2.0000000000000000e+00 6.0000000000000000e+00 2.5000000000000000e+00 
25 2 4 2.2559723595316457e+00 -2.1064472095917029e-03 1.0000000000000000e+00 2.0000000000000000e+00 8.0000000000000000e+00 2.5000000000000000e+00 
41 2 4 2.2559723595316457e+00 0.0000000000000000e+00 1.0000000000000000e+00 4.0000000000000000e+00 0.0000000000000000e+00 2.5000000000000000e+00 
42 2 4 2.2559723595316457e+00 0.0000000000000000e+00 1.0000000000000000e+00 4.0000000000000000e+00 2.0000000000000000e+00 2.5000000000000000e+00 
43 2 4 2.2559723595316457e+00 -3.0462560025640328e-01 1.0000000000000000e+00 4.0000000000000000e+00 4.0000000000000000e+00 2.5000000000000000e+00 
44 2 4 2.2559723595316457e+00 -2.3995823787885167e+00 1.0000000000000000e+00 4.0000000000000000e+00 6.0000000000000000e+00 2.5000000000000000e+00 
45 2 4 2.2559723595316457e+00 -7.3770785602030067e+00 1.0000000000000000e+00 4.0000000000000000e+00 8.0000000000000000e+00 2.5000000000000000e+00 
61 2 4 2.2559723595316457e+00 -2.1077543206004471e-03 1.0000000000000000e+00 6.0000000000000000e+00 0.0000000000000000e+00 2.5000000000000000e+00 
62 2 4 2.2559723595316457e+00 -1.4983059802418632e+00 1.0000000000000000e+00 6.0000000000000000e+00 2.0000000000000000e+00 2.5000000000000000e+00 
63 2 4 2.2559723595316457e+00 -1.0986085178604604e+01 1.0000000000000000e+00 6.0000000000000000e+00 4.0000000000000000e+00 2.5000000000000000e+00 
64 2 4 2.2559723595316457e+00 -3.7553313151223364e+01 1.0000000000000000e+00 6.0000000000000000e+00 6.0000000000000000e+00 2.5000000000000000e+00 
65 2 4 2.2559723595316457e+00 -8.4877323449053847e+01 1.0000000000000000e+00 6.0000000000000000e+00 8.0000000000000000e+00 2.5000000000000000e+00 
81 2 4 2.2559723595316457e+00 -1.4984390358009274e+00 1.0000000000000000e+00 8.0000000000000000e+00 0.0000000000000000e+00 2.5000000000000000e+00 
82 2 4 2.2559723595316457e+00 -1.6527034486484197e+01 1.0000000000000000e+00 8.0000000000000000e+00 2.0000000000000000e+00 2.5000000000000000e+00 
83 2 4 2.2559723595316457e+00 -7.1072429549715110e+01 1.0000000000000000e+00 8.0000000000000000e+00 4.0000000000000000e+00 2.5000000000000000e+00 
84 2 4 2.2559723595316457e+00 -1.9332480873082918e+02 1.0000000000000000e+00 8.0000000000000000e+00 6.0000000000000000e+00 2.5000000000000000e+00 
85 2 4 2.2559723595316457e+00 -3.9160403315317757e+02 1.0000000000000000e+00 8.0000000000000000e+00 8.0000000000000000e+00 2.5000000000000000e+00 
101 2 4 2.2559723595316457e+00 -1.1193701911047004e+01 1.0000000000000000e+00 1.0000000000000000e+01 0.0000000000000000e+00 2.5000000000000000e+00 
102 2 4 2.2559723595316457e+00 -7.0318752907743686e+01 1.0000000000000000e+00 1.0000000000000000e+01 2.0000000000000000e+00 2.5000000000000000e+00 
103 2 4 2.2559723595316457e+00 -2.4459981533768101e+02 1.0000000000000000e+00 1.0000000000000000e+01 4.0000000000000000e+00 2.5000000000000000e+00 
104 2 4 2.2559723595316457e+00 -5.9737276773347344e+02 1.0000000000000000e+00 1.0000000000000000e+01 6.0000000000000000e+00 2.5000000000000000e+00 
105 2 4 2.2559723595316457e+00 -1.1392304330676520e+03 1.0000000000000000e+00 1.0000000000000000e+01 8.0000000000000000e+00 2.5000000000000000e+00 
121 2 4 2.2559723595316457e+00 -3.8958935699618053e+01 1.0000000000000000e+00 1.2000000000000000e+01 0.0000000000000000e+00 2.5000000000000000e+00 
122 2 4 2.2559723595316457e+00 -1.8679790792436233e+02 1.0000000000000000e+00 1.2000000000000000e+01 2.0000000000000000e+00 2.5000000000000000e+00 
123 2 4 2.2559723595316457e+00 -5.8248853252490312e+02 1.0000000000000000e+00 1.2000000000000000e+01 4.0000000000000000e+00 2.5000000000000000e+00 
124 2 4 2.2559723595316457e+00 -1.3373456590005717e+03 1.0000000000000000e+00 1.2000000000000000e+01 6.0000000000000000e+00 2.5000000000000000e+00 
125 2 4 2.2559723595316457e+00 -2.4625574333404925e+03 1.0000000000000000e+00 1.2000000000000000e+01 8.0000000000000000e+00 2.5000000000000000e+00 
141 2 4 2.2559723595316457e+00 -8.7587415267573917e+01 1.0000000000000000e+00 1.4000000000000000e+01 0.0000000000000000e+00 2.5000000000000000e+00 
142 2 4 2.2559723595316457e+00 -3.6380580799658844e+02 1.0000000000000000e+00 1.4000000000000000e+01 2.0000000000000000e+00 2.5000000000000000e+00 
143 2 4 2.2559723595316457e+00 -1.0641612497340659e+03 1.0000000000000000e+00 1.4000000000000000e+01 4.0000000000000000e+00 2.5000000000000000e+00 
144 2 4 2.2559723595316457e+00 -2.3531786377466592e+03 1.0000000000000000e+00 1.4000000000000000e+01 6.0000000000000000e+00 2.5000000000000000e+00 
145 2 4 2.2559723595316457e+00 -4.2454708716339310e+03 1.0000000000000000e+00 1.4000000000000000e+01 8.0000000000000000e+00 2.5000000000000000e+00 
161 2 4 2.2559723595316457e+00 -1.4455732337131417e+02 1.0000000000000000e+00 1.6000000000000000e+01 0.0000000000000000e+00 2.5000000000000000e+00 
162 2 4 2.2559723595316457e+00 -5.5420716989971913e+02 1.0000000000000000e+00 1.6000000000000000e+01 2.0000000000000000e+00 2.5000000000000000e+00 
163 2 4 2.2559723595316457e+00 -1.5614158116781030e+03 1.0000000000000000e+00 1.6000000000000000e+01 4.0000000000000000e+00 2.5000000000000000e+00 
164 2 4 2.2559723595316457e+00 -3.3783949581748084e+03 1.0000000000000000e+00 1.6000000000000000e+01 6.0000000000000000e+00 2.5000000000000000e+00 
165 2 4 2.2559723595316457e+00 -6.0259822002389928e+03 1.0000000000000000e+00 1.6000000000000000e+01 8.0000000000000000e+00 2.5000000000000000e+00 
181 2 4 2.2559723595316457e+00 -1.8419763412641751e+02 1.0000000000000000e+00 1.8000000000000000e+01 0.0000000000000000e+00 2.5000000000000000e+00 
182 2 4 2.2559723595316457e+00 -6.7986230944648651e+02 1.0000000000000000e+00 1.8000000000000000e+01 2.0000000000000000e+00 2.5000000000000000e+00 
183 2 4 2.2559723595316457e+00 -1.8822745664976383e+03 1.0000000000000000e+00 1.8000000000000000e+01 4.0000000000000000e+00 2.5000000000000000e+00 
184 2 4 2.2559723595316457e+00 -4.0318000201695518e+03 1.0000000000000000e+00 1.8000000000000000e+01 6.0000000000000000e+00 2.5000000000000000e+00 
185 2 4 2.2559723595316457e+00 -7.1543787516676794e+03 1.0000000000000000e+00 1.8000000000000000e+01 8.0000000000000000e+00 2.5000000000000000e+00 
6 2 4 2.2559723595316457e+00 0.0000000000000000e+00 1.0000000000000000e+00 0.0000000000000000e+00 1.0000000000000000e+01 2.5000000000000000e+00 
7 2 4 2.2559723595316457e+00 0.0000000000000000e+00 1.0000000000000000e+00 0.0000000000000000e+00 1.2000000000000000e+01 2.5000000000000000e+00 
8 2 4 2.2559723595316457e+00 0.0000000000000000e+00 1.0000000000000000e+00 0.0000000000000000e+00 1.4000000000000000e+01 2.5000000000000000e+00 
9 2 4 2.2559723595316457e+00 0.0000000000000000e+00 1.0000000000000000e+00 0.0000000000000000e+00 1.6000000000000000e+01 2.5000000000000000e+00 
10 2 4 2.2559723595316457e+00 0.0000000000000000e+00 1.0000000000000000e+00 0.0000000000000000e+00 1.8000000000000000e+01 2.5000000000000000e+00 
26 2 4 2.2559723595316457e+00 -1.3638102526463955e-02 1.0000000000000000e+00 2.0000000000000000e+00 1.0000000000000000e+01 2.5000000000000000e+00 
27 2 4 2.2559723595316457e+00 7.0984958004303086e-03 1.0000000000000000e+00 2.0000000000000000e+00 1.2000000000000000e+01 2.5000000000000000e+00 
28 2 4 2.2559723595316457e+00 8.0290495944059792e-02 1.0000000000000000e+00 2.0000000000000000e+00 1.4000000000000000e+01 2.5000000000000000e+00 
29 2 4 2.2559723595316457e+00 2.2667513794989225e-01 1.0000000000000000e+00 2.0000000000000000e+00 1.6000000000000000e+01 2.5000000000000000e+00 
30 2 4 2.2559723595316457e+00 3.8325613186527674e-01 1.0000000000000000e+00 2.0000000000000000e+00 1.8000000000000000e+01 2.5000000000000000e+00 
46 2 4 2.2559723595316457e+00 -1.4157591239861759e+01 1.0000000000000000e+00 4.0000000000000000e+00 1.0000000000000000e+01 2.5000000000000000e+00 
47 2 4 2.2559723595316457e+00 -1.9959849447432884e+01 1.0000000000000000e+00 4.0000000000000000e+00 1.2000000000000000e+01 2.5000000000000000e+00 
48 2 4 2.2559723595316457e+00 -2.2422880710855338e+01 1.0000000000000000e+00 4.0000000000000000e+00 1.4000000000000000e+01 2.5000000000000000e+00 
49 2 4 2.2559723595316457e+00 -2.2052675189272158e+01 1.0000000000000000e+00 4.0000000000000000e+00 1.6000000000000000e+01 2.5000000000000000e+00 
50 2 4 2.2559723595316457e+00 -2.1351112417528597e+01 1.0000000000000000e+00 4.0000000000000000e+00 1.8000000000000000e+01 2.5000000000000000e+00 
66 2 4 2.2559723595316457e+00 -1.4557724489176314e+02 1.0000000000000000e+00 6.0000000000000000e+00 1.0000000000000000e+01 2.5000000000000000e+00 
67 2 4 2.2559723595316457e+00 -2.0291986172817835e+02 1.0000000000000000e+00 6.0000000000000000e+00 1.2000000000000000e+01 2.5000000000000000e+00 
68 2 4 2.2559723595316457e+00 -2.4162504276842981e+02 1.0000000000000000e+00 6.0000000000000000e+00 1.4000000000000000e+01 2.5000000000000000e+00 
69 2 4 2.2559723595316457e+00 -2.5906282122012584e+02 1.0000000000000000e+00 6.0000000000000000e+00 1.6000000000000000e+01 2.5000000000000000e+00 
70 2 4 2.2559723595316457e+00 -2.6307811313950555e+02 1.0000000000000000e+00 6.0000000000000000e+00 1.8000000000000000e+01 2.5000000000000000e+00 
86 2 4 2.2559723595316457e+00 -6.3819007067824384e+02 1.0000000000000000e+00 8.0000000000000000e+00 1.0000000000000000e+01 2.5000000000000000e+00 
87 2 4 2.2559723595316457e+00 -8.7678689580376954e+02 1.0000000000000000e+00 8.0000000000000000e+00 1.2000000000000000e+01 2.5000000000000000e+00 
88 2 4 2.2559723595316457e+00 -1.0552044722219737e+03 1.0000000000000000e+00 8.0000000000000000e+00 1.4000000000000000e+01 2.5000000000000000e+00 
89 2 4 2.2559723595316457e+00 -1.1527410082475074e+03 1.0000000000000000e+00 8.0000000000000000e+00 1.6000000000000000e+01 2.5000000000000000e+00 
90 2 4 2.2559723595316457e+00 -1.1865289422089534e+03 1.0000000000000000e+00 8.0000000000000000e+00 1.8000000000000000e+01 2.5000000000000000e+00 
106 2 4 2.2559723595316457e+00 -1.7998610740038230e+03 1.0000000000000000e+00 1.0000000000000000e+01 1.0000000000000000e+01 2.5000000000000000e+00 
107 2 4 2.2559723595316457e+00 -2.4495593118401748e+03 1.0000000000000000e+00 1.0000000000000000e+01 1.2000000000000000e+01 2.5000000000000000e+00 
108 2 4 2.2559723595316457e+00 -2.9607104244218035e+03 1.0000000000000000e+00 1.0000000000000000e+01 1.4000000000000000e+01 2.5000000000000000e+00 
109 2 4 2.2559723595316457e+00 -3.2703771470141292e+03 1.0000000000000000e+00 1.0000000000000000e+01 1.6000000000000000e+01 2.5000000000000000e+00 
110 2 4 2.2559723595316457e+00 -3.4016337156809377e+03 1.0000000000000000e+00 1.0000000000000000e+01 1.8000000000000000e+01 2.5000000000000000e+00 
126 2 4 2.2559723595316457e+00 -3.8269729463853619e+03 1.0000000000000000e+00 1.2000000000000000e+01 1.0000000000000000e+01 2.5000000000000000e+00 
127 2 4 2.2559723595316457e+00 -5.1855449903062581e+03 1.0000000000000000e+00 1.2000000000000000e+01 1.2000000000000000e+01 2.5000000000000000e+00 
128 2 4 2.2559723595316457e+00 -6.2880130071411977e+03 1.0000000000000000e+00 1.2000000000000000e+01 1.4000000000000000e+01 2.5000000000000000e+00 
129 2 4 2.2559723595316457e+00 -7.0025931240969248e+03 1.0000000000000000e+00 1.2000000000000000e+01 1.6000000000000000e+01 2.5000000000000000e+00 
130 2 4 2.2559723595316457e+00 -7.3324287953967178e+03 1.0000000000000000e+00 1.2000000000000000e+01 1.8000000000000000e+01 2.5000000000000000e+00 
146 2 4 2.2559723595316457e+00 -6.5366908248762275e+03 1.0000000000000000e+00 1.4000000000000000e+01 1.0000000000000000e+01 2.5000000000000000e+00 
147 2 4 2.2559723595316457e+00 -8.8364535444430803e+03 1.0000000000000000e+00 1.4000000000000000e+01 1.2000000000000000e+01 2.5000000000000000e+00 
148 2 4 2.2559723595316457e+00 -1.0748347477994017e+04 1.0000000000000000e+00 1.4000000000000000e+01 1.4000000000000000e+01 2.5000000000000000e+00 
149 2 4 2.2559723595316457e+00 -1.2034142056151346e+04 1.0000000000000000e+00 1.4000000000000000e+01 1.6000000000000000e+01 2.5000000000000000e+00 
150 2 4 2.2559723595316457e+00 -1.2649634730938626e+04 1.0000000000000000e+00 1.4000000000000000e+01 1.8000000000000000e+01 2.5000000000000000e+00 
166 2 4 2.2559723595316457e+00 -9.2314600197341842e+03 1.0000000000000000e+00 1.6000000000000000e+01 1.0000000000000000e+01 2.5000000000000000e+00 
167 2 4 2.2559723595316457e+00 -1.2470770232073412e+04 1.0000000000000000e+00 1.6000000000000000e+01 1.2000000000000000e+01 2.5000000000000000e+00 
168 2 4 2.2559723595316457e+00 -1.5205688540927315e+04 1.0000000000000000e+00 1.6000000000000000e+01 1.4000000000000000e+01 2.5000000000000000e+00 
169 2 4 2.2559723595316457e+00 -1.7077718591160799e+04 1.0000000000000000e+00 1.6000000000000000e+01 1.6000000000000000e+01 2.5000000000000000e+00 
170 2 4 2.2559723595316457e+00 -1.7992839304155950e+04 1.0000000000000000e+00 1.6000000000000000e+01 1.8000000000000000e+01 2.5000000000000000e+00 
186 2 4 2.2559723595316457e+00 -1.0937452036179744e+04 1.0000000000000000e+00 1.8000000000000000e+01 1.0000000000000000e+01 2.5000000000000000e+00 
187 2 4 2.2559723595316457e+00 -1.4775707843033786e+04 1.0000000000000000e+00 1.8000000000000000e+01 1.2000000000000000e+01 2.5000000000000000e+00 
188 2 4 2.2559723595316457e+00 -1.8039295896366490e+04 1.0000000000000000e+00 1.8000000000000000e+01 1.4000000000000000e+01 2.5000000000000000e+00 
189 2 4 2.2559723595316457e+00 -2.0289644620313720e+04 1.0000000000000000e+00 1.8000000000000000e+01 1.6000000000000000e+01 2.5000000000000000e+00 
190 2 4 2.2559723595316457e+00 -2.1400053324163171e+04 1.0000000000000000e+00 1.8000000000000000e+01 1.8000000000000000e+01 2.5000000000000000e+00 
724 326 2 1.0330137593278617e+00 -3.8599664741368042e+02 1.0000000000000000e+00 1.8973851925296572e+01 1.9963005355021401e+01 3.3241075860658249e+01 
1360 962 2 1.0269800946546128e+00 -5.5826288986162554e+03 1.0000000000000000e+00 1.8210741634414912e+01 1.9893798527095850e+01 3.3261827799741319e+01 
1477 1079 2 1.0296909731435080e+00 3.5912992407721358e+04 1.0000000000000000e+00 1.9178712468932918e+01 1.9997852502905410e+01 3.3196399338402763e+01 
1402 1004 2 1.0252913377126669e+00 -1.0891557904404455e+04 1.0000000000000000e+00 1.8901601965068515e+01 1.9987396223989016e+01 3.3026250719725986e+01 
1296 898 2 1.0303310275714845e+00 9.4577270345115903e+03 1.0000000000000000e+00 1.9155476416916876e+01 1.9916703152601166e+01 3.3259490023329462e+01 
1956 1558 2 1.0265534292019109e+00 -6.6769679929135737e+03 1.0000000000000000e+00 1.8429114704345075e+01 1.9695176953760498e+01 3.3328670135401119e+01 
801 403 2 1.0294444666437319e+00 3.8482932784021541e+03 1.0000000000000000e+00 1.8829430903101063e+01 1.9721479364809223e+01 3.3326970256801786e+01 
1344 946 2 1.0269218127651001e+00 -9.3465757925298163e+01 1.0000000000000000e+00 1.9326784629222132e+01 1.9886552539978950e+01 3.3275652692241444e+01 
1363 965 2 1.0268743114648851e+00 -1.4570893209986567e+04 1.0000000000000000e+00 1.8801808750303127e+01 1.9871198198207637e+01 3.3131209835689354e+01 
1013 615 2 1.0303188680518078e+00 -2.7878111525397044e+03 1.0000000000000000e+00 1.9195517465792815e+01 1.9895835736301112e+01 3.3292029308535753e+01 
1559 1161 2 1.0305900197071227e+00 5.9875332304128970e+03 1.0000000000000000e+00 1.8701170210646509e+01 1.9919104133864845e+01 3.3189854956337832e+01 
408 10 2 1.0305657399792854e+00 3.9528161218047890e+03 1.0000000000000000e+00 1.9002651429387516e+01 1.9832265003055284e+01 3.3283582194231940e+01 
876 478 2 1.0257607857278621e+00 5.1657252040992862e+03 1.0000000000000000e+00 1.8393629019052213e+01 1.9996898492054751e+01 3.3083629878534417e+01 
1716 1318 2 1.0270408835338438e+00 5.1677469133985696e+03 1.0000000000000000e+00 1.8821205525765379e+01 1.9860088540127670e+01 3.3144294948345483e+01 
607 209 2 1.0276462777781912e+00 5.8657518394829458e+03 1.0000000000000000e+00 1.8722601937217050e+01 1.9895904162335960e+01 3.3132389861358490e+01 
880 482 2 1.0249086617596619e+00 4.8424425422993363e+03 1.0000000000000000e+00 1.9085007016513273e+01 1.9961479376065093e+01 3.3070121451744548e+01 
1162 764 2 1.0240773719850877e+00 4.2192530770998264e+03 1.0000000000000000e+00 1.8178973630608937e+01 1.9925031608560438e+01 3.3182602046727965e+01 
1568 1170 2 1.0266003989536667e+00 8.0351975651972480e+03 1.0000000000000000e+00 1.9104957995374413e+01 1.9991926656071520e+01 3.3097919140920304e+01 
877 479 2 1.0249952175675321e+00 4.8446285532819174e+03 1.0000000000000000e+00 1.8623648472238699e+01 1.9795525263037192e+01 3.3151159155368418e+01 
873 475 2 1.0213672896583625e+00 5.1637698349026741e+03 1.0000000000000000e+00 1.9129381216983283e+01 1.9961478297436440e+01 3.3001015544833074e+01 
995 597 2 1.0257607447899530e+00 1.4437128642874870e+04 1.0000000000000000e+00 1.9114100047002154e+01 1.9949010908978966e+01 3.3107269392027924e+01 
1873 1475 2 1.0240174113564908e+00 5.7962964207192363e+03 1.0000000000000000e+00 1.8441774505341055e+01 1.9894939473857736e+01 3.3091948134321761e+01 
1826 1428 2 1.0246220264544865e+00 3.5771407151305453e+02 1.0000000000000000e+00 1.8798879280419278e+01 1.9867450326621203e+01 3.3079350033264276e+01 
1081 683 2 1.0272845906426225e+00 -8.7925052544455048e+03 1.0000000000000000e+00 1.9049007943589984e+01 1.9944442984047722e+01 3.3128092662888683e+01 
480 82 2 1.0231822235317150e+00 -1.3985297648759362e+04 1.0000000000000000e+00 1.9191708721095246e+01 1.9891528126368225e+01 3.3111193876913362e+01 
654 256 2 1.0270159112673680e+00 6.4734562116289244e+03 1.0000000000000000e+00 1.8692867291450490e+01 1.9733431099754657e+01 3.3249775339077921e+01 
1410 1012 2 1.0269232923406566e+00 -2.1875691402102490e+04 1.0000000000000000e+00 1.8478997210209030e+01 1.9819403620280411e+01 3.3209522009847042e+01 
1174 776 2 1.0240058795371856e+00 -2.5838173361736285e+03 1.0000000000000000e+00 1.8688911925197459e+01 1.9707412294941484e+01 3.3195830177891935e+01 
1341 943 2 1.0263141900125055e+00 -9.4554572449291811e+01 1.0000000000000000e+00 1.8787914042920796e+01 1.9786570794024517e+01 3.3182864710741171e+01 
1411 1013 2 1.0264433681423708e+00 -2.1875687325850809e+04 1.0000000000000000e+00 1.8791887022001639e+01 1.9735893396215580e+01 3.3230661131691903e+01 
591 193 2 1.0260388403408816e+00 -1.2015565804181242e+04 1.0000000000000000e+00 1.8111980973186522e+01 1.9928976149058485e+01 3.3269767975162139e+01 
551 153 2 1.0310759893851114e+00 -3.5476014520037083e+03 1.0000000000000000e+00 1.8690186307081511e+01 1.9827351040634461e+01 3.3273924071743750e+01 
1725 1327 2 1.0290351382332628e+00 2.8016362786492159e+03 1.0000000000000000e+00 1.8728720768298114e+01 1.9762369107710718e+01 3.3274884434060496e+01 
1728 1330 2 1.0297268751279960e+00 2.7992184946750940e+03 1.0000000000000000e+00 1.8700955477567888e+01 1.9765359064601686e+01 3.3291944408689055e+01 
1135 737 2 1.0272242214973879e+00 5.3878304543853556e+03 1.0000000000000000e+00 1.8249556003762113e+01 1.9818639295242704e+01 3.3308815125691154e+01 
808 410 2 1.0268058874779045e+00 4.1823400782889621e+02 1.0000000000000000e+00 1.9058021441351652e+01 1.9700110442659522e+01 3.3319843892871766e+01 
875 477 2 1.0294784283555880e+00 2.1469646687316435e+04 1.0000000000000000e+00 1.9348073314408197e+01 1.9937823817684496e+01 3.3317728971167845e+01 
2022 1624 2 1.0287160161687730e+00 -8.2312210918984238e+03 1.0000000000000000e+00 1.8382771182679274e+01 1.9483459341590841e+01 3.3690093031348390e+01 
2023 1625 2 1.0303694117097968e+00 -8.2292978761126706e+03 1.0000000000000000e+00 1.8852197597654868e+01 1.9429233840937542e+01 3.3755241781160677e+01 
1996 1598 2 1.0288151939632877e+00 -1.3873638744526401e+04 1.0000000000000000e+00 1.9137780085368270e+01 1.9685510884168586e+01 3.3422517901132828e+01 
1763 1365 2 1.0280537464846340e+00 -1.3954104745305971e+04 1.0000000000000000e+00 1.8096606548076494e+01 1.9335897551275835e+01 3.4245288375916651e+01 
1134 736 2 1.0249812763417123e+00 5.3840322839909231e+03 1.0000000000000000e+00 1.9260383060101770e+01 1.9643360713450200e+01 3.3417928302003261e+01 
909 511 2 1.0288337120723463e+00 9.6063479234042425e+03 1.0000000000000000e+00 1.9512493266476859e+01 1.9687274925862155e+01 3.3685727608313520e+01 
1357 959 2 1.0279962920897705e+00 -5.5826066724968805e+03 1.0000000000000000e+00 1.9025741364267226e+01 1.9600279918261442e+01 3.3456812352263633e+01 
1953 1555 2 1.0263653758947389e+00 -6.6768306697150438e+03 1.0000000000000000e+00 1.8645499357889737e+01 1.9635528043751066e+01 3.3335571701770938e+01 
1890 1492 2 1.0268132172788649e+00 3.9260869116402578e+03 1.0000000000000000e+00 1.8503752399629644e+01 1.9444818731213083e+01 3.3636134758987858e+01 
1165 767 2 1.0277426228191737e+00 -2.2950476404042124e+03 1.0000000000000000e+00 1.9049665096698543e+01 1.9688301306882774e+01 3.3355784783159997e+01 
1848 1450 2 1.0293574592967747e+00 4.1616949200057607e+03 1.0000000000000000e+00 1.8584393785771912e+01 1.9564533652291566e+01 3.3520297441447326e+01 
412 14 2 1.0295554302566201e+00 -1.8294473559049260e+04 1.0000000000000000e+00 1.9176723901224229e+01 1.9667888869889513e+01 3.3483114464029001e+01 
1163 765 2 1.0282521630012422e+00 4.2193756730712494e+03 1.0000000000000000e+00 1.9371868433023366e+01 1.9661669179271879e+01 3.3572572150674510e+01 
870 472 2 1.0288510516158209e+00 1.5480264506043150e+04 1.0000000000000000e+00 1.8762532907067829e+01 1.9422473948049149e+01 3.3703979569023126e+01 
587 189 2 1.0299827201716274e+00 -1.3953223245295711e+04 1.0000000000000000e+00 1.9537540547039058e+01 1.9727287225911564e+01 3.3699380456823100e+01 
1404 1006 2 1.0262657815919800e+00 -1.0479686594053228e+03 1.0000000000000000e+00 1.9579527177251538e+01 1.9915004323312299e+01 3.3421424622379931e+01 
1845 1447 2 1.0294803248778914e+00 4.1620522360574269e+03 1.0000000000000000e+00 1.9568493581316304e+01 1.9662820521114980e+01 3.3809598935086228e+01 
1827 1429 2 1.0281895058162998e+00 3.5624210271521247e+02 1.0000000000000000e+00 1.8121480367582610e+01 1.9769759501332370e+01 3.3461159716236757e+01 
1897 1499 2 1.0250989102374646e+00 -3.9244509353425974e+02 1.0000000000000000e+00 1.8473980173865410e+01 1.9579740416379252e+01 3.3401038838340384e+01 
1283 885 2 1.0254238343939746e+00 5.9305028238025625e+03 1.0000000000000000e+00 1.7886572017824331e+01 1.9934595054430620e+01 3.3426488596935307e+01 
1977 1579 2 1.0266227276485380e+00 -3.6614406773985493e+03 1.0000000000000000e+00 1.8852027633215805e+01 1.9520981725594226e+01 3.3481219284415360e+01 
637 239 2 1.0308664844325375e+00 2.5555623541370019e+03 1.0000000000000000e+00 1.8546294539211946e+01 1.9140594760555111e+01 3.5001320464727748e+01 
1201 803 2 1.0293652373936342e+00 9.8522245196715285e+03 1.0000000000000000e+00 1.8702784026968413e+01 1.9434810085521871e+01 3.3702717133088328e+01 
590 192 2 1.0262164068974020e+00 -1.2017674891804363e+04 1.0000000000000000e+00 1.9545376231082251e+01 1.9944658631760145e+01 3.3365764025266600e+01 
640 242 2 1.0273777451220156e+00 2.5563750827420449e+03 1.0000000000000000e+00 1.9884685675481336e+01 1.9583067082998806e+01 3.5869796140318286e+01 
1863 1465 2 1.0275376608615052e+00 -8.0748926473612973e+03 1.0000000000000000e+00 1.9023630999497463e+01 1.9873468683939350e+01 5.2298727997832799e+01 
541 143 2 1.0268832662274656e+00 -4.2457434020588071e+03 1.0000000000000000e+00 1.9337395138115500e+01 1.9956355897328510e+01 5.2399322503143573e+01 
1892 1494 2 1.0271314126088729e+00 -8.7659443874854628e+02 1.0000000000000000e+00 1.8723670719959021e+01 1.9874087424527186e+01 5.2690531958387936e+01 
1024 626 2 1.0273673916252868e+00 2.7283671880325346e+02 1.0000000000000000e+00 1.9346904419154960e+01 1.9959748292801091e+01 5.2563313919770970e+01 
1931 1533 2 1.0224373701553493e+00 -1.9193748636816337e+04 1.0000000000000000e+00 1.8987515521065564e+01 1.9718181300572496e+01 5.1945896830565601e+01 
1758 1360 2 1.0272046497068932e+00 2.7308095991229047e+03 1.0000000000000000e+00 1.8675775050450703e+01 1.9951963780528352e+01 5.2363444123951140e+01 
1701 1303 2 1.0228489099836702e+00 3.7680791485979421e+03 1.0000000000000000e+00 1.9255907971520340e+01 1.9404527067292300e+01 5.3147907226725600e+01 
1839 1441 2 1.0271349260098106e+00 9.0648413121366157e+03 1.0000000000000000e+00 1.9482840390563773e+01 1.9796866356671757e+01 5.3152258174760028e+01 
1468 1070 2 1.0242171753412266e+00 8.0226468991017182e+03 1.0000000000000000e+00 1.8948338524397791e+01 1.9574553104723215e+01 5.2870152451829874e+01 
544 146 2 1.0230770051592983e+00 -4.2398331959637626e+03 1.0000000000000000e+00 1.8415750744511580e+01 1.9636680595021055e+01 5.3548157730876945e+01 
958 560 2 1.0289520172598818e+00 9.0208731618430102e+03 1.0000000000000000e+00 1.8940583968487303e+01 1.9862604801950599e+01 5.2761942328550404e+01 
831 433 2 1.0258671906284218e+00 1.5638768697572754e+04 1.0000000000000000e+00 1.8515251153342529e+01 1.9697855736947478e+01 5.3494159818655135e+01 
820 422 2 1.0260562516223111e+00 -9.0872129092444375e+03 1.0000000000000000e+00 1.9459809141547524e+01 1.9876493233782032e+01 5.2854945893537874e+01 
1646 1248 2 1.0308026317817225e+00 1.6157090355753968e+04 1.0000000000000000e+00 1.8825943411591833e+01 1.9875264607883459e+01 4.9973849616035103e+01 
762 364 2 1.0226972403882677e+00 -4.5076218448861855e+03 1.0000000000000000e+00 1.8614929850069011e+01 1.9239470866435457e+01 5.3685892971648947e+01 
1613 1215 2 1.0269336701286873e+00 -3.7128152205650508e+02 1.0000000000000000e+00 1.9440954687598374e+01 1.9844829987952313e+01 5.2984100709625693e+01 
1672 1274 2 1.0249546452371117e+00 9.1781180792488624e+02 1.0000000000000000e+00 1.9576661849130211e+01 1.9670033242219869e+01 5.3257367987481004e+01 
750 352 2 1.0284106640344406e+00 6.5183931182890310e+03 1.0000000000000000e+00 1.8520949976868906e+01 1.9994043100411236e+01 5.3705087811128351e+01 
1697 1299 2 1.0290654912935395e+00 5.1409185570047894e+03 1.0000000000000000e+00 1.9332129473523750e+01 1.9915653937951749e+01 5.2965713974840696e+01 
610 212 2 1.0305185833949784e+00 8.3358818498087785e+03 1.0000000000000000e+00 1.9098585839030648e+01 1.9855790250699524e+01 5.3035819082557438e+01 
571 173 2 1.0261500262742527e+00 -6.7977261237988989e+02 1.0000000000000000e+00 1.9602544883107839e+01 1.9764247343579491e+01 5.3315910799863865e+01 
942 544 2 1.0275629456251447e+00 1.2383872773832114e+04 1.0000000000000000e+00 1.8940069953166319e+01 1.9455357306094125e+01 5.3394857077089014e+01 
1721 1323 2 1.0252965678811699e+00 2.3502576278221081e+03 1.0000000000000000e+00 1.8689898160353113e+01 1.9292807206396425e+01 5.3680913460798678e+01 
601 203 2 1.0291642365843825e+00 -1.9588712099324105e+03 1.0000000000000000e+00 1.8934168538827034e+01 1.9548285548235857e+01 5.3389144225599544e+01 
1262 864 2 1.0289111768230002e+00 -1.1884014797700513e+04 1.0000000000000000e+00 1.9480255895827547e+01 1.9763276591317460e+01 5.3358938847784536e+01 
404 6 2 1.0268425061725932e+00 6.8000224747614607e+02 1.0000000000000000e+00 1.9422819895490903e+01 1.9368440439101292e+01 5.3560815339587599e+01 
1598 1200 2 1.0287805453222620e+00 -2.7136145947744512e+03 1.0000000000000000e+00 1.9404549854227159e+01 1.9614151758254799e+01 5.3396646437269965e+01 
570 172 2 1.0278687513305538e+00 -6.8321686727766212e+02 1.0000000000000000e+00 1.8845595562593633e+01 1.9493653317125752e+01 5.3423058721389779e+01 
890 492 2 1.0302030560426598e+00 2.4654051768598024e+03 1.0000000000000000e+00 1.9013514620254988e+01 1.9482929542842381e+01 5.3523833643080842e+01 
1540 1142 2 1.0284793881210976e+00 1.3944794572545907e+04 1.0000000000000000e+00 1.9492005112653370e+01 1.9764823616458226e+01 5.3335221953615275e+01 
1577 1179 2 1.0245896847478728e+00 4.2613253955455521e+03 1.0000000000000000e+00 1.9801301537493092e+01 1.9530144122327503e+01 5.3731911843651488e+01 
1514 1116 2 1.0324597821979742e+00 3.9011267259530159e+03 1.0000000000000000e+00 1.9478536175434840e+01 1.8990644569192991e+01 5.4254642358042020e+01 
712 314 2 1.0290813744426883e+00 4.9586981393048491e+03 1.0000000000000000e+00 1.8913027160857197e+01 1.9239031295551655e+01 5.3794722617346146e+01 
2035 1637 2 1.0296585040888722e+00 -4.9004591627808913e+03 1.0000000000000000e+00 1.9344993956499223e+01 1.9473008577849718e+01 5.3563485912141317e+01 
1700 1302 2 1.0289506523981000e+00 5.1386857984794888e+03 1.0000000000000000e+00 1.8975675605629323e+01 1.9703986923243423e+01 5.3104391600066982e+01 
858 460 2 1.0301237741682390e+00 2.7422909196924438e+03 1.0000000000000000e+00 1.9575732181477303e+01 1.9555988553112037e+01 5.3733677652372776e+01 
1208 810 2 1.0318335717801452e+00 1.8121371060382913e+04 1.0000000000000000e+00 1.8805836405742905e+01 1.9512430153581754e+01 5.3742925643794187e+01 