LAMMPS data file via write_data, version 30 Jul 2016, timestep = 50400000

180 atoms
2 atom types

0.0000000000000000e+00 2.0000000000000000e+01 xlo xhi
0.0000000000000000e+00 2.0000000000000000e+01 ylo yhi
0.0000000000000000e+00 2.0000000000000000e+01 zlo zhi

Masses

1 3.896
2 4.31

Atoms # meso-molecular

166 1 2 1.0279996020960700e+00 -1.1915558438687388e+02 1.0000000000000000e+00 1.5386811027570302e+00 9.9312232103403997e-01 6.9355340725779566e+00 
76 1 2 1.0279995788915386e+00 -5.4696028387049772e+01 1.0000000000000000e+00 1.5380222683337226e+00 9.8223980152897183e-01 6.9259436069510540e+00 
169 1 2 1.0280002163651814e+00 -3.6983645058328122e+01 1.0000000000000000e+00 4.3556594350834249e-01 2.4511747853233071e-01 6.5818641415937718e+00 
107 1 2 1.0280005356982773e+00 -4.3485570322706458e+01 1.0000000000000000e+00 3.9533022236498135e-02 1.5481538308915817e+00 6.8348367224107740e+00 
175 1 2 1.0280005329585093e+00 9.6669274163153780e+00 1.0000000000000000e+00 3.9098318513141127e-02 1.5477481626735470e+00 6.8348847438025011e+00 
8 1 2 1.0279950349321187e+00 2.2843944302724420e+01 1.0000000000000000e+00 1.6704248924014464e+00 3.8905196964278427e-01 9.2319586676187679e+00 
7 1 2 1.0279962931401869e+00 -5.1832423962254328e+00 1.0000000000000000e+00 1.6687396599086373e+00 3.3927407934272164e-01 9.2432835476574873e+00 
100 1 2 1.0280066224244158e+00 -6.8527859532384966e+01 1.0000000000000000e+00 1.5157899970902149e+00 1.3643165953871658e-01 9.0251079235987497e+00 
38 1 2 1.0280005626560618e+00 -6.7692285968794863e+01 1.0000000000000000e+00 1.1674567465253991e+00 2.8846610187398953e+00 8.7788655415263506e+00 
39 1 2 1.0280081398506415e+00 -5.5483578882491913e-01 1.0000000000000000e+00 1.1472308250498904e+00 2.9060067929550453e+00 8.6540737300047006e+00 
98 1 2 1.0279960343279511e+00 -9.6057166698465281e+01 1.0000000000000000e+00 8.9824259712308563e-01 2.9353088151815934e+00 8.8294478350220871e+00 
87 1 2 1.0280003570926719e+00 -1.7984095067167992e+01 1.0000000000000000e+00 6.2888299403672399e-01 1.5024742130435889e+01 7.3767634469045396e+00 
155 1 2 1.0280000894057788e+00 -7.0241371864802659e+01 1.0000000000000000e+00 2.7071502833353200e-01 1.5126158160353508e+01 6.8190374354687879e+00 
68 1 2 1.0279996583728446e+00 -7.5948919147958463e+01 1.0000000000000000e+00 6.2216691825131099e-01 1.7711915176976216e+01 6.7254668349578051e+00 
99 1 2 1.0279996855620694e+00 -1.3389585809078440e+02 1.0000000000000000e+00 5.9820449363777728e-01 1.7681715684439396e+01 6.7289223097554229e+00 
57 1 2 1.0280002097342076e+00 -5.0509967463051320e-01 1.0000000000000000e+00 1.9526467874278275e-01 1.8753422390389808e+01 6.7687994953447790e+00 
56 1 2 1.0280003953477981e+00 -1.0437843522446808e+02 1.0000000000000000e+00 1.3533048996840724e-01 1.8406289976123603e+01 7.9522120444260782e+00 
71 1 2 1.0280000887366514e+00 -1.0514624890786732e+02 1.0000000000000000e+00 1.3150177108724204e+00 1.1751863381288858e+01 9.5812829958829582e+00 
101 1 2 1.0280001040167122e+00 -6.2421282321049354e+01 1.0000000000000000e+00 1.2882770053020887e+00 1.1780689293145910e+01 9.5222919672095312e+00 
130 1 2 1.0280001132016074e+00 -4.3646781273598755e+01 1.0000000000000000e+00 1.6513207386636977e+00 1.2652805802692797e+01 9.8111965553994320e+00 
176 1 2 1.0279999477589870e+00 -7.0126106703517067e+01 1.0000000000000000e+00 6.2282642710016567e-01 1.3735999189722852e+01 8.4836559836331347e+00 
48 1 2 1.0279999957068309e+00 -6.2330217284080440e+01 1.0000000000000000e+00 4.3631753967166786e-01 1.3236337381518823e+01 8.5593292175543905e+00 
55 1 2 1.0280003430934914e+00 -2.1471170867983144e+01 1.0000000000000000e+00 1.5652307107116892e+00 1.5907724480111586e+01 9.1663486972347332e+00 
151 1 2 1.0279997953837969e+00 -4.7111204245123737e+01 1.0000000000000000e+00 5.2842493421764281e-01 1.5807822111951761e+01 9.2615451501979997e+00 
73 1 2 1.0279999510087050e+00 -5.4268107319941777e+01 1.0000000000000000e+00 1.6462263794202168e+00 1.6842476536491287e+01 9.3529356171697451e+00 
33 1 2 1.0279997906978702e+00 -2.9042927579020894e+01 1.0000000000000000e+00 1.6185534367449474e+00 1.6902400543698555e+01 9.1690757289470177e+00 
105 1 2 1.0279997944205774e+00 -7.6469619007089207e+01 1.0000000000000000e+00 9.6925863467079743e-01 1.2334053339111041e+01 1.1370235727472481e+01 
142 1 2 1.0279997899578193e+00 -9.9320433712665718e+01 1.0000000000000000e+00 9.6342842047586597e-01 1.2337674544793062e+01 1.1374852099229438e+01 
116 1 2 1.0280003641042867e+00 -6.2839812136818324e+01 1.0000000000000000e+00 1.6453222093946076e+00 1.3769382494564701e+01 1.1593776655095841e+01 
12 1 2 1.0279999895719218e+00 9.1702276698081757e+00 1.0000000000000000e+00 1.4885653789039577e+00 1.3406727985017579e+01 1.3042853900304765e+01 
85 1 2 1.0279993889043699e+00 -8.2534013260479995e+01 1.0000000000000000e+00 4.8118486951043515e-01 1.3405743057907191e+01 1.2993470402186963e+01 
88 1 2 1.0279999923299028e+00 -3.9991519880833081e+01 1.0000000000000000e+00 1.8682478835254575e+00 1.4586166050790681e+01 1.2648937801890023e+01 
9 1 2 1.0279999886476248e+00 -7.7729722712492105e+01 1.0000000000000000e+00 1.8503026799550344e+00 1.4594800560707530e+01 1.2652441078658990e+01 
163 1 2 1.0280000883853722e+00 -6.7288975247503572e+01 1.0000000000000000e+00 1.2519196395564771e+01 1.1342141960429380e+01 3.5919011666505125e+00 
127 1 2 1.0280000428791110e+00 -9.6482140334361659e+01 1.0000000000000000e+00 1.2319603663007280e+01 1.1534048508885020e+01 4.0810774914020076e+00 
60 1 2 1.0280001142873463e+00 -5.2717357643846746e+01 1.0000000000000000e+00 1.3321157088186036e+01 1.1665248560852838e+01 5.0168089676605563e+00 
63 1 2 1.0280003110550320e+00 2.0046170163831391e+01 1.0000000000000000e+00 1.3086388473902046e+01 1.2359170497828792e+01 5.1891956266041994e+00 
113 1 2 1.0279997223351041e+00 -5.5941155744552823e+01 1.0000000000000000e+00 1.3320876549233351e+01 1.5410352193972397e+01 5.7783960361292772e+00 
3 1 2 1.0279999442797476e+00 -7.1848187820896470e+01 1.0000000000000000e+00 1.3046451297134638e+01 1.6142993988916015e+01 5.1691933273252699e+00 
42 1 2 1.0279996004427423e+00 -5.2179759219685799e+01 1.0000000000000000e+00 1.2996472265640181e+01 1.8253445148945040e+01 5.9281906115768503e+00 
24 1 2 1.0279999892437071e+00 -4.9260096776143726e+01 1.0000000000000000e+00 1.2601871322050632e+01 1.8138558496369534e+01 6.2469397895684988e+00 
23 1 2 1.0279997628667001e+00 -9.0762847608317315e+01 1.0000000000000000e+00 1.2390994463253319e+01 1.8313341141764511e+01 7.5828161890177688e+00 
65 1 2 1.0280000046029205e+00 -1.2438373979423886e+02 1.0000000000000000e+00 1.3130168714293047e+01 1.9322490061718145e+01 6.4540202178349828e+00 
159 1 2 1.0280002045906944e+00 -7.1791662237601159e+01 1.0000000000000000e+00 1.3111473715601988e+01 1.6849214187968343e+01 8.8527920101532001e+00 
15 1 2 1.0280002013193661e+00 -1.0358547145223937e+01 1.0000000000000000e+00 1.3097078272337775e+01 1.6853573985324388e+01 8.8601297414432096e+00 
46 1 2 1.0279999257555139e+00 -6.8246880653794676e+01 1.0000000000000000e+00 1.1124120028979965e+01 1.8926908941184315e+01 9.7043996565252826e+00 
13 1 2 1.0280002162844304e+00 -7.9444838114243538e+01 1.0000000000000000e+00 1.1269779620338447e+01 1.8526017105864156e+01 9.6818828253520888e+00 
137 1 2 1.0279998027957353e+00 -3.5889408561592200e+00 1.0000000000000000e+00 1.1309820301694444e+01 1.9075713291273356e+01 9.6249211663280931e+00 
114 1 2 1.0279996291098590e+00 4.4022508500876727e+00 1.0000000000000000e+00 1.2393800489389431e+01 1.8387048553957481e+01 8.2154317115432640e+00 
144 1 2 1.0279997260051497e+00 -7.4752059086697869e+01 1.0000000000000000e+00 1.4856935134733812e+01 1.7617897022456275e+00 5.8563500117344134e+00 
58 1 2 1.0279999281303525e+00 -7.6086282738780966e+01 1.0000000000000000e+00 1.6193356509689011e+01 1.7199916211986215e+00 5.1848706331133876e+00 
150 1 2 1.0280001933611773e+00 -7.2246392938992670e+01 1.0000000000000000e+00 1.7002738463104745e+01 1.6912395279119865e+00 5.0370099096077174e+00 
20 1 2 1.0279996244816192e+00 -8.2550092915260421e+01 1.0000000000000000e+00 1.7612926735460711e+01 1.1006700434619205e+00 5.6488346763723216e+00 
148 1 2 1.0279995272133780e+00 -1.0063333391549113e+01 1.0000000000000000e+00 1.5220418799404593e+01 1.7109166185442510e+00 6.1323822109627812e+00 
89 1 2 1.0280002577315934e+00 -3.2345848242962433e+01 1.0000000000000000e+00 1.3883799656970618e+01 7.8064432862078914e-01 6.3005933261117901e+00 
83 1 2 1.0280002560530948e+00 -7.3402352565215111e+01 1.0000000000000000e+00 1.3883814205626427e+01 7.8008309803612652e-01 6.3010592823804750e+00 
146 1 2 1.0280015336181789e+00 -6.3504032408263889e+01 1.0000000000000000e+00 1.7706911627881599e+01 1.9680944089140833e+00 6.4399405822219178e+00 
103 1 2 1.0280015320584024e+00 -9.2855006520107182e+01 1.0000000000000000e+00 1.7706972084628980e+01 1.9679463524500795e+00 6.4400104487264596e+00 
139 1 2 1.0280028734103941e+00 -7.8387113909250061e+01 1.0000000000000000e+00 1.7751610676894988e+01 3.0994595765751653e-02 7.8895556747408477e+00 
81 1 2 1.0279961368439408e+00 -5.5671305527241266e+01 1.0000000000000000e+00 1.6451747721468713e+01 3.6688687241118960e+00 7.8508723774153912e+00 
47 1 2 1.0279968834004505e+00 -7.4609046972762798e+01 1.0000000000000000e+00 1.6487889546911685e+01 3.7421143391126588e+00 7.8940990651151841e+00 
66 1 2 1.0280083322917930e+00 -1.1130161219084306e+02 1.0000000000000000e+00 1.6900450453552420e+01 3.4810681545660169e+00 7.8694970250794443e+00 
112 1 2 1.0280002956363288e+00 -4.8851288744372141e+01 1.0000000000000000e+00 1.8670792738947078e+01 2.6018338463880164e-01 9.5653363296319505e+00 
95 1 2 1.0280006982048726e+00 -6.5136586050127576e+01 1.0000000000000000e+00 1.8694660063502464e+01 2.8386385062580710e-01 9.5444518123960957e+00 
178 1 2 1.0279993762576221e+00 -9.2333318426945112e+01 1.0000000000000000e+00 1.4805975057145982e+01 2.7648835968415666e+00 9.8225317181397411e+00 
168 1 2 1.0280015834401357e+00 -6.9920300515091313e+01 1.0000000000000000e+00 1.5378079480513739e+01 2.8550038994540836e+00 9.4825683148938928e+00 
121 1 2 1.0280000326581658e+00 -7.1159232398433574e+01 1.0000000000000000e+00 1.8491773737655063e+01 3.9019078778633189e+00 9.1882858546689921e+00 
128 1 2 1.0279995566835738e+00 -7.7477011718852708e+01 1.0000000000000000e+00 1.9670651999568413e+01 4.7832697750766417e+00 9.5492924954026801e+00 
14 1 2 1.0279995573835570e+00 -8.0111790290554652e+01 1.0000000000000000e+00 1.9670135982827077e+01 4.7827971381945353e+00 9.5505735192727972e+00 
126 1 2 1.0279999622224105e+00 -3.0909185667970913e+01 1.0000000000000000e+00 1.8850859886712346e+01 5.3870762936886045e+00 8.8632350227378396e+00 
149 1 2 1.0279999424737529e+00 -7.2337286385267788e+01 1.0000000000000000e+00 1.9421396293057114e+01 6.7702985115723644e+00 8.7102783702637012e+00 
4 1 2 1.0280000388872348e+00 3.9322230768452791e+00 1.0000000000000000e+00 1.9195891175035786e+01 7.2063597712799599e+00 8.7855395638712679e+00 
70 1 2 1.0280005316975769e+00 -3.5461667592797760e+01 1.0000000000000000e+00 1.8876383734713198e+01 7.4314244979421771e+00 9.3382863807508034e+00 
59 1 2 1.0279992850610238e+00 -1.0633135831416381e+02 1.0000000000000000e+00 1.6330051946948512e+01 1.5453856335640739e+00 1.0177446767559509e+01 
18 1 2 1.0279992541427740e+00 -1.5316569035632456e+01 1.0000000000000000e+00 1.6327630728659230e+01 1.5419293625609996e+00 1.0161374033249292e+01 
120 1 2 1.0279988742765975e+00 -8.5002117589769597e+01 1.0000000000000000e+00 1.7826574860138848e+01 1.9547918322390474e+00 1.0090823372281022e+01 
129 1 2 1.0279987014000258e+00 -8.0751326724262370e+01 1.0000000000000000e+00 1.7828997142745973e+01 1.9701229522934041e+00 1.0068098754599436e+01 
117 1 2 1.0279995184785966e+00 -7.2291385303736106e+01 1.0000000000000000e+00 1.4840864977169790e+01 2.6926217209740408e+00 1.0312247688977095e+01 
118 1 2 1.0280008705187185e+00 -3.2197884124594239e+01 1.0000000000000000e+00 1.7694202783288475e+01 3.9925720542823675e+00 1.0167333439564649e+01 
122 1 2 1.0280008722415501e+00 -7.6331211468054093e+01 1.0000000000000000e+00 1.7693969467052508e+01 3.9934177521513687e+00 1.0166628777893008e+01 
136 1 2 1.0280024868977247e+00 -9.9793424955843136e+01 1.0000000000000000e+00 1.4848493780582253e+01 4.0659463126325202e+00 1.1427442623333746e+01 
179 1 2 1.0279988820707788e+00 -2.6915060187900956e+01 1.0000000000000000e+00 1.4418992723864624e+01 4.5044889102817685e+00 1.1929636678483158e+01 
170 1 2 1.0279988820708599e+00 -2.4783779590600876e+01 1.0000000000000000e+00 1.4418992674008569e+01 4.5044877473594527e+00 1.1929636445342542e+01 
158 1 2 1.0279997992388581e+00 -9.6341155519276441e+01 1.0000000000000000e+00 1.5672814040230936e+01 5.7408613936132262e+00 1.1145627825653646e+01 
6 1 2 1.0280002166428546e+00 -1.0687384374298239e+02 1.0000000000000000e+00 1.5869760548715941e+01 5.8133167572301572e+00 1.1811703537204018e+01 
109 1 2 1.0280019109412029e+00 -6.7621274337682749e+01 1.0000000000000000e+00 1.8039754088120869e+01 4.8192923407328898e+00 1.1662563606918937e+01 
75 1 2 1.0279999851128776e+00 -8.9498133926113468e+01 1.0000000000000000e+00 1.6166921494363528e+01 6.3424519239559993e+00 1.1077959523136022e+01 
154 1 2 1.0280007447873074e+00 -3.4223420585797676e+01 1.0000000000000000e+00 1.6832792984449569e+01 7.9126481209478019e+00 1.1087712989133159e+01 
157 1 2 1.0279982529370333e+00 -3.3175774121169731e+01 1.0000000000000000e+00 1.8137209684706615e+01 6.4875022910232669e+00 1.0525385637898067e+01 
53 1 2 1.0280005808544186e+00 -9.0199579380238120e+01 1.0000000000000000e+00 1.8197905892680573e+01 6.5181244369662936e+00 1.0467372449910595e+01 
119 1 2 1.0279997656138680e+00 -7.2333284179977383e+01 1.0000000000000000e+00 1.6952549296116693e+01 8.2088736761909580e+00 1.0418947662641562e+01 
84 1 2 1.0279999893015048e+00 -6.2241826554972022e+01 1.0000000000000000e+00 1.7016314880131429e+01 8.2786570849028820e+00 1.0527013575981892e+01 
160 1 2 1.0279993397766003e+00 -1.1090408929078713e+02 1.0000000000000000e+00 1.7594128043257076e+01 5.3917879430215194e+00 1.2242171077737675e+01 
36 1 2 1.0279995629529750e+00 -6.2157899517389382e+01 1.0000000000000000e+00 1.8003035713337404e+01 5.4744248871185928e+00 1.2138798934752883e+01 
156 1 2 1.0279997916744850e+00 -5.7011192546252211e+01 1.0000000000000000e+00 1.3955777860766272e+01 1.1295045610066852e+01 1.4882517766332763e+00 
171 1 2 1.0280005778854986e+00 5.0301633965855714e+00 1.0000000000000000e+00 1.3902172059615379e+01 1.2525280046270828e+01 1.9540530919494175e+00 
35 1 2 1.0280001258098030e+00 -5.0931494424998256e+01 1.0000000000000000e+00 1.3641891033226555e+01 1.2245610807709566e+01 1.5315343590918373e+00 
29 1 2 1.0279997857502221e+00 -6.1837663654995993e+01 1.0000000000000000e+00 1.3894732744655565e+01 1.1064603429689145e+01 2.0159533080787160e+00 
30 1 2 1.0279998873245855e+00 -6.4846902110759643e+01 1.0000000000000000e+00 1.3376982820899844e+01 1.1195339243329137e+01 3.4693915450498833e+00 
164 1 2 1.0280005801819256e+00 -6.0893074070753087e+01 1.0000000000000000e+00 1.5018326612113080e+01 1.3205482752303968e+01 3.5861303488100749e+00 
54 1 2 1.0280005821103853e+00 -1.0910376881822583e+02 1.0000000000000000e+00 1.5017859536259824e+01 1.3210013980766401e+01 3.5859069630035276e+00 
64 1 2 1.0279993571733059e+00 -1.1589246602498615e+02 1.0000000000000000e+00 1.4351111753774557e+01 1.3288245841612948e+01 3.6032699361436795e+00 
92 1 2 1.0279998274943924e+00 -1.5217670081603055e+02 1.0000000000000000e+00 1.5834903359528505e+01 1.8413355474943792e+01 3.8646293578206836e+00 
78 1 2 1.0279999182479833e+00 -9.5449910504867255e+00 1.0000000000000000e+00 1.6209430831312087e+01 1.8728149038019009e+01 3.9081210428880344e+00 
111 1 2 1.0280018291179003e+00 -9.3161310942054016e+01 1.0000000000000000e+00 1.4753969866473103e+01 1.3262334537296020e+01 5.5814832978074493e+00 
40 1 2 1.0279989887532952e+00 -7.1375557170135062e+00 1.0000000000000000e+00 1.3722907498625105e+01 1.2955032446849986e+01 5.7933167257495191e+00 
180 1 2 1.0279995001169500e+00 -6.1292654160347368e+01 1.0000000000000000e+00 1.3427752334306250e+01 1.5172764943036350e+01 5.2697257135364550e+00 
143 1 2 1.0280001123448956e+00 7.0934737551119840e+00 1.0000000000000000e+00 1.4692172862652980e+01 1.6284848981113377e+01 4.7865734776766402e+00 
102 1 2 1.0280001947025419e+00 -3.1759447166154469e+01 1.0000000000000000e+00 1.4705676344079695e+01 1.6366007744113741e+01 4.7983226362480593e+00 
32 1 2 1.0279994425783998e+00 -6.8687052829516674e+01 1.0000000000000000e+00 1.5955283630670912e+01 1.7826689962217245e+01 5.0982191637270819e+00 
104 1 2 1.0279998155902101e+00 -2.2455450979082889e+02 1.0000000000000000e+00 1.4670447719597696e+01 1.9209984278197975e+01 4.7862439503810190e+00 
5 1 2 1.0279999766959922e+00 -9.1861451321878349e+01 1.0000000000000000e+00 1.4615061932221394e+01 1.9318276430628341e+01 4.9753214336203175e+00 
31 1 2 1.0280012191000716e+00 -5.7107768807657159e+01 1.0000000000000000e+00 1.6338883718807882e+01 1.9414243666203621e+01 4.8263587432154305e+00 
21 1 2 1.0280002620504243e+00 4.8316755152236288e+00 1.0000000000000000e+00 1.5239987843044453e+01 1.3727591820189838e+01 7.9886103112303379e+00 
162 1 2 1.0280003026607689e+00 1.4330405883238807e+01 1.0000000000000000e+00 1.4556653144920372e+01 1.3423012013439914e+01 6.6090835750225390e+00 
141 1 2 1.0280001121398867e+00 -2.7405462199037746e+01 1.0000000000000000e+00 1.6093112050894582e+01 1.3797659297135686e+01 6.7474240549250641e+00 
96 1 2 1.0279993191093133e+00 -9.8592705847366091e+01 1.0000000000000000e+00 1.5507677223819979e+01 1.4570729070788971e+01 6.2933620198484457e+00 
145 1 2 1.0280003470894032e+00 -6.4538591945087262e+01 1.0000000000000000e+00 1.6272678391300204e+01 1.5393669349667068e+01 6.6249742659735924e+00 
11 1 2 1.0279994367160079e+00 -1.1079071048278442e+02 1.0000000000000000e+00 1.9125032221086244e+01 1.4489692767837992e+01 7.4563012794551096e+00 
28 1 2 1.0280002323355235e+00 -6.2766044478146711e+01 1.0000000000000000e+00 1.9568577008152044e+01 1.5582673209026115e+01 6.8854791148387440e+00 
19 1 2 1.0280005916419741e+00 -1.0374772334948611e+02 1.0000000000000000e+00 1.4137214763192990e+01 1.6867586897832112e+01 6.0277390760478280e+00 
140 1 2 1.0280010329394487e+00 5.8406796734927617e+00 1.0000000000000000e+00 1.4506284998433884e+01 1.7901137865193924e+01 7.2634903758425819e+00 
132 1 2 1.0280002296890645e+00 -8.3216816347286752e+01 1.0000000000000000e+00 1.6651041026163501e+01 1.6532617432672321e+01 6.4374824223314064e+00 
110 1 2 1.0279999185207900e+00 -6.4981895087142121e+01 1.0000000000000000e+00 1.6595927948148596e+01 1.6554750926999500e+01 6.3555261907017657e+00 
61 1 2 1.0279996154108688e+00 -6.9731579737956196e+01 1.0000000000000000e+00 1.5452962369740140e+01 1.8040833916199855e+01 6.4691643231090321e+00 
106 1 2 1.0279992790829764e+00 -6.9843109693257276e+01 1.0000000000000000e+00 1.5477423352891655e+01 1.9501922620774881e+01 7.5863636561887979e+00 
69 1 2 1.0279999071471362e+00 -7.0781513314840851e+01 1.0000000000000000e+00 1.4253471694838579e+01 1.8995350357716010e+01 7.9126199652326514e+00 
172 1 2 1.0279998565756159e+00 -1.1991113848341155e+02 1.0000000000000000e+00 1.5920445154324115e+01 1.9817869036268867e+01 6.1136237552574144e+00 
97 1 2 1.0280012188309837e+00 -5.7767175149606459e+01 1.0000000000000000e+00 1.5924987506056951e+01 1.9595128534085738e+01 7.2582387219920896e+00 
173 1 2 1.0280009688022445e+00 -4.4465406229256011e+01 1.0000000000000000e+00 1.7840687383142239e+01 1.9637665505263509e+01 7.6973858485732833e+00 
124 1 2 1.0279979686759195e+00 -5.9743552196603865e+01 1.0000000000000000e+00 1.8750437312233785e+01 1.9842382661562020e+01 7.5522697703243908e+00 
152 1 2 1.0280001123600726e+00 -5.0620608600796643e+01 1.0000000000000000e+00 1.7442155272034036e+01 1.1630206752378061e+01 8.0410771384434181e+00 
77 1 2 1.0280001103401253e+00 -8.3618498991806021e+01 1.0000000000000000e+00 1.7440577877608057e+01 1.1622642433922664e+01 8.0469781376573746e+00 
50 1 2 1.0279998273074897e+00 -1.0718623743436552e+02 1.0000000000000000e+00 1.7605656433020236e+01 1.1671429374392897e+01 8.7816270957574432e+00 
123 1 2 1.0280005064966879e+00 -5.8518498593667779e+01 1.0000000000000000e+00 1.5871185689197755e+01 1.3765959672657704e+01 8.4680952893388639e+00 
108 1 2 1.0279998956031484e+00 -6.9619746441780407e+01 1.0000000000000000e+00 1.7750729014273258e+01 1.3205708916733821e+01 8.9856110099542548e+00 
1 1 2 1.0280002507615860e+00 -7.5319284530710277e+01 1.0000000000000000e+00 1.7640495992363494e+01 1.3489351018065541e+01 8.9077359552660074e+00 
90 1 2 1.0280003629228012e+00 -1.0611931462705309e+02 1.0000000000000000e+00 1.9357665338686108e+01 1.3499992822676967e+01 8.8545767065024332e+00 
94 1 2 1.0280001241601060e+00 -3.5510817054186560e+01 1.0000000000000000e+00 1.6123649030328025e+01 1.4500802571046675e+01 8.2623236634529569e+00 
27 1 2 1.0280001711810931e+00 -1.3818887664404503e+01 1.0000000000000000e+00 1.7993761932924741e+01 1.5412920492576397e+01 8.2047169853869093e+00 
44 1 2 1.0279997063813335e+00 -6.4204176953882637e+01 1.0000000000000000e+00 1.8069987496287528e+01 1.5380697027357764e+01 8.1533046853281039e+00 
161 1 2 1.0279992724191371e+00 -1.0807903188120079e+02 1.0000000000000000e+00 1.4842717800884015e+01 1.7727382909645762e+01 8.9843026000029180e+00 
147 1 2 1.0280001934320884e+00 -9.3091176992771992e+01 1.0000000000000000e+00 1.3421352794130614e+01 1.7680403443689858e+01 9.5934816709827864e+00 
16 1 2 1.0280008657647803e+00 -5.6297941932633904e+01 1.0000000000000000e+00 1.6680235279989205e+01 1.7500364557540170e+01 8.1118624135938528e+00 
43 1 2 1.0279998922794427e+00 -6.3334252623788110e+01 1.0000000000000000e+00 1.7248436104186176e+01 1.6542490743909951e+01 9.8697345437202539e+00 
135 1 2 1.0279998879862029e+00 -5.5379179123409138e+01 1.0000000000000000e+00 1.6378327032975385e+01 1.6981491823802923e+01 8.3499722012238795e+00 
174 1 2 1.0280002928671890e+00 -6.0880388644420051e+01 1.0000000000000000e+00 1.7149854146630677e+01 1.7187560687587375e+01 9.6718387489918509e+00 
125 1 2 1.0279999226635481e+00 -2.9296941706367047e+01 1.0000000000000000e+00 1.7970052530038391e+01 1.7558943112261129e+01 8.5459517011454409e+00 
134 1 2 1.0279995597628002e+00 -3.5724702771651657e+01 1.0000000000000000e+00 1.9726218558838081e+01 1.6707345969851659e+01 8.2884909834962563e+00 
80 1 2 1.0280004811654955e+00 -8.9870056599085657e+01 1.0000000000000000e+00 1.9187588828930618e+01 1.7433963281585502e+01 8.6195778889477470e+00 
67 1 2 1.0279998487444524e+00 -1.8961799300579247e+00 1.0000000000000000e+00 1.4536047793025997e+01 1.8276109905507809e+01 9.1252058147339703e+00 
93 1 2 1.0279993532051783e+00 -1.2385709398157145e+02 1.0000000000000000e+00 1.9222973655301754e+01 1.9244309210027787e+01 9.0765898975415968e+00 
10 1 2 1.0280007253034584e+00 -6.6809454029616461e+01 1.0000000000000000e+00 1.9511359503732194e+01 1.3574970281500644e+01 1.1798057451739950e+01 
45 1 2 1.0280001620075998e+00 -6.5560228842998654e+01 1.0000000000000000e+00 1.8224709588887581e+01 1.5321292147969247e+01 1.0174196682659163e+01 
17 1 2 1.0280003042826922e+00 -4.7666955593004829e+01 1.0000000000000000e+00 1.8210589162967771e+01 1.5266190566554638e+01 1.0127715931171428e+01 
79 1 2 1.0280005110077890e+00 -6.4789880084364810e+01 1.0000000000000000e+00 1.9900406815648861e+01 1.4370732462599795e+01 1.0352963839609226e+01 
34 1 2 1.0280002287702585e+00 -5.9451094045839490e+01 1.0000000000000000e+00 1.9906048346834904e+01 1.4379351117647238e+01 1.0337793328225059e+01 
62 1 2 1.0279999236157735e+00 -7.6089403349961913e+01 1.0000000000000000e+00 1.8849955168146874e+01 1.7435181161060832e+01 1.1941588953270223e+01 
133 1 2 1.0280008418957318e+00 -5.7098166953029228e+01 1.0000000000000000e+00 1.9032538295129861e+01 1.6906574159279465e+01 1.0376884762238264e+01 
177 1 2 1.0279991373133426e+00 -7.3647546123383520e+01 1.0000000000000000e+00 1.8817010267173782e+01 1.8258577832060123e+01 1.0690770726133193e+01 
82 1 2 1.0279991373128521e+00 -2.2822157970383799e+01 1.0000000000000000e+00 1.8817010362071262e+01 1.8258577840512999e+01 1.0690770692958305e+01 
51 1 2 1.0280022036618151e+00 -5.9744215860403031e+01 1.0000000000000000e+00 1.6645824522810823e+01 1.3140779228618333e+01 1.3822874135278473e+01 
138 1 2 1.0280008244630252e+00 -2.7210024439110285e+01 1.0000000000000000e+00 1.7909698103756472e+01 1.2496658160682719e+01 1.2529757534814960e+01 
52 1 2 1.0280008090085824e+00 -6.1412021884199085e+01 1.0000000000000000e+00 1.7924487360858208e+01 1.2491954258509221e+01 1.2524585838800318e+01 
86 1 2 1.0279990960272209e+00 -7.1984106446533033e+01 1.0000000000000000e+00 1.8761164122047099e+01 1.2568479615805654e+01 1.3697390874658181e+01 
153 1 2 1.0279993042466860e+00 -4.9275526391373624e+01 1.0000000000000000e+00 1.8922889067156202e+01 1.2606192928286303e+01 1.3592843343375986e+01 
91 1 2 1.0280000712105613e+00 -6.8246078798849794e+01 1.0000000000000000e+00 1.9189884596586293e+01 1.4772881514933474e+01 1.2474944451015297e+01 
41 1 2 1.0279999841562610e+00 -9.9466463850352184e+01 1.0000000000000000e+00 1.9190244256445723e+01 1.4785685115871415e+01 1.2474183866893391e+01 
115 1 2 1.0279997867346355e+00 -4.8073501579794268e+01 1.0000000000000000e+00 1.9065928738252687e+01 1.6377350353383864e+01 1.2414381803750191e+01 
131 1 2 1.0280001845461881e+00 -9.2097492713889991e+01 1.0000000000000000e+00 1.8576455415046642e+01 1.6486050125036257e+01 1.2210696485476726e+01 
22 1 2 1.0280004863104781e+00 -6.9171748490944367e+01 1.0000000000000000e+00 1.5881283605629164e+01 1.3552804633412366e+01 1.4290293046950488e+01 
167 1 2 1.0279972880070265e+00 -7.9173105955980944e+01 1.0000000000000000e+00 1.7061647553008243e+01 1.3228454910495833e+01 1.4147240961113736e+01 
25 1 2 1.0280000820753599e+00 -1.6547504084051603e+01 1.0000000000000000e+00 1.5401748698653964e+01 1.4671925365710527e+01 1.5236914014754850e+01 
72 1 2 1.0279997830923437e+00 -1.1475639398810500e+01 1.0000000000000000e+00 1.5011994388289260e+01 1.5145574990581839e+01 1.5480758932077707e+01 
74 1 2 1.0279995307557810e+00 -9.6565271506398020e+01 1.0000000000000000e+00 1.6099813836123133e+01 1.4294718466406440e+01 1.5130657419194804e+01 
26 1 2 1.0279997334053694e+00 -7.7517487994380843e+01 1.0000000000000000e+00 1.3976498551987424e+01 1.6392040899295093e+01 1.5865765202355655e+01 
37 1 2 1.0280002838648159e+00 -2.0730300395927948e+01 1.0000000000000000e+00 1.4548932965835089e+01 1.5407142190083748e+01 1.7227141778679155e+01 
2 1 2 1.0280003642640858e+00 -7.1062068569216962e+01 1.0000000000000000e+00 1.4716982235910429e+01 1.5418574881147121e+01 1.7214976409498675e+01 
165 1 2 1.0279997856202059e+00 -5.9336444240523186e+01 1.0000000000000000e+00 1.4032744357567880e+01 1.6640671879432290e+01 1.6030236573792550e+01 
49 1 2 1.0279999942879521e+00 -1.8101794988922414e+01 1.0000000000000000e+00 1.4597891087017143e+01 1.6632532711092335e+01 1.6978048319151910e+01 

Velocities

166 3.0288124329147609e-01 2.1785409047047494e-01 6.4657918243133564e-02
76 3.0287873024224055e-01 2.1785740964574160e-01 6.4665131106504598e-02
169 3.0291927082299391e-01 2.1778302656271559e-01 6.4991950067794041e-02
107 3.0275189712088113e-01 2.1787240478447847e-01 6.4642976069316238e-02
175 3.0275215480991113e-01 2.1787192726839905e-01 6.4643282758836920e-02
8 3.0278604687183247e-01 2.1852944745554034e-01 6.4459631766266484e-02
7 3.0284424607968458e-01 2.1866054912104177e-01 6.4543274773648351e-02
100 3.0292507588971884e-01 2.1817253320133909e-01 6.4939083166363168e-02
38 3.0058762910430564e-01 2.1893798260072744e-01 6.2486789079425058e-02
39 3.0097181073464463e-01 2.1913189253278195e-01 6.2129492268024798e-02
98 3.0045241385605731e-01 2.1900403157803258e-01 6.2261025764383339e-02
87 3.0374987610435678e-01 2.1819142898201052e-01 6.7037539100115243e-02
155 3.0365599306436908e-01 2.1819155981059191e-01 6.7042880687036635e-02
68 3.0325927382977391e-01 2.1799431640903014e-01 6.6287958818151721e-02
99 3.0327006852777189e-01 2.1800008394549486e-01 6.6291802367834815e-02
57 3.0314361582256960e-01 2.1797435823063918e-01 6.5963635861212205e-02
56 3.0319609244817236e-01 2.1802705498563646e-01 6.6190395693676518e-02
71 3.0364265855950523e-01 2.1816576400507490e-01 6.7006214752247786e-02
101 3.0364366856822245e-01 2.1816396995115975e-01 6.7000943129637114e-02
130 3.0366784433189414e-01 2.1821329844307938e-01 6.6992333102847412e-02
176 3.0372913222622511e-01 2.1818589393463356e-01 6.6994164286774058e-02
48 3.0373508842370461e-01 2.1817658286812366e-01 6.6991808198110028e-02
55 3.0373562656036301e-01 2.1818524502441095e-01 6.6852340054610562e-02
151 3.0369843485527948e-01 2.1826574534732940e-01 6.6822555645649248e-02
73 3.0365677696937204e-01 2.1819990010988488e-01 6.6813426425338662e-02
33 3.0363326656817496e-01 2.1816999375101254e-01 6.6813927492741426e-02
105 3.0349015714280386e-01 2.1826543273309396e-01 6.6912670407599392e-02
142 3.0349049758743318e-01 2.1826582640461467e-01 6.6911808344542592e-02
116 3.0343395162691394e-01 2.1830025774102257e-01 6.6835551916441083e-02
12 3.0318051586977768e-01 2.1832529288809147e-01 6.6826260274068072e-02
85 3.0310838823359199e-01 2.1842452463628531e-01 6.6615749743743666e-02
88 3.0322708577600649e-01 2.1832352183552622e-01 6.6892263213679304e-02
9 3.0322652652335336e-01 2.1832294924829510e-01 6.6891986587949162e-02
163 3.0400197498975207e-01 2.1735299444888601e-01 6.9718850711286556e-02
127 3.0397688413232604e-01 2.1738865374528854e-01 6.9717888120195817e-02
60 3.0395766060863266e-01 2.1746543315884029e-01 6.9667588706164532e-02
63 3.0386537610154085e-01 2.1756993056678220e-01 6.9627047310210494e-02
113 3.0358369718060452e-01 2.1789139075768782e-01 6.8358478026015024e-02
3 3.0350963270587694e-01 2.1784770022553704e-01 6.8376680403775189e-02
42 3.0321077169388022e-01 2.1822978439092561e-01 6.8072504367864356e-02
24 3.0322110049162010e-01 2.1824814391944383e-01 6.8074988184383400e-02
23 3.0334457195360748e-01 2.1829611522256398e-01 6.8109389254845304e-02
65 3.0311886085191581e-01 2.1814568285849703e-01 6.7768638232922424e-02