LAMMPS data file via write_data, version 30 Jul 2016, timestep = 600000

610 atoms
8 atom types

0.0000000000000000e+00 4.0000000000000000e+01 xlo xhi
0.0000000000000000e+00 4.0000000000000000e+01 ylo yhi
0.0000000000000000e+00 1.0000000000000000e+02 zlo zhi

Masses

1 11.85
2 0.0005
3 643.398
4 804.247
5 804.247
6 804.247
7 804.247
8 804.247

Atoms # meso-molecular

1 2 4 2.1656230630654659e+02 0.0000000000000000e+00 1.0000000000000000e+00 0.0000000000000000e+00 0.0000000000000000e+00 2.5000000000000000e+00 
21 2 4 2.1656230630654659e+02 0.0000000000000000e+00 1.0000000000000000e+00 2.0000000000000000e+00 0.0000000000000000e+00 2.5000000000000000e+00 
41 2 4 2.1656230630654659e+02 0.0000000000000000e+00 1.0000000000000000e+00 4.0000000000000000e+00 0.0000000000000000e+00 2.5000000000000000e+00 
61 2 4 2.1656230630654659e+02 0.0000000000000000e+00 1.0000000000000000e+00 6.0000000000000000e+00 0.0000000000000000e+00 2.5000000000000000e+00 
81 2 4 2.1656230630654659e+02 0.0000000000000000e+00 1.0000000000000000e+00 8.0000000000000000e+00 0.0000000000000000e+00 2.5000000000000000e+00 
101 2 4 2.1656230630654659e+02 0.0000000000000000e+00 1.0000000000000000e+00 1.0000000000000000e+01 0.0000000000000000e+00 2.5000000000000000e+00 
121 2 4 2.1656230630654659e+02 0.0000000000000000e+00 1.0000000000000000e+00 1.2000000000000000e+01 0.0000000000000000e+00 2.5000000000000000e+00 
141 2 4 2.1656230630654659e+02 0.0000000000000000e+00 1.0000000000000000e+00 1.4000000000000000e+01 0.0000000000000000e+00 2.5000000000000000e+00 
161 2 4 2.1656230630654659e+02 0.0000000000000000e+00 1.0000000000000000e+00 1.6000000000000000e+01 0.0000000000000000e+00 2.5000000000000000e+00 
181 2 4 2.1656230630654659e+02 0.0000000000000000e+00 1.0000000000000000e+00 1.8000000000000000e+01 0.0000000000000000e+00 2.5000000000000000e+00 
2 2 4 2.1656230630654659e+02 0.0000000000000000e+00 1.0000000000000000e+00 0.0000000000000000e+00 2.0000000000000000e+00 2.5000000000000000e+00 
22 2 4 2.1656230630654659e+02 0.0000000000000000e+00 1.0000000000000000e+00 2.0000000000000000e+00 2.0000000000000000e+00 2.5000000000000000e+00 
42 2 4 2.1656230630654659e+02 0.0000000000000000e+00 1.0000000000000000e+00 4.0000000000000000e+00 2.0000000000000000e+00 2.5000000000000000e+00 
62 2 4 2.1656230630654659e+02 0.0000000000000000e+00 1.0000000000000000e+00 6.0000000000000000e+00 2.0000000000000000e+00 2.5000000000000000e+00 
82 2 4 2.1656230630654659e+02 0.0000000000000000e+00 1.0000000000000000e+00 8.0000000000000000e+00 2.0000000000000000e+00 2.5000000000000000e+00 
102 2 4 2.1656230630654659e+02 0.0000000000000000e+00 1.0000000000000000e+00 1.0000000000000000e+01 2.0000000000000000e+00 2.5000000000000000e+00 
122 2 4 2.1656230630654659e+02 0.0000000000000000e+00 1.0000000000000000e+00 1.2000000000000000e+01 2.0000000000000000e+00 2.5000000000000000e+00 
142 2 4 2.1656230630654659e+02 0.0000000000000000e+00 1.0000000000000000e+00 1.4000000000000000e+01 2.0000000000000000e+00 2.5000000000000000e+00 
162 2 4 2.1656230630654659e+02 0.0000000000000000e+00 1.0000000000000000e+00 1.6000000000000000e+01 2.0000000000000000e+00 2.5000000000000000e+00 
182 2 4 2.1656230630654659e+02 0.0000000000000000e+00 1.0000000000000000e+00 1.8000000000000000e+01 2.0000000000000000e+00 2.5000000000000000e+00 
3 2 4 2.1656230630654659e+02 0.0000000000000000e+00 1.0000000000000000e+00 0.0000000000000000e+00 4.0000000000000000e+00 2.5000000000000000e+00 
23 2 4 2.1656230630654659e+02 0.0000000000000000e+00 1.0000000000000000e+00 2.0000000000000000e+00 4.0000000000000000e+00 2.5000000000000000e+00 
43 2 4 2.1656230630654659e+02 0.0000000000000000e+00 1.0000000000000000e+00 4.0000000000000000e+00 4.0000000000000000e+00 2.5000000000000000e+00 
63 2 4 2.1656230630654659e+02 0.0000000000000000e+00 1.0000000000000000e+00 6.0000000000000000e+00 4.0000000000000000e+00 2.5000000000000000e+00 
83 2 4 2.1656230630654659e+02 0.0000000000000000e+00 1.0000000000000000e+00 8.0000000000000000e+00 4.0000000000000000e+00 2.5000000000000000e+00 
103 2 4 2.1656230630654659e+02 0.0000000000000000e+00 1.0000000000000000e+00 1.0000000000000000e+01 4.0000000000000000e+00 2.5000000000000000e+00 
123 2 4 2.1656230630654659e+02 0.0000000000000000e+00 1.0000000000000000e+00 1.2000000000000000e+01 4.0000000000000000e+00 2.5000000000000000e+00 
143 2 4 2.1656230630654659e+02 0.0000000000000000e+00 1.0000000000000000e+00 1.4000000000000000e+01 4.0000000000000000e+00 2.5000000000000000e+00 
163 2 4 2.1656230630654659e+02 0.0000000000000000e+00 1.0000000000000000e+00 1.6000000000000000e+01 4.0000000000000000e+00 2.5000000000000000e+00 
183 2 4 2.1656230630654659e+02 0.0000000000000000e+00 1.0000000000000000e+00 1.8000000000000000e+01 4.0000000000000000e+00 2.5000000000000000e+00 
4 2 4 2.1656230630654659e+02 0.0000000000000000e+00 1.0000000000000000e+00 0.0000000000000000e+00 6.0000000000000000e+00 2.5000000000000000e+00 
24 2 4 2.1656230630654659e+02 0.0000000000000000e+00 1.0000000000000000e+00 2.0000000000000000e+00 6.0000000000000000e+00 2.5000000000000000e+00 
44 2 4 2.1656230630654659e+02 0.0000000000000000e+00 1.0000000000000000e+00 4.0000000000000000e+00 6.0000000000000000e+00 2.5000000000000000e+00 
64 2 4 2.1656230630654659e+02 0.0000000000000000e+00 1.0000000000000000e+00 6.0000000000000000e+00 6.0000000000000000e+00 2.5000000000000000e+00 
84 2 4 2.1656230630654659e+02 0.0000000000000000e+00 1.0000000000000000e+00 8.0000000000000000e+00 6.0000000000000000e+00 2.5000000000000000e+00 
104 2 4 2.1656230630654659e+02 0.0000000000000000e+00 1.0000000000000000e+00 1.0000000000000000e+01 6.0000000000000000e+00 2.5000000000000000e+00 
124 2 4 2.1656230630654659e+02 0.0000000000000000e+00 1.0000000000000000e+00 1.2000000000000000e+01 6.0000000000000000e+00 2.5000000000000000e+00 
144 2 4 2.1656230630654659e+02 0.0000000000000000e+00 1.0000000000000000e+00 1.4000000000000000e+01 6.0000000000000000e+00 2.5000000000000000e+00 
164 2 4 2.1656230630654659e+02 0.0000000000000000e+00 1.0000000000000000e+00 1.6000000000000000e+01 6.0000000000000000e+00 2.5000000000000000e+00 
184 2 4 2.1656230630654659e+02 0.0000000000000000e+00 1.0000000000000000e+00 1.8000000000000000e+01 6.0000000000000000e+00 2.5000000000000000e+00 
5 2 4 2.1656230630654659e+02 0.0000000000000000e+00 1.0000000000000000e+00 0.0000000000000000e+00 8.0000000000000000e+00 2.5000000000000000e+00 
25 2 4 2.1656230630654659e+02 0.0000000000000000e+00 1.0000000000000000e+00 2.0000000000000000e+00 8.0000000000000000e+00 2.5000000000000000e+00 
45 2 4 2.1656230630654659e+02 0.0000000000000000e+00 1.0000000000000000e+00 4.0000000000000000e+00 8.0000000000000000e+00 2.5000000000000000e+00 
65 2 4 2.1656230630654659e+02 0.0000000000000000e+00 1.0000000000000000e+00 6.0000000000000000e+00 8.0000000000000000e+00 2.5000000000000000e+00 
85 2 4 2.1656230630654659e+02 0.0000000000000000e+00 1.0000000000000000e+00 8.0000000000000000e+00 8.0000000000000000e+00 2.5000000000000000e+00 
105 2 4 2.1656230630654659e+02 0.0000000000000000e+00 1.0000000000000000e+00 1.0000000000000000e+01 8.0000000000000000e+00 2.5000000000000000e+00 
125 2 4 2.1656230630654659e+02 0.0000000000000000e+00 1.0000000000000000e+00 1.2000000000000000e+01 8.0000000000000000e+00 2.5000000000000000e+00 
145 2 4 2.1656230630654659e+02 0.0000000000000000e+00 1.0000000000000000e+00 1.4000000000000000e+01 8.0000000000000000e+00 2.5000000000000000e+00 
165 2 4 2.1656230630654659e+02 0.0000000000000000e+00 1.0000000000000000e+00 1.6000000000000000e+01 8.0000000000000000e+00 2.5000000000000000e+00 
185 2 4 2.1656230630654659e+02 0.0000000000000000e+00 1.0000000000000000e+00 1.8000000000000000e+01 8.0000000000000000e+00 2.5000000000000000e+00 
6 2 4 2.1656230630654659e+02 0.0000000000000000e+00 1.0000000000000000e+00 0.0000000000000000e+00 1.0000000000000000e+01 2.5000000000000000e+00 
26 2 4 2.1656230630654659e+02 0.0000000000000000e+00 1.0000000000000000e+00 2.0000000000000000e+00 1.0000000000000000e+01 2.5000000000000000e+00 
46 2 4 2.1656230630654659e+02 0.0000000000000000e+00 1.0000000000000000e+00 4.0000000000000000e+00 1.0000000000000000e+01 2.5000000000000000e+00 
66 2 4 2.1656230630654659e+02 0.0000000000000000e+00 1.0000000000000000e+00 6.0000000000000000e+00 1.0000000000000000e+01 2.5000000000000000e+00 
86 2 4 2.1656230630654659e+02 0.0000000000000000e+00 1.0000000000000000e+00 8.0000000000000000e+00 1.0000000000000000e+01 2.5000000000000000e+00 
106 2 4 2.1656230630654659e+02 0.0000000000000000e+00 1.0000000000000000e+00 1.0000000000000000e+01 1.0000000000000000e+01 2.5000000000000000e+00 
126 2 4 2.1656230630654659e+02 0.0000000000000000e+00 1.0000000000000000e+00 1.2000000000000000e+01 1.0000000000000000e+01 2.5000000000000000e+00 
146 2 4 2.1656230630654659e+02 0.0000000000000000e+00 1.0000000000000000e+00 1.4000000000000000e+01 1.0000000000000000e+01 2.5000000000000000e+00 
166 2 4 2.1656230630654659e+02 0.0000000000000000e+00 1.0000000000000000e+00 1.6000000000000000e+01 1.0000000000000000e+01 2.5000000000000000e+00 
186 2 4 2.1656230630654659e+02 0.0000000000000000e+00 1.0000000000000000e+00 1.8000000000000000e+01 1.0000000000000000e+01 2.5000000000000000e+00 
7 2 4 2.1656230630654659e+02 0.0000000000000000e+00 1.0000000000000000e+00 0.0000000000000000e+00 1.2000000000000000e+01 2.5000000000000000e+00 
27 2 4 2.1656230630654659e+02 0.0000000000000000e+00 1.0000000000000000e+00 2.0000000000000000e+00 1.2000000000000000e+01 2.5000000000000000e+00 
47 2 4 2.1656230630654659e+02 0.0000000000000000e+00 1.0000000000000000e+00 4.0000000000000000e+00 1.2000000000000000e+01 2.5000000000000000e+00 
67 2 4 2.1656230630654659e+02 0.0000000000000000e+00 1.0000000000000000e+00 6.0000000000000000e+00 1.2000000000000000e+01 2.5000000000000000e+00 
87 2 4 2.1656230630654659e+02 0.0000000000000000e+00 1.0000000000000000e+00 8.0000000000000000e+00 1.2000000000000000e+01 2.5000000000000000e+00 
107 2 4 2.1656230630654659e+02 0.0000000000000000e+00 1.0000000000000000e+00 1.0000000000000000e+01 1.2000000000000000e+01 2.5000000000000000e+00 
127 2 4 2.1656230630654659e+02 0.0000000000000000e+00 1.0000000000000000e+00 1.2000000000000000e+01 1.2000000000000000e+01 2.5000000000000000e+00 
147 2 4 2.1656230630654659e+02 0.0000000000000000e+00 1.0000000000000000e+00 1.4000000000000000e+01 1.2000000000000000e+01 2.5000000000000000e+00 
167 2 4 2.1656230630654659e+02 0.0000000000000000e+00 1.0000000000000000e+00 1.6000000000000000e+01 1.2000000000000000e+01 2.5000000000000000e+00 
187 2 4 2.1656230630654659e+02 0.0000000000000000e+00 1.0000000000000000e+00 1.8000000000000000e+01 1.2000000000000000e+01 2.5000000000000000e+00 
8 2 4 2.1656230630654659e+02 0.0000000000000000e+00 1.0000000000000000e+00 0.0000000000000000e+00 1.4000000000000000e+01 2.5000000000000000e+00 
28 2 4 2.1656230630654659e+02 0.0000000000000000e+00 1.0000000000000000e+00 2.0000000000000000e+00 1.4000000000000000e+01 2.5000000000000000e+00 
48 2 4 2.1656230630654659e+02 0.0000000000000000e+00 1.0000000000000000e+00 4.0000000000000000e+00 1.4000000000000000e+01 2.5000000000000000e+00 
68 2 4 2.1656230630654659e+02 0.0000000000000000e+00 1.0000000000000000e+00 6.0000000000000000e+00 1.4000000000000000e+01 2.5000000000000000e+00 
88 2 4 2.1656230630654659e+02 0.0000000000000000e+00 1.0000000000000000e+00 8.0000000000000000e+00 1.4000000000000000e+01 2.5000000000000000e+00 
108 2 4 2.1656230630654659e+02 0.0000000000000000e+00 1.0000000000000000e+00 1.0000000000000000e+01 1.4000000000000000e+01 2.5000000000000000e+00 
128 2 4 2.1656230630654659e+02 0.0000000000000000e+00 1.0000000000000000e+00 1.2000000000000000e+01 1.4000000000000000e+01 2.5000000000000000e+00 
148 2 4 2.1656230630654659e+02 0.0000000000000000e+00 1.0000000000000000e+00 1.4000000000000000e+01 1.4000000000000000e+01 2.5000000000000000e+00 
168 2 4 2.1656230630654659e+02 0.0000000000000000e+00 1.0000000000000000e+00 1.6000000000000000e+01 1.4000000000000000e+01 2.5000000000000000e+00 
188 2 4 2.1656230630654659e+02 0.0000000000000000e+00 1.0000000000000000e+00 1.8000000000000000e+01 1.4000000000000000e+01 2.5000000000000000e+00 
9 2 4 2.1656230630654659e+02 0.0000000000000000e+00 1.0000000000000000e+00 0.0000000000000000e+00 1.6000000000000000e+01 2.5000000000000000e+00 
29 2 4 2.1656230630654659e+02 0.0000000000000000e+00 1.0000000000000000e+00 2.0000000000000000e+00 1.6000000000000000e+01 2.5000000000000000e+00 
49 2 4 2.1656230630654659e+02 0.0000000000000000e+00 1.0000000000000000e+00 4.0000000000000000e+00 1.6000000000000000e+01 2.5000000000000000e+00 
69 2 4 2.1656230630654659e+02 0.0000000000000000e+00 1.0000000000000000e+00 6.0000000000000000e+00 1.6000000000000000e+01 2.5000000000000000e+00 
89 2 4 2.1656230630654659e+02 0.0000000000000000e+00 1.0000000000000000e+00 8.0000000000000000e+00 1.6000000000000000e+01 2.5000000000000000e+00 
109 2 4 2.1656230630654659e+02 0.0000000000000000e+00 1.0000000000000000e+00 1.0000000000000000e+01 1.6000000000000000e+01 2.5000000000000000e+00 
129 2 4 2.1656230630654659e+02 0.0000000000000000e+00 1.0000000000000000e+00 1.2000000000000000e+01 1.6000000000000000e+01 2.5000000000000000e+00 
149 2 4 2.1656230630654659e+02 0.0000000000000000e+00 1.0000000000000000e+00 1.4000000000000000e+01 1.6000000000000000e+01 2.5000000000000000e+00 
169 2 4 2.1656230630654659e+02 0.0000000000000000e+00 1.0000000000000000e+00 1.6000000000000000e+01 1.6000000000000000e+01 2.5000000000000000e+00 
189 2 4 2.1656230630654659e+02 0.0000000000000000e+00 1.0000000000000000e+00 1.8000000000000000e+01 1.6000000000000000e+01 2.5000000000000000e+00 
10 2 4 2.1656230630654659e+02 0.0000000000000000e+00 1.0000000000000000e+00 0.0000000000000000e+00 1.8000000000000000e+01 2.5000000000000000e+00 
30 2 4 2.1656230630654659e+02 0.0000000000000000e+00 1.0000000000000000e+00 2.0000000000000000e+00 1.8000000000000000e+01 2.5000000000000000e+00 
50 2 4 2.1656230630654659e+02 0.0000000000000000e+00 1.0000000000000000e+00 4.0000000000000000e+00 1.8000000000000000e+01 2.5000000000000000e+00 
70 2 4 2.1656230630654659e+02 0.0000000000000000e+00 1.0000000000000000e+00 6.0000000000000000e+00 1.8000000000000000e+01 2.5000000000000000e+00 
90 2 4 2.1656230630654659e+02 0.0000000000000000e+00 1.0000000000000000e+00 8.0000000000000000e+00 1.8000000000000000e+01 2.5000000000000000e+00 
110 2 4 2.1656230630654659e+02 0.0000000000000000e+00 1.0000000000000000e+00 1.0000000000000000e+01 1.8000000000000000e+01 2.5000000000000000e+00 
130 2 4 2.1656230630654659e+02 0.0000000000000000e+00 1.0000000000000000e+00 1.2000000000000000e+01 1.8000000000000000e+01 2.5000000000000000e+00 
150 2 4 2.1656230630654659e+02 0.0000000000000000e+00 1.0000000000000000e+00 1.4000000000000000e+01 1.8000000000000000e+01 2.5000000000000000e+00 
170 2 4 2.1656230630654659e+02 0.0000000000000000e+00 1.0000000000000000e+00 1.6000000000000000e+01 1.8000000000000000e+01 2.5000000000000000e+00 
190 2 4 2.1656230630654659e+02 0.0000000000000000e+00 1.0000000000000000e+00 1.8000000000000000e+01 1.8000000000000000e+01 2.5000000000000000e+00 
401 3 2 8.6167480908346458e-03 0.0000000000000000e+00 1.0000000000000000e+00 1.6000000000000000e+01 1.0000000000000000e+01 6.9823473999998029e+00 
443 45 2 8.6167480908346458e-03 0.0000000000000000e+00 1.0000000000000000e+00 1.6000000000000000e+01 1.4000000000000000e+01 6.9823473999998029e+00 
485 87 2 8.6167480908346458e-03 0.0000000000000000e+00 1.0000000000000000e+00 1.6000000000000000e+01 1.8000000000000000e+01 6.9823473999998029e+00 
403 5 2 8.6167480908346458e-03 0.0000000000000000e+00 1.0000000000000000e+00 1.6000000000000000e+01 1.0000000000000000e+01 1.0982347399999798e+01 
445 47 2 8.6167480908346458e-03 0.0000000000000000e+00 1.0000000000000000e+00 1.6000000000000000e+01 1.4000000000000000e+01 1.0982347399999798e+01 
487 89 2 8.6167480908346458e-03 0.0000000000000000e+00 1.0000000000000000e+00 1.6000000000000000e+01 1.8000000000000000e+01 1.0982347399999798e+01 
405 7 2 8.6167480908346458e-03 0.0000000000000000e+00 1.0000000000000000e+00 1.6000000000000000e+01 1.0000000000000000e+01 1.4982347399999798e+01 
447 49 2 8.6167480908346458e-03 0.0000000000000000e+00 1.0000000000000000e+00 1.6000000000000000e+01 1.4000000000000000e+01 1.4982347399999798e+01 
489 91 2 8.6167480908346458e-03 0.0000000000000000e+00 1.0000000000000000e+00 1.6000000000000000e+01 1.8000000000000000e+01 1.4982347399999798e+01 
407 9 2 8.6167480908346458e-03 0.0000000000000000e+00 1.0000000000000000e+00 1.6000000000000000e+01 1.0000000000000000e+01 1.8982347399999803e+01 
449 51 2 8.6167480908346458e-03 0.0000000000000000e+00 1.0000000000000000e+00 1.6000000000000000e+01 1.4000000000000000e+01 1.8982347399999803e+01 
491 93 2 8.6167480908346458e-03 0.0000000000000000e+00 1.0000000000000000e+00 1.6000000000000000e+01 1.8000000000000000e+01 1.8982347399999803e+01 
409 11 2 8.6167480908346458e-03 0.0000000000000000e+00 1.0000000000000000e+00 1.6000000000000000e+01 1.0000000000000000e+01 2.2982347399999803e+01 
451 53 2 8.6167480908346458e-03 0.0000000000000000e+00 1.0000000000000000e+00 1.6000000000000000e+01 1.4000000000000000e+01 2.2982347399999803e+01 
493 95 2 8.6167480908346458e-03 0.0000000000000000e+00 1.0000000000000000e+00 1.6000000000000000e+01 1.8000000000000000e+01 2.2982347399999803e+01 
411 13 2 8.6167480908346458e-03 0.0000000000000000e+00 1.0000000000000000e+00 1.6000000000000000e+01 1.0000000000000000e+01 2.6982347399999803e+01 
453 55 2 8.6167480908346458e-03 0.0000000000000000e+00 1.0000000000000000e+00 1.6000000000000000e+01 1.4000000000000000e+01 2.6982347399999803e+01 
495 97 2 8.6167480908346458e-03 0.0000000000000000e+00 1.0000000000000000e+00 1.6000000000000000e+01 1.8000000000000000e+01 2.6982347399999803e+01 
413 15 2 8.6167480908346458e-03 0.0000000000000000e+00 1.0000000000000000e+00 1.6000000000000000e+01 1.0000000000000000e+01 3.0982347399999803e+01 
455 57 2 8.6167480908346458e-03 0.0000000000000000e+00 1.0000000000000000e+00 1.6000000000000000e+01 1.4000000000000000e+01 3.0982347399999803e+01 
497 99 2 8.6167480908346458e-03 0.0000000000000000e+00 1.0000000000000000e+00 1.6000000000000000e+01 1.8000000000000000e+01 3.0982347399999803e+01 
415 17 2 8.6167480908346458e-03 0.0000000000000000e+00 1.0000000000000000e+00 1.6000000000000000e+01 1.0000000000000000e+01 3.4982347399999760e+01 
457 59 2 8.6167480908346458e-03 0.0000000000000000e+00 1.0000000000000000e+00 1.6000000000000000e+01 1.4000000000000000e+01 3.4982347399999760e+01 
499 101 2 8.6167480908346458e-03 0.0000000000000000e+00 1.0000000000000000e+00 1.6000000000000000e+01 1.8000000000000000e+01 3.4982347399999760e+01 
417 19 2 8.6167480908346458e-03 0.0000000000000000e+00 1.0000000000000000e+00 1.6000000000000000e+01 1.0000000000000000e+01 3.8982347399999760e+01 
459 61 2 8.6167480908346458e-03 0.0000000000000000e+00 1.0000000000000000e+00 1.6000000000000000e+01 1.4000000000000000e+01 3.8982347399999760e+01 
501 103 2 8.6167480908346458e-03 0.0000000000000000e+00 1.0000000000000000e+00 1.6000000000000000e+01 1.8000000000000000e+01 3.8982347399999760e+01 
419 21 2 8.6167480908346458e-03 0.0000000000000000e+00 1.0000000000000000e+00 1.6000000000000000e+01 1.0000000000000000e+01 4.2982347399999760e+01 
461 63 2 8.6167480908346458e-03 0.0000000000000000e+00 1.0000000000000000e+00 1.6000000000000000e+01 1.4000000000000000e+01 4.2982347399999760e+01 
503 105 2 8.6167480908346458e-03 0.0000000000000000e+00 1.0000000000000000e+00 1.6000000000000000e+01 1.8000000000000000e+01 4.2982347399999760e+01 
421 23 2 8.6167480908346458e-03 0.0000000000000000e+00 1.0000000000000000e+00 1.6000000000000000e+01 1.0000000000000000e+01 4.6982347399999760e+01 
463 65 2 8.6167480908346458e-03 0.0000000000000000e+00 1.0000000000000000e+00 1.6000000000000000e+01 1.4000000000000000e+01 4.6982347399999760e+01 
505 107 2 8.6167480908346458e-03 0.0000000000000000e+00 1.0000000000000000e+00 1.6000000000000000e+01 1.8000000000000000e+01 4.6982347399999760e+01 
423 25 2 8.6167480908346458e-03 0.0000000000000000e+00 1.0000000000000000e+00 1.6000000000000000e+01 1.0000000000000000e+01 5.0982347399999760e+01 
465 67 2 8.6167480908346458e-03 0.0000000000000000e+00 1.0000000000000000e+00 1.6000000000000000e+01 1.4000000000000000e+01 5.0982347399999760e+01 
507 109 2 8.6167480908346458e-03 0.0000000000000000e+00 1.0000000000000000e+00 1.6000000000000000e+01 1.8000000000000000e+01 5.0982347399999760e+01 
425 27 2 8.6167480908346458e-03 0.0000000000000000e+00 1.0000000000000000e+00 1.6000000000000000e+01 1.0000000000000000e+01 5.4982347399999760e+01 
467 69 2 8.6167480908346458e-03 0.0000000000000000e+00 1.0000000000000000e+00 1.6000000000000000e+01 1.4000000000000000e+01 5.4982347399999760e+01 
509 111 2 8.6167480908346458e-03 0.0000000000000000e+00 1.0000000000000000e+00 1.6000000000000000e+01 1.8000000000000000e+01 5.4982347399999760e+01 
427 29 2 8.6167480908346458e-03 0.0000000000000000e+00 1.0000000000000000e+00 1.6000000000000000e+01 1.0000000000000000e+01 5.8982347399999760e+01 
469 71 2 8.6167480908346458e-03 0.0000000000000000e+00 1.0000000000000000e+00 1.6000000000000000e+01 1.4000000000000000e+01 5.8982347399999760e+01 
511 113 2 8.6167480908346458e-03 0.0000000000000000e+00 1.0000000000000000e+00 1.6000000000000000e+01 1.8000000000000000e+01 5.8982347399999760e+01 
429 31 2 8.6167480908346458e-03 0.0000000000000000e+00 1.0000000000000000e+00 1.6000000000000000e+01 1.0000000000000000e+01 6.2982347399999760e+01 
471 73 2 8.6167480908346458e-03 0.0000000000000000e+00 1.0000000000000000e+00 1.6000000000000000e+01 1.4000000000000000e+01 6.2982347399999760e+01 
513 115 2 8.6167480908346458e-03 0.0000000000000000e+00 1.0000000000000000e+00 1.6000000000000000e+01 1.8000000000000000e+01 6.2982347399999760e+01 
431 33 2 8.6167480908346458e-03 0.0000000000000000e+00 1.0000000000000000e+00 1.6000000000000000e+01 1.0000000000000000e+01 6.6982347399999824e+01 
473 75 2 8.6167480908346458e-03 0.0000000000000000e+00 1.0000000000000000e+00 1.6000000000000000e+01 1.4000000000000000e+01 6.6982347399999824e+01 
515 117 2 8.6167480908346458e-03 0.0000000000000000e+00 1.0000000000000000e+00 1.6000000000000000e+01 1.8000000000000000e+01 6.6982347399999824e+01 
433 35 2 8.6167480908346458e-03 0.0000000000000000e+00 1.0000000000000000e+00 1.6000000000000000e+01 1.0000000000000000e+01 7.0982347399999824e+01 
475 77 2 8.6167480908346458e-03 0.0000000000000000e+00 1.0000000000000000e+00 1.6000000000000000e+01 1.4000000000000000e+01 7.0982347399999824e+01 
517 119 2 8.6167480908346458e-03 0.0000000000000000e+00 1.0000000000000000e+00 1.6000000000000000e+01 1.8000000000000000e+01 7.0982347399999824e+01 
435 37 2 8.6167480908346458e-03 0.0000000000000000e+00 1.0000000000000000e+00 1.6000000000000000e+01 1.0000000000000000e+01 7.4982347399999824e+01 
477 79 2 8.6167480908346458e-03 0.0000000000000000e+00 1.0000000000000000e+00 1.6000000000000000e+01 1.4000000000000000e+01 7.4982347399999824e+01 
519 121 2 8.6167480908346458e-03 0.0000000000000000e+00 1.0000000000000000e+00 1.6000000000000000e+01 1.8000000000000000e+01 7.4982347399999824e+01 
437 39 2 8.6167480908346458e-03 0.0000000000000000e+00 1.0000000000000000e+00 1.6000000000000000e+01 1.0000000000000000e+01 7.8982347399999824e+01 
479 81 2 8.6167480908346458e-03 0.0000000000000000e+00 1.0000000000000000e+00 1.6000000000000000e+01 1.4000000000000000e+01 7.8982347399999824e+01 
521 123 2 8.6167480908346458e-03 0.0000000000000000e+00 1.0000000000000000e+00 1.6000000000000000e+01 1.8000000000000000e+01 7.8982347399999824e+01 
439 41 2 8.6167480908346458e-03 0.0000000000000000e+00 1.0000000000000000e+00 1.6000000000000000e+01 1.0000000000000000e+01 8.2982347399999824e+01 
481 83 2 8.6167480908346458e-03 0.0000000000000000e+00 1.0000000000000000e+00 1.6000000000000000e+01 1.4000000000000000e+01 8.2982347399999824e+01 
523 125 2 8.6167480908346458e-03 0.0000000000000000e+00 1.0000000000000000e+00 1.6000000000000000e+01 1.8000000000000000e+01 8.2982347399999824e+01 
441 43 2 8.6167480908346458e-03 0.0000000000000000e+00 1.0000000000000000e+00 1.6000000000000000e+01 1.0000000000000000e+01 8.6982347399999824e+01 
483 85 2 8.6167480908346458e-03 0.0000000000000000e+00 1.0000000000000000e+00 1.6000000000000000e+01 1.4000000000000000e+01 8.6982347399999824e+01 
525 127 2 8.6167480908346458e-03 0.0000000000000000e+00 1.0000000000000000e+00 1.6000000000000000e+01 1.8000000000000000e+01 8.6982347399999824e+01 
11 2 4 2.1656230630654659e+02 0.0000000000000000e+00 1.0000000000000000e+00 0.0000000000000000e+00 2.0000000000000000e+01 2.5000000000000000e+00 
31 2 4 2.1656230630654659e+02 0.0000000000000000e+00 1.0000000000000000e+00 2.0000000000000000e+00 2.0000000000000000e+01 2.5000000000000000e+00 
51 2 4 2.1656230630654659e+02 0.0000000000000000e+00 1.0000000000000000e+00 4.0000000000000000e+00 2.0000000000000000e+01 2.5000000000000000e+00 
71 2 4 2.1656230630654659e+02 0.0000000000000000e+00 1.0000000000000000e+00 6.0000000000000000e+00 2.0000000000000000e+01 2.5000000000000000e+00 
91 2 4 2.1656230630654659e+02 0.0000000000000000e+00 1.0000000000000000e+00 8.0000000000000000e+00 2.0000000000000000e+01 2.5000000000000000e+00 
111 2 4 2.1656230630654659e+02 0.0000000000000000e+00 1.0000000000000000e+00 1.0000000000000000e+01 2.0000000000000000e+01 2.5000000000000000e+00 
131 2 4 2.1656230630654659e+02 0.0000000000000000e+00 1.0000000000000000e+00 1.2000000000000000e+01 2.0000000000000000e+01 2.5000000000000000e+00 
151 2 4 2.1656230630654659e+02 0.0000000000000000e+00 1.0000000000000000e+00 1.4000000000000000e+01 2.0000000000000000e+01 2.5000000000000000e+00 
171 2 4 2.1656230630654659e+02 0.0000000000000000e+00 1.0000000000000000e+00 1.6000000000000000e+01 2.0000000000000000e+01 2.5000000000000000e+00 
191 2 4 2.1656230630654659e+02 0.0000000000000000e+00 1.0000000000000000e+00 1.8000000000000000e+01 2.0000000000000000e+01 2.5000000000000000e+00 
12 2 4 2.1656230630654659e+02 0.0000000000000000e+00 1.0000000000000000e+00 0.0000000000000000e+00 2.2000000000000000e+01 2.5000000000000000e+00 
32 2 4 2.1656230630654659e+02 0.0000000000000000e+00 1.0000000000000000e+00 2.0000000000000000e+00 2.2000000000000000e+01 2.5000000000000000e+00 
52 2 4 2.1656230630654659e+02 0.0000000000000000e+00 1.0000000000000000e+00 4.0000000000000000e+00 2.2000000000000000e+01 2.5000000000000000e+00 
72 2 4 2.1656230630654659e+02 0.0000000000000000e+00 1.0000000000000000e+00 6.0000000000000000e+00 2.2000000000000000e+01 2.5000000000000000e+00 
92 2 4 2.1656230630654659e+02 0.0000000000000000e+00 1.0000000000000000e+00 8.0000000000000000e+00 2.2000000000000000e+01 2.5000000000000000e+00 
112 2 4 2.1656230630654659e+02 0.0000000000000000e+00 1.0000000000000000e+00 1.0000000000000000e+01 2.2000000000000000e+01 2.5000000000000000e+00 
132 2 4 2.1656230630654659e+02 0.0000000000000000e+00 1.0000000000000000e+00 1.2000000000000000e+01 2.2000000000000000e+01 2.5000000000000000e+00 
152 2 4 2.1656230630654659e+02 0.0000000000000000e+00 1.0000000000000000e+00 1.4000000000000000e+01 2.2000000000000000e+01 2.5000000000000000e+00 
172 2 4 2.1656230630654659e+02 0.0000000000000000e+00 1.0000000000000000e+00 1.6000000000000000e+01 2.2000000000000000e+01 2.5000000000000000e+00 
192 2 4 2.1656230630654659e+02 0.0000000000000000e+00 1.0000000000000000e+00 1.8000000000000000e+01 2.2000000000000000e+01 2.5000000000000000e+00 
13 2 4 2.1656230630654659e+02 0.0000000000000000e+00 1.0000000000000000e+00 0.0000000000000000e+00 2.4000000000000000e+01 2.5000000000000000e+00 
33 2 4 2.1656230630654659e+02 0.0000000000000000e+00 1.0000000000000000e+00 2.0000000000000000e+00 2.4000000000000000e+01 2.5000000000000000e+00 
53 2 4 2.1656230630654659e+02 0.0000000000000000e+00 1.0000000000000000e+00 4.0000000000000000e+00 2.4000000000000000e+01 2.5000000000000000e+00 
73 2 4 2.1656230630654659e+02 0.0000000000000000e+00 1.0000000000000000e+00 6.0000000000000000e+00 2.4000000000000000e+01 2.5000000000000000e+00 
93 2 4 2.1656230630654659e+02 0.0000000000000000e+00 1.0000000000000000e+00 8.0000000000000000e+00 2.4000000000000000e+01 2.5000000000000000e+00 
113 2 4 2.1656230630654659e+02 0.0000000000000000e+00 1.0000000000000000e+00 1.0000000000000000e+01 2.4000000000000000e+01 2.5000000000000000e+00 
133 2 4 2.1656230630654659e+02 0.0000000000000000e+00 1.0000000000000000e+00 1.2000000000000000e+01 2.4000000000000000e+01 2.5000000000000000e+00 
153 2 4 2.1656230630654659e+02 0.0000000000000000e+00 1.0000000000000000e+00 1.4000000000000000e+01 2.4000000000000000e+01 2.5000000000000000e+00 
173 2 4 2.1656230630654659e+02 0.0000000000000000e+00 1.0000000000000000e+00 1.6000000000000000e+01 2.4000000000000000e+01 2.5000000000000000e+00 
193 2 4 2.1656230630654659e+02 0.0000000000000000e+00 1.0000000000000000e+00 1.8000000000000000e+01 2.4000000000000000e+01 2.5000000000000000e+00 
14 2 4 2.1656230630654659e+02 0.0000000000000000e+00 1.0000000000000000e+00 0.0000000000000000e+00 2.6000000000000000e+01 2.5000000000000000e+00 
34 2 4 2.1656230630654659e+02 0.0000000000000000e+00 1.0000000000000000e+00 2.0000000000000000e+00 2.6000000000000000e+01 2.5000000000000000e+00 
54 2 4 2.1656230630654659e+02 0.0000000000000000e+00 1.0000000000000000e+00 4.0000000000000000e+00 2.6000000000000000e+01 2.5000000000000000e+00 
74 2 4 2.1656230630654659e+02 0.0000000000000000e+00 1.0000000000000000e+00 6.0000000000000000e+00 2.6000000000000000e+01 2.5000000000000000e+00 
94 2 4 2.1656230630654659e+02 0.0000000000000000e+00 1.0000000000000000e+00 8.0000000000000000e+00 2.6000000000000000e+01 2.5000000000000000e+00 
114 2 4 2.1656230630654659e+02 0.0000000000000000e+00 1.0000000000000000e+00 1.0000000000000000e+01 2.6000000000000000e+01 2.5000000000000000e+00 
134 2 4 2.1656230630654659e+02 0.0000000000000000e+00 1.0000000000000000e+00 1.2000000000000000e+01 2.6000000000000000e+01 2.5000000000000000e+00 
154 2 4 2.1656230630654659e+02 0.0000000000000000e+00 1.0000000000000000e+00 1.4000000000000000e+01 2.6000000000000000e+01 2.5000000000000000e+00 