LAMMPS data file via write_data, version 30 Jul 2016, timestep = 50400000

384 atoms
2 atom types

0.0000000000000000e+00 2.0000000000000000e+01 xlo xhi
0.0000000000000000e+00 2.0000000000000000e+01 ylo yhi
0.0000000000000000e+00 2.0000000000000000e+01 zlo zhi

Masses

1 3.896
2 4.31

Atoms # meso-molecular

282 1 2 1.0279999999999692e+00 -2.0168699630827440e+01 1.0000000000000000e+00 6.9387826072906322e-01 9.9515216375996403e+00 5.2252733818446382e+00 
291 1 2 1.0279999999998812e+00 -2.2980541619719496e+01 1.0000000000000000e+00 7.2545405474619673e-01 9.5107888919168904e+00 5.4614991615961435e+00 
275 1 2 1.0279999999999732e+00 2.7265236188277839e+00 1.0000000000000000e+00 4.1351076593672104e-01 9.9984389420316386e+00 5.5417791861382835e+00 
347 1 2 1.0279999999999716e+00 -3.1526579978068938e+01 1.0000000000000000e+00 3.8527325220556247e-01 9.9404828073498823e+00 5.6057803521996128e+00 
339 1 2 1.0279999999999732e+00 -1.8785010097311968e+01 1.0000000000000000e+00 3.8461008138623459e-01 9.9642385490828325e+00 5.6069233325624337e+00 
355 1 2 1.0279999999999689e+00 -4.6670978299123242e+01 1.0000000000000000e+00 3.6527202356467786e-01 9.8778923680443409e+00 5.6807970261673804e+00 
113 1 2 1.0279999999999103e+00 8.8170398672319095e+01 1.0000000000000000e+00 6.5239896593970836e-01 9.8911060589612756e+00 6.3479763033565026e+00 
338 1 2 1.0279999999998453e+00 -2.5576513963192276e+01 1.0000000000000000e+00 6.7283696570606888e-01 9.4267126019474805e+00 6.0136287038797915e+00 
227 1 2 1.0280000000000147e+00 1.6152591019365516e+01 1.0000000000000000e+00 2.0472048232261493e+00 9.4519401928824536e+00 5.7591990524556316e+00 
266 1 2 1.0279999999998943e+00 6.1563011574591808e+00 1.0000000000000000e+00 4.9208975756453119e+00 9.2213734763476189e+00 9.2087217154145318e+00 
210 1 2 1.0279999999998473e+00 4.3055733626731566e+01 1.0000000000000000e+00 3.9597337541986812e+00 9.5185030852704333e+00 9.8852968048525529e+00 
274 1 2 1.0280000000001535e+00 -2.1809689034566574e+01 1.0000000000000000e+00 4.3782587952974144e+00 9.5705877547716813e+00 9.4398676852300412e+00 
273 1 2 1.0280000000002676e+00 -5.4579986133518318e+01 1.0000000000000000e+00 4.3697279021452253e+00 9.5310944239279181e+00 9.4094707039721719e+00 
329 1 2 1.0280000000003000e+00 2.2691462465916874e+01 1.0000000000000000e+00 4.3845205150826203e+00 9.5342581029815054e+00 9.3842551448021840e+00 
337 1 2 1.0279999999997205e+00 -2.9848856442764237e+01 1.0000000000000000e+00 4.5247047317464633e+00 9.4074961362788034e+00 9.2185184729617440e+00 
345 1 2 1.0280000000003147e+00 -3.9978061353538742e+01 1.0000000000000000e+00 4.1684011685217213e+00 9.3906409324156339e+00 9.5778415597178892e+00 
265 1 2 1.0279999999998841e+00 -2.6157866864372917e+01 1.0000000000000000e+00 4.6697880049271223e+00 9.3294040682892660e+00 9.1749750948135826e+00 
74 1 2 1.0280000000002487e+00 -3.2317864485129071e+01 1.0000000000000000e+00 6.5911884131673073e+00 8.3165208837967981e+00 9.9640332227627972e+00 
330 1 2 1.0279999999999045e+00 -1.0685459250547188e+01 1.0000000000000000e+00 4.9422386342216962e+00 9.2108308077408747e+00 9.2183178664168732e+00 
134 1 2 1.0280000000000169e+00 4.0626568526363286e+01 1.0000000000000000e+00 5.1821154381425281e+00 6.3563484414451583e+00 1.1952788815994166e+01 
197 1 2 1.0280000000000140e+00 1.0614066095483391e+01 1.0000000000000000e+00 5.0469316209469977e+00 6.4361250514290731e+00 1.1896666469521962e+01 
69 1 2 1.0280000000000193e+00 -1.3593652234313105e+01 1.0000000000000000e+00 5.3438851094926454e+00 6.2890561253102302e+00 1.1986943788251404e+01 
133 1 2 1.0280000000000198e+00 -5.3633634304220905e+01 1.0000000000000000e+00 5.4176729893791222e+00 6.2566530731146583e+00 1.1974135624931588e+01 
132 1 2 1.0280000000000273e+00 -1.7070537161873891e+00 1.0000000000000000e+00 5.4537798454769915e+00 6.3530577729718747e+00 1.2111304935938726e+01 
145 1 2 1.0280000000000236e+00 -2.1477609406880944e+00 1.0000000000000000e+00 5.4734542586774211e+00 6.2885072616145283e+00 1.2044742871644265e+01 
140 1 2 1.0280000000000207e+00 -1.1176807474283923e+01 1.0000000000000000e+00 5.4735849933589362e+00 6.2389167296430319e+00 1.1965840502792883e+01 
340 1 2 1.0280000000000193e+00 4.4206516526046194e+01 1.0000000000000000e+00 5.4961182756938012e+00 6.1977184420102134e+00 1.1873612834253162e+01 
153 1 2 1.0280000000000229e+00 1.5640796351830190e+01 1.0000000000000000e+00 5.5683691658681838e+00 6.2300798483838822e+00 1.1973295324546054e+01 
196 1 2 1.0280000000000182e+00 3.7774046267574548e+01 1.0000000000000000e+00 5.6845638802207139e+00 6.3066267630212689e+00 1.2080165973915387e+01 
341 1 2 1.0280000000000531e+00 2.5853111877431449e+01 1.0000000000000000e+00 6.6082505089847903e+00 6.4951593465198858e+00 1.1420829260643755e+01 
194 1 2 1.0280000000002665e+00 2.3481106830860583e+01 1.0000000000000000e+00 2.5440568466175093e+00 8.6707744098259329e+00 1.1520922060756783e+01 
257 1 2 1.0280000000002243e+00 -1.0986367706249151e+01 1.0000000000000000e+00 2.5165444830300863e+00 8.7252219180134780e+00 1.1579421775712104e+01 
202 1 2 1.0280000000001395e+00 -1.3457253385942558e+01 1.0000000000000000e+00 2.3756564966567328e+00 8.7909023515979889e+00 1.1653337415576843e+01 
193 1 2 1.0279999999999005e+00 1.0519546439716795e+01 1.0000000000000000e+00 1.6899565900383295e+00 8.9298872323043952e+00 1.1726305550079381e+01 
201 1 2 1.0279999999999019e+00 -1.8442545526098861e+01 1.0000000000000000e+00 1.6097372520671582e+00 8.9931620257452920e+00 1.1750892162561421e+01 
258 1 2 1.0279999999999678e+00 -5.7280726605855477e+01 1.0000000000000000e+00 1.2425985456597011e+00 9.3117798342605553e+00 1.1681561154899237e+01 
129 1 2 1.0279999999999838e+00 9.5616198008228878e+01 1.0000000000000000e+00 1.2761187318463696e+00 9.4336408385653421e+00 1.1701243810509062e+01 
195 1 2 1.0280000000000096e+00 6.9530399061520583e+01 1.0000000000000000e+00 1.2763281244200610e+00 9.5293525632723455e+00 1.1658292618199891e+01 
323 1 2 1.0280000000000149e+00 -2.0429718983263339e+01 1.0000000000000000e+00 1.1951728864439377e+00 9.5204676429692086e+00 1.1583602736767661e+01 
259 1 2 1.0280000000000333e+00 -3.8369522052483561e+01 1.0000000000000000e+00 1.2180771173630609e+00 9.5805350635970576e+00 1.1553724097905366e+01 
379 1 2 1.0280000000000253e+00 -1.5792858139170900e+01 1.0000000000000000e+00 1.1294147269008032e+00 9.5108147548228601e+00 1.1475715120410717e+01 
322 1 2 1.0280000000000571e+00 -3.1542732955780497e+01 1.0000000000000000e+00 1.1986437280176958e+00 9.6196051930822488e+00 1.1442825910932044e+01 
378 1 2 1.0280000000000542e+00 1.6095784554678850e+01 1.0000000000000000e+00 1.1437954880520396e+00 9.5669035497928974e+00 1.1353822530671984e+01 
331 1 2 1.0280000000001557e+00 1.4574076816549498e+01 1.0000000000000000e+00 1.3835899131251261e+00 9.7510485154571498e+00 1.1345711575989993e+01 
198 1 2 1.0279999999999145e+00 6.6365904921642183e+01 1.0000000000000000e+00 4.6731851751415574e+00 6.9996923460748928e+00 1.1802510480114774e+01 
138 1 2 1.0279999999998239e+00 -2.8277533313659289e+00 1.0000000000000000e+00 4.7085798092931652e+00 7.0735349604023749e+00 1.1877579697096037e+01 
90 1 2 1.0279999999998657e+00 -4.2410661929488391e+00 1.0000000000000000e+00 5.6954286144871755e+00 8.6552297778298044e+00 1.1061548947032701e+01 
137 1 2 1.0280000000000955e+00 -2.4040849917109050e+01 1.0000000000000000e+00 6.1924268723590963e+00 8.5664257108776347e+00 1.1072585547961298e+01 
209 1 2 1.0279999999998031e+00 8.2807989880503513e+01 1.0000000000000000e+00 3.4657995315555397e+00 9.5068884164011980e+00 1.0108362357362227e+01 
156 1 2 1.0280000000000227e+00 -1.4980663367252983e+01 1.0000000000000000e+00 2.3510186869274472e+00 1.0778281059106742e+01 5.7883016721792524e+00 
218 1 2 1.0280000000000524e+00 7.3528271270610599e+00 1.0000000000000000e+00 2.1954822285616848e+00 1.0669988199786525e+01 5.4753434434044017e+00 
219 1 2 1.0279999999998499e+00 -1.9630868799932291e+01 1.0000000000000000e+00 3.1776502031649363e+00 1.0558131553672466e+01 6.2285890467453999e+00 
220 1 2 1.0279999999999929e+00 -1.4189932289069063e+00 1.0000000000000000e+00 6.6575402892032065e-01 1.0534935537150888e+01 5.6056245534278082e+00 
363 1 2 1.0279999999999621e+00 -3.2641838719913004e+01 1.0000000000000000e+00 6.9235872189216885e-01 1.0326178993324463e+01 6.2653756842816373e+00 
283 1 2 1.0279999999999310e+00 -8.9180650885599206e+00 1.0000000000000000e+00 1.0089636931065964e+00 1.0270198752972609e+01 5.1063695869036394e+00 
354 1 2 1.0279999999999745e+00 -3.7725233091618335e+01 1.0000000000000000e+00 3.6300243500847645e-01 1.0001067244936893e+01 5.6832416528010263e+00 
244 1 2 1.0280000000000178e+00 -1.7989957505727070e+01 1.0000000000000000e+00 6.4680395750234894e+00 1.0628100780031138e+01 5.8466222758696063e+00 
228 1 2 1.0280000000000151e+00 7.3692588592062389e+00 1.0000000000000000e+00 6.2015634582175485e+00 1.0640725359803573e+01 5.8774955595931617e+00 
211 1 2 1.0280000000000022e+00 3.9424273289775982e+01 1.0000000000000000e+00 6.5521119996492878e+00 1.0594943238041145e+01 5.8422649342415891e+00 
164 1 2 1.0279999999999894e+00 -2.7006901493069890e+01 1.0000000000000000e+00 6.0263027613935742e+00 1.0616147772277813e+01 5.8983759709305019e+00 
102 1 2 1.0279999999999736e+00 3.0075843349763261e+01 1.0000000000000000e+00 4.9486478685210145e+00 1.0725883265988303e+01 5.9856948976659599e+00 
105 1 2 1.0280000000000253e+00 -1.5972476805375571e+01 1.0000000000000000e+00 4.6022246817203696e+00 1.0627743188125626e+01 6.0666763461585687e+00 
362 1 2 1.0280000000000693e+00 1.4092933178646772e+00 1.0000000000000000e+00 3.8720282226885292e+00 1.0600124494915054e+01 6.2735419083881094e+00 
92 1 2 1.0279999999999065e+00 -5.4228394027105040e+01 1.0000000000000000e+00 5.3153659314980022e+00 1.0424510540870596e+01 6.0110286220182472e+00 
226 1 2 1.0279999999999139e+00 2.0594345752961367e+01 1.0000000000000000e+00 3.5433343354450435e+00 1.0350657843379453e+01 6.2162520948762312e+00 
346 1 2 1.0279999999998306e+00 -9.6235892811915598e+00 1.0000000000000000e+00 3.5054531312582244e+00 1.0099349879185651e+01 6.3978458553931778e+00 
155 1 2 1.0279999999998903e+00 -3.8257242078391357e+01 1.0000000000000000e+00 3.7695869190834101e+00 1.0098197958477742e+01 6.4553814433931658e+00 
160 1 2 1.0280000000004315e+00 7.3349064094325172e+01 1.0000000000000000e+00 5.4042101092879005e+00 1.1401924440353202e+01 8.6609521809959560e+00 
78 1 2 1.0280000000001992e+00 -1.2890268464816169e+01 1.0000000000000000e+00 6.4169569721721054e+00 1.0667718537924694e+01 9.5899656738938841e+00 
290 1 2 1.0280000000003047e+00 2.1399240443786354e+01 1.0000000000000000e+00 3.6452409746709451e+00 1.0122236826136460e+01 6.8788034226786401e+00 
96 1 2 1.0279999999997802e+00 2.6303183522988785e+01 1.0000000000000000e+00 5.3615910762890922e+00 1.3480322649040316e+01 8.3502970315768952e+00 
88 1 2 1.0280000000000109e+00 -1.7457425039542358e+01 1.0000000000000000e+00 4.3372842643078817e+00 1.3669715934801832e+01 7.1481784014326983e+00 
367 1 2 1.0280000000000158e+00 1.0473489038273138e+01 1.0000000000000000e+00 4.5148386609802191e+00 1.4175270888759306e+01 7.9740269381067286e+00 
359 1 2 1.0280000000000098e+00 -6.1512996458043574e+00 1.0000000000000000e+00 4.4204385541475526e+00 1.4284274796776714e+01 7.7930826344119284e+00 
351 1 2 1.0280000000000018e+00 -3.5438490390165249e+00 1.0000000000000000e+00 4.3928137084948897e+00 1.4281404666808006e+01 7.7460224796612565e+00 
352 1 2 1.0280000000000062e+00 1.4220141016927220e+01 1.0000000000000000e+00 4.4191939502647806e+00 1.4290415160616101e+01 7.7844155206925567e+00 
150 1 2 1.0280000000000120e+00 3.0970928263965703e+01 1.0000000000000000e+00 4.9368621377736499e+00 1.4264260739109158e+01 7.0560296076968552e+00 
366 1 2 1.0279999999999987e+00 4.5245273261664508e+01 1.0000000000000000e+00 4.4806814850022505e+00 1.4323965633231110e+01 7.2531427536837878e+00 
342 1 2 1.0279999999999687e+00 2.5700513516809075e+01 1.0000000000000000e+00 4.4416983419892855e+00 1.4408503930282087e+01 7.5133291858125855e+00 
358 1 2 1.0280000000000145e+00 1.5916740370040353e+01 1.0000000000000000e+00 4.6961168772019786e+00 1.4399224039629745e+01 7.1915075407290647e+00 
142 1 2 1.0280000000000185e+00 3.3681649445853111e+01 1.0000000000000000e+00 4.8856589806166344e+00 1.4441478054935775e+01 7.2234477286826158e+00 
344 1 2 1.0279999999999740e+00 1.3085398599946302e+01 1.0000000000000000e+00 4.5485927499344045e+00 1.4490552839107554e+01 7.5356555255089823e+00 
151 1 2 1.0280000000000207e+00 6.5318603781443381e+00 1.0000000000000000e+00 4.7304208411288018e+00 1.4470851275356628e+01 7.2754901715356368e+00 
24 1 2 1.0280000000000298e+00 -1.2500272449100914e+01 1.0000000000000000e+00 4.7322613944211573e+00 1.4536781006709234e+01 7.6956126788323385e+00 
103 1 2 1.0279999999999532e+00 2.9283269105074822e+01 1.0000000000000000e+00 7.6272994400103808e+00 6.3824342671441636e+00 5.8336309382520901e-01 
384 1 2 1.0280000000000238e+00 -5.1660910427533207e+00 1.0000000000000000e+00 7.2822322609449168e+00 6.7880948111837087e+00 3.8373801837781624e-01 
289 1 2 1.0280000000000979e+00 8.1056891940029256e+00 1.0000000000000000e+00 9.9082641861282159e+00 7.1044792409048956e+00 3.1759241535522476e-01 
98 1 2 1.0279999999999436e+00 7.5162324477905827e+01 1.0000000000000000e+00 9.1553075781253614e+00 7.7982222503830698e+00 1.3949621362675446e+00 
353 1 2 1.0279999999999121e+00 -6.6190970470093919e+00 1.0000000000000000e+00 9.3968613453605645e+00 7.7997716891791349e+00 1.1766524689600335e+00 
191 1 2 1.0279999999999261e+00 9.9078346994986664e+00 1.0000000000000000e+00 9.3013971662083161e+00 7.8165217054102758e+00 1.2690551604959373e+00 
225 1 2 1.0279999999999334e+00 7.8360848333091411e+01 1.0000000000000000e+00 9.0930371514236175e+00 7.9355554486069675e+00 1.3572478516960638e+00 
368 1 2 1.0279999999999281e+00 9.0033259812513655e-01 1.0000000000000000e+00 9.1237776623910705e+00 7.9508200520681571e+00 1.3257029330589973e+00 
360 1 2 1.0279999999999276e+00 2.7098338134910705e+01 1.0000000000000000e+00 9.0317961945049952e+00 7.9970096831059099e+00 1.3431716137758958e+00 
304 1 2 1.0279999999999283e+00 1.8904764660228590e+01 1.0000000000000000e+00 8.9158292777108450e+00 8.0339550358747083e+00 1.3598651282853014e+00 
312 1 2 1.0280000000000356e+00 4.6134466866126793e+00 1.0000000000000000e+00 7.2518483059347121e+00 6.8770409618179258e+00 3.4573562244794526e-01 
313 1 2 1.0280000000000236e+00 1.2383065456116718e+01 1.0000000000000000e+00 7.2558764837270040e+00 7.3599979597723184e+00 3.2681873231071523e-01 
320 1 2 1.0280000000000347e+00 4.4654380242783454e+00 1.0000000000000000e+00 7.2855407541734891e+00 6.7562621632050037e+00 2.9692198033129058e-01 
377 1 2 1.0279999999999716e+00 -1.5206451276479154e+01 1.0000000000000000e+00 7.2242738251594050e+00 7.0873619305346267e+00 2.0158584630909296e-01 
241 1 2 1.0279999999999878e+00 2.1130939277282316e+01 1.0000000000000000e+00 7.2540078782935309e+00 6.8570559703335281e+00 1.9240633407763019e-01 
85 1 2 1.0279999999999581e+00 8.3786872929733427e+00 1.0000000000000000e+00 8.4513673335669584e+00 9.8264606283676361e+00 6.4294320932263602e+00 
242 1 2 1.0279999999996738e+00 -1.4908256385902530e+00 1.0000000000000000e+00 8.7777639485114367e+00 9.4775282744350680e+00 4.5035222186520585e+00 
250 1 2 1.0279999999996789e+00 3.2485983527341773e+00 1.0000000000000000e+00 8.6342651187018120e+00 9.6015051007704102e+00 4.5742009924284082e+00 
307 1 2 1.0279999999999787e+00 -3.3736623389522926e+01 1.0000000000000000e+00 9.1527305966643500e+00 9.6143722730121493e+00 4.1213695127073811e+00 
306 1 2 1.0280000000000626e+00 -2.7868535467838676e+01 1.0000000000000000e+00 9.3083802886640203e+00 9.5976901698853627e+00 4.0472609470202752e+00 
235 1 2 1.0279999999998475e+00 1.4662551824362311e+01 1.0000000000000000e+00 9.0750536689214467e+00 9.7977902657003764e+00 4.1458101790820550e+00 
243 1 2 1.0280000000004541e+00 -1.3557464696860496e+01 1.0000000000000000e+00 1.1410253671000268e+01 8.8218128195741805e+00 5.7422733722466033e+00 
109 1 2 1.0279999999997547e+00 -3.7438361929534778e+01 1.0000000000000000e+00 1.1802501917590948e+01 9.1505286891252826e+00 6.1386399270733856e+00 
94 1 2 1.0280000000001084e+00 -7.5692529813622818e+00 1.0000000000000000e+00 1.0119757272185534e+01 8.7993663441952243e+00 6.0715331850545882e+00 
158 1 2 1.0280000000002376e+00 2.0147249756674576e+01 1.0000000000000000e+00 1.0462850327503391e+01 8.6994790248542664e+00 6.1191831268990082e+00 
157 1 2 1.0280000000001501e+00 6.7707896672607177e+01 1.0000000000000000e+00 1.0284277200318478e+01 8.7635870488454941e+00 6.1265901655682562e+00 
251 1 2 1.0280000000004748e+00 2.1819635103443133e+01 1.0000000000000000e+00 1.0020181081283088e+01 8.8174423663927310e+00 4.6039581354014247e+00 
316 1 2 1.0279999999985174e+00 -1.6632577894140281e+00 1.0000000000000000e+00 1.1875976786785831e+01 9.3199039543554747e+00 6.4138200059695016e+00 
315 1 2 1.0280000000003942e+00 -1.7705683676838497e+01 1.0000000000000000e+00 1.0163850744578333e+01 9.1617025975110025e+00 4.1964611532377711e+00 
314 1 2 1.0280000000002985e+00 -1.4161538900082427e+00 1.0000000000000000e+00 1.0212438059925313e+01 9.2957810726264647e+00 4.1351762331457582e+00 
148 1 2 1.0280000000001477e+00 4.7288610823344484e+01 1.0000000000000000e+00 1.1769748048234554e+01 9.9300701942757730e+00 5.6903781650399594e+00 
234 1 2 1.0280000000001439e+00 -1.9577252508725046e+01 1.0000000000000000e+00 1.0050024682957948e+01 9.7276928521661432e+00 3.9895096440696767e+00 
100 1 2 1.0280000000004907e+00 -2.3527901252522796e+01 1.0000000000000000e+00 1.2142256828633284e+01 8.6090975922803459e+00 6.6284209390056246e+00 
147 1 2 1.0279999999998402e+00 -1.3408974001347795e+00 1.0000000000000000e+00 1.1823676717231539e+01 6.3798620071479091e+00 8.0737778567229803e+00 
10 1 2 1.0279999999998639e+00 -1.0010425997973350e+01 1.0000000000000000e+00 1.2082099472959493e+01 6.2615845220853910e+00 7.8889063060717124e+00 
146 1 2 1.0279999999997393e+00 -1.0122015559000108e+00 1.0000000000000000e+00 1.1251922404564505e+01 6.5128388519885689e+00 8.8121445607766784e+00 
154 1 2 1.0279999999998530e+00 2.3949020991398157e+01 1.0000000000000000e+00 1.2400610232440741e+01 6.0000621015000419e+00 7.8931143700253248e+00 
73 1 2 1.0279999999997849e+00 -3.2106418798110681e+01 1.0000000000000000e+00 1.2911308507554700e+01 5.3613641091398572e+00 8.6570542005726896e+00 
70 1 2 1.0279999999998795e+00 4.9827378742112799e+01 1.0000000000000000e+00 1.2945485471124137e+01 6.1658954310130403e+00 7.4520964741770443e+00 
83 1 2 1.0279999999999556e+00 1.2083494720850307e+01 1.0000000000000000e+00 1.2956344134543146e+01 6.5783838982256171e+00 7.1934289811634002e+00 
324 1 2 1.0280000000000167e+00 3.0492114076025636e+01 1.0000000000000000e+00 1.3005384248939334e+01 6.6657079929717140e+00 7.1473998619932759e+00 
208 1 2 1.0279999999998259e+00 -3.8961725496243140e+00 1.0000000000000000e+00 1.2476642224629275e+01 5.8664691947144023e+00 9.9331326199944776e+00 
321 1 2 1.0279999999997187e+00 2.1065103401734513e+02 1.0000000000000000e+00 9.5601606824161092e+00 7.2757165742436767e+00 9.5389278789748602e+00 
82 1 2 1.0279999999998291e+00 -3.4387030318852574e+01 1.0000000000000000e+00 8.4410504338142616e+00 7.7634974714129195e+00 9.7713731921624447e+00 
217 1 2 1.0279999999996359e+00 9.0641393679280810e+01 1.0000000000000000e+00 8.3749737645269295e+00 8.0034178441780028e+00 9.7011980923975347e+00 
281 1 2 1.0279999999996106e+00 3.7675040951932521e+00 1.0000000000000000e+00 6.9233472551568616e+00 8.6129276761135074e+00 9.8675788921104584e+00 
93 1 2 1.0279999999997496e+00 -4.5575452443468265e+01 1.0000000000000000e+00 9.3995627723256696e+00 9.8590760979694760e+00 6.9569289937478986e+00 
200 1 2 1.0280000000006617e+00 7.1137337400000334e+01 1.0000000000000000e+00 1.2094008678291441e+01 8.3604493351209079e+00 9.1176091426003243e+00 
326 1 2 1.0280000000006309e+00 5.4479647327722304e+01 1.0000000000000000e+00 1.3126521043613058e+01 8.1956710975494413e+00 9.8355739694125255e+00 
21 1 2 1.0280000000002047e+00 -7.9287189812705421e+00 1.0000000000000000e+00 1.2630853250487480e+01 8.1487495778854289e+00 6.6995898235467610e+00 
380 1 2 1.0279999999985840e+00 4.6811215064313716e+00 1.0000000000000000e+00 1.1884111962590000e+01 9.1295093716689699e+00 6.7296135674328097e+00 
14 1 2 1.0280000000011080e+00 8.6471826239570131e+00 1.0000000000000000e+00 1.0048772001973031e+01 8.3594233247172234e+00 9.3539064205743543e+00 
18 1 2 1.0279999999996723e+00 3.1224881709426839e+01 1.0000000000000000e+00 1.0205783333919074e+01 7.3616090414955195e+00 9.2175143186690889e+00 
334 1 2 1.0279999999999547e+00 -2.4226846404564498e+01 1.0000000000000000e+00 1.0309285485851003e+01 6.4896491240943064e+00 1.0765608454568888e+01 
15 1 2 1.0279999999999490e+00 -3.3428545053941193e+01 1.0000000000000000e+00 1.1290225107149581e+01 6.2010045027586180e+00 1.0367479868484269e+01 
8 1 2 1.0279999999999574e+00 -7.0966139919615703e+00 1.0000000000000000e+00 1.0391843477744374e+01 6.4589787506529230e+00 1.0721608863012756e+01 
143 1 2 1.0279999999999128e+00 -2.3701834734387383e+01 1.0000000000000000e+00 9.7768171550632772e+00 6.7327056380349806e+00 1.1037534603886447e+01 
327 1 2 1.0279999999999028e+00 -2.5199486837119014e+01 1.0000000000000000e+00 9.6836496300722956e+00 6.7591860381943425e+00 1.1041419619020617e+01 
76 1 2 1.0280000000000149e+00 -9.6849578240973209e+00 1.0000000000000000e+00 7.2312550188298914e+00 6.9068623318457600e+00 1.0926520976390339e+01 
16 1 2 1.0279999999998928e+00 -3.8536616826281467e+01 1.0000000000000000e+00 9.5433176612650978e+00 6.8107688883368844e+00 1.1064115316363321e+01 
144 1 2 1.0279999999999125e+00 7.4437318517508668e+00 1.0000000000000000e+00 8.8955510882638986e+00 7.3501351838054845e+00 1.1372250911573049e+01 
335 1 2 1.0280000000002218e+00 -3.9656671840393045e+01 1.0000000000000000e+00 8.8480344468264249e+00 7.5364549008256878e+00 1.1423284322335274e+01 
79 1 2 1.0280000000001599e+00 -6.0339181979432368e+01 1.0000000000000000e+00 8.8090379386270836e+00 8.2924854351870323e+00 1.1337057848358144e+01 
80 1 2 1.0280000000002658e+00 -3.3209637433146980e+01 1.0000000000000000e+00 8.5695318715978015e+00 8.9894726040171111e+00 1.0897378439080144e+01 
328 1 2 1.0280000000002578e+00 1.8780192753536681e+01 1.0000000000000000e+00 8.4273052997901665e+00 9.6966936628303415e+00 1.0325712794253686e+01 
336 1 2 1.0280000000004310e+00 4.7506706626202131e+01 1.0000000000000000e+00 9.1301511278114358e+00 9.3258498891452479e+00 1.0517909439094906e+01 
71 1 2 1.0280000000002962e+00 -5.7137517872887045e+01 1.0000000000000000e+00 9.0050103913765067e+00 9.5522432514674804e+00 1.0260331689914045e+01 
135 1 2 1.0280000000000997e+00 6.7525330688005498e+00 1.0000000000000000e+00 8.8874449508540323e+00 9.7942383554819248e+00 1.0052014293136461e+01 
199 1 2 1.0280000000007208e+00 -3.5165772449744026e+01 1.0000000000000000e+00 1.2108937853856681e+01 7.0575731782150175e+00 1.1379730390162644e+01 
271 1 2 1.0280000000008076e+00 -7.1743590873471433e+01 1.0000000000000000e+00 1.2335428144962531e+01 7.1122769013481042e+00 1.1351387983845697e+01 
216 1 2 1.0280000000003042e+00 4.4653155923792482e+01 1.0000000000000000e+00 1.1271436246275822e+01 8.5525112014717966e+00 1.1009229403419528e+01 
207 1 2 1.0280000000000626e+00 -2.7576894659761649e+01 1.0000000000000000e+00 1.2213581571925653e+01 8.3446282055409107e+00 1.1509620041260719e+01 
31 1 2 1.0279999999991303e+00 7.9171256394700578e+01 1.0000000000000000e+00 1.1981557229379050e+01 8.2030092026748740e+00 1.1503567207853521e+01 
270 1 2 1.0279999999976823e+00 -3.3541945750168360e+01 1.0000000000000000e+00 1.1915142382618130e+01 8.0936483597612661e+00 1.1564233949285599e+01 
263 1 2 1.0280000000007166e+00 -6.6875478440546090e+01 1.0000000000000000e+00 1.3214774578233396e+01 7.4247542637017077e+00 1.1892802169999225e+01 
288 1 2 1.0279999999998715e+00 -2.3245032680731438e+01 1.0000000000000000e+00 1.2465101149140297e+01 7.8525704275886881e+00 1.3127310080989233e+01 
311 1 2 1.0279999999999716e+00 -5.7590692402308491e+01 1.0000000000000000e+00 1.0338373229417408e+01 7.2390357282149775e+00 1.6312417026233696e+01 
317 1 2 1.0280000000002936e+00 7.8881096879780657e+01 1.0000000000000000e+00 1.2393439242215507e+01 7.7887806108915534e+00 1.4928600081154666e+01 
295 1 2 1.0280000000002105e+00 -2.9180045453352534e+01 1.0000000000000000e+00 1.3292572510233192e+01 8.3121843006151188e+00 1.5039696169562772e+01 
310 1 2 1.0279999999997773e+00 -5.0621763322993878e+01 1.0000000000000000e+00 1.0700971613081530e+01 7.3667260058757496e+00 1.5885587733717866e+01 
297 1 2 1.0280000000002925e+00 1.1549133620511938e+01 1.0000000000000000e+00 1.1464888527192096e+01 7.6019278232064460e+00 1.5727967364730114e+01 
383 1 2 1.0279999999997513e+00 -2.5778784113698563e+01 1.0000000000000000e+00 1.1067821781173899e+01 7.5747078892380308e+00 1.5693705142393760e+01 
246 1 2 1.0279999999999598e+00 -4.5518950528122915e+01 1.0000000000000000e+00 1.0389061510441049e+01 7.2551736411911234e+00 1.6228078879182721e+01 
309 1 2 1.0279999999997183e+00 -2.0162520906756448e+01 1.0000000000000000e+00 1.0638958049263275e+01 7.3763121138426291e+00 1.5928165225513188e+01 
374 1 2 1.0279999999997484e+00 1.4380984646514639e+01 1.0000000000000000e+00 1.1359157011014659e+01 7.6801224682624873e+00 1.5718021973315992e+01 
248 1 2 1.0279999999996514e+00 1.9218105259417161e+01 1.0000000000000000e+00 1.0628498067181459e+01 7.4129493899045826e+00 1.5930422221371366e+01 
318 1 2 1.0279999999996048e+00 -4.3459268965923812e+01 1.0000000000000000e+00 1.0852493188286193e+01 7.5461321021346928e+00 1.5785592363849702e+01 
245 1 2 1.0279999999994947e+00 -3.0672256683142606e+01 1.0000000000000000e+00 1.0915692344527045e+01 7.6316274007647582e+00 1.5782147045198585e+01 
375 1 2 1.0279999999994696e+00 -7.6018359457164095e+00 1.0000000000000000e+00 1.2988559417649716e+01 9.5893729821677720e+00 1.3346490879966716e+01 
376 1 2 1.0280000000000680e+00 4.6764144162528574e+01 1.0000000000000000e+00 7.8207745256598837e+00 6.1885834118911882e+00 1.9982000654411952e+01 
305 1 2 1.0280000000000598e+00 -1.3978220087684988e+01 1.0000000000000000e+00 7.9132029021398758e+00 6.4906723607965571e+00 1.9311267213139249e+01 
192 1 2 1.0280000000001490e+00 1.6109229323475933e+01 1.0000000000000000e+00 9.8166659213509888e+00 6.7315967628498345e+00 1.9091932578314736e+01 
256 1 2 1.0280000000001670e+00 2.7515468936257722e+01 1.0000000000000000e+00 9.8503821809227308e+00 6.7618193807085198e+00 1.9141288565696492e+01 
361 1 2 1.0280000000001648e+00 -1.5108983704058121e+00 1.0000000000000000e+00 9.9136714056573592e+00 6.8025770575701738e+00 1.9613082968161109e+01 
255 1 2 1.0280000000005416e+00 -2.9045525448490995e+01 1.0000000000000000e+00 9.7555448377046137e+00 6.9884713882629210e+00 1.8436922428800614e+01 
319 1 2 1.0280000000002429e+00 -2.0983592922878771e+01 1.0000000000000000e+00 9.8776743821310440e+00 7.0028019999319628e+00 1.8646532030542627e+01 
249 1 2 1.0280000000000260e+00 8.7903931161960713e+01 1.0000000000000000e+00 7.3017733080507830e+00 6.8019349159600768e+00 1.9976813744123199e+01 
46 1 2 1.0279999999995211e+00 -1.4412484770037128e+01 1.0000000000000000e+00 9.8878535130526224e+00 7.2397351348294778e+00 1.8519269194222428e+01 
39 1 2 1.0280000000000491e+00 3.3444433652140525e+01 1.0000000000000000e+00 8.3867400841444670e+00 8.1420475836973640e+00 1.9539864204857601e+01 
40 1 2 1.0279999999998375e+00 7.2255515194252183e+01 1.0000000000000000e+00 1.0321507006433782e+01 7.6777869464666590e+00 1.6705290192324984e+01 
185 1 2 1.0279999999999265e+00 3.8146678073559272e+01 1.0000000000000000e+00 1.0544072333850158e+01 7.1960113930384226e+00 1.7267834077510365e+01 
247 1 2 1.0280000000005263e+00 -3.4837107520229225e+01 1.0000000000000000e+00 1.0307212191296786e+01 7.2239023871070014e+00 1.7347957804557797e+01 
298 1 2 1.0279999999998983e+00 6.8249494884277384e-01 1.0000000000000000e+00 6.8404984547796213e+00 1.0566241610485536e+01 5.7688878329330908e+00 
124 1 2 1.0279999999999385e+00 -1.3516991952649558e+01 1.0000000000000000e+00 7.3573527243832109e+00 1.1112898702019784e+01 5.6446534174191756e+00 
188 1 2 1.0280000000002134e+00 2.2697545502170218e+01 1.0000000000000000e+00 8.4179190539148827e+00 1.1745014829117215e+01 6.0683309208978651e+00 
171 1 2 1.0279999999998279e+00 9.5484627272705822e+00 1.0000000000000000e+00 9.5407745545243561e+00 1.0787421474353856e+01 4.3628933417978386e+00 
252 1 2 1.0279999999999490e+00 -1.3531909760184906e+01 1.0000000000000000e+00 6.7463743416126594e+00 1.0572026759357161e+01 5.7998613234899086e+00 
97 1 2 1.0279999999997853e+00 3.2298387631518473e+01 1.0000000000000000e+00 1.0556229070444871e+01 1.1498701048090236e+01 4.8231070044644824e+00 
33 1 2 1.0279999999997900e+00 4.6277808005156622e+00 1.0000000000000000e+00 1.0506414080845550e+01 1.1480866240396427e+01 4.8096390235457909e+00 
299 1 2 1.0279999999996596e+00 1.2475257227853099e+01 1.0000000000000000e+00 1.1637092948507673e+01 1.1542016371106786e+01 5.2007542504515003e+00 
41 1 2 1.0280000000000187e+00 1.0513415779269476e+01 1.0000000000000000e+00 1.1045052868527495e+01 1.1847313692234804e+01 5.0607972939604702e+00 
42 1 2 1.0280000000000622e+00 -3.0245318891180803e-02 1.0000000000000000e+00 1.1949041148150071e+01 1.2703211233906881e+01 5.0252525330696125e+00 
34 1 2 1.0280000000000291e+00 -2.8961424504792987e+01 1.0000000000000000e+00 1.2037429619318290e+01 1.2957449567834253e+01 4.9815968989277835e+00 
240 1 2 1.0279999999999827e+00 9.1967489912411281e+01 1.0000000000000000e+00 1.2233058464535327e+01 1.3306076767270820e+01 4.9514247634288839e+00 
296 1 2 1.0279999999999796e+00 3.9088551625562538e+01 1.0000000000000000e+00 1.2341523393929929e+01 1.3338381892931093e+01 4.9294729706047544e+00 
89 1 2 1.0279999999999543e+00 4.4461801823394103e+00 1.0000000000000000e+00 1.2557425978257410e+01 1.3644887429217983e+01 4.9844170305984594e+00 
161 1 2 1.0279999999999416e+00 -1.4168961592826374e+01 1.0000000000000000e+00 1.2790219830563107e+01 1.3665407961488775e+01 4.9906432767042599e+00 