LAMMPS data file via write_data, version 30 Jul 2016, timestep = 600000

2080 atoms
8 atom types

0.0000000000000000e+00 4.0000000000000000e+01 xlo xhi
0.0000000000000000e+00 4.0000000000000000e+01 ylo yhi
0.0000000000000000e+00 1.0000000000000000e+02 zlo zhi

Masses

1 3.896
2 4.306
3 20.064
4 8.378
5 8.378
6 8.378
7 8.378
8 8.378

Atoms # meso-molecular

1 2 4 2.2559723595316457e+00 1.0394745730865959e+03 1.0000000000000000e+00 0.0000000000000000e+00 0.0000000000000000e+00 2.5000000000000000e+00 
2 2 4 2.2559723595316457e+00 8.2024494994458803e+02 1.0000000000000000e+00 0.0000000000000000e+00 2.0000000000000000e+00 2.5000000000000000e+00 
3 2 4 2.2559723595316457e+00 3.9257755919817725e+02 1.0000000000000000e+00 0.0000000000000000e+00 4.0000000000000000e+00 2.5000000000000000e+00 
4 2 4 2.2559723595316457e+00 -2.3694149472243311e+02 1.0000000000000000e+00 0.0000000000000000e+00 6.0000000000000000e+00 2.5000000000000000e+00 
5 2 4 2.2559723595316457e+00 -1.0631438201675719e+03 1.0000000000000000e+00 0.0000000000000000e+00 8.0000000000000000e+00 2.5000000000000000e+00 
6 2 4 2.2559723595316457e+00 -2.0619437947346905e+03 1.0000000000000000e+00 0.0000000000000000e+00 1.0000000000000000e+01 2.5000000000000000e+00 
7 2 4 2.2559723595316457e+00 -3.1679612179202136e+03 1.0000000000000000e+00 0.0000000000000000e+00 1.2000000000000000e+01 2.5000000000000000e+00 
8 2 4 2.2559723595316457e+00 -4.2645972242519138e+03 1.0000000000000000e+00 0.0000000000000000e+00 1.4000000000000000e+01 2.5000000000000000e+00 
9 2 4 2.2559723595316457e+00 -5.1589171425886761e+03 1.0000000000000000e+00 0.0000000000000000e+00 1.6000000000000000e+01 2.5000000000000000e+00 
10 2 4 2.2559723595316457e+00 -5.6640801765339675e+03 1.0000000000000000e+00 0.0000000000000000e+00 1.8000000000000000e+01 2.5000000000000000e+00 
21 2 4 2.2559723595316457e+00 9.2511540285274805e+02 1.0000000000000000e+00 2.0000000000000000e+00 0.0000000000000000e+00 2.5000000000000000e+00 
22 2 4 2.2559723595316457e+00 7.4350563587655711e+02 1.0000000000000000e+00 2.0000000000000000e+00 2.0000000000000000e+00 2.5000000000000000e+00 
23 2 4 2.2559723595316457e+00 3.8927164586281765e+02 1.0000000000000000e+00 2.0000000000000000e+00 4.0000000000000000e+00 2.5000000000000000e+00 
24 2 4 2.2559723595316457e+00 -1.4930209205336385e+02 1.0000000000000000e+00 2.0000000000000000e+00 6.0000000000000000e+00 2.5000000000000000e+00 
25 2 4 2.2559723595316457e+00 -8.8005361638309409e+02 1.0000000000000000e+00 2.0000000000000000e+00 8.0000000000000000e+00 2.5000000000000000e+00 
26 2 4 2.2559723595316457e+00 -1.7997481109176633e+03 1.0000000000000000e+00 2.0000000000000000e+00 1.0000000000000000e+01 2.5000000000000000e+00 
27 2 4 2.2559723595316457e+00 -2.8528775240258465e+03 1.0000000000000000e+00 2.0000000000000000e+00 1.2000000000000000e+01 2.5000000000000000e+00 
28 2 4 2.2559723595316457e+00 -3.9062252492250400e+03 1.0000000000000000e+00 2.0000000000000000e+00 1.4000000000000000e+01 2.5000000000000000e+00 
29 2 4 2.2559723595316457e+00 -4.7667997716825921e+03 1.0000000000000000e+00 2.0000000000000000e+00 1.6000000000000000e+01 2.5000000000000000e+00 
30 2 4 2.2559723595316457e+00 -5.2527147281908728e+03 1.0000000000000000e+00 2.0000000000000000e+00 1.8000000000000000e+01 2.5000000000000000e+00 
41 2 4 2.2559723595316457e+00 7.2535324985245029e+02 1.0000000000000000e+00 4.0000000000000000e+00 0.0000000000000000e+00 2.5000000000000000e+00 
42 2 4 2.2559723595316457e+00 6.0718878116153178e+02 1.0000000000000000e+00 4.0000000000000000e+00 2.0000000000000000e+00 2.5000000000000000e+00 
43 2 4 2.2559723595316457e+00 3.7321747640011176e+02 1.0000000000000000e+00 4.0000000000000000e+00 4.0000000000000000e+00 2.5000000000000000e+00 
44 2 4 2.2559723595316457e+00 -8.5284173736847109e+00 1.0000000000000000e+00 4.0000000000000000e+00 6.0000000000000000e+00 2.5000000000000000e+00 
45 2 4 2.2559723595316457e+00 -5.8445555478576284e+02 1.0000000000000000e+00 4.0000000000000000e+00 8.0000000000000000e+00 2.5000000000000000e+00 
46 2 4 2.2559723595316457e+00 -1.3857283822726040e+03 1.0000000000000000e+00 4.0000000000000000e+00 1.0000000000000000e+01 2.5000000000000000e+00 
47 2 4 2.2559723595316457e+00 -2.3546000133174603e+03 1.0000000000000000e+00 4.0000000000000000e+00 1.2000000000000000e+01 2.5000000000000000e+00 
48 2 4 2.2559723595316457e+00 -3.3490652653391080e+03 1.0000000000000000e+00 4.0000000000000000e+00 1.4000000000000000e+01 2.5000000000000000e+00 
49 2 4 2.2559723595316457e+00 -4.1747201201556636e+03 1.0000000000000000e+00 4.0000000000000000e+00 1.6000000000000000e+01 2.5000000000000000e+00 
50 2 4 2.2559723595316457e+00 -4.6441996820335844e+03 1.0000000000000000e+00 4.0000000000000000e+00 1.8000000000000000e+01 2.5000000000000000e+00 
61 2 4 2.2559723595316457e+00 4.8682990246601241e+02 1.0000000000000000e+00 6.0000000000000000e+00 0.0000000000000000e+00 2.5000000000000000e+00 
62 2 4 2.2559723595316457e+00 4.3463162121071127e+02 1.0000000000000000e+00 6.0000000000000000e+00 2.0000000000000000e+00 2.5000000000000000e+00 
63 2 4 2.2559723595316457e+00 3.2333299744439387e+02 1.0000000000000000e+00 6.0000000000000000e+00 4.0000000000000000e+00 2.5000000000000000e+00 
64 2 4 2.2559723595316457e+00 9.6694235024744387e+01 1.0000000000000000e+00 6.0000000000000000e+00 6.0000000000000000e+00 2.5000000000000000e+00 
65 2 4 2.2559723595316457e+00 -3.4241107911069935e+02 1.0000000000000000e+00 6.0000000000000000e+00 8.0000000000000000e+00 2.5000000000000000e+00 
66 2 4 2.2559723595316457e+00 -1.0533555353850538e+03 1.0000000000000000e+00 6.0000000000000000e+00 1.0000000000000000e+01 2.5000000000000000e+00 
67 2 4 2.2559723595316457e+00 -1.9660840821603315e+03 1.0000000000000000e+00 6.0000000000000000e+00 1.2000000000000000e+01 2.5000000000000000e+00 
68 2 4 2.2559723595316457e+00 -2.9295715045306642e+03 1.0000000000000000e+00 6.0000000000000000e+00 1.4000000000000000e+01 2.5000000000000000e+00 
69 2 4 2.2559723595316457e+00 -3.7463153730468866e+03 1.0000000000000000e+00 6.0000000000000000e+00 1.6000000000000000e+01 2.5000000000000000e+00 
70 2 4 2.2559723595316457e+00 -4.2167132323696569e+03 1.0000000000000000e+00 6.0000000000000000e+00 1.8000000000000000e+01 2.5000000000000000e+00 
81 2 4 2.2559723595316457e+00 2.5416223011210138e+02 1.0000000000000000e+00 8.0000000000000000e+00 0.0000000000000000e+00 2.5000000000000000e+00 
82 2 4 2.2559723595316457e+00 2.4087574172494510e+02 1.0000000000000000e+00 8.0000000000000000e+00 2.0000000000000000e+00 2.5000000000000000e+00 
83 2 4 2.2559723595316457e+00 1.9634412564772936e+02 1.0000000000000000e+00 8.0000000000000000e+00 4.0000000000000000e+00 2.5000000000000000e+00 
84 2 4 2.2559723595316457e+00 3.2888422877547875e+01 1.0000000000000000e+00 8.0000000000000000e+00 6.0000000000000000e+00 2.5000000000000000e+00 
85 2 4 2.2559723595316457e+00 -3.9110786120833677e+02 1.0000000000000000e+00 8.0000000000000000e+00 8.0000000000000000e+00 2.5000000000000000e+00 
86 2 4 2.2559723595316457e+00 -1.1350797524339473e+03 1.0000000000000000e+00 8.0000000000000000e+00 1.0000000000000000e+01 2.5000000000000000e+00 
87 2 4 2.2559723595316457e+00 -2.0984948358470338e+03 1.0000000000000000e+00 8.0000000000000000e+00 1.2000000000000000e+01 2.5000000000000000e+00 
88 2 4 2.2559723595316457e+00 -3.1119264690803248e+03 1.0000000000000000e+00 8.0000000000000000e+00 1.4000000000000000e+01 2.5000000000000000e+00 
89 2 4 2.2559723595316457e+00 -3.9725342803980720e+03 1.0000000000000000e+00 8.0000000000000000e+00 1.6000000000000000e+01 2.5000000000000000e+00 
90 2 4 2.2559723595316457e+00 -4.4716838869301837e+03 1.0000000000000000e+00 8.0000000000000000e+00 1.8000000000000000e+01 2.5000000000000000e+00 
101 2 4 2.2559723595316457e+00 5.3742546850885589e+01 1.0000000000000000e+00 1.0000000000000000e+01 0.0000000000000000e+00 2.5000000000000000e+00 
102 2 4 2.2559723595316457e+00 2.6412070405958730e+01 1.0000000000000000e+00 1.0000000000000000e+01 2.0000000000000000e+00 2.5000000000000000e+00 
103 2 4 2.2559723595316457e+00 -6.0790579682117681e+01 1.0000000000000000e+00 1.0000000000000000e+01 4.0000000000000000e+00 2.5000000000000000e+00 
104 2 4 2.2559723595316457e+00 -3.3021036001173871e+02 1.0000000000000000e+00 1.0000000000000000e+01 6.0000000000000000e+00 2.5000000000000000e+00 
105 2 4 2.2559723595316457e+00 -9.4012337470802072e+02 1.0000000000000000e+00 1.0000000000000000e+01 8.0000000000000000e+00 2.5000000000000000e+00 
106 2 4 2.2559723595316457e+00 -1.9184994593310564e+03 1.0000000000000000e+00 1.0000000000000000e+01 1.0000000000000000e+01 2.5000000000000000e+00 
107 2 4 2.2559723595316457e+00 -3.1208848377391269e+03 1.0000000000000000e+00 1.0000000000000000e+01 1.2000000000000000e+01 2.5000000000000000e+00 
108 2 4 2.2559723595316457e+00 -4.3462567586825644e+03 1.0000000000000000e+00 1.0000000000000000e+01 1.4000000000000000e+01 2.5000000000000000e+00 
109 2 4 2.2559723595316457e+00 -5.3659751838894372e+03 1.0000000000000000e+00 1.0000000000000000e+01 1.6000000000000000e+01 2.5000000000000000e+00 
110 2 4 2.2559723595316457e+00 -5.9510864654915458e+03 1.0000000000000000e+00 1.0000000000000000e+01 1.8000000000000000e+01 2.5000000000000000e+00 
121 2 4 2.2559723595316457e+00 -1.0868203347751015e+02 1.0000000000000000e+00 1.2000000000000000e+01 0.0000000000000000e+00 2.5000000000000000e+00 
122 2 4 2.2559723595316457e+00 -2.1368865762102376e+02 1.0000000000000000e+00 1.2000000000000000e+01 2.0000000000000000e+00 2.5000000000000000e+00 
123 2 4 2.2559723595316457e+00 -4.7550758241189897e+02 1.0000000000000000e+00 1.2000000000000000e+01 4.0000000000000000e+00 2.5000000000000000e+00 
124 2 4 2.2559723595316457e+00 -1.0382667073199636e+03 1.0000000000000000e+00 1.2000000000000000e+01 6.0000000000000000e+00 2.5000000000000000e+00 
125 2 4 2.2559723595316457e+00 -2.0467023088065816e+03 1.0000000000000000e+00 1.2000000000000000e+01 8.0000000000000000e+00 2.5000000000000000e+00 
126 2 4 2.2559723595316457e+00 -3.4873961346507813e+03 1.0000000000000000e+00 1.2000000000000000e+01 1.0000000000000000e+01 2.5000000000000000e+00 
127 2 4 2.2559723595316457e+00 -5.1598273597760672e+03 1.0000000000000000e+00 1.2000000000000000e+01 1.2000000000000000e+01 2.5000000000000000e+00 
128 2 4 2.2559723595316457e+00 -6.7982811139503137e+03 1.0000000000000000e+00 1.2000000000000000e+01 1.4000000000000000e+01 2.5000000000000000e+00 
129 2 4 2.2559723595316457e+00 -8.1173253481183674e+03 1.0000000000000000e+00 1.2000000000000000e+01 1.6000000000000000e+01 2.5000000000000000e+00 
130 2 4 2.2559723595316457e+00 -8.8610852805849972e+03 1.0000000000000000e+00 1.2000000000000000e+01 1.8000000000000000e+01 2.5000000000000000e+00 
141 2 4 2.2559723595316457e+00 -2.3816280112748569e+02 1.0000000000000000e+00 1.4000000000000000e+01 0.0000000000000000e+00 2.5000000000000000e+00 
142 2 4 2.2559723595316457e+00 -4.6890895554405910e+02 1.0000000000000000e+00 1.4000000000000000e+01 2.0000000000000000e+00 2.5000000000000000e+00 
143 2 4 2.2559723595316457e+00 -1.0002964064464904e+03 1.0000000000000000e+00 1.4000000000000000e+01 4.0000000000000000e+00 2.5000000000000000e+00 
144 2 4 2.2559723595316457e+00 -1.9791123590746479e+03 1.0000000000000000e+00 1.4000000000000000e+01 6.0000000000000000e+00 2.5000000000000000e+00 
145 2 4 2.2559723595316457e+00 -3.5310443649500921e+03 1.0000000000000000e+00 1.4000000000000000e+01 8.0000000000000000e+00 2.5000000000000000e+00 
146 2 4 2.2559723595316457e+00 -5.5940381248593603e+03 1.0000000000000000e+00 1.4000000000000000e+01 1.0000000000000000e+01 2.5000000000000000e+00 
147 2 4 2.2559723595316457e+00 -7.8974665410926009e+03 1.0000000000000000e+00 1.4000000000000000e+01 1.2000000000000000e+01 2.5000000000000000e+00 
148 2 4 2.2559723595316457e+00 -1.0082136343503136e+04 1.0000000000000000e+00 1.4000000000000000e+01 1.4000000000000000e+01 2.5000000000000000e+00 
149 2 4 2.2559723595316457e+00 -1.1797780723091542e+04 1.0000000000000000e+00 1.4000000000000000e+01 1.6000000000000000e+01 2.5000000000000000e+00 
150 2 4 2.2559723595316457e+00 -1.2751418660945752e+04 1.0000000000000000e+00 1.4000000000000000e+01 1.8000000000000000e+01 2.5000000000000000e+00 
161 2 4 2.2559723595316457e+00 -3.3503067282394807e+02 1.0000000000000000e+00 1.6000000000000000e+01 0.0000000000000000e+00 2.5000000000000000e+00 
162 2 4 2.2559723595316457e+00 -6.9636270055349360e+02 1.0000000000000000e+00 1.6000000000000000e+01 2.0000000000000000e+00 2.5000000000000000e+00 
163 2 4 2.2559723595316457e+00 -1.4995279185183263e+03 1.0000000000000000e+00 1.6000000000000000e+01 4.0000000000000000e+00 2.5000000000000000e+00 
164 2 4 2.2559723595316457e+00 -2.8926417606100722e+03 1.0000000000000000e+00 1.6000000000000000e+01 6.0000000000000000e+00 2.5000000000000000e+00 
165 2 4 2.2559723595316457e+00 -4.9799862668051119e+03 1.0000000000000000e+00 1.6000000000000000e+01 8.0000000000000000e+00 2.5000000000000000e+00 
166 2 4 2.2559723595316457e+00 -7.6523058189409694e+03 1.0000000000000000e+00 1.6000000000000000e+01 1.0000000000000000e+01 2.5000000000000000e+00 
167 2 4 2.2559723595316457e+00 -1.0568463103341524e+04 1.0000000000000000e+00 1.6000000000000000e+01 1.2000000000000000e+01 2.5000000000000000e+00 
168 2 4 2.2559723595316457e+00 -1.3280622474350461e+04 1.0000000000000000e+00 1.6000000000000000e+01 1.4000000000000000e+01 2.5000000000000000e+00 
169 2 4 2.2559723595316457e+00 -1.5378656581692776e+04 1.0000000000000000e+00 1.6000000000000000e+01 1.6000000000000000e+01 2.5000000000000000e+00 
170 2 4 2.2559723595316457e+00 -1.6533006647513379e+04 1.0000000000000000e+00 1.6000000000000000e+01 1.8000000000000000e+01 2.5000000000000000e+00 
181 2 4 2.2559723595316457e+00 -3.8901318039807632e+02 1.0000000000000000e+00 1.8000000000000000e+01 0.0000000000000000e+00 2.5000000000000000e+00 
182 2 4 2.2559723595316457e+00 -8.3339653080001403e+02 1.0000000000000000e+00 1.8000000000000000e+01 2.0000000000000000e+00 2.5000000000000000e+00 
183 2 4 2.2559723595316457e+00 -1.8069715872311435e+03 1.0000000000000000e+00 1.8000000000000000e+01 4.0000000000000000e+00 2.5000000000000000e+00 
184 2 4 2.2559723595316457e+00 -3.4615461834992493e+03 1.0000000000000000e+00 1.8000000000000000e+01 6.0000000000000000e+00 2.5000000000000000e+00 
185 2 4 2.2559723595316457e+00 -5.8843339000323485e+03 1.0000000000000000e+00 1.8000000000000000e+01 8.0000000000000000e+00 2.5000000000000000e+00 
186 2 4 2.2559723595316457e+00 -8.9370428084137056e+03 1.0000000000000000e+00 1.8000000000000000e+01 1.0000000000000000e+01 2.5000000000000000e+00 
187 2 4 2.2559723595316457e+00 -1.2232762728401100e+04 1.0000000000000000e+00 1.8000000000000000e+01 1.2000000000000000e+01 2.5000000000000000e+00 
188 2 4 2.2559723595316457e+00 -1.5268301187362595e+04 1.0000000000000000e+00 1.8000000000000000e+01 1.4000000000000000e+01 2.5000000000000000e+00 
189 2 4 2.2559723595316457e+00 -1.7599057608392723e+04 1.0000000000000000e+00 1.8000000000000000e+01 1.6000000000000000e+01 2.5000000000000000e+00 
190 2 4 2.2559723595316457e+00 -1.8873480544309052e+04 1.0000000000000000e+00 1.8000000000000000e+01 1.8000000000000000e+01 2.5000000000000000e+00 
2021 1623 2 1.0247243887646260e+00 -1.3765623710493499e+04 1.0000000000000000e+00 1.8220973460959272e+01 1.9734674974699306e+01 6.1744792531788846e+01 
750 352 2 1.0311609438643390e+00 1.2630479352221698e+03 1.0000000000000000e+00 1.9776370495963363e+01 1.8741968431979991e+01 6.1742038626157616e+01 
1631 1233 2 1.0298938865243525e+00 1.6855464436358026e+04 1.0000000000000000e+00 1.9809901246098615e+01 1.9010936152138612e+01 5.8800369200568333e+01 
1082 684 2 1.0188470113543533e+00 1.0021036014447450e+05 1.0000000000000000e+00 1.9890093228526752e+01 1.7950926532883813e+01 6.1181570530018192e+01 
1496 1098 2 1.0292172770768424e+00 4.8119592173218547e+02 1.0000000000000000e+00 1.9389994499336687e+01 1.9848059445745612e+01 6.1199726867617095e+01 
985 587 2 1.0280351058197119e+00 2.0799934023693263e+03 1.0000000000000000e+00 1.9577463784076325e+01 1.8328582095077472e+01 5.9755572444548292e+01 
1164 766 2 1.0258270628312676e+00 -8.4582416967915069e+03 1.0000000000000000e+00 1.9961893696972222e+01 1.8376276928471466e+01 5.8944776552682150e+01 
1775 1377 2 1.0282610174317732e+00 -1.2167806820928856e+04 1.0000000000000000e+00 1.9783554453193691e+01 1.8740458000284583e+01 5.8876171302063348e+01 
1276 878 2 1.0234131943172018e+00 8.0811529574790723e+02 1.0000000000000000e+00 1.8165253074425468e+01 1.9683209638741594e+01 6.1577844644588531e+01 
1162 764 2 1.0266587236409688e+00 -1.9169673370316132e+03 1.0000000000000000e+00 1.9383266896088070e+01 1.9749728248328186e+01 5.9756741416852662e+01 
700 302 2 1.0381518679235431e+00 7.1161540785111092e+03 1.0000000000000000e+00 1.9215964534945311e+01 1.9197066037952609e+01 6.1752878130670695e+01 
2007 1609 2 1.0287304646454984e+00 -1.0984938237242084e+04 1.0000000000000000e+00 1.7622099977542266e+01 1.8435905383730287e+01 6.2552129217924993e+01 
1086 688 2 1.0357844204788456e+00 -9.9060107060591836e+03 1.0000000000000000e+00 1.9478064404983943e+01 1.9147731781167973e+01 6.1788585298450101e+01 
1909 1511 2 1.0315610959755677e+00 -2.6377265512675942e+04 1.0000000000000000e+00 1.9148243961151945e+01 1.9255452728229116e+01 5.9997904907858612e+01 
974 576 2 1.0263971816932413e+00 6.4539698137774149e+03 1.0000000000000000e+00 1.9204035361823557e+01 1.9077762246649279e+01 6.2955646910029820e+01 
1614 1216 2 1.0345599926788591e+00 1.3946642824945020e+04 1.0000000000000000e+00 1.9195707811343844e+01 1.9297792673016087e+01 6.0238720414334963e+01 
1685 1287 2 1.0290238116143322e+00 -2.0008640583223348e+03 1.0000000000000000e+00 1.9279713060124958e+01 1.8474474352297079e+01 5.9972482503634623e+01 
889 491 2 1.0349394472005540e+00 9.7607615727083714e+02 1.0000000000000000e+00 1.8773975953758171e+01 1.9028270700877087e+01 6.2882815445585202e+01 
1680 1282 2 1.0290704744448513e+00 -9.0182705774132705e+02 1.0000000000000000e+00 1.9335491203723819e+01 1.8200274616604112e+01 6.1699561354185569e+01 
1413 1015 2 1.0293009770769710e+00 7.9381380534460741e+03 1.0000000000000000e+00 1.9135825573677348e+01 1.9298694158568608e+01 5.9860230044524293e+01 
796 398 2 1.0195318999124876e+00 1.1060115960113984e+04 1.0000000000000000e+00 1.9630794682895718e+01 1.8381025345771945e+01 5.8933593594799397e+01 
508 110 2 1.0309274574265876e+00 -1.4335972182638963e+04 1.0000000000000000e+00 1.8030324591967705e+01 1.8877399591876017e+01 6.4227143987642421e+01 
588 190 2 1.0313996336913975e+00 -1.1777870942296788e+04 1.0000000000000000e+00 1.9123251189371558e+01 1.9692395462922285e+01 6.0743815555331309e+01 
1310 912 2 1.0321284028671012e+00 8.5651805092785835e+03 1.0000000000000000e+00 1.7327688127656803e+01 1.8594014764793435e+01 6.3240776387888545e+01 
831 433 2 1.0281859485646887e+00 -3.4684989669971173e+03 1.0000000000000000e+00 1.8753387346631808e+01 1.8085715800591334e+01 6.2140960217849859e+01 
1778 1380 2 1.0293998860781735e+00 -3.1049942048201838e+03 1.0000000000000000e+00 1.9737147621617201e+01 1.8803049854066423e+01 6.1971012820015744e+01 
1565 1167 2 1.0272628064553939e+00 4.8901103064466480e+02 1.0000000000000000e+00 1.7471772473909390e+01 1.8760994568210233e+01 6.2432903630049452e+01 
1793 1395 2 1.0228779883975301e+00 -3.9894527249905957e+02 1.0000000000000000e+00 1.9964635233183397e+01 1.8582633856255821e+01 6.1927597317119471e+01 
1661 1263 2 1.0344451619967392e+00 -1.3612585750879276e+04 1.0000000000000000e+00 1.9613163555900524e+01 1.8473942222750257e+01 6.1226074470213732e+01 
1285 887 2 1.0282237758752362e+00 1.4363345813635662e+04 1.0000000000000000e+00 1.9759044283517930e+01 1.9888023099958861e+01 5.9659488961281447e+01 
997 599 2 1.0155049562407761e+00 -3.9546896811623055e+03 1.0000000000000000e+00 1.8873762442227342e+01 1.7865312858627416e+01 6.3040066952854687e+01 
1224 826 2 1.0302487800027649e+00 -1.7957108674193476e+03 1.0000000000000000e+00 1.9358655878264752e+01 1.9158211622858111e+01 5.9517532712291747e+01 
2065 1667 2 1.0372608304231479e+00 -1.3776055313958597e+04 1.0000000000000000e+00 1.9514680032169974e+01 1.8738204278866785e+01 6.1460791336686697e+01 
401 3 2 1.0370175960521493e+00 3.4652892813830455e+04 1.0000000000000000e+00 1.7815141894108024e+01 1.9015915794167217e+01 6.3555475635760139e+01 
1091 693 2 1.0265341820786469e+00 -1.1224570169510996e+04 1.0000000000000000e+00 1.9067172527188326e+01 1.9354390650307327e+01 5.9806564517707869e+01 
721 323 2 1.0318124034898410e+00 -7.1962571985136856e+03 1.0000000000000000e+00 1.9811334992357949e+01 1.9337300667257786e+01 6.1567690273329497e+01 
1740 1342 2 1.0346628089181380e+00 -5.2587666105986073e+03 1.0000000000000000e+00 1.9512218179333857e+01 1.8421643599561701e+01 6.1073418751312687e+01 
1018 620 2 1.0302132775216915e+00 3.4846219858231766e+03 1.0000000000000000e+00 1.9013076022232514e+01 1.8176911394550597e+01 6.1705273836709843e+01 
1522 1124 2 1.0242430991251463e+00 3.4364282849519723e+03 1.0000000000000000e+00 1.9939798402467456e+01 1.8287045024745382e+01 6.1495202873910614e+01 
945 547 2 1.0281887981542543e+00 1.7139850184612391e+04 1.0000000000000000e+00 1.9322343654950977e+01 1.8711146755412802e+01 5.9570980260834638e+01 
1335 937 2 1.0346083084282456e+00 -7.8525309860263214e+03 1.0000000000000000e+00 1.8361539439892294e+01 1.9257143014232863e+01 6.1721978365403501e+01 
1103 705 2 1.0222489466142770e+00 -6.2146879357149392e+03 1.0000000000000000e+00 1.9845131469883462e+01 1.8016205887786814e+01 6.1058532811953100e+01 
1185 787 2 1.0228036661030910e+00 3.2756419720987783e+03 1.0000000000000000e+00 1.9257289370398542e+01 1.9892337543577558e+01 5.9932016199595338e+01 
1074 676 2 1.0261892858156778e+00 -9.2758089873165845e+03 1.0000000000000000e+00 1.9693957814940273e+01 1.8914160722088297e+01 6.2278921859607266e+01 
1078 680 2 1.0178315158181683e+00 6.6053811881302090e+03 1.0000000000000000e+00 1.9004541722200145e+01 1.9357182458110000e+01 5.9392705437579323e+01 
1077 679 2 1.0280396827318794e+00 5.4032206180800458e+03 1.0000000000000000e+00 1.9652639798016622e+01 1.9305543106419243e+01 5.8936970096692605e+01 
1783 1385 2 1.0289549150301229e+00 7.8827634096990528e+02 1.0000000000000000e+00 1.8959499509721379e+01 1.9324984068599349e+01 6.0145404942307202e+01 
1053 655 2 1.0224224581394259e+00 1.2726941053515264e+04 1.0000000000000000e+00 1.8966233999350830e+01 1.7898306839808352e+01 6.1759501056312224e+01 
1266 868 2 1.0362597153334256e+00 -6.4133207137357203e+03 1.0000000000000000e+00 1.6054115370261250e+01 1.8936694092195584e+01 6.6376780676381870e+01 
1128 730 2 1.0273458182175776e+00 1.8698901270292456e+04 1.0000000000000000e+00 1.9041088264850103e+01 1.8621113480279231e+01 6.0011585261854961e+01 
1536 1138 2 1.0362814129827596e+00 6.0539808135087869e+03 1.0000000000000000e+00 1.9450436838277376e+01 1.9156901894691245e+01 5.9919482058378762e+01 
1958 1560 2 1.0219091444910364e+00 1.5444482689595352e+03 1.0000000000000000e+00 1.7217895615915289e+01 1.8101472806102205e+01 6.3164204637608435e+01 
1903 1505 2 1.0352393631736281e+00 -9.9232569358925612e+03 1.0000000000000000e+00 1.9356029364598012e+01 1.9489415276299077e+01 6.1532702988664070e+01 
873 475 2 1.0186291033324100e+00 9.7913077377601276e+03 1.0000000000000000e+00 1.9676375735121429e+01 1.9706597097236141e+01 5.8602223287973843e+01 
1937 1539 2 1.0201827000406092e+00 -9.0602612156950509e+03 1.0000000000000000e+00 1.9261159555654196e+01 1.8869403363125564e+01 6.3249069025147904e+01 
1967 1569 2 1.0329757545231084e+00 9.4846960167855541e+03 1.0000000000000000e+00 1.7706394175903984e+01 1.8622453021713699e+01 6.2640919733317489e+01 
430 32 2 1.0175729804978668e+00 -1.2895045658087502e+04 1.0000000000000000e+00 1.9880789065590573e+01 1.8061268839214762e+01 5.9099840796720557e+01 
949 551 2 1.0280300934245064e+00 1.3960320668467259e+04 1.0000000000000000e+00 1.8754225454601372e+01 1.9134340395384466e+01 6.3434309850285153e+01 
709 311 2 1.0259795319150151e+00 -2.0335335519480320e+03 1.0000000000000000e+00 1.8147690619459500e+01 1.8241800372118046e+01 6.1785061078725107e+01 
550 152 2 1.0307351785117209e+00 -1.2199081965006611e+04 1.0000000000000000e+00 1.8740713980918393e+01 1.9006687088619561e+01 6.0545563832496399e+01 
2006 1608 2 1.0166119913677309e+00 -1.0960178156376996e+04 1.0000000000000000e+00 1.7614020803929964e+01 1.7878862348723459e+01 6.2604043897624990e+01 
1485 1087 2 1.0288345998894195e+00 6.4093674677670397e+03 1.0000000000000000e+00 1.9709933191733555e+01 1.9187636886038632e+01 5.8869431572923993e+01 
440 42 2 1.0378987158818052e+00 -8.6586256182591915e+03 1.0000000000000000e+00 1.8031752700008180e+01 1.8728756808165532e+01 6.2962850282763370e+01 
892 494 2 1.0308335815842415e+00 9.2975722784464153e+02 1.0000000000000000e+00 1.8275952760561545e+01 1.9377582603264667e+01 6.1579378209155770e+01 
1560 1162 2 1.0222968168972095e+00 1.2789301258306556e+04 1.0000000000000000e+00 1.8384345951071577e+01 1.8185231034307574e+01 6.3908401937496386e+01 
1671 1273 2 1.0210109811747796e+00 -3.4821158634550948e+03 1.0000000000000000e+00 1.8383460578599539e+01 1.9359807207273313e+01 6.0602902136688620e+01 
1999 1601 2 1.0327715126446477e+00 -1.3228447858538389e+04 1.0000000000000000e+00 1.9267945607943592e+01 1.9162687974649199e+01 6.2365407316142353e+01 
707 309 2 1.0257666067825515e+00 -1.0973788529032649e+03 1.0000000000000000e+00 1.6907316007351401e+01 1.8535426349417193e+01 6.3409210573114109e+01 
1745 1347 2 1.0223117153185064e+00 1.0840997180148617e+04 1.0000000000000000e+00 1.8892050601171579e+01 1.7946149183165424e+01 6.1250571268691090e+01 
1114 716 2 1.0325564047740685e+00 1.5492911015309277e+04 1.0000000000000000e+00 1.7986302170194953e+01 1.8555050379076071e+01 6.2195485576347750e+01 
1349 951 2 1.0339913844694910e+00 -6.9980947230430263e+02 1.0000000000000000e+00 1.8697050045306547e+01 1.9472732213527365e+01 6.2467316308590767e+01 
1195 797 2 1.0233435963087516e+00 8.6342637005874130e+03 1.0000000000000000e+00 1.9694010799753482e+01 1.8751001693059106e+01 6.2413136505292663e+01 
809 411 2 1.0395043709690852e+00 1.1815348948447195e+03 1.0000000000000000e+00 1.9895407151407557e+01 1.9126444361818034e+01 5.9680961232652805e+01 
1520 1122 2 1.0255762777262201e+00 9.4335317423361596e+02 1.0000000000000000e+00 1.9711019394317162e+01 1.8068660096587010e+01 6.0927910923182786e+01 
457 59 2 1.0277582651182213e+00 1.3004713945346002e+04 1.0000000000000000e+00 1.9216113202319935e+01 1.8923225264697940e+01 5.9586593486376970e+01 
1620 1222 2 1.0337562244172585e+00 1.1040570931094986e+04 1.0000000000000000e+00 1.8234740098306986e+01 1.9380518592468878e+01 6.3180554369505558e+01 
1543 1145 2 1.0267843411753859e+00 1.5818824306213928e+04 1.0000000000000000e+00 1.7787527354250816e+01 1.9652975787098541e+01 6.3703882761833441e+01 
628 230 2 1.0279526160893298e+00 1.1912704070472546e+04 1.0000000000000000e+00 1.8778365051605892e+01 1.9824064066378568e+01 6.1978300786103844e+01 
1612 1214 2 1.0301572518706370e+00 5.2651703143121285e+03 1.0000000000000000e+00 1.8936067748762166e+01 1.8257832106696920e+01 6.2417453556591454e+01 
553 155 2 1.0253828371442864e+00 -1.3758258975224249e+04 1.0000000000000000e+00 1.6826012077533921e+01 1.8022843595271457e+01 6.4547823099104306e+01 
1591 1193 2 1.0286620490638694e+00 1.2666452749475932e+03 1.0000000000000000e+00 1.8801759419066737e+01 1.8174053662274208e+01 6.1359246419825830e+01 
672 274 2 1.0225093274173342e+00 -3.9986220230655540e+03 1.0000000000000000e+00 1.9452950360376242e+01 1.9057042153761305e+01 6.2837036523465891e+01 
812 414 2 1.0276050865067727e+00 1.3823038771245449e+03 1.0000000000000000e+00 1.8336114950597874e+01 1.8314858836703429e+01 6.3735844779495586e+01 
1952 1554 2 1.0354115908272870e+00 -8.6537114215830698e+03 1.0000000000000000e+00 1.8137860446751265e+01 1.8981480996612433e+01 6.3617083053525882e+01 
1809 1411 2 1.0295453160282841e+00 1.3280885272950603e+04 1.0000000000000000e+00 1.8448826688049230e+01 1.9647272299482964e+01 6.2850674499953527e+01 
677 279 2 1.0317453021247371e+00 -6.3641653747607479e+03 1.0000000000000000e+00 1.8392345855120293e+01 1.8981119348553111e+01 6.1209352211320720e+01 
1715 1317 2 1.0394972047326450e+00 1.0426877664278058e+04 1.0000000000000000e+00 1.9789470231735326e+01 1.8783644588331992e+01 6.0366983022077747e+01 
1447 1049 2 1.0154125736389776e+00 1.5470425450728564e+04 1.0000000000000000e+00 1.8260303635916308e+01 1.8845185343685120e+01 6.4854317811473194e+01 
855 457 2 1.0351216447559337e+00 4.8466810786674914e+03 1.0000000000000000e+00 1.9529407149599631e+01 1.8970864959451074e+01 5.9673468726968018e+01 
532 134 2 1.0161842132981047e+00 -2.4194853446756601e+03 1.0000000000000000e+00 1.7698934019161310e+01 1.9862295611052502e+01 6.4368980904568033e+01 
943 545 2 1.0309904239657002e+00 1.5428761817942206e+04 1.0000000000000000e+00 1.9445275382503464e+01 1.8603860386559436e+01 6.2157929085182410e+01 
998 600 2 1.0237666748054097e+00 -1.9543692009622382e+03 1.0000000000000000e+00 1.7925297967587198e+01 1.8762331334696071e+01 6.1440410878830718e+01 
874 476 2 1.0237763116263154e+00 1.0559995102343653e+04 1.0000000000000000e+00 1.7302706136307197e+01 1.8468532196840005e+01 6.2639819805989873e+01 
1221 823 2 1.0341582325825953e+00 -1.5170645916350795e+03 1.0000000000000000e+00 1.7129268961844215e+01 1.8840674278049367e+01 6.3799555906902583e+01 
607 209 2 1.0313396970868076e+00 7.9707939744083865e+02 1.0000000000000000e+00 1.8792097426608120e+01 1.9226405579779133e+01 6.0565997382144424e+01 
695 297 2 1.0298853511908606e+00 2.4661610410239100e+03 1.0000000000000000e+00 1.7522874394847843e+01 1.8459500385316538e+01 6.2802024533983953e+01 
1404 1006 2 1.0202407849975343e+00 -6.5200482930833532e+03 1.0000000000000000e+00 1.9427714192167894e+01 1.7976397661008182e+01 6.1967231466511443e+01 
1751 1353 2 1.0320201158579656e+00 3.5513103119533298e+04 1.0000000000000000e+00 1.9972810470694888e+01 1.8351911749878163e+01 5.9828011172192127e+01 
1233 835 2 1.0310288630069309e+00 -6.4480432969128815e+03 1.0000000000000000e+00 1.9399659828333370e+01 1.8254827673693583e+01 6.0727990860912080e+01 