LAMMPS data file via write_data, version 30 Jul 2016, timestep = 50400000

180 atoms
2 atom types

0.0000000000000000e+00 2.0000000000000000e+01 xlo xhi
0.0000000000000000e+00 2.0000000000000000e+01 ylo yhi
0.0000000000000000e+00 2.0000000000000000e+01 zlo zhi

Masses

1 3.896
2 4.31

Atoms # meso-molecular

77 1 2 1.0279998589869035e+00 -2.0882553616459029e+02 1.0000000000000000e+00 5.2545006201962758e+00 1.4779796513857444e+00 1.1329820816892196e+01 
83 1 2 1.0279998589869035e+00 -1.8260787473905776e+02 1.0000000000000000e+00 5.2545006201962758e+00 1.4779796513857444e+00 1.1329820816892196e+01 
89 1 2 1.0279998589869035e+00 -1.9427812388094623e+02 1.0000000000000000e+00 5.2545006201962758e+00 1.4779796513857444e+00 1.1329820816892196e+01 
84 1 2 1.0279998589869035e+00 -1.9521160169747529e+02 1.0000000000000000e+00 5.2545006201962758e+00 1.4779796513857444e+00 1.1329820816892196e+01 
113 1 2 1.0279998589869035e+00 -2.3767143508970341e+02 1.0000000000000000e+00 5.2545006201962758e+00 1.4779796513857444e+00 1.1329820816892196e+01 
119 1 2 1.0279998589869035e+00 -2.4594985941893660e+02 1.0000000000000000e+00 5.2545006201962758e+00 1.4779796513857444e+00 1.1329820816892196e+01 
120 1 2 1.0279998589869035e+00 -2.6228027753119500e+02 1.0000000000000000e+00 5.2545006201962758e+00 1.4779796513857444e+00 1.1329820816892196e+01 
94 1 2 1.0280006392566070e+00 -1.5021807785684032e+02 1.0000000000000000e+00 1.9607451283285821e-01 1.3696229205880998e+01 2.5444478738471892e+00 
135 1 2 1.0280006392566070e+00 -2.3356949899214351e+02 1.0000000000000000e+00 1.9607451283285821e-01 1.3696229205880998e+01 2.5444478738471892e+00 
125 1 2 1.0280006392566070e+00 -2.0667994825023368e+02 1.0000000000000000e+00 1.9607451283285821e-01 1.3696229205880998e+01 2.5444478738471892e+00 
129 1 2 1.0280006392566110e+00 -1.6694054757572167e+02 1.0000000000000000e+00 1.9607451281993579e-01 1.3696229205875424e+01 2.5444478738168184e+00 
143 1 2 1.0280006392566070e+00 -1.3647974759892554e+02 1.0000000000000000e+00 1.9607451283285821e-01 1.3696229205880998e+01 2.5444478738471892e+00 
128 1 2 1.0280006392566070e+00 -1.8833456918535933e+02 1.0000000000000000e+00 1.9607451283285821e-01 1.3696229205880998e+01 2.5444478738471892e+00 
101 1 2 1.0280006392566070e+00 -1.3719194825157876e+02 1.0000000000000000e+00 1.9607451283285821e-01 1.3696229205880998e+01 2.5444478738471892e+00 
34 1 2 1.0280001280862427e+00 -2.1215470508511879e+02 1.0000000000000000e+00 4.9877029849381804e+00 1.3599256443710784e+01 3.1115203984358031e+00 
52 1 2 1.0280001280862427e+00 -2.1636091187711705e+02 1.0000000000000000e+00 4.9877029849381804e+00 1.3599256443710784e+01 3.1115203984358031e+00 
24 1 2 1.0280001280862427e+00 -7.2706696208042402e+01 1.0000000000000000e+00 4.9877029849381804e+00 1.3599256443710784e+01 3.1115203984358031e+00 
28 1 2 1.0280001280862427e+00 -1.7738573649688314e+02 1.0000000000000000e+00 4.9877029849381804e+00 1.3599256443710784e+01 3.1115203984358031e+00 
64 1 2 1.0280001280862427e+00 -2.6593293775949530e+02 1.0000000000000000e+00 4.9877029849381804e+00 1.3599256443710784e+01 3.1115203984358031e+00 
86 1 2 1.0280001280862427e+00 -3.3079720831842064e+02 1.0000000000000000e+00 4.9877029849381778e+00 1.3599256443710793e+01 3.1115203984358177e+00 
71 1 2 1.0280001280862427e+00 -1.7971932619286125e+02 1.0000000000000000e+00 4.9877029849381804e+00 1.3599256443710784e+01 3.1115203984358031e+00 
48 1 2 1.0280001280862425e+00 -1.8014269065093731e+02 1.0000000000000000e+00 3.8868091938302833e+00 1.0894023643514199e+01 4.5744098077096309e+00 
2 1 2 1.0280001280862425e+00 -2.4361235898924653e+02 1.0000000000000000e+00 3.8868091938302833e+00 1.0894023643514199e+01 4.5744098077096309e+00 
1 1 2 1.0280001280862425e+00 -2.7139040967800838e+02 1.0000000000000000e+00 3.8868091938299858e+00 1.0894023643514346e+01 4.5744098077096762e+00 
7 1 2 1.0280001280862425e+00 -2.5708389965176355e+02 1.0000000000000000e+00 3.8868091938304112e+00 1.0894023643514064e+01 4.5744098077094764e+00 
59 1 2 1.0280001280862425e+00 -3.1812255410131826e+02 1.0000000000000000e+00 3.8868091938302833e+00 1.0894023643514199e+01 4.5744098077096309e+00 
29 1 2 1.0280001280862425e+00 -1.7694453948160213e+02 1.0000000000000000e+00 3.8868091938299858e+00 1.0894023643514346e+01 4.5744098077096762e+00 
106 1 2 1.0280001280862425e+00 -9.3912476358976008e+01 1.0000000000000000e+00 3.8868091938299858e+00 1.0894023643514346e+01 4.5744098077096762e+00 
141 1 2 1.0279998589869035e+00 -2.0712614943770075e+02 1.0000000000000000e+00 5.1479862980167290e+00 1.9919606755849234e+01 8.4609439707943359e+00 
140 1 2 1.0279998589869035e+00 -2.6906690553666158e+02 1.0000000000000000e+00 5.1479862980167290e+00 1.9919606755849234e+01 8.4609439707943359e+00 
139 1 2 1.0279998589869035e+00 -1.0336720686564969e+02 1.0000000000000000e+00 5.1479862980167317e+00 1.9919606755849230e+01 8.4609439707943395e+00 
175 1 2 1.0279998589869035e+00 -1.8201039297266632e+02 1.0000000000000000e+00 5.1479862980167317e+00 1.9919606755849230e+01 8.4609439707943377e+00 
105 1 2 1.0279998589869035e+00 -2.1895402139881909e+02 1.0000000000000000e+00 5.1479862980167290e+00 1.9919606755849234e+01 8.4609439707943359e+00 
104 1 2 1.0279998589869035e+00 -1.8519597352061086e+02 1.0000000000000000e+00 5.1479862980167317e+00 1.9919606755849230e+01 8.4609439707943377e+00 
169 1 2 1.0279998589869035e+00 -1.9275778516051034e+02 1.0000000000000000e+00 5.1479862980167290e+00 1.9919606755849234e+01 8.4609439707943359e+00 
151 1 2 1.0279997945295727e+00 -2.8764526998022922e+02 1.0000000000000000e+00 9.0722263381756107e+00 1.7347224197333748e+00 8.5198931378722254e+00 
162 1 2 1.0279997945295727e+00 -1.9205241124128216e+02 1.0000000000000000e+00 9.0722263381756090e+00 1.7347224197333788e+00 8.5198931378722609e+00 
150 1 2 1.0279997945295727e+00 -2.5021063651500904e+02 1.0000000000000000e+00 9.0722263381755965e+00 1.7347224197333637e+00 8.5198931378722307e+00 
168 1 2 1.0279997945295727e+00 -2.3154115467385120e+02 1.0000000000000000e+00 9.0722263381756090e+00 1.7347224197333788e+00 8.5198931378722609e+00 
90 1 2 1.0279997945295727e+00 -1.8396923134073845e+02 1.0000000000000000e+00 9.0722263381756090e+00 1.7347224197333788e+00 8.5198931378722609e+00 
109 1 2 1.0279997945295727e+00 -1.6719975567775870e+02 1.0000000000000000e+00 9.0722263381756090e+00 1.7347224197333788e+00 8.5198931378722609e+00 
174 1 2 1.0279997945295727e+00 -1.7138316127415126e+02 1.0000000000000000e+00 9.0722263381755965e+00 1.7347224197333637e+00 8.5198931378722307e+00 
146 1 2 1.0276814525073528e+00 -2.5404970424740634e+02 1.0000000000000000e+00 1.2510639206872787e+01 2.1129991490466207e-01 7.0463304206819402e+00 
158 1 2 1.0276814525073528e+00 -2.0878196302209273e+02 1.0000000000000000e+00 1.2510639206872627e+01 2.1129991490472852e-01 7.0463304206819339e+00 
116 1 2 1.0276814525073528e+00 -2.2008086555798491e+02 1.0000000000000000e+00 1.2510639206872650e+01 2.1129991490473068e-01 7.0463304206818806e+00 
110 1 2 1.0276814525073528e+00 -2.2069017515097772e+02 1.0000000000000000e+00 1.2510639206872787e+01 2.1129991490466207e-01 7.0463304206819402e+00 
153 1 2 1.0276814525073528e+00 -1.9458322137300809e+02 1.0000000000000000e+00 1.2510639206872787e+01 2.1129991490466207e-01 7.0463304206819402e+00 
159 1 2 1.0276814525073528e+00 -2.1030085781012326e+02 1.0000000000000000e+00 1.2510639206872787e+01 2.1129991490466207e-01 7.0463304206819402e+00 
147 1 2 1.0276814525073528e+00 -2.4611979469417258e+02 1.0000000000000000e+00 1.2510639206872627e+01 2.1129991490472852e-01 7.0463304206819339e+00 
80 1 2 1.0279997945295727e+00 -2.2164854932611073e+02 1.0000000000000000e+00 6.9498021277164570e+00 4.1918728269808829e+00 8.1620384783562638e+00 
43 1 2 1.0279997945295727e+00 -1.6898324010544039e+02 1.0000000000000000e+00 6.9498021277164570e+00 4.1918728269808829e+00 8.1620384783562638e+00 
73 1 2 1.0279997945295727e+00 -2.1328428095230694e+02 1.0000000000000000e+00 6.9498021277164570e+00 4.1918728269808829e+00 8.1620384783562638e+00 
122 1 2 1.0279997945295727e+00 -1.9928194871920223e+02 1.0000000000000000e+00 6.9498021277164570e+00 4.1918728269808829e+00 8.1620384783562638e+00 
79 1 2 1.0279997945295722e+00 -1.8487561897499003e+02 1.0000000000000000e+00 6.9498021277087991e+00 4.1918728269758319e+00 8.1620384783669362e+00 
37 1 2 1.0279997945295727e+00 -2.1391163080983179e+02 1.0000000000000000e+00 6.9498021277164579e+00 4.1918728269808838e+00 8.1620384783562638e+00 
78 1 2 1.0279997945295722e+00 -2.2744996832878664e+02 1.0000000000000000e+00 6.9498021277083391e+00 4.1918728269754562e+00 8.1620384783670765e+00 
36 1 2 1.0280000098291553e+00 -1.1918700947688778e+02 1.0000000000000000e+00 1.2207673438487550e+01 2.5211001115366360e+00 1.4504558046183622e+01 
165 1 2 1.0280000098341389e+00 -1.9024961135427941e+02 1.0000000000000000e+00 1.2207426598372873e+01 2.5209363852659759e+00 1.4504503101448714e+01 
30 1 2 1.0280000098341846e+00 -1.1094815028131191e+02 1.0000000000000000e+00 1.2207425323152629e+01 2.5209355285196362e+00 1.4504502827427261e+01 
26 1 2 1.0280000098330646e+00 -2.1495021623192787e+02 1.0000000000000000e+00 1.2207478722890203e+01 2.5209710330221253e+00 1.4504514623623360e+01 
68 1 2 1.0280000098344668e+00 -1.5145153965387979e+02 1.0000000000000000e+00 1.2207409129001592e+01 2.5209248083572948e+00 1.4504499211889215e+01 
92 1 2 1.0279999843035217e+00 -1.4419427863827264e+02 1.0000000000000000e+00 8.8169433777189052e+00 4.7365402157057908e+00 1.3479599050399667e+01 
82 1 2 1.0279999863270406e+00 -1.7823366874655045e+02 1.0000000000000000e+00 9.1015570542205726e+00 4.4078687464098243e+00 1.3528009125823571e+01 
112 1 2 1.0279999852941029e+00 -2.7732330176485402e+02 1.0000000000000000e+00 8.5982442740439691e+00 4.7797336068510905e+00 1.4012376757289058e+01 
118 1 2 1.0279999852941646e+00 -2.9691017443088469e+02 1.0000000000000000e+00 8.5982439389131127e+00 4.7797355939112736e+00 1.4012376982962197e+01 
111 1 2 1.0279999852941477e+00 -2.1721494887828180e+02 1.0000000000000000e+00 8.5982440962372380e+00 4.7797346611010187e+00 1.4012376877023897e+01 
61 1 2 1.0280000174603736e+00 -1.9441768287924685e+02 1.0000000000000000e+00 9.9593783146161847e+00 5.4889724825304240e+00 1.3999482962694790e+01 
55 1 2 1.0280000174603743e+00 -1.8928428970970543e+02 1.0000000000000000e+00 9.9593783146161634e+00 5.4889724825304391e+00 1.3999482962694790e+01 
31 1 2 1.0280000174603743e+00 -2.2978797968068500e+02 1.0000000000000000e+00 9.9593783146162238e+00 5.4889724825303876e+00 1.3999482962694763e+01 
25 1 2 1.0280000174603734e+00 -1.9977095087044489e+02 1.0000000000000000e+00 9.9593783146161794e+00 5.4889724825304196e+00 1.3999482962694712e+01 
74 1 2 1.0279999975449197e+00 -1.0359113295890745e+02 1.0000000000000000e+00 1.0573045638504073e+01 3.4216911970401536e+00 1.5466829854722459e+01 
38 1 2 1.0279999975273664e+00 -1.1965419899735187e+02 1.0000000000000000e+00 1.0574660992452122e+01 3.4214034645535802e+00 1.5468768760417266e+01 
145 1 2 1.0279999974910070e+00 -2.2973329250875895e+02 1.0000000000000000e+00 1.0578039349058537e+01 3.4207910840387576e+00 1.5472803698031925e+01 
144 1 2 1.0279999901864370e+00 -2.0097163926312973e+02 1.0000000000000000e+00 1.1799073699231496e+01 3.5948965722235875e+00 1.5848514940597378e+01 
88 1 2 1.0279999901812107e+00 -1.6154248935647888e+02 1.0000000000000000e+00 1.1799890514493006e+01 3.5933764795374947e+00 1.5849108895049556e+01 
99 1 2 1.0279999901780630e+00 -2.0441054555845579e+02 1.0000000000000000e+00 1.1800395110756892e+01 3.5924330705959822e+00 1.5849476526678252e+01 
20 1 2 1.0279998999253559e+00 -1.7299893560528110e+02 1.0000000000000000e+00 9.8317034916412567e+00 1.6815962220861977e+01 9.7637293699860717e+00 
107 1 2 1.0279998999253559e+00 -2.1832131806578596e+02 1.0000000000000000e+00 9.8317034916412567e+00 1.6815962220861977e+01 9.7637293699860717e+00 
72 1 2 1.0279998999253559e+00 -2.4051977032689788e+02 1.0000000000000000e+00 9.8317034916412567e+00 1.6815962220861977e+01 9.7637293699860717e+00 
14 1 2 1.0279998999253559e+00 -2.1933679871223566e+02 1.0000000000000000e+00 9.8317034916412567e+00 1.6815962220861977e+01 9.7637293699860717e+00 
108 1 2 1.0279998999253559e+00 -2.5555938223767939e+02 1.0000000000000000e+00 9.8317034916412567e+00 1.6815962220861977e+01 9.7637293699860717e+00 
13 1 2 1.0279998999253559e+00 -1.9590015520051440e+02 1.0000000000000000e+00 9.8317034916412567e+00 1.6815962220861977e+01 9.7637293699860717e+00 
19 1 2 1.0279998999253559e+00 -1.9395929265631926e+02 1.0000000000000000e+00 9.8317034916412567e+00 1.6815962220861977e+01 9.7637293699860717e+00 
114 1 2 1.0279998999253566e+00 -1.9112516383022634e+02 1.0000000000000000e+00 1.0560711550233245e+01 1.5155147832538864e+01 1.2480448750865801e+01 
123 1 2 1.0279998999253566e+00 -2.0037968038777402e+02 1.0000000000000000e+00 1.0560711550233282e+01 1.5155147832538839e+01 1.2480448750865776e+01 
160 1 2 1.0279998999253566e+00 -2.1248564266832850e+02 1.0000000000000000e+00 1.0560711550233243e+01 1.5155147832538857e+01 1.2480448750865797e+01 
50 1 2 1.0279998999253566e+00 -2.9964350119171161e+02 1.0000000000000000e+00 1.0560711550233250e+01 1.5155147832538839e+01 1.2480448750865785e+01 
172 1 2 1.0279998999253566e+00 -2.2435721454487370e+02 1.0000000000000000e+00 1.0560711550233243e+01 1.5155147832538857e+01 1.2480448750865797e+01 
93 1 2 1.0279998999253566e+00 -1.9157978806172039e+02 1.0000000000000000e+00 1.0560711550233243e+01 1.5155147832538857e+01 1.2480448750865797e+01 
95 1 2 1.0279998999253566e+00 -2.0987235779902156e+02 1.0000000000000000e+00 1.0560711550233243e+01 1.5155147832538857e+01 1.2480448750865797e+01 
39 1 2 1.0279922704755908e+00 -2.2178577847056332e+02 1.0000000000000000e+00 1.6777541667247839e+01 6.1551709534747641e+00 1.7703265232370111e+00 
40 1 2 1.0279922704755895e+00 -2.3398072855832572e+02 1.0000000000000000e+00 1.6777541667247768e+01 6.1551709534747445e+00 1.7703265232369756e+00 
4 1 2 1.0279922704755904e+00 -2.2960036963911656e+02 1.0000000000000000e+00 1.6777541667247810e+01 6.1551709534747676e+00 1.7703265232369583e+00 
42 1 2 1.0279922704755882e+00 -1.9508342461713565e+02 1.0000000000000000e+00 1.6777541666848457e+01 6.1551709533854249e+00 1.7703265230280845e+00 
6 1 2 1.0279922704755886e+00 -1.7045506486721985e+02 1.0000000000000000e+00 1.6777541666848624e+01 6.1551709533805061e+00 1.7703265230429726e+00 
3 1 2 1.0279922704755902e+00 -2.4550684504789896e+02 1.0000000000000000e+00 1.6777541667247736e+01 6.1551709534747214e+00 1.7703265232370131e+00 
12 1 2 1.0280029611757178e+00 -1.5947270006183848e+02 1.0000000000000000e+00 1.5212167034471982e+01 7.6384745562107117e+00 2.0711037008658226e+00 
131 1 2 1.0280029613452362e+00 -2.0331143345489610e+02 1.0000000000000000e+00 1.5212168035520982e+01 7.6384710947531422e+00 2.0710991151403726e+00 
117 1 2 1.0280063533493746e+00 -1.6019102289571089e+02 1.0000000000000000e+00 1.5789818245386952e+01 8.4693868887806882e+00 2.5489413515221941e+00 
136 1 2 1.0280063533496058e+00 -1.8128756554728415e+02 1.0000000000000000e+00 1.5789818222817022e+01 8.4693868829261554e+00 2.5489413585978129e+00 
32 1 2 1.0280063533496060e+00 -2.4114137448467204e+02 1.0000000000000000e+00 1.5789818222816914e+01 8.4693868829261287e+00 2.5489413585978395e+00 
103 1 2 1.0280063533496053e+00 -2.0833667694125751e+02 1.0000000000000000e+00 1.5789818222816931e+01 8.4693868829261696e+00 2.5489413585977490e+00 
142 1 2 1.0280063533496058e+00 -8.9427796479887903e+01 1.0000000000000000e+00 1.5789818222816947e+01 8.4693868829261376e+00 2.5489413585978329e+00 
22 1 2 1.0280116839724616e+00 -2.1978199226072823e+02 1.0000000000000000e+00 1.9190157792947605e+01 7.9648230910083182e+00 3.0656397635815242e+00 
87 1 2 1.0280116839724616e+00 -2.4887455308965383e+02 1.0000000000000000e+00 1.9190157792947652e+01 7.9648230910081637e+00 3.0656397635815917e+00 
57 1 2 1.0280116839724616e+00 -1.6823978526885836e+02 1.0000000000000000e+00 1.9190157792947652e+01 7.9648230910081637e+00 3.0656397635815917e+00 
81 1 2 1.0280116839724616e+00 -2.0807314111481682e+02 1.0000000000000000e+00 1.9190157792947634e+01 7.9648230910082383e+00 3.0656397635815424e+00 
134 1 2 1.0280116839724616e+00 -2.2569598176642108e+02 1.0000000000000000e+00 1.9190157792947605e+01 7.9648230910083182e+00 3.0656397635815242e+00 
58 1 2 1.0280116839724616e+00 -2.1338611469181748e+02 1.0000000000000000e+00 1.9190157792947652e+01 7.9648230910081637e+00 3.0656397635815917e+00 
21 1 2 1.0280116839724616e+00 -2.2060382142823394e+02 1.0000000000000000e+00 1.9190157792947652e+01 7.9648230910081637e+00 3.0656397635815917e+00 
171 1 2 1.0282925825658871e+00 -1.8486098286075003e+02 1.0000000000000000e+00 1.3743754549511978e+01 3.1778880845447368e+00 7.6654982736079713e+00 
75 1 2 1.0282925825658873e+00 -2.2728648353699234e+02 1.0000000000000000e+00 1.3743754549511971e+01 3.1778880845447421e+00 7.6654982736079473e+00 
155 1 2 1.0282925825658871e+00 -1.5228584078346077e+02 1.0000000000000000e+00 1.3743754549511978e+01 3.1778880845447368e+00 7.6654982736079713e+00 
170 1 2 1.0282925825658871e+00 -1.5687200459683680e+02 1.0000000000000000e+00 1.3743754549511978e+01 3.1778880845447368e+00 7.6654982736079713e+00 
177 1 2 1.0282925825658871e+00 -1.6999234131296384e+02 1.0000000000000000e+00 1.3743754549511978e+01 3.1778880845447368e+00 7.6654982736079713e+00 
176 1 2 1.0282925825658873e+00 -1.6698738526537153e+02 1.0000000000000000e+00 1.3743754549511971e+01 3.1778880845447421e+00 7.6654982736079473e+00 
156 1 2 1.0282925825658871e+00 -1.6972239126043254e+02 1.0000000000000000e+00 1.3743754549511973e+01 3.1778880845447373e+00 7.6654982736079766e+00 
126 1 2 1.0283048211808936e+00 -2.0845050771180658e+02 1.0000000000000000e+00 1.6137136278164487e+01 9.4921042123114885e-01 9.3384308882805591e+00 
121 1 2 1.0283048211808934e+00 -2.2865895849797724e+02 1.0000000000000000e+00 1.6137136278164494e+01 9.4921042123113097e-01 9.3384308882805573e+00 
157 1 2 1.0283048211808934e+00 -7.3222288475756628e+01 1.0000000000000000e+00 1.6137136278164494e+01 9.4921042123113097e-01 9.3384308882805573e+00 
85 1 2 1.0283048211808934e+00 -2.0346594408785515e+02 1.0000000000000000e+00 1.6137136278164494e+01 9.4921042123113097e-01 9.3384308882805573e+00 
49 1 2 1.0283048211808934e+00 -2.1579797692020568e+02 1.0000000000000000e+00 1.6137136278164494e+01 9.4921042123113097e-01 9.3384308882805573e+00 
163 1 2 1.0283048211808934e+00 -1.6661317772097649e+02 1.0000000000000000e+00 1.6137136278164494e+01 9.4921042123113097e-01 9.3384308882805573e+00 
164 1 2 1.0283048211808936e+00 -1.7313205017860238e+02 1.0000000000000000e+00 1.6137136278164487e+01 9.4921042123114885e-01 9.3384308882805591e+00 
15 1 2 1.0282122487570025e+00 -2.2657140023207964e+02 1.0000000000000000e+00 1.4433225363256989e+01 6.1609775568637204e+00 1.8837687039127886e+01 
9 1 2 1.0282122487570025e+00 -1.5723858119897693e+02 1.0000000000000000e+00 1.4433225363256989e+01 6.1609775568637204e+00 1.8837687039127886e+01 
16 1 2 1.0282122487570025e+00 -2.5023361695292533e+02 1.0000000000000000e+00 1.4433225363256987e+01 6.1609775568637311e+00 1.8837687039127900e+01 
45 1 2 1.0282122487570025e+00 -2.1630375265627447e+02 1.0000000000000000e+00 1.4433225363256989e+01 6.1609775568637204e+00 1.8837687039127886e+01 
44 1 2 1.0282122487570025e+00 -1.7611023514794994e+02 1.0000000000000000e+00 1.4433225363256989e+01 6.1609775568637204e+00 1.8837687039127886e+01 
124 1 2 1.0282122487570025e+00 -2.5437738533438704e+02 1.0000000000000000e+00 1.4433225363256989e+01 6.1609775568637204e+00 1.8837687039127886e+01 
8 1 2 1.0282122487570025e+00 -1.7533692141850310e+02 1.0000000000000000e+00 1.4433225363256987e+01 6.1609775568637311e+00 1.8837687039127900e+01 
27 1 2 1.0277826346761108e+00 -2.7440153943061370e+02 1.0000000000000000e+00 1.6775024503902873e+01 7.9991320744034065e+00 1.7484619119205007e+01 
65 1 2 1.0277826346761108e+00 -2.4443757005333953e+02 1.0000000000000000e+00 1.6775024503902873e+01 7.9991320744034065e+00 1.7484619119205007e+01 
63 1 2 1.0277826346761108e+00 -2.6136685431206371e+02 1.0000000000000000e+00 1.6775024503902873e+01 7.9991320744034065e+00 1.7484619119205007e+01 
130 1 2 1.0277826346761108e+00 -2.1554302765017792e+02 1.0000000000000000e+00 1.6775024503902873e+01 7.9991320744034065e+00 1.7484619119205007e+01 
33 1 2 1.0277826346761108e+00 -2.7769243789512205e+02 1.0000000000000000e+00 1.6775024503902873e+01 7.9991320744034065e+00 1.7484619119205007e+01 
62 1 2 1.0277826346761108e+00 -2.5694235586340767e+02 1.0000000000000000e+00 1.6775024503902873e+01 7.9991320744034065e+00 1.7484619119205007e+01 
69 1 2 1.0277826346761116e+00 -2.4645697481447101e+02 1.0000000000000000e+00 1.6775024503902831e+01 7.9991320744034446e+00 1.7484619119205018e+01 
67 1 2 1.0279846208582777e+00 -2.0223408842609575e+02 1.0000000000000000e+00 1.3366099573066469e+01 1.5253471043718772e+01 2.4040614889044834e-01 
17 1 2 1.0279846208582777e+00 -1.4695477460550990e+02 1.0000000000000000e+00 1.3366099573066514e+01 1.5253471043718779e+01 2.4040614889038830e-01 
53 1 2 1.0279846208582777e+00 -1.9239833742124534e+02 1.0000000000000000e+00 1.3366099573066514e+01 1.5253471043718779e+01 2.4040614889038830e-01 
18 1 2 1.0279846208582777e+00 -1.5052384551939855e+02 1.0000000000000000e+00 1.3366099573066514e+01 1.5253471043718779e+01 2.4040614889038830e-01 
70 1 2 1.0279846208582777e+00 -2.3194986435558934e+02 1.0000000000000000e+00 1.3366099573066492e+01 1.5253471043718775e+01 2.4040614889041664e-01 
35 1 2 1.0279846208582777e+00 -1.9470004253805681e+02 1.0000000000000000e+00 1.3366099573066480e+01 1.5253471043718777e+01 2.4040614889043069e-01 
66 1 2 1.0279846208582777e+00 -2.2974397117596595e+02 1.0000000000000000e+00 1.3366099573066492e+01 1.5253471043718775e+01 2.4040614889041664e-01 
152 1 2 1.0280269452277624e+00 -2.0462997721104048e+02 1.0000000000000000e+00 1.7324083136923761e+01 1.5201588676143260e+01 3.7838013139485793e-01 
60 1 2 1.0280269452276305e+00 -2.0182738376641294e+02 1.0000000000000000e+00 1.7324083136181155e+01 1.5201588675832394e+01 3.7838013420453981e-01 
178 1 2 1.0280269452282751e+00 -1.2713956312395861e+02 1.0000000000000000e+00 1.7324083137118233e+01 1.5201588674423713e+01 3.7838013617746141e-01 
54 1 2 1.0280269452282751e+00 -2.0184628563139586e+02 1.0000000000000000e+00 1.7324083137118233e+01 1.5201588674423713e+01 3.7838013617746141e-01 
23 1 2 1.0280269452277624e+00 -1.5921780325463450e+02 1.0000000000000000e+00 1.7324083136923761e+01 1.5201588676143260e+01 3.7838013139485793e-01 
56 1 2 1.0280269452276305e+00 -1.8716326188186315e+02 1.0000000000000000e+00 1.7324083136181155e+01 1.5201588675832394e+01 3.7838013420453981e-01 
51 1 2 1.0280269452277624e+00 -1.8213384317940489e+02 1.0000000000000000e+00 1.7324083136923761e+01 1.5201588676143260e+01 3.7838013139485793e-01 
10 1 2 1.0279991131785633e+00 -3.3364386966097396e+02 1.0000000000000000e+00 1.4981672873182884e+01 1.7513102426062758e+01 1.9815293045010240e+00 
41 1 2 1.0279991131785633e+00 -1.3585159581830393e+02 1.0000000000000000e+00 1.4981672873182884e+01 1.7513102426062758e+01 1.9815293045010240e+00 
47 1 2 1.0279991131785635e+00 -2.8747924693059542e+02 1.0000000000000000e+00 1.4981672873182886e+01 1.7513102426062755e+01 1.9815293045010243e+00 
11 1 2 1.0279991131785635e+00 -3.2235390809579201e+02 1.0000000000000000e+00 1.4981672873182891e+01 1.7513102426062755e+01 1.9815293045010212e+00 
5 1 2 1.0279991131785633e+00 -2.3941457122548306e+02 1.0000000000000000e+00 1.4981672873182884e+01 1.7513102426062758e+01 1.9815293045010240e+00 
46 1 2 1.0279991131785633e+00 -2.0997906126863430e+02 1.0000000000000000e+00 1.4981672873182884e+01 1.7513102426062758e+01 1.9815293045010240e+00 
98 1 2 1.0279991131785633e+00 -2.2963918998096372e+02 1.0000000000000000e+00 1.4981672873182884e+01 1.7513102426062758e+01 1.9815293045010240e+00 
166 1 2 1.0279944905186065e+00 -2.3156515408822005e+02 1.0000000000000000e+00 1.7255256622794338e+01 1.3225585129809868e+01 3.8864546940448115e+00 
154 1 2 1.0279944905186065e+00 -1.2287063274109960e+02 1.0000000000000000e+00 1.7255256622794338e+01 1.3225585129809868e+01 3.8864546940448115e+00 
161 1 2 1.0279944905186065e+00 -2.1538908139256554e+02 1.0000000000000000e+00 1.7255256622794342e+01 1.3225585129809867e+01 3.8864546940448186e+00 
179 1 2 1.0279944905186065e+00 -2.4962039722911564e+02 1.0000000000000000e+00 1.7255256622794338e+01 1.3225585129809868e+01 3.8864546940448115e+00 
180 1 2 1.0279944905186063e+00 -2.2774272841993854e+02 1.0000000000000000e+00 1.7255256622794338e+01 1.3225585129809867e+01 3.8864546940448133e+00 
137 1 2 1.0279944905186063e+00 -1.8173811695014015e+02 1.0000000000000000e+00 1.7255256622794338e+01 1.3225585129809867e+01 3.8864546940448159e+00 
173 1 2 1.0279944905186065e+00 -2.2575310783548545e+02 1.0000000000000000e+00 1.7255256622794342e+01 1.3225585129809867e+01 3.8864546940448186e+00 
91 1 2 1.0276936911223582e+00 -2.2429229968161223e+02 1.0000000000000000e+00 1.3863418971013902e+01 1.9532494581211548e+01 1.1216297819590926e+01 
96 1 2 1.0276936911223609e+00 -1.6950727183322749e+02 1.0000000000000000e+00 1.3863418971011980e+01 1.9532494581213673e+01 1.1216297819590128e+01 
102 1 2 1.0276936911223613e+00 -1.7299415301854378e+02 1.0000000000000000e+00 1.3863418970974370e+01 1.9532494581243977e+01 1.1216297819567425e+01 
97 1 2 1.0276936911223582e+00 -2.5356451149754969e+02 1.0000000000000000e+00 1.3863418971013902e+01 1.9532494581211548e+01 1.1216297819590926e+01 
132 1 2 1.0276936911223613e+00 -1.5457469775773703e+02 1.0000000000000000e+00 1.3863418970974370e+01 1.9532494581243977e+01 1.1216297819567425e+01 
133 1 2 1.0276936911223582e+00 -1.9783795719423176e+02 1.0000000000000000e+00 1.3863418971013902e+01 1.9532494581211548e+01 1.1216297819590926e+01 
127 1 2 1.0276936911223598e+00 -1.3882484345268239e+02 1.0000000000000000e+00 1.3863418971013138e+01 1.9532494581211896e+01 1.1216297819590213e+01 
149 1 2 1.0280060079310167e+00 -1.1393235437692303e+02 1.0000000000000000e+00 1.5678573166291986e+01 1.2539778610814221e+01 1.9402578900492085e+01 
148 1 2 1.0280060079310156e+00 -1.3106565987803819e+02 1.0000000000000000e+00 1.5678573166291892e+01 1.2539778610814253e+01 1.9402578900492113e+01 
115 1 2 1.0280060079310156e+00 -2.4970766339382314e+02 1.0000000000000000e+00 1.5678573166291880e+01 1.2539778610814245e+01 1.9402578900492145e+01 
138 1 2 1.0280060079310167e+00 -1.5665140277284198e+02 1.0000000000000000e+00 1.5678573166292047e+01 1.2539778610814206e+01 1.9402578900492045e+01 
100 1 2 1.0280060079310167e+00 -1.6373352773433029e+02 1.0000000000000000e+00 1.5678573166292047e+01 1.2539778610814206e+01 1.9402578900492045e+01 
167 1 2 1.0280060079310156e+00 -1.9370597687644064e+02 1.0000000000000000e+00 1.5678573166291880e+01 1.2539778610814245e+01 1.9402578900492145e+01 
76 1 2 1.0280060079310156e+00 -3.0248250057427379e+02 1.0000000000000000e+00 1.5678573166291892e+01 1.2539778610814253e+01 1.9402578900492113e+01 

Velocities

77 -2.1575713276291385e-02 3.2725260328179528e-01 2.0961268762196220e-01
83 -2.1575713276291385e-02 3.2725260328179528e-01 2.0961268762196220e-01
89 -2.1575713276291385e-02 3.2725260328179528e-01 2.0961268762196220e-01
84 -2.1575713276291385e-02 3.2725260328179528e-01 2.0961268762196220e-01
113 -2.1575713276291385e-02 3.2725260328179528e-01 2.0961268762196220e-01
119 -2.1575713276291385e-02 3.2725260328179528e-01 2.0961268762196220e-01
120 -2.1575713276291385e-02 3.2725260328179528e-01 2.0961268762196220e-01
94 -1.5159714334240950e-02 3.1110982340998450e-01 1.8793173096937074e-01
135 -1.5159714334240950e-02 3.1110982340998450e-01 1.8793173096937074e-01
125 -1.5159714334240950e-02 3.1110982340998450e-01 1.8793173096937074e-01
129 -1.5159714334210711e-02 3.1110982340998061e-01 1.8793173096929885e-01
143 -1.5159714334240950e-02 3.1110982340998450e-01 1.8793173096937074e-01
128 -1.5159714334240950e-02 3.1110982340998450e-01 1.8793173096937074e-01
101 -1.5159714334240950e-02 3.1110982340998450e-01 1.8793173096937074e-01
34 -3.8262755158040397e-03 3.5418238017625064e-01 1.8168688718916845e-01
52 -3.8262755158040397e-03 3.5418238017625064e-01 1.8168688718916845e-01
24 -3.8262755158040397e-03 3.5418238017625064e-01 1.8168688718916845e-01
28 -3.8262755158040397e-03 3.5418238017625064e-01 1.8168688718916845e-01
64 -3.8262755158040397e-03 3.5418238017625064e-01 1.8168688718916845e-01
86 -3.8262755158039825e-03 3.5418238017625081e-01 1.8168688718916839e-01
71 -3.8262755158040397e-03 3.5418238017625064e-01 1.8168688718916845e-01
48 -4.3604757915504154e-03 3.5435514152899589e-01 1.8158799002918016e-01
2 -4.3604757915504154e-03 3.5435514152899589e-01 1.8158799002918016e-01
1 -4.3604757915509341e-03 3.5435514152899406e-01 1.8158799002918080e-01
7 -4.3604757915505230e-03 3.5435514152899567e-01 1.8158799002918016e-01
59 -4.3604757915504154e-03 3.5435514152899589e-01 1.8158799002918016e-01
29 -4.3604757915509341e-03 3.5435514152899406e-01 1.8158799002918080e-01
106 -4.3604757915509341e-03 3.5435514152899406e-01 1.8158799002918080e-01
141 -2.0393651202600130e-02 3.2842267390724877e-01 2.0893144409596126e-01
140 -2.0393651202600130e-02 3.2842267390724877e-01 2.0893144409596126e-01
139 -2.0393651202600106e-02 3.2842267390724916e-01 2.0893144409596182e-01
175 -2.0393651202600116e-02 3.2842267390724883e-01 2.0893144409596134e-01
105 -2.0393651202600130e-02 3.2842267390724877e-01 2.0893144409596126e-01
104 -2.0393651202600116e-02 3.2842267390724883e-01 2.0893144409596134e-01
169 -2.0393651202600130e-02 3.2842267390724877e-01 2.0893144409596126e-01
151 -7.7085083452359503e-03 3.0831613449234141e-01 2.0354125666272987e-01
162 -7.7085083452357490e-03 3.0831613449234097e-01 2.0354125666273001e-01
150 -7.7085083452356797e-03 3.0831613449234097e-01 2.0354125666273001e-01
168 -7.7085083452357490e-03 3.0831613449234097e-01 2.0354125666273001e-01
90 -7.7085083452357490e-03 3.0831613449234097e-01 2.0354125666273001e-01
109 -7.7085083452357490e-03 3.0831613449234097e-01 2.0354125666273001e-01
174 -7.7085083452356797e-03 3.0831613449234097e-01 2.0354125666273001e-01