LAMMPS data file via write_data, version 30 Jul 2016, timestep = 50000000

180 atoms
2 atom types

0.0000000000000000e+00 2.0000000000000000e+01 xlo xhi
0.0000000000000000e+00 2.0000000000000000e+01 ylo yhi
0.0000000000000000e+00 2.0000000000000000e+01 zlo zhi

Masses

1 3.896
2 4.31

Atoms # meso-molecular

141 1 2 1.0279995870096998e+00 -2.0712616430223125e+02 1.0000000000000000e+00 5.9435935602867600e+00 6.7641486177614230e+00 1.1691202085335546e-01 
169 1 2 1.0279995870096998e+00 -1.9275780002504084e+02 1.0000000000000000e+00 5.9435935602867600e+00 6.7641486177614230e+00 1.1691202085335546e-01 
104 1 2 1.0279995870096998e+00 -1.8519598838514136e+02 1.0000000000000000e+00 5.9435935602867627e+00 6.7641486177614230e+00 1.1691202085335554e-01 
105 1 2 1.0279995870096998e+00 -2.1895403626334959e+02 1.0000000000000000e+00 5.9435935602867600e+00 6.7641486177614230e+00 1.1691202085335546e-01 
175 1 2 1.0279995870096998e+00 -1.8201040783719682e+02 1.0000000000000000e+00 5.9435935602867627e+00 6.7641486177614230e+00 1.1691202085335554e-01 
139 1 2 1.0279995870096998e+00 -1.0336722173018035e+02 1.0000000000000000e+00 5.9435935602867627e+00 6.7641486177614230e+00 1.1691202085335556e-01 
140 1 2 1.0279995870096998e+00 -2.6906692040119310e+02 1.0000000000000000e+00 5.9435935602867600e+00 6.7641486177614230e+00 1.1691202085335546e-01 
77 1 2 1.0279995870097001e+00 -2.0882555102912079e+02 1.0000000000000000e+00 6.1375708428916989e+00 8.4079435764476926e+00 2.9330557806751245e+00 
120 1 2 1.0279995870097001e+00 -2.6228029239572652e+02 1.0000000000000000e+00 6.1375708428916989e+00 8.4079435764476926e+00 2.9330557806751245e+00 
119 1 2 1.0279995870097001e+00 -2.4594987428346710e+02 1.0000000000000000e+00 6.1375708428916989e+00 8.4079435764476926e+00 2.9330557806751245e+00 
113 1 2 1.0279995870097001e+00 -2.3767144995423391e+02 1.0000000000000000e+00 6.1375708428916989e+00 8.4079435764476926e+00 2.9330557806751245e+00 
84 1 2 1.0279995870097001e+00 -1.9521161656200579e+02 1.0000000000000000e+00 6.1375708428916989e+00 8.4079435764476926e+00 2.9330557806751245e+00 
89 1 2 1.0279995870097001e+00 -1.9427813874547672e+02 1.0000000000000000e+00 6.1375708428916989e+00 8.4079435764476926e+00 2.9330557806751245e+00 
83 1 2 1.0279995870097001e+00 -1.8260788960358826e+02 1.0000000000000000e+00 6.1375708428916989e+00 8.4079435764476926e+00 2.9330557806751245e+00 
94 1 2 1.0280443341158867e+00 -1.5021824345792294e+02 1.0000000000000000e+00 9.0214968450659161e-01 1.2064733954107671e+00 1.5133222441205307e+01 
101 1 2 1.0280443341158867e+00 -1.3719211385266138e+02 1.0000000000000000e+00 9.0214968450659161e-01 1.2064733954107671e+00 1.5133222441205307e+01 
128 1 2 1.0280443341158867e+00 -1.8833473478644194e+02 1.0000000000000000e+00 9.0214968450659161e-01 1.2064733954107671e+00 1.5133222441205307e+01 
143 1 2 1.0280443341158867e+00 -1.3647991320000816e+02 1.0000000000000000e+00 9.0214968450659161e-01 1.2064733954107671e+00 1.5133222441205307e+01 
129 1 2 1.0280443341158889e+00 -1.6694071317680428e+02 1.0000000000000000e+00 9.0214968450415345e-01 1.2064733954101412e+00 1.5133222441200703e+01 
125 1 2 1.0280443341158867e+00 -2.0668011385131629e+02 1.0000000000000000e+00 9.0214968450659161e-01 1.2064733954107671e+00 1.5133222441205307e+01 
135 1 2 1.0280443341158867e+00 -2.3356966459322612e+02 1.0000000000000000e+00 9.0214968450659161e-01 1.2064733954107671e+00 1.5133222441205307e+01 
86 1 2 1.0280005195108639e+00 -3.3079720981366222e+02 1.0000000000000000e+00 5.1315027735530334e+00 1.9435384339019997e+01 1.5842963949486363e+01 
64 1 2 1.0280005195108639e+00 -2.6593293925473688e+02 1.0000000000000000e+00 5.1315027735530361e+00 1.9435384339019990e+01 1.5842963949486350e+01 
28 1 2 1.0280005195108639e+00 -1.7738573799213802e+02 1.0000000000000000e+00 5.1315027735530361e+00 1.9435384339019990e+01 1.5842963949486350e+01 
24 1 2 1.0280005195108639e+00 -7.2706697703255387e+01 1.0000000000000000e+00 5.1315027735530361e+00 1.9435384339019990e+01 1.5842963949486350e+01 
52 1 2 1.0280005195108639e+00 -2.1636091337237193e+02 1.0000000000000000e+00 5.1315027735530361e+00 1.9435384339019990e+01 1.5842963949486350e+01 
34 1 2 1.0280005195108639e+00 -2.1215470658037367e+02 1.0000000000000000e+00 5.1315027735530361e+00 1.9435384339019990e+01 1.5842963949486350e+01 
71 1 2 1.0280005195108639e+00 -1.7971932768811612e+02 1.0000000000000000e+00 5.1315027735530361e+00 1.9435384339019990e+01 1.5842963949486350e+01 
1 1 2 1.0280005195108644e+00 -2.7139041117324996e+02 1.0000000000000000e+00 4.0704605178373932e+00 1.6718034048896641e+01 1.7312811587610629e+01 
7 1 2 1.0280005195108644e+00 -2.5708390114700512e+02 1.0000000000000000e+00 4.0704605178378195e+00 1.6718034048896364e+01 1.7312811587610422e+01 
59 1 2 1.0280005195108644e+00 -3.1812255559655983e+02 1.0000000000000000e+00 4.0704605178376871e+00 1.6718034048896499e+01 1.7312811587610579e+01 
29 1 2 1.0280005195108644e+00 -1.7694454097685701e+02 1.0000000000000000e+00 4.0704605178373932e+00 1.6718034048896641e+01 1.7312811587610629e+01 
106 1 2 1.0280005195108644e+00 -9.3912477854188992e+01 1.0000000000000000e+00 4.0704605178373932e+00 1.6718034048896641e+01 1.7312811587610629e+01 
48 1 2 1.0280005195108644e+00 -1.8014269214619219e+02 1.0000000000000000e+00 4.0704605178376871e+00 1.6718034048896499e+01 1.7312811587610579e+01 
2 1 2 1.0280005195108644e+00 -2.4361236048450141e+02 1.0000000000000000e+00 4.0704605178376871e+00 1.6718034048896499e+01 1.7312811587610579e+01 
20 1 2 1.0279996769240878e+00 -1.7299893565608676e+02 1.0000000000000000e+00 1.0385033843706507e+01 4.2786576086824812e+00 1.1206057892807284e+00 
107 1 2 1.0279996769240878e+00 -2.1832131811659161e+02 1.0000000000000000e+00 1.0385033843706507e+01 4.2786576086824812e+00 1.1206057892807284e+00 
72 1 2 1.0279996769240878e+00 -2.4051977037770354e+02 1.0000000000000000e+00 1.0385033843706507e+01 4.2786576086824812e+00 1.1206057892807284e+00 
14 1 2 1.0279996769240878e+00 -2.1933679876304132e+02 1.0000000000000000e+00 1.0385033843706507e+01 4.2786576086824812e+00 1.1206057892807284e+00 
108 1 2 1.0279996769240878e+00 -2.5555938228848504e+02 1.0000000000000000e+00 1.0385033843706507e+01 4.2786576086824812e+00 1.1206057892807284e+00 
13 1 2 1.0279996769240878e+00 -1.9590015525132006e+02 1.0000000000000000e+00 1.0385033843706507e+01 4.2786576086824812e+00 1.1206057892807284e+00 
19 1 2 1.0279996769240878e+00 -1.9395929270712492e+02 1.0000000000000000e+00 1.0385033843706507e+01 4.2786576086824812e+00 1.1206057892807284e+00 
151 1 2 1.0279998238766026e+00 -2.8764527902902290e+02 1.0000000000000000e+00 9.3654886136576323e+00 9.3931876235956437e+00 3.9460211016706587e-01 
174 1 2 1.0279998238766026e+00 -1.7138317032292045e+02 1.0000000000000000e+00 9.3654886136576216e+00 9.3931876235956366e+00 3.9460211016707303e-01 
109 1 2 1.0279998238766026e+00 -1.6719976472652789e+02 1.0000000000000000e+00 9.3654886136576270e+00 9.3931876235956455e+00 3.9460211016710500e-01 
90 1 2 1.0279998238766026e+00 -1.8396924038950763e+02 1.0000000000000000e+00 9.3654886136576270e+00 9.3931876235956455e+00 3.9460211016710500e-01 
168 1 2 1.0279998238766026e+00 -2.3154116372262038e+02 1.0000000000000000e+00 9.3654886136576270e+00 9.3931876235956455e+00 3.9460211016710500e-01 
150 1 2 1.0279998238766026e+00 -2.5021064556377823e+02 1.0000000000000000e+00 9.3654886136576216e+00 9.3931876235956366e+00 3.9460211016707303e-01 
162 1 2 1.0279998238766026e+00 -1.9205242029005134e+02 1.0000000000000000e+00 9.3654886136576270e+00 9.3931876235956455e+00 3.9460211016710500e-01 
93 1 2 1.0279996769240880e+00 -1.9157978811252605e+02 1.0000000000000000e+00 1.1117332060632675e+01 2.6242102239018221e+00 3.8403278924372337e+00 
172 1 2 1.0279996769240880e+00 -2.2435721459567935e+02 1.0000000000000000e+00 1.1117332060632675e+01 2.6242102239018221e+00 3.8403278924372337e+00 
50 1 2 1.0279996769240878e+00 -2.9964350124144943e+02 1.0000000000000000e+00 1.1117332060632679e+01 2.6242102239018053e+00 3.8403278924372231e+00 
114 1 2 1.0279996769240880e+00 -1.9112516388103199e+02 1.0000000000000000e+00 1.1117332060632677e+01 2.6242102239018332e+00 3.8403278924372404e+00 
123 1 2 1.0279996769240880e+00 -2.0037968043857967e+02 1.0000000000000000e+00 1.1117332060632712e+01 2.6242102239018053e+00 3.8403278924372137e+00 
160 1 2 1.0279996769240880e+00 -2.1248564271913415e+02 1.0000000000000000e+00 1.1117332060632675e+01 2.6242102239018221e+00 3.8403278924372337e+00 
95 1 2 1.0279996769240880e+00 -2.0987235784982721e+02 1.0000000000000000e+00 1.1117332060632675e+01 2.6242102239018221e+00 3.8403278924372337e+00 
30 1 2 1.0280000471013306e+00 -1.1094815028131191e+02 1.0000000000000000e+00 1.2823725970468443e+01 9.9821973239742636e+00 5.9070274695530616e+00 
165 1 2 1.0280000471012374e+00 -1.9024961135427941e+02 1.0000000000000000e+00 1.2823727245446690e+01 9.9821981803391857e+00 5.9070277433534777e+00 
36 1 2 1.0280000470771347e+00 -1.1918700947688778e+02 1.0000000000000000e+00 1.2823974038658811e+01 9.9823618332698043e+00 5.9070826449022533e+00 
26 1 2 1.0280000470961193e+00 -2.1495021623192787e+02 1.0000000000000000e+00 1.2823779360057991e+01 9.9822328125878972e+00 5.9070392564291199e+00 
68 1 2 1.0280000471029471e+00 -1.5145153965387979e+02 1.0000000000000000e+00 1.2823709779399334e+01 9.9821866086186759e+00 5.9070238568503770e+00 
146 1 2 1.0280000619089522e+00 -2.5404970904249609e+02 1.0000000000000000e+00 1.2981184595091539e+01 7.9866025301293355e+00 1.8238644844350457e+01 
147 1 2 1.0280000619089522e+00 -2.4611979948926233e+02 1.0000000000000000e+00 1.2981184595091232e+01 7.9866025301294670e+00 1.8238644844350457e+01 
159 1 2 1.0280000619089522e+00 -2.1030086260521301e+02 1.0000000000000000e+00 1.2981184595091539e+01 7.9866025301293355e+00 1.8238644844350457e+01 
153 1 2 1.0280000619089522e+00 -1.9458322616809784e+02 1.0000000000000000e+00 1.2981184595091539e+01 7.9866025301293355e+00 1.8238644844350457e+01 
110 1 2 1.0280000619089522e+00 -2.2069017994606747e+02 1.0000000000000000e+00 1.2981184595091539e+01 7.9866025301293355e+00 1.8238644844350457e+01 
116 1 2 1.0280000619089522e+00 -2.2008087035307466e+02 1.0000000000000000e+00 1.2981184595091277e+01 7.9866025301294705e+00 1.8238644844350354e+01 
158 1 2 1.0280000619089522e+00 -2.0878196781718248e+02 1.0000000000000000e+00 1.2981184595091232e+01 7.9866025301294670e+00 1.8238644844350457e+01 
118 1 2 1.0279999281528680e+00 -2.9691017443088469e+02 1.0000000000000000e+00 9.2151381585583785e+00 1.2242285510551048e+01 5.4154903422353300e+00 
111 1 2 1.0279999281527501e+00 -2.1721494887828180e+02 1.0000000000000000e+00 9.2151383157222284e+00 1.2242284577344623e+01 5.4154902362371091e+00 
112 1 2 1.0279999281526622e+00 -2.7732330176485402e+02 1.0000000000000000e+00 9.2151384933478511e+00 1.2242283522647870e+01 5.4154901164344569e+00 
92 1 2 1.0279999238736328e+00 -1.4419427863827264e+02 1.0000000000000000e+00 9.4339236696666440e+00 1.2199078062404459e+01 4.8825252105905266e+00 
82 1 2 1.0279999339134005e+00 -1.7823366874655045e+02 1.0000000000000000e+00 9.7186064593642278e+00 1.1870274342097748e+01 4.9309376843813570e+00 
31 1 2 1.0280000850778281e+00 -2.2978797968068500e+02 1.0000000000000000e+00 1.0576312793445618e+01 1.2951280986637892e+01 5.4025670752563570e+00 
25 1 2 1.0280000850778273e+00 -1.9977095087044489e+02 1.0000000000000000e+00 1.0576312793445574e+01 1.2951280986637927e+01 5.4025670752563144e+00 
61 1 2 1.0280000850778266e+00 -1.9441768287924685e+02 1.0000000000000000e+00 1.0576312793445572e+01 1.2951280986637938e+01 5.4025670752563890e+00 
55 1 2 1.0280000850778299e+00 -1.8928428970970543e+02 1.0000000000000000e+00 1.0576312793445563e+01 1.2951280986637933e+01 5.4025670752563677e+00 
74 1 2 1.0279999878368875e+00 -1.0359113296317457e+02 1.0000000000000000e+00 1.1189596397442335e+01 1.0883219844157580e+01 6.8694235211829762e+00 
38 1 2 1.0279999877541768e+00 -1.1965419900160256e+02 1.0000000000000000e+00 1.1191211313746495e+01 1.0882931487327685e+01 6.8713622976418511e+00 
145 1 2 1.0279999875828565e+00 -2.2973329251193738e+02 1.0000000000000000e+00 1.1194588761148436e+01 1.0882317803932715e+01 6.8753969665770365e+00 
144 1 2 1.0279999528948722e+00 -2.0097163926312973e+02 1.0000000000000000e+00 1.2415588095613789e+01 1.1056255108327230e+01 7.2510783143397690e+00 
88 1 2 1.0279999528698585e+00 -1.6154248935647888e+02 1.0000000000000000e+00 1.2416404977570679e+01 1.1054734496053825e+01 7.2516723603681346e+00 
99 1 2 1.0279999528546890e+00 -2.0441054555845579e+02 1.0000000000000000e+00 1.2416909614874864e+01 1.1053790764686982e+01 7.2520400483899206e+00 
80 1 2 1.0279998238766026e+00 -2.2164855837487991e+02 1.0000000000000000e+00 7.3072950978914308e+00 1.1893531185472185e+01 1.9967459264801249e+01 
78 1 2 1.0279998238766026e+00 -2.2744997737755583e+02 1.0000000000000000e+00 7.3072950978830304e+00 1.1893531185467118e+01 1.9967459264812014e+01 
37 1 2 1.0279998238766026e+00 -2.1391163985860098e+02 1.0000000000000000e+00 7.3072950978914308e+00 1.1893531185472185e+01 1.9967459264801249e+01 
79 1 2 1.0279998238766026e+00 -1.8487562802375922e+02 1.0000000000000000e+00 7.3072950978834967e+00 1.1893531185467477e+01 1.9967459264811875e+01 
122 1 2 1.0279998238766026e+00 -1.9928195776797142e+02 1.0000000000000000e+00 7.3072950978914308e+00 1.1893531185472185e+01 1.9967459264801249e+01 
73 1 2 1.0279998238766026e+00 -2.1328429000107613e+02 1.0000000000000000e+00 7.3072950978914308e+00 1.1893531185472185e+01 1.9967459264801249e+01 
43 1 2 1.0279998238766026e+00 -1.6898324915420957e+02 1.0000000000000000e+00 7.3072950978914308e+00 1.1893531185472185e+01 1.9967459264801249e+01 
96 1 2 1.0279995199248488e+00 -1.6950727550306556e+02 1.0000000000000000e+00 1.4128054670994382e+01 6.7326199831247280e+00 3.1207770118718758e+00 
102 1 2 1.0279995199248495e+00 -1.7299415668838185e+02 1.0000000000000000e+00 1.4128054670915636e+01 6.7326199831873712e+00 3.1207770118254361e+00 
97 1 2 1.0279995199248488e+00 -2.5356451516738775e+02 1.0000000000000000e+00 1.4128054670998472e+01 6.7326199831203137e+00 3.1207770118734093e+00 
132 1 2 1.0279995199248495e+00 -1.5457470142757509e+02 1.0000000000000000e+00 1.4128054670915636e+01 6.7326199831873712e+00 3.1207770118254361e+00 
133 1 2 1.0279995199248488e+00 -1.9783796086406983e+02 1.0000000000000000e+00 1.4128054670998472e+01 6.7326199831203137e+00 3.1207770118734093e+00 
127 1 2 1.0279995199248488e+00 -1.3882484712252045e+02 1.0000000000000000e+00 1.4128054670996837e+01 6.7326199831210278e+00 3.1207770118720024e+00 
91 1 2 1.0279995199248488e+00 -2.2429230335145030e+02 1.0000000000000000e+00 1.4128054670998472e+01 6.7326199831203137e+00 3.1207770118734093e+00 
126 1 2 1.0279995199248493e+00 -2.0845065326292621e+02 1.0000000000000000e+00 1.6377876591500950e+01 8.1605195138474951e+00 1.2313945358221685e+00 
164 1 2 1.0279995199248493e+00 -1.7313219572972201e+02 1.0000000000000000e+00 1.6377876591500950e+01 8.1605195138474951e+00 1.2313945358221685e+00 
163 1 2 1.0279995199248493e+00 -1.6661332327209612e+02 1.0000000000000000e+00 1.6377876591500954e+01 8.1605195138474897e+00 1.2313945358221681e+00 
49 1 2 1.0279995199248493e+00 -2.1579812247132531e+02 1.0000000000000000e+00 1.6377876591500954e+01 8.1605195138474897e+00 1.2313945358221681e+00 
85 1 2 1.0279995199248493e+00 -2.0346608963897478e+02 1.0000000000000000e+00 1.6377876591500954e+01 8.1605195138474897e+00 1.2313945358221681e+00 
157 1 2 1.0279995199248493e+00 -7.3222434026859062e+01 1.0000000000000000e+00 1.6377876591500954e+01 8.1605195138474897e+00 1.2313945358221681e+00 
121 1 2 1.0279995199248493e+00 -2.2865910404909687e+02 1.0000000000000000e+00 1.6377876591500954e+01 8.1605195138474897e+00 1.2313945358221681e+00 
67 1 2 1.0281169381844979e+00 -2.0223418212695478e+02 1.0000000000000000e+00 1.3996505994735109e+01 2.3767351944718595e+00 1.2146205832824633e+01 
66 1 2 1.0281169381844979e+00 -2.2974406487682498e+02 1.0000000000000000e+00 1.3996505994735113e+01 2.3767351944718595e+00 1.2146205832824627e+01 
35 1 2 1.0281169381844981e+00 -1.9470013623891583e+02 1.0000000000000000e+00 1.3996505994735111e+01 2.3767351944718631e+00 1.2146205832824629e+01 
70 1 2 1.0281169381844979e+00 -2.3194995805644837e+02 1.0000000000000000e+00 1.3996505994735113e+01 2.3767351944718595e+00 1.2146205832824627e+01 
18 1 2 1.0281169381844975e+00 -1.5052393922025757e+02 1.0000000000000000e+00 1.3996505994735118e+01 2.3767351944718631e+00 1.2146205832824613e+01 
53 1 2 1.0281169381844975e+00 -1.9239843112210437e+02 1.0000000000000000e+00 1.3996505994735118e+01 2.3767351944718631e+00 1.2146205832824613e+01 
17 1 2 1.0281169381844975e+00 -1.4695486830636892e+02 1.0000000000000000e+00 1.3996505994735118e+01 2.3767351944718631e+00 1.2146205832824613e+01 
51 1 2 1.0279484764971694e+00 -1.8213404509844781e+02 1.0000000000000000e+00 1.8140560705917007e+01 2.2694362983794369e+00 1.2743752862649636e+01 
56 1 2 1.0279484764968987e+00 -1.8716346380090636e+02 1.0000000000000000e+00 1.8140560705803576e+01 2.2694362982992025e+00 1.2743752863487872e+01 
23 1 2 1.0279484764971694e+00 -1.5921800517367743e+02 1.0000000000000000e+00 1.8140560705917007e+01 2.2694362983794369e+00 1.2743752862649636e+01 
54 1 2 1.0279484764978868e+00 -2.0184648755043997e+02 1.0000000000000000e+00 1.8140560705920258e+01 2.2694362977004485e+00 1.2743752864107847e+01 
178 1 2 1.0279484764978868e+00 -1.2713976504300206e+02 1.0000000000000000e+00 1.8140560705920258e+01 2.2694362977004485e+00 1.2743752864107847e+01 
60 1 2 1.0279484764968987e+00 -2.0182758568545614e+02 1.0000000000000000e+00 1.8140560705803576e+01 2.2694362982992025e+00 1.2743752863487872e+01 
152 1 2 1.0279484764971694e+00 -2.0463017913008341e+02 1.0000000000000000e+00 1.8140560705917007e+01 2.2694362983794369e+00 1.2743752862649636e+01 
41 1 2 1.0279353902259920e+00 -1.3585162272732211e+02 1.0000000000000000e+00 1.5790101900734511e+01 4.5097427659839200e+00 1.3979166407165605e+01 
10 1 2 1.0279353902259918e+00 -3.3364389656997213e+02 1.0000000000000000e+00 1.5790101900734502e+01 4.5097427659839253e+00 1.3979166407165604e+01 
98 1 2 1.0279353902259918e+00 -2.2963921688998190e+02 1.0000000000000000e+00 1.5790101900734502e+01 4.5097427659839253e+00 1.3979166407165604e+01 
46 1 2 1.0279353902259918e+00 -2.0997908817765247e+02 1.0000000000000000e+00 1.5790101900734502e+01 4.5097427659839253e+00 1.3979166407165604e+01 
5 1 2 1.0279353902259920e+00 -2.3941459813450123e+02 1.0000000000000000e+00 1.5790101900734511e+01 4.5097427659839200e+00 1.3979166407165605e+01 
11 1 2 1.0279353902259918e+00 -3.2235393500479017e+02 1.0000000000000000e+00 1.5790101900734525e+01 4.5097427659839324e+00 1.3979166407165588e+01 
47 1 2 1.0279353902259920e+00 -2.8747927383959359e+02 1.0000000000000000e+00 1.5790101900734518e+01 4.5097427659839218e+00 1.3979166407165600e+01 
166 1 2 1.0279584878976094e+00 -2.3156526647481007e+02 1.0000000000000000e+00 1.8123307108044187e+01 6.2012837147077982e-01 1.6748454167589749e+01 
173 1 2 1.0279584878976094e+00 -2.2575322022207547e+02 1.0000000000000000e+00 1.8123307108044184e+01 6.2012837147077304e-01 1.6748454167589738e+01 
137 1 2 1.0279584878976094e+00 -1.8173822933673017e+02 1.0000000000000000e+00 1.8123307108044187e+01 6.2012837147078370e-01 1.6748454167589749e+01 
180 1 2 1.0279584878976094e+00 -2.2774284080652856e+02 1.0000000000000000e+00 1.8123307108044177e+01 6.2012837147078359e-01 1.6748454167589735e+01 
179 1 2 1.0279584878976094e+00 -2.4962050961570566e+02 1.0000000000000000e+00 1.8123307108044187e+01 6.2012837147077993e-01 1.6748454167589749e+01 
161 1 2 1.0279584878976094e+00 -2.1538919377915556e+02 1.0000000000000000e+00 1.8123307108044184e+01 6.2012837147077304e-01 1.6748454167589738e+01 
154 1 2 1.0279584878976094e+00 -1.2287074512762653e+02 1.0000000000000000e+00 1.8123307108044187e+01 6.2012837147077993e-01 1.6748454167589749e+01 
27 1 2 1.0279984844911263e+00 -2.7440159270562884e+02 1.0000000000000000e+00 1.7311621003330430e+01 1.4656140492798713e+01 9.6321216334335809e+00 
69 1 2 1.0279984844911263e+00 -2.4645702808946598e+02 1.0000000000000000e+00 1.7311621003329964e+01 1.4656140492799487e+01 9.6321216334338988e+00 
62 1 2 1.0279984844911263e+00 -2.5694240913842282e+02 1.0000000000000000e+00 1.7311621003330430e+01 1.4656140492798713e+01 9.6321216334335809e+00 
33 1 2 1.0279984844911263e+00 -2.7769249117013720e+02 1.0000000000000000e+00 1.7311621003330430e+01 1.4656140492798713e+01 9.6321216334335809e+00 
130 1 2 1.0279984844911263e+00 -2.1554308092517289e+02 1.0000000000000000e+00 1.7311621003330430e+01 1.4656140492798713e+01 9.6321216334335809e+00 
63 1 2 1.0279984844911263e+00 -2.6136690758707886e+02 1.0000000000000000e+00 1.7311621003330430e+01 1.4656140492798713e+01 9.6321216334335809e+00 
65 1 2 1.0279984844911263e+00 -2.4443762332833450e+02 1.0000000000000000e+00 1.7311621003330430e+01 1.4656140492798713e+01 9.6321216334335809e+00 
9 1 2 1.0279990648413195e+00 -1.5723885203310107e+02 1.0000000000000000e+00 1.4941067789355731e+01 1.2748372625489694e+01 1.0820133216291278e+01 
16 1 2 1.0279990648413195e+00 -2.5023388778704947e+02 1.0000000000000000e+00 1.4941067789355730e+01 1.2748372625489694e+01 1.0820133216291280e+01 
45 1 2 1.0279990648413195e+00 -2.1630402349039861e+02 1.0000000000000000e+00 1.4941067789355731e+01 1.2748372625489694e+01 1.0820133216291278e+01 
44 1 2 1.0279990648413195e+00 -1.7611050598207407e+02 1.0000000000000000e+00 1.4941067789355731e+01 1.2748372625489694e+01 1.0820133216291278e+01 
124 1 2 1.0279990648413195e+00 -2.5437765616851118e+02 1.0000000000000000e+00 1.4941067789355731e+01 1.2748372625489694e+01 1.0820133216291278e+01 
8 1 2 1.0279990648413195e+00 -1.7533719225262723e+02 1.0000000000000000e+00 1.4941067789355730e+01 1.2748372625489694e+01 1.0820133216291280e+01 
15 1 2 1.0279990648413195e+00 -2.2657167106620378e+02 1.0000000000000000e+00 1.4941067789355731e+01 1.2748372625489694e+01 1.0820133216291278e+01 
115 1 2 1.0280441782375249e+00 -2.4970787880451729e+02 1.0000000000000000e+00 1.6253083913258223e+01 1.9835288477838922e+01 1.1459627004579682e+01 
148 1 2 1.0280441782375249e+00 -1.3106587528873234e+02 1.0000000000000000e+00 1.6253083913258244e+01 1.9835288477838954e+01 1.1459627004579598e+01 
149 1 2 1.0280441782375265e+00 -1.1393256978759337e+02 1.0000000000000000e+00 1.6253083913258678e+01 1.9835288477838922e+01 1.1459627004579525e+01 
76 1 2 1.0280441782375249e+00 -3.0248271598495182e+02 1.0000000000000000e+00 1.6253083913258244e+01 1.9835288477838954e+01 1.1459627004579598e+01 
167 1 2 1.0280441782375249e+00 -1.9370619228713480e+02 1.0000000000000000e+00 1.6253083913258223e+01 1.9835288477838922e+01 1.1459627004579682e+01 
100 1 2 1.0280441782375260e+00 -1.6373374314502445e+02 1.0000000000000000e+00 1.6253083913259019e+01 1.9835288477838908e+01 1.1459627004579449e+01 
138 1 2 1.0280441782375260e+00 -1.5665161818353613e+02 1.0000000000000000e+00 1.6253083913259019e+01 1.9835288477838908e+01 1.1459627004579449e+01 
12 1 2 1.0279989198624002e+00 -1.5947298934344755e+02 1.0000000000000000e+00 1.5889992595317645e+01 1.5564769716008964e+01 1.3890075814686812e+01 
131 1 2 1.0279989198677413e+00 -2.0331172274759487e+02 1.0000000000000000e+00 1.5889993812002865e+01 1.5564765772825334e+01 1.3890070716618970e+01 
117 1 2 1.0279988630553816e+00 -1.6019103722808478e+02 1.0000000000000000e+00 1.6477143894596971e+01 1.6398695746212660e+01 1.4390013948505279e+01 
136 1 2 1.0279988630554768e+00 -1.8128757987965793e+02 1.0000000000000000e+00 1.6477143872336626e+01 1.6398695740167899e+01 1.4390013955006511e+01 
32 1 2 1.0279988630554782e+00 -2.4114138881704582e+02 1.0000000000000000e+00 1.6477143872336519e+01 1.6398695740167874e+01 1.4390013955006523e+01 
103 1 2 1.0279988630554766e+00 -2.0833669127363129e+02 1.0000000000000000e+00 1.6477143872336548e+01 1.6398695740167906e+01 1.4390013955006465e+01 
142 1 2 1.0279988630554782e+00 -8.9427810812254336e+01 1.0000000000000000e+00 1.6477143872336551e+01 1.6398695740167874e+01 1.4390013955006538e+01 
40 1 2 1.0280014514130063e+00 -2.3398093263609334e+02 1.0000000000000000e+00 1.7424402680001823e+01 1.4078809979471623e+01 1.3577983130406571e+01 
4 1 2 1.0280014514130067e+00 -2.2960057371688418e+02 1.0000000000000000e+00 1.7424402680001890e+01 1.4078809979471659e+01 1.3577983130406553e+01 
42 1 2 1.0280014514130051e+00 -1.9508362869490406e+02 1.0000000000000000e+00 1.7424402679542123e+01 1.4078809979377416e+01 1.3577983130146951e+01 
6 1 2 1.0280014514130054e+00 -1.7045526894498826e+02 1.0000000000000000e+00 1.7424402679543569e+01 1.4078809979372251e+01 1.3577983130163007e+01 
3 1 2 1.0280014514130060e+00 -2.4550704912566658e+02 1.0000000000000000e+00 1.7424402680001794e+01 1.4078809979471593e+01 1.3577983130406620e+01 
39 1 2 1.0280014514130065e+00 -2.2178598254833094e+02 1.0000000000000000e+00 1.7424402680001904e+01 1.4078809979471643e+01 1.3577983130406611e+01 
58 1 2 1.0279978644657086e+00 -2.1338614019419293e+02 1.0000000000000000e+00 1.9780062373313488e+01 1.5891273920415863e+01 1.5047287004937244e+01 
21 1 2 1.0279978644657086e+00 -2.2060384693060939e+02 1.0000000000000000e+00 1.9780062373313488e+01 1.5891273920415863e+01 1.5047287004937244e+01 
134 1 2 1.0279978644657084e+00 -2.2569600726879654e+02 1.0000000000000000e+00 1.9780062373313463e+01 1.5891273920416001e+01 1.5047287004937195e+01 
81 1 2 1.0279978644657086e+00 -2.0807316661719227e+02 1.0000000000000000e+00 1.9780062373313481e+01 1.5891273920415930e+01 1.5047287004937203e+01 
57 1 2 1.0279978644657086e+00 -1.6823981077123381e+02 1.0000000000000000e+00 1.9780062373313488e+01 1.5891273920415863e+01 1.5047287004937244e+01 
87 1 2 1.0279978644657086e+00 -2.4887457859202928e+02 1.0000000000000000e+00 1.9780062373313488e+01 1.5891273920415863e+01 1.5047287004937244e+01 
22 1 2 1.0279978644657084e+00 -2.1978201776310368e+02 1.0000000000000000e+00 1.9780062373313463e+01 1.5891273920416001e+01 1.5047287004937195e+01 
176 1 2 1.0280000619089524e+00 -1.6698753194212992e+02 1.0000000000000000e+00 1.4234992935732951e+01 1.0934441480474877e+01 1.8877796065970148e+01 
177 1 2 1.0280000619089522e+00 -1.6999248798972224e+02 1.0000000000000000e+00 1.4234992935732945e+01 1.0934441480474877e+01 1.8877796065970163e+01 
170 1 2 1.0280000619089522e+00 -1.5687215127359519e+02 1.0000000000000000e+00 1.4234992935732945e+01 1.0934441480474877e+01 1.8877796065970163e+01 
155 1 2 1.0280000619089522e+00 -1.5228598746021916e+02 1.0000000000000000e+00 1.4234992935732945e+01 1.0934441480474877e+01 1.8877796065970163e+01 
75 1 2 1.0280000619089524e+00 -2.2728663021375073e+02 1.0000000000000000e+00 1.4234992935732951e+01 1.0934441480474877e+01 1.8877796065970148e+01 
171 1 2 1.0280000619089522e+00 -1.8486112953750842e+02 1.0000000000000000e+00 1.4234992935732945e+01 1.0934441480474877e+01 1.8877796065970163e+01 
156 1 2 1.0280000619089522e+00 -1.6972253793719094e+02 1.0000000000000000e+00 1.4234992935732944e+01 1.0934441480474877e+01 1.8877796065970166e+01 

Velocities

141 -1.9161788703465219e-02 3.2955471218925880e-01 2.0810221313199054e-01
169 -1.9161788703465219e-02 3.2955471218925880e-01 2.0810221313199054e-01
104 -1.9161788703465226e-02 3.2955471218925897e-01 2.0810221313199068e-01
105 -1.9161788703465219e-02 3.2955471218925880e-01 2.0810221313199054e-01
175 -1.9161788703465226e-02 3.2955471218925897e-01 2.0810221313199068e-01
139 -1.9161788703465223e-02 3.2955471218925897e-01 2.0810221313199070e-01
140 -1.9161788703465219e-02 3.2955471218925880e-01 2.0810221313199054e-01
77 -2.2802860741491498e-02 3.2604690338445930e-01 2.1039489738824554e-01
120 -2.2802860741491498e-02 3.2604690338445930e-01 2.1039489738824554e-01
119 -2.2802860741491498e-02 3.2604690338445930e-01 2.1039489738824554e-01
113 -2.2802860741491498e-02 3.2604690338445930e-01 2.1039489738824554e-01
84 -2.2802860741491498e-02 3.2604690338445930e-01 2.1039489738824554e-01
89 -2.2802860741491498e-02 3.2604690338445930e-01 2.1039489738824554e-01
83 -2.2802860741491498e-02 3.2604690338445930e-01 2.1039489738824554e-01
94 -2.4051987655463288e-02 3.1540450569614131e-01 1.7797219795370767e-01
101 -2.4051987655463288e-02 3.1540450569614131e-01 1.7797219795370767e-01
128 -2.4051987655463288e-02 3.1540450569614131e-01 1.7797219795370767e-01
143 -2.4051987655463288e-02 3.1540450569614131e-01 1.7797219795370767e-01
129 -2.4051987655457584e-02 3.1540450569614142e-01 1.7797219795365979e-01
125 -2.4051987655463288e-02 3.1540450569614131e-01 1.7797219795370767e-01
135 -2.4051987655463288e-02 3.1540450569614131e-01 1.7797219795370767e-01
86 -3.2592672704584648e-03 3.5398371185361782e-01 1.8175810714459023e-01
64 -3.2592672704586929e-03 3.5398371185361710e-01 1.8175810714459045e-01
28 -3.2592672704586929e-03 3.5398371185361710e-01 1.8175810714459045e-01
24 -3.2592672704586929e-03 3.5398371185361710e-01 1.8175810714459045e-01
52 -3.2592672704586929e-03 3.5398371185361710e-01 1.8175810714459045e-01
34 -3.2592672704586929e-03 3.5398371185361710e-01 1.8175810714459045e-01
71 -3.2592672704586929e-03 3.5398371185361710e-01 1.8175810714459045e-01
1 -4.9265642991132112e-03 3.5447420944547231e-01 1.8147595808160727e-01
7 -4.9265642991132407e-03 3.5447420944547214e-01 1.8147595808160730e-01
59 -4.9265642991127984e-03 3.5447420944547336e-01 1.8147595808160669e-01
29 -4.9265642991132112e-03 3.5447420944547231e-01 1.8147595808160727e-01
106 -4.9265642991132112e-03 3.5447420944547231e-01 1.8147595808160727e-01
48 -4.9265642991127984e-03 3.5447420944547336e-01 1.8147595808160669e-01
2 -4.9265642991127984e-03 3.5447420944547336e-01 1.8147595808160669e-01
20 -1.3804566672547947e-02 3.1346759813114788e-01 2.1609314136524510e-01
107 -1.3804566672547947e-02 3.1346759813114788e-01 2.1609314136524510e-01
72 -1.3804566672547947e-02 3.1346759813114788e-01 2.1609314136524510e-01
14 -1.3804566672547947e-02 3.1346759813114788e-01 2.1609314136524510e-01
108 -1.3804566672547947e-02 3.1346759813114788e-01 2.1609314136524510e-01
13 -1.3804566672547947e-02 3.1346759813114788e-01 2.1609314136524510e-01
19 -1.3804566672547947e-02 3.1346759813114788e-01 2.1609314136524510e-01