LAMMPS data file via write_data, version 30 Jul 2016, timestep = 50400000

384 atoms
2 atom types

0.0000000000000000e+00 2.0000000000000000e+01 xlo xhi
0.0000000000000000e+00 2.0000000000000000e+01 ylo yhi
0.0000000000000000e+00 2.0000000000000000e+01 zlo zhi

Masses

1 3.89
2 0.42

Atoms # meso-molecular

9 1 2 1.0000000000001223e-01 -1.7939465689725154e+00 1.0000000000000000e+00 6.4157818731824552e+00 7.6322143822157846e+00 2.5851222114014862e+00 
3 1 2 9.9999999999995579e-02 -9.4070320562320120e-02 1.0000000000000000e+00 5.8040298113928461e+00 7.5576121209113918e+00 4.0191895351863369e+00 
2 1 2 9.9999999999995468e-02 5.1576704304954757e-01 1.0000000000000000e+00 5.8036269248507057e+00 7.5578494126744733e+00 4.0184274034122867e+00 
10 1 2 9.9999999999983977e-02 -8.4700361416858871e-01 1.0000000000000000e+00 6.2621865091179192e+00 8.3490063802156769e+00 4.8407745763476111e+00 
11 1 2 1.0000000000002174e-01 3.5506659587664927e-02 1.0000000000000000e+00 5.0777236696233796e+00 8.7937344451142359e+00 5.7631976333600141e+00 
12 1 2 1.0000000000002174e-01 -8.5988070732314736e-02 1.0000000000000000e+00 5.0777236698526060e+00 8.7937344442559322e+00 5.7631976312460891e+00 
123 1 2 9.9999999999993053e-02 -2.8931184136607369e-01 1.0000000000000000e+00 6.6381062469995689e+00 2.0349006953581825e+00 6.1864954942081951e+00 
58 1 2 9.9999999999978523e-02 1.2483520278765986e-01 1.0000000000000000e+00 5.7631281559879524e+00 1.8274348807701159e+01 1.9374866808804128e+00 
50 1 2 1.0000000000002460e-01 -7.4526352788033240e-02 1.0000000000000000e+00 6.6103150477931001e+00 1.5307026385654044e+01 3.5616598893342721e+00 
57 1 2 1.0000000000001898e-01 -8.7903386290938412e-01 1.0000000000000000e+00 6.4959934066144047e+00 1.7788504849108929e+01 2.7877202952786435e+00 
49 1 2 1.0000000000001745e-01 9.8223353557920935e-03 1.0000000000000000e+00 6.2627007567184867e+00 1.8405907444080746e+01 2.9335280532035859e+00 
1 1 2 9.9999999999978911e-02 4.8982747375613733e-01 1.0000000000000000e+00 5.7497368776888456e+00 1.8579651654949579e+01 2.0532398638099147e+00 
27 1 2 9.9999999999999201e-02 -5.4115017358217732e-01 1.0000000000000000e+00 4.5336365615675325e+00 1.0222208733455538e+01 5.6185638930292017e+00 
114 1 2 9.9999999999988542e-02 2.3360090689948085e-01 1.0000000000000000e+00 6.6196869693275060e+00 1.4921583520606491e+01 4.1537734347189534e+00 
59 1 2 9.9999999999987918e-02 8.7220927473076926e-01 1.0000000000000000e+00 6.3959289907512611e+00 1.6259885604667605e+01 4.2750653751234822e+00 
51 1 2 9.9999999999987904e-02 -5.7302596639066583e-01 1.0000000000000000e+00 6.5103233376588285e+00 1.6336763101837857e+01 4.2269649705770105e+00 
26 1 2 9.9999999999974540e-02 6.6220130776020325e-01 1.0000000000000000e+00 4.7704912922455112e+00 1.0554966817101608e+01 6.3152157153685167e+00 
19 1 2 1.0000000000001019e-01 7.6895442148438187e-01 1.0000000000000000e+00 4.8746101971363478e+00 1.0375527783236986e+01 6.5049535631931281e+00 
208 1 2 1.0000000000000797e-01 1.0558343159095378e+00 1.0000000000000000e+00 1.3092745467966417e+01 4.8800612419419833e+00 1.5493833107476442e+00 
272 1 2 1.0000000000001065e-01 1.5880831164219517e-01 1.0000000000000000e+00 1.3075991416035786e+01 4.8992313164860581e+00 1.5640585760664520e+00 
337 1 2 1.0000000000002651e-01 1.0264661689116417e+00 1.0000000000000000e+00 1.2484584417722086e+01 7.4131584844056935e+00 6.1535535281496867e-01 
273 1 2 1.0000000000003463e-01 -1.3329703151864143e+00 1.0000000000000000e+00 1.2832225780155852e+01 7.5141548407556780e+00 6.7799955497502296e-01 
25 1 2 1.0000000000001370e-01 6.7919289704309560e-01 1.0000000000000000e+00 8.2105878189487189e+00 9.8379745456620054e+00 1.3618259097313876e+00 
34 1 2 1.0000000000002846e-01 2.0104848854677088e-01 1.0000000000000000e+00 8.2281157657174901e+00 9.8409706672922166e+00 1.3375582140139350e+00 
209 1 2 9.9999999999933351e-02 7.1150800659454794e-01 1.0000000000000000e+00 1.2972655408560192e+01 8.0526612994384994e+00 3.5801923756048526e-01 
218 1 2 1.0000000000000474e-01 2.8305084232406019e-01 1.0000000000000000e+00 1.1513415231675635e+01 8.8347815085453174e+00 1.3655211046293854e+00 
281 1 2 1.0000000000003027e-01 -1.0130918986472508e+00 1.0000000000000000e+00 1.1616848356413458e+01 9.4295588071718033e+00 1.6051536575060050e+00 
217 1 2 9.9999999999992303e-02 -1.3998910783977458e-01 1.0000000000000000e+00 1.1788491369153139e+01 9.6591141026250682e+00 3.5090594111959245e-01 
122 1 2 9.9999999999970474e-02 -3.5226800491534838e-01 1.0000000000000000e+00 8.9844490326673494e+00 3.8917764361750695e-01 3.5085773308147394e+00 
185 1 2 1.0000000000002118e-01 -9.5178695555003440e-02 1.0000000000000000e+00 8.9718683618047645e+00 1.2411171245882929e-01 3.3170981162319100e+00 
121 1 2 1.0000000000001404e-01 -2.4573675801935396e-01 1.0000000000000000e+00 8.9631798753339122e+00 9.7629251803615050e-02 3.3567577393765182e+00 
130 1 2 9.9999999999999020e-02 -3.5825787142890353e-01 1.0000000000000000e+00 8.4206813255735060e+00 2.9065406204026738e+00 3.4934368616416727e+00 
65 1 2 9.9999999999992276e-02 -4.1021696737208840e-01 1.0000000000000000e+00 9.7451208517689274e+00 2.9509769765344229e+00 2.8819347294306863e+00 
129 1 2 9.9999999999992248e-02 6.8899420602625064e-02 1.0000000000000000e+00 9.7451176496036851e+00 2.9509774373677296e+00 2.8819345346560881e+00 
193 1 2 1.0000000000001509e-01 3.4121344246234664e-01 1.0000000000000000e+00 1.1210681618787721e+01 2.6993405210413810e+00 3.7942425323994753e+00 
194 1 2 9.9999999999997632e-02 -1.5893541445109554e+00 1.0000000000000000e+00 1.1325133762775693e+01 2.8509542690544785e+00 3.6360105147560215e+00 
138 1 2 1.0000000000003723e-01 -7.0174483414176259e-01 1.0000000000000000e+00 9.8437653533335485e+00 7.1776703634994696e+00 3.7210740234973203e+00 
201 1 2 9.9999999999997521e-02 2.0970993594036902e-01 1.0000000000000000e+00 1.1295133828297651e+01 7.2991920165467556e+00 3.2540753687327353e+00 
210 1 2 1.0000000000000286e-01 -3.5607787585596634e-01 1.0000000000000000e+00 1.1407252940572107e+01 7.8455429843225497e+00 3.6970229562701555e+00 
74 1 2 1.0000000000000507e-01 -1.1935441723587665e+00 1.0000000000000000e+00 7.9520325974197661e+00 8.0909273677062892e+00 3.9269950826134079e+00 
75 1 2 9.9999999999997022e-02 2.7221549205372547e-01 1.0000000000000000e+00 8.2979835705428862e+00 8.1582938892012500e+00 3.4345274288065184e+00 
73 1 2 1.0000000000000377e-01 1.7068315931248437e+00 1.0000000000000000e+00 6.7696160124245957e+00 8.2342823679614270e+00 2.2214455816683296e+00 
81 1 2 1.0000000000000883e-01 -7.3938420118379966e-01 1.0000000000000000e+00 6.9042876928066335e+00 8.6860844453161352e+00 2.4395358438308392e+00 
137 1 2 9.9999999999990360e-02 -1.3205686520283200e+00 1.0000000000000000e+00 1.0159096876258300e+01 8.0365117847376180e+00 2.8408930840753426e+00 
145 1 2 9.9999999999989306e-02 -1.8688696429608109e-01 1.0000000000000000e+00 1.0147283241161739e+01 9.3971502148822470e+00 3.2263013904960811e+00 
195 1 2 1.0000000000000897e-01 1.6796250575402782e-01 1.0000000000000000e+00 1.2599212852185202e+01 9.1780559775762749e-01 4.4189597661980278e+00 
323 1 2 1.0000000000001297e-01 7.0264342852716918e-02 1.0000000000000000e+00 1.2760830346419107e+01 6.8876489168062049e-01 5.5365100351457617e+00 
259 1 2 1.0000000000001298e-01 1.7778691541827191e-01 1.0000000000000000e+00 1.2760849944847656e+01 6.8875204946913948e-01 5.5365030952637504e+00 
314 1 2 9.9999999999975248e-02 3.3565071471092606e-01 1.0000000000000000e+00 1.1543394735545181e+01 2.0468658364983242e-01 4.3383581519569931e+00 
250 1 2 9.9999999999996064e-02 6.0812212787288611e-01 1.0000000000000000e+00 1.1569087804101160e+01 1.4648939591559973e-01 4.3163050120700710e+00 
186 1 2 1.0000000000000377e-01 4.1780652029783727e-01 1.0000000000000000e+00 8.4967801804503367e+00 2.2736839030808591e+00 4.2939508575793051e+00 
187 1 2 1.0000000000000442e-01 5.0653701626257819e-01 1.0000000000000000e+00 7.4876084923199544e+00 2.6171175809965415e+00 5.4382547991797034e+00 
66 1 2 9.9999999999997105e-02 -2.3085568983491439e-01 1.0000000000000000e+00 8.7506507658816339e+00 2.9707195739162788e+00 4.4081524863138641e+00 
258 1 2 9.9999999999969794e-02 -1.4550619935205500e-01 1.0000000000000000e+00 1.1508878550241260e+01 3.5503818157652458e+00 4.4971070794405366e+00 
266 1 2 1.0000000000006284e-01 1.0013177580250470e+00 1.0000000000000000e+00 1.1723486359394363e+01 4.5329808202581638e+00 4.8043335403497114e+00 
203 1 2 9.9999999999948810e-02 -1.6369435779267144e-01 1.0000000000000000e+00 1.1906490106143961e+01 4.9508592092734327e+00 5.0787376875552148e+00 
139 1 2 9.9999999999974873e-02 8.2948826928115338e-01 1.0000000000000000e+00 9.3940473846665213e+00 7.8524609086816950e+00 4.2250970103432053e+00 
202 1 2 1.0000000000002568e-01 -5.7803270623394287e-01 1.0000000000000000e+00 1.1238874405440304e+01 6.0023317530539151e+00 4.4492726608984192e+00 
274 1 2 9.9999999999966768e-02 -3.5709890640583219e-01 1.0000000000000000e+00 1.2129614808665373e+01 6.7609470299473351e+00 4.9047402361074823e+00 
211 1 2 9.9999999999974346e-02 -3.6638389999594088e-02 1.0000000000000000e+00 1.1919836214447910e+01 6.9064470369496158e+00 4.9496092534578517e+00 
82 1 2 1.0000000000007188e-01 -8.9758197001776141e-01 1.0000000000000000e+00 8.5692681859231818e+00 9.3204235196068339e+00 5.1747707437041726e+00 
91 1 2 9.9999999999976955e-02 2.1239328505303878e+00 1.0000000000000000e+00 8.7717606822152998e+00 9.6503230008971386e+00 5.5710307050558496e+00 
18 1 2 9.9999999999997105e-02 -1.1860945153163827e+00 1.0000000000000000e+00 6.9769464853851657e+00 9.6957442038552948e+00 4.4900486852712893e+00 
124 1 2 9.9999999999972528e-02 -5.1252416575680448e-01 1.0000000000000000e+00 6.8678391385762714e+00 1.8894004628140537e+00 6.5109069813696712e+00 
188 1 2 1.0000000000001971e-01 -4.0006225325677214e-01 1.0000000000000000e+00 7.5962410847201625e+00 2.3367589539202229e+00 6.3992065514867846e+00 
67 1 2 1.0000000000000299e-01 2.4072503957371216e-02 1.0000000000000000e+00 7.4622006780874024e+00 7.3669840062087282e+00 6.7987802188393420e+00 
68 1 2 9.9999999999996536e-02 1.0438530980528269e-02 1.0000000000000000e+00 7.6275316372589783e+00 7.3683166912943721e+00 6.9047108388951193e+00 
4 1 2 1.0000000000000223e-01 1.9812915679969120e-02 1.0000000000000000e+00 7.4223790191886394e+00 7.5170726867137674e+00 6.9303950250184370e+00 
140 1 2 9.9999999999953640e-02 -8.3306366838217724e-02 1.0000000000000000e+00 1.0278647510153714e+01 7.4632179387276381e+00 7.9715173113576459e+00 
148 1 2 1.0000000000000088e-01 -6.3823623394278406e-01 1.0000000000000000e+00 1.0903903065937481e+01 9.3357821531635228e+00 7.3175490868868538e+00 
83 1 2 1.0000000000000789e-01 1.0390643501392642e+00 1.0000000000000000e+00 9.3709184107212256e+00 9.4632563496882067e+00 7.0398533768295781e+00 
147 1 2 9.9999999999975553e-02 4.2207206174887868e-01 1.0000000000000000e+00 9.4567518680959139e+00 9.5149669617258663e+00 7.1168909214457621e+00 
149 1 2 9.9999999999967476e-02 4.5131025812386516e-01 1.0000000000000000e+00 1.1606792672363692e+01 8.5598560524336467e+00 7.7723200877349106e+00 
133 1 2 9.9999999999980341e-02 1.6180085114054540e-01 1.0000000000000000e+00 1.1833055509253937e+01 3.8885461867053142e+00 9.8353666775339263e+00 
260 1 2 9.9999999999974609e-02 1.6491627851858743e+00 1.0000000000000000e+00 1.3260590102175088e+01 4.5183732948198605e+00 9.2290895260983756e+00 
196 1 2 1.0000000000004652e-01 -1.1411541018792064e+00 1.0000000000000000e+00 1.3218566839958287e+01 4.8741253136401088e+00 9.0208731254860268e+00 
204 1 2 9.9999999999970446e-02 -1.0657609786783704e+00 1.0000000000000000e+00 1.2888480158550818e+01 5.8966839807523908e+00 8.6137969380436203e+00 
205 1 2 9.9999999999999423e-02 4.4974433864369073e-01 1.0000000000000000e+00 1.1481546706749894e+01 4.9489424072919466e+00 9.9776404393909690e+00 
13 1 2 9.9999999999995232e-02 -9.4293649989992590e-01 1.0000000000000000e+00 8.0642223894741534e+00 7.1665239930450806e+00 9.5737622210217346e+00 
20 1 2 9.9999999999987266e-02 9.1313589804192019e-02 1.0000000000000000e+00 7.9543269277815840e+00 7.5365364153566681e+00 9.2280538826223442e+00 
76 1 2 9.9999999999997757e-02 -2.7365471312162037e-01 1.0000000000000000e+00 1.0233042737170637e+01 6.4719842312487250e+00 8.5419705768295557e+00 
77 1 2 1.0000000000001007e-01 2.0160045213004935e-01 1.0000000000000000e+00 9.7907337207692091e+00 6.5819308473235294e+00 9.1158860663669241e+00 
85 1 2 1.0000000000001635e-01 1.0812599564810982e-01 1.0000000000000000e+00 9.5797914670966229e+00 7.8238255798601921e+00 9.8071971943738330e+00 
141 1 2 1.0000000000000485e-01 -3.3358757739746236e-01 1.0000000000000000e+00 1.1347927799320974e+01 6.0672564224746548e+00 9.4707329709633523e+00 
212 1 2 1.0000000000006389e-01 -1.9447713787627668e-01 1.0000000000000000e+00 1.2230697388819959e+01 6.9072505236566553e+00 8.4070507090980247e+00 
213 1 2 9.9999999999984129e-02 -6.7011241316369108e-01 1.0000000000000000e+00 1.2247319855130762e+01 6.9668248761891931e+00 8.9020406991014660e+00 
21 1 2 9.9999999999994552e-02 -9.0527986455924481e-01 1.0000000000000000e+00 7.8578897445946074e+00 8.1152158008823783e+00 9.9060206859844548e+00 
84 1 2 1.0000000000003097e-01 2.6172473658218509e-01 1.0000000000000000e+00 9.7505694896308750e+00 8.4301052813521959e+00 8.0274255710323956e+00 
157 1 2 1.0000000000000701e-01 1.2030074368698984e-01 1.0000000000000000e+00 1.1635786578830567e+01 9.7391315869723663e+00 9.3556909860016972e+00 
156 1 2 9.9999999999989556e-02 1.8635838069121253e+00 1.0000000000000000e+00 1.1714222556076736e+01 9.1382851626593560e+00 8.2413482708517964e+00 
5 1 2 1.0000000000000069e-01 -7.1953957804566304e-01 1.0000000000000000e+00 9.1021812623658125e+00 1.9177477057065662e+00 1.0555938982401830e+01 
69 1 2 1.0000000000000038e-01 -5.8893335511161893e-01 1.0000000000000000e+00 9.1385419538510053e+00 1.8716637286533810e+00 1.0648010775477916e+01 
6 1 2 9.9999999999997771e-02 6.3716913353832005e-01 1.0000000000000000e+00 8.8159402449545379e+00 2.7677245196513693e+00 1.1813975350421680e+01 
70 1 2 1.0000000000000944e-01 -2.1681064580636641e-01 1.0000000000000000e+00 8.8129471513793796e+00 2.8029631823168755e+00 1.0666366335942236e+01 
197 1 2 1.0000000000000156e-01 -4.0054547844495758e-01 1.0000000000000000e+00 1.1598917840538634e+01 3.9593958225622741e+00 1.0034084264082942e+01 
29 1 2 9.9999999999977496e-02 6.6909785648381470e-01 1.0000000000000000e+00 8.6592181084343469e+00 9.0779318742814947e+00 1.1002905170801421e+01 
86 1 2 1.0000000000003900e-01 -1.1643152250130959e-01 1.0000000000000000e+00 9.3240683959103681e+00 8.0172772908534338e+00 1.0848033801452297e+01 
150 1 2 9.9999999999964603e-02 1.0380594216508759e-01 1.0000000000000000e+00 1.1951966691740127e+01 8.6544897018480125e+00 1.1033115131380132e+01 
214 1 2 1.0000000000001716e-01 -1.5587022497114200e-01 1.0000000000000000e+00 1.2235355809676676e+01 8.9637810080023765e+00 1.1943453048900832e+01 
222 1 2 1.0000000000000545e-01 -3.6939993297097751e-01 1.0000000000000000e+00 1.2939503422972935e+01 9.5689886095600638e+00 1.0839417166172860e+01 
215 1 2 1.0000000000001008e-01 1.2098146224087465e+00 1.0000000000000000e+00 1.2137469483076192e+01 9.5767746630189823e+00 1.1941944637302637e+01 
14 1 2 1.0000000000000669e-01 5.1738294730046297e-01 1.0000000000000000e+00 9.3479195292784532e+00 3.2603877364703431e+00 1.2355186255098852e+01 
142 1 2 9.9999999999995356e-02 3.1775859402114959e+00 1.0000000000000000e+00 1.1394604624930590e+01 3.3893331440804442e+00 1.2046028649374858e+01 
143 1 2 9.9999999999994579e-02 -3.3146219317729519e-01 1.0000000000000000e+00 1.1692723971594120e+01 3.4429235550219559e+00 1.2414204786428186e+01 
23 1 2 1.0000000000000585e-01 -1.0405001279996158e-01 1.0000000000000000e+00 9.2168028529171906e+00 4.2474504225534444e+00 1.2839750711488588e+01 
79 1 2 1.0000000000001025e-01 -1.3286696884860529e+00 1.0000000000000000e+00 1.0453063929443802e+01 4.3845105531022366e+00 1.3132393624803065e+01 
15 1 2 9.9999999999983560e-02 -3.8928811106636918e-01 1.0000000000000000e+00 9.2136250067276837e+00 5.1194711919592191e+00 1.3914939067833251e+01 
78 1 2 1.0000000000001318e-01 -7.1040743577506316e-01 1.0000000000000000e+00 1.1822252972260637e+01 4.1937805740043421e+00 1.2043820640982796e+01 
88 1 2 9.9999999999918973e-02 -5.4004732693753255e-01 1.0000000000000000e+00 9.8444662235176228e+00 6.7401427682743495e+00 1.3979035059336612e+01 
30 1 2 9.9999999999983685e-02 3.4981552657391496e-01 1.0000000000000000e+00 9.4106742312022789e+00 8.4311624254866100e+00 1.2729163511552999e+01 
22 1 2 1.0000000000000638e-01 -5.8103850003584745e-01 1.0000000000000000e+00 8.9286655339677719e+00 8.4688889763851165e+00 1.2283237222941715e+01 
94 1 2 1.0000000000001603e-01 -4.0573102961933083e-01 1.0000000000000000e+00 1.0089490740752288e+01 8.9493535852374801e+00 1.2155346473002171e+01 
7 1 2 1.0000000000001660e-01 -2.3664612302933963e-01 1.0000000000000000e+00 9.5096448206474982e+00 3.6049362950919659e+00 1.4015438222933188e+01 
71 1 2 1.0000000000000532e-01 -8.6433309906652545e-01 1.0000000000000000e+00 1.0420445025727348e+01 3.6092482491752138e+00 1.4820506877296939e+01 
144 1 2 1.0000000000000604e-01 1.0829539800826955e+00 1.0000000000000000e+00 1.2934390037975319e+01 3.8297023381928716e+00 1.4531013354929140e+01 
200 1 2 1.0000000000000912e-01 1.2466659031627079e+00 1.0000000000000000e+00 1.2953341742364330e+01 3.8534409378487520e+00 1.4567715678040589e+01 
8 1 2 1.0000000000001390e-01 -1.4122797263388129e+00 1.0000000000000000e+00 1.0165011405794326e+01 4.0524626891694684e+00 1.5550178248489143e+01 
16 1 2 9.9999999999988626e-02 -4.1581519535246692e-01 1.0000000000000000e+00 9.5718041382221415e+00 5.5006861619138006e+00 1.4816322105171086e+01 
136 1 2 1.0000000000001437e-01 8.4474064433856433e-01 1.0000000000000000e+00 1.2354280026474159e+01 4.5119316196298289e+00 1.4880654567971806e+01 
62 1 2 1.0000000000006519e-01 3.4974714676277918e-01 1.0000000000000000e+00 7.2882921458863237e+00 7.5155910623599445e+00 1.5138358824578759e+01 
63 1 2 1.0000000000006511e-01 3.6957963327221710e-01 1.0000000000000000e+00 7.2882579452052134e+00 7.5156019406002859e+00 1.5138361724949139e+01 
24 1 2 1.0000000000004343e-01 -1.2286351343724028e-01 1.0000000000000000e+00 1.0224694638294951e+01 6.3929128386360725e+00 1.4826025722805500e+01 
96 1 2 1.0000000000002270e-01 9.1174996403720898e-01 1.0000000000000000e+00 1.0451101953753769e+01 7.2573611036829169e+00 1.4195235410505083e+01 
95 1 2 1.0000000000010169e-01 -2.7199749119633986e-02 1.0000000000000000e+00 1.0914370829894899e+01 8.6227185747449191e+00 1.4093962908099025e+01 
151 1 2 9.9999999999972292e-02 1.0228343398040838e+00 1.0000000000000000e+00 1.0781919458223268e+01 9.0221668154461199e+00 1.5501792338039264e+01 
87 1 2 9.9999999999925107e-02 2.3487165569269519e-01 1.0000000000000000e+00 1.0664613579002504e+01 9.0871692181771877e+00 1.4312632973247188e+01 
159 1 2 9.9999999999970168e-02 9.3857636315075088e-01 1.0000000000000000e+00 1.1851567718622283e+01 8.7863582043641912e+00 1.5754755061404291e+01 
167 1 2 1.0000000000005232e-01 -1.1369675772468173e+00 1.0000000000000000e+00 1.2036999910815323e+01 9.3767844387682260e+00 1.5599489845664394e+01 
135 1 2 9.9999999999998576e-02 -2.6688566155332472e-01 1.0000000000000000e+00 7.5682129068048631e+00 1.3205049001270066e+00 1.7248146540217089e+01 
190 1 2 9.9999999999997660e-02 6.0024784546956556e-01 1.0000000000000000e+00 7.1120279668942095e+00 1.1187873693690624e+00 1.7094564197515627e+01 
134 1 2 1.0000000000000599e-01 -4.5547379647034059e-01 1.0000000000000000e+00 7.4364709377258560e+00 1.0865693053899739e+00 1.7751144508604771e+01 
255 1 2 1.0000000000006359e-01 -6.2589045697683066e-01 1.0000000000000000e+00 1.0079960987699899e+01 7.2418146210955339e-02 1.7376857712421160e+01 
192 1 2 1.0000000000007683e-01 1.3337787805917956e+00 1.0000000000000000e+00 9.9793309436943929e+00 4.2959899658226955e-02 1.7432653629554189e+01 
32 1 2 1.0000000000000511e-01 4.1907290099099392e-01 1.0000000000000000e+00 8.8865840685497162e+00 5.9601744969777863e+00 1.7212671454516272e+01 
31 1 2 1.0000000000000814e-01 2.0981691784035039e-01 1.0000000000000000e+00 8.9065229198838924e+00 5.9694419213864567e+00 1.7267316965796990e+01 
80 1 2 1.0000000000002761e-01 7.7309340786005021e-01 1.0000000000000000e+00 1.1343286365843332e+01 4.0591772165768791e+00 1.6084591228869474e+01 
72 1 2 9.9999999999981104e-02 -1.0404189176602896e+00 1.0000000000000000e+00 1.1494003190774812e+01 4.2692862203306596e+00 1.6035493459662607e+01 
119 1 2 1.0000000000000503e-01 -6.8347267387743327e-01 1.0000000000000000e+00 7.0794629165710248e+00 7.4493735288901828e+00 1.6393439828995049e+01 
55 1 2 9.9999999999953515e-02 -2.1261473524446833e-01 1.0000000000000000e+00 7.7305162918177395e+00 7.9114027496645241e+00 1.6120293842039356e+01 
39 1 2 1.0000000000000013e-01 -1.4190013695956472e+00 1.0000000000000000e+00 9.6308413073923695e+00 6.8759636506998181e+00 1.6951567359952346e+01 
103 1 2 9.9999999999997272e-02 1.2679181720013739e+00 1.0000000000000000e+00 9.3161012588191348e+00 7.1273230867022166e+00 1.6848367447798015e+01 
160 1 2 9.9999999999940248e-02 1.5581321431698605e+00 1.0000000000000000e+00 1.1009994478242159e+01 9.7642875902344848e+00 1.7508695086486021e+01 
232 1 2 1.0000000000002757e-01 -6.0787675223195636e-01 1.0000000000000000e+00 1.2016496192267656e+01 9.8458130272184423e+00 1.6947683548915968e+01 
128 1 2 9.9999999999979897e-02 7.8805399604794782e-02 1.0000000000000000e+00 7.0217268261657120e+00 6.9270215041142054e+00 1.8424714755630230e+01 
120 1 2 9.9999999999981992e-02 -1.1155090268123340e+00 1.0000000000000000e+00 7.0280534064276123e+00 6.9493395682916610e+00 1.8437002761230339e+01 
64 1 2 1.0000000000001391e-01 -1.4785268691437214e-01 1.0000000000000000e+00 6.8414249501856768e+00 7.3363375030664200e+00 1.8146095842339111e+01 
152 1 2 1.0000000000003365e-01 1.6879968366681827e-01 1.0000000000000000e+00 1.1506215417177017e+01 7.9523612392431584e+00 1.8756151662480988e+01 
216 1 2 1.0000000000003356e-01 7.1110510573358898e-01 1.0000000000000000e+00 1.1506484956338531e+01 7.9521327554695374e+00 1.8756143011419844e+01 
224 1 2 1.0000000000000854e-01 -1.5038167354303447e+00 1.0000000000000000e+00 1.2111235889047872e+01 8.4312552739886435e+00 1.8587181264137335e+01 
40 1 2 1.0000000000000200e-01 -4.2269334896117547e-02 1.0000000000000000e+00 7.9472256913871382e+00 1.1716484051456028e+01 8.2361896931726886e-01 
33 1 2 9.9999999999992678e-02 -1.7734146661587831e+00 1.0000000000000000e+00 7.8691691802269457e+00 1.0753327901076403e+01 4.1835265107709657e-01 
161 1 2 1.0000000000000556e-01 -6.3600817514507180e-01 1.0000000000000000e+00 9.6177741476749645e+00 1.1605504085613088e+01 4.6162312088747687e-02 
98 1 2 1.0000000000000590e-01 -1.4264643630872664e-01 1.0000000000000000e+00 9.6444154792866659e+00 1.1594096370590433e+01 4.4833079841979200e-02 
97 1 2 1.0000000000000279e-01 -1.2042430575954186e+00 1.0000000000000000e+00 9.8638859306564619e+00 1.0745634495829851e+01 2.7624465956088906e-01 
289 1 2 9.9999999999976233e-02 9.5483271604544351e-01 1.0000000000000000e+00 1.1325776477223949e+01 1.0257427974098727e+01 7.9865716197411096e-01 
226 1 2 9.9999999999994468e-02 -7.2111724366639585e-01 1.0000000000000000e+00 1.1159673967489818e+01 1.2058551439595467e+01 1.9507770633507611e+00 
162 1 2 1.0000000000000368e-01 1.1647550566385174e+00 1.0000000000000000e+00 9.4019077144925909e+00 1.4353581719431711e+01 2.4014528364781010e-01 
155 1 2 9.9999999999997424e-02 1.0719994316778032e+00 1.0000000000000000e+00 9.4081826752318740e+00 1.4395566395447370e+01 4.1510887155683845e-01 
163 1 2 1.0000000000000235e-01 1.3369019014613726e-01 1.0000000000000000e+00 9.3001080165190260e+00 1.4457566299200352e+01 2.3768652046667374e-01 
305 1 2 1.0000000000000472e-01 8.0618474319074762e-01 1.0000000000000000e+00 1.2045554506739341e+01 1.5736541793652224e+01 9.1731228006816168e-01 
105 1 2 1.0000000000003181e-01 -2.0596447663187523e-01 1.0000000000000000e+00 8.0673705539390035e+00 1.6237012536833550e+01 1.9285541693026178e+00 
369 1 2 9.9999999999998063e-02 4.2713199399786006e-01 1.0000000000000000e+00 1.2715391055907309e+01 1.6045993203632957e+01 1.0040516217443367e+00 
306 1 2 1.0000000000001791e-01 1.6710632751692590e-02 1.0000000000000000e+00 1.1601900546660788e+01 1.6667882733639065e+01 1.9527542666388518e+00 
378 1 2 9.9999999999998507e-02 -3.3918962742586956e-01 1.0000000000000000e+00 1.2378133077322959e+01 1.8326797135419916e+01 1.6775200208160319e+00 
313 1 2 1.0000000000000020e-01 6.9740131294205976e-01 1.0000000000000000e+00 1.1651927724271859e+01 1.8621840128607779e+01 1.3350359707913704e+00 
377 1 2 1.0000000000000456e-01 -8.8646199900517320e-01 1.0000000000000000e+00 1.2230815715053589e+01 1.8624270027103851e+01 1.4995830360492315e+00 
42 1 2 9.9999999999986988e-02 3.6882377979176806e-01 1.0000000000000000e+00 8.0335780356947559e+00 1.1503222040221260e+01 2.1009531970937263e+00 
41 1 2 9.9999999999988751e-02 -4.1166938383717416e-01 1.0000000000000000e+00 7.9504800757429841e+00 1.1466791966064452e+01 2.1374383771481282e+00 
17 1 2 1.0000000000001009e-01 -2.0073881094536231e-01 1.0000000000000000e+00 7.2699152993390159e+00 1.0645422682557300e+01 3.8461799208783729e+00 
153 1 2 9.9999999999962438e-02 1.9625801111316399e-01 1.0000000000000000e+00 1.0005213013311568e+01 1.0726956324403542e+01 3.9509253501342276e+00 
146 1 2 1.0000000000000898e-01 4.2977177797144750e-01 1.0000000000000000e+00 1.0502226062312737e+01 1.0239765513423745e+01 3.2061182879744785e+00 
225 1 2 9.9999999999916891e-02 5.2838744689766848e-01 1.0000000000000000e+00 1.1754921414999636e+01 1.1818552136945405e+01 2.1800026303026891e+00 
290 1 2 1.0000000000004199e-01 -2.0610525868772789e-01 1.0000000000000000e+00 1.3175327239964195e+01 1.2425827092696945e+01 3.1128545746610459e+00 
233 1 2 1.0000000000001018e-01 2.5495001308736986e-01 1.0000000000000000e+00 1.1349284351846970e+01 1.3103052363953497e+01 2.4614018780138678e+00 
234 1 2 1.0000000000003083e-01 -9.4538268354296151e-01 1.0000000000000000e+00 1.1332719251015121e+01 1.3108559761893082e+01 2.4166093448609627e+00 
169 1 2 9.9999999999995759e-02 -5.9262177837268948e-01 1.0000000000000000e+00 8.5539261311503569e+00 1.5959952655349074e+01 2.0022987388348623e+00 
113 1 2 9.9999999999950406e-02 2.0483071040930376e+00 1.0000000000000000e+00 7.8700657642050507e+00 1.6452176881702400e+01 2.2252884197957976e+00 
170 1 2 1.0000000000000110e-01 -1.1965672765009596e+00 1.0000000000000000e+00 9.4702350306698708e+00 1.6669259109420711e+01 3.4812811528275374e+00 
178 1 2 9.9999999999999728e-02 -1.8760693852743454e-01 1.0000000000000000e+00 9.5129306984700790e+00 1.6719625385510415e+01 3.5093402578333226e+00 
177 1 2 1.0000000000002071e-01 -8.1086603750946273e-01 1.0000000000000000e+00 1.0026648962168641e+01 1.7165583239805283e+01 2.2606916389797331e+00 
370 1 2 1.0000000000001799e-01 6.4851782696692251e-01 1.0000000000000000e+00 1.2480904569308228e+01 1.6106635090125330e+01 2.0421837913278296e+00 
241 1 2 9.9999999999964437e-02 6.0355784872095564e-01 1.0000000000000000e+00 1.0460544972878047e+01 1.8143145211149804e+01 3.0919592490882875e+00 
249 1 2 1.0000000000000751e-01 1.5086127884159957e+00 1.0000000000000000e+00 1.0591097481609332e+01 1.8190830006595046e+01 2.8918103269730016e+00 
89 1 2 1.0000000000000865e-01 2.2785344229947646e+00 1.0000000000000000e+00 7.0838338783884227e+00 1.0863681343752260e+01 4.2157071064174936e+00 
90 1 2 9.9999999999958192e-02 -1.3330885400523194e+00 1.0000000000000000e+00 8.0619974621124761e+00 1.0737786441176787e+01 5.1612846869902835e+00 
154 1 2 1.0000000000002371e-01 2.5188664251910406e+00 1.0000000000000000e+00 9.9596202458990923e+00 1.0598925670466748e+01 4.1811844406797745e+00 
291 1 2 1.0000000000000692e-01 -7.3001830064133577e-02 1.0000000000000000e+00 1.3327040369049953e+01 1.1693720156368791e+01 4.5737180500244055e+00 
99 1 2 9.9999999999965228e-02 1.5002949583782346e+00 1.0000000000000000e+00 8.3618231198873225e+00 1.2518604061826933e+01 4.6485836300045751e+00 
35 1 2 9.9999999999993830e-02 -5.3974122737092922e-01 1.0000000000000000e+00 8.3760825741117895e+00 1.2559827326052323e+01 4.5711311033490967e+00 
43 1 2 1.0000000000002593e-01 -6.8352728872697255e-01 1.0000000000000000e+00 7.6595755165792836e+00 1.3417613483594845e+01 5.0101235828865862e+00 
106 1 2 9.9999999999944647e-02 -3.2139966803390652e-01 1.0000000000000000e+00 8.1322361984882132e+00 1.4316606909801150e+01 4.1910706249335838e+00 
107 1 2 1.0000000000004215e-01 -2.2332266143942067e-01 1.0000000000000000e+00 8.3764950799543687e+00 1.4458917894975144e+01 5.0313742283517948e+00 
164 1 2 1.0000000000004443e-01 -4.8902211524379213e-01 1.0000000000000000e+00 1.0410425838173294e+01 1.4019077346609302e+01 5.0885626902233261e+00 
227 1 2 1.0000000000000306e-01 -1.5913410263470484e+00 1.0000000000000000e+00 1.0959420234348045e+01 1.4245438417433467e+01 5.1703267540100146e+00 
171 1 2 9.9999999999976566e-02 -4.8531659186029363e-01 1.0000000000000000e+00 9.9509058993640256e+00 1.4584708645138697e+01 4.2907766427439462e+00 
235 1 2 9.9999999999978398e-02 -7.8154628677477378e-01 1.0000000000000000e+00 1.0837538762538953e+01 1.5158821187210361e+01 4.4801730225083265e+00 
179 1 2 9.9999999999989236e-02 1.3665502617222742e+00 1.0000000000000000e+00 1.1218522240669925e+01 1.5852907973874212e+01 5.7004598803314614e+00 
115 1 2 1.0000000000002447e-01 -4.8320081237383641e-02 1.0000000000000000e+00 8.4203781066589087e+00 1.6200811207310799e+01 5.6546491785981496e+00 
243 1 2 1.0000000000004999e-01 4.3135706274004576e-01 1.0000000000000000e+00 1.1340219182034257e+01 1.7253064014977330e+01 4.9694753713221465e+00 
307 1 2 9.9999999999980480e-02 1.4151708172134594e-01 1.0000000000000000e+00 1.1764088582299504e+01 1.7428917734544846e+01 5.0466821033424427e+00 
242 1 2 1.0000000000002850e-01 1.7611340405832956e+00 1.0000000000000000e+00 1.1544913198612957e+01 1.8480455708288304e+01 4.9075441264471671e+00 