LAMMPS data file via write_data, version 30 Jul 2016, timestep = 50000000

3234 atoms
8 atom types

0.0000000000000000e+00 1.0000000000000000e+02 xlo xhi
0.0000000000000000e+00 4.0000000000000000e+01 ylo yhi
0.0000000000000000e+00 4.0000000000000000e+01 zlo zhi

Masses

1 3.896
2 5.36
3 20.064
4 8.378
5 8.378
6 8.378
7 8.378
8 8.378

Atoms # meso-molecular

388 389 2 1.0279999985719512e+00 1.1637760520547191e+02 1.0000000000000000e+00 1.2205438425752253e+00 1.0000000000000000e+01 1.6775087925856857e-01 
3 4 2 1.0279999993453492e+00 -3.1632869841789970e+03 1.0000000000000000e+00 3.1640682501459816e+00 1.0000000000000000e+01 1.4985593862983249e+00 
10 11 2 1.0280000035891499e+00 -2.0916606854042775e+03 1.0000000000000000e+00 4.8636664322961325e+00 1.0000000000000000e+01 1.3151305810911185e+00 
349 350 2 1.0280000019999984e+00 1.3146781919450857e+03 1.0000000000000000e+00 5.7242720174533286e+00 1.0000000000000000e+01 1.9123767677909412e-01 
350 351 2 1.0279999948739391e+00 -5.2789295066712043e+02 1.0000000000000000e+00 7.4054387812120739e+00 1.0000000000000000e+01 7.1158507171160212e-01 
18 19 2 1.0279999998514930e+00 -1.2585549435681437e+03 1.0000000000000000e+00 9.3981456791925879e+00 1.0000000000000000e+01 6.3925417173201315e-01 
16 17 2 1.0280000000794298e+00 -4.3724124960089046e+02 1.0000000000000000e+00 1.0372316016334393e+01 1.0000000000000000e+01 1.1018754252051959e+00 
395 396 2 1.0279999976496483e+00 2.4212633027001164e+02 1.0000000000000000e+00 1.4889975908422278e+01 1.0000000000000000e+01 3.8919078558592141e-01 
45 46 2 1.0280000043197242e+00 -6.2340246165521648e+02 1.0000000000000000e+00 1.5053183330708732e+01 1.0000000000000000e+01 1.6736738653261183e+00 
48 49 2 1.0280000022656199e+00 5.0208905555610659e+02 1.0000000000000000e+00 1.6521881855719148e+01 1.0000000000000000e+01 1.6360205422320595e+00 
306 307 2 1.0280000008347245e+00 -5.0148646677993636e-01 1.0000000000000000e+00 1.7930976884997438e+01 1.0000000000000000e+01 1.1067633308739895e+00 
220 221 2 1.0280000054365470e+00 -1.5543132495401996e+03 1.0000000000000000e+00 1.9323203901330608e+01 1.0000000000000000e+01 9.1179502073600247e-02 
89 90 2 1.0280000009884567e+00 1.6667190424548908e+03 1.0000000000000000e+00 2.0641612622103189e+01 1.0000000000000000e+01 1.7048816507968629e+00 
4 5 2 1.0280000008441761e+00 -1.7180305154713046e+03 1.0000000000000000e+00 2.2619427061995427e+01 1.0000000000000000e+01 1.1059962911885868e+00 
102 103 2 1.0280000011983399e+00 4.4656255337967468e+02 1.0000000000000000e+00 2.4114522478405263e+01 1.0000000000000000e+01 7.1604406392388176e-01 
185 186 2 1.0279999997185831e+00 8.0303700727986097e+02 1.0000000000000000e+00 2.5416427418227933e+01 1.0000000000000000e+01 8.3108818117827832e-01 
118 119 2 1.0280000001846912e+00 -2.4718801049376316e+03 1.0000000000000000e+00 2.7108247849080819e+01 1.0000000000000000e+01 3.2771482642419419e-01 
606 607 2 1.0279999999992913e+00 -9.8020934366358097e+02 1.0000000000000000e+00 1.2288844909220735e+00 1.3000000000000000e+01 1.5855079555385700e+00 
607 608 2 1.0280000000025225e+00 -7.7016243932809857e+01 1.0000000000000000e+00 1.7122522871098456e+00 1.3000000000000000e+01 2.2258379691181987e-01 
689 690 2 1.0280000000101963e+00 -1.0779891826493208e+03 1.0000000000000000e+00 2.9513832495179693e+00 1.3000000000000000e+01 6.4380003599728242e-01 
524 525 2 1.0279999999965606e+00 2.5694099182915638e+03 1.0000000000000000e+00 4.4358982490523458e+00 1.3000000000000000e+01 1.3663101384675129e+00 
816 817 2 1.0280000000116498e+00 3.8849286507384272e+02 1.0000000000000000e+00 5.8783998258403516e+00 1.3000000000000000e+01 1.0694479081657431e-01 
688 689 2 1.0280000000128822e+00 -1.3040310699908337e+03 1.0000000000000000e+00 7.1499900665560228e+00 1.3000000000000000e+01 1.1559878522884319e+00 
600 601 2 1.0280000000038587e+00 -4.4388802061580350e+01 1.0000000000000000e+00 8.5171846767060924e+00 1.3000000000000000e+01 1.4380263129847246e+00 
679 680 2 1.0279999999941771e+00 -1.9199119254544937e+03 1.0000000000000000e+00 9.1209794551579559e+00 1.3000000000000000e+01 1.9821498364140866e-01 
589 590 2 1.0279999999910043e+00 -7.9107037199418869e+02 1.0000000000000000e+00 1.1163580762656109e+01 1.3000000000000000e+01 1.9730456362104007e-01 
673 674 2 1.0280000000021217e+00 -3.7156097909164623e+03 1.0000000000000000e+00 1.1230538960354499e+01 1.3000000000000000e+01 1.3753203063941515e+00 
509 510 2 1.0279999999757261e+00 -6.0380310489705016e+02 1.0000000000000000e+00 1.4607344252983147e+01 1.3000000000000000e+01 1.3072263695422215e+00 
666 667 2 1.0279999999833977e+00 4.9628900702177623e+02 1.0000000000000000e+00 1.5888132492243733e+01 1.3000000000000000e+01 2.5096452909596401e-01 
665 666 2 1.0280000000422449e+00 3.7152778898177576e+02 1.0000000000000000e+00 1.6706864639578246e+01 1.3000000000000000e+01 1.5123790769471228e+00 
578 579 2 1.0279999999493352e+00 7.0751219797525433e+00 1.0000000000000000e+00 1.8468393590505787e+01 1.3000000000000000e+01 5.7954276608906208e-01 
615 616 2 1.0279999999875387e+00 -3.8623470144310136e+02 1.0000000000000000e+00 2.0960864375790294e+01 1.3000000000000000e+01 9.0845582641976053e-01 
517 518 2 1.0280000000135523e+00 3.8908919324040589e+03 1.0000000000000000e+00 2.1945753481690105e+01 1.3000000000000000e+01 4.2683986935811175e-01 
518 519 2 1.0279999999745273e+00 3.4967763182684405e+02 1.0000000000000000e+00 2.3505836711799518e+01 1.3000000000000000e+01 1.7927181253597164e+00 
1232 1233 2 1.0280000020097178e+00 -1.1854151177894892e+03 1.0000000000000000e+00 1.7553029968693534e-01 1.6000000000000000e+01 2.1462242570881326e-01 
1189 1190 2 1.0279999950621990e+00 3.8717112016003810e+01 1.0000000000000000e+00 7.0459673735460260e-01 1.6000000000000000e+01 1.6213185253572391e+00 
1015 1016 2 1.0280000059654080e+00 -2.9240537390565930e+02 1.0000000000000000e+00 2.1853135355256899e+00 1.6000000000000000e+01 1.1616624076765580e+00 
1270 1271 2 1.0280000023523066e+00 -5.9042031465807938e+01 1.0000000000000000e+00 3.9550996676472998e+00 1.6000000000000000e+01 4.6443777899632405e-01 
1275 1276 2 1.0279999977599317e+00 1.8129693524440549e+03 1.0000000000000000e+00 5.6766455868807704e+00 1.6000000000000000e+01 2.0538954629963718e-01 
1273 1274 2 1.0280000006561014e+00 1.3160882080841393e+03 1.0000000000000000e+00 7.2861802436518497e+00 1.6000000000000000e+01 1.2388697221185455e-01 
1184 1185 2 1.0279999997815619e+00 5.5717694551732018e+02 1.0000000000000000e+00 9.3181885604903059e+00 1.6000000000000000e+01 3.6165207362219054e-01 
1185 1186 2 1.0280000001562131e+00 2.4175658011293099e+03 1.0000000000000000e+00 9.1423614402827837e+00 1.6000000000000000e+01 1.6802013727979346e+00 
943 944 2 1.0279999999397762e+00 6.2087857691897998e+03 1.0000000000000000e+00 1.0774607892707193e+01 1.6000000000000000e+01 2.2584734920070315e-01 
969 970 2 1.0279999999867595e+00 -6.2132889121243943e+02 1.0000000000000000e+00 1.3247224424660287e+01 1.6000000000000000e+01 1.7082965142909001e-01 
1028 1029 2 1.0279999997514779e+00 -7.3277677422154898e+02 1.0000000000000000e+00 1.2880896382563311e+01 1.6000000000000000e+01 1.4708434871240417e+00 
972 973 2 1.0280000015506383e+00 5.0000976137684745e+02 1.0000000000000000e+00 1.4744544773582055e+01 1.6000000000000000e+01 1.7603959484708502e+00 
1188 1189 2 1.0279999977437302e+00 -3.5827461906717656e+02 1.0000000000000000e+00 1.5995824426644715e+01 1.6000000000000000e+01 1.7920266572244430e+00 
1064 1065 2 1.0280000010967085e+00 -1.1855549642043561e+03 1.0000000000000000e+00 1.8317878612558555e+01 1.6000000000000000e+01 1.2696704085118524e+00 
1336 1337 2 1.0280000000000027e+00 3.6614405038333905e+02 1.0000000000000000e+00 2.9932764795089231e+01 1.6000000000000000e+01 1.0514618584525645e-01 
1615 1616 2 1.0280000000091232e+00 -2.1835051537189802e+03 1.0000000000000000e+00 5.0160526933556115e-01 1.9000000000000000e+01 1.6718728816663644e+00 
1566 1567 2 1.0279999999809035e+00 -4.0089518442222993e+02 1.0000000000000000e+00 1.9965858447060043e+00 1.9000000000000000e+01 9.9534803290753604e-01 
1610 1611 2 1.0279999999894183e+00 -2.3512374868349962e+03 1.0000000000000000e+00 4.9748877642427614e+00 1.9000000000000000e+01 8.2466568101560267e-01 
1612 1613 2 1.0280000000046139e+00 -1.3047746151386395e+03 1.0000000000000000e+00 3.7127833649332955e+00 1.9000000000000000e+01 1.3230271141056820e+00 
1740 1741 2 1.0279999999854008e+00 3.8897554498625902e+02 1.0000000000000000e+00 6.7657533860135102e+00 1.9000000000000000e+01 1.4456838462328752e+00 
1611 1612 2 1.0280000000083114e+00 -1.7278800296144937e+03 1.0000000000000000e+00 7.2427455760846593e+00 1.9000000000000000e+01 1.8035873745406289e-01 
1394 1395 2 1.0280000000030691e+00 1.8650817088354120e+03 1.0000000000000000e+00 8.8075710432064902e+00 1.9000000000000000e+01 1.2750748129304952e+00 
1519 1520 2 1.0279999999880052e+00 -7.1921997781272285e+02 1.0000000000000000e+00 9.9459690710407518e+00 1.9000000000000000e+01 7.1553735481347414e-01 
1530 1531 2 1.0280000000173626e+00 -9.7960126872269825e+02 1.0000000000000000e+00 1.2079772111323980e+01 1.9000000000000000e+01 8.1359939422049876e-01 
1448 1449 2 1.0280000000024245e+00 2.5682477611091081e+03 1.0000000000000000e+00 1.5615038011491343e+01 1.9000000000000000e+01 1.3895811905196518e+00 
1523 1524 2 1.0280000000069447e+00 -1.9396773585753219e+03 1.0000000000000000e+00 1.6299023673952469e+01 1.9000000000000000e+01 2.5991763869942208e-01 
1435 1436 2 1.0279999999981977e+00 -8.5254997935076187e+02 1.0000000000000000e+00 1.8109418151566405e+01 1.9000000000000000e+01 4.2726649860846716e-01 
1431 1432 2 1.0280000000050591e+00 -6.2284348897805557e+02 1.0000000000000000e+00 1.9073415883304655e+01 1.9000000000000000e+01 1.6920082077001726e+00 
1434 1435 2 1.0279999999971645e+00 4.9902900246680258e+02 1.0000000000000000e+00 2.0184195462264796e+01 1.9000000000000000e+01 9.7940866757041889e-01 
1521 1522 2 1.0279999999922476e+00 -3.2391363259549498e+03 1.0000000000000000e+00 2.3204731685886582e+01 1.9000000000000000e+01 2.6052279700790754e-01 
1488 1489 2 1.0280000000134863e+00 4.4617136974428604e+02 1.0000000000000000e+00 2.3953706452805662e+01 1.9000000000000000e+01 1.6003550966738338e+00 
1400 1401 2 1.0279999999919209e+00 -4.2496186562304240e+02 1.0000000000000000e+00 2.5006696848876746e+01 1.9000000000000000e+01 2.2124882651737551e-01 
1525 1526 2 1.0280000000066587e+00 1.5097925083955846e+02 1.0000000000000000e+00 2.5947814353965750e+01 1.9000000000000000e+01 1.6046475213579916e+00 
1782 1783 2 1.0279999999966301e+00 4.0880086592578016e+02 1.0000000000000000e+00 2.7065663218609007e+01 1.9000000000000000e+01 3.4392377067197405e-01 
91 92 2 1.0280000017824960e+00 -2.9487393916679315e+02 1.0000000000000000e+00 1.4814423592949002e+00 1.0000000000000000e+01 1.8955837462794924e+00 
428 429 2 1.0279999974180873e+00 1.7758895675480262e+03 1.0000000000000000e+00 1.5980125676021324e+00 1.0000000000000000e+01 3.3646744171000038e+00 
52 53 2 1.0280000018327013e+00 2.8094352074253271e+02 1.0000000000000000e+00 3.4142259235539174e+00 1.0000000000000000e+01 2.8705097417473064e+00 
98 99 2 1.0280000026821570e+00 -6.4295482107434805e+02 1.0000000000000000e+00 5.2050182540424190e+00 1.0000000000000000e+01 3.3927135017892391e+00 
12 13 2 1.0279999972994140e+00 9.0359433767760765e+02 1.0000000000000000e+00 6.0319541328293278e+00 1.0000000000000000e+01 2.3067638737200586e+00 
392 393 2 1.0280000047811713e+00 5.8110325049438103e+01 1.0000000000000000e+00 8.0224862346113088e+00 1.0000000000000000e+01 2.0904474648263394e+00 
391 392 2 1.0279999968872129e+00 3.7639984402891923e+03 1.0000000000000000e+00 8.9907045871099207e+00 1.0000000000000000e+01 3.1630906709365640e+00 
273 274 2 1.0279999972368574e+00 2.4602058087914480e+02 1.0000000000000000e+00 1.0645282769846638e+01 1.0000000000000000e+01 2.8148075036133617e+00 
282 283 2 1.0280000126915119e+00 1.0911499513640551e+02 1.0000000000000000e+00 1.3441594493412572e+01 1.0000000000000000e+01 2.8977666507545496e+00 
264 265 2 1.0280000005538874e+00 -3.5711341408566375e+02 1.0000000000000000e+00 1.8336942533695879e+01 1.0000000000000000e+01 2.5021669647148959e+00 
49 50 2 1.0280000003307472e+00 -8.5511717254229552e+02 1.0000000000000000e+00 1.9626209324509876e+01 1.0000000000000000e+01 2.6842145193857352e+00 
46 47 2 1.0280000003783634e+00 -1.0954600386717730e+03 1.0000000000000000e+00 2.2069356553739887e+01 1.0000000000000000e+01 2.1926200905894522e+00 
482 483 2 1.0280000000061127e+00 1.0159747675967906e+03 1.0000000000000000e+00 1.5446293268535607e+00 1.3000000000000000e+01 2.9125760372802012e+00 
650 651 2 1.0279999999813629e+00 -6.0885314519612010e+01 1.0000000000000000e+00 3.4228382941698619e+00 1.3000000000000000e+01 2.9207602303096447e+00 
651 652 2 1.0280000000192131e+00 -9.6121036817654364e+00 1.0000000000000000e+00 4.9192086813053617e+00 1.3000000000000000e+01 2.7505961440368312e+00 
567 568 2 1.0279999999824017e+00 1.6871533937826443e+03 1.0000000000000000e+00 6.7655581006524903e+00 1.3000000000000000e+01 2.6561805825889957e+00 
479 480 2 1.0280000000237173e+00 -3.2564874248358828e+03 1.0000000000000000e+00 9.0749829792870784e+00 1.3000000000000000e+01 3.3442645257964321e+00 
675 676 2 1.0279999999872342e+00 3.2894134061734567e+03 1.0000000000000000e+00 1.1624032917453745e+01 1.3000000000000000e+01 2.8886676117398475e+00 
593 594 2 1.0280000000028517e+00 1.1270482274803683e+03 1.0000000000000000e+00 1.5120274231218209e+01 1.3000000000000000e+01 2.8649405051912376e+00 
581 582 2 1.0280000000115379e+00 2.6105050477112727e+03 1.0000000000000000e+00 1.7175589987188740e+01 1.3000000000000000e+01 2.7356256286783673e+00 
660 661 2 1.0280000000310094e+00 -1.0328041127385728e+02 1.0000000000000000e+00 1.8628946404324676e+01 1.3000000000000000e+01 3.5077179918992187e+00 
597 598 2 1.0279999999301783e+00 -3.2387726601603190e+03 1.0000000000000000e+00 1.9768686296676186e+01 1.3000000000000000e+01 2.3618549758812093e+00 
596 597 2 1.0280000000049232e+00 -7.7787638124135447e+02 1.0000000000000000e+00 2.0302959393623905e+01 1.3000000000000000e+01 3.4664319919240416e+00 
565 566 2 1.0280000000484999e+00 2.4216714003134821e+03 1.0000000000000000e+00 2.2407928980453146e+01 1.3000000000000000e+01 2.1123171527978530e+00 
822 823 2 1.0280000000665064e+00 2.4661998727648252e+03 1.0000000000000000e+00 2.5071132878250189e+01 1.3000000000000000e+01 2.3387081370606424e+00 
486 487 2 1.0279999999427920e+00 5.6725145719537977e+03 1.0000000000000000e+00 2.6263985675967842e+01 1.3000000000000000e+01 2.4176353686082210e+00 
1190 1191 2 1.0279999982250863e+00 1.5264325646124221e+03 1.0000000000000000e+00 1.8786240252469510e+00 1.6000000000000000e+01 2.9680204300243744e+00 
1352 1353 2 1.0279999979420935e+00 1.7774507416786382e+03 1.0000000000000000e+00 3.1211371863271813e+00 1.6000000000000000e+01 3.5342857422678970e+00 
927 928 2 1.0280000003161487e+00 -3.1628860005848310e+03 1.0000000000000000e+00 4.4923982794033455e+00 1.6000000000000000e+01 2.7481257542483655e+00 
934 935 2 1.0279999972108402e+00 -2.0912877374523682e+03 1.0000000000000000e+00 5.4605445347258419e+00 1.6000000000000000e+01 1.9340555722415778e+00 
1316 1317 2 1.0279999970218412e+00 5.9153432935706888e+01 1.0000000000000000e+00 6.8626535342958883e+00 1.6000000000000000e+01 2.9720950206264951e+00 
1276 1277 2 1.0280000016124229e+00 5.3336268548655619e+02 1.0000000000000000e+00 8.7436859634567519e+00 1.6000000000000000e+01 3.0277549899618506e+00 
1070 1071 2 1.0279999996035529e+00 7.4625959586604063e+02 1.0000000000000000e+00 1.1354097145073744e+01 1.6000000000000000e+01 1.8504623861212557e+00 
997 998 2 1.0280000008600667e+00 2.9764666430379557e+03 1.0000000000000000e+00 1.0900182947277779e+01 1.6000000000000000e+01 3.1005740362080219e+00 
1372 1373 2 1.0279999982174399e+00 -3.3277425942113928e+02 1.0000000000000000e+00 1.3780527777165002e+01 1.6000000000000000e+01 3.0556193183037563e+00 
973 974 2 1.0280000024278269e+00 -8.5559780396031715e+02 1.0000000000000000e+00 1.6500520263165107e+01 1.6000000000000000e+01 3.3104232430087674e+00 
1013 1014 2 1.0280000002389142e+00 1.6667412191844746e+03 1.0000000000000000e+00 1.7713943719075097e+01 1.6000000000000000e+01 2.4552832013654200e+00 
945 946 2 1.0279999986322255e+00 -5.2890946624488806e+03 1.0000000000000000e+00 2.0248018206965202e+01 1.6000000000000000e+01 2.2671721270041263e+00 
977 978 2 1.0280000012042909e+00 2.2027453057596240e+03 1.0000000000000000e+00 2.0880535102440174e+01 1.6000000000000000e+01 2.9891182465986312e+00 
1613 1614 2 1.0280000000123319e+00 -1.0776448318316175e+03 1.0000000000000000e+00 1.8071609827395276e+00 1.9000000000000000e+01 2.6568019248294967e+00 
1734 1735 2 1.0280000000079494e+00 -1.1107321603849789e+02 1.0000000000000000e+00 3.3063261404607593e+00 1.9000000000000000e+01 3.3545055949479110e+00 
1654 1655 2 1.0279999999890537e+00 1.9028909886830456e+03 1.0000000000000000e+00 4.5488040750018497e+00 1.9000000000000000e+01 2.6232591079634680e+00 
1574 1575 2 1.0280000000111174e+00 -5.9144287526293468e+01 1.0000000000000000e+00 6.3233527372756928e+00 1.9000000000000000e+01 2.8525466129486245e+00 
1658 1659 2 1.0279999999920202e+00 1.5123335924107968e+02 1.0000000000000000e+00 9.2596382167605604e+00 1.9000000000000000e+01 2.7824843816267326e+00 
1826 1827 2 1.0280000000060332e+00 1.4487712912530133e+03 1.0000000000000000e+00 1.1113652933075217e+01 1.9000000000000000e+01 2.3530140403217210e+00 
1698 1699 2 1.0279999999890352e+00 -1.5843013475158914e+03 1.0000000000000000e+00 1.1670614561081463e+01 1.9000000000000000e+01 3.5575256954322172e+00 
1406 1407 2 1.0279999999792637e+00 1.0190365002738861e+03 1.0000000000000000e+00 1.2681110916911507e+01 1.9000000000000000e+01 1.8200061437307080e+00 
1403 1404 2 1.0279999999938838e+00 -3.2569622767938854e+03 1.0000000000000000e+00 1.7385527084085322e+01 1.9000000000000000e+01 2.1022455970489928e+00 
1491 1492 2 1.0280000000039597e+00 1.6868854436632487e+03 1.0000000000000000e+00 1.6283182541022388e+01 1.9000000000000000e+01 2.6949506606753997e+00 
1571 1572 2 1.0279999999902592e+00 8.0277250529608204e+02 1.0000000000000000e+00 2.4992677552238145e+01 1.9000000000000000e+01 2.5208702506460003e+00 
266 267 2 1.0280000003611407e+00 1.5281205774639636e+03 1.0000000000000000e+00 9.0940131731265850e-01 1.0000000000000000e+01 4.5983809812076029e+00 
430 431 2 1.0280000003682692e+00 -2.0958691469826827e+03 1.0000000000000000e+00 3.3710683474481837e+00 1.0000000000000000e+01 4.4058076531284760e+00 
340 341 2 1.0279999979713810e+00 2.3915707577428520e+03 1.0000000000000000e+00 4.7639277629705443e+00 1.0000000000000000e+01 4.9422802139459652e+00 
100 101 2 1.0280000024952738e+00 4.1967793132897827e+02 1.0000000000000000e+00 6.4952702449079291e+00 1.0000000000000000e+01 4.7889401506901486e+00 
177 178 2 1.0280000005538943e+00 2.3450037407839263e+03 1.0000000000000000e+00 7.2912832194096078e+00 1.0000000000000000e+01 3.6825291106654037e+00 
176 177 2 1.0280000015985575e+00 5.1107331437755994e+02 1.0000000000000000e+00 8.6506509433635461e+00 1.0000000000000000e+01 4.9964201337846825e+00 
261 262 2 1.0280000036698473e+00 2.4198114863581509e+03 1.0000000000000000e+00 1.0067946738050638e+01 1.0000000000000000e+01 4.5425053288701589e+00 
187 188 2 1.0280000046550679e+00 5.8801787217136746e+02 1.0000000000000000e+00 1.1626989468765114e+01 1.0000000000000000e+01 3.7245064707665478e+00 
27 28 2 1.0279999954777534e+00 -4.5272987450742949e+02 1.0000000000000000e+00 1.1522888395212041e+01 1.0000000000000000e+01 5.3714619876415703e+00 
281 282 2 1.0279999905656616e+00 1.2414225809243953e+03 1.0000000000000000e+00 1.3600237873118763e+01 1.0000000000000000e+01 3.9061066062601464e+00 
902 903 2 1.0279999999932192e+00 1.4465146737298328e+03 1.0000000000000000e+00 1.3332636151523947e+00 1.3000000000000000e+01 4.3331019744083346e+00 
734 735 2 1.0280000000027865e+00 1.5084017346653187e+02 1.0000000000000000e+00 1.1434142283228918e-01 1.3000000000000000e+01 5.1134476353908100e+00 
729 730 2 1.0280000000128084e+00 4.9338449514468812e+02 1.0000000000000000e+00 3.3216628591424362e+00 1.3000000000000000e+01 4.3110701605448769e+00 
860 861 2 1.0279999999793177e+00 2.1223935660852417e+03 1.0000000000000000e+00 5.2915915193690157e+00 1.3000000000000000e+01 4.4899799501273172e+00 
774 775 2 1.0280000000225107e+00 -1.5815382139099174e+03 1.0000000000000000e+00 6.7177664272101278e+00 1.3000000000000000e+01 3.9514264533104226e+00 
480 481 2 1.0279999999768059e+00 -1.2584116213179495e+03 1.0000000000000000e+00 9.0482071122310153e+00 1.3000000000000000e+01 4.4711258329436712e+00 
470 471 2 1.0280000000096474e+00 1.8633548850455636e+03 1.0000000000000000e+00 1.0761690524677315e+01 1.3000000000000000e+01 3.6913891782855432e+00 
507 508 2 1.0280000000126959e+00 -6.2122905641803163e+02 1.0000000000000000e+00 1.2020751950071206e+01 1.3000000000000000e+01 5.3722049589965479e+00 
632 633 2 1.0279999999853113e+00 1.2322604229537433e+03 1.0000000000000000e+00 1.3327119430606810e+01 1.3000000000000000e+01 4.9884048896837498e+00 
591 592 2 1.0279999999876985e+00 -5.8221781933136555e+01 1.0000000000000000e+00 1.4111015684696198e+01 1.3000000000000000e+01 3.6392700781859157e+00 
633 634 2 1.0280000000095812e+00 6.0665478071498001e+02 1.0000000000000000e+00 1.4970777489838927e+01 1.3000000000000000e+01 5.2823025295078159e+00 
508 509 2 1.0280000000106537e+00 -1.0950332935355914e+03 1.0000000000000000e+00 1.6273089647477963e+01 1.3000000000000000e+01 4.2955560989073067e+00 
476 477 2 1.0279999999668237e+00 -4.1991291946986701e+02 1.0000000000000000e+00 1.7574872043565190e+01 1.3000000000000000e+01 4.6604449334943752e+00 
528 529 2 1.0279999999438787e+00 -3.8718912612548088e+01 1.0000000000000000e+00 2.0441513342514945e+01 1.3000000000000000e+01 5.2380013893568549e+00 
864 865 2 1.0280000000633893e+00 9.4395795148851946e+01 1.0000000000000000e+00 2.5870275467702555e+01 1.3000000000000000e+01 4.0303911872350433e+00 
473 474 2 1.0279999999856950e+00 -2.6851094159502454e+03 1.0000000000000000e+00 2.7574238567506182e+01 1.3000000000000000e+01 3.7478154334624483e+00 
483 484 2 1.0279999999956897e+00 -5.2832182624514371e+03 1.0000000000000000e+00 2.6470251786822384e+01 1.3000000000000000e+01 5.2297985890576504e+00 
475 476 2 1.0280000000186180e+00 2.3435316664477527e+03 1.0000000000000000e+00 2.8208593341162747e+01 1.3000000000000000e+01 4.8197358574659850e+00 
1143 1144 2 1.0280000030692447e+00 8.1482958673310395e+02 1.0000000000000000e+00 1.1528262390860216e+00 1.6000000000000000e+01 4.3965637682451222e+00 
1354 1355 2 1.0279999995364792e+00 -2.0974087170168468e+03 1.0000000000000000e+00 4.3599825470719136e+00 1.6000000000000000e+01 4.8009610397022877e+00 
936 937 2 1.0280000033823473e+00 9.0343323198780627e+02 1.0000000000000000e+00 6.0488523254501878e+00 1.6000000000000000e+01 3.8469419410970915e+00 
1315 1316 2 1.0279999974738123e+00 3.7643281523460892e+03 1.0000000000000000e+00 8.2421462986627798e+00 1.6000000000000000e+01 4.3683339862166886e+00 
1100 1101 2 1.0280000029329488e+00 5.1311364323817349e+02 1.0000000000000000e+00 9.8890194531338942e+00 1.6000000000000000e+01 4.7614537974780413e+00 
1212 1213 2 1.0279999971671072e+00 3.9068961686468219e+02 1.0000000000000000e+00 1.1405551242798207e+01 1.6000000000000000e+01 4.6188980042405330e+00 
949 950 2 1.0280000020394664e+00 -5.9806390130277180e+02 1.0000000000000000e+00 1.2585658038260513e+01 1.6000000000000000e+01 3.7835598821686505e+00 
1102 1103 2 1.0280000004669561e+00 6.4067026719663295e+02 1.0000000000000000e+00 1.4929564123465596e+01 1.6000000000000000e+01 4.3331210306220775e+00 
1061 1062 2 1.0279999979768304e+00 -1.9439798524855246e+03 1.0000000000000000e+00 1.6011559946827706e+01 1.6000000000000000e+01 4.8201015128936762e+00 
1077 1078 2 1.0279999993472524e+00 -3.8668298336056887e+02 1.0000000000000000e+00 1.8779435065077326e+01 1.6000000000000000e+01 5.0375480834812238e+00 
935 936 2 1.0279999999629623e+00 -2.6846767727248625e+03 1.0000000000000000e+00 2.0556206155092276e+01 1.6000000000000000e+01 5.3611279392130449e+00 
981 982 2 1.0280000005522536e+00 1.3337071348365939e+03 1.0000000000000000e+00 2.2067496240877517e+01 1.6000000000000000e+01 4.8179118261665481e+00 
1531 1532 2 1.0279999999809233e+00 -7.8842349834169966e+01 1.0000000000000000e+00 1.3866096195150770e+00 1.9000000000000000e+01 4.1212378715635332e+00 
1780 1781 2 1.0279999999974752e+00 1.2854820337087435e+03 1.0000000000000000e+00 4.1984875779862234e+00 1.9000000000000000e+01 4.6212613522790900e+00 
1823 1824 2 1.0279999999801617e+00 -3.2661700315858234e+03 1.0000000000000000e+00 6.9211116630208256e+00 1.9000000000000000e+01 4.0824882309636790e+00 
1818 1819 2 1.0280000000087093e+00 8.5498538358649034e+02 1.0000000000000000e+00 5.6838410939517301e+00 1.9000000000000000e+01 5.0561076350565006e+00 
1575 1576 2 1.0279999999947289e+00 -1.1984949670665355e+01 1.0000000000000000e+00 8.9586490506116530e+00 1.9000000000000000e+01 3.9960088286518256e+00 
1653 1654 2 1.0279999999964777e+00 4.9263184851991991e+02 1.0000000000000000e+00 9.4968131785234249e+00 1.9000000000000000e+01 5.4098171054410722e+00 
1616 1617 2 1.0280000000081109e+00 -3.1261284531815591e+03 1.0000000000000000e+00 1.2930841375110781e+01 1.9000000000000000e+01 4.2735556421783354e+00 
265 266 2 1.0279999952577807e+00 3.8440093198000817e+01 1.0000000000000000e+00 9.7107276177631363e-01 1.0000000000000000e+01 6.1036954435737893e+00 
384 385 2 1.0280000068321073e+00 5.1110408950842475e+02 1.0000000000000000e+00 2.5959661372139116e+00 1.0000000000000000e+01 5.8074592575399784e+00 
305 306 2 1.0279999958339925e+00 -1.9062515852556103e+03 1.0000000000000000e+00 2.7629017561774605e+00 1.0000000000000000e+01 7.1854206857541607e+00 
262 263 2 1.0280000028740852e+00 6.7926475972397770e+02 1.0000000000000000e+00 4.3609750927458961e+00 1.0000000000000000e+01 7.0430488458484310e+00 
339 340 2 1.0279999995467815e+00 7.5383452597929750e+02 1.0000000000000000e+00 5.7375126934198697e+00 1.0000000000000000e+01 6.3187017358272266e+00 
96 97 2 1.0280000000101310e+00 -1.1443931548034580e+02 1.0000000000000000e+00 8.6210012443671360e+00 1.0000000000000000e+01 6.4443317135592411e+00 
97 98 2 1.0280000017477053e+00 1.3140833368279809e+03 1.0000000000000000e+00 7.3294785681628039e+00 1.0000000000000000e+01 6.5655880057605245e+00 
352 353 2 1.0280000044311493e+00 5.3212001607334969e+02 1.0000000000000000e+00 1.0584922118870352e+01 1.0000000000000000e+01 7.0672756667637282e+00 
263 264 2 1.0279999989122528e+00 4.2578055134407236e+02 1.0000000000000000e+00 1.1938589317588965e+01 1.0000000000000000e+01 7.2527596255668909e+00 
146 147 2 1.0280000042089168e+00 7.4987629526627200e+02 1.0000000000000000e+00 1.2877168903094743e+01 1.0000000000000000e+01 5.8121517110253684e+00 
22 23 2 1.0279999965860680e+00 -5.2561951493280967e+03 1.0000000000000000e+00 1.4066467110592590e+01 1.0000000000000000e+01 6.7143105822692890e+00 
773 774 2 1.0280000000146687e+00 -4.3631454022443415e+02 1.0000000000000000e+00 1.4716999936622379e+00 1.3000000000000000e+01 6.1605240651091320e+00 
819 820 2 1.0279999999770388e+00 1.9976015296930104e+03 1.0000000000000000e+00 2.9474741446228783e+00 1.3000000000000000e+01 5.7343361584066326e+00 
818 819 2 1.0280000000180884e+00 -1.7410797137807699e+03 1.0000000000000000e+00 4.7350372814999702e+00 1.3000000000000000e+01 5.7579957262232089e+00 
722 723 2 1.0279999999900697e+00 5.5254263077428652e+02 1.0000000000000000e+00 6.4351113519827816e+00 1.3000000000000000e+01 6.4482774331856367e+00 
478 479 2 1.0280000000080611e+00 -4.3763183469813453e+02 1.0000000000000000e+00 7.6550750030967851e+00 1.3000000000000000e+01 5.5870653587954395e+00 
692 693 2 1.0280000000162743e+00 -3.1278086501615835e+03 1.0000000000000000e+00 8.3125531573575113e+00 1.3000000000000000e+01 6.8613637414811528e+00 
529 530 2 1.0279999999686547e+00 7.0852543392999473e+02 1.0000000000000000e+00 1.0934885664458585e+01 1.3000000000000000e+01 6.2128440026017957e+00 
799 800 2 1.0279999999954752e+00 -1.3100824588369351e+03 1.0000000000000000e+00 1.5786171631841036e+01 1.3000000000000000e+01 6.4228500325049813e+00 
631 632 2 1.0280000000101057e+00 -4.9683891039842871e+02 1.0000000000000000e+00 1.7152007981079883e+01 1.3000000000000000e+01 6.5338294074529246e+00 
555 556 2 1.0279999999919858e+00 -2.5187517854286070e+03 1.0000000000000000e+00 1.8794813839494847e+01 1.3000000000000000e+01 7.2582650121872527e+00 
858 859 2 1.0280000000287028e+00 4.1226585670562218e+02 1.0000000000000000e+00 1.9299219690819147e+01 1.3000000000000000e+01 5.5525225256385822e+00 
536 537 2 1.0280000000114633e+00 2.2698508644032240e+03 1.0000000000000000e+00 2.1495306743588330e+01 1.3000000000000000e+01 6.7044377669354525e+00 
771 772 2 1.0280000000403982e+00 2.1765813469321536e+01 1.0000000000000000e+00 2.6179788677923799e+01 1.3000000000000000e+01 6.8319565403695233e+00 
525 526 2 1.0279999999973377e+00 1.1525778410850226e+03 1.0000000000000000e+00 2.9614753248112766e+01 1.3000000000000000e+01 5.6637150150101139e+00 
871 872 2 1.0280000000003759e+00 3.0097777653249850e+03 1.0000000000000000e+00 2.8802368395727935e+01 1.3000000000000000e+01 7.0150705878028168e+00 
779 780 2 1.0280000000017124e+00 9.2608894418221666e+02 1.0000000000000000e+00 3.0138896409335484e+01 1.3000000000000000e+01 6.9271288155281070e+00 
1178 1179 2 1.0279999982214965e+00 1.3822656175973593e+03 1.0000000000000000e+00 7.8429741952003085e-01 1.6000000000000000e+01 5.5838622990455500e+00 
1308 1309 2 1.0279999985336861e+00 5.1088812036970103e+02 1.0000000000000000e+00 2.9489325074999044e+00 1.6000000000000000e+01 5.4624442361518044e+00 
1301 1302 2 1.0280000001730825e+00 6.1633349058711542e+02 1.0000000000000000e+00 2.9288914199825351e+00 1.6000000000000000e+01 6.9446568443203098e+00 
1265 1266 2 1.0280000023161047e+00 1.6189159721619271e+03 1.0000000000000000e+00 4.3948463187492131e+00 1.6000000000000000e+01 6.2692687440878583e+00 
976 977 2 1.0279999964107185e+00 2.7993534371876524e+02 1.0000000000000000e+00 6.0703744593079021e+00 1.6000000000000000e+01 5.6933972114813090e+00 