LAMMPS data file via write_data, version 30 Jul 2016, timestep = 100400000

212 atoms
8 atom types

0.0000000000000000e+00 2.0000000000000000e+01 xlo xhi
0.0000000000000000e+00 2.0000000000000000e+01 ylo yhi
0.0000000000000000e+00 2.0000000000000000e+01 zlo zhi

Masses

1 3.896
2 5.36
3 20.064
4 1.047
5 1.047
6 1.047
7 1.047
8 1.047

Atoms # meso-molecular

1 2 4 3.6694520491757809e-01 -4.3694424731702817e+01 1.0000000000000000e+00 0.0000000000000000e+00 0.0000000000000000e+00 5.0000000000000000e-01 
2 2 4 5.6182747704930946e-01 -3.4004032702794660e+01 1.0000000000000000e+00 0.0000000000000000e+00 1.2000000000000000e+00 5.0000000000000000e-01 
3 2 4 6.1935416938047794e-01 -3.2315942444850208e+01 1.0000000000000000e+00 0.0000000000000000e+00 2.3999999999999999e+00 5.0000000000000000e-01 
18 2 4 5.3814533767224015e-01 -3.8260251023239483e+01 1.0000000000000000e+00 2.0000000000000000e+00 0.0000000000000000e+00 5.0000000000000000e-01 
19 2 4 1.0081373787163816e+00 5.4813242980466015e-01 1.0000000000000000e+00 2.0000000000000000e+00 1.2000000000000000e+00 5.0000000000000000e-01 
20 2 4 1.1485497175441159e+00 -1.5331802884538410e+01 1.0000000000000000e+00 2.0000000000000000e+00 2.3999999999999999e+00 5.0000000000000000e-01 
790 2 1 9.3428791544959733e-01 -1.7562408395649680e+02 1.0000000000000000e+00 1.9989026606721705e+00 2.1260566659485152e+00 4.9952505731788682e-01 
808 2 1 9.3428686790316118e-01 -1.7264468980716435e+02 1.0000000000000000e+00 1.9986781640454307e+00 2.1253946631569032e+00 4.9926431098600399e-01 
322 2 1 9.3428411715378723e-01 -1.2968278297818824e+02 1.0000000000000000e+00 2.0001423398798108e+00 2.1238536904669543e+00 4.9965069404618012e-01 
415 2 1 9.3428673201897960e-01 -1.4058278348161261e+02 1.0000000000000000e+00 2.0017811236429583e+00 2.1257765756941489e+00 4.9892050177837777e-01 
801 2 1 9.3428733313032786e-01 -1.9011167255979785e+02 1.0000000000000000e+00 1.9990620118599816e+00 2.1256125111521231e+00 4.9957078057721127e-01 
723 2 1 9.3427910745957610e-01 -1.9074226289860988e+02 1.0000000000000000e+00 1.9996185763891763e+00 2.1219170279843818e+00 4.9902953281639267e-01 
35 2 4 3.6689645743996985e-01 -3.8958579871157660e+01 1.0000000000000000e+00 4.0000000000000000e+00 0.0000000000000000e+00 5.0000000000000000e-01 
36 2 4 5.6166656437703000e-01 -3.9101516973344856e+00 1.0000000000000000e+00 4.0000000000000000e+00 1.2000000000000000e+00 5.0000000000000000e-01 
37 2 4 6.1915705976393876e-01 -2.2299080315345044e+01 1.0000000000000000e+00 4.0000000000000000e+00 2.3999999999999999e+00 5.0000000000000000e-01 
52 2 4 3.2922910191030352e-01 -2.0491916044673673e+01 1.0000000000000000e+00 6.0000000000000000e+00 0.0000000000000000e+00 5.0000000000000000e-01 
53 2 4 3.7652897722361101e-01 3.0494812852291425e+01 1.0000000000000000e+00 6.0000000000000000e+00 1.2000000000000000e+00 5.0000000000000000e-01 
54 2 4 3.7652897722361095e-01 3.0100033711813201e+00 1.0000000000000000e+00 6.0000000000000000e+00 2.3999999999999999e+00 5.0000000000000000e-01 
4 2 4 4.8839725890282398e-01 -3.2638395345308474e+01 1.0000000000000000e+00 0.0000000000000000e+00 3.6000000000000001e+00 5.0000000000000000e-01 
5 2 4 3.8314111621193164e-01 -1.2692794192978031e+01 1.0000000000000000e+00 0.0000000000000000e+00 4.7999999999999998e+00 5.0000000000000000e-01 
6 2 4 3.7652897722361089e-01 -2.7910662398278014e+00 1.0000000000000000e+00 0.0000000000000000e+00 6.0000000000000000e+00 5.0000000000000000e-01 
21 2 4 8.1494825081392808e-01 -4.5329063024594099e+01 1.0000000000000000e+00 2.0000000000000000e+00 3.6000000000000001e+00 5.0000000000000000e-01 
22 2 4 4.4994995841365670e-01 -2.3284912352916567e+01 1.0000000000000000e+00 2.0000000000000000e+00 4.7999999999999998e+00 5.0000000000000000e-01 
23 2 4 3.7741696492198978e-01 -1.1210862963151138e+01 1.0000000000000000e+00 2.0000000000000000e+00 6.0000000000000000e+00 5.0000000000000000e-01 
38 2 4 4.8828703005451263e-01 -3.2156283960691155e+01 1.0000000000000000e+00 4.0000000000000000e+00 3.6000000000000001e+00 5.0000000000000000e-01 
39 2 4 3.8312790078280223e-01 -2.1617026027017939e+01 1.0000000000000000e+00 4.0000000000000000e+00 4.7999999999999998e+00 5.0000000000000000e-01 
40 2 4 3.7652897722361089e-01 -9.5756719986159027e+00 1.0000000000000000e+00 4.0000000000000000e+00 6.0000000000000000e+00 5.0000000000000000e-01 
55 2 4 3.7652897722361101e-01 -1.7833849633515393e+00 1.0000000000000000e+00 6.0000000000000000e+00 3.6000000000000001e+00 5.0000000000000000e-01 
56 2 4 3.7652897722361101e-01 6.9337128016273777e+00 1.0000000000000000e+00 6.0000000000000000e+00 4.7999999999999998e+00 5.0000000000000000e-01 
57 2 4 3.7652897722361089e-01 1.0268173950941378e+01 1.0000000000000000e+00 6.0000000000000000e+00 6.0000000000000000e+00 5.0000000000000000e-01 
7 2 4 3.9179479259846245e-01 -6.1633265068532701e+00 1.0000000000000000e+00 0.0000000000000000e+00 7.2000000000000002e+00 5.0000000000000000e-01 
8 2 4 5.0110316092117146e-01 -1.5513863413448231e+01 1.0000000000000000e+00 0.0000000000000000e+00 8.4000000000000004e+00 5.0000000000000000e-01 
9 2 4 5.8377299535242000e-01 -2.0495322335353734e+01 1.0000000000000000e+00 0.0000000000000000e+00 9.5999999999999996e+00 5.0000000000000000e-01 
24 2 4 4.8709754018650658e-01 -1.4934576486738798e+01 1.0000000000000000e+00 2.0000000000000000e+00 7.2000000000000002e+00 5.0000000000000000e-01 
25 2 4 8.2697023088019472e-01 -1.8828289577991665e+01 1.0000000000000000e+00 2.0000000000000000e+00 8.4000000000000004e+00 5.0000000000000000e-01 
26 2 4 1.0322081277092061e+00 -1.8499637497548065e+01 1.0000000000000000e+00 2.0000000000000000e+00 9.5999999999999996e+00 5.0000000000000000e-01 
543 2 1 8.0348149519528689e-01 -3.8835068413860348e+01 1.0000000000000000e+00 2.0010296799550833e+00 9.5974716571460643e+00 4.9983533204460595e-01 
803 2 1 8.0348107355452913e-01 -1.9745732474512256e+01 1.0000000000000000e+00 1.9993036522369685e+00 9.5973598715459296e+00 4.9913275879880026e-01 
554 2 1 8.0348148033705069e-01 -1.7388939398531015e+01 1.0000000000000000e+00 2.0010706271753222e+00 9.5971503112380301e+00 5.0003090097547820e-01 
653 2 1 8.0348111316482096e-01 -8.4143933089667328e+01 1.0000000000000000e+00 2.0022935186234676e+00 9.5968966182573858e+00 4.9983005706212108e-01 
652 2 1 8.0348144716751935e-01 -5.1625996778445867e+01 1.0000000000000000e+00 2.0002255386020589e+00 9.5974757479861896e+00 4.9954553492189174e-01 
59 2 4 3.7652897722361106e-01 2.4986178972961159e+00 1.0000000000000000e+00 6.0000000000000000e+00 8.4000000000000004e+00 5.0000000000000000e-01 
43 2 4 5.8420704259461864e-01 -3.3982592470854809e+00 1.0000000000000000e+00 4.0000000000000000e+00 9.5999999999999996e+00 5.0000000000000000e-01 
60 2 4 3.7652897722384482e-01 3.8003892920324494e+00 1.0000000000000000e+00 6.0000000000000000e+00 9.5999999999999996e+00 5.0000000000000000e-01 
42 2 4 5.0139954336731318e-01 5.6819881022152641e-01 1.0000000000000000e+00 4.0000000000000000e+00 8.4000000000000004e+00 5.0000000000000000e-01 
58 2 4 3.7652897722361089e-01 4.6505348569535556e+00 1.0000000000000000e+00 6.0000000000000000e+00 7.2000000000000002e+00 5.0000000000000000e-01 
41 2 4 3.9185623597827207e-01 2.6936185042246485e+00 1.0000000000000000e+00 4.0000000000000000e+00 7.2000000000000002e+00 5.0000000000000000e-01 
10 2 4 5.0048640096429953e-01 -1.5945218587256674e+01 1.0000000000000000e+00 0.0000000000000000e+00 1.0800000000000001e+01 5.0000000000000000e-01 
11 2 4 3.9154044889819378e-01 -7.4985890363147112e+00 1.0000000000000000e+00 0.0000000000000000e+00 1.2000000000000000e+01 5.0000000000000000e-01 
12 2 4 3.7652897722361089e-01 -5.0928375569949331e+00 1.0000000000000000e+00 0.0000000000000000e+00 1.3199999999999999e+01 5.0000000000000000e-01 
27 2 4 8.2535205930934286e-01 -1.1816065820853389e+01 1.0000000000000000e+00 2.0000000000000000e+00 1.0800000000000001e+01 5.0000000000000000e-01 
28 2 4 4.8597171577427217e-01 4.3648019426583406e+00 1.0000000000000000e+00 2.0000000000000000e+00 1.2000000000000000e+01 5.0000000000000000e-01 
29 2 4 3.7736157841465617e-01 8.3499007821357836e+00 1.0000000000000000e+00 2.0000000000000000e+00 1.3199999999999999e+01 5.0000000000000000e-01 
44 2 4 5.0078160071987288e-01 2.5546430677679310e-01 1.0000000000000000e+00 4.0000000000000000e+00 1.0800000000000001e+01 5.0000000000000000e-01 
45 2 4 3.9160106635320585e-01 7.8945898323277879e+00 1.0000000000000000e+00 4.0000000000000000e+00 1.2000000000000000e+01 5.0000000000000000e-01 
46 2 4 3.7654705048514703e-01 9.6242682736826914e+00 1.0000000000000000e+00 4.0000000000000000e+00 1.3199999999999999e+01 5.0000000000000000e-01 
61 2 4 3.7652897722361089e-01 9.4787235218823902e+00 1.0000000000000000e+00 6.0000000000000000e+00 1.0800000000000001e+01 5.0000000000000000e-01 
62 2 4 3.7652897722361123e-01 1.3855928800871414e+01 1.0000000000000000e+00 6.0000000000000000e+00 1.2000000000000000e+01 5.0000000000000000e-01 
63 2 4 3.7652897722361089e-01 7.3240561606996666e+00 1.0000000000000000e+00 6.0000000000000000e+00 1.3199999999999999e+01 5.0000000000000000e-01 
13 2 4 3.7652897722361089e-01 -6.6765331823828582e+00 1.0000000000000000e+00 0.0000000000000000e+00 1.4400000000000000e+01 5.0000000000000000e-01 
14 2 4 3.7652897722361089e-01 -1.0483797963355954e+01 1.0000000000000000e+00 0.0000000000000000e+00 1.5600000000000000e+01 5.0000000000000000e-01 
30 2 4 3.8264327036851792e-01 -4.3952485609264693e+00 1.0000000000000000e+00 2.0000000000000000e+00 1.4400000000000000e+01 5.0000000000000000e-01 
31 2 4 4.7254620103965789e-01 -1.2061555221968000e+01 1.0000000000000000e+00 2.0000000000000000e+00 1.5600000000000000e+01 5.0000000000000000e-01 
47 2 4 4.4115436097363692e-01 -5.1119084618209791e-02 1.0000000000000000e+00 4.0000000000000000e+00 1.4400000000000000e+01 5.0000000000000000e-01 
48 2 4 7.4900603962760104e-01 -1.1629174089655407e+01 1.0000000000000000e+00 4.0000000000000000e+00 1.5600000000000000e+01 5.0000000000000000e-01 
64 2 4 3.8257397442488716e-01 7.7566739089610592e-01 1.0000000000000000e+00 6.0000000000000000e+00 1.4400000000000000e+01 5.0000000000000000e-01 
65 2 4 4.7199862425463313e-01 -7.1557221585446893e+00 1.0000000000000000e+00 6.0000000000000000e+00 1.5600000000000000e+01 5.0000000000000000e-01 
15 2 4 3.7652897722361089e-01 -3.5721832632008388e+00 1.0000000000000000e+00 0.0000000000000000e+00 1.6800000000000001e+01 5.0000000000000000e-01 
16 2 4 3.7652897722361123e-01 -5.6164492177945147e-01 1.0000000000000000e+00 0.0000000000000000e+00 1.8000000000000000e+01 5.0000000000000000e-01 
17 2 4 3.2922910191030363e-01 -1.4303336821135275e+01 1.0000000000000000e+00 0.0000000000000000e+00 1.9199999999999999e+01 5.0000000000000000e-01 
32 2 4 5.8010236461594411e-01 -6.3368499029383401e+00 1.0000000000000000e+00 2.0000000000000000e+00 1.6800000000000001e+01 5.0000000000000000e-01 
33 2 4 5.2890669161625703e-01 8.0390937822948105e-01 1.0000000000000000e+00 2.0000000000000000e+00 1.8000000000000000e+01 5.0000000000000000e-01 
34 2 4 3.5914517541996893e-01 -1.3502889887648285e+01 1.0000000000000000e+00 2.0000000000000000e+00 1.9199999999999999e+01 5.0000000000000000e-01 
68 2 4 3.5891710646276864e-01 3.3147388914773512e+00 1.0000000000000000e+00 6.0000000000000000e+00 1.9199999999999999e+01 5.0000000000000000e-01 
67 2 4 5.2813248616168051e-01 4.3554654388009144e+00 1.0000000000000000e+00 6.0000000000000000e+00 1.8000000000000000e+01 5.0000000000000000e-01 
793 2 1 8.0319111454361147e-01 -9.4346535434991964e+01 1.0000000000000000e+00 3.9984515224548183e+00 1.7051833111047412e+01 4.9997138608247815e-01 
305 2 1 8.0319112953661820e-01 -2.4329030990527517e+01 1.0000000000000000e+00 3.9971550979085748e+00 1.7051657663075780e+01 5.0030963648753879e-01 
442 2 1 8.0318924246791490e-01 -4.2168223561776379e+01 1.0000000000000000e+00 3.9973742744239478e+00 1.7052890814278413e+01 4.9985445686657243e-01 
51 2 4 4.9747798091162571e-01 -3.5207172770045077e+00 1.0000000000000000e+00 4.0000000000000000e+00 1.9199999999999999e+01 5.0000000000000000e-01 
307 2 1 8.0319147505763733e-01 -9.0916739181725831e+01 1.0000000000000000e+00 3.9987066886634199e+00 1.7051499703058628e+01 4.9904401744229848e-01 
642 2 1 8.0318689044658953e-01 -2.7742465244993017e+01 1.0000000000000000e+00 3.9994749939879992e+00 1.7053956152151258e+01 4.9916471863726403e-01 
50 2 4 8.9694290822554301e-01 -5.1630009225607445e+00 1.0000000000000000e+00 4.0000000000000000e+00 1.8000000000000000e+01 5.0000000000000000e-01 
66 2 4 5.7914004527834906e-01 -1.8076141983389282e+00 1.0000000000000000e+00 6.0000000000000000e+00 1.6800000000000001e+01 5.0000000000000000e-01 
49 2 4 1.0218310372705750e+00 -1.4419655000871488e+01 1.0000000000000000e+00 4.0000000000000000e+00 1.6800000000000001e+01 5.0000000000000000e-01 
69 2 4 3.5902133936230407e-01 -2.7407339336200174e+01 1.0000000000000000e+00 8.0000000000000000e+00 0.0000000000000000e+00 5.0000000000000000e-01 
70 2 4 5.2868240727138716e-01 2.0242758127162972e+01 1.0000000000000000e+00 8.0000000000000000e+00 1.2000000000000000e+00 5.0000000000000000e-01 
71 2 4 5.8006711034953184e-01 -1.3894718478782238e+00 1.0000000000000000e+00 8.0000000000000000e+00 2.3999999999999999e+00 5.0000000000000000e-01 
393 2 1 8.0319200127649604e-01 -3.5376520654559265e+01 1.0000000000000000e+00 9.9994428475586510e+00 2.1486468394351128e+00 4.9972908095112900e-01 
771 2 1 8.0319225391600602e-01 -5.3409692988661867e+01 1.0000000000000000e+00 9.9986120105380873e+00 2.1487314224248686e+00 5.0035743441836211e-01 
694 2 1 8.0319272238586970e-01 -6.6249673660332533e+01 1.0000000000000000e+00 9.9981210079241940e+00 2.1489982958111185e+00 5.0009126735778231e-01 
219 2 1 8.0319450157435124e-01 -2.2224747787990626e+01 1.0000000000000000e+00 9.9982379507884005e+00 2.1502220997884991e+00 4.9933873962146985e-01 
630 2 1 8.0319276527504468e-01 -1.5063406481766345e+01 1.0000000000000000e+00 9.9983340178003299e+00 2.1490082184759043e+00 5.0003311997376121e-01 
86 2 4 4.9710029325778576e-01 -3.5166863120561004e+01 1.0000000000000000e+00 1.0000000000000000e+01 0.0000000000000000e+00 5.0000000000000000e-01 
87 2 4 8.9655405441312253e-01 1.0453161030613298e+01 1.0000000000000000e+00 1.0000000000000000e+01 1.2000000000000000e+00 5.0000000000000000e-01 
88 2 4 1.0219527712372671e+00 -1.1675438374796647e+01 1.0000000000000000e+00 1.0000000000000000e+01 2.3999999999999999e+00 5.0000000000000000e-01 
103 2 4 3.5883460905428272e-01 -2.1824834427567250e+01 1.0000000000000000e+00 1.2000000000000000e+01 0.0000000000000000e+00 5.0000000000000000e-01 
104 2 4 5.2804745915041673e-01 2.4333391220077452e+01 1.0000000000000000e+00 1.2000000000000000e+01 1.2000000000000000e+00 5.0000000000000000e-01 
105 2 4 5.7927718488031799e-01 -9.5970431385179272e-02 1.0000000000000000e+00 1.2000000000000000e+01 2.3999999999999999e+00 5.0000000000000000e-01 
72 2 4 4.7266478611531665e-01 -6.6795454187772696e-01 1.0000000000000000e+00 8.0000000000000000e+00 3.6000000000000001e+00 5.0000000000000000e-01 
73 2 4 3.8267590399966311e-01 8.4920969076607005e+00 1.0000000000000000e+00 8.0000000000000000e+00 4.7999999999999998e+00 5.0000000000000000e-01 
74 2 4 3.7652897722361089e-01 1.1288884051152264e+01 1.0000000000000000e+00 8.0000000000000000e+00 6.0000000000000000e+00 5.0000000000000000e-01 
89 2 4 7.4947007614782990e-01 -1.0671819486358521e+01 1.0000000000000000e+00 1.0000000000000000e+01 3.6000000000000001e+00 5.0000000000000000e-01 
90 2 4 4.4138232309974040e-01 2.3765767890622373e+00 1.0000000000000000e+00 1.0000000000000000e+01 4.7999999999999998e+00 5.0000000000000000e-01 
91 2 4 3.7654777373936782e-01 1.3038678517693340e+01 1.0000000000000000e+00 1.0000000000000000e+01 6.0000000000000000e+00 5.0000000000000000e-01 
106 2 4 4.7221483177178863e-01 6.1126968842584772e-01 1.0000000000000000e+00 1.2000000000000000e+01 3.6000000000000001e+00 5.0000000000000000e-01 
107 2 4 3.8261877482401518e-01 1.1600703868463382e+01 1.0000000000000000e+00 1.2000000000000000e+01 4.7999999999999998e+00 5.0000000000000000e-01 
108 2 4 3.9086388677609346e-01 8.2649345902406086e+00 1.0000000000000000e+00 1.2000000000000000e+01 6.0000000000000000e+00 5.0000000000000000e-01 
75 2 4 3.7652897722361089e-01 1.1157465595289938e+01 1.0000000000000000e+00 8.0000000000000000e+00 7.2000000000000002e+00 5.0000000000000000e-01 
76 2 4 3.7652897722361106e-01 9.3507054689986369e+00 1.0000000000000000e+00 8.0000000000000000e+00 8.4000000000000004e+00 5.0000000000000000e-01 
77 2 4 3.7652897722361089e-01 1.1545485710678472e+01 1.0000000000000000e+00 8.0000000000000000e+00 9.5999999999999996e+00 5.0000000000000000e-01 
111 2 4 5.0296332163413904e-01 7.3316417857870420e+00 1.0000000000000000e+00 1.2000000000000000e+01 9.5999999999999996e+00 5.0000000000000000e-01 
110 2 4 5.8393620551388303e-01 4.8350504744749907e+00 1.0000000000000000e+00 1.2000000000000000e+01 8.4000000000000004e+00 5.0000000000000000e-01 
94 2 4 3.7652897722361089e-01 1.4859166913889739e+01 1.0000000000000000e+00 1.0000000000000000e+01 9.5999999999999996e+00 5.0000000000000000e-01 
93 2 4 3.7652897722360962e-01 2.1304648853103696e+01 1.0000000000000000e+00 1.0000000000000000e+01 8.4000000000000004e+00 5.0000000000000000e-01 
92 2 4 3.7652897722361089e-01 2.1314738805172187e+01 1.0000000000000000e+00 1.0000000000000000e+01 7.2000000000000002e+00 5.0000000000000000e-01 
109 2 4 4.9887333970680825e-01 5.4682825272938134e+00 1.0000000000000000e+00 1.2000000000000000e+01 7.2000000000000002e+00 5.0000000000000000e-01 
78 2 4 3.7652897722361089e-01 2.2361475004300562e+01 1.0000000000000000e+00 8.0000000000000000e+00 1.0800000000000001e+01 5.0000000000000000e-01 
79 2 4 3.7652897722361123e-01 1.9755929230113200e+01 1.0000000000000000e+00 8.0000000000000000e+00 1.2000000000000000e+01 5.0000000000000000e-01 
80 2 4 3.7652897722361089e-01 4.5650769799488131e+00 1.0000000000000000e+00 8.0000000000000000e+00 1.3199999999999999e+01 5.0000000000000000e-01 
95 2 4 3.7652897722361089e-01 1.3228796119730649e+01 1.0000000000000000e+00 1.0000000000000000e+01 1.0800000000000001e+01 5.0000000000000000e-01 
96 2 4 3.7652897722361123e-01 9.9019429117553628e+00 1.0000000000000000e+00 1.0000000000000000e+01 1.2000000000000000e+01 5.0000000000000000e-01 
97 2 4 3.7654141644998629e-01 2.9986533800403894e+00 1.0000000000000000e+00 1.0000000000000000e+01 1.3199999999999999e+01 5.0000000000000000e-01 
112 2 4 3.9255168085956144e-01 1.2882801546575894e+01 1.0000000000000000e+00 1.2000000000000000e+01 1.0800000000000001e+01 5.0000000000000000e-01 
113 2 4 3.7652897722361123e-01 1.5666338579845158e+01 1.0000000000000000e+00 1.2000000000000000e+01 1.2000000000000000e+01 5.0000000000000000e-01 
114 2 4 3.7652897722361089e-01 9.1376683363849516e+00 1.0000000000000000e+00 1.2000000000000000e+01 1.3199999999999999e+01 5.0000000000000000e-01 
81 2 4 3.8319557401382204e-01 -3.8624290999662687e+00 1.0000000000000000e+00 8.0000000000000000e+00 1.4400000000000000e+01 5.0000000000000000e-01 
82 2 4 4.8848095886309262e-01 -9.4096547002330020e+00 1.0000000000000000e+00 8.0000000000000000e+00 1.5600000000000000e+01 5.0000000000000000e-01 
98 2 4 4.5055167151769199e-01 -7.9754450099743157e-01 1.0000000000000000e+00 1.0000000000000000e+01 1.4400000000000000e+01 5.0000000000000000e-01 
99 2 4 8.1621232534890720e-01 -5.7540361299722660e+00 1.0000000000000000e+00 1.0000000000000000e+01 1.5600000000000000e+01 5.0000000000000000e-01 
115 2 4 3.8327189091199504e-01 -2.0760732710007312e+00 1.0000000000000000e+00 1.2000000000000000e+01 1.4400000000000000e+01 5.0000000000000000e-01 
116 2 4 4.8911214335018954e-01 -1.1417880687249964e+01 1.0000000000000000e+00 1.2000000000000000e+01 1.5600000000000000e+01 5.0000000000000000e-01 
83 2 4 6.1884373886617339e-01 -1.4822264678003437e+01 1.0000000000000000e+00 8.0000000000000000e+00 1.6800000000000001e+01 5.0000000000000000e-01 
84 2 4 5.6087301900159159e-01 -7.5011895350701643e+00 1.0000000000000000e+00 8.0000000000000000e+00 1.8000000000000000e+01 5.0000000000000000e-01 
85 2 4 3.6649409076523420e-01 -1.5871380771675359e+00 1.0000000000000000e+00 8.0000000000000000e+00 1.9199999999999999e+01 5.0000000000000000e-01 
331 2 1 9.3428536378360927e-01 -7.1132040244822335e+01 1.0000000000000000e+00 9.9987883685251067e+00 1.7073881243688685e+01 5.0132755987170419e-01 
324 2 1 9.3429221223366743e-01 -5.0865905022725762e+01 1.0000000000000000e+00 1.0003760460840686e+01 1.7070974718801665e+01 5.0023417244728330e-01 
323 2 1 9.3429294217835901e-01 -7.7041222063161626e+01 1.0000000000000000e+00 1.0002520241043108e+01 1.7070789892615029e+01 4.9963308413660112e-01 
247 2 1 9.3428748705261855e-01 -5.5478025944665617e+01 1.0000000000000000e+00 1.0003615582485404e+01 1.7073105443551668e+01 5.0260526832759378e-01 
225 2 1 9.3429360244881388e-01 -5.5769982607411869e+01 1.0000000000000000e+00 1.0000179121278078e+01 1.7070203245837323e+01 5.0098549344499943e-01 
253 2 1 9.3429105569781035e-01 -5.9665253536164336e+01 1.0000000000000000e+00 1.0001499121463755e+01 1.7072157605889604e+01 5.0044652815312718e-01 
117 2 4 6.1996934792314096e-01 -9.3280001398702606e+00 1.0000000000000000e+00 1.2000000000000000e+01 1.6800000000000001e+01 5.0000000000000000e-01 
101 2 4 1.0070924368191276e+00 -1.1088937039120093e+01 1.0000000000000000e+00 1.0000000000000000e+01 1.8000000000000000e+01 5.0000000000000000e-01 
100 2 4 1.1489072032225933e+00 -5.1799280714272786e+00 1.0000000000000000e+00 1.0000000000000000e+01 1.6800000000000001e+01 5.0000000000000000e-01 
118 2 4 5.6178982568346103e-01 -2.2125315658618323e+00 1.0000000000000000e+00 1.2000000000000000e+01 1.8000000000000000e+01 5.0000000000000000e-01 
102 2 4 5.3710106791942591e-01 -7.7613537653188196e+00 1.0000000000000000e+00 1.0000000000000000e+01 1.9199999999999999e+01 5.0000000000000000e-01 
119 2 4 3.6677061740275391e-01 5.0312413627114534e+00 1.0000000000000000e+00 1.2000000000000000e+01 1.9199999999999999e+01 5.0000000000000000e-01 
120 2 4 3.5242184197872012e-01 -2.4368938874684538e+01 1.0000000000000000e+00 1.4000000000000000e+01 0.0000000000000000e+00 5.0000000000000000e-01 
121 2 4 4.9706421436730114e-01 8.9770616744656788e+00 1.0000000000000000e+00 1.4000000000000000e+01 1.2000000000000000e+00 5.0000000000000000e-01 
122 2 4 5.3913120740333353e-01 -5.9477668024165027e+00 1.0000000000000000e+00 1.4000000000000000e+01 2.3999999999999999e+00 5.0000000000000000e-01 
137 2 4 4.6158844019045175e-01 -2.5907164504536588e+01 1.0000000000000000e+00 1.6000000000000000e+01 0.0000000000000000e+00 5.0000000000000000e-01 
138 2 4 7.9053817683889582e-01 1.8249342325061182e+01 1.0000000000000000e+00 1.6000000000000000e+01 1.2000000000000000e+00 5.0000000000000000e-01 
139 2 4 8.9347965296640797e-01 -1.0055394323734362e+01 1.0000000000000000e+00 1.6000000000000000e+01 2.3999999999999999e+00 5.0000000000000000e-01 
491 2 1 6.7207246258686060e-01 -2.5010274141606100e+01 1.0000000000000000e+00 1.6000097107474051e+01 2.1587370965415404e+00 4.9994282284506342e-01 
572 2 1 6.7207210864879041e-01 -9.2136280752209700e+01 1.0000000000000000e+00 1.6000843700903566e+01 2.1584819744543573e+00 4.9992530598154189e-01 
688 2 1 6.7207211856762217e-01 -4.3675557089100586e+01 1.0000000000000000e+00 1.6001886805389429e+01 2.1585881116485401e+00 4.9999799109071724e-01 
345 2 1 6.7207289497619560e-01 -9.1816072182672102e+01 1.0000000000000000e+00 1.6000276172298133e+01 2.1590054462620922e+00 4.9966088639259726e-01 
154 2 4 3.5250044981640605e-01 -2.8171858370601250e+01 1.0000000000000000e+00 1.8000000000000000e+01 0.0000000000000000e+00 5.0000000000000000e-01 
155 2 4 4.9733463721015447e-01 -5.3341700955084823e+00 1.0000000000000000e+00 1.8000000000000000e+01 1.2000000000000000e+00 5.0000000000000000e-01 
156 2 4 5.3946966003850982e-01 -1.1764547416666135e+01 1.0000000000000000e+00 1.8000000000000000e+01 2.3999999999999999e+00 5.0000000000000000e-01 
123 2 4 4.5402368825269118e-01 2.4711586917252815e+00 1.0000000000000000e+00 1.4000000000000000e+01 3.6000000000000001e+00 5.0000000000000000e-01 
124 2 4 3.8233068341862081e-01 1.3479000474019831e+01 1.0000000000000000e+00 1.4000000000000000e+01 4.7999999999999998e+00 5.0000000000000000e-01 
125 2 4 4.8283725587499388e-01 8.6662470931601323e+00 1.0000000000000000e+00 1.4000000000000000e+01 6.0000000000000000e+00 5.0000000000000000e-01 
140 2 4 6.7726925917837755e-01 -1.0783036334632076e+01 1.0000000000000000e+00 1.6000000000000000e+01 3.6000000000000001e+00 5.0000000000000000e-01 
141 2 4 4.2959446721299505e-01 4.2260961733657672e+00 1.0000000000000000e+00 1.6000000000000000e+01 4.7999999999999998e+00 5.0000000000000000e-01 
142 2 4 3.9089157800365809e-01 5.7876191506207455e+00 1.0000000000000000e+00 1.6000000000000000e+01 6.0000000000000000e+00 5.0000000000000000e-01 
157 2 4 4.5421784084352834e-01 -6.2747354264765898e+00 1.0000000000000000e+00 1.8000000000000000e+01 3.6000000000000001e+00 5.0000000000000000e-01 
158 2 4 3.8163895427723077e-01 1.4058959992547364e+00 1.0000000000000000e+00 1.8000000000000000e+01 4.7999999999999998e+00 5.0000000000000000e-01 
159 2 4 3.7652897722361089e-01 1.7252507800413341e+00 1.0000000000000000e+00 1.8000000000000000e+01 6.0000000000000000e+00 5.0000000000000000e-01 
126 2 4 8.2078405220289097e-01 1.2578095206862432e+00 1.0000000000000000e+00 1.4000000000000000e+01 7.2000000000000002e+00 5.0000000000000000e-01 
127 2 4 1.0321557793315552e+00 -6.1504423735180955e+00 1.0000000000000000e+00 1.4000000000000000e+01 8.4000000000000004e+00 5.0000000000000000e-01 
128 2 4 8.3150624394135020e-01 -2.8983788873393639e+00 1.0000000000000000e+00 1.4000000000000000e+01 9.5999999999999996e+00 5.0000000000000000e-01 
143 2 4 4.9891588416811827e-01 -1.2976291362579286e+00 1.0000000000000000e+00 1.6000000000000000e+01 7.2000000000000002e+00 5.0000000000000000e-01 
144 2 4 5.8399949341739721e-01 -5.4530799446907761e+00 1.0000000000000000e+00 1.6000000000000000e+01 8.4000000000000004e+00 5.0000000000000000e-01 
145 2 4 5.0300703989795081e-01 -1.2044764329486916e-01 1.0000000000000000e+00 1.6000000000000000e+01 9.5999999999999996e+00 5.0000000000000000e-01 
672 2 1 8.0348131216134577e-01 -2.6374927886940636e+01 1.0000000000000000e+00 1.3999578469799376e+01 8.4187053672259449e+00 4.9999725925558564e-01 
394 2 1 8.0348112330654653e-01 -6.8520868619794795e-01 1.0000000000000000e+00 1.3999281976589495e+01 8.4170468651300201e+00 4.9947926484050975e-01 
594 2 1 8.0348127047579276e-01 -3.8538833600747083e+01 1.0000000000000000e+00 1.3999630930848541e+01 8.4184998862824774e+00 4.9912509773782721e-01 
476 2 1 8.0348135124385900e-01 -3.0161561479311452e+01 1.0000000000000000e+00 1.4000059148065285e+01 8.4177086277304820e+00 5.0032120179264172e-01 
632 2 1 8.0348080954742196e-01 -9.5159766021418079e+01 1.0000000000000000e+00 1.4002021269763386e+01 8.4184627548227073e+00 4.9976050894246099e-01 
162 2 4 3.7652897722361089e-01 1.2254280213273288e+00 1.0000000000000000e+00 1.8000000000000000e+01 9.5999999999999996e+00 5.0000000000000000e-01 
161 2 4 3.7652897722375334e-01 5.5582150978029351e-03 1.0000000000000000e+00 1.8000000000000000e+01 8.4000000000000004e+00 5.0000000000000000e-01 
160 2 4 3.7652897722361089e-01 -3.1803235149348241e-01 1.0000000000000000e+00 1.8000000000000000e+01 7.2000000000000002e+00 5.0000000000000000e-01 
129 2 4 4.9029735015971093e-01 5.7492309649961797e+00 1.0000000000000000e+00 1.4000000000000000e+01 1.0800000000000001e+01 5.0000000000000000e-01 
130 2 4 3.7753913569375264e-01 1.0544135653351420e+01 1.0000000000000000e+00 1.4000000000000000e+01 1.2000000000000000e+01 5.0000000000000000e-01 
131 2 4 3.7652897722361089e-01 1.0253697739663751e+01 1.0000000000000000e+00 1.4000000000000000e+01 1.3199999999999999e+01 5.0000000000000000e-01 
146 2 4 3.9256099634821440e-01 2.1489185440641010e+00 1.0000000000000000e+00 1.6000000000000000e+01 1.0800000000000001e+01 5.0000000000000000e-01 
147 2 4 3.7652897722361123e-01 4.9178077577822989e+00 1.0000000000000000e+00 1.6000000000000000e+01 1.2000000000000000e+01 5.0000000000000000e-01 
148 2 4 3.7654089440043476e-01 6.4237345250280731e+00 1.0000000000000000e+00 1.6000000000000000e+01 1.3199999999999999e+01 5.0000000000000000e-01 
163 2 4 3.7652897722361089e-01 -1.4754060673752112e+00 1.0000000000000000e+00 1.8000000000000000e+01 1.0800000000000001e+01 5.0000000000000000e-01 
164 2 4 3.7652897722361123e-01 5.3111262806732307e-01 1.0000000000000000e+00 1.8000000000000000e+01 1.2000000000000000e+01 5.0000000000000000e-01 
165 2 4 3.7652897722361089e-01 1.6667712471331488e+00 1.0000000000000000e+00 1.8000000000000000e+01 1.3199999999999999e+01 5.0000000000000000e-01 
132 2 4 3.8318402275322827e-01 8.9113659904432314e+00 1.0000000000000000e+00 1.4000000000000000e+01 1.4400000000000000e+01 5.0000000000000000e-01 
133 2 4 4.8853573608994988e-01 3.4050070568283135e+00 1.0000000000000000e+00 1.4000000000000000e+01 1.5600000000000000e+01 5.0000000000000000e-01 
149 2 4 4.5030698281578041e-01 1.9720636332014791e+00 1.0000000000000000e+00 1.6000000000000000e+01 1.4400000000000000e+01 5.0000000000000000e-01 
150 2 4 8.1569978346137328e-01 -4.3103381928886657e+00 1.0000000000000000e+00 1.6000000000000000e+01 1.5600000000000000e+01 5.0000000000000000e-01 
166 2 4 3.8320235248730194e-01 -1.1819035708481411e+00 1.0000000000000000e+00 1.8000000000000000e+01 1.4400000000000000e+01 5.0000000000000000e-01 
167 2 4 4.8868791487458318e-01 -5.5593084491887392e+00 1.0000000000000000e+00 1.8000000000000000e+01 1.5600000000000000e+01 5.0000000000000000e-01 
310 2 1 9.3429041020303205e-01 -7.1089514140637078e+01 1.0000000000000000e+00 1.6001246634518736e+01 1.7073014832111532e+01 4.9994815715979668e-01 
303 2 1 9.3429078533627996e-01 -6.6910852946165917e+01 1.0000000000000000e+00 1.6000684105263002e+01 1.7072851067053467e+01 4.9973258663403891e-01 
469 2 1 9.3428875449743276e-01 -3.4724591082074587e+00 1.0000000000000000e+00 1.5999567803430425e+01 1.7073825965786650e+01 5.0075800010603944e-01 
317 2 1 9.3428922751337995e-01 -5.6017858993956139e+01 1.0000000000000000e+00 1.6000885455916201e+01 1.7073683469535894e+01 5.0041655025282805e-01 