LAMMPS data file via write_data, version 30 Jul 2016, timestep = 100000000

212 atoms
8 atom types

0.0000000000000000e+00 2.0000000000000000e+01 xlo xhi
0.0000000000000000e+00 2.0000000000000000e+01 ylo yhi
0.0000000000000000e+00 2.0000000000000000e+01 zlo zhi

Masses

1 3.896
2 5.36
3 20.064
4 1.047
5 1.047
6 1.047
7 1.047
8 1.047

Atoms # meso-molecular

1 2 4 3.6681007169294255e-01 -4.3685802525312454e+01 1.0000000000000000e+00 0.0000000000000000e+00 0.0000000000000000e+00 5.0000000000000000e-01 
2 2 4 5.6172499354363470e-01 -3.4001515407193317e+01 1.0000000000000000e+00 0.0000000000000000e+00 1.2000000000000000e+00 5.0000000000000000e-01 
3 2 4 6.1965016807957440e-01 -3.2322003770482979e+01 1.0000000000000000e+00 0.0000000000000000e+00 2.3999999999999999e+00 5.0000000000000000e-01 
18 2 4 5.3747907988235855e-01 -3.8242635192244371e+01 1.0000000000000000e+00 2.0000000000000000e+00 0.0000000000000000e+00 5.0000000000000000e-01 
19 2 4 1.0074715135603380e+00 5.5169423798655348e-01 1.0000000000000000e+00 2.0000000000000000e+00 1.2000000000000000e+00 5.0000000000000000e-01 
20 2 4 1.1487788572339619e+00 -1.5331055569957709e+01 1.0000000000000000e+00 2.0000000000000000e+00 2.3999999999999999e+00 5.0000000000000000e-01 
790 2 1 9.3429176380514456e-01 -1.7562407851653586e+02 1.0000000000000000e+00 1.9998570108819018e+00 2.1282085453268689e+00 4.9960318082380123e-01 
808 2 1 9.3428889600603426e-01 -1.7264467869350545e+02 1.0000000000000000e+00 2.0015022736070875e+00 2.1270116110263384e+00 4.9988944063359364e-01 
322 2 1 9.3428866545843947e-01 -1.2968277445519863e+02 1.0000000000000000e+00 1.9982843639283172e+00 2.1263778093699330e+00 4.9942084059961261e-01 
415 2 1 9.3429068820752759e-01 -1.4058279639593377e+02 1.0000000000000000e+00 1.9975790926228600e+00 2.1276952848767370e+00 5.0021825455721425e-01 
801 2 1 9.3429170712079412e-01 -1.9011164619840355e+02 1.0000000000000000e+00 1.9985882502855878e+00 2.1281236358118272e+00 4.9951656041608261e-01 
723 2 1 9.3428319279092908e-01 -1.9074226887011068e+02 1.0000000000000000e+00 1.9986985702093372e+00 2.1241306730442138e+00 5.0013958816590398e-01 
35 2 4 3.6666310897181048e-01 -3.8943677529457631e+01 1.0000000000000000e+00 4.0000000000000000e+00 0.0000000000000000e+00 5.0000000000000000e-01 
36 2 4 5.6123879081610373e-01 -3.8996273460817061e+00 1.0000000000000000e+00 4.0000000000000000e+00 1.2000000000000000e+00 5.0000000000000000e-01 
37 2 4 6.1905390173179276e-01 -2.2296964522422591e+01 1.0000000000000000e+00 4.0000000000000000e+00 2.3999999999999999e+00 5.0000000000000000e-01 
52 2 4 3.2922910191030352e-01 -2.0491916044673673e+01 1.0000000000000000e+00 6.0000000000000000e+00 0.0000000000000000e+00 5.0000000000000000e-01 
53 2 4 3.7652897722361101e-01 3.0494812852291425e+01 1.0000000000000000e+00 6.0000000000000000e+00 1.2000000000000000e+00 5.0000000000000000e-01 
54 2 4 3.7652897722361095e-01 3.0100033711813201e+00 1.0000000000000000e+00 6.0000000000000000e+00 2.3999999999999999e+00 5.0000000000000000e-01 
4 2 4 4.8879888812129263e-01 -3.2651541302454810e+01 1.0000000000000000e+00 0.0000000000000000e+00 3.6000000000000001e+00 5.0000000000000000e-01 
5 2 4 3.8321776781218347e-01 -1.2698977758473191e+01 1.0000000000000000e+00 0.0000000000000000e+00 4.7999999999999998e+00 5.0000000000000000e-01 
6 2 4 3.7652897722361089e-01 -2.7910662398278014e+00 1.0000000000000000e+00 0.0000000000000000e+00 6.0000000000000000e+00 5.0000000000000000e-01 
21 2 4 8.1575511510994814e-01 -4.5338908333370462e+01 1.0000000000000000e+00 2.0000000000000000e+00 3.6000000000000001e+00 5.0000000000000000e-01 
22 2 4 4.5033361631621593e-01 -2.3300178616677886e+01 1.0000000000000000e+00 2.0000000000000000e+00 4.7999999999999998e+00 5.0000000000000000e-01 
23 2 4 3.7737580045257518e-01 -1.1205472612587050e+01 1.0000000000000000e+00 2.0000000000000000e+00 6.0000000000000000e+00 5.0000000000000000e-01 
38 2 4 4.8846497867941607e-01 -3.2162112873290411e+01 1.0000000000000000e+00 4.0000000000000000e+00 3.6000000000000001e+00 5.0000000000000000e-01 
39 2 4 3.8317756295103222e-01 -2.1621035206497464e+01 1.0000000000000000e+00 4.0000000000000000e+00 4.7999999999999998e+00 5.0000000000000000e-01 
40 2 4 3.7652897722361089e-01 -9.5756719986159027e+00 1.0000000000000000e+00 4.0000000000000000e+00 6.0000000000000000e+00 5.0000000000000000e-01 
55 2 4 3.7652897722361101e-01 -1.7833849633515393e+00 1.0000000000000000e+00 6.0000000000000000e+00 3.6000000000000001e+00 5.0000000000000000e-01 
56 2 4 3.7652897722361101e-01 6.9337128016273777e+00 1.0000000000000000e+00 6.0000000000000000e+00 4.7999999999999998e+00 5.0000000000000000e-01 
57 2 4 3.7652897722361089e-01 1.0268173950941378e+01 1.0000000000000000e+00 6.0000000000000000e+00 6.0000000000000000e+00 5.0000000000000000e-01 
7 2 4 3.9155044163044189e-01 -6.1461288102662692e+00 1.0000000000000000e+00 0.0000000000000000e+00 7.2000000000000002e+00 5.0000000000000000e-01 
8 2 4 5.0050337610435303e-01 -1.5492638311495082e+01 1.0000000000000000e+00 0.0000000000000000e+00 8.4000000000000004e+00 5.0000000000000000e-01 
9 2 4 5.8375125500794145e-01 -2.0494724684303652e+01 1.0000000000000000e+00 0.0000000000000000e+00 9.5999999999999996e+00 5.0000000000000000e-01 
24 2 4 4.8602972855590737e-01 -1.4894679014854541e+01 1.0000000000000000e+00 2.0000000000000000e+00 7.2000000000000002e+00 5.0000000000000000e-01 
25 2 4 8.2543573713599516e-01 -1.8801280089897084e+01 1.0000000000000000e+00 2.0000000000000000e+00 8.4000000000000004e+00 5.0000000000000000e-01 
26 2 4 1.0322083933495640e+00 -1.8499641193123693e+01 1.0000000000000000e+00 2.0000000000000000e+00 9.5999999999999996e+00 5.0000000000000000e-01 
543 2 1 8.0348152146376917e-01 -3.8835075140380205e+01 1.0000000000000000e+00 2.0005841870631040e+00 9.6025837981501070e+00 4.9936846103252969e-01 
803 2 1 8.0348138530122137e-01 -1.9745761053636894e+01 1.0000000000000000e+00 1.9998669815423236e+00 9.6023690073552075e+00 4.9945525958760606e-01 
554 2 1 8.0348147704476680e-01 -1.7388935969361953e+01 1.0000000000000000e+00 2.0015561852279844e+00 9.6025635285547963e+00 4.9987507857144131e-01 
653 2 1 8.0348126760401206e-01 -8.4143951009436122e+01 1.0000000000000000e+00 2.0021201355008595e+00 9.6020001311983929e+00 4.9983673690385433e-01 
652 2 1 8.0348147732610187e-01 -5.1626000826052426e+01 1.0000000000000000e+00 2.0001898818788653e+00 9.6027194558599849e+00 4.9969354909767860e-01 
59 2 4 3.7652897722361106e-01 2.4986178972961159e+00 1.0000000000000000e+00 6.0000000000000000e+00 8.4000000000000004e+00 5.0000000000000000e-01 
43 2 4 5.8422896890461784e-01 -3.3988613183541054e+00 1.0000000000000000e+00 4.0000000000000000e+00 9.5999999999999996e+00 5.0000000000000000e-01 
60 2 4 3.7652897722381906e-01 3.8003892924785139e+00 1.0000000000000000e+00 6.0000000000000000e+00 9.5999999999999996e+00 5.0000000000000000e-01 
42 2 4 5.0082841407975986e-01 5.8838760934005752e-01 1.0000000000000000e+00 4.0000000000000000e+00 8.4000000000000004e+00 5.0000000000000000e-01 
58 2 4 3.7652897722361089e-01 4.6505348569535556e+00 1.0000000000000000e+00 6.0000000000000000e+00 7.2000000000000002e+00 5.0000000000000000e-01 
41 2 4 3.9161725642446754e-01 2.7104210753872184e+00 1.0000000000000000e+00 4.0000000000000000e+00 7.2000000000000002e+00 5.0000000000000000e-01 
10 2 4 5.0105643950444423e-01 -1.5965394351667996e+01 1.0000000000000000e+00 0.0000000000000000e+00 1.0800000000000001e+01 5.0000000000000000e-01 
11 2 4 3.9177852403193747e-01 -7.5153493325470313e+00 1.0000000000000000e+00 0.0000000000000000e+00 1.2000000000000000e+01 5.0000000000000000e-01 
12 2 4 3.7652897722361089e-01 -5.0928375569949331e+00 1.0000000000000000e+00 0.0000000000000000e+00 1.3199999999999999e+01 5.0000000000000000e-01 
27 2 4 8.2688674149340757e-01 -1.1843082067246240e+01 1.0000000000000000e+00 2.0000000000000000e+00 1.0800000000000001e+01 5.0000000000000000e-01 
28 2 4 4.8703924729726572e-01 4.3249057395366899e+00 1.0000000000000000e+00 2.0000000000000000e+00 1.2000000000000000e+01 5.0000000000000000e-01 
29 2 4 3.7740344362696238e-01 8.3442421555193889e+00 1.0000000000000000e+00 2.0000000000000000e+00 1.3199999999999999e+01 5.0000000000000000e-01 
44 2 4 5.0138249963407433e-01 2.3422132357312070e-01 1.0000000000000000e+00 4.0000000000000000e+00 1.0800000000000001e+01 5.0000000000000000e-01 
45 2 4 3.9184605264933603e-01 7.8773613892501269e+00 1.0000000000000000e+00 4.0000000000000000e+00 1.2000000000000000e+01 5.0000000000000000e-01 
46 2 4 3.7654718178086538e-01 9.6242244194370876e+00 1.0000000000000000e+00 4.0000000000000000e+00 1.3199999999999999e+01 5.0000000000000000e-01 
61 2 4 3.7652897722361089e-01 9.4787235218823902e+00 1.0000000000000000e+00 6.0000000000000000e+00 1.0800000000000001e+01 5.0000000000000000e-01 
62 2 4 3.7652897722361123e-01 1.3855928800871414e+01 1.0000000000000000e+00 6.0000000000000000e+00 1.2000000000000000e+01 5.0000000000000000e-01 
63 2 4 3.7652897722361089e-01 7.3240561606996666e+00 1.0000000000000000e+00 6.0000000000000000e+00 1.3199999999999999e+01 5.0000000000000000e-01 
13 2 4 3.7652897722361089e-01 -6.6765331823828582e+00 1.0000000000000000e+00 0.0000000000000000e+00 1.4400000000000000e+01 5.0000000000000000e-01 
14 2 4 3.7652897722361089e-01 -1.0483797963355954e+01 1.0000000000000000e+00 0.0000000000000000e+00 1.5600000000000000e+01 5.0000000000000000e-01 
30 2 4 3.8265004837802657e-01 -4.3958396746231800e+00 1.0000000000000000e+00 2.0000000000000000e+00 1.4400000000000000e+01 5.0000000000000000e-01 
31 2 4 4.7257440979751503e-01 -1.2062673874203025e+01 1.0000000000000000e+00 2.0000000000000000e+00 1.5600000000000000e+01 5.0000000000000000e-01 
47 2 4 4.4119633832767990e-01 -5.3057744562845718e-02 1.0000000000000000e+00 4.0000000000000000e+00 1.4400000000000000e+01 5.0000000000000000e-01 
48 2 4 7.4909158104548768e-01 -1.1630871939623109e+01 1.0000000000000000e+00 4.0000000000000000e+00 1.5600000000000000e+01 5.0000000000000000e-01 
64 2 4 3.8258144581832498e-01 7.7501656488013804e-01 1.0000000000000000e+00 6.0000000000000000e+00 1.4400000000000000e+01 5.0000000000000000e-01 
65 2 4 4.7203214833973506e-01 -7.1570524878828179e+00 1.0000000000000000e+00 6.0000000000000000e+00 1.5600000000000000e+01 5.0000000000000000e-01 
15 2 4 3.7652897722361089e-01 -3.5721832632008388e+00 1.0000000000000000e+00 0.0000000000000000e+00 1.6800000000000001e+01 5.0000000000000000e-01 
16 2 4 3.7652897722361123e-01 -5.6164492177945147e-01 1.0000000000000000e+00 0.0000000000000000e+00 1.8000000000000000e+01 5.0000000000000000e-01 
17 2 4 3.2922910191030363e-01 -1.4303336821135275e+01 1.0000000000000000e+00 0.0000000000000000e+00 1.9199999999999999e+01 5.0000000000000000e-01 
32 2 4 5.8010717949191848e-01 -6.3369845768368958e+00 1.0000000000000000e+00 2.0000000000000000e+00 1.6800000000000001e+01 5.0000000000000000e-01 
33 2 4 5.2887452630660647e-01 8.0494350644414936e-01 1.0000000000000000e+00 2.0000000000000000e+00 1.8000000000000000e+01 5.0000000000000000e-01 
34 2 4 3.5912508172852453e-01 -1.3501428653715575e+01 1.0000000000000000e+00 2.0000000000000000e+00 1.9199999999999999e+01 5.0000000000000000e-01 
68 2 4 3.5889914947753360e-01 3.3160458914233581e+00 1.0000000000000000e+00 6.0000000000000000e+00 1.9199999999999999e+01 5.0000000000000000e-01 
67 2 4 5.2810769710123040e-01 4.3562653584184403e+00 1.0000000000000000e+00 6.0000000000000000e+00 1.8000000000000000e+01 5.0000000000000000e-01 
793 2 1 8.0319089166305535e-01 -9.4346548782761360e+01 1.0000000000000000e+00 3.9987699579639853e+00 1.7052024463834488e+01 4.9973874453307487e-01 
305 2 1 8.0319018315102342e-01 -2.4329073525437028e+01 1.0000000000000000e+00 3.9985362394189155e+00 1.7052442715982952e+01 4.9943184727088547e-01 
442 2 1 8.0319181505922366e-01 -4.2168226040836934e+01 1.0000000000000000e+00 3.9973931552617654e+00 1.7051369718580766e+01 4.9987924266679717e-01 
51 2 4 4.9740832954515796e-01 -3.5182656136187065e+00 1.0000000000000000e+00 4.0000000000000000e+00 1.9199999999999999e+01 5.0000000000000000e-01 
307 2 1 8.0318797943493592e-01 -9.0916711244509287e+01 1.0000000000000000e+00 3.9972122518123738e+00 1.7053487330954564e+01 4.9953904882131578e-01 
642 2 1 8.0319206526146159e-01 -2.7742518175508376e+01 1.0000000000000000e+00 3.9993357454945944e+00 1.7051140743347212e+01 4.9979917724760248e-01 
50 2 4 8.9687127227954289e-01 -5.1618693281443075e+00 1.0000000000000000e+00 4.0000000000000000e+00 1.8000000000000000e+01 5.0000000000000000e-01 
66 2 4 5.7915410790665312e-01 -1.8080050225775981e+00 1.0000000000000000e+00 6.0000000000000000e+00 1.6800000000000001e+01 5.0000000000000000e-01 
49 2 4 1.0218535417010253e+00 -1.4419948842275899e+01 1.0000000000000000e+00 4.0000000000000000e+00 1.6800000000000001e+01 5.0000000000000000e-01 
69 2 4 3.5907009718983468e-01 -2.7410885046396881e+01 1.0000000000000000e+00 8.0000000000000000e+00 0.0000000000000000e+00 5.0000000000000000e-01 
70 2 4 5.2875796481371673e-01 2.0240326702165568e+01 1.0000000000000000e+00 8.0000000000000000e+00 1.2000000000000000e+00 5.0000000000000000e-01 
71 2 4 5.8004920630346002e-01 -1.3889744359931557e+00 1.0000000000000000e+00 8.0000000000000000e+00 2.3999999999999999e+00 5.0000000000000000e-01 
694 2 1 8.0319201569585297e-01 -6.6249662653823307e+01 1.0000000000000000e+00 9.9991426373542946e+00 2.1486660033222278e+00 5.0031672039846431e-01 
771 2 1 8.0319170719879984e-01 -5.3409658052218660e+01 1.0000000000000000e+00 9.9991165797540571e+00 2.1486126272920680e+00 4.9879984572208103e-01 
219 2 1 8.0318921797586074e-01 -2.2224741607102398e+01 1.0000000000000000e+00 9.9982839531650445e+00 2.1471094507329713e+00 5.0003351159337517e-01 
630 2 1 8.0319189912050393e-01 -1.5063373447903674e+01 1.0000000000000000e+00 9.9973706581422519e+00 2.1486755035319791e+00 5.0005181734214421e-01 
393 2 1 8.0319277455188198e-01 -3.5376510755681558e+01 1.0000000000000000e+00 9.9987326646975294e+00 2.1491257260412278e+00 5.0025840740187932e-01 
86 2 4 4.9727364360966958e-01 -3.5172969149685436e+01 1.0000000000000000e+00 1.0000000000000000e+01 0.0000000000000000e+00 5.0000000000000000e-01 
87 2 4 8.9673266938580198e-01 1.0450339061955184e+01 1.0000000000000000e+00 1.0000000000000000e+01 1.2000000000000000e+00 5.0000000000000000e-01 
88 2 4 1.0218970462624806e+00 -1.1674710864276998e+01 1.0000000000000000e+00 1.0000000000000000e+01 2.3999999999999999e+00 5.0000000000000000e-01 
103 2 4 3.5888047965321768e-01 -2.1828177288345291e+01 1.0000000000000000e+00 1.2000000000000000e+01 0.0000000000000000e+00 5.0000000000000000e-01 
104 2 4 5.2811386735948795e-01 2.4331249830905300e+01 1.0000000000000000e+00 1.2000000000000000e+01 1.2000000000000000e+00 5.0000000000000000e-01 
105 2 4 5.7924832884762956e-01 -9.5166972226538540e-02 1.0000000000000000e+00 1.2000000000000000e+01 2.3999999999999999e+00 5.0000000000000000e-01 
72 2 4 4.7259087952364226e-01 -6.6502797456767881e-01 1.0000000000000000e+00 8.0000000000000000e+00 3.6000000000000001e+00 5.0000000000000000e-01 
73 2 4 3.8265841926956140e-01 8.4936166606956061e+00 1.0000000000000000e+00 8.0000000000000000e+00 4.7999999999999998e+00 5.0000000000000000e-01 
74 2 4 3.7652897722361089e-01 1.1288884051152264e+01 1.0000000000000000e+00 8.0000000000000000e+00 6.0000000000000000e+00 5.0000000000000000e-01 
89 2 4 7.4925709486290226e-01 -1.0667594918242818e+01 1.0000000000000000e+00 1.0000000000000000e+01 3.6000000000000001e+00 5.0000000000000000e-01 
90 2 4 4.4127761361246115e-01 2.3814073493144017e+00 1.0000000000000000e+00 1.0000000000000000e+01 4.7999999999999998e+00 5.0000000000000000e-01 
91 2 4 3.7654743870210472e-01 1.3038789462608978e+01 1.0000000000000000e+00 1.0000000000000000e+01 6.0000000000000000e+00 5.0000000000000000e-01 
106 2 4 4.7213497580583796e-01 6.1443843838211976e-01 1.0000000000000000e+00 1.2000000000000000e+01 3.6000000000000001e+00 5.0000000000000000e-01 
107 2 4 3.8260064752697520e-01 1.1602283504009097e+01 1.0000000000000000e+00 1.2000000000000000e+01 4.7999999999999998e+00 5.0000000000000000e-01 
108 2 4 3.9115132371058314e-01 8.2444810944309559e+00 1.0000000000000000e+00 1.2000000000000000e+01 6.0000000000000000e+00 5.0000000000000000e-01 
75 2 4 3.7652897722361089e-01 1.1157465595289938e+01 1.0000000000000000e+00 8.0000000000000000e+00 7.2000000000000002e+00 5.0000000000000000e-01 
76 2 4 3.7652897722361106e-01 9.3507054689986369e+00 1.0000000000000000e+00 8.0000000000000000e+00 8.4000000000000004e+00 5.0000000000000000e-01 
77 2 4 3.7652897722361089e-01 1.1545485710678472e+01 1.0000000000000000e+00 8.0000000000000000e+00 9.5999999999999996e+00 5.0000000000000000e-01 
111 2 4 5.0249190880566552e-01 7.3482079342209250e+00 1.0000000000000000e+00 1.2000000000000000e+01 9.5999999999999996e+00 5.0000000000000000e-01 
110 2 4 5.8418565240269138e-01 4.8281932856587373e+00 1.0000000000000000e+00 1.2000000000000000e+01 8.4000000000000004e+00 5.0000000000000000e-01 
94 2 4 3.7652897722361089e-01 1.4859166913889739e+01 1.0000000000000000e+00 1.0000000000000000e+01 9.5999999999999996e+00 5.0000000000000000e-01 
93 2 4 3.7652897722383383e-01 2.1304648846837587e+01 1.0000000000000000e+00 1.0000000000000000e+01 8.4000000000000004e+00 5.0000000000000000e-01 
92 2 4 3.7652897722361089e-01 2.1314738805172187e+01 1.0000000000000000e+00 1.0000000000000000e+01 7.2000000000000002e+00 5.0000000000000000e-01 
109 2 4 4.9967151065662657e-01 5.4398769500694932e+00 1.0000000000000000e+00 1.2000000000000000e+01 7.2000000000000002e+00 5.0000000000000000e-01 
78 2 4 3.7652897722361089e-01 2.2361475004300562e+01 1.0000000000000000e+00 8.0000000000000000e+00 1.0800000000000001e+01 5.0000000000000000e-01 
79 2 4 3.7652897722361123e-01 1.9755929230113200e+01 1.0000000000000000e+00 8.0000000000000000e+00 1.2000000000000000e+01 5.0000000000000000e-01 
80 2 4 3.7652897722361089e-01 4.5650769799488131e+00 1.0000000000000000e+00 8.0000000000000000e+00 1.3199999999999999e+01 5.0000000000000000e-01 
95 2 4 3.7652897722361089e-01 1.3228796119730649e+01 1.0000000000000000e+00 1.0000000000000000e+01 1.0800000000000001e+01 5.0000000000000000e-01 
96 2 4 3.7652897722361123e-01 9.9019429117553628e+00 1.0000000000000000e+00 1.0000000000000000e+01 1.2000000000000000e+01 5.0000000000000000e-01 
97 2 4 3.7654144772460413e-01 2.9986426012099190e+00 1.0000000000000000e+00 1.0000000000000000e+01 1.3199999999999999e+01 5.0000000000000000e-01 
112 2 4 3.9231593231424439e-01 1.2899195696410608e+01 1.0000000000000000e+00 1.2000000000000000e+01 1.0800000000000001e+01 5.0000000000000000e-01 
113 2 4 3.7652897722361123e-01 1.5666338579845158e+01 1.0000000000000000e+00 1.2000000000000000e+01 1.2000000000000000e+01 5.0000000000000000e-01 
114 2 4 3.7652897722361089e-01 9.1376683363849516e+00 1.0000000000000000e+00 1.2000000000000000e+01 1.3199999999999999e+01 5.0000000000000000e-01 
81 2 4 3.8320225425911575e-01 -3.8629652139670734e+00 1.0000000000000000e+00 8.0000000000000000e+00 1.4400000000000000e+01 5.0000000000000000e-01 
82 2 4 4.8852698965273494e-01 -9.4111600471306751e+00 1.0000000000000000e+00 8.0000000000000000e+00 1.5600000000000000e+01 5.0000000000000000e-01 
98 2 4 4.5056609525569902e-01 -7.9811635887326526e-01 1.0000000000000000e+00 1.0000000000000000e+01 1.4400000000000000e+01 5.0000000000000000e-01 
99 2 4 8.1624267759798586e-01 -5.7544052413764364e+00 1.0000000000000000e+00 1.0000000000000000e+01 1.5600000000000000e+01 5.0000000000000000e-01 
115 2 4 3.8326987736563345e-01 -2.0759144212890357e+00 1.0000000000000000e+00 1.2000000000000000e+01 1.4400000000000000e+01 5.0000000000000000e-01 
116 2 4 4.8908750383717758e-01 -1.1417078335320483e+01 1.0000000000000000e+00 1.2000000000000000e+01 1.5600000000000000e+01 5.0000000000000000e-01 
83 2 4 6.1890985082366057e-01 -1.4823619118877087e+01 1.0000000000000000e+00 8.0000000000000000e+00 1.6800000000000001e+01 5.0000000000000000e-01 
84 2 4 5.6091383263603023e-01 -7.5021950445977073e+00 1.0000000000000000e+00 8.0000000000000000e+00 1.8000000000000000e+01 5.0000000000000000e-01 
85 2 4 3.6650237074885228e-01 -1.5876721374325558e+00 1.0000000000000000e+00 8.0000000000000000e+00 1.9199999999999999e+01 5.0000000000000000e-01 
324 2 1 9.3429251485933063e-01 -5.0865938000192763e+01 1.0000000000000000e+00 9.9995359908222810e+00 1.7070931431068420e+01 5.0100453926991273e-01 
247 2 1 9.3428911377520540e-01 -5.5478100111460080e+01 1.0000000000000000e+00 1.0001833537458738e+01 1.7072888190630639e+01 4.9864398911851354e-01 
331 2 1 9.3428698064258620e-01 -7.1132058229938551e+01 1.0000000000000000e+00 1.0003664944974238e+01 1.7073652536097264e+01 4.9978097322517639e-01 
225 2 1 9.3429398773677264e-01 -5.5769985638515855e+01 1.0000000000000000e+00 1.0002777601470253e+01 1.7070286168076056e+01 5.0023074389402133e-01 
253 2 1 9.3429025172919666e-01 -5.9665248974823157e+01 1.0000000000000000e+00 1.0001156366563629e+01 1.7072634226624938e+01 5.0078340619530937e-01 
323 2 1 9.3429359003815826e-01 -7.7041225660410291e+01 1.0000000000000000e+00 1.0000241928030345e+01 1.7070238557615518e+01 5.0161328380620840e-01 
117 2 4 6.1991012756223274e-01 -9.3267907395991330e+00 1.0000000000000000e+00 1.2000000000000000e+01 1.6800000000000001e+01 5.0000000000000000e-01 
101 2 4 1.0070680182214096e+00 -1.1088805831716604e+01 1.0000000000000000e+00 1.0000000000000000e+01 1.8000000000000000e+01 5.0000000000000000e-01 
100 2 4 1.1489161415427942e+00 -5.1798987403674746e+00 1.0000000000000000e+00 1.0000000000000000e+01 1.6800000000000001e+01 5.0000000000000000e-01 
118 2 4 5.6172903038264388e-01 -2.2110390463630525e+00 1.0000000000000000e+00 1.2000000000000000e+01 1.8000000000000000e+01 5.0000000000000000e-01 
102 2 4 5.3707649510032562e-01 -7.7607030869698619e+00 1.0000000000000000e+00 1.0000000000000000e+01 1.9199999999999999e+01 5.0000000000000000e-01 
119 2 4 3.6674852117038714e-01 5.0326535333630318e+00 1.0000000000000000e+00 1.2000000000000000e+01 1.9199999999999999e+01 5.0000000000000000e-01 
120 2 4 3.5239373519478995e-01 -2.4366629515993157e+01 1.0000000000000000e+00 1.4000000000000000e+01 0.0000000000000000e+00 5.0000000000000000e-01 
121 2 4 4.9705264225443380e-01 8.9775356513896867e+00 1.0000000000000000e+00 1.4000000000000000e+01 1.2000000000000000e+00 5.0000000000000000e-01 
122 2 4 5.3922342263359158e-01 -5.9511295180577557e+00 1.0000000000000000e+00 1.4000000000000000e+01 2.3999999999999999e+00 5.0000000000000000e-01 
137 2 4 4.6142402667337928e-01 -2.5899746192135787e+01 1.0000000000000000e+00 1.6000000000000000e+01 0.0000000000000000e+00 5.0000000000000000e-01 
138 2 4 7.9036637285388278e-01 1.8253913950526069e+01 1.0000000000000000e+00 1.6000000000000000e+01 1.2000000000000000e+00 5.0000000000000000e-01 
139 2 4 8.9353070739779983e-01 -1.0056864598864246e+01 1.0000000000000000e+00 1.6000000000000000e+01 2.3999999999999999e+00 5.0000000000000000e-01 
491 2 1 6.7207411688391439e-01 -2.5010274695712667e+01 1.0000000000000000e+00 1.6001024692253708e+01 2.1597663352024234e+00 5.0003890827011521e-01 
572 2 1 6.7207365851904699e-01 -9.2136277806924653e+01 1.0000000000000000e+00 1.6000959276222506e+01 2.1594671712413134e+00 5.0003703974242641e-01 
688 2 1 6.7207328590008197e-01 -4.3675587653483916e+01 1.0000000000000000e+00 1.6000429359153951e+01 2.1592197432284403e+00 5.0008939723312751e-01 
345 2 1 6.7207378266167317e-01 -9.1816055614800476e+01 1.0000000000000000e+00 1.5999391814586122e+01 2.1596235330476579e+00 4.9974071357353295e-01 
154 2 4 3.5243937262014008e-01 -2.8166844997534898e+01 1.0000000000000000e+00 1.8000000000000000e+01 0.0000000000000000e+00 5.0000000000000000e-01 
155 2 4 4.9720982633549138e-01 -5.3290664772336758e+00 1.0000000000000000e+00 1.8000000000000000e+01 1.2000000000000000e+00 5.0000000000000000e-01 
156 2 4 5.3942026589340009e-01 -1.1762747583474432e+01 1.0000000000000000e+00 1.8000000000000000e+01 2.3999999999999999e+00 5.0000000000000000e-01 
123 2 4 4.5413782520465129e-01 2.4656952157217646e+00 1.0000000000000000e+00 1.4000000000000000e+01 3.6000000000000001e+00 5.0000000000000000e-01 
124 2 4 3.8239438782861329e-01 1.3471241713147002e+01 1.0000000000000000e+00 1.4000000000000000e+01 4.7999999999999998e+00 5.0000000000000000e-01 
125 2 4 4.8398015395525124e-01 8.6230009322886243e+00 1.0000000000000000e+00 1.4000000000000000e+01 6.0000000000000000e+00 5.0000000000000000e-01 
140 2 4 6.7747253111005490e-01 -1.0788913496211428e+01 1.0000000000000000e+00 1.6000000000000000e+01 3.6000000000000001e+00 5.0000000000000000e-01 
141 2 4 4.2969593411712881e-01 4.2206183734383176e+00 1.0000000000000000e+00 1.6000000000000000e+01 4.7999999999999998e+00 5.0000000000000000e-01 
142 2 4 3.9111467057172483e-01 5.7716420079636075e+00 1.0000000000000000e+00 1.6000000000000000e+01 6.0000000000000000e+00 5.0000000000000000e-01 
157 2 4 4.5425082173182640e-01 -6.2763135351637462e+00 1.0000000000000000e+00 1.8000000000000000e+01 3.6000000000000001e+00 5.0000000000000000e-01 
158 2 4 3.8165121324613160e-01 1.4047263083566626e+00 1.0000000000000000e+00 1.8000000000000000e+01 4.7999999999999998e+00 5.0000000000000000e-01 
159 2 4 3.7652897722361089e-01 1.7252507800413341e+00 1.0000000000000000e+00 1.8000000000000000e+01 6.0000000000000000e+00 5.0000000000000000e-01 
126 2 4 8.2246042817973275e-01 1.2280971489309400e+00 1.0000000000000000e+00 1.4000000000000000e+01 7.2000000000000002e+00 5.0000000000000000e-01 
127 2 4 1.0321838095432465e+00 -6.1508299167067975e+00 1.0000000000000000e+00 1.4000000000000000e+01 8.4000000000000004e+00 5.0000000000000000e-01 
128 2 4 8.2984691905273922e-01 -2.8693699024065302e+00 1.0000000000000000e+00 1.4000000000000000e+01 9.5999999999999996e+00 5.0000000000000000e-01 
143 2 4 4.9939331010775323e-01 -1.3146272433278618e+00 1.0000000000000000e+00 1.6000000000000000e+01 7.2000000000000002e+00 5.0000000000000000e-01 
144 2 4 5.8377392114371096e-01 -5.4468763274327134e+00 1.0000000000000000e+00 1.6000000000000000e+01 8.4000000000000004e+00 5.0000000000000000e-01 
145 2 4 5.0220893257206267e-01 -9.2389301101228394e-02 1.0000000000000000e+00 1.6000000000000000e+01 9.5999999999999996e+00 5.0000000000000000e-01 
672 2 1 8.0348108775517513e-01 -2.6374903563575028e+01 1.0000000000000000e+00 1.3998668462592461e+01 8.4131193882726354e+00 4.9897478115078248e-01 
394 2 1 8.0348115798084241e-01 -6.8521033715105295e-01 1.0000000000000000e+00 1.3999344181988983e+01 8.4115601333286829e+00 5.0054847770412370e-01 
594 2 1 8.0348103083698152e-01 -3.8538804281598743e+01 1.0000000000000000e+00 1.3997842620212614e+01 8.4128110849503166e+00 5.0002701110166026e-01 
476 2 1 8.0348133728633420e-01 -3.0161557874185775e+01 1.0000000000000000e+00 1.3999203712789109e+01 8.4119088165583502e+00 4.9984646135561228e-01 
632 2 1 8.0348072071071375e-01 -9.5159765541927754e+01 1.0000000000000000e+00 1.4001219573903374e+01 8.4128915024873816e+00 4.9977668933061292e-01 
162 2 4 3.7652897722361089e-01 1.2254280213273288e+00 1.0000000000000000e+00 1.8000000000000000e+01 9.5999999999999996e+00 5.0000000000000000e-01 
161 2 4 3.7652897722362638e-01 5.5582181587734789e-03 1.0000000000000000e+00 1.8000000000000000e+01 8.4000000000000004e+00 5.0000000000000000e-01 
160 2 4 3.7652897722361089e-01 -3.1803235149348241e-01 1.0000000000000000e+00 1.8000000000000000e+01 7.2000000000000002e+00 5.0000000000000000e-01 
129 2 4 4.8911930195216080e-01 5.7927057517494642e+00 1.0000000000000000e+00 1.4000000000000000e+01 1.0800000000000001e+01 5.0000000000000000e-01 
130 2 4 3.7748868662983726e-01 1.0550737503822679e+01 1.0000000000000000e+00 1.4000000000000000e+01 1.2000000000000000e+01 5.0000000000000000e-01 
131 2 4 3.7652897722361089e-01 1.0253697739663751e+01 1.0000000000000000e+00 1.4000000000000000e+01 1.3199999999999999e+01 5.0000000000000000e-01 
146 2 4 3.9225635892060395e-01 2.1701106339140006e+00 1.0000000000000000e+00 1.6000000000000000e+01 1.0800000000000001e+01 5.0000000000000000e-01 
147 2 4 3.7652897722361123e-01 4.9178077577822989e+00 1.0000000000000000e+00 1.6000000000000000e+01 1.2000000000000000e+01 5.0000000000000000e-01 
148 2 4 3.7654083042040348e-01 6.4237571355425596e+00 1.0000000000000000e+00 1.6000000000000000e+01 1.3199999999999999e+01 5.0000000000000000e-01 
163 2 4 3.7652897722361089e-01 -1.4754060673752112e+00 1.0000000000000000e+00 1.8000000000000000e+01 1.0800000000000001e+01 5.0000000000000000e-01 
164 2 4 3.7652897722361123e-01 5.3111262806732307e-01 1.0000000000000000e+00 1.8000000000000000e+01 1.2000000000000000e+01 5.0000000000000000e-01 
165 2 4 3.7652897722361089e-01 1.6667712471331488e+00 1.0000000000000000e+00 1.8000000000000000e+01 1.3199999999999999e+01 5.0000000000000000e-01 
132 2 4 3.8318740024002917e-01 8.9110940758251473e+00 1.0000000000000000e+00 1.4000000000000000e+01 1.4400000000000000e+01 5.0000000000000000e-01 
133 2 4 4.8858283481970660e-01 3.4034657727103488e+00 1.0000000000000000e+00 1.4000000000000000e+01 1.5600000000000000e+01 5.0000000000000000e-01 
149 2 4 4.5027582930996679e-01 1.9733025117728260e+00 1.0000000000000000e+00 1.6000000000000000e+01 1.4400000000000000e+01 5.0000000000000000e-01 
150 2 4 8.1563422099210092e-01 -4.3095388137769470e+00 1.0000000000000000e+00 1.6000000000000000e+01 1.5600000000000000e+01 5.0000000000000000e-01 
166 2 4 3.8318874195031272e-01 -1.1808055544995977e+00 1.0000000000000000e+00 1.8000000000000000e+01 1.4400000000000000e+01 5.0000000000000000e-01 
167 2 4 4.8859384292697250e-01 -5.5562297262599376e+00 1.0000000000000000e+00 1.8000000000000000e+01 1.5600000000000000e+01 5.0000000000000000e-01 
310 2 1 9.3428899267886223e-01 -7.1089508354609308e+01 1.0000000000000000e+00 1.5999426920175591e+01 1.7073721833917777e+01 4.9913505851239515e-01 
303 2 1 9.3429038471153991e-01 -6.6910827081454983e+01 1.0000000000000000e+00 1.5998764821576406e+01 1.7072792455316591e+01 4.9921734735964773e-01 
469 2 1 9.3428816121441638e-01 -3.4724381015429504e+00 1.0000000000000000e+00 1.5999649142873968e+01 1.7074059295656610e+01 4.9823381795695876e-01 
317 2 1 9.3428865405659645e-01 -5.6017852603643803e+01 1.0000000000000000e+00 1.5999971752192545e+01 1.7073898489860369e+01 4.9863545900918393e-01 