LAMMPS data file via write_data, version 30 Jul 2016, timestep = 50000000

180 atoms
2 atom types

0.0000000000000000e+00 2.0000000000000000e+01 xlo xhi
0.0000000000000000e+00 2.0000000000000000e+01 ylo yhi
0.0000000000000000e+00 2.0000000000000000e+01 zlo zhi

Masses

1 3.896
2 4.31

Atoms # meso-molecular

59 1 2 1.0279999999999823e+00 -2.6858730559891188e+02 1.0000000000000000e+00 5.8735841666127584e+00 1.4359217902768693e+00 3.2912727070631957e+00 
89 1 2 1.0279999999999911e+00 -2.3123157720667820e+02 1.0000000000000000e+00 5.8735841650911125e+00 1.4359217751498654e+00 3.2912726766632368e+00 
53 1 2 1.0279999999999911e+00 -2.0693381540693838e+02 1.0000000000000000e+00 5.8735841650911125e+00 1.4359217751498654e+00 3.2912726766632368e+00 
60 1 2 1.0279999999999911e+00 -1.6402044888751584e+02 1.0000000000000000e+00 5.8735841650911125e+00 1.4359217751498654e+00 3.2912726766632368e+00 
54 1 2 1.0279999999999911e+00 -1.7517637120561000e+02 1.0000000000000000e+00 5.8735841650911125e+00 1.4359217751498654e+00 3.2912726766632368e+00 
90 1 2 1.0279999999999911e+00 -2.2077936611844606e+02 1.0000000000000000e+00 5.8735841650911125e+00 1.4359217751498654e+00 3.2912726766632368e+00 
15 1 2 4.3521309693160926e-01 -1.6665189302063874e+02 1.0000000000000000e+00 4.5345656255830287e+00 5.0078643159186260e+00 6.7333441442236275e+00 
9 1 2 4.3521309693160926e-01 -1.6985852438004707e+02 1.0000000000000000e+00 4.5345656255830242e+00 5.0078643159186509e+00 6.7333441442236266e+00 
8 1 2 4.3521309693160926e-01 -1.9809563694014992e+02 1.0000000000000000e+00 4.5345656255830393e+00 5.0078643159186500e+00 6.7333441442236266e+00 
18 1 2 4.3521309693160926e-01 -2.1632141541732565e+02 1.0000000000000000e+00 4.3376406526357263e+00 7.2439196495332352e+00 1.3493049020076866e+01 
17 1 2 4.3521309693160926e-01 -2.5996656174866217e+02 1.0000000000000000e+00 4.3376406526357316e+00 7.2439196495332050e+00 1.3493049020076901e+01 
16 1 2 4.3521309693160926e-01 -2.2461731743472183e+02 1.0000000000000000e+00 4.3376406526357210e+00 7.2439196495332414e+00 1.3493049020076862e+01 
49 1 2 1.0280000000256495e+00 -2.2678724464873147e+02 1.0000000000000000e+00 6.3176432636097255e+00 1.2212880651634272e+01 3.0773827716500874e+00 
13 1 2 1.0280000000256504e+00 -2.7462199596921408e+02 1.0000000000000000e+00 6.3176432663425288e+00 1.2212880655209551e+01 3.0773827673888499e+00 
25 1 2 1.0280000000256488e+00 -2.0269822530529981e+02 1.0000000000000000e+00 6.3176433408091013e+00 1.2212880724396527e+01 3.0773827638134610e+00 
26 1 2 1.0280000000256486e+00 -1.6250590084677162e+02 1.0000000000000000e+00 6.3176433407989627e+00 1.2212880724387004e+01 3.0773827638143660e+00 
62 1 2 1.0280000000256488e+00 -1.6641196317531731e+02 1.0000000000000000e+00 6.3176433407980381e+00 1.2212880724386237e+01 3.0773827638140414e+00 
14 1 2 1.0280000000256477e+00 -3.0684720069466670e+02 1.0000000000000000e+00 6.3176436270034575e+00 1.2212880987590159e+01 3.0773827608714388e+00 
28 1 2 1.0279999999999627e+00 -2.4886643222604073e+02 1.0000000000000000e+00 4.9365248332312657e+00 1.8885233899992436e+01 3.6863071491020509e+00 
34 1 2 1.0279999999999627e+00 -2.7756302624043275e+02 1.0000000000000000e+00 4.9365248332312657e+00 1.8885233899992436e+01 3.6863071491020509e+00 
35 1 2 1.0279999999999627e+00 -2.8431988108200812e+02 1.0000000000000000e+00 4.9365248332312657e+00 1.8885233899992436e+01 3.6863071491020509e+00 
70 1 2 1.0279999999999627e+00 -3.2477934390215546e+02 1.0000000000000000e+00 4.9365248332312657e+00 1.8885233899992436e+01 3.6863071491020509e+00 
71 1 2 1.0279999999999627e+00 -2.7559144032151562e+02 1.0000000000000000e+00 4.9365248332312657e+00 1.8885233899992436e+01 3.6863071491020509e+00 
32 1 2 1.0280000000000229e+00 -3.0600121397338927e+02 1.0000000000000000e+00 5.1723754593518656e+00 1.9930866711697579e+01 4.7545603590980505e+00 
33 1 2 1.0280000000000229e+00 -3.6770043939023503e+02 1.0000000000000000e+00 5.1723754593518656e+00 1.9930866711697579e+01 4.7545603590980505e+00 
3 1 2 1.0280000000000229e+00 -2.8718411785334104e+02 1.0000000000000000e+00 5.1723754593518656e+00 1.9930866711697579e+01 4.7545603590980505e+00 
22 1 2 8.7042619386321851e-01 -2.6886671479905027e+02 1.0000000000000000e+00 6.4596399488167835e+00 1.1920098915250607e+01 8.6244050703879918e+00 
64 1 2 8.7042619386321851e-01 -3.3841589181182428e+02 1.0000000000000000e+00 6.4596399488168261e+00 1.1920098915250611e+01 8.6244050703879882e+00 
63 1 2 8.7042619386321851e-01 -2.9554754639184131e+02 1.0000000000000000e+00 6.4596399488168261e+00 1.1920098915250614e+01 8.6244050703881001e+00 
57 1 2 8.7042619386321851e-01 -2.3692531743304014e+02 1.0000000000000000e+00 6.4596399488168492e+00 1.1920098915250593e+01 8.6244050703880291e+00 
27 1 2 8.7042619386321851e-01 -3.2500306539059295e+02 1.0000000000000000e+00 6.4596399488168172e+00 1.1920098915250607e+01 8.6244050703881197e+00 
21 1 2 8.7042619386321851e-01 -2.8559888279034510e+02 1.0000000000000000e+00 6.4596399488168146e+00 1.1920098915250612e+01 8.6244050703881001e+00 
37 1 2 1.0280000000000089e+00 -2.9293364383450768e+02 1.0000000000000000e+00 1.0344764454740282e+01 1.7138624487503766e+00 9.2427589846085123e-01 
79 1 2 1.0279999999999940e+00 -3.5418898491152703e+02 1.0000000000000000e+00 1.0344755151207831e+01 1.7138931938878850e+00 9.2427983022565019e-01 
73 1 2 1.0279999999999914e+00 -2.9538233155960745e+02 1.0000000000000000e+00 1.0344804686594765e+01 1.7137050457363114e+00 9.2431258163243968e-01 
78 1 2 1.0279999999999967e+00 -2.7524325548897195e+02 1.0000000000000000e+00 1.0344797859461746e+01 1.7138238424161432e+00 9.2410491453285659e-01 
110 1 2 1.0280000000000025e+00 -2.7197244292059361e+02 1.0000000000000000e+00 1.1302229381413884e+01 1.6739977200214884e+00 1.7253648357762015e+00 
109 1 2 1.0279999999999996e+00 -2.5227500458176706e+02 1.0000000000000000e+00 1.1459798114708260e+01 1.7531965470851587e+00 1.7081606666928448e+00 
156 1 2 1.0279999999999978e+00 -2.3197190040487675e+02 1.0000000000000000e+00 1.1899438940458067e+01 2.3502546361341872e+00 7.0216369814919055e-01 
120 1 2 1.0279999999999994e+00 -2.5458300517758022e+02 1.0000000000000000e+00 1.1899449237638448e+01 2.3502772879567906e+00 7.0221281414760173e-01 
151 1 2 1.0279999999999974e+00 -2.7271341845272798e+02 1.0000000000000000e+00 1.1899948749362142e+01 2.3503348634243317e+00 7.0335768915249619e-01 
115 1 2 1.0279999999999980e+00 -2.4622168760569488e+02 1.0000000000000000e+00 1.1900880418995056e+01 2.3502007043180044e+00 7.0521731448206593e-01 
61 1 2 1.0280000000371745e+00 -2.4075078308776065e+02 1.0000000000000000e+00 9.4052523684623921e+00 8.9003243270331200e+00 2.2400483205437407e+00 
91 1 2 1.0280000000371747e+00 -2.9333148347834145e+02 1.0000000000000000e+00 9.4052523684686253e+00 8.9003243270345571e+00 2.2400483205575918e+00 
97 1 2 1.0280000000371738e+00 -2.4527787681927745e+02 1.0000000000000000e+00 9.4052523684679414e+00 8.9003243270330827e+00 2.2400483205616779e+00 
98 1 2 1.0280000000371738e+00 -2.8972053198398191e+02 1.0000000000000000e+00 9.4052523684687230e+00 8.9003243270355430e+00 2.2400483205536719e+00 
92 1 2 1.0280000000371752e+00 -2.2725615223039591e+02 1.0000000000000000e+00 9.4052523684962228e+00 8.9003243270540100e+00 2.2400483205629484e+00 
55 1 2 1.0280000000371741e+00 -2.9324452941643057e+02 1.0000000000000000e+00 9.4052523877169421e+00 8.9003243413418360e+00 2.2400483211231967e+00 
85 1 2 4.3521309693160926e-01 -1.6624274005041130e+02 1.0000000000000000e+00 1.3156009520652050e+01 7.0423882338117973e+00 2.4243034961485685e+00 
122 1 2 4.3521309693160926e-01 -1.3786512773940333e+02 1.0000000000000000e+00 1.3156009520651990e+01 7.0423882338117973e+00 2.4243034961485592e+00 
121 1 2 4.3521309693160926e-01 -1.1543663467396679e+02 1.0000000000000000e+00 1.3156009520651978e+01 7.0423882338117982e+00 2.4243034961485677e+00 
38 1 2 1.0280000000000187e+00 -2.1716658890625848e+02 1.0000000000000000e+00 9.2809487514016293e+00 1.7886437031452305e+00 5.7569795701124225e+00 
39 1 2 1.0280000000000209e+00 -3.1596096138551366e+02 1.0000000000000000e+00 9.2137400480621174e+00 1.7930113405339718e+00 5.7529398664657787e+00 
44 1 2 1.0279999999999885e+00 -3.2324585294343109e+02 1.0000000000000000e+00 9.3786353529356372e+00 2.7568203102282198e+00 5.5447020605298913e+00 
74 1 2 1.0280000000000153e+00 -3.1358286531514671e+02 1.0000000000000000e+00 9.2549514187869910e+00 1.7730498396743501e+00 5.5855430166502371e+00 
75 1 2 1.0280000000000225e+00 -2.3962304470209818e+02 1.0000000000000000e+00 9.2500483783809173e+00 1.7773342948234503e+00 5.7020718690078729e+00 
80 1 2 1.0279999999999820e+00 -2.6308021327505253e+02 1.0000000000000000e+00 9.2424545517458885e+00 2.7403232073936592e+00 5.4569293645790928e+00 
81 1 2 1.0279999999999834e+00 -3.1777338941883420e+02 1.0000000000000000e+00 9.3251123984609201e+00 2.7689090862774552e+00 5.5890594484510023e+00 
45 1 2 1.0279999999999723e+00 -2.8518155802239340e+02 1.0000000000000000e+00 9.3467985269534228e+00 2.7662639953994832e+00 5.5820735835700512e+00 
52 1 2 1.0154972261737549e+00 -2.4752472416988192e+02 1.0000000000000000e+00 9.2653168891064261e+00 9.0824537164937347e+00 9.6126314445076382e+00 
94 1 2 1.0154972261737549e+00 -2.1355994884966924e+02 1.0000000000000000e+00 9.2653168891064244e+00 9.0824537164937365e+00 9.6126314445076417e+00 
87 1 2 1.0154972261737549e+00 -3.0156288721421475e+02 1.0000000000000000e+00 9.2653168891064226e+00 9.0824537164937347e+00 9.6126314445076417e+00 
88 1 2 1.0154972261737549e+00 -3.2607225124733122e+02 1.0000000000000000e+00 9.2653168891064261e+00 9.0824537164937347e+00 9.6126314445076453e+00 
51 1 2 1.0154972261737549e+00 -2.9093787268563881e+02 1.0000000000000000e+00 9.2653168891064261e+00 9.0824537164937347e+00 9.6126314445076400e+00 
58 1 2 1.0154972261737549e+00 -2.4250988469348894e+02 1.0000000000000000e+00 9.2653168891064226e+00 9.0824537164937347e+00 9.6126314445076400e+00 
93 1 2 1.0154972261737549e+00 -2.8627877210090151e+02 1.0000000000000000e+00 9.2653168891064226e+00 9.0824537164937347e+00 9.6126314445076453e+00 
46 1 2 1.0280000000000022e+00 -2.4776732097746225e+02 1.0000000000000000e+00 8.7610016373374258e+00 3.3216099031772703e+00 1.2705735971269524e+01 
82 1 2 1.0280000000000098e+00 -2.5981780120868956e+02 1.0000000000000000e+00 8.7610019950984306e+00 3.3216098027906660e+00 1.2705736175426297e+01 
83 1 2 1.0279999999999998e+00 -2.6719801257644070e+02 1.0000000000000000e+00 8.7610026071759446e+00 3.3216098164404948e+00 1.2705736631496755e+01 
47 1 2 1.0279999999999965e+00 -2.1944375763398602e+02 1.0000000000000000e+00 7.0609823147481423e+00 2.8468396768832682e+00 1.3013713885125508e+01 
4 1 2 1.0280000000000014e+00 -2.0767914979340119e+02 1.0000000000000000e+00 7.0609823149304125e+00 2.8468396749303273e+00 1.3013713885130354e+01 
11 1 2 1.0280000000000002e+00 -1.9988912340238784e+02 1.0000000000000000e+00 7.0609823148181832e+00 2.8468396753553447e+00 1.3013713885417685e+01 
5 1 2 1.0279999999999956e+00 -2.5840020418711316e+02 1.0000000000000000e+00 7.0609823148012376e+00 2.8468396749332179e+00 1.3013713885642600e+01 
10 1 2 1.0280000000000025e+00 -1.9275743393255470e+02 1.0000000000000000e+00 7.0609823149298530e+00 2.8468396753375536e+00 1.3013713884980540e+01 
41 1 2 1.0280000000000207e+00 -3.3449258133977941e+02 1.0000000000000000e+00 9.0262139436150743e+00 2.6567721440509260e+00 1.4349678535082488e+01 
48 1 2 1.0280000000000169e+00 -2.3304973538379144e+02 1.0000000000000000e+00 9.0115403123832376e+00 2.6743559061289193e+00 1.4364843756499955e+01 
42 1 2 1.0279999999999740e+00 -2.4157024190756485e+02 1.0000000000000000e+00 8.9985254874284752e+00 2.6677438696326461e+00 1.4371484406322777e+01 
84 1 2 1.0280000000000005e+00 -2.7369103538731321e+02 1.0000000000000000e+00 9.0511243523863776e+00 2.6895933483559582e+00 1.4340896912075181e+01 
77 1 2 1.0279999999999958e+00 -3.2169331611864209e+02 1.0000000000000000e+00 9.0540885003901614e+00 2.6645578608020717e+00 1.4331526913400097e+01 
36 1 2 1.0279648657092220e+00 -3.2196947134706818e+02 1.0000000000000000e+00 1.1197400910524150e+01 9.2304228853420867e+00 1.5562082225459518e+01 
31 1 2 1.0279648657091891e+00 -2.7139624839867491e+02 1.0000000000000000e+00 1.1197400910525920e+01 9.2304228853422874e+00 1.5562082225476347e+01 
96 1 2 1.0279691321832940e+00 -3.8271394900261487e+02 1.0000000000000000e+00 1.1195765479231211e+01 9.1701938857697431e+00 1.5555142918082337e+01 
66 1 2 1.0279683143719633e+00 -3.8647641510691625e+02 1.0000000000000000e+00 1.1192104277777043e+01 9.2096608231962609e+00 1.5503514997747660e+01 
72 1 2 1.0279648657092229e+00 -3.1492733281563858e+02 1.0000000000000000e+00 1.1197400910524156e+01 9.2304228853420849e+00 1.5562082225459543e+01 
95 1 2 1.0280025233370782e+00 -2.0843531936714308e+02 1.0000000000000000e+00 1.2383837559827786e+01 8.3094161192998381e+00 1.6848441180641995e+01 
101 1 2 1.0280025233370782e+00 -2.6050301181592158e+02 1.0000000000000000e+00 1.2383837559827786e+01 8.3094161192998381e+00 1.6848441180641995e+01 
131 1 2 1.0280025233370782e+00 -2.6276935472998770e+02 1.0000000000000000e+00 1.2383837559827786e+01 8.3094161192998381e+00 1.6848441180641995e+01 
56 1 2 1.0279999999587197e+00 -2.6191505144281717e+02 1.0000000000000000e+00 8.1732837750620977e+00 1.0582301791637201e+01 2.6303592333637398e+00 
86 1 2 1.0279999999587197e+00 -2.3072233840000592e+02 1.0000000000000000e+00 8.1732837748898977e+00 1.0582301791712943e+01 2.6303592333874266e+00 
50 1 2 1.0279999999587206e+00 -2.4262155209329023e+02 1.0000000000000000e+00 8.1732837749705975e+00 1.0582301791677432e+01 2.6303592333763905e+00 
19 1 2 1.0279999999735703e+00 -2.8082974336125341e+02 1.0000000000000000e+00 8.1734108453656020e+00 1.0582247466278439e+01 2.6303273364992905e+00 
20 1 2 1.0279999999985661e+00 -2.9220770081878902e+02 1.0000000000000000e+00 7.0065030959964449e+00 1.0910988730506382e+01 2.8038735061677031e+00 
67 1 2 5.8028412924214567e-01 -2.2017931503723878e+02 1.0000000000000000e+00 1.0136766946877179e+01 1.6733217679232077e+01 2.7041463488140258e+00 
68 1 2 5.8028412924214567e-01 -2.6287664412097905e+02 1.0000000000000000e+00 1.0136766946877179e+01 1.6733217679231956e+01 2.7041463488140383e+00 
104 1 2 5.8028412924214567e-01 -2.3356120243380968e+02 1.0000000000000000e+00 1.0136766946877229e+01 1.6733217679231988e+01 2.7041463488140383e+00 
103 1 2 5.8028412924214567e-01 -2.4509031445160755e+02 1.0000000000000000e+00 1.0136766946877229e+01 1.6733217679232109e+01 2.7041463488140258e+00 
100 1 2 1.0279999999795850e+00 -2.0362379560090375e+02 1.0000000000000000e+00 1.2954336810322243e+01 1.4400267335595977e+01 8.7256260281954710e+00 
99 1 2 1.0279999999795761e+00 -2.1545634796389527e+02 1.0000000000000000e+00 1.2954337373705107e+01 1.4400267263160391e+01 8.7256264957980907e+00 
136 1 2 1.0279999999796694e+00 -2.6848369066639503e+02 1.0000000000000000e+00 1.2954132142154037e+01 1.4399851962468867e+01 8.7251979980869283e+00 
142 1 2 1.0279999999797491e+00 -2.6734592809547246e+02 1.0000000000000000e+00 1.2953995752327321e+01 1.4400236956597551e+01 8.7252993707221087e+00 
105 1 2 1.0280000000003240e+00 -2.8484774666835943e+02 1.0000000000000000e+00 1.3246834599698817e+01 1.5303806744095649e+01 8.3316220185507390e+00 
69 1 2 2.9014206462107284e-01 -2.0687795086297916e+02 1.0000000000000000e+00 8.6689290352609358e+00 1.8399640301556694e+01 9.1355382557033344e+00 
40 1 2 2.9014206462107284e-01 -2.1407362766061397e+02 1.0000000000000000e+00 8.6689290352608914e+00 1.8399640301556708e+01 9.1355382557033789e+00 
2 1 2 1.0281002231040632e+00 -2.5647591911979345e+02 1.0000000000000000e+00 1.2840757257560837e+01 1.1502360316269293e+01 1.1660622885324651e+01 
43 1 2 1.0281002231040632e+00 -2.8104932932140730e+02 1.0000000000000000e+00 1.2840757257560837e+01 1.1502360316269293e+01 1.1660622885324651e+01 
6 1 2 1.0281002231040632e+00 -2.8402627407717847e+02 1.0000000000000000e+00 1.2840757257560837e+01 1.1502360316269293e+01 1.1660622885324651e+01 
12 1 2 1.0281002231040632e+00 -2.8509457732605165e+02 1.0000000000000000e+00 1.2840757257560837e+01 1.1502360316269293e+01 1.1660622885324651e+01 
7 1 2 1.0281002231040632e+00 -2.6829462149792386e+02 1.0000000000000000e+00 1.2840757257560837e+01 1.1502360316269293e+01 1.1660622885324651e+01 
1 1 2 1.0281002231040632e+00 -2.9461939660215694e+02 1.0000000000000000e+00 1.2840757257560837e+01 1.1502360316269293e+01 1.1660622885324651e+01 
24 1 2 1.0281696188950471e+00 -2.3620985652334465e+02 1.0000000000000000e+00 1.2509524821981472e+01 1.0173610146231043e+01 1.3014770934905162e+01 
106 1 2 4.3521309693160926e-01 -1.8938461542274334e+02 1.0000000000000000e+00 1.1689194778022578e+01 1.8197066516729699e+01 1.2113280007626905e+01 
76 1 2 4.3521309693160926e-01 -1.8747414669063048e+02 1.0000000000000000e+00 1.1689194778022578e+01 1.8197066516729702e+01 1.2113280007626942e+01 
107 1 2 4.3521309693160926e-01 -1.7792149388021124e+02 1.0000000000000000e+00 1.1689194778022607e+01 1.8197066516729699e+01 1.2113280007626940e+01 
23 1 2 1.0280122982954469e+00 -2.5393721893148671e+02 1.0000000000000000e+00 1.2216759003088020e+01 1.0233486585768178e+01 1.3536478982092561e+01 
29 1 2 1.0280122366972406e+00 -2.7032399204900423e+02 1.0000000000000000e+00 1.2216575408352199e+01 1.0234181940245731e+01 1.3536846995519833e+01 
30 1 2 1.0280124176207905e+00 -2.3875492347433041e+02 1.0000000000000000e+00 1.2213442689505845e+01 1.0249191487323330e+01 1.3542147797840922e+01 
65 1 2 1.0280145388758506e+00 -2.9998106261265474e+02 1.0000000000000000e+00 1.2213582940857700e+01 1.0248899890184212e+01 1.3542389641323433e+01 
102 1 2 5.8028412924214567e-01 -2.1847195440127342e+02 1.0000000000000000e+00 1.2564618015721333e+01 1.5289499942189074e+01 1.6856028234547143e+01 
138 1 2 5.8028412924214567e-01 -2.2980827701673732e+02 1.0000000000000000e+00 1.2564618015721383e+01 1.5289499942189074e+01 1.6856028234547111e+01 
108 1 2 5.8028412924214567e-01 -2.1118287013401829e+02 1.0000000000000000e+00 1.2564618015721333e+01 1.5289499942189124e+01 1.6856028234547232e+01 
144 1 2 5.8028412924214567e-01 -2.1800422007358549e+02 1.0000000000000000e+00 1.2564618015721383e+01 1.5289499942189124e+01 1.6856028234547264e+01 
157 1 2 1.0280000000000000e+00 -2.2793184754485677e+02 1.0000000000000000e+00 1.6885809622824166e+01 9.4199592009934054e+00 2.9491520674901532e+00 
158 1 2 1.0280000000000002e+00 -2.6145085950844020e+02 1.0000000000000000e+00 1.6886125628027287e+01 9.4168776972371386e+00 2.9434934278717493e+00 
164 1 2 1.0280000000000002e+00 -2.5353363574387828e+02 1.0000000000000000e+00 1.6908237426877019e+01 9.3962868504826087e+00 2.9120659846777626e+00 
128 1 2 1.0280000000000000e+00 -2.8178978993897709e+02 1.0000000000000000e+00 1.7013901828255278e+01 9.3583712585968026e+00 2.8179029302032506e+00 
111 1 2 1.4507103231053642e-01 7.0064832395343757e+00 1.0000000000000000e+00 1.4262404346845287e+01 7.3301187020357916e-01 6.3659926903749611e+00 
116 1 2 2.9014206462107284e-01 -1.4601337604353830e+02 1.0000000000000000e+00 1.6388872841382085e+01 4.1725466831186715e+00 4.1719012170643657e+00 
152 1 2 2.9014206462107284e-01 -1.4427227815688346e+02 1.0000000000000000e+00 1.6388872841382174e+01 4.1725466831186937e+00 4.1719012170643692e+00 
129 1 2 1.0154972261737549e+00 -2.9725857618872760e+02 1.0000000000000000e+00 1.4768711794676468e+01 7.8620236699650885e+00 8.4868288295725751e+00 
130 1 2 1.0154972261737549e+00 -2.9762209959794819e+02 1.0000000000000000e+00 1.4768711794676468e+01 7.8620236699650903e+00 8.4868288295725751e+00 
159 1 2 1.0154972261737549e+00 -2.1465018660509369e+02 1.0000000000000000e+00 1.4768711794676468e+01 7.8620236699650885e+00 8.4868288295725751e+00 
124 1 2 1.0154972261737549e+00 -3.0235083259778276e+02 1.0000000000000000e+00 1.4768711794676468e+01 7.8620236699650867e+00 8.4868288295725822e+00 
165 1 2 1.0154972261737549e+00 -2.2446342455682577e+02 1.0000000000000000e+00 1.4768711794676468e+01 7.8620236699650867e+00 8.4868288295725947e+00 
117 1 2 1.0154972261737549e+00 -2.3369920856569217e+02 1.0000000000000000e+00 1.4768711794676468e+01 7.8620236699650885e+00 8.4868288295725751e+00 
123 1 2 1.0154972261737549e+00 -3.0253721725971377e+02 1.0000000000000000e+00 1.4768711794676468e+01 7.8620236699650867e+00 8.4868288295725876e+00 
112 1 2 1.0280000000000000e+00 -2.5142833235787225e+02 1.0000000000000000e+00 1.5636892473305220e+01 3.1577056205001446e+00 1.1250322922272151e+01 
113 1 2 1.0279999999999920e+00 -2.5964391615812349e+02 1.0000000000000000e+00 1.5648278260762291e+01 3.1759133228188667e+00 1.1283042713984884e+01 
118 1 2 1.0280000000000156e+00 -2.8508048475462618e+02 1.0000000000000000e+00 1.5587298316585120e+01 3.2698441729013465e+00 1.1248134446162666e+01 
119 1 2 1.0280000000000029e+00 -3.1891600801922453e+02 1.0000000000000000e+00 1.5650018811374849e+01 3.3189157527480040e+00 1.1361778507723443e+01 
148 1 2 1.0279999999999885e+00 -3.0482041401668982e+02 1.0000000000000000e+00 1.6742912512766114e+01 3.2274800983694374e+00 1.0163297400754791e+01 
147 1 2 1.0279999999999949e+00 -2.2102845894724919e+02 1.0000000000000000e+00 1.6731828004089468e+01 3.2697676576394761e+00 1.0137375567917433e+01 
153 1 2 1.0280000000000069e+00 -2.0656196828394479e+02 1.0000000000000000e+00 1.6731804917763732e+01 3.2698144922025905e+00 1.0137343107008757e+01 
155 1 2 1.0279999999999978e+00 -3.5439437594726843e+02 1.0000000000000000e+00 1.6783771394061080e+01 3.9963710070305973e+00 1.1265588630842229e+01 
160 1 2 1.0280000000000007e+00 -2.3248979757326896e+02 1.0000000000000000e+00 1.6750985603599624e+01 4.2126738572356635e+00 1.0726508709281530e+01 
154 1 2 1.0280000000000018e+00 -2.7068457187716734e+02 1.0000000000000000e+00 1.6779433973148915e+01 4.1928656065259462e+00 1.0697167427492701e+01 
114 1 2 5.8028412924214567e-01 -2.6067573901898959e+02 1.0000000000000000e+00 1.6989801697664738e+01 1.3769733508897461e-01 1.5935073081782868e+01 
149 1 2 5.8028412924214567e-01 -2.2035117622125881e+02 1.0000000000000000e+00 1.6989801697664738e+01 1.3769733508897461e-01 1.5935073081782868e+01 
150 1 2 5.8028412924214567e-01 -2.0694879147586033e+02 1.0000000000000000e+00 1.6989801697664738e+01 1.3769733508897461e-01 1.5935073081782868e+01 
180 1 2 5.8028412924214567e-01 -2.1561815574209311e+02 1.0000000000000000e+00 1.6989801697664721e+01 1.3769733508897458e-01 1.5935073081782859e+01 
161 1 2 1.0280555571480789e+00 -2.3265264067281697e+02 1.0000000000000000e+00 1.3607836289330033e+01 9.2256105739341159e+00 1.5468728522505513e+01 
166 1 2 1.0280555571480789e+00 -2.4963702601293082e+02 1.0000000000000000e+00 1.3607836289330033e+01 9.2256105739341159e+00 1.5468728522505513e+01 
167 1 2 1.0280555571480789e+00 -2.4776015493437879e+02 1.0000000000000000e+00 1.3607836289330033e+01 9.2256105739341159e+00 1.5468728522505513e+01 
168 1 2 1.0279927020715709e+00 -2.5891583339309807e+02 1.0000000000000000e+00 1.4375466213417543e+01 8.4231331124183342e+00 1.6966287048180565e+01 
162 1 2 1.0279927020715709e+00 -3.6049529779118427e+02 1.0000000000000000e+00 1.4375466213417543e+01 8.4231331124183342e+00 1.6966287048180565e+01 
132 1 2 1.0279927020715709e+00 -3.6007467351827381e+02 1.0000000000000000e+00 1.4375466213417543e+01 8.4231331124183342e+00 1.6966287048180565e+01 
125 1 2 1.0279927020715709e+00 -2.8157737773095181e+02 1.0000000000000000e+00 1.4375466213417543e+01 8.4231331124183342e+00 1.6966287048180565e+01 
126 1 2 1.0279927020715709e+00 -2.7276599422486549e+02 1.0000000000000000e+00 1.4375466213417543e+01 8.4231331124183342e+00 1.6966287048180565e+01 
127 1 2 1.0280000000000005e+00 -2.7084235077410875e+02 1.0000000000000000e+00 1.7163768476655545e+01 1.0309207111584001e+01 2.5982785364278538e+00 
163 1 2 1.0280000000000002e+00 -2.8994652065714166e+02 1.0000000000000000e+00 1.7120767285914976e+01 1.0325499975614315e+01 2.6158858389941750e+00 
169 1 2 1.0279999999999998e+00 -2.7965709877015797e+02 1.0000000000000000e+00 1.7064646666993038e+01 1.0282540213104649e+01 2.4798969513842435e+00 
170 1 2 1.0279999999999998e+00 -2.6650821742284722e+02 1.0000000000000000e+00 1.7064469929419143e+01 1.0282391459181207e+01 2.4796082411362836e+00 
133 1 2 4.3521309693160926e-01 -2.2569927483025947e+02 1.0000000000000000e+00 1.5851714503014957e+01 1.5608255539409765e+01 8.0946496256595901e-01 
139 1 2 4.3521309693160926e-01 -3.2002914009663044e+02 1.0000000000000000e+00 1.5851714503014939e+01 1.5608255539409782e+01 8.0946496256595790e-01 
175 1 2 4.3521309693160926e-01 -2.5735386805640167e+02 1.0000000000000000e+00 1.5851714503014957e+01 1.5608255539409765e+01 8.0946496256595901e-01 
145 1 2 1.4507103231053642e-01 1.0949149026349569e+00 1.0000000000000000e+00 1.8303595122002942e+01 1.9696370530197306e+01 4.1246499040947815e-01 
140 1 2 4.3521309693160926e-01 -2.0572618957662672e+02 1.0000000000000000e+00 1.7035879212678868e+01 1.8376526983373576e+01 4.3827862856883986e+00 
176 1 2 4.3521309693160926e-01 -2.4026211547493793e+02 1.0000000000000000e+00 1.7035879212678868e+01 1.8376526983373576e+01 4.3827862856884003e+00 
146 1 2 4.3521309693160926e-01 -2.2760470387964136e+02 1.0000000000000000e+00 1.7035879212678950e+01 1.8376526983373658e+01 4.3827862856883808e+00 
134 1 2 1.0280000000206466e+00 -2.7735150833038693e+02 1.0000000000000000e+00 1.3887006971270697e+01 1.4785870346129084e+01 7.7197649380648921e+00 
171 1 2 1.0280000000206915e+00 -2.9191306873240273e+02 1.0000000000000000e+00 1.3886521448065094e+01 1.4785583377595234e+01 7.7192487244768113e+00 
135 1 2 1.0280000000212430e+00 -2.8480984193070128e+02 1.0000000000000000e+00 1.3886754663701648e+01 1.4784526573981760e+01 7.7192654377238368e+00 
141 1 2 1.0280000000201848e+00 -2.7096898998921768e+02 1.0000000000000000e+00 1.3884053612048410e+01 1.4772893484660436e+01 7.7146621200663601e+00 
172 1 2 4.3521309693160926e-01 -2.2952976333251053e+02 1.0000000000000000e+00 1.8300477155361406e+01 1.5815651729271840e+01 9.6271848595708178e+00 
177 1 2 4.3521309693160926e-01 -2.1161426257540595e+02 1.0000000000000000e+00 1.8300477155361406e+01 1.5815651729271837e+01 9.6271848595708214e+00 
178 1 2 4.3521309693160926e-01 -2.4244542859673430e+02 1.0000000000000000e+00 1.8300477155361374e+01 1.5815651729271833e+01 9.6271848595708178e+00 
173 1 2 7.2535516155268209e-01 -3.2471089102709635e+02 1.0000000000000000e+00 1.6457066330233971e+01 1.4964707360717423e+01 1.3914622311192895e+01 
174 1 2 7.2535516155268209e-01 -3.1026090011709766e+02 1.0000000000000000e+00 1.6457066330233971e+01 1.4964707360717430e+01 1.3914622311192879e+01 
179 1 2 7.2535516155268209e-01 -2.4690579213724754e+02 1.0000000000000000e+00 1.6457066330233943e+01 1.4964707360717385e+01 1.3914622311192879e+01 
143 1 2 7.2535516155268209e-01 -2.5585854926846616e+02 1.0000000000000000e+00 1.6457066330233943e+01 1.4964707360717385e+01 1.3914622311192879e+01 
137 1 2 7.2535516155268209e-01 -2.7583362465544047e+02 1.0000000000000000e+00 1.6457066330233996e+01 1.4964707360717426e+01 1.3914622311192915e+01 

Velocities

59 -2.2926669815068861e-13 -3.8718098722301000e-14 1.7899751125922058e-12
89 -5.0106275893931368e-13 -7.0394374397604989e-13 2.1203816637168680e-12
53 -5.0106275893931368e-13 -7.0394374397604989e-13 2.1203816637168680e-12
60 -5.0106275893931368e-13 -7.0394374397604989e-13 2.1203816637168680e-12
54 -5.0106275893931368e-13 -7.0394374397604989e-13 2.1203816637168680e-12
90 -5.0106275893931368e-13 -7.0394374397604989e-13 2.1203816637168680e-12
15 3.1530749853577744e-13 2.4774160599390366e-12 -9.0087856724835243e-14
9 9.9096642397205938e-13 -1.3062739225040365e-12 4.5043928362417621e-14
8 -1.3062739225112873e-12 -1.1711421374167704e-12 4.5043928362417621e-14
18 -2.2723766788295740e-26 -1.2161860657819484e-12 1.6215814210540028e-12
17 -8.1079071052353556e-13 3.3782946271846417e-12 -3.7836899824361497e-12
16 8.1079071052348992e-13 -2.1621085613927165e-12 2.1621085614030490e-12
49 -3.2314386422040728e-08 -3.0844060048414988e-08 -1.3714901347137863e-09
13 -3.2314385321368113e-08 -3.0844061105599695e-08 -1.3714905099215491e-09
25 -3.2314375225804529e-08 -3.0844068861375554e-08 -1.3714929062046885e-09
26 -3.2314382488280232e-08 -3.0844060956460234e-08 -1.3714909214230399e-09
62 -3.2314380977781465e-08 -3.0844062600708674e-08 -1.3714913342520879e-09
14 -3.2314360704940983e-08 -3.0844072298878353e-08 -1.3714952509942066e-09
28 -6.2307112123708414e-13 -2.2419802191667646e-12 -1.3167464801737611e-12
34 -6.2307112123708414e-13 -2.2419802191667646e-12 -1.3167464801737611e-12
35 -6.2307112123708414e-13 -2.2419802191667646e-12 -1.3167464801737611e-12
70 -6.2307112123708414e-13 -2.2419802191667646e-12 -1.3167464801737611e-12
71 -6.2307112123708414e-13 -2.2419802191667646e-12 -1.3167464801737611e-12
32 1.9499786996628623e-12 4.9227793047472559e-12 -1.9360503434617199e-12
33 1.9499786996628623e-12 4.9227793047472559e-12 -1.9360503434617199e-12
3 1.9499786996628623e-12 4.9227793047472559e-12 -1.9360503434617199e-12
22 3.9209773891498822e-12 3.2271459886110302e-14 6.8738121571674843e-12
64 -7.2610692330318222e-13 -3.5498557072810580e-13 7.2610693176906414e-12
63 -7.2610692330318252e-13 -7.4224266446749422e-13 -4.9375271301289756e-12
57 -3.2432776218152494e-12 1.5812994014778082e-12 2.8076134982575549e-12
27 2.4203565323232978e-13 3.2271459886109519e-14 -7.0674407128162868e-12
21 5.3247842598869365e-13 -5.4861408603521001e-13 -4.9375271301289756e-12
37 -1.3285906181980175e-12 -2.2220141454225959e-13 -5.1904534571143368e-13
79 2.6590777088320436e-12 8.9762862760708982e-13 4.6119392752004206e-14
73 3.3711219425808020e-12 1.0987197962912900e-12 1.4690907653063888e-13
78 1.9286794039249832e-12 6.9276982293125732e-13 -5.6897984165493008e-14
110 -4.4296531937218345e-14 -4.7271204883107368e-14 5.8191040810975041e-14
109 -4.0699516919098564e-13 2.7288700621697795e-13 -9.2865322661734967e-13
156 -1.6027216425236274e-12 -7.0622829898303186e-13 3.4398410604593197e-13
120 -1.2799814493543502e-12 -5.2498346263537482e-13 1.8844156828956590e-13
151 -1.7167245767053283e-12 -7.6979892275757939e-13 3.9557675088583719e-13
115 -1.5795690675948410e-12 -6.9152194926977469e-13 3.2537462116825974e-13