LAMMPS data file via write_data, version 30 Jul 2016, timestep = 50400000

180 atoms
2 atom types

0.0000000000000000e+00 2.0000000000000000e+01 xlo xhi
0.0000000000000000e+00 2.0000000000000000e+01 ylo yhi
0.0000000000000000e+00 2.0000000000000000e+01 zlo zhi

Masses

1 3.896
2 4.31

Atoms # meso-molecular

59 1 2 1.0279999999999949e+00 -2.6858730559891188e+02 1.0000000000000000e+00 5.8735841666127584e+00 1.4359217902764871e+00 3.2912727070626615e+00 
89 1 2 1.0279999999999943e+00 -2.3123157720667820e+02 1.0000000000000000e+00 5.8735841650911125e+00 1.4359217751495934e+00 3.2912726766628411e+00 
53 1 2 1.0279999999999943e+00 -2.0693381540693838e+02 1.0000000000000000e+00 5.8735841650911125e+00 1.4359217751495934e+00 3.2912726766628411e+00 
60 1 2 1.0279999999999943e+00 -1.6402044888751584e+02 1.0000000000000000e+00 5.8735841650911125e+00 1.4359217751495934e+00 3.2912726766628411e+00 
54 1 2 1.0279999999999943e+00 -1.7517637120561000e+02 1.0000000000000000e+00 5.8735841650911125e+00 1.4359217751495934e+00 3.2912726766628411e+00 
90 1 2 1.0279999999999943e+00 -2.2077936611844606e+02 1.0000000000000000e+00 5.8735841650911125e+00 1.4359217751495934e+00 3.2912726766628411e+00 
15 1 2 4.3521309693160926e-01 -1.6665189302063874e+02 1.0000000000000000e+00 4.5345656255830287e+00 5.0078643159186260e+00 6.7333441442236275e+00 
9 1 2 4.3521309693160926e-01 -1.6985852438004707e+02 1.0000000000000000e+00 4.5345656255830242e+00 5.0078643159186509e+00 6.7333441442236266e+00 
8 1 2 4.3521309693160926e-01 -1.9809563694014992e+02 1.0000000000000000e+00 4.5345656255830393e+00 5.0078643159186500e+00 6.7333441442236266e+00 
18 1 2 4.3521309693160926e-01 -2.1632141541732565e+02 1.0000000000000000e+00 4.3376406526357263e+00 7.2439196495332352e+00 1.3493049020076866e+01 
17 1 2 4.3521309693160926e-01 -2.5996656174866217e+02 1.0000000000000000e+00 4.3376406526357316e+00 7.2439196495332050e+00 1.3493049020076901e+01 
16 1 2 4.3521309693160926e-01 -2.2461731743472183e+02 1.0000000000000000e+00 4.3376406526357210e+00 7.2439196495332414e+00 1.3493049020076862e+01 
49 1 2 1.0280000000156289e+00 -2.2678724464873147e+02 1.0000000000000000e+00 6.3176420728994342e+00 1.2212879513944912e+01 3.0773827209418800e+00 
13 1 2 1.0280000000156282e+00 -2.7462199596921408e+02 1.0000000000000000e+00 6.3176420756322464e+00 1.2212879517520213e+01 3.0773827166806429e+00 
25 1 2 1.0280000000156289e+00 -2.0269822530529981e+02 1.0000000000000000e+00 6.3176421500988225e+00 1.2212879586707281e+01 3.0773827131052549e+00 
26 1 2 1.0280000000156271e+00 -1.6250590084677162e+02 1.0000000000000000e+00 6.3176421500886635e+00 1.2212879586697747e+01 3.0773827131061657e+00 
62 1 2 1.0280000000156277e+00 -1.6641196317531731e+02 1.0000000000000000e+00 6.3176421500877487e+00 1.2212879586696985e+01 3.0773827131058420e+00 
14 1 2 1.0280000000156280e+00 -3.0684720069466670e+02 1.0000000000000000e+00 6.3176424362931813e+00 1.2212879849901295e+01 3.0773827101632687e+00 
28 1 2 1.0280000000000054e+00 -2.4886643222604073e+02 1.0000000000000000e+00 4.9365248332312657e+00 1.8885233899992436e+01 3.6863071491022157e+00 
34 1 2 1.0280000000000054e+00 -2.7756302624043275e+02 1.0000000000000000e+00 4.9365248332312657e+00 1.8885233899992436e+01 3.6863071491022157e+00 
35 1 2 1.0280000000000054e+00 -2.8431988108200812e+02 1.0000000000000000e+00 4.9365248332312657e+00 1.8885233899992436e+01 3.6863071491022157e+00 
70 1 2 1.0280000000000054e+00 -3.2477934390215546e+02 1.0000000000000000e+00 4.9365248332312657e+00 1.8885233899992436e+01 3.6863071491022157e+00 
71 1 2 1.0280000000000054e+00 -2.7559144032151562e+02 1.0000000000000000e+00 4.9365248332312657e+00 1.8885233899992436e+01 3.6863071491022157e+00 
32 1 2 1.0279999999999945e+00 -3.0600121397338927e+02 1.0000000000000000e+00 5.1723754593518656e+00 1.9930866711697579e+01 4.7545603590981438e+00 
33 1 2 1.0279999999999945e+00 -3.6770043939023503e+02 1.0000000000000000e+00 5.1723754593518656e+00 1.9930866711697579e+01 4.7545603590981438e+00 
3 1 2 1.0279999999999945e+00 -2.8718411785334104e+02 1.0000000000000000e+00 5.1723754593518656e+00 1.9930866711697579e+01 4.7545603590981438e+00 
22 1 2 8.7042619386321851e-01 -2.6886671479905027e+02 1.0000000000000000e+00 6.4596399488167835e+00 1.1920098915250607e+01 8.6244050703879918e+00 
64 1 2 8.7042619386321851e-01 -3.3841589181182428e+02 1.0000000000000000e+00 6.4596399488168261e+00 1.1920098915250611e+01 8.6244050703879882e+00 
63 1 2 8.7042619386321851e-01 -2.9554754639184131e+02 1.0000000000000000e+00 6.4596399488168261e+00 1.1920098915250614e+01 8.6244050703881001e+00 
57 1 2 8.7042619386321851e-01 -2.3692531743304014e+02 1.0000000000000000e+00 6.4596399488168492e+00 1.1920098915250593e+01 8.6244050703880291e+00 
27 1 2 8.7042619386321851e-01 -3.2500306539059295e+02 1.0000000000000000e+00 6.4596399488168172e+00 1.1920098915250607e+01 8.6244050703881197e+00 
21 1 2 8.7042619386321851e-01 -2.8559888279034510e+02 1.0000000000000000e+00 6.4596399488168146e+00 1.1920098915250612e+01 8.6244050703881001e+00 
37 1 2 1.0280000000000089e+00 -2.9293364383450768e+02 1.0000000000000000e+00 1.0344764454740282e+01 1.7138624487503766e+00 9.2427589846085123e-01 
79 1 2 1.0279999999999940e+00 -3.5418898491152703e+02 1.0000000000000000e+00 1.0344755151207831e+01 1.7138931938878850e+00 9.2427983022565019e-01 
73 1 2 1.0279999999999914e+00 -2.9538233155960745e+02 1.0000000000000000e+00 1.0344804686594765e+01 1.7137050457363114e+00 9.2431258163243968e-01 
78 1 2 1.0279999999999967e+00 -2.7524325548897195e+02 1.0000000000000000e+00 1.0344797859461746e+01 1.7138238424161432e+00 9.2410491453285659e-01 
110 1 2 1.0280000000000025e+00 -2.7197244292059361e+02 1.0000000000000000e+00 1.1302229381413884e+01 1.6739977200214884e+00 1.7253648357762015e+00 
109 1 2 1.0279999999999996e+00 -2.5227500458176706e+02 1.0000000000000000e+00 1.1459798114708260e+01 1.7531965470851587e+00 1.7081606666928448e+00 
156 1 2 1.0279999999999978e+00 -2.3197190040487675e+02 1.0000000000000000e+00 1.1899438940458067e+01 2.3502546361341872e+00 7.0216369814919055e-01 
120 1 2 1.0279999999999994e+00 -2.5458300517758022e+02 1.0000000000000000e+00 1.1899449237638448e+01 2.3502772879567906e+00 7.0221281414760173e-01 
151 1 2 1.0279999999999974e+00 -2.7271341845272798e+02 1.0000000000000000e+00 1.1899948749362142e+01 2.3503348634243317e+00 7.0335768915249619e-01 
115 1 2 1.0279999999999980e+00 -2.4622168760569488e+02 1.0000000000000000e+00 1.1900880418995056e+01 2.3502007043180044e+00 7.0521731448206593e-01 
61 1 2 1.0280000000117622e+00 -2.4075078308776065e+02 1.0000000000000000e+00 9.4052535802861872e+00 8.9003254186066965e+00 2.2400483618832006e+00 
91 1 2 1.0280000000117648e+00 -2.9333148347834145e+02 1.0000000000000000e+00 9.4052535802923476e+00 8.9003254186080749e+00 2.2400483618971232e+00 
97 1 2 1.0280000000117635e+00 -2.4527787681927745e+02 1.0000000000000000e+00 9.4052535802917365e+00 8.9003254186066663e+00 2.2400483619011609e+00 
98 1 2 1.0280000000117653e+00 -2.8972053198398191e+02 1.0000000000000000e+00 9.4052535802924506e+00 8.9003254186090714e+00 2.2400483618932054e+00 
92 1 2 1.0280000000117624e+00 -2.2725615223039591e+02 1.0000000000000000e+00 9.4052535803200783e+00 8.9003254186276397e+00 2.2400483619023639e+00 
55 1 2 1.0280000000117631e+00 -2.9324452941643057e+02 1.0000000000000000e+00 9.4052535995407460e+00 8.9003254329154444e+00 2.2400483624626677e+00 
85 1 2 4.3521309693160926e-01 -1.6624274005041130e+02 1.0000000000000000e+00 1.3156009520652050e+01 7.0423882338117973e+00 2.4243034961485685e+00 
122 1 2 4.3521309693160926e-01 -1.3786512773940333e+02 1.0000000000000000e+00 1.3156009520651990e+01 7.0423882338117973e+00 2.4243034961485592e+00 
121 1 2 4.3521309693160926e-01 -1.1543663467396679e+02 1.0000000000000000e+00 1.3156009520651978e+01 7.0423882338117982e+00 2.4243034961485677e+00 
38 1 2 1.0280000000000187e+00 -2.1716658890625848e+02 1.0000000000000000e+00 9.2809487514016293e+00 1.7886437031452305e+00 5.7569795701124225e+00 
39 1 2 1.0280000000000209e+00 -3.1596096138551366e+02 1.0000000000000000e+00 9.2137400480621174e+00 1.7930113405339718e+00 5.7529398664657787e+00 
44 1 2 1.0279999999999885e+00 -3.2324585294343109e+02 1.0000000000000000e+00 9.3786353529356372e+00 2.7568203102282198e+00 5.5447020605298913e+00 
74 1 2 1.0280000000000153e+00 -3.1358286531514671e+02 1.0000000000000000e+00 9.2549514187869910e+00 1.7730498396743501e+00 5.5855430166502371e+00 
75 1 2 1.0280000000000225e+00 -2.3962304470209818e+02 1.0000000000000000e+00 9.2500483783809173e+00 1.7773342948234503e+00 5.7020718690078729e+00 
80 1 2 1.0279999999999820e+00 -2.6308021327505253e+02 1.0000000000000000e+00 9.2424545517458885e+00 2.7403232073936592e+00 5.4569293645790928e+00 
81 1 2 1.0279999999999834e+00 -3.1777338941883420e+02 1.0000000000000000e+00 9.3251123984609201e+00 2.7689090862774552e+00 5.5890594484510023e+00 
45 1 2 1.0279999999999723e+00 -2.8518155802239340e+02 1.0000000000000000e+00 9.3467985269534228e+00 2.7662639953994832e+00 5.5820735835700512e+00 
52 1 2 1.0154972261737549e+00 -2.4752472416988192e+02 1.0000000000000000e+00 9.2653168891064261e+00 9.0824537164937347e+00 9.6126314445076382e+00 
94 1 2 1.0154972261737549e+00 -2.1355994884966924e+02 1.0000000000000000e+00 9.2653168891064244e+00 9.0824537164937365e+00 9.6126314445076417e+00 
87 1 2 1.0154972261737549e+00 -3.0156288721421475e+02 1.0000000000000000e+00 9.2653168891064226e+00 9.0824537164937347e+00 9.6126314445076417e+00 
88 1 2 1.0154972261737549e+00 -3.2607225124733122e+02 1.0000000000000000e+00 9.2653168891064261e+00 9.0824537164937347e+00 9.6126314445076453e+00 
51 1 2 1.0154972261737549e+00 -2.9093787268563881e+02 1.0000000000000000e+00 9.2653168891064261e+00 9.0824537164937347e+00 9.6126314445076400e+00 
58 1 2 1.0154972261737549e+00 -2.4250988469348894e+02 1.0000000000000000e+00 9.2653168891064226e+00 9.0824537164937347e+00 9.6126314445076400e+00 
93 1 2 1.0154972261737549e+00 -2.8627877210090151e+02 1.0000000000000000e+00 9.2653168891064226e+00 9.0824537164937347e+00 9.6126314445076453e+00 
46 1 2 1.0280000000000022e+00 -2.4776732097746225e+02 1.0000000000000000e+00 8.7610016373374258e+00 3.3216099031772703e+00 1.2705735971269524e+01 
82 1 2 1.0280000000000098e+00 -2.5981780120868956e+02 1.0000000000000000e+00 8.7610019950984306e+00 3.3216098027906660e+00 1.2705736175426297e+01 
83 1 2 1.0279999999999998e+00 -2.6719801257644070e+02 1.0000000000000000e+00 8.7610026071759446e+00 3.3216098164404948e+00 1.2705736631496755e+01 
47 1 2 1.0279999999999965e+00 -2.1944375763398602e+02 1.0000000000000000e+00 7.0609823147481423e+00 2.8468396768832682e+00 1.3013713885125508e+01 
4 1 2 1.0280000000000014e+00 -2.0767914979340119e+02 1.0000000000000000e+00 7.0609823149304125e+00 2.8468396749303273e+00 1.3013713885130354e+01 
11 1 2 1.0280000000000002e+00 -1.9988912340238784e+02 1.0000000000000000e+00 7.0609823148181832e+00 2.8468396753553447e+00 1.3013713885417685e+01 
5 1 2 1.0279999999999956e+00 -2.5840020418711316e+02 1.0000000000000000e+00 7.0609823148012376e+00 2.8468396749332179e+00 1.3013713885642600e+01 
10 1 2 1.0280000000000025e+00 -1.9275743393255470e+02 1.0000000000000000e+00 7.0609823149298530e+00 2.8468396753375536e+00 1.3013713884980540e+01 
41 1 2 1.0280000000000207e+00 -3.3449258133977941e+02 1.0000000000000000e+00 9.0262139436150743e+00 2.6567721440509260e+00 1.4349678535082488e+01 
48 1 2 1.0280000000000169e+00 -2.3304973538379144e+02 1.0000000000000000e+00 9.0115403123832376e+00 2.6743559061289193e+00 1.4364843756499955e+01 
42 1 2 1.0279999999999740e+00 -2.4157024190756485e+02 1.0000000000000000e+00 8.9985254874284752e+00 2.6677438696326461e+00 1.4371484406322777e+01 
84 1 2 1.0280000000000005e+00 -2.7369103538731321e+02 1.0000000000000000e+00 9.0511243523863776e+00 2.6895933483559582e+00 1.4340896912075181e+01 
77 1 2 1.0279999999999958e+00 -3.2169331611864209e+02 1.0000000000000000e+00 9.0540885003901614e+00 2.6645578608020717e+00 1.4331526913400097e+01 
36 1 2 1.0279961061331520e+00 -3.2196680860330321e+02 1.0000000000000000e+00 1.1005196474421442e+01 9.6124924781577956e+00 1.5166520447055046e+01 
31 1 2 1.0279961061331557e+00 -2.7139358565490994e+02 1.0000000000000000e+00 1.1005196474415804e+01 9.6124924781568417e+00 1.5166520447069813e+01 
96 1 2 1.0279972099282757e+00 -3.8271129398899814e+02 1.0000000000000000e+00 1.0994558674414677e+01 9.5724594626916257e+00 1.5168700272672206e+01 
66 1 2 1.0279933864421189e+00 -3.8647373119663433e+02 1.0000000000000000e+00 1.1021312313777546e+01 9.6030223459946367e+00 1.5118466240506967e+01 
72 1 2 1.0279961061331551e+00 -3.1492467007187361e+02 1.0000000000000000e+00 1.1005196474421442e+01 9.6124924781577814e+00 1.5166520447055058e+01 
161 1 2 1.0280013506198442e+00 -2.3264903128224401e+02 1.0000000000000000e+00 1.2905751093986957e+01 9.4925323917946649e+00 1.5389892839313367e+01 
166 1 2 1.0280013506198442e+00 -2.4963341662235786e+02 1.0000000000000000e+00 1.2905751093986957e+01 9.4925323917946649e+00 1.5389892839313367e+01 
167 1 2 1.0280013506198442e+00 -2.4775654554380583e+02 1.0000000000000000e+00 1.2905751093986957e+01 9.4925323917946649e+00 1.5389892839313367e+01 
125 1 2 1.0280035344270984e+00 -2.8157598461091902e+02 1.0000000000000000e+00 1.2857251948556895e+01 8.4313029814538574e+00 1.7538822544381297e+01 
95 1 2 1.0280019966767526e+00 -2.0843330301598039e+02 1.0000000000000000e+00 1.1343441176280470e+01 8.5148814203827872e+00 1.7062026216615468e+01 
101 1 2 1.0280019966767526e+00 -2.6050099546479504e+02 1.0000000000000000e+00 1.1343441176280470e+01 8.5148814203827872e+00 1.7062026216615468e+01 
131 1 2 1.0280019966767526e+00 -2.6276733837886115e+02 1.0000000000000000e+00 1.1343441176280470e+01 8.5148814203827872e+00 1.7062026216615468e+01 
126 1 2 1.0280035344270984e+00 -2.7276460110483271e+02 1.0000000000000000e+00 1.2857251948556895e+01 8.4313029814538574e+00 1.7538822544381297e+01 
162 1 2 1.0280035344270984e+00 -3.6049390467115148e+02 1.0000000000000000e+00 1.2857251948556895e+01 8.4313029814538574e+00 1.7538822544381297e+01 
168 1 2 1.0280035344270984e+00 -2.5891444027306528e+02 1.0000000000000000e+00 1.2857251948556895e+01 8.4313029814538574e+00 1.7538822544381297e+01 
132 1 2 1.0280035344270984e+00 -3.6007328039824102e+02 1.0000000000000000e+00 1.2857251948556895e+01 8.4313029814538574e+00 1.7538822544381297e+01 
56 1 2 1.0279999999860414e+00 -2.6191505144281717e+02 1.0000000000000000e+00 8.1732838009286368e+00 1.0582302018061132e+01 2.6303592656813768e+00 
86 1 2 1.0279999999860414e+00 -2.3072233840000592e+02 1.0000000000000000e+00 8.1732838007564546e+00 1.0582302018136867e+01 2.6303592657050663e+00 
50 1 2 1.0279999999860407e+00 -2.4262155209329023e+02 1.0000000000000000e+00 8.1732838008371598e+00 1.0582302018101366e+01 2.6303592656940289e+00 
19 1 2 1.0279999999879452e+00 -2.8082974336125341e+02 1.0000000000000000e+00 8.1734108713064337e+00 1.0582247692903946e+01 2.6303273688453994e+00 
20 1 2 1.0279999999788560e+00 -2.9220770081878902e+02 1.0000000000000000e+00 7.0065028657404165e+00 1.0910988101337104e+01 2.8038734330983965e+00 
67 1 2 5.8028412924214567e-01 -2.2017931503723878e+02 1.0000000000000000e+00 1.0136766946877179e+01 1.6733217679232077e+01 2.7041463488140258e+00 
68 1 2 5.8028412924214567e-01 -2.6287664412097905e+02 1.0000000000000000e+00 1.0136766946877179e+01 1.6733217679231956e+01 2.7041463488140383e+00 
104 1 2 5.8028412924214567e-01 -2.3356120243380968e+02 1.0000000000000000e+00 1.0136766946877229e+01 1.6733217679231988e+01 2.7041463488140383e+00 
103 1 2 5.8028412924214567e-01 -2.4509031445160755e+02 1.0000000000000000e+00 1.0136766946877229e+01 1.6733217679232109e+01 2.7041463488140258e+00 
100 1 2 1.0279999999980987e+00 -2.0362379560090375e+02 1.0000000000000000e+00 1.2954336810338862e+01 1.4400267335657462e+01 8.7256260281722806e+00 
99 1 2 1.0279999999959151e+00 -2.1545634796389527e+02 1.0000000000000000e+00 1.2954337373714326e+01 1.4400267263213484e+01 8.7256264957732856e+00 
136 1 2 1.0279999999957441e+00 -2.6848369066639503e+02 1.0000000000000000e+00 1.2954132142176420e+01 1.4399851962516216e+01 8.7251979980719270e+00 
142 1 2 1.0279999999954879e+00 -2.6734592809547246e+02 1.0000000000000000e+00 1.2953995752344841e+01 1.4400236956655590e+01 8.7252993707104647e+00 
105 1 2 1.0280000000003391e+00 -2.8484774666835943e+02 1.0000000000000000e+00 1.3246834599481540e+01 1.5303806744003939e+01 8.3316220187734977e+00 
69 1 2 2.9014206462107284e-01 -2.0687795086297916e+02 1.0000000000000000e+00 8.6689290352609358e+00 1.8399640301556694e+01 9.1355382557033344e+00 
40 1 2 2.9014206462107284e-01 -2.1407362766061397e+02 1.0000000000000000e+00 8.6689290352608914e+00 1.8399640301556708e+01 9.1355382557033789e+00 
23 1 2 1.0279965200497769e+00 -2.5393388539351398e+02 1.0000000000000000e+00 1.3039464201466645e+01 1.0210001218144384e+01 1.3307696578533378e+01 
29 1 2 1.0279965236596438e+00 -2.7032065841566862e+02 1.0000000000000000e+00 1.3039463062966119e+01 1.0210132386436849e+01 1.3307745528755827e+01 
65 1 2 1.0279973083698881e+00 -2.9997773078286730e+02 1.0000000000000000e+00 1.3039476291191813e+01 1.0212734332066578e+01 1.3307777308524397e+01 
30 1 2 1.0279967658902580e+00 -2.3875159219739436e+02 1.0000000000000000e+00 1.3039471576332899e+01 1.0212806656659096e+01 1.3307640800828331e+01 
106 1 2 4.3521309693160926e-01 -1.8938461542274334e+02 1.0000000000000000e+00 1.1689194778022578e+01 1.8197066516729699e+01 1.2113280007626905e+01 
76 1 2 4.3521309693160926e-01 -1.8747414669063048e+02 1.0000000000000000e+00 1.1689194778022578e+01 1.8197066516729702e+01 1.2113280007626942e+01 
107 1 2 4.3521309693160926e-01 -1.7792149388021124e+02 1.0000000000000000e+00 1.1689194778022607e+01 1.8197066516729699e+01 1.2113280007626940e+01 
102 1 2 5.8028412924214567e-01 -2.1847195440127342e+02 1.0000000000000000e+00 1.2564618015721333e+01 1.5289499942189074e+01 1.6856028234547143e+01 
144 1 2 5.8028412924214567e-01 -2.1800422007358549e+02 1.0000000000000000e+00 1.2564618015721383e+01 1.5289499942189124e+01 1.6856028234547264e+01 
108 1 2 5.8028412924214567e-01 -2.1118287013401829e+02 1.0000000000000000e+00 1.2564618015721333e+01 1.5289499942189124e+01 1.6856028234547232e+01 
138 1 2 5.8028412924214567e-01 -2.2980827701673732e+02 1.0000000000000000e+00 1.2564618015721383e+01 1.5289499942189074e+01 1.6856028234547111e+01 
157 1 2 1.0280000000000000e+00 -2.2793184754485677e+02 1.0000000000000000e+00 1.6885809622824166e+01 9.4199592009934054e+00 2.9491520674901532e+00 
158 1 2 1.0280000000000002e+00 -2.6145085950844020e+02 1.0000000000000000e+00 1.6886125628027287e+01 9.4168776972371386e+00 2.9434934278717493e+00 
164 1 2 1.0280000000000002e+00 -2.5353363574387828e+02 1.0000000000000000e+00 1.6908237426877019e+01 9.3962868504826087e+00 2.9120659846777626e+00 
128 1 2 1.0280000000000000e+00 -2.8178978993897709e+02 1.0000000000000000e+00 1.7013901828255278e+01 9.3583712585968026e+00 2.8179029302032506e+00 
111 1 2 1.4507103231053642e-01 7.0064832395343757e+00 1.0000000000000000e+00 1.4262404346845287e+01 7.3301187020357916e-01 6.3659926903749611e+00 
116 1 2 2.9014206462107284e-01 -1.4601337604353830e+02 1.0000000000000000e+00 1.6388872841382085e+01 4.1725466831186715e+00 4.1719012170643657e+00 
152 1 2 2.9014206462107284e-01 -1.4427227815688346e+02 1.0000000000000000e+00 1.6388872841382174e+01 4.1725466831186937e+00 4.1719012170643692e+00 
129 1 2 1.0154972261737549e+00 -2.9725857618872760e+02 1.0000000000000000e+00 1.4768711794676468e+01 7.8620236699650885e+00 8.4868288295725751e+00 
130 1 2 1.0154972261737549e+00 -2.9762209959794819e+02 1.0000000000000000e+00 1.4768711794676468e+01 7.8620236699650903e+00 8.4868288295725751e+00 
159 1 2 1.0154972261737549e+00 -2.1465018660509369e+02 1.0000000000000000e+00 1.4768711794676468e+01 7.8620236699650885e+00 8.4868288295725751e+00 
124 1 2 1.0154972261737549e+00 -3.0235083259778276e+02 1.0000000000000000e+00 1.4768711794676468e+01 7.8620236699650867e+00 8.4868288295725822e+00 
165 1 2 1.0154972261737549e+00 -2.2446342455682577e+02 1.0000000000000000e+00 1.4768711794676468e+01 7.8620236699650867e+00 8.4868288295725947e+00 
117 1 2 1.0154972261737549e+00 -2.3369920856569217e+02 1.0000000000000000e+00 1.4768711794676468e+01 7.8620236699650885e+00 8.4868288295725751e+00 
123 1 2 1.0154972261737549e+00 -3.0253721725971377e+02 1.0000000000000000e+00 1.4768711794676468e+01 7.8620236699650867e+00 8.4868288295725876e+00 
112 1 2 1.0280000000000000e+00 -2.5142833235787225e+02 1.0000000000000000e+00 1.5636892473305220e+01 3.1577056205001446e+00 1.1250322922272151e+01 
113 1 2 1.0279999999999920e+00 -2.5964391615812349e+02 1.0000000000000000e+00 1.5648278260762291e+01 3.1759133228188667e+00 1.1283042713984884e+01 
118 1 2 1.0280000000000156e+00 -2.8508048475462618e+02 1.0000000000000000e+00 1.5587298316585120e+01 3.2698441729013465e+00 1.1248134446162666e+01 
119 1 2 1.0280000000000029e+00 -3.1891600801922453e+02 1.0000000000000000e+00 1.5650018811374849e+01 3.3189157527480040e+00 1.1361778507723443e+01 
148 1 2 1.0279999999999885e+00 -3.0482041401668982e+02 1.0000000000000000e+00 1.6742912512766114e+01 3.2274800983694374e+00 1.0163297400754791e+01 
147 1 2 1.0279999999999949e+00 -2.2102845894724919e+02 1.0000000000000000e+00 1.6731828004089468e+01 3.2697676576394761e+00 1.0137375567917433e+01 
153 1 2 1.0280000000000069e+00 -2.0656196828394479e+02 1.0000000000000000e+00 1.6731804917763732e+01 3.2698144922025905e+00 1.0137343107008757e+01 
155 1 2 1.0279999999999978e+00 -3.5439437594726843e+02 1.0000000000000000e+00 1.6783771394061080e+01 3.9963710070305973e+00 1.1265588630842229e+01 
160 1 2 1.0280000000000007e+00 -2.3248979757326896e+02 1.0000000000000000e+00 1.6750985603599624e+01 4.2126738572356635e+00 1.0726508709281530e+01 
154 1 2 1.0280000000000018e+00 -2.7068457187716734e+02 1.0000000000000000e+00 1.6779433973148915e+01 4.1928656065259462e+00 1.0697167427492701e+01 
24 1 2 1.0281112026691233e+00 -2.3620724024530648e+02 1.0000000000000000e+00 1.3375946851608468e+01 9.9719612239899718e+00 1.2922213203021377e+01 
114 1 2 5.8028412924214567e-01 -2.6067573901898959e+02 1.0000000000000000e+00 1.6989801697664738e+01 1.3769733508897461e-01 1.5935073081782868e+01 
149 1 2 5.8028412924214567e-01 -2.2035117622125881e+02 1.0000000000000000e+00 1.6989801697664738e+01 1.3769733508897461e-01 1.5935073081782868e+01 
150 1 2 5.8028412924214567e-01 -2.0694879147586033e+02 1.0000000000000000e+00 1.6989801697664738e+01 1.3769733508897461e-01 1.5935073081782868e+01 
180 1 2 5.8028412924214567e-01 -2.1561815574209311e+02 1.0000000000000000e+00 1.6989801697664721e+01 1.3769733508897458e-01 1.5935073081782859e+01 
127 1 2 1.0280000000000005e+00 -2.7084235077410875e+02 1.0000000000000000e+00 1.7163768476655545e+01 1.0309207111584001e+01 2.5982785364278538e+00 
163 1 2 1.0280000000000002e+00 -2.8994652065714166e+02 1.0000000000000000e+00 1.7120767285914976e+01 1.0325499975614315e+01 2.6158858389941750e+00 
169 1 2 1.0279999999999998e+00 -2.7965709877015797e+02 1.0000000000000000e+00 1.7064646666993038e+01 1.0282540213104649e+01 2.4798969513842435e+00 
170 1 2 1.0279999999999998e+00 -2.6650821742284722e+02 1.0000000000000000e+00 1.7064469929419143e+01 1.0282391459181207e+01 2.4796082411362836e+00 
133 1 2 4.3521309693160926e-01 -2.2569927483025947e+02 1.0000000000000000e+00 1.5851714503014957e+01 1.5608255539409765e+01 8.0946496256595901e-01 
139 1 2 4.3521309693160926e-01 -3.2002914009663044e+02 1.0000000000000000e+00 1.5851714503014939e+01 1.5608255539409782e+01 8.0946496256595790e-01 
175 1 2 4.3521309693160926e-01 -2.5735386805640167e+02 1.0000000000000000e+00 1.5851714503014957e+01 1.5608255539409765e+01 8.0946496256595901e-01 
145 1 2 1.4507103231053642e-01 1.0949149026349569e+00 1.0000000000000000e+00 1.8303595122002942e+01 1.9696370530197306e+01 4.1246499040947815e-01 
140 1 2 4.3521309693160926e-01 -2.0572618957662672e+02 1.0000000000000000e+00 1.7035879212678868e+01 1.8376526983373576e+01 4.3827862856883986e+00 
176 1 2 4.3521309693160926e-01 -2.4026211547493793e+02 1.0000000000000000e+00 1.7035879212678868e+01 1.8376526983373576e+01 4.3827862856884003e+00 
146 1 2 4.3521309693160926e-01 -2.2760470387964136e+02 1.0000000000000000e+00 1.7035879212678950e+01 1.8376526983373658e+01 4.3827862856883808e+00 
134 1 2 1.0280000000023484e+00 -2.7735150833038693e+02 1.0000000000000000e+00 1.3887006971321119e+01 1.4785870346093960e+01 7.7197649380387308e+00 
171 1 2 1.0280000000030436e+00 -2.9191306873240273e+02 1.0000000000000000e+00 1.3886521448094195e+01 1.4785583377559476e+01 7.7192487244331476e+00 
135 1 2 1.0280000000018550e+00 -2.8480984193070128e+02 1.0000000000000000e+00 1.3886754663735742e+01 1.4784526573946280e+01 7.7192654376774534e+00 
141 1 2 1.0280000000021956e+00 -2.7096898998921768e+02 1.0000000000000000e+00 1.3884053612090392e+01 1.4772893484611508e+01 7.7146621200318544e+00 
172 1 2 4.3521309693160926e-01 -2.2952976333251053e+02 1.0000000000000000e+00 1.8300477155361406e+01 1.5815651729271840e+01 9.6271848595708178e+00 
177 1 2 4.3521309693160926e-01 -2.1161426257540595e+02 1.0000000000000000e+00 1.8300477155361406e+01 1.5815651729271837e+01 9.6271848595708214e+00 
178 1 2 4.3521309693160926e-01 -2.4244542859673430e+02 1.0000000000000000e+00 1.8300477155361374e+01 1.5815651729271833e+01 9.6271848595708178e+00 
2 1 2 1.0280329589639419e+00 -2.5647511005887384e+02 1.0000000000000000e+00 1.4441289093950008e+01 1.0989341591652726e+01 1.1612424907084362e+01 
43 1 2 1.0280329589639419e+00 -2.8104852026048769e+02 1.0000000000000000e+00 1.4441289093950008e+01 1.0989341591652726e+01 1.1612424907084362e+01 
6 1 2 1.0280329589639419e+00 -2.8402546501625886e+02 1.0000000000000000e+00 1.4441289093950008e+01 1.0989341591652726e+01 1.1612424907084362e+01 
12 1 2 1.0280329589639419e+00 -2.8509376826513204e+02 1.0000000000000000e+00 1.4441289093950008e+01 1.0989341591652726e+01 1.1612424907084362e+01 
7 1 2 1.0280329589639419e+00 -2.6829381243700425e+02 1.0000000000000000e+00 1.4441289093950008e+01 1.0989341591652726e+01 1.1612424907084362e+01 
1 1 2 1.0280329589639419e+00 -2.9461858754123733e+02 1.0000000000000000e+00 1.4441289093950008e+01 1.0989341591652726e+01 1.1612424907084362e+01 
173 1 2 7.2535516155268209e-01 -3.2471089102709635e+02 1.0000000000000000e+00 1.6457066330233971e+01 1.4964707360717423e+01 1.3914622311192895e+01 
174 1 2 7.2535516155268209e-01 -3.1026090011709766e+02 1.0000000000000000e+00 1.6457066330233971e+01 1.4964707360717430e+01 1.3914622311192879e+01 
179 1 2 7.2535516155268209e-01 -2.4690579213724754e+02 1.0000000000000000e+00 1.6457066330233943e+01 1.4964707360717385e+01 1.3914622311192879e+01 
143 1 2 7.2535516155268209e-01 -2.5585854926846616e+02 1.0000000000000000e+00 1.6457066330233943e+01 1.4964707360717385e+01 1.3914622311192879e+01 
137 1 2 7.2535516155268209e-01 -2.7583362465544047e+02 1.0000000000000000e+00 1.6457066330233996e+01 1.4964707360717426e+01 1.3914622311192915e+01 

Velocities

59 1.6320764279192709e-13 -4.7469188400151505e-14 -1.4912802418493278e-12
89 5.4900702807894375e-13 8.9678174590843414e-13 -1.9602735479938012e-12
53 5.4900702807894375e-13 8.9678174590843414e-13 -1.9602735479938012e-12
60 5.4900702807894375e-13 8.9678174590843414e-13 -1.9602735479938012e-12
54 5.4900702807894375e-13 8.9678174590843414e-13 -1.9602735479938012e-12
90 5.4900702807894375e-13 8.9678174590843414e-13 -1.9602735479938012e-12
15 3.1595773588567005e-13 2.4825250676987517e-12 -9.0273638825036215e-14
9 9.9301002707343023e-13 -1.3089677629526739e-12 4.5136819412518108e-14
8 -1.3089677629649677e-12 -1.1735573047150973e-12 4.5136819412518108e-14
18 -3.7734632166192091e-26 -1.2186941241323131e-12 1.6249254988623434e-12
17 -8.1246274942534972e-13 3.3852614559444996e-12 -3.7914928306397873e-12
16 8.1246274942527459e-13 -2.1665673317952041e-12 2.1665673318125377e-12
49 -2.7455314476056671e-08 -2.6258984017530437e-08 -1.1731683051979079e-09
13 -2.7455308551635543e-08 -2.6258990356298411e-08 -1.1731699823579306e-09
25 -2.7455311563908303e-08 -2.6258984551547107e-08 -1.1731688755682541e-09
26 -2.7455312180295294e-08 -2.6258983880943976e-08 -1.1731687071425551e-09
62 -2.7455310072427871e-08 -2.6258986175430032e-08 -1.1731692832283973e-09
14 -2.7455309274471315e-08 -2.6258977381650682e-08 -1.1731682326032083e-09
28 -1.8939772365148634e-13 -4.4242690327399545e-13 2.9135790242546903e-13
34 -1.8939772365148634e-13 -4.4242690327399545e-13 2.9135790242546903e-13
35 -1.8939772365148634e-13 -4.4242690327399545e-13 2.9135790242546903e-13
70 -1.8939772365148634e-13 -4.4242690327399545e-13 2.9135790242546903e-13
71 -1.8939772365148634e-13 -4.4242690327399545e-13 2.9135790242546903e-13
32 -6.5375138833457688e-13 -7.4143500836692863e-13 3.2786194898536953e-12
33 -6.5375138833457688e-13 -7.4143500836692863e-13 3.2786194898536953e-12
3 -6.5375138833457688e-13 -7.4143500836692863e-13 3.2786194898536953e-12
22 3.9435948703496186e-12 3.2457571041320064e-14 6.9134626121369802e-12
64 -7.3029534637661173e-13 -3.5703328036217663e-13 7.3029534638140621e-12
63 -7.3029534637661224e-13 -7.4652413189860330e-13 -4.9660083553611615e-12
57 -3.2619858804982667e-12 1.5904209762743886e-12 2.8238086727425715e-12
27 2.4343178213213236e-13 3.2457571041319149e-14 -7.1082080378999436e-12
21 5.3554992068431817e-13 -5.5177870606392582e-13 -4.9660083553611615e-12
37 -1.3386080272978859e-12 -2.2467109247420668e-13 -5.2116246443714126e-13
79 2.6852947195703259e-12 9.0533461808832446e-13 4.9137736809970403e-14
73 3.3916998917233666e-12 1.1048466657843866e-12 1.4912781451500633e-13
78 1.9480039647346822e-12 6.9854207166776960e-13 -5.4853174541652475e-14
110 -4.7946974185936550e-14 -5.2166068577207052e-14 6.5953803077341756e-14
109 -4.1493816168603943e-13 2.7151536241785374e-13 -9.3177501226425640e-13
156 -1.6195974796444300e-12 -7.1217595880000243e-13 3.4430570348290381e-13
120 -1.2830739044707421e-12 -5.2318925915261382e-13 1.8212460318523723e-13
151 -1.7244193608407190e-12 -7.7059177486790724e-13 3.9149298938039190e-13
115 -1.5964146681831417e-12 -6.9744456412781654e-13 3.2564800077374218e-13