LAMMPS data file via write_data, version 30 Jul 2016, timestep = 50400000

3696 atoms
8 atom types

0.0000000000000000e+00 1.0000000000000000e+02 xlo xhi
0.0000000000000000e+00 4.0000000000000000e+01 ylo yhi
0.0000000000000000e+00 4.0000000000000000e+01 zlo zhi

Masses

1 3.896
2 5.36
3 20.064
4 8.378
5 8.378
6 8.378
7 8.378
8 8.378

Atoms # meso-molecular

1726 1727 2 1.0280000000060403e+00 -3.5125986255062353e+03 1.0000000000000000e+00 3.2589721067030283e+01 1.7740241288042160e+00 3.2116905661172570e+00 
450 451 2 1.0279999999994878e+00 -4.5102362959242710e+03 1.0000000000000000e+00 3.2097881145416629e+01 1.6970963633866951e+00 2.3864615742669693e+00 
2751 2752 2 1.0279999999928542e+00 -3.6531213977321763e+03 1.0000000000000000e+00 3.2397669153031380e+01 2.4238957648289121e+00 2.3521891955802734e+00 
429 430 2 1.0279999999984564e+00 1.0163726586065229e+02 1.0000000000000000e+00 2.6174227505196885e+01 2.2834331715257328e+00 3.5352547218679696e+01 
972 973 2 1.0279999999984393e+00 -3.0657787648207877e+03 1.0000000000000000e+00 2.6171237868401256e+01 2.2849324456911178e+00 3.5352634993110527e+01 
2400 2401 2 1.0279999999936904e+00 1.6662332540501520e+03 1.0000000000000000e+00 2.4970911033901729e+01 1.9629195648685935e+00 3.6866424329609359e+01 
1687 1688 2 1.0280000000007443e+00 -1.3263049812983154e+03 1.0000000000000000e+00 2.6757113128021160e+01 1.5818979177972303e+00 3.6818021777391650e+01 
3028 3029 2 1.0280000000004832e+00 -2.6886326537636678e+03 1.0000000000000000e+00 2.6456680054901931e+01 1.8429175907830184e+00 3.7422984941756873e+01 
2025 2026 2 1.0279999999986198e+00 3.4875515711877160e+03 1.0000000000000000e+00 2.3250622162037100e+01 2.5653053628690747e+00 3.6985581393164331e+01 
523 524 2 1.0280000000021621e+00 -1.8202951479449471e+03 1.0000000000000000e+00 2.3064975315372948e+01 2.7955715648687134e+00 3.7065730525593061e+01 
1186 1187 2 1.0280000000077933e+00 -1.5917376655981457e+03 1.0000000000000000e+00 2.5227539174035407e+01 2.9973392247840676e+00 3.7271611613043198e+01 
1017 1018 2 1.0279999999969323e+00 4.5032184646570986e+03 1.0000000000000000e+00 2.3673700827315521e+01 4.3806896211145121e+00 3.6860385927623021e+01 
1781 1782 2 1.0280000000006249e+00 4.4244292784262529e+02 1.0000000000000000e+00 2.3734673086689831e+01 4.5481892273428244e+00 3.7520677903717804e+01 
2019 2020 2 1.0280000000045395e+00 3.8295242976149552e+01 1.0000000000000000e+00 2.5074042100509153e+01 5.0222261070596552e+00 3.7714179585502862e+01 
1015 1016 2 1.0279999999993155e+00 -3.6237673465722883e+03 1.0000000000000000e+00 2.6468783863903845e+01 4.2512173965650213e+00 3.7217890967627781e+01 
515 516 2 1.0280000000026559e+00 -1.7942992327092247e+03 1.0000000000000000e+00 2.8607575540666389e+01 4.0327118250312752e+00 3.7822780770335285e+01 
650 651 2 1.0279999999912401e+00 5.9856587620137279e+03 1.0000000000000000e+00 2.9046621453701672e+01 3.7532140523537181e+00 3.8571430852359590e+01 
592 593 2 1.0280000000112088e+00 -1.0399078048481406e+03 1.0000000000000000e+00 2.7154456072149081e+01 4.3409018105899877e+00 3.8158837397514105e+01 
1143 1144 2 1.0279999999934757e+00 -7.3629414559772522e+02 1.0000000000000000e+00 2.6134345271487046e+01 5.1217215986557756e+00 3.8166076498930117e+01 
1940 1941 2 1.0280000000260072e+00 1.3571804584894676e+03 1.0000000000000000e+00 2.9940645812225011e+01 4.0429874107596548e+00 3.8211740734905156e+01 
231 232 2 1.0279999999919993e+00 -3.8135213944256375e+03 1.0000000000000000e+00 3.1301834805545663e+01 4.4031697346975660e+00 3.9542715882160316e+01 
193 194 2 1.0279999999867424e+00 3.5662527688316932e+03 1.0000000000000000e+00 3.1210384085655974e+01 4.9579408509933582e+00 3.8543560592227578e+01 
1474 1475 2 1.0280000000165361e+00 -3.5642043186134815e+03 1.0000000000000000e+00 3.2071023128015241e+01 4.0380232126081070e+00 3.9235255161693281e+01 
2663 2664 2 1.0279999999951188e+00 -1.6341261324994748e+03 1.0000000000000000e+00 3.1066579410845566e+01 7.3858709136748573e+00 3.8561878868504145e+01 
990 991 2 1.0280000000076397e+00 1.0321031726881263e+03 1.0000000000000000e+00 3.0594443956583753e+01 6.4636795725295055e+00 3.8912901869945628e+01 
987 988 2 1.0279999999965939e+00 9.5899713369399251e+02 1.0000000000000000e+00 3.0440846826865624e+01 7.3942128266265801e+00 3.8385161150753305e+01 
92 93 2 1.0280000000007061e+00 1.2902203190413109e+03 1.0000000000000000e+00 3.2952215673775271e+01 3.6587177187087065e+01 9.3318716295044679e-01 
2446 2447 2 1.0280000000005192e+00 2.6935731116455208e+03 1.0000000000000000e+00 3.2198988568165305e+01 3.7254285221107814e+01 1.8125716265994093e-01 
2614 2615 2 1.0280000000004279e+00 2.6921887319122889e+03 1.0000000000000000e+00 3.2308497238051693e+01 3.6919694037701106e+01 3.9660881230366343e+01 
348 349 2 1.0280000000023888e+00 -3.2025201007067590e+03 1.0000000000000000e+00 3.5068474648029444e+01 1.8532544181809458e+00 1.4026760764132635e+00 
305 306 2 1.0279999999969338e+00 -3.7551880270215997e+03 1.0000000000000000e+00 3.5480667443825716e+01 1.6525131262926525e+00 1.5106584806329042e+00 
2454 2455 2 1.0279999999976615e+00 -6.1800965470458095e+02 1.0000000000000000e+00 3.6929285469193495e+01 7.0990345215019554e-02 1.7521766714034424e+00 
479 480 2 1.0279999999980520e+00 6.3165480816157469e+03 1.0000000000000000e+00 4.0809528402386356e+01 1.5575588518333163e+00 8.5384746382552501e-01 
1568 1569 2 1.0280000000021683e+00 4.5943248724131354e+03 1.0000000000000000e+00 4.1175029869427014e+01 4.2992192382821537e-01 1.0580617741031184e+00 
15 16 2 1.0280000000032223e+00 -3.4723080715374836e+03 1.0000000000000000e+00 4.2777143288226782e+01 1.8681415062009055e+00 3.0782559060885994e-01 
1575 1576 2 1.0279999999861080e+00 6.5148927802236303e+03 1.0000000000000000e+00 4.3250445179283858e+01 6.0930606361671524e-01 1.5852056374333992e-01 
510 511 2 1.0280000000012797e+00 -2.7079536744511879e+03 1.0000000000000000e+00 5.0073941916246909e+01 1.1173947429387463e+00 1.5077003190713660e+00 
472 473 2 1.0279999999830551e+00 -3.8315473523350465e+03 1.0000000000000000e+00 5.1123708336600991e+01 9.8312413299483636e-01 1.5421362828298513e+00 
2782 2783 2 1.0280000000160936e+00 -3.8221088633029262e+03 1.0000000000000000e+00 5.2847169994731296e+01 5.2605167780005357e-01 1.9308954758768710e+00 
1182 1183 2 1.0280000000194365e+00 6.9144927624300180e+03 1.0000000000000000e+00 5.3742997457537001e+01 6.3236633037542445e-01 1.7539135062130644e+00 
2353 2354 2 1.0280000000198188e+00 1.8386808217898482e+02 1.0000000000000000e+00 5.5612377128235352e+01 4.1222238481928569e-01 1.0384398147778979e+00 
1515 1516 2 1.0279999999908636e+00 -2.2075957490186756e+03 1.0000000000000000e+00 5.6017816944185128e+01 1.0741668916022986e+00 1.1137466798054618e+00 
339 340 2 1.0280000000037626e+00 3.8735486023217472e+03 1.0000000000000000e+00 5.6760529341928759e+01 1.1788480696055604e-02 1.6177274637649384e+00 
346 347 2 1.0279999999773608e+00 -3.4870729174227372e+03 1.0000000000000000e+00 5.8671261433253072e+01 4.4767131942511645e-01 9.4482225730346781e-01 
926 927 2 1.0280000000037257e+00 1.5543249233946340e+03 1.0000000000000000e+00 6.0181128246839954e+01 2.7739601183084983e-01 1.2266327221312219e+00 
1644 1645 2 1.0280000000446310e+00 -2.1766777963929917e+03 1.0000000000000000e+00 6.0251326596127704e+01 1.8349734997234572e+00 6.6836433271194928e-01 
718 719 2 1.0279999999626137e+00 -2.6923862222973721e+03 1.0000000000000000e+00 6.1844035018745991e+01 6.6224012537634798e-03 8.7477314984513677e-01 
1658 1659 2 1.0279999999599321e+00 5.4740855705316899e+03 1.0000000000000000e+00 3.4387391328870208e+01 3.3090866319473364e+00 1.2893289001035768e+00 
1155 1156 2 1.0280000000369067e+00 -5.9993081752042162e+03 1.0000000000000000e+00 3.3900107615739884e+01 3.9630612507278187e+00 1.7386418421183777e-01 
2996 2997 2 1.0280000000306493e+00 -4.5630647164635830e+03 1.0000000000000000e+00 3.6126354577254105e+01 3.4111836419223640e+00 4.4562085680279262e-01 
1488 1489 2 1.0280000000061786e+00 2.3915138002858857e+03 1.0000000000000000e+00 3.6366217055692999e+01 3.7490469961084547e+00 6.3851532954566825e-01 
435 436 2 1.0279999999827065e+00 -3.3926510018179470e+03 1.0000000000000000e+00 3.7472298981175868e+01 2.9248460207592979e+00 1.3909887067399471e+00 
1148 1149 2 1.0280000000150871e+00 -3.9107902390023137e+03 1.0000000000000000e+00 3.8495489134908929e+01 3.6477618587954459e+00 1.5147072318056496e+00 
1071 1072 2 1.0280000000145484e+00 1.9188880116464253e+02 1.0000000000000000e+00 4.1270618125616458e+01 3.8078305335098110e+00 3.4735216397259122e-01 
1066 1067 2 1.0279999999773441e+00 3.7246797990442246e+02 1.0000000000000000e+00 4.1475785372690147e+01 2.9762110064346716e+00 1.8812269786156031e+00 
775 776 2 1.0279999999892657e+00 -2.6304095198063483e+03 1.0000000000000000e+00 4.2133900229858916e+01 3.9586428668314988e+00 5.1620988744677077e-01 
94 95 2 1.0279999999920677e+00 -3.4926510376337446e+03 1.0000000000000000e+00 5.7105404108152122e+01 2.7611251696597603e+00 1.5111892784432577e+00 
3327 3328 2 1.0280000000262470e+00 -1.2042962412578386e+03 1.0000000000000000e+00 5.7669356414429956e+01 2.3285982384867583e+00 8.7395648711275353e-01 
1986 1987 2 1.0279999999841993e+00 7.4974974204998844e+03 1.0000000000000000e+00 5.8468316055883726e+01 3.9676715688239308e+00 1.7276445819632917e+00 
53 54 2 1.0280000000261909e+00 -1.6171304679158407e+03 1.0000000000000000e+00 5.9988870154810776e+01 2.5815222846876162e+00 1.7835245974274465e+00 
1120 1121 2 1.0279999999341822e+00 -2.3913484474787138e+03 1.0000000000000000e+00 6.1398311041806643e+01 3.0382918857525270e+00 1.2935591907188289e+00 
2103 2104 2 1.0280000000116636e+00 3.8107019459598384e+01 1.0000000000000000e+00 3.7930541420836150e+01 4.7508509273908803e+00 1.5795744394497635e+00 
1610 1611 2 1.0280000000019842e+00 2.8677410667020176e+03 1.0000000000000000e+00 3.8713701739658219e+01 5.9570685133038328e+00 1.3557448710958666e+00 
1151 1152 2 1.0279999999838465e+00 -9.6897053947437125e+03 1.0000000000000000e+00 3.9016999107472571e+01 5.9522993674558107e+00 1.3690513368051132e+00 
1068 1069 2 1.0280000000143792e+00 -5.9629398907890686e+02 1.0000000000000000e+00 4.0677612346746344e+01 4.4506374925459662e+00 1.6705250738940272e+00 
772 773 2 1.0279999999894005e+00 -2.2041894559178754e+03 1.0000000000000000e+00 4.3109095154066651e+01 4.9044111746867385e+00 1.5095088363497486e+00 
1571 1572 2 1.0279999999793499e+00 5.8879955005437705e+03 1.0000000000000000e+00 5.9883873645416202e+01 4.1500868516718796e+00 1.1547072731626316e+00 
948 949 2 1.0279999999434615e+00 -6.0658351042860741e+03 1.0000000000000000e+00 6.4457334770696434e+01 5.6898423408066661e+00 1.9598535235070089e+00 
520 521 2 1.0279999999938831e+00 -6.8622423184021773e+02 1.0000000000000000e+00 4.2923628043956491e+01 6.2808099837855487e+00 5.3125587951677067e-01 
1149 1150 2 1.0280000000370590e+00 -1.1227038315584396e+03 1.0000000000000000e+00 4.1631681965812035e+01 6.4264331790312008e+00 8.8610465185196485e-01 
55 56 2 1.0279999999874208e+00 -1.8501777941437483e+03 1.0000000000000000e+00 4.1777265876839401e+01 6.5091634350787437e+00 3.5111552905500382e-01 
221 222 2 1.0280000000111460e+00 5.9968981203475494e+01 1.0000000000000000e+00 4.4540660726073682e+01 6.0632987221493169e+00 1.1125859476636393e+00 
517 518 2 1.0279999999891856e+00 -1.8674789030722457e+03 1.0000000000000000e+00 4.5474740840415485e+01 7.0052710411606025e+00 9.8631599127654535e-01 
2327 2328 2 1.0279999999880702e+00 -5.7210168991807841e+03 1.0000000000000000e+00 4.5588168725711995e+01 6.8766249673426163e+00 9.9970338590405439e-01 
1351 1352 2 1.0280000000099558e+00 -3.8721869814131560e+03 1.0000000000000000e+00 5.9052167271084159e+01 6.6782009225104026e+00 1.2197095703361059e-01 
573 574 2 1.0280000000154217e+00 -4.8153360792763297e+03 1.0000000000000000e+00 6.0048602802031795e+01 7.9051848733396479e+00 1.0367068821127818e+00 
1127 1128 2 1.0280000000336067e+00 1.9534173348207423e+03 1.0000000000000000e+00 6.2334796200977905e+01 6.0560201697515650e+00 1.1824025947744594e+00 
66 67 2 1.0279999999798943e+00 -1.6506209262431962e+03 1.0000000000000000e+00 6.3957455554566870e+01 6.0672071871264155e+00 1.5004590883735036e+00 
1073 1074 2 1.0279999999477105e+00 -1.1685243858300262e+02 1.0000000000000000e+00 6.2929376903692500e+01 7.2551899137684881e+00 1.1165664518688698e+00 
933 934 2 1.0279999999906200e+00 -4.6985913885642622e+03 1.0000000000000000e+00 5.9128303593618661e+01 8.4383585564391002e+00 4.5571856370191477e-01 
2930 2931 2 1.0279999999979230e+00 1.4037508387022419e+02 1.0000000000000000e+00 5.9944178072567624e+01 9.8804810803817666e+00 1.1142825328862920e+00 
2048 2049 2 1.0279999999983798e+00 3.8693114035653416e+03 1.0000000000000000e+00 6.1679983960535154e+01 8.0154843712656625e+00 1.9121394637787608e+00 
90 91 2 1.0279999999956593e+00 -1.9205738858152531e+03 1.0000000000000000e+00 6.3293319387527156e+01 9.1222588773354136e+00 9.6881138008878265e-01 
342 343 2 1.0279999999954226e+00 -1.9097190732780873e+03 1.0000000000000000e+00 6.3301686370008952e+01 9.1169295769366379e+00 9.5900897560573717e-01 
2536 2537 2 1.0279999999580076e+00 -2.1072018503912086e+03 1.0000000000000000e+00 6.0273788805896828e+01 1.0392518457092674e+01 1.8491473331623614e+00 
502 503 2 1.0280000000053062e+00 -2.2670738032235186e+03 1.0000000000000000e+00 6.1013427547636994e+01 1.1243576869479709e+01 1.1555544144584944e+00 
3346 3347 2 1.0279999999420371e+00 -3.1035018587343502e+03 1.0000000000000000e+00 6.1057807844337191e+01 1.1511432303919936e+01 2.9322981709478868e-01 
3547 3548 2 1.0279999999937592e+00 -2.3560148542937404e+03 1.0000000000000000e+00 3.7102527026822827e+01 1.1012361520731617e+00 2.2804822926517359e+00 
3161 3162 2 1.0279999999959621e+00 -1.7561321225122460e+03 1.0000000000000000e+00 3.7740593041447504e+01 8.2381126587604148e-01 3.5156668317933586e+00 
1824 1825 2 1.0280000000511151e+00 -2.7873291219036309e+03 1.0000000000000000e+00 3.9195026491159794e+01 1.7964788586841880e+00 3.1257598680465244e+00 
3123 3124 2 1.0280000000013254e+00 -5.7574448282268113e+03 1.0000000000000000e+00 3.8766985965746265e+01 1.2778039468092522e-01 2.4267048420644466e+00 
50 51 2 1.0280000000104548e+00 -1.7034882073807307e+03 1.0000000000000000e+00 4.9486783007651930e+01 1.1892516070678960e+00 3.7706254673491215e+00 
1983 1984 2 1.0280000000086074e+00 -7.1242421782855286e+02 1.0000000000000000e+00 4.9614935151759447e+01 8.1195455879029410e-01 2.1775360115325633e+00 
1196 1197 2 1.0280000000004634e+00 -7.6621581605962729e+02 1.0000000000000000e+00 5.0472088160721533e+01 1.8519293776074994e+00 3.9697612731230527e+00 
354 355 2 1.0279999999980527e+00 1.3831636348883553e+03 1.0000000000000000e+00 5.1484211044953042e+01 1.3797388481066681e+00 3.2159507435917387e+00 
345 346 2 1.0279999999984708e+00 -1.2148754933409055e+03 1.0000000000000000e+00 5.7951047334540789e+01 7.3146080228358279e-01 2.8725842153524148e+00 
1854 1855 2 1.0279999999682909e+00 -2.6600523511915917e+03 1.0000000000000000e+00 5.8726546841579513e+01 1.8486167440623842e+00 2.8259785717207753e+00 
1433 1434 2 1.0280000000254874e+00 -6.1556735279918406e+01 1.0000000000000000e+00 5.9806095682040983e+01 8.7284943058633857e-01 3.6957985592204974e+00 
862 863 2 1.0279999999909255e+00 -2.1054278178314617e+03 1.0000000000000000e+00 6.2245765113332155e+01 5.4085437806853676e-01 2.1245453066842881e+00 
516 517 2 1.0280000000447942e+00 -1.0099927269691436e+03 1.0000000000000000e+00 6.1679905720277070e+01 2.5038338005639654e-01 3.2561468184225419e+00 
195 196 2 1.0279999999294358e+00 4.7755596170890531e+03 1.0000000000000000e+00 6.1866330074190408e+01 1.6343168562456059e+00 2.6857753868882033e+00 
733 734 2 1.0279999999892566e+00 7.1558716950348689e+03 1.0000000000000000e+00 3.4139638065827725e+01 3.8040693249159570e+00 3.1009504234466472e+00 
1183 1184 2 1.0280000000104115e+00 2.9269209754128524e+03 1.0000000000000000e+00 3.3920568617249586e+01 2.7064982488741771e+00 3.8854749809944620e+00 
664 665 2 1.0280000000246790e+00 4.8635949952035971e+03 1.0000000000000000e+00 3.5479931816824610e+01 3.0894153533622797e+00 2.7768272501957090e+00 
432 433 2 1.0279999999736740e+00 -5.1801580139720772e+02 1.0000000000000000e+00 3.8772063780048192e+01 2.6081759852290842e+00 2.5420321034405031e+00 
2410 2411 2 1.0280000000140384e+00 -2.9402763612932731e+03 1.0000000000000000e+00 3.7755127990478172e+01 3.7967576452539453e+00 3.7729240055187110e+00 
235 236 2 1.0280000000233360e+00 -2.8748081901911819e+03 1.0000000000000000e+00 4.1071501439317821e+01 2.0242827830548547e+00 2.1730979799185568e+00 
326 327 2 1.0279999999799287e+00 -3.7816663153541404e+03 1.0000000000000000e+00 4.1827708890055128e+01 2.2266997607092156e+00 3.9808608272878487e+00 
1395 1396 2 1.0279999999783371e+00 -5.8113909668846936e+03 1.0000000000000000e+00 5.2694930657180088e+01 3.7851143015687878e+00 3.5660844839201666e+00 
1397 1398 2 1.0280000000182936e+00 -3.1014954299571173e+03 1.0000000000000000e+00 5.3220267521520654e+01 3.2456621709105131e+00 3.3906838291913819e+00 
1520 1521 2 1.0280000000157850e+00 1.7346800180810777e+02 1.0000000000000000e+00 5.7252480134293016e+01 3.2820677022579514e+00 2.7168334875507019e+00 
978 979 2 1.0280000000244998e+00 -1.6498159637489321e+03 1.0000000000000000e+00 5.7274286241074442e+01 2.5294785514819522e+00 3.7592311339186470e+00 
110 111 2 1.0280000000503553e+00 -1.3223856413595729e+02 1.0000000000000000e+00 6.1509456064850475e+01 3.1582357311225393e+00 2.5418124157148894e+00 
264 265 2 1.0280000000095373e+00 3.7751964505768401e+03 1.0000000000000000e+00 3.5006276557813578e+01 5.7849807522504975e+00 2.9564229803603803e+00 
1735 1736 2 1.0280000000085043e+00 -8.1237839922460398e+02 1.0000000000000000e+00 3.6699103879831810e+01 4.0564964427424313e+00 3.2784972693194692e+00 
270 271 2 1.0279999999970471e+00 3.5717542954482760e+03 1.0000000000000000e+00 3.6012807521809243e+01 5.2071155757109722e+00 2.8589853245003463e+00 
815 816 2 1.0279999999936704e+00 -4.4094665138529544e+03 1.0000000000000000e+00 3.7316106277313573e+01 5.7874951182903054e+00 3.4695855317958424e+00 
353 354 2 1.0279999999807279e+00 -5.6653515596983056e+01 1.0000000000000000e+00 3.9268498931024460e+01 4.0457924562299512e+00 3.8168221450772806e+00 
1233 1234 2 1.0280000000084957e+00 5.1398597264424495e+02 1.0000000000000000e+00 4.0483342609965533e+01 5.1761892055947420e+00 2.2389680497386535e+00 
2199 2200 2 1.0280000000082732e+00 2.5313134694379431e+02 1.0000000000000000e+00 4.0509690071274015e+01 5.9362235947644519e+00 3.5373265833445733e+00 
2990 2991 2 1.0279999999835443e+00 1.5835134363757157e+04 1.0000000000000000e+00 4.3502837250265095e+01 4.2665162422603782e+00 3.1950603058386045e+00 
773 774 2 1.0279999999712310e+00 -3.0677317595650120e+03 1.0000000000000000e+00 4.3640406622009152e+01 5.3598420465728669e+00 2.2922397872819014e+00 
1152 1153 2 1.0280000000000642e+00 -6.9225986353300868e+03 1.0000000000000000e+00 4.8284774767823393e+01 5.6550211074363386e+00 3.4802251972790637e+00 
521 522 2 1.0279999999961109e+00 -1.9196660376425402e+03 1.0000000000000000e+00 4.9183798714940785e+01 4.7875733907301035e+00 2.7658865375869643e+00 
56 57 2 1.0280000000043581e+00 -1.6291311710164046e+03 1.0000000000000000e+00 4.9923068583077168e+01 4.3816843870447935e+00 3.4356248420821842e+00 
7 8 2 1.0280000000056047e+00 1.6268456419660909e+03 1.0000000000000000e+00 5.0811095296940074e+01 4.5577759842887460e+00 2.3707930481651784e+00 
1479 1480 2 1.0280000000136389e+00 -4.3840083121861444e+03 1.0000000000000000e+00 5.1328177936534196e+01 4.3361750695613113e+00 2.8162748092419410e+00 
1272 1273 2 1.0279999999979970e+00 -1.4407322043347781e+03 1.0000000000000000e+00 5.8236385750118309e+01 5.0786053861082063e+00 2.6758805704265898e+00 
1061 1062 2 1.0279999999988809e+00 2.3861855305292024e+03 1.0000000000000000e+00 5.8881162379966831e+01 4.3683984118548969e+00 3.5631684325005217e+00 
62 63 2 1.0280000000096718e+00 -1.8989382049010987e+03 1.0000000000000000e+00 6.0072096017717534e+01 5.3387284191993887e+00 2.7268022641776173e+00 
963 964 2 1.0279999999981426e+00 1.7996621347311966e+03 1.0000000000000000e+00 6.2638490993158115e+01 4.0706213295964115e+00 3.0463036860784114e+00 
65 66 2 1.0280000000110749e+00 -1.8931402309212178e+03 1.0000000000000000e+00 6.1069436768480067e+01 5.7828301195983949e+00 2.0514793812362142e+00 
3444 3445 2 1.0279999999467151e+00 -1.1371596727517699e+03 1.0000000000000000e+00 6.2773823011791244e+01 4.0257834950540001e+00 3.5395590921229449e+00 
989 990 2 1.0280000000617655e+00 8.6507107642170308e+02 1.0000000000000000e+00 6.3884728234155034e+01 5.5734913087655897e+00 3.4043129320662335e+00 
995 996 2 1.0279999999079670e+00 7.3272483581847291e+02 1.0000000000000000e+00 6.5073513643969022e+01 4.8788921626699526e+00 3.0895667582923201e+00 
1772 1773 2 1.0279999999971581e+00 7.2445435908250170e+02 1.0000000000000000e+00 3.3817539098504419e+01 6.0608669010136555e+00 2.3326600162018605e+00 
608 609 2 1.0279999999930061e+00 -3.7050729836363898e+03 1.0000000000000000e+00 3.3941129576587002e+01 6.1202442820821981e+00 2.1701517280169185e+00 
49 50 2 1.0280000000055929e+00 5.2521844647128353e+02 1.0000000000000000e+00 5.7974654316007758e+01 7.8391548436810297e+00 2.5474685069339311e+00 
1100 1101 2 1.0279999999776859e+00 1.9624941845284566e+03 1.0000000000000000e+00 5.8345459775652003e+01 7.0055162778306199e+00 3.0625677711723025e+00 
78 79 2 1.0279999999630336e+00 5.4641924251318642e+02 1.0000000000000000e+00 6.1825372418019391e+01 6.1984947893140445e+00 2.7527988369486294e+00 
364 365 2 1.0280000000432019e+00 -3.1655477507251453e+03 1.0000000000000000e+00 6.2884228821506724e+01 7.4598946800759274e+00 3.2503080016281323e+00 
562 563 2 1.0280000000152869e+00 -4.7961784358653949e+03 1.0000000000000000e+00 5.8795839089639450e+01 8.0408628329816967e+00 3.6693428130131043e+00 
1193 1194 2 1.0279999999747136e+00 -1.4363963531469808e+03 1.0000000000000000e+00 5.8929486285987593e+01 8.7534161974021263e+00 2.5999375087859216e+00 
3333 3334 2 1.0280000000451088e+00 -3.2294114507840222e+03 1.0000000000000000e+00 6.0770856849865616e+01 8.2894020345989219e+00 2.8223060290245785e+00 
583 584 2 1.0279999999538945e+00 -1.9460072418005188e+03 1.0000000000000000e+00 6.0830742178321358e+01 9.3791202534560973e+00 3.1636099710639778e+00 
1428 1429 2 1.0280000000323251e+00 -2.9743111547312865e+03 1.0000000000000000e+00 6.2492607726889446e+01 9.8049407802500106e+00 3.9859353350002391e+00 
1808 1809 2 1.0279999999336622e+00 -3.0888799395601600e+03 1.0000000000000000e+00 6.3655102263984823e+01 9.1809066808887874e+00 3.0485027219476897e+00 
1265 1266 2 1.0280000000262015e+00 1.2852117990578663e+03 1.0000000000000000e+00 6.4045649610721526e+01 8.2139045262925450e+00 3.4012579961373985e+00 
818 819 2 1.0280000000001419e+00 -3.7139978547031233e+03 1.0000000000000000e+00 6.6487321931660389e+01 1.3044944477356058e+01 3.9868944274504989e+00 
3117 3118 2 1.0279999999619895e+00 -4.8632487884036163e+03 1.0000000000000000e+00 3.8651621477852906e+01 8.3452906294336504e-01 4.2642674088257611e+00 
3592 3593 2 1.0280000000065967e+00 2.4589557281991478e+02 1.0000000000000000e+00 3.9567100284657450e+01 1.6162503430499914e-01 5.2373503153168812e+00 
1785 1786 2 1.0279999999883447e+00 -1.2838233985039410e+03 1.0000000000000000e+00 4.1912889171964153e+01 1.4786865298573661e+00 5.2214135083270925e+00 
480 481 2 1.0279999999920879e+00 5.9898113207899460e+03 1.0000000000000000e+00 4.9604470442403695e+01 1.0981965217427898e+00 5.6366504752063671e+00 
17 18 2 1.0280000000075207e+00 -4.3598535552105641e+03 1.0000000000000000e+00 5.0256555161616490e+01 1.4532079931360629e+00 5.9400682732754317e+00 
16 17 2 1.0280000000179981e+00 -1.3115437825057293e+03 1.0000000000000000e+00 5.1249819054050469e+01 3.6988568214225648e-01 5.3331132683386260e+00 
524 525 2 1.0279999999868858e+00 -1.1326697715367259e+03 1.0000000000000000e+00 5.2107734092364687e+01 1.4614081352551922e+00 4.7151616806365251e+00 
3037 3038 2 1.0280000000147531e+00 4.2107678872653642e+03 1.0000000000000000e+00 5.3861624450804840e+01 7.1425110959720217e-01 4.2880531388305343e+00 
356 357 2 1.0280000000178418e+00 2.7437905626131487e+02 1.0000000000000000e+00 5.4034850059945221e+01 4.0064794240302681e-01 4.6619256055465250e+00 
894 895 2 1.0280000000073748e+00 -7.1963152046601351e+02 1.0000000000000000e+00 5.2952577934363532e+01 7.2461174986400156e-01 5.9974330301496863e+00 
975 976 2 1.0280000000130738e+00 7.8007569060175069e+02 1.0000000000000000e+00 5.5386093105574567e+01 1.8932004483609564e+00 4.2775895601697984e+00 
1866 1867 2 1.0279999999906895e+00 -2.7078171174639601e+03 1.0000000000000000e+00 5.6285693051343323e+01 1.3022372164488820e+00 4.8705535101421455e+00 
175 176 2 1.0280000000116323e+00 5.7861166156101876e+02 1.0000000000000000e+00 5.8516429429249051e+01 9.7233247381248245e-01 4.0964690539850848e+00 
268 269 2 1.0280000000212666e+00 5.0074662087270244e+03 1.0000000000000000e+00 5.7338106867104344e+01 4.6523636907100797e-02 5.5556838574041310e+00 
1999 2000 2 1.0279999999834912e+00 4.3602662838983970e+03 1.0000000000000000e+00 6.0639347343947080e+01 1.1139460987519938e+00 4.6829396431889281e+00 
1125 1126 2 1.0280000000148164e+00 -1.4951847972760345e+03 1.0000000000000000e+00 6.2825846198828287e+01 1.2649255224639662e+00 4.1059591579648265e+00 
74 75 2 1.0280000000178893e+00 -1.6338777991681495e+03 1.0000000000000000e+00 6.3851263888369225e+01 1.6034647409737599e+00 4.2298339462224783e+00 
1913 1914 2 1.0279999999424458e+00 -2.4779304405055518e+03 1.0000000000000000e+00 6.4067571450663380e+01 5.3113495908501340e-02 4.6697706318490431e+00 
1418 1419 2 1.0280000000284710e+00 -3.0947283880291343e+03 1.0000000000000000e+00 6.5641556055245900e+01 1.0960660442764290e+00 5.0434760437782309e+00 
1420 1421 2 1.0279999999836009e+00 -5.8019932831028136e+03 1.0000000000000000e+00 6.5631112999834457e+01 1.3097840789974087e+00 5.6952202137545935e+00 
807 808 2 1.0279999999984568e+00 -4.8554820177257843e+03 1.0000000000000000e+00 3.4643557320235004e+01 3.2684612565612139e+00 4.1263758923719562e+00 
467 468 2 1.0279999999952547e+00 -1.3335681822106103e+03 1.0000000000000000e+00 3.8728208687917082e+01 3.0601633843603753e+00 4.9684555053134671e+00 
1267 1268 2 1.0279999999964224e+00 -3.6326337412077819e+03 1.0000000000000000e+00 3.9123201547716121e+01 3.5998582769784657e+00 5.2023104399845064e+00 
525 526 2 1.0280000000116312e+00 -1.8883301568601296e+03 1.0000000000000000e+00 4.0942343350960734e+01 2.1987787791349520e+00 4.0089986390709296e+00 
1647 1648 2 1.0280000000084393e+00 3.4744155928909527e+03 1.0000000000000000e+00 4.0481731135999262e+01 2.3735267844611396e+00 5.8895777053838509e+00 
2286 2287 2 1.0280000000291318e+00 -2.7925390496028922e+03 1.0000000000000000e+00 4.1481536328415196e+01 3.1250856057000047e+00 5.7697276773152408e+00 
1168 1169 2 1.0280000001215526e+00 -6.3253411915489824e+02 1.0000000000000000e+00 4.2889094817714629e+01 3.7320057996627636e+00 4.9468001162057664e+00 
493 494 2 1.0280000000081360e+00 -8.0814379981355614e+02 1.0000000000000000e+00 4.4482101082311409e+01 2.5117665535490366e+00 5.7957957400878177e+00 
691 692 2 1.0279999999083962e+00 -6.5645907814294569e+03 1.0000000000000000e+00 4.3800992638106514e+01 3.4758834212016456e+00 4.3925238445214800e+00 
133 134 2 1.0279999999907130e+00 -8.1026612685034570e+02 1.0000000000000000e+00 4.5141961303150566e+01 2.2143691916847401e+00 5.3320214185376962e+00 
1144 1145 2 1.0279999999989455e+00 -8.2608872844379366e+03 1.0000000000000000e+00 4.7266491566160660e+01 3.8445321541622977e+00 4.5131173203504495e+00 
1654 1655 2 1.0279999999905747e+00 6.6148290307697789e+03 1.0000000000000000e+00 5.4547651694634411e+01 2.0792095044057759e+00 5.6822635095767557e+00 
1108 1109 2 1.0279999999876066e+00 -5.6327339674028281e+02 1.0000000000000000e+00 5.3355865592350092e+01 3.0094998057713327e+00 4.5426348484162631e+00 
1435 1436 2 1.0280000000110256e+00 1.4825299561296404e+03 1.0000000000000000e+00 5.4870664883597726e+01 3.8445161639672949e+00 4.5683106847735324e+00 
556 557 2 1.0279999999931946e+00 -2.1595491650173922e+03 1.0000000000000000e+00 5.5444726337662118e+01 3.5051419009779723e+00 4.1851188899818537e+00 
1355 1356 2 1.0280000000159035e+00 -5.2155788252594848e+03 1.0000000000000000e+00 5.7240238895438821e+01 3.6606578820813902e+00 5.7013715029377936e+00 
179 180 2 1.0279999999823797e+00 1.9090058109792885e+03 1.0000000000000000e+00 5.7479739619314309e+01 2.8152128126945377e+00 5.2167523867503549e+00 
934 935 2 1.0279999999843517e+00 -3.0954048261501157e+03 1.0000000000000000e+00 6.0275233522812790e+01 3.7902524006420624e+00 4.6813515155841783e+00 
563 564 2 1.0279999999870264e+00 -4.4287287274025348e+03 1.0000000000000000e+00 6.0972531272768826e+01 2.0330540735404208e+00 5.3057100565136643e+00 
1082 1083 2 1.0280000000028853e+00 2.3768030634366719e+03 1.0000000000000000e+00 6.3197840586929175e+01 2.8703705556136829e+00 5.8483737063659342e+00 
1580 1581 2 1.0279999999595990e+00 5.8313907551495968e+03 1.0000000000000000e+00 6.3563440895012924e+01 2.8448787502323181e+00 4.6835602811029791e+00 
1504 1505 2 1.0280000000394522e+00 -4.4152287107622624e+03 1.0000000000000000e+00 6.5485402022007690e+01 3.2120506367117292e+00 5.7855139222503089e+00 
36 37 2 1.0279999999981080e+00 1.5857745878340379e+03 1.0000000000000000e+00 6.6247168079387023e+01 3.0247493548808380e+00 5.7795890405240602e+00 
508 509 2 1.0280000000018623e+00 -1.5871920317210702e+03 1.0000000000000000e+00 3.7827760985367661e+01 5.7374577784690493e+00 5.6947874016176279e+00 
809 810 2 1.0280000000116849e+00 -7.5433291728357062e+01 1.0000000000000000e+00 3.8893200864646559e+01 5.5985286528207308e+00 4.2529505986672440e+00 
267 268 2 1.0280000000004093e+00 4.5247592897392806e+03 1.0000000000000000e+00 4.0261608777521950e+01 5.9067222495994702e+00 4.0380799670583727e+00 
1490 1491 2 1.0280000000114451e+00 1.8863233560223498e+03 1.0000000000000000e+00 4.3069978649147870e+01 5.4403264594364309e+00 4.1551938344302339e+00 