LAMMPS data file via write_data, version 30 Jul 2016, timestep = 50000000

3696 atoms
8 atom types

0.0000000000000000e+00 1.0000000000000000e+02 xlo xhi
0.0000000000000000e+00 4.0000000000000000e+01 ylo yhi
0.0000000000000000e+00 4.0000000000000000e+01 zlo zhi

Masses

1 3.896
2 5.36
3 20.064
4 8.378
5 8.378
6 8.378
7 8.378
8 8.378

Atoms # meso-molecular

1726 1727 2 1.0280000000062552e+00 -3.5125986255062353e+03 1.0000000000000000e+00 3.2589443721683722e+01 1.7738384450661950e+00 3.2120000597747782e+00 
450 451 2 1.0279999999994662e+00 -4.5102362959242710e+03 1.0000000000000000e+00 3.2097603415569061e+01 1.6969102125162405e+00 2.3867715674980072e+00 
2751 2752 2 1.0279999999925915e+00 -3.6531213977321763e+03 1.0000000000000000e+00 3.2397391157318410e+01 2.4237099520895797e+00 2.3524989019277189e+00 
429 430 2 1.0279999999983891e+00 1.0163726586065229e+02 1.0000000000000000e+00 2.6173928130150074e+01 2.2832261068898383e+00 3.5352890556599078e+01 
972 973 2 1.0279999999983702e+00 -3.0657787648207877e+03 1.0000000000000000e+00 2.6170938492539364e+01 2.2847253817750928e+00 3.5352978330320852e+01 
2400 2401 2 1.0279999999934528e+00 1.6662332540501520e+03 1.0000000000000000e+00 2.4970611543124591e+01 1.9627123576813457e+00 3.6866767786807834e+01 
1687 1688 2 1.0280000000007592e+00 -1.3263049812983154e+03 1.0000000000000000e+00 2.6756813762493227e+01 1.5816909086144473e+00 3.6818365327101546e+01 
3028 3029 2 1.0280000000004748e+00 -2.6886326537636678e+03 1.0000000000000000e+00 2.6456380754873901e+01 1.8427106834620681e+00 3.7423328331167120e+01 
2025 2026 2 1.0279999999985769e+00 3.4875515711877160e+03 1.0000000000000000e+00 2.3250323040336291e+01 2.5650979637314881e+00 3.6985924653675674e+01 
523 524 2 1.0280000000022251e+00 -1.8202951479449471e+03 1.0000000000000000e+00 2.3064676362327024e+01 2.7953642042122029e+00 3.7066073760306253e+01 
1186 1187 2 1.0280000000081082e+00 -1.5917376655981457e+03 1.0000000000000000e+00 2.5227240340065013e+01 2.9971323205763958e+00 3.7271954258741715e+01 
1017 1018 2 1.0279999999967910e+00 4.5032184646570986e+03 1.0000000000000000e+00 2.3673402315445443e+01 4.3804823174772194e+00 3.6860728562069227e+01 
1781 1782 2 1.0280000000006193e+00 4.4244292784262529e+02 1.0000000000000000e+00 2.3734374744313943e+01 4.5479818418579070e+00 3.7521020499511764e+01 
2019 2020 2 1.0280000000046627e+00 3.8295242976149552e+01 1.0000000000000000e+00 2.5073744077825030e+01 5.0220189612681878e+00 3.7714520860608395e+01 
1015 1016 2 1.0279999999993565e+00 -3.6237673465722883e+03 1.0000000000000000e+00 2.6468486255051157e+01 4.2510112609525308e+00 3.7218231296375542e+01 
515 516 2 1.0280000000027032e+00 -1.7942992327092247e+03 1.0000000000000000e+00 2.8607280542253569e+01 4.0325104277987416e+00 3.7823114996850180e+01 
650 651 2 1.0279999999909137e+00 5.9856587620137279e+03 1.0000000000000000e+00 2.9046326903019789e+01 3.7530134439056688e+00 3.8571763565922282e+01 
592 593 2 1.0280000000115448e+00 -1.0399078048481406e+03 1.0000000000000000e+00 2.7154158976717557e+01 4.3406969639156303e+00 3.8159175397787607e+01 
1143 1144 2 1.0279999999932463e+00 -7.3629414559772522e+02 1.0000000000000000e+00 2.6134047739717001e+01 5.1215154885570469e+00 3.8166416946677465e+01 
1940 1941 2 1.0280000000268874e+00 1.3571804584894676e+03 1.0000000000000000e+00 2.9940350939503876e+01 4.0427883023293578e+00 3.8212071498389420e+01 
231 232 2 1.0279999999917337e+00 -3.8135213944256375e+03 1.0000000000000000e+00 3.1301542650584331e+01 4.4029735436555031e+00 3.9543039775468898e+01 
193 194 2 1.0279999999862783e+00 3.5662527688316932e+03 1.0000000000000000e+00 3.1210090953478975e+01 4.9577440712835275e+00 3.8543885035930053e+01 
1474 1475 2 1.0280000000170162e+00 -3.5642043186134815e+03 1.0000000000000000e+00 3.2070732491784213e+01 4.0378291289039119e+00 3.9235576556255602e+01 
2663 2664 2 1.0279999999949525e+00 -1.6341261324994748e+03 1.0000000000000000e+00 3.1066284766550837e+01 7.3856740215800203e+00 3.8562205145319389e+01 
990 991 2 1.0280000000078664e+00 1.0321031726881263e+03 1.0000000000000000e+00 3.0594149363607514e+01 6.4634829008225179e+00 3.8913227696221263e+01 
987 988 2 1.0279999999964731e+00 9.5899713369399251e+02 1.0000000000000000e+00 3.0440551739982414e+01 7.3940158446701387e+00 3.8385487341470011e+01 
92 93 2 1.0280000000007414e+00 1.2902203190413109e+03 1.0000000000000000e+00 3.2951937452277384e+01 3.6586993254681545e+01 9.3349814843509860e-01 
2446 2447 2 1.0280000000005540e+00 2.6935731116455208e+03 1.0000000000000000e+00 3.2198710120284098e+01 3.7254101135296956e+01 1.8156837646007778e-01 
2614 2615 2 1.0280000000004550e+00 2.6921887319122889e+03 1.0000000000000000e+00 3.2308218747759113e+01 3.6919510005971929e+01 3.9661192470420360e+01 
348 349 2 1.0280000000024736e+00 -3.2025201007067590e+03 1.0000000000000000e+00 3.5068198340868669e+01 1.8530704124977118e+00 1.4029833170819634e+00 
305 306 2 1.0279999999968192e+00 -3.7551880270215997e+03 1.0000000000000000e+00 3.5480391122068525e+01 1.6523294541484010e+00 1.5109652298838954e+00 
2454 2455 2 1.0279999999976248e+00 -6.1800965470458095e+02 1.0000000000000000e+00 3.6929010849198391e+01 7.0807722239194210e-02 1.7524806977530447e+00 
479 480 2 1.0279999999980516e+00 6.3165480816157469e+03 1.0000000000000000e+00 4.0809257585703691e+01 1.5573852855564805e+00 8.5414096879218593e-01 
1568 1569 2 1.0280000000022400e+00 4.5943248724131354e+03 1.0000000000000000e+00 4.1174760064471819e+01 4.2974946607326070e-01 1.0583540943078884e+00 
15 16 2 1.0280000000033191e+00 -3.4723080715374836e+03 1.0000000000000000e+00 4.2776872659467514e+01 1.8679687506447362e+00 3.0811759319285514e-01 
1575 1576 2 1.0279999999856599e+00 6.5148927802236303e+03 1.0000000000000000e+00 4.3250176817899685e+01 6.0913427172329015e-01 1.5881162570725785e-01 
510 511 2 1.0280000000013241e+00 -2.7079536744511879e+03 1.0000000000000000e+00 5.0073702236561708e+01 1.1172432071539844e+00 1.5079617528880196e+00 
472 473 2 1.0279999999824487e+00 -3.8315473523350465e+03 1.0000000000000000e+00 5.1123469916995042e+01 9.8297334240767020e-01 1.5423957858956054e+00 
2782 2783 2 1.0280000000165346e+00 -3.8221088633029262e+03 1.0000000000000000e+00 5.2846931503737885e+01 5.2590469188385935e-01 1.9311510074688594e+00 
1182 1183 2 1.0280000000201417e+00 6.9144927624300180e+03 1.0000000000000000e+00 5.3742758738973215e+01 6.3222092314091838e-01 1.7541668076200592e+00 
2353 2354 2 1.0280000000205132e+00 1.8386808217898482e+02 1.0000000000000000e+00 5.5612139931483838e+01 4.1208032372179881e-01 1.0386893068351246e+00 
1515 1516 2 1.0279999999907745e+00 -2.2075957490186756e+03 1.0000000000000000e+00 5.6017578873607462e+01 1.0740248901856935e+00 1.1139946188781673e+00 
339 340 2 1.0280000000036513e+00 3.8735486023217472e+03 1.0000000000000000e+00 5.6760292547870662e+01 1.1647443404242099e-02 1.6179743411777785e+00 
346 347 2 1.0279999999762122e+00 -3.4870729174227372e+03 1.0000000000000000e+00 5.8671025558982855e+01 4.4753112615381746e-01 9.4506599693369753e-01 
926 927 2 1.0280000000039597e+00 1.5543249233946340e+03 1.0000000000000000e+00 6.0180893650522840e+01 2.7725795397374309e-01 1.2268739689060986e+00 
1644 1645 2 1.0280000000458167e+00 -2.1766777963929917e+03 1.0000000000000000e+00 6.0251088814377354e+01 1.8348336656360558e+00 6.6860768912857282e-01 
718 719 2 1.0279999999614700e+00 -2.6923862222973721e+03 1.0000000000000000e+00 6.1843802575667681e+01 6.4831207932132089e-03 8.7501174160645101e-01 
1658 1659 2 1.0279999999584777e+00 5.4740855705316899e+03 1.0000000000000000e+00 3.4387111112066322e+01 3.3089019297801201e+00 1.2896376168349080e+00 
1155 1156 2 1.0280000000381664e+00 -5.9993081752042162e+03 1.0000000000000000e+00 3.3899822995019235e+01 3.9628731726802155e+00 1.7417559153863307e-01 
2996 2997 2 1.0280000000317526e+00 -4.5630647164635830e+03 1.0000000000000000e+00 3.6126076940743104e+01 3.4110000786526009e+00 4.4592851521003074e-01 
1488 1489 2 1.0280000000063834e+00 2.3915138002858857e+03 1.0000000000000000e+00 3.6365939463437265e+01 3.7488632143742229e+00 6.3882123342824182e-01 
435 436 2 1.0279999999820462e+00 -3.3926510018179470e+03 1.0000000000000000e+00 3.7472022773240191e+01 2.9246642575287289e+00 1.3912912935745416e+00 
1148 1149 2 1.0280000000155971e+00 -3.9107902390023137e+03 1.0000000000000000e+00 3.8495213977934704e+01 3.6475817103720871e+00 1.5150088399191086e+00 
1071 1072 2 1.0280000000150082e+00 1.9188880116464253e+02 1.0000000000000000e+00 4.1270346079958557e+01 3.8076561139591667e+00 3.4764610302764704e-01 
1066 1067 2 1.0279999999765825e+00 3.7246797990442246e+02 1.0000000000000000e+00 4.1475513772290498e+01 2.9760362520447909e+00 1.8815215767860280e+00 
775 776 2 1.0279999999889537e+00 -2.6304095198063483e+03 1.0000000000000000e+00 4.2133628113784503e+01 3.9584688137868311e+00 5.1650186597371495e-01 
94 95 2 1.0279999999919880e+00 -3.4926510376337446e+03 1.0000000000000000e+00 5.7105166514844264e+01 2.7609840584190524e+00 1.5114347047751631e+00 
3327 3328 2 1.0280000000273843e+00 -1.2042962412578386e+03 1.0000000000000000e+00 5.7669118258433954e+01 2.3284568698865979e+00 8.7420238295050745e-01 
1986 1987 2 1.0279999999840190e+00 7.4974974204998844e+03 1.0000000000000000e+00 5.8468077732216948e+01 3.9675314956205563e+00 1.7278887061409285e+00 
53 54 2 1.0280000000267331e+00 -1.6171304679158407e+03 1.0000000000000000e+00 5.9988634067646217e+01 2.5813835162680676e+00 1.7837659318762811e+00 
1120 1121 2 1.0279999999319356e+00 -2.3913484474787138e+03 1.0000000000000000e+00 6.1398076511686050e+01 3.0381560061101140e+00 1.2938010416608767e+00 
2103 2104 2 1.0280000000120586e+00 3.8107019459598384e+01 1.0000000000000000e+00 3.7930266382158592e+01 4.7506685227985868e+00 1.5798760357891166e+00 
1610 1611 2 1.0280000000020395e+00 2.8677410667020176e+03 1.0000000000000000e+00 3.8713426983077426e+01 5.9568866790132260e+00 1.3560447788611953e+00 
1151 1152 2 1.0279999999832850e+00 -9.6897053947437125e+03 1.0000000000000000e+00 3.9016724880272569e+01 5.9521183565017974e+00 1.3693507404809087e+00 
1068 1069 2 1.0280000000147465e+00 -5.9629398907890686e+02 1.0000000000000000e+00 4.0677339698760917e+01 4.4504614230085595e+00 1.6708200298235214e+00 
772 773 2 1.0279999999890281e+00 -2.2041894559178754e+03 1.0000000000000000e+00 4.3108824399628048e+01 4.9042374967322884e+00 1.5097971932914900e+00 
1571 1572 2 1.0279999999785143e+00 5.8879955005437705e+03 1.0000000000000000e+00 5.9883634679079577e+01 4.1499480871210936e+00 1.1549516920667833e+00 
948 949 2 1.0279999999421388e+00 -6.0658351042860741e+03 1.0000000000000000e+00 6.4457103228139559e+01 5.6897114047823711e+00 1.9600830986039230e+00 
520 521 2 1.0279999999936071e+00 -6.8622423184021773e+02 1.0000000000000000e+00 4.2923355747904594e+01 6.2806359987189122e+00 5.3154568535111657e-01 
1149 1150 2 1.0280000000383192e+00 -1.1227038315584396e+03 1.0000000000000000e+00 4.1631410146400931e+01 6.4262563886173290e+00 8.8639565672037945e-01 
55 56 2 1.0279999999869853e+00 -1.8501777941437483e+03 1.0000000000000000e+00 4.1776992533852273e+01 6.5089879824832746e+00 3.5140695106746156e-01 
221 222 2 1.0280000000115865e+00 5.9968981203475494e+01 1.0000000000000000e+00 4.4540390553639085e+01 6.0631260185304860e+00 1.1128742177194564e+00 
517 518 2 1.0279999999888074e+00 -1.8674789030722457e+03 1.0000000000000000e+00 4.5474470485610517e+01 7.0050983695403009e+00 9.8660458590402822e-01 
2327 2328 2 1.0279999999876361e+00 -5.7210168991807841e+03 1.0000000000000000e+00 4.5587898658380965e+01 6.8764520052163665e+00 9.9999200464999638e-01 
1351 1352 2 1.0280000000100975e+00 -3.8721869814131560e+03 1.0000000000000000e+00 5.9051925951210407e+01 6.6780581782568751e+00 1.2221726079846360e-01 
573 574 2 1.0280000000157872e+00 -4.8153360792763297e+03 1.0000000000000000e+00 6.0048362358687122e+01 7.9050443543984095e+00 1.0369523012352253e+00 
1127 1128 2 1.0280000000344498e+00 1.9534173348207423e+03 1.0000000000000000e+00 6.2334557714564681e+01 6.0558838750641577e+00 1.1826424918523117e+00 
66 67 2 1.0279999999793763e+00 -1.6506209262431962e+03 1.0000000000000000e+00 6.3957220410648461e+01 6.0670748295183969e+00 1.5006907539388337e+00 
1073 1074 2 1.0279999999453413e+00 -1.1685243858300262e+02 1.0000000000000000e+00 6.2929139383721960e+01 7.2550543840212578e+00 1.1168040639055883e+00 
933 934 2 1.0279999999902312e+00 -4.6985913885642622e+03 1.0000000000000000e+00 5.9128061433086216e+01 8.4382166827771545e+00 4.5596570409813458e-01 
2930 2931 2 1.0279999999980116e+00 1.4037508387022419e+02 1.0000000000000000e+00 5.9943935373515536e+01 9.8803404816468792e+00 1.1145280575784620e+00 
2048 2049 2 1.0279999999980649e+00 3.8693114035653416e+03 1.0000000000000000e+00 6.1679744187397979e+01 8.0153479866888251e+00 1.9123809403896845e+00 
90 91 2 1.0279999999957479e+00 -1.9205738858152531e+03 1.0000000000000000e+00 6.3293080307031609e+01 9.1221252641568729e+00 9.6904957864791197e-01 
342 343 2 1.0279999999954741e+00 -1.9097190732780873e+03 1.0000000000000000e+00 6.3301447306784659e+01 9.1167959586626885e+00 9.5924718199801240e-01 
2536 2537 2 1.0279999999566580e+00 -2.1072018503912086e+03 1.0000000000000000e+00 6.0273546089955488e+01 1.0392380637422002e+01 1.8493952845866131e+00 
502 503 2 1.0280000000055785e+00 -2.2670738032235186e+03 1.0000000000000000e+00 6.1013184696481488e+01 1.1243437855459023e+01 1.1558028469960067e+00 
3346 3347 2 1.0279999999400375e+00 -3.1035018587343502e+03 1.0000000000000000e+00 6.1057565085311133e+01 1.1511294256649862e+01 2.9347822709543669e-01 
3547 3548 2 1.0279999999934821e+00 -2.3560148542937404e+03 1.0000000000000000e+00 3.7102252664536493e+01 1.1010544047553210e+00 2.2807856704470999e+00 
3161 3162 2 1.0279999999957929e+00 -1.7561321225122460e+03 1.0000000000000000e+00 3.7740320861898319e+01 8.2363151683129820e-01 3.5159676637740245e+00 
1824 1825 2 1.0280000000529590e+00 -2.7873291219036309e+03 1.0000000000000000e+00 3.9194754870139292e+01 1.7962997105512544e+00 3.1260593885006891e+00 
3123 3124 2 1.0280000000013991e+00 -5.7574448282268113e+03 1.0000000000000000e+00 3.8766712859012891e+01 1.2759957323762514e-01 2.4270070485401618e+00 
50 51 2 1.0280000000107710e+00 -1.7034882073807307e+03 1.0000000000000000e+00 4.9486544005817862e+01 1.1890997224774071e+00 3.7708863463893891e+00 
1983 1984 2 1.0280000000089227e+00 -7.1242421782855286e+02 1.0000000000000000e+00 4.9614696062124992e+01 8.1180294813723120e-01 2.1777979152372700e+00 
1196 1197 2 1.0280000000004812e+00 -7.6621581605962729e+02 1.0000000000000000e+00 5.0471848841177668e+01 1.8517785786840837e+00 3.9700211796865243e+00 
354 355 2 1.0279999999980338e+00 1.3831636348883553e+03 1.0000000000000000e+00 5.1483972411170512e+01 1.3795887271624510e+00 3.2162096194022007e+00 
345 346 2 1.0279999999985889e+00 -1.2148754933409055e+03 1.0000000000000000e+00 5.7950813217596206e+01 7.3132084092922456e-01 2.8728289912700298e+00 
1854 1855 2 1.0279999999674363e+00 -2.6600523511915917e+03 1.0000000000000000e+00 5.8726313580401602e+01 1.8484780850338449e+00 2.8262219414527694e+00 
1433 1434 2 1.0280000000264338e+00 -6.1556735279918406e+01 1.0000000000000000e+00 5.9805864618146536e+01 8.7271214394127339e-01 3.6960375575725450e+00 
862 863 2 1.0279999999907625e+00 -2.1054278178314617e+03 1.0000000000000000e+00 6.2245535914580557e+01 5.4071848083574314e-01 2.1247828165692084e+00 
516 517 2 1.0280000000460117e+00 -1.0099927269691436e+03 1.0000000000000000e+00 6.1679676773176077e+01 2.5025034306968258e-01 3.2563823422652551e+00 
195 196 2 1.0279999999269018e+00 4.7755596170890531e+03 1.0000000000000000e+00 6.1866099560191003e+01 1.6341841839164835e+00 2.6860136579554932e+00 
733 734 2 1.0279999999889486e+00 7.1558716950348689e+03 1.0000000000000000e+00 3.4139361544141295e+01 3.8038845901858327e+00 3.1012580482023746e+00 
1183 1184 2 1.0280000000107448e+00 2.9269209754128524e+03 1.0000000000000000e+00 3.3920292499086536e+01 2.7063131157620588e+00 3.8857820869307322e+00 
664 665 2 1.0280000000256140e+00 4.8635949952035971e+03 1.0000000000000000e+00 3.5479655313093765e+01 3.0892314670654497e+00 2.7771337903353395e+00 
432 433 2 1.0279999999727401e+00 -5.1801580139720772e+02 1.0000000000000000e+00 3.8771792136180444e+01 2.6079949096180624e+00 2.5423327249777103e+00 
2410 2411 2 1.0280000000144383e+00 -2.9402763612932731e+03 1.0000000000000000e+00 3.7754854285385463e+01 3.7965769164263263e+00 3.7732241953253860e+00 
235 236 2 1.0280000000240928e+00 -2.8748081901911819e+03 1.0000000000000000e+00 4.1071229916744286e+01 2.0241080118575709e+00 2.1733923128610737e+00 
326 327 2 1.0279999999793419e+00 -3.7816663153541404e+03 1.0000000000000000e+00 4.1827443293348146e+01 2.2265279725096816e+00 3.9811523242788676e+00 
1395 1396 2 1.0279999999776761e+00 -5.8113909668846936e+03 1.0000000000000000e+00 5.2694690015614107e+01 3.7849666035797709e+00 3.5663414325804212e+00 
1397 1398 2 1.0280000000191059e+00 -3.1014954299571173e+03 1.0000000000000000e+00 5.3220028629392822e+01 3.2455149383869633e+00 3.3909403636293609e+00 
1520 1521 2 1.0280000000165181e+00 1.7346800180810777e+02 1.0000000000000000e+00 5.7252243764476525e+01 3.2819265888686386e+00 2.7170790131267757e+00 
978 979 2 1.0280000000252478e+00 -1.6498159637489321e+03 1.0000000000000000e+00 5.7274051026610472e+01 2.5293383254755262e+00 3.7594760192090613e+00 
110 111 2 1.0280000000519782e+00 -1.3223856413595729e+02 1.0000000000000000e+00 6.1509221046089486e+01 3.1581032394449697e+00 2.5420510559966525e+00 
264 265 2 1.0280000000098786e+00 3.7751964505768401e+03 1.0000000000000000e+00 3.5006001300580259e+01 5.7847962144402301e+00 2.9567270524462321e+00 
1735 1736 2 1.0280000000087655e+00 -8.1237839922460398e+02 1.0000000000000000e+00 3.6698828948126881e+01 4.0563133465643801e+00 3.2787997393340906e+00 
270 271 2 1.0279999999969396e+00 3.5717542954482760e+03 1.0000000000000000e+00 3.6012532380418129e+01 5.2069313851506589e+00 2.8592884281584854e+00 
815 816 2 1.0279999999934544e+00 -4.4094665138529544e+03 1.0000000000000000e+00 3.7315832504416598e+01 5.7873122944106683e+00 3.4698867692426800e+00 
353 354 2 1.0279999999801726e+00 -5.6653515596983056e+01 1.0000000000000000e+00 3.9268227102312956e+01 4.0456129899220201e+00 3.8171205076130241e+00 
1233 1234 2 1.0280000000087957e+00 5.1398597264424495e+02 1.0000000000000000e+00 4.0483069785601423e+01 5.1760109022464897e+00 2.2392640222827920e+00 
2199 2200 2 1.0280000000084961e+00 2.5313134694379431e+02 1.0000000000000000e+00 4.0509416278411322e+01 5.9360435175482307e+00 3.5376237270684574e+00 
2990 2991 2 1.0279999999829659e+00 1.5835134363757157e+04 1.0000000000000000e+00 4.3502570205308871e+01 4.2663428185610686e+00 3.1953469242023096e+00 
773 774 2 1.0279999999702665e+00 -3.0677317595650120e+03 1.0000000000000000e+00 4.3640138460325630e+01 5.3596703900773246e+00 2.2925278743481190e+00 
1152 1153 2 1.0280000000000646e+00 -6.9225986353300868e+03 1.0000000000000000e+00 4.8284525419932862e+01 5.6548594881445977e+00 3.4804958903639287e+00 
521 522 2 1.0279999999959835e+00 -1.9196660376425402e+03 1.0000000000000000e+00 4.9183550399906146e+01 4.7874146194718898e+00 2.7661551326838199e+00 
56 57 2 1.0280000000045137e+00 -1.6291311710164046e+03 1.0000000000000000e+00 4.9922821065687508e+01 4.3815271515077292e+00 3.4358917388889063e+00 
7 8 2 1.0280000000058440e+00 1.6268456419660909e+03 1.0000000000000000e+00 5.0810848253735706e+01 4.5576200559474787e+00 2.3710593559482689e+00 
1479 1480 2 1.0280000000140002e+00 -4.3840083121861444e+03 1.0000000000000000e+00 5.1327930922237570e+01 4.3360207121160812e+00 2.8165390556282142e+00 
1272 1273 2 1.0279999999979983e+00 -1.4407322043347781e+03 1.0000000000000000e+00 5.8236148581135133e+01 5.0784660088780722e+00 2.6761250202506255e+00 
1061 1062 2 1.0279999999988090e+00 2.3861855305292024e+03 1.0000000000000000e+00 5.8880926100942361e+01 4.3682600453446261e+00 3.5634116768274255e+00 
62 63 2 1.0280000000101779e+00 -1.8989382049010987e+03 1.0000000000000000e+00 6.0071859387823054e+01 5.3385908576951957e+00 2.7270446409909539e+00 
963 964 2 1.0279999999987510e+00 1.7996621347311966e+03 1.0000000000000000e+00 6.2638257879055246e+01 4.0704913502020794e+00 3.0465366287789188e+00 
65 66 2 1.0280000000114071e+00 -1.8931402309212178e+03 1.0000000000000000e+00 6.1069199193136143e+01 5.7826934958737013e+00 2.0517200172411623e+00 
3444 3445 2 1.0279999999450737e+00 -1.1371596727517699e+03 1.0000000000000000e+00 6.2773591396700056e+01 4.0256546266171771e+00 3.5397923551614205e+00 
989 990 2 1.0280000000643699e+00 8.6507107642170308e+02 1.0000000000000000e+00 6.3884497169946776e+01 5.5733610468929760e+00 3.4045451922285861e+00 
995 996 2 1.0279999999051197e+00 7.3272483581847291e+02 1.0000000000000000e+00 6.5073287087825534e+01 4.8787635860658254e+00 3.0897914446660906e+00 
1772 1773 2 1.0279999999970830e+00 7.2445435908250170e+02 1.0000000000000000e+00 3.3817263675045233e+01 6.0606824342517802e+00 2.3329648572139949e+00 
608 609 2 1.0279999999927776e+00 -3.7050729836363898e+03 1.0000000000000000e+00 3.3940854169785069e+01 6.1200599000593350e+00 2.1704563338938514e+00 
49 50 2 1.0280000000057872e+00 5.2521844647128353e+02 1.0000000000000000e+00 5.7974415164526739e+01 7.8390155613659678e+00 2.5477138010513571e+00 
1100 1101 2 1.0279999999769340e+00 1.9624941845284566e+03 1.0000000000000000e+00 5.8345221506576308e+01 7.0053764856503715e+00 3.0628125695375754e+00 
78 79 2 1.0279999999620146e+00 5.4641924251318642e+02 1.0000000000000000e+00 6.1825136074129468e+01 6.1983596555722960e+00 2.7530385990069730e+00 
364 365 2 1.0280000000445446e+00 -3.1655477507251453e+03 1.0000000000000000e+00 6.2883994668510560e+01 7.4597609626628802e+00 3.2505445427849988e+00 
562 563 2 1.0280000000158704e+00 -4.7961784358653949e+03 1.0000000000000000e+00 5.8795601119263196e+01 8.0407237081434779e+00 3.6695873499202691e+00 
1193 1194 2 1.0279999999738731e+00 -1.4363963531469808e+03 1.0000000000000000e+00 5.8929246489187591e+01 8.7532774834943776e+00 2.6001827958827963e+00 
3333 3334 2 1.0280000000466250e+00 -3.2294114507840222e+03 1.0000000000000000e+00 6.0770619528017860e+01 8.2892644862358384e+00 2.8225477429307553e+00 
583 584 2 1.0279999999522342e+00 -1.9460072418005188e+03 1.0000000000000000e+00 6.0830505818568078e+01 9.3789835060825286e+00 3.1638537261608608e+00 
1428 1429 2 1.0280000000329106e+00 -2.9743111547312865e+03 1.0000000000000000e+00 6.2492372760265759e+01 9.8048064237915806e+00 3.9861747338309570e+00 
1808 1809 2 1.0279999999305858e+00 -3.0888799395601600e+03 1.0000000000000000e+00 6.3654867867601105e+01 9.1807763789002390e+00 3.0487361132761150e+00 
1265 1266 2 1.0280000000262015e+00 1.2852117990578663e+03 1.0000000000000000e+00 6.4045414411952407e+01 8.2137721594730468e+00 3.4014927381800435e+00 
818 819 2 1.0279999999992973e+00 -3.7139978547031233e+03 1.0000000000000000e+00 6.6487100084634847e+01 1.3044833456461419e+01 3.9870980191754679e+00 
3117 3118 2 1.0279999999605758e+00 -4.8632487884036163e+03 1.0000000000000000e+00 3.8651352721801096e+01 8.3435112014758139e-01 4.2645674512533525e+00 
3592 3593 2 1.0280000000067493e+00 2.4589557281991478e+02 1.0000000000000000e+00 3.9566836630135484e+01 1.6144780899221861e-01 5.2376476395498957e+00 
1785 1786 2 1.0279999999879486e+00 -1.2838233985039410e+03 1.0000000000000000e+00 4.1912625325933448e+01 1.4785144660612508e+00 5.2217050305365493e+00 
480 481 2 1.0279999999918576e+00 5.9898113207899460e+03 1.0000000000000000e+00 4.9604232151181684e+01 1.0980453734217890e+00 5.6369110097174904e+00 
17 18 2 1.0280000000076752e+00 -4.3598535552105641e+03 1.0000000000000000e+00 5.0256317351644562e+01 1.4530566289695681e+00 5.9403281744205589e+00 
16 17 2 1.0280000000185865e+00 -1.3115437825057293e+03 1.0000000000000000e+00 5.1249581179882412e+01 3.6973723924542018e-01 5.3333722942957502e+00 
524 525 2 1.0279999999864955e+00 -1.1326697715367259e+03 1.0000000000000000e+00 5.2107497182911587e+01 1.4612600779797995e+00 4.7154188541691928e+00 
3037 3038 2 1.0280000000154792e+00 4.2107678872653642e+03 1.0000000000000000e+00 5.3861389691396155e+01 7.1410725806605180e-01 4.2883064265419826e+00 
356 357 2 1.0280000000185296e+00 2.7437905626131487e+02 1.0000000000000000e+00 5.4034615267234841e+01 4.0050539795497858e-01 4.6621776359228795e+00 
894 895 2 1.0280000000077214e+00 -7.1963152046601351e+02 1.0000000000000000e+00 5.2952342728291235e+01 7.2446588939106771e-01 5.9976866678806156e+00 
975 976 2 1.0280000000133813e+00 7.8007569060175069e+02 1.0000000000000000e+00 5.5385858459574330e+01 1.8930576613024426e+00 4.2778390037343055e+00 
1866 1867 2 1.0279999999902780e+00 -2.7078171174639601e+03 1.0000000000000000e+00 5.6285460346960789e+01 1.3020959503053060e+00 4.8707996731159628e+00 
175 176 2 1.0280000000118108e+00 5.7861166156101876e+02 1.0000000000000000e+00 5.8516197122492542e+01 9.7219347928895461e-01 4.0967110421176667e+00 
268 269 2 1.0280000000217513e+00 5.0074662087270244e+03 1.0000000000000000e+00 5.7337876905765448e+01 4.6384611027666181e-02 5.5559280050381696e+00 
1999 2000 2 1.0279999999832587e+00 4.3602662838983970e+03 1.0000000000000000e+00 6.0639119381826539e+01 1.1138110488927613e+00 4.6831753136412582e+00 
1125 1126 2 1.0280000000149165e+00 -1.4951847972760345e+03 1.0000000000000000e+00 6.2825621251268593e+01 1.2647954954705547e+00 4.1061896747690945e+00 
74 75 2 1.0280000000174994e+00 -1.6338777991681495e+03 1.0000000000000000e+00 6.3851041027420337e+01 1.6033374664799616e+00 4.2300602658909474e+00 
1913 1914 2 1.0279999999410014e+00 -2.4779304405055518e+03 1.0000000000000000e+00 6.4067354277199726e+01 5.2988519568979535e-02 4.6699911929650115e+00 
1418 1419 2 1.0280000000296412e+00 -3.0947283880291343e+03 1.0000000000000000e+00 6.5641340260948965e+01 1.0959464989935754e+00 5.0436935641130276e+00 
1420 1421 2 1.0279999999828555e+00 -5.8019932831028136e+03 1.0000000000000000e+00 6.5630897533273767e+01 1.3096647016496776e+00 5.6954371500040235e+00 
807 808 2 1.0279999999983516e+00 -4.8554820177257843e+03 1.0000000000000000e+00 3.4643281377165820e+01 3.2682759036927842e+00 4.1266825575375190e+00 
467 468 2 1.0279999999950669e+00 -1.3335681822106103e+03 1.0000000000000000e+00 3.8727937426582976e+01 3.0599841012150581e+00 4.9687541504943580e+00 
1267 1268 2 1.0279999999962113e+00 -3.6326337412077819e+03 1.0000000000000000e+00 3.9122930942040405e+01 3.5996794422011851e+00 5.2026090631406650e+00 
525 526 2 1.0280000000120113e+00 -1.8883301568601296e+03 1.0000000000000000e+00 4.0942075780818151e+01 2.1986054198433518e+00 4.0092915612325717e+00 
1647 1648 2 1.0280000000086917e+00 3.4744155928909527e+03 1.0000000000000000e+00 4.0481467071489305e+01 2.3733541665652171e+00 5.8898694038462374e+00 
2286 2287 2 1.0280000000301370e+00 -2.7925390496028922e+03 1.0000000000000000e+00 4.1481274407518903e+01 3.1249125446516666e+00 5.7700160029793546e+00 
1168 1169 2 1.0280000001257068e+00 -6.3253411915489824e+02 1.0000000000000000e+00 4.2888834401808545e+01 3.7318352314452885e+00 4.9470856967708086e+00 
493 494 2 1.0280000000082494e+00 -8.0814379981355614e+02 1.0000000000000000e+00 4.4481849522234604e+01 2.5116015789163932e+00 5.7960745930620181e+00 
691 692 2 1.0279999999051712e+00 -6.5645907814294569e+03 1.0000000000000000e+00 4.3800731236806271e+01 3.4757094606631864e+00 4.3928079079973035e+00 
133 134 2 1.0279999999903520e+00 -8.1026612685034570e+02 1.0000000000000000e+00 4.5141711430604445e+01 2.2142043789094621e+00 5.3322986476290257e+00 
1144 1145 2 1.0279999999989333e+00 -8.2608872844379366e+03 1.0000000000000000e+00 4.7266241155934331e+01 3.8443697983709111e+00 4.5133901356815693e+00 
1654 1655 2 1.0279999999902729e+00 6.6148290307697789e+03 1.0000000000000000e+00 5.4547417169018182e+01 2.0790657325900601e+00 5.6825147891888088e+00 
1108 1109 2 1.0279999999872362e+00 -5.6327339674028281e+02 1.0000000000000000e+00 5.3355628339182680e+01 3.0093535648719048e+00 4.5428896825313032e+00 
1435 1436 2 1.0280000000111700e+00 1.4825299561296404e+03 1.0000000000000000e+00 5.4870429478205864e+01 3.8443714268229909e+00 4.5685616786952412e+00 
556 557 2 1.0279999999926428e+00 -2.1595491650173922e+03 1.0000000000000000e+00 5.5444491212949657e+01 3.5049984814780157e+00 4.1853682862402266e+00 
1355 1356 2 1.0280000000163181e+00 -5.2155788252594848e+03 1.0000000000000000e+00 5.7240003887834135e+01 3.6605183434252822e+00 5.7016161855867296e+00 
179 180 2 1.0279999999818248e+00 1.9090058109792885e+03 1.0000000000000000e+00 5.7479505784813782e+01 2.8150732841048427e+00 5.2169960875586332e+00 
934 935 2 1.0279999999837586e+00 -3.0954048261501157e+03 1.0000000000000000e+00 6.0275000295759419e+01 3.7901161906491452e+00 4.6815908741190242e+00 
563 564 2 1.0279999999865732e+00 -4.4287287274025348e+03 1.0000000000000000e+00 6.0972304197651333e+01 2.0329199715631296e+00 5.3059459556521196e+00 
1082 1083 2 1.0280000000025573e+00 2.3768030634366719e+03 1.0000000000000000e+00 6.3197614892291483e+01 2.8702429466570276e+00 5.8486007054450670e+00 
1580 1581 2 1.0279999999578397e+00 5.8313907551495968e+03 1.0000000000000000e+00 6.3563216239074535e+01 2.8447511462576403e+00 4.6837868817193593e+00 
1504 1505 2 1.0280000000401044e+00 -4.4152287107622624e+03 1.0000000000000000e+00 6.5485183708943850e+01 3.2119264533249074e+00 5.7857337038114860e+00 
36 37 2 1.0279999999979128e+00 1.5857745878340379e+03 1.0000000000000000e+00 6.6246950634854372e+01 3.0246264931623390e+00 5.7798071014338053e+00 
508 509 2 1.0280000000019274e+00 -1.5871920317210702e+03 1.0000000000000000e+00 3.7827488003723033e+01 5.7372755265367363e+00 5.6950880597289650e+00 
809 810 2 1.0280000000119975e+00 -7.5433291728357062e+01 1.0000000000000000e+00 3.8892927738961468e+01 5.5983477853621215e+00 4.2532499760820919e+00 
267 268 2 1.0280000000003919e+00 4.5247592897392806e+03 1.0000000000000000e+00 4.0261335200120470e+01 5.9065423039759066e+00 4.0383772937666453e+00 
1490 1491 2 1.0280000000118685e+00 1.8863233560223498e+03 1.0000000000000000e+00 4.3069712423982971e+01 5.4401536660570970e+00 4.1554819620184418e+00 