LAMMPS data file via write_data, version 30 Jul 2016, timestep = 600000

2080 atoms
8 atom types

0.0000000000000000e+00 4.0000000000000000e+01 xlo xhi
0.0000000000000000e+00 4.0000000000000000e+01 ylo yhi
0.0000000000000000e+00 1.0000000000000000e+02 zlo zhi

Masses

1 3.896
2 10.72
3 1058.08
4 8.378
5 8.378
6 8.378
7 8.378
8 8.378

Atoms # meso-molecular

1 2 4 2.2559723595316457e+00 1.0000000000000000e+00 4.2000000000000000e+03 0.0000000000000000e+00 0.0000000000000000e+00 2.5000000000000000e+00 
2 2 4 2.2559723595316457e+00 1.0000000000000000e+00 4.2000000000000000e+03 0.0000000000000000e+00 2.0000000000000000e+00 2.5000000000000000e+00 
3 2 4 2.2559723595316457e+00 1.0000000000000000e+00 4.2000000000000000e+03 0.0000000000000000e+00 4.0000000000000000e+00 2.5000000000000000e+00 
4 2 4 2.2559723595316457e+00 1.0000000000000000e+00 4.2000000000000000e+03 0.0000000000000000e+00 6.0000000000000000e+00 2.5000000000000000e+00 
21 2 4 2.2559723595316457e+00 1.0000000000000000e+00 4.2000000000000000e+03 2.0000000000000000e+00 0.0000000000000000e+00 2.5000000000000000e+00 
22 2 4 2.2559723595316457e+00 1.0000000000000000e+00 4.2000000000000000e+03 2.0000000000000000e+00 2.0000000000000000e+00 2.5000000000000000e+00 
23 2 4 2.2559723595316457e+00 1.0000000000000000e+00 4.2000000000000000e+03 2.0000000000000000e+00 4.0000000000000000e+00 2.5000000000000000e+00 
24 2 4 2.2559723595316457e+00 1.0000000000000000e+00 4.2000000000000000e+03 2.0000000000000000e+00 6.0000000000000000e+00 2.5000000000000000e+00 
41 2 4 2.2559723595316457e+00 1.0000000000000000e+00 4.2000000000000000e+03 4.0000000000000000e+00 0.0000000000000000e+00 2.5000000000000000e+00 
42 2 4 2.2559723595316457e+00 1.0000000000000000e+00 4.2000000000000000e+03 4.0000000000000000e+00 2.0000000000000000e+00 2.5000000000000000e+00 
43 2 4 2.2559723595316457e+00 1.0000000000000000e+00 4.2000000000000000e+03 4.0000000000000000e+00 4.0000000000000000e+00 2.5000000000000000e+00 
44 2 4 2.2559723595316457e+00 1.0000000000000000e+00 4.2000000000000000e+03 4.0000000000000000e+00 6.0000000000000000e+00 2.5000000000000000e+00 
61 2 4 2.2559723595316457e+00 1.0000000000000000e+00 4.2000000000000000e+03 6.0000000000000000e+00 0.0000000000000000e+00 2.5000000000000000e+00 
62 2 4 2.2559723595316457e+00 1.0000000000000000e+00 4.2000000000000000e+03 6.0000000000000000e+00 2.0000000000000000e+00 2.5000000000000000e+00 
63 2 4 2.2559723595316457e+00 1.0000000000000000e+00 4.2000000000000000e+03 6.0000000000000000e+00 4.0000000000000000e+00 2.5000000000000000e+00 
64 2 4 2.2559723595316457e+00 1.0000000000000000e+00 4.2000000000000000e+03 6.0000000000000000e+00 6.0000000000000000e+00 2.5000000000000000e+00 
81 2 4 2.2559723595316457e+00 1.0000000000000000e+00 4.2000000000000000e+03 8.0000000000000000e+00 0.0000000000000000e+00 2.5000000000000000e+00 
82 2 4 2.2559723595316457e+00 1.0000000000000000e+00 4.2000000000000000e+03 8.0000000000000000e+00 2.0000000000000000e+00 2.5000000000000000e+00 
83 2 4 2.2559723595316457e+00 1.0000000000000000e+00 4.2000000000000000e+03 8.0000000000000000e+00 4.0000000000000000e+00 2.5000000000000000e+00 
84 2 4 2.2559723595316457e+00 1.0001966875907065e+00 4.2000000000000000e+03 8.0000000000000000e+00 6.0000000000000000e+00 2.5000000000000000e+00 
101 2 4 2.2559723595316457e+00 1.0000000000000000e+00 4.2000000000000000e+03 1.0000000000000000e+01 0.0000000000000000e+00 2.5000000000000000e+00 
102 2 4 2.2559723595316457e+00 1.0000000000000000e+00 4.2000000000000000e+03 1.0000000000000000e+01 2.0000000000000000e+00 2.5000000000000000e+00 
103 2 4 2.2559723595316457e+00 -4.1120981678997032e-01 4.2000000000000000e+03 1.0000000000000000e+01 4.0000000000000000e+00 2.5000000000000000e+00 
104 2 4 2.2559723595316457e+00 -7.2205136474821273e+01 4.2000000000000000e+03 1.0000000000000000e+01 6.0000000000000000e+00 2.5000000000000000e+00 
121 2 4 2.2559723595316457e+00 1.0000000000000000e+00 4.2000000000000000e+03 1.2000000000000000e+01 0.0000000000000000e+00 2.5000000000000000e+00 
122 2 4 2.2559723595316457e+00 1.0000002137759982e+00 4.2000000000000000e+03 1.2000000000000000e+01 2.0000000000000000e+00 2.5000000000000000e+00 
123 2 4 2.2559723595316457e+00 -7.2208389225882428e+01 4.2000000000000000e+03 1.2000000000000000e+01 4.0000000000000000e+00 2.5000000000000000e+00 
124 2 4 2.2559723595316457e+00 -6.1362344274259181e+02 4.2000000000000000e+03 1.2000000000000000e+01 6.0000000000000000e+00 2.5000000000000000e+00 
141 2 4 2.2559723595316457e+00 9.9896605841567432e-01 4.2000000000000000e+03 1.4000000000000000e+01 0.0000000000000000e+00 2.5000000000000000e+00 
142 2 4 2.2559723595316457e+00 -4.0050038924663465e+00 4.2000000000000000e+03 1.4000000000000000e+01 2.0000000000000000e+00 2.5000000000000000e+00 
143 2 4 2.2559723595316457e+00 -3.2180436639436965e+02 4.2000000000000000e+03 1.4000000000000000e+01 4.0000000000000000e+00 2.5000000000000000e+00 
144 2 4 2.2559723595316457e+00 -1.9530944519146910e+03 4.2000000000000000e+03 1.4000000000000000e+01 6.0000000000000000e+00 2.5000000000000000e+00 
161 2 4 2.2559723595316457e+00 9.6832456964381808e-01 4.2000000000000000e+03 1.6000000000000000e+01 0.0000000000000000e+00 2.5000000000000000e+00 
162 2 4 2.2559723595316457e+00 -1.6498527794495601e+01 4.2000000000000000e+03 1.6000000000000000e+01 2.0000000000000000e+00 2.5000000000000000e+00 
163 2 4 2.2559723595316457e+00 -6.8357730300691662e+02 4.2000000000000000e+03 1.6000000000000000e+01 4.0000000000000000e+00 2.5000000000000000e+00 
164 2 4 2.2559723595316457e+00 -3.7377036496478740e+03 4.2000000000000000e+03 1.6000000000000000e+01 6.0000000000000000e+00 2.5000000000000000e+00 
181 2 4 2.2559723595316457e+00 8.0118091142671721e-01 4.2000000000000000e+03 1.8000000000000000e+01 0.0000000000000000e+00 2.5000000000000000e+00 
182 2 4 2.2559723595316457e+00 -2.2075911898379800e+01 4.2000000000000000e+03 1.8000000000000000e+01 2.0000000000000000e+00 2.5000000000000000e+00 
183 2 4 2.2559723595316457e+00 -9.4020656844868631e+02 4.2000000000000000e+03 1.8000000000000000e+01 4.0000000000000000e+00 2.5000000000000000e+00 
184 2 4 2.2559723595316457e+00 -5.0490341919057992e+03 4.2000000000000000e+03 1.8000000000000000e+01 6.0000000000000000e+00 2.5000000000000000e+00 
5 2 4 2.2559723595316457e+00 1.0000000000000000e+00 4.2000000000000000e+03 0.0000000000000000e+00 8.0000000000000000e+00 2.5000000000000000e+00 
6 2 4 2.2559723595316457e+00 1.0000000000000000e+00 4.2000000000000000e+03 0.0000000000000000e+00 1.0000000000000000e+01 2.5000000000000000e+00 
7 2 4 2.2559723595316457e+00 1.0000000000000000e+00 4.2000000000000000e+03 0.0000000000000000e+00 1.2000000000000000e+01 2.5000000000000000e+00 
25 2 4 2.2559723595316457e+00 1.0000000000000000e+00 4.2000000000000000e+03 2.0000000000000000e+00 8.0000000000000000e+00 2.5000000000000000e+00 
26 2 4 2.2559723595316457e+00 1.0000000000000000e+00 4.2000000000000000e+03 2.0000000000000000e+00 1.0000000000000000e+01 2.5000000000000000e+00 
27 2 4 2.2559723595316457e+00 1.0000000000000000e+00 4.2000000000000000e+03 2.0000000000000000e+00 1.2000000000000000e+01 2.5000000000000000e+00 
45 2 4 2.2559723595316457e+00 1.0000000000000000e+00 4.2000000000000000e+03 4.0000000000000000e+00 8.0000000000000000e+00 2.5000000000000000e+00 
46 2 4 2.2559723595316457e+00 1.0000000000000000e+00 4.2000000000000000e+03 4.0000000000000000e+00 1.0000000000000000e+01 2.5000000000000000e+00 
47 2 4 2.2559723595316457e+00 1.0000000000000000e+00 4.2000000000000000e+03 4.0000000000000000e+00 1.2000000000000000e+01 2.5000000000000000e+00 
65 2 4 2.2559723595316457e+00 1.0000061049393931e+00 4.2000000000000000e+03 6.0000000000000000e+00 8.0000000000000000e+00 2.5000000000000000e+00 
66 2 4 2.2559723595316457e+00 1.0001758340921887e+00 4.2000000000000000e+03 6.0000000000000000e+00 1.0000000000000000e+01 2.5000000000000000e+00 
67 2 4 2.2559723595316457e+00 1.0004204241846557e+00 4.2000000000000000e+03 6.0000000000000000e+00 1.2000000000000000e+01 2.5000000000000000e+00 
85 2 4 2.2559723595316457e+00 -4.0016868621973956e+00 4.2000000000000000e+03 8.0000000000000000e+00 8.0000000000000000e+00 2.5000000000000000e+00 
86 2 4 2.2559723595316457e+00 -1.6516285397312092e+01 4.2000000000000000e+03 8.0000000000000000e+00 1.0000000000000000e+01 2.5000000000000000e+00 
87 2 4 2.2559723595316457e+00 -2.2175040178819724e+01 4.2000000000000000e+03 8.0000000000000000e+00 1.2000000000000000e+01 2.5000000000000000e+00 
105 2 4 2.2559723595316457e+00 -3.2210898193906246e+02 4.2000000000000000e+03 1.0000000000000000e+01 8.0000000000000000e+00 2.5000000000000000e+00 
106 2 4 2.2559723595316457e+00 -6.8598494151514251e+02 4.2000000000000000e+03 1.0000000000000000e+01 1.0000000000000000e+01 2.5000000000000000e+00 
107 2 4 2.2559723595316457e+00 -9.5194742121770025e+02 4.2000000000000000e+03 1.0000000000000000e+01 1.2000000000000000e+01 2.5000000000000000e+00 
125 2 4 2.2559723595316457e+00 -1.9550587572753752e+03 4.2000000000000000e+03 1.2000000000000000e+01 8.0000000000000000e+00 2.5000000000000000e+00 
126 2 4 2.2559723595316457e+00 -3.7528744029730074e+03 4.2000000000000000e+03 1.2000000000000000e+01 1.0000000000000000e+01 2.5000000000000000e+00 
127 2 4 2.2559723595316457e+00 -5.1810183830302867e+03 4.2000000000000000e+03 1.2000000000000000e+01 1.2000000000000000e+01 2.5000000000000000e+00 
145 2 4 2.2559723595316457e+00 -5.5758627182269747e+03 4.2000000000000000e+03 1.4000000000000000e+01 8.0000000000000000e+00 2.5000000000000000e+00 
146 2 4 2.2559723595316457e+00 -1.0356753748809624e+04 4.2000000000000000e+03 1.4000000000000000e+01 1.0000000000000000e+01 2.5000000000000000e+00 
147 2 4 2.2559723595316457e+00 -1.4323566079389739e+04 4.2000000000000000e+03 1.4000000000000000e+01 1.2000000000000000e+01 2.5000000000000000e+00 
165 2 4 2.2559723595316457e+00 -1.0320190667125069e+04 4.2000000000000000e+03 1.6000000000000000e+01 8.0000000000000000e+00 2.5000000000000000e+00 
166 2 4 2.2559723595316457e+00 -1.9087484119094534e+04 4.2000000000000000e+03 1.6000000000000000e+01 1.0000000000000000e+01 2.5000000000000000e+00 
167 2 4 2.2559723595316457e+00 -2.6594174217969034e+04 4.2000000000000000e+03 1.6000000000000000e+01 1.2000000000000000e+01 2.5000000000000000e+00 
185 2 4 2.2559723595316457e+00 -1.3840468565588515e+04 4.2000000000000000e+03 1.8000000000000000e+01 8.0000000000000000e+00 2.5000000000000000e+00 
186 2 4 2.2559723595316457e+00 -2.5666055792075131e+04 4.2000000000000000e+03 1.8000000000000000e+01 1.0000000000000000e+01 2.5000000000000000e+00 
187 2 4 2.2559723595316457e+00 -3.5987755744656235e+04 4.2000000000000000e+03 1.8000000000000000e+01 1.2000000000000000e+01 2.5000000000000000e+00 
8 2 4 2.2559723595316457e+00 1.0000000000000000e+00 4.2000000000000000e+03 0.0000000000000000e+00 1.4000000000000000e+01 2.5000000000000000e+00 
9 2 4 2.2559723595316457e+00 1.0000000000000000e+00 4.2000000000000000e+03 0.0000000000000000e+00 1.6000000000000000e+01 2.5000000000000000e+00 
10 2 4 2.2559723595316457e+00 1.0000000000000000e+00 4.2000000000000000e+03 0.0000000000000000e+00 1.8000000000000000e+01 2.5000000000000000e+00 
28 2 4 2.2559723595316457e+00 1.0000000000000000e+00 4.2000000000000000e+03 2.0000000000000000e+00 1.4000000000000000e+01 2.5000000000000000e+00 
29 2 4 2.2559723595316457e+00 9.9865117699975592e-01 4.2000000000000000e+03 2.0000000000000000e+00 1.6000000000000000e+01 2.5000000000000000e+00 
30 2 4 2.2559723595316457e+00 9.9910148054386294e-01 4.2000000000000000e+03 2.0000000000000000e+00 1.8000000000000000e+01 2.5000000000000000e+00 
48 2 4 2.2559723595316457e+00 9.9980886001786295e-01 4.2000000000000000e+03 4.0000000000000000e+00 1.4000000000000000e+01 2.5000000000000000e+00 
49 2 4 2.2559723595316457e+00 9.8550151407762721e-01 4.2000000000000000e+03 4.0000000000000000e+00 1.6000000000000000e+01 2.5000000000000000e+00 
50 2 4 2.2559723595316457e+00 1.0001795773422568e+00 4.2000000000000000e+03 4.0000000000000000e+00 1.8000000000000000e+01 2.5000000000000000e+00 
68 2 4 2.2559723595316457e+00 9.9879474158818815e-01 4.2000000000000000e+03 6.0000000000000000e+00 1.4000000000000000e+01 2.5000000000000000e+00 
69 2 4 2.2559723595316457e+00 9.8791022956097296e-01 4.2000000000000000e+03 6.0000000000000000e+00 1.6000000000000000e+01 2.5000000000000000e+00 
70 2 4 2.2559723595316457e+00 1.0032655743797985e+00 4.2000000000000000e+03 6.0000000000000000e+00 1.8000000000000000e+01 2.5000000000000000e+00 
88 2 4 2.2559723595316457e+00 -2.2630745557899843e+01 4.2000000000000000e+03 8.0000000000000000e+00 1.4000000000000000e+01 2.5000000000000000e+00 
89 2 4 2.2559723595316457e+00 -2.2756793247384252e+01 4.2000000000000000e+03 8.0000000000000000e+00 1.6000000000000000e+01 2.5000000000000000e+00 
90 2 4 2.2559723595316457e+00 -2.2805287999361560e+01 4.2000000000000000e+03 8.0000000000000000e+00 1.8000000000000000e+01 2.5000000000000000e+00 
108 2 4 2.2559723595316457e+00 -1.0398767374560407e+03 4.2000000000000000e+03 1.0000000000000000e+01 1.4000000000000000e+01 2.5000000000000000e+00 
109 2 4 2.2559723595316457e+00 -1.0486146394040497e+03 4.2000000000000000e+03 1.0000000000000000e+01 1.6000000000000000e+01 2.5000000000000000e+00 
110 2 4 2.2559723595316457e+00 -1.0502704020623983e+03 4.2000000000000000e+03 1.0000000000000000e+01 1.8000000000000000e+01 2.5000000000000000e+00 
128 2 4 2.2559723595316457e+00 -5.8094598975923072e+03 4.2000000000000000e+03 1.2000000000000000e+01 1.4000000000000000e+01 2.5000000000000000e+00 
129 2 4 2.2559723595316457e+00 -5.9246055086387187e+03 4.2000000000000000e+03 1.2000000000000000e+01 1.6000000000000000e+01 2.5000000000000000e+00 
130 2 4 2.2559723595316457e+00 -5.9367813667030468e+03 4.2000000000000000e+03 1.2000000000000000e+01 1.8000000000000000e+01 2.5000000000000000e+00 
148 2 4 2.2559723595316457e+00 -1.6271591134046388e+04 4.2000000000000000e+03 1.4000000000000000e+01 1.4000000000000000e+01 2.5000000000000000e+00 
149 2 4 2.2559723595316457e+00 -1.6723224628055046e+04 4.2000000000000000e+03 1.4000000000000000e+01 1.6000000000000000e+01 2.5000000000000000e+00 
150 2 4 2.2559723595316457e+00 -1.6763035823388280e+04 4.2000000000000000e+03 1.4000000000000000e+01 1.8000000000000000e+01 2.5000000000000000e+00 
168 2 4 2.2559723595316457e+00 -3.0463104731951786e+04 4.2000000000000000e+03 1.6000000000000000e+01 1.4000000000000000e+01 2.5000000000000000e+00 
169 2 4 2.2559723595316457e+00 -3.1435074715241521e+04 4.2000000000000000e+03 1.6000000000000000e+01 1.6000000000000000e+01 2.5000000000000000e+00 
170 2 4 2.2559723595316457e+00 -3.1516677940418223e+04 4.2000000000000000e+03 1.6000000000000000e+01 1.8000000000000000e+01 2.5000000000000000e+00 
188 2 4 2.2559723595316457e+00 -4.1426787341823190e+04 4.2000000000000000e+03 1.8000000000000000e+01 1.4000000000000000e+01 2.5000000000000000e+00 
189 2 4 2.2559723595316457e+00 -4.2816139732759635e+04 4.2000000000000000e+03 1.8000000000000000e+01 1.6000000000000000e+01 2.5000000000000000e+00 
190 2 4 2.2559723595316457e+00 -4.2926926591010524e+04 4.2000000000000000e+03 1.8000000000000000e+01 1.8000000000000000e+01 2.5000000000000000e+00 
825 427 2 1.0280016391586699e+00 3.5588008394073995e+01 4.2000000000000000e+03 1.3281866846920700e+01 1.2337047658649203e+01 5.7142475962466705e+01 
1803 1405 2 1.0280069151580979e+00 -3.2093060558238244e+03 4.2000000000000000e+03 1.3229764849906044e+01 1.2076831414936144e+01 5.7241588105620487e+01 
1979 1581 2 1.0279991633165591e+00 1.1733944511864991e+03 4.2000000000000000e+03 1.3025781152721965e+01 1.1449639483030364e+01 5.7637857761915036e+01 
911 513 2 1.0279830320838006e+00 -1.6068357429262403e+04 4.2000000000000000e+03 1.3219885064988436e+01 1.0752976904800754e+01 5.7829090824943222e+01 
1236 838 2 1.0279758352765478e+00 3.3309895004120769e+01 4.2000000000000000e+03 1.3275663292541955e+01 1.0659670395039159e+01 5.7838987705179626e+01 
1938 1540 2 1.0280074147888867e+00 1.2495013749290050e+04 4.2000000000000000e+03 1.2602063369442586e+01 1.3218345677685347e+01 5.7795411851121870e+01 
949 551 2 1.0279933591266630e+00 2.2107472723645524e+03 4.2000000000000000e+03 1.2776941102883463e+01 1.1499542832853171e+01 5.7890124106582647e+01 
523 125 2 1.0279846809416082e+00 2.3471931575408803e+03 4.2000000000000000e+03 1.2959866278468418e+01 1.0466666363641560e+01 5.8330816364259739e+01 
1826 1428 2 1.0279984104690196e+00 -3.0480009320719178e+03 4.2000000000000000e+03 1.2776422604772515e+01 1.0647097704729536e+01 5.8428281926849472e+01 
428 30 2 1.0279902605165265e+00 1.0527005031482144e+04 4.2000000000000000e+03 1.3080038659605876e+01 1.0128499347428050e+01 5.8489371545293338e+01 
1901 1503 2 1.0279975553282232e+00 -2.0461354166343242e+03 4.2000000000000000e+03 1.2566454703275900e+01 1.1019700834694085e+01 5.8462162944331553e+01 
929 531 2 1.0280066404243235e+00 3.7965751287452063e+03 4.2000000000000000e+03 1.2113905793390131e+01 1.2244965885798436e+01 5.8743265121279343e+01 
700 302 2 1.0279877972537779e+00 9.8197299545307101e+02 4.2000000000000000e+03 1.2982663003330982e+01 9.9420527541138117e+00 5.8821398746942187e+01 
491 93 2 1.0280114190248695e+00 5.3363845470711203e+02 4.2000000000000000e+03 1.2102379704276853e+01 1.2178780397850765e+01 5.8790491126651709e+01 
1743 1345 2 1.0280149286464322e+00 6.7473385029829251e+02 4.2000000000000000e+03 1.2018864810135893e+01 1.2214437130395417e+01 5.9015450754403467e+01 
976 578 2 1.0280007276314913e+00 -2.9261910807304939e+03 4.2000000000000000e+03 1.2513448825971679e+01 1.0330230452244589e+01 5.9236335380153555e+01 
1716 1318 2 1.0279859087641308e+00 1.7133259575860141e+03 4.2000000000000000e+03 1.2975909918670665e+01 9.5552703733485398e+00 5.9330498802279635e+01 
441 43 2 1.0279889442042915e+00 7.0503324271006227e+02 4.2000000000000000e+03 1.2982339308771076e+01 9.3966070040441814e+00 5.9558098975927578e+01 
955 557 2 1.0279914632569398e+00 1.2574205245105738e+03 4.2000000000000000e+03 1.2734074926491173e+01 9.7149641866881922e+00 5.9596686678997720e+01 
1112 714 2 1.0280276809435724e+00 4.7466105157935699e+03 4.2000000000000000e+03 1.1934136525293697e+01 1.1472511204975836e+01 5.9883417824298988e+01 
1053 655 2 1.0279999394409143e+00 6.6514127012266431e+02 4.2000000000000000e+03 1.2834331211793986e+01 9.3457574228052795e+00 5.9990686480948334e+01 
1031 633 2 1.0279777398934118e+00 2.6520870674766820e+03 4.2000000000000000e+03 1.3341238872067535e+01 1.0127607469965445e+01 5.8195346194183216e+01 
1576 1178 2 1.0279815937176631e+00 -3.1371349416038370e+03 4.2000000000000000e+03 1.7305772220765544e+01 1.2921333551738336e+01 5.6091826092674069e+01 
1342 944 2 1.0279633643951420e+00 2.0501266666323086e+03 4.2000000000000000e+03 1.7028406340418151e+01 1.1581878334384012e+01 5.6318331427367028e+01 
1343 945 2 1.0279677502156361e+00 2.0416171426943231e+03 4.2000000000000000e+03 1.9570658171237920e+01 1.1885676696574988e+01 5.6281725627416563e+01 
1346 948 2 1.0279749603454049e+00 8.5683256962142298e+02 4.2000000000000000e+03 1.6630688968248688e+01 1.1414418944576695e+01 5.6362625626312202e+01 
1573 1175 2 1.0279943047800963e+00 -3.1448134811226037e+03 4.2000000000000000e+03 1.9724466849716848e+01 1.1603497233931254e+01 5.6315754164531334e+01 
840 442 2 1.0279441228239679e+00 3.6754229239634710e+03 4.2000000000000000e+03 1.9803532922788673e+01 1.1354388486019888e+01 5.6364325001082243e+01 
2040 1642 2 1.0279703918835299e+00 2.7438743147751657e+03 4.2000000000000000e+03 1.4380280278313096e+01 1.2464607328871342e+01 5.6481576182414145e+01 
837 439 2 1.0279860081523853e+00 3.6738485955636729e+03 4.2000000000000000e+03 1.8272661829488211e+01 1.1253962641749913e+01 5.6476872823906085e+01 
1737 1339 2 1.0279565887425586e+00 1.0539360874150759e+02 4.2000000000000000e+03 1.7955340455484073e+01 1.1059464184195543e+01 5.6536464805534806e+01 
1092 694 2 1.0279801388282772e+00 -1.2881780178469398e+03 4.2000000000000000e+03 1.9427098141467418e+01 1.0648759236384622e+01 5.6660792704576515e+01 
1089 691 2 1.0279880122974916e+00 -1.2878908892109864e+03 4.2000000000000000e+03 1.8805684367496379e+01 1.0576561556813552e+01 5.6748724545081714e+01 
1284 886 2 1.0279772056474195e+00 7.8012384407092268e+03 4.2000000000000000e+03 1.8329767679904833e+01 1.0555684178509615e+01 5.6771591941487927e+01 
1296 898 2 1.0279689287599409e+00 -1.1010761455330885e+03 4.2000000000000000e+03 1.4053343222941352e+01 1.1535373804386555e+01 5.6867625891270357e+01 
1706 1308 2 1.0279644686368989e+00 1.5993283601189369e+03 4.2000000000000000e+03 1.7898781919609689e+01 1.0430012266155124e+01 5.6832908566626259e+01 
1654 1256 2 1.0279756221701277e+00 2.3967870314461147e+03 4.2000000000000000e+03 1.3688398133429610e+01 1.1654241189149802e+01 5.7032605285329687e+01 
633 235 2 1.0279672893318950e+00 4.0330120039027265e+03 4.2000000000000000e+03 1.3831509897092891e+01 1.1331409647047524e+01 5.7066715977605369e+01 
1304 906 2 1.0279485252896488e+00 -3.7271590228676502e+02 4.2000000000000000e+03 1.4210758614496360e+01 1.0744676484072173e+01 5.7146295808623542e+01 
1281 883 2 1.0279282705656161e+00 7.7975539293115562e+03 4.2000000000000000e+03 1.9505019903657178e+01 9.5079398220918474e+00 5.7409422413972450e+01 
1543 1145 2 1.0279890639153790e+00 -7.4973653664317169e+02 4.2000000000000000e+03 1.8568748247731701e+01 9.6215935589417327e+00 5.7414934845588157e+01 
1434 1036 2 1.0279527194476517e+00 4.6211461684247015e+03 4.2000000000000000e+03 1.9385149296564119e+01 9.1569920302643446e+00 5.7772138767039458e+01 
539 141 2 1.0279464112503922e+00 2.3463671395715469e+03 4.2000000000000000e+03 1.9546507083662235e+01 9.0051413457541525e+00 5.7903084747122129e+01 
1435 1037 2 1.0279841548477542e+00 4.6227680799616064e+03 4.2000000000000000e+03 1.9173756030452264e+01 9.0704216189380205e+00 5.7904493100678202e+01 
538 140 2 1.0279707789413990e+00 2.3452235914494781e+03 4.2000000000000000e+03 1.9286788209267286e+01 8.9608996472828899e+00 5.8008234267716823e+01 
899 501 2 1.0279922391113721e+00 -1.0584210023185942e+03 4.2000000000000000e+03 1.9778940526061717e+01 1.3289859384883259e+01 5.8021626846734925e+01 
858 460 2 1.0280054630197379e+00 2.8035188463128310e+02 4.2000000000000000e+03 1.8721857936990613e+01 1.2971684659956573e+01 5.8096021306357173e+01 
1148 750 2 1.0279844979770303e+00 -7.5591866468786441e+02 4.2000000000000000e+03 1.9220609360939189e+01 8.5203723165353900e+00 5.8582542579804539e+01 
1879 1481 2 1.0279390960355184e+00 2.5827836831008813e+03 4.2000000000000000e+03 1.9048912615290583e+01 8.2243420032336747e+00 5.9056715228030058e+01 
1542 1144 2 1.0279694224954430e+00 -7.4769920475552021e+02 4.2000000000000000e+03 1.8955209290595533e+01 9.9309513663279105e+00 5.9794786813370955e+01 
1882 1484 2 1.0279523824781314e+00 1.3518140891045002e+03 4.2000000000000000e+03 1.8484938790109819e+01 7.6966893926609661e+00 5.9996598959375731e+01 
520 122 2 1.0280094874993786e+00 -1.4278966161419319e+03 4.2000000000000000e+03 1.3149506326200042e+01 1.3614209923894570e+01 5.7177568701752840e+01 
1673 1275 2 1.0280426894126391e+00 3.9016593249494044e+03 4.2000000000000000e+03 1.2921978478290274e+01 1.6052970423116683e+01 5.8087956430067401e+01 
2025 1627 2 1.0280146148174771e+00 -8.5331961056122225e+02 4.2000000000000000e+03 1.3009951723040983e+01 1.8950752861098469e+01 5.8687293854247407e+01 
513 115 2 1.0280209607434867e+00 -8.5375593982128225e+02 4.2000000000000000e+03 1.2968096384242971e+01 1.9631814314504116e+01 5.8772405254143109e+01 
499 101 2 1.0280370209633991e+00 2.1682220804097292e+03 4.2000000000000000e+03 1.2925010041253179e+01 1.7532168427035263e+01 5.9027957006407611e+01 
1278 880 2 1.0280333064448244e+00 5.0820534099500355e+03 4.2000000000000000e+03 1.2933226749424966e+01 1.7887792614415272e+01 5.9468816151060246e+01 
803 405 2 1.0280585212934825e+00 4.5656952635913613e+03 4.2000000000000000e+03 1.2345752244922751e+01 1.5205715542776662e+01 5.9493159586119674e+01 
1914 1516 2 1.0280234672918562e+00 -5.3285798890893229e+03 4.2000000000000000e+03 1.2841088385432137e+01 1.7127139203839427e+01 5.9581808182967137e+01 
1163 765 2 1.0280245254978013e+00 -7.0118472860700138e+02 4.2000000000000000e+03 1.2915176357151253e+01 1.7616273107933530e+01 5.9761900149465234e+01 
1366 968 2 1.0280296194213561e+00 -3.0457227185568113e+03 4.2000000000000000e+03 1.2850788005121021e+01 1.7135657605375027e+01 5.9897840190567720e+01 
1613 1215 2 1.0280297876441393e+00 5.2869239241977457e+03 4.2000000000000000e+03 1.3412858375956240e+01 1.6287364482415445e+01 5.7244590511936856e+01 
1214 816 2 1.0279999914333751e+00 -3.2401144803175675e+03 4.2000000000000000e+03 1.6332650176665119e+01 1.8812891358391379e+01 5.5214032214436543e+01 
1444 1046 2 1.0280362978801492e+00 5.2922772340291049e+03 4.2000000000000000e+03 1.6628508401466370e+01 1.9842809990322795e+01 5.5191440393285149e+01 
1393 995 2 1.0279781233173635e+00 -2.9357635546671918e+03 4.2000000000000000e+03 1.6309526744227984e+01 1.9612690666396112e+01 5.5230189112167039e+01 
940 542 2 1.0279974454826395e+00 5.2876040370531928e+03 4.2000000000000000e+03 1.6088272494241416e+01 1.9530987844737226e+01 5.5276720527269319e+01 
1754 1356 2 1.0280172572328674e+00 -8.1153517738744195e+03 4.2000000000000000e+03 1.5748742418923724e+01 1.8602282278642164e+01 5.5375924287751140e+01 
1755 1357 2 1.0279960762302895e+00 -8.1188471555768720e+03 4.2000000000000000e+03 1.9551235338240545e+01 1.8284868990230585e+01 5.5271942538013278e+01 
1794 1396 2 1.0280241707313191e+00 -1.7114204146950174e+03 4.2000000000000000e+03 1.5633215569323076e+01 1.7981121835675676e+01 5.5469786487487497e+01 
1358 960 2 1.0280162489538058e+00 -2.4742112533197578e+03 4.2000000000000000e+03 1.9700008965964411e+01 1.7864841811361977e+01 5.5385539503939825e+01 
951 553 2 1.0279967050556329e+00 2.9574378320855062e+03 4.2000000000000000e+03 1.6124860808854407e+01 1.6657623951213466e+01 5.5573365625118633e+01 
1194 796 2 1.0280167122696540e+00 -4.3619294296927137e+03 4.2000000000000000e+03 1.6336429733547568e+01 1.6561649850343994e+01 5.5565121621971549e+01 
640 242 2 1.0280150945972464e+00 2.9760958528411797e+03 4.2000000000000000e+03 1.5676084178773724e+01 1.5951228295772536e+01 5.5785224590556744e+01 
733 335 2 1.0279937682805529e+00 -1.4655684741358366e+03 4.2000000000000000e+03 1.6092779129764097e+01 1.4037486954194032e+01 5.5942657978323844e+01 
1547 1149 2 1.0279979491824141e+00 -4.3931391854486105e+02 4.2000000000000000e+03 1.8219783799854977e+01 1.5947688427735260e+01 5.5862785879137931e+01 
1681 1283 2 1.0280144601570689e+00 2.4225286682537967e+03 4.2000000000000000e+03 1.4722949070278062e+01 1.8415952836001320e+01 5.5874281098077574e+01 
898 500 2 1.0279721936657238e+00 -1.0487573347451198e+03 4.2000000000000000e+03 1.6039225000201775e+01 1.3626879266044932e+01 5.5979082750226382e+01 
1356 958 2 1.0279841270884926e+00 -1.0764869220486905e+02 4.2000000000000000e+03 1.7023964509249531e+01 1.4215349022988915e+01 5.5960196477584418e+01 
841 443 2 1.0280084765510156e+00 2.4226934756536543e+03 4.2000000000000000e+03 1.4686451244493350e+01 1.9425989048327693e+01 5.5890777520539608e+01 
1408 1010 2 1.0280286071359515e+00 -5.4819549757432396e+03 4.2000000000000000e+03 1.4778560525190075e+01 1.6941793023364596e+01 5.5984157531110974e+01 
1055 657 2 1.0280041460702645e+00 -1.1897294505379971e+03 4.2000000000000000e+03 1.6618058032684033e+01 1.3385462912477331e+01 5.5997090244215812e+01 
1820 1422 2 1.0280031455520979e+00 3.7990949443157797e+03 4.2000000000000000e+03 1.4735914837178484e+01 1.7368408918725471e+01 5.5959466297248639e+01 
1012 614 2 1.0280110965781575e+00 -4.5183391556917860e+02 4.2000000000000000e+03 1.4908002805880020e+01 1.4692219930986685e+01 5.6112531622776714e+01 
1252 854 2 1.0280228157225273e+00 -1.7199886571292541e+03 4.2000000000000000e+03 1.4463834615491042e+01 1.8261704416220404e+01 5.6071097426761121e+01 
1177 779 2 1.0280047548881148e+00 4.1748325751861776e+03 4.2000000000000000e+03 1.4600187159156130e+01 1.5697138081049058e+01 5.6192898645277324e+01 
1084 686 2 1.0280128990405957e+00 -1.7198047967529380e+03 4.2000000000000000e+03 1.4405339282757630e+01 1.9629995542242533e+01 5.6114019353410278e+01 
1807 1409 2 1.0280171434913508e+00 -9.0645992917589865e+02 4.2000000000000000e+03 1.4184439640448023e+01 1.6750134947595946e+01 5.6410690643855062e+01 
558 160 2 1.0280014083847984e+00 -1.0484919676288250e+03 4.2000000000000000e+03 1.4120445250247636e+01 1.7642140417006718e+01 5.6414527342227402e+01 
1501 1103 2 1.0280170151703936e+00 2.1950391145059845e+02 4.2000000000000000e+03 1.3958650901044372e+01 1.5160105137604788e+01 5.6595612553285761e+01 
571 173 2 1.0280610455000236e+00 -3.8363487034773625e+03 4.2000000000000000e+03 1.9038681861937906e+01 1.5798523796146442e+01 5.6801044587079183e+01 
1795 1397 2 1.0280472021569109e+00 -1.7164302159718636e+03 4.2000000000000000e+03 1.9435988881027800e+01 1.6643484457037193e+01 5.6951637325824407e+01 
1382 984 2 1.0280376767699015e+00 -3.2405026269387881e+03 4.2000000000000000e+03 1.7884992492197533e+01 1.9929344291792585e+01 5.7604779376304471e+01 
1910 1512 2 1.0280137614832952e+00 -1.4756814695223020e+03 4.2000000000000000e+03 1.8030899167164627e+01 1.4070141159575112e+01 5.7706454764785796e+01 
1191 793 2 1.0280016699763312e+00 -2.4604196250644663e+03 4.2000000000000000e+03 1.7475610959812972e+01 1.9499091434486296e+01 5.7745603887788477e+01 
1845 1447 2 1.0280277659999206e+00 2.6684305213662487e+03 4.2000000000000000e+03 1.2439324885749006e+01 5.9819751972847905e+00 6.5657960064844573e+01 
635 237 2 1.0280130450239899e+00 1.9912199137806344e+03 4.2000000000000000e+03 1.2120358150436150e+01 5.0755625218537421e+00 6.6500445038966276e+01 
820 422 2 1.0279759907926600e+00 4.1370925012861926e+03 4.2000000000000000e+03 1.3377859629552148e+01 4.2356598740751528e+00 6.4718591974898956e+01 
1386 988 2 1.0279682101569303e+00 -2.4130197887435247e+03 4.2000000000000000e+03 1.7942284323018800e+01 1.3991851956618733e+00 6.3718531808881202e+01 
1423 1025 2 1.0279788005936707e+00 -1.4369086602897635e+03 4.2000000000000000e+03 1.7481841956311676e+01 6.2283447263682072e+00 6.1492198904347021e+01 