LAMMPS data file via write_data, version 30 Jul 2016, timestep = 50000000

4620 atoms
8 atom types

0.0000000000000000e+00 1.0000000000000000e+02 xlo xhi
0.0000000000000000e+00 4.0000000000000000e+01 ylo yhi
0.0000000000000000e+00 4.0000000000000000e+01 zlo zhi

Masses

1 3.896
2 5.36
3 20.064
4 8.378
5 8.378
6 8.378
7 8.378
8 8.378

Atoms # meso-molecular

215 216 2 1.0843766380276505e+00 1.0425799662314397e+00 1.0000000000000000e+00 2.4518592879923338e+00 1.0000000000000000e+01 9.1016834068238084e-01 
235 236 2 1.0843766492610707e+00 1.8748743350175014e+00 1.0000000000000000e+00 6.7367527659168482e+00 1.0000000000000000e+01 2.5935350084706943e-01 
414 415 2 1.0843766380276505e+00 -8.9149801650745850e+00 1.0000000000000000e+00 8.9363003887214507e+00 1.0000000000000000e+01 6.3718067902007258e-01 
254 255 2 1.0843766380276505e+00 6.1300678068045613e+00 1.0000000000000000e+00 1.1202708620526735e+01 1.0000000000000000e+01 1.1874974658166801e-01 
81 82 2 1.0843766380276505e+00 -5.9527263862660789e+00 1.0000000000000000e+00 1.5814861479268398e+01 1.0000000000000000e+01 6.4915481893676019e-01 
155 156 2 1.0843766380276505e+00 -4.3556112103301619e+00 1.0000000000000000e+00 2.0636411367101090e+01 1.0000000000000000e+01 2.8434734459648059e-02 
441 442 2 1.0843766380276505e+00 3.9836622406574653e+00 1.0000000000000000e+00 2.6857551396708022e+01 1.0000000000000000e+01 8.1879280060085913e-01 
460 461 2 1.0843766380276505e+00 2.5074100755281030e+00 1.0000000000000000e+00 3.2142007230419175e+01 1.0000000000000000e+01 1.0636107161362065e+00 
677 678 2 1.0843766380276505e+00 1.0425799662314397e+00 1.0000000000000000e+00 2.4518592879923338e+00 1.2199999999999999e+01 9.1016834068238084e-01 
697 698 2 1.0843766492610707e+00 1.8748743350175014e+00 1.0000000000000000e+00 6.7367527659168482e+00 1.2199999999999999e+01 2.5935350084706943e-01 
876 877 2 1.0843766380276505e+00 -8.9149801650745850e+00 1.0000000000000000e+00 8.9363003887214507e+00 1.2199999999999999e+01 6.3718067902007258e-01 
716 717 2 1.0843766380276505e+00 6.1300678068045613e+00 1.0000000000000000e+00 1.1202708620526735e+01 1.2199999999999999e+01 1.1874974658166801e-01 
543 544 2 1.0843766380276505e+00 -5.9527263862660789e+00 1.0000000000000000e+00 1.5814861479268398e+01 1.2199999999999999e+01 6.4915481893676019e-01 
617 618 2 1.0843766380276505e+00 -4.3556112103301619e+00 1.0000000000000000e+00 2.0636411367101090e+01 1.2199999999999999e+01 2.8434734459648059e-02 
903 904 2 1.0843766380276505e+00 3.9836622406574653e+00 1.0000000000000000e+00 2.6857551396708022e+01 1.2199999999999999e+01 8.1879280060085913e-01 
922 923 2 1.0843766380276505e+00 2.5074100755281030e+00 1.0000000000000000e+00 3.2142007230419175e+01 1.2199999999999999e+01 1.0636107161362065e+00 
971 972 2 1.0843766380276505e+00 -1.1822894516816287e+01 1.0000000000000000e+00 3.7874322633806128e+00 1.4400000000000000e+01 6.8708227201287109e-01 
1020 1021 2 1.0843766380276505e+00 -2.7557098922956129e+00 1.0000000000000000e+00 2.3373097537311367e+01 1.4400000000000000e+01 1.2990288590755912e+00 
936 937 2 1.0843766380276505e+00 3.7006691973921120e+00 1.0000000000000000e+00 3.1713087794959872e+01 1.4400000000000000e+01 8.5937300073239087e-01 
1598 1599 2 1.0843766380276505e+00 -5.1130776063602901e-01 1.0000000000000000e+00 1.5320593254592274e+00 1.6600000000000001e+01 1.5256882263681346e+00 
1430 1431 2 1.0843766380276505e+00 -5.2929884686801660e+00 1.0000000000000000e+00 3.7519519809585162e+00 1.6600000000000001e+01 1.0938437988034488e+00 
1751 1752 2 1.0843766380276505e+00 7.0831745406815916e+00 1.0000000000000000e+00 8.1958977497655230e+00 1.6600000000000001e+01 6.6626061355780308e-01 
1526 1527 2 1.0843766380276505e+00 4.8913264003176398e+00 1.0000000000000000e+00 1.0724920344063266e+01 1.6600000000000001e+01 2.4324997446344743e-02 
1580 1581 2 1.0843766380276505e+00 -2.7372434114539761e+00 1.0000000000000000e+00 1.4088418797975645e+01 1.6600000000000001e+01 2.6666601019599234e-01 
1516 1517 2 1.0843766380276505e+00 -2.0357073939557173e+00 1.0000000000000000e+00 1.9092010377469997e+01 1.6600000000000001e+01 8.4191463958259360e-01 
1453 1454 2 1.0843766380276505e+00 -4.2103949950559230e+00 1.0000000000000000e+00 2.5129374120730265e+01 1.6600000000000001e+01 7.1572558756716675e-01 
1638 1639 2 1.0843766380276505e+00 1.7170165413583725e+01 1.0000000000000000e+00 3.1526780656553449e+01 1.6600000000000001e+01 1.2996119591813766e+00 
2170 2171 2 1.0843766380276505e+00 -3.8554370906539113e+00 1.0000000000000000e+00 6.9159277485408870e+00 1.8800000000000001e+01 6.5122895050855389e-01 
2280 2281 2 1.0843766380276505e+00 1.1042531409927218e+01 1.0000000000000000e+00 9.3839289598527031e+00 1.8800000000000001e+01 1.4166409170407095e+00 
2157 2158 2 1.0843766380276505e+00 -5.7536100011226434e+00 1.0000000000000000e+00 1.1642085998826960e+01 1.8800000000000001e+01 3.3277160245586407e-01 
2016 2017 2 1.0843766380276505e+00 1.2017598046598216e+01 1.0000000000000000e+00 1.4194827097898344e+01 1.8800000000000001e+01 1.4995841990433469e+00 
2179 2180 2 1.0843766380276505e+00 -7.6088958064660730e+00 1.0000000000000000e+00 1.6882028652866452e+01 1.8800000000000001e+01 6.2558221319070739e-01 
2050 2051 2 1.0843766380276505e+00 -2.3508862814630382e-01 1.0000000000000000e+00 2.4854076515119441e+01 1.8800000000000001e+01 5.5002734562422417e-01 
1890 1891 2 1.0843766380276505e+00 1.3880965888451481e+01 1.0000000000000000e+00 2.8048728968438656e+01 1.8800000000000001e+01 1.4173366861151686e+00 
1993 1994 2 1.0843766380276505e+00 -2.2223385597937702e+00 1.0000000000000000e+00 3.0495616938276115e+01 1.8800000000000001e+01 2.7800939106253320e-01 
186 187 2 1.0843766380276505e+00 -7.5969825169924405e+00 1.0000000000000000e+00 1.2863145774873564e+01 1.0000000000000000e+01 1.7755801070827735e+00 
153 154 2 1.0843766380276505e+00 -5.7103312017346450e+00 1.0000000000000000e+00 2.2867351951497707e+01 1.0000000000000000e+01 2.5286208169794633e+00 
419 420 2 1.0843766380276505e+00 -7.4790694812037195e+00 1.0000000000000000e+00 2.9450804444562344e+01 1.0000000000000000e+01 2.2374648933484114e+00 
648 649 2 1.0843766380276505e+00 -7.5969825169924405e+00 1.0000000000000000e+00 1.2863145774873564e+01 1.2199999999999999e+01 1.7755801070827735e+00 
615 616 2 1.0843766380276505e+00 -5.7103312017346450e+00 1.0000000000000000e+00 2.2867351951497707e+01 1.2199999999999999e+01 2.5286208169794633e+00 
881 882 2 1.0843766380276505e+00 -7.4790694812037195e+00 1.0000000000000000e+00 2.9450804444562344e+01 1.2199999999999999e+01 2.2374648933484114e+00 
1321 1322 2 1.0843767190785876e+00 -1.8530683432508577e+00 1.0000000000000000e+00 1.8061901338162138e+00 1.4400000000000000e+01 2.2694253663421713e+00 
1264 1265 2 1.0843766380276505e+00 -7.3101126304315489e+00 1.0000000000000000e+00 6.2491987418611474e+00 1.4400000000000000e+01 2.2713433186275109e+00 
1179 1180 2 1.0843766380276505e+00 9.1421418732591597e+00 1.0000000000000000e+00 1.0495301011411508e+01 1.4400000000000000e+01 2.1636222292505716e+00 
1125 1126 2 1.0843766380276505e+00 -8.6367462684361951e-01 1.0000000000000000e+00 1.4179037230015114e+01 1.4400000000000000e+01 2.9512020738279450e+00 
1073 1074 2 1.0843766380276505e+00 -9.3027940817595471e+00 1.0000000000000000e+00 1.8114076749684887e+01 1.4400000000000000e+01 1.6508958600510835e+00 
966 967 2 1.0843766451242129e+00 1.5255896704182700e+01 1.0000000000000000e+00 2.0962105081598207e+01 1.4400000000000000e+01 2.3503954692985056e+00 
1103 1104 2 1.0843766380276505e+00 -3.4747346800972156e+00 1.0000000000000000e+00 2.5578729800969974e+01 1.4400000000000000e+01 1.8895475285215579e+00 
1582 1583 2 1.0843766380276505e+00 -5.2125997492468308e+00 1.0000000000000000e+00 7.8907582840627359e+00 1.6600000000000001e+01 2.9507111729822988e+00 
1577 1578 2 1.0843766380276505e+00 -5.4958920430849805e+00 1.0000000000000000e+00 1.6844730776220516e+01 1.6600000000000001e+01 1.6528925846912779e+00 
1574 1575 2 1.0843766380276505e+00 -7.4980519742088987e+00 1.0000000000000000e+00 2.2514477740876732e+01 1.6600000000000001e+01 1.7969617040527304e+00 
1592 1593 2 1.0843766380276505e+00 2.2683035652903065e+00 1.0000000000000000e+00 2.6357331495219331e+01 1.6600000000000001e+01 2.9519579491700174e+00 
1502 1503 2 1.0843766380276505e+00 -4.7597973142199681e+00 1.0000000000000000e+00 2.8789298461642314e+01 1.6600000000000001e+01 2.5255410132374840e+00 
2299 2300 2 1.0843766380276505e+00 2.6422209227947144e+00 1.0000000000000000e+00 9.1135008066726175e-01 1.8800000000000001e+01 1.6439486364208178e+00 
2121 2122 2 1.0843766380276505e+00 -4.0439199057205677e+00 1.0000000000000000e+00 3.2134645352724447e+00 1.8800000000000001e+01 2.8591843527867389e+00 
2291 2292 2 1.0843766380276505e+00 4.6011799217564171e+00 1.0000000000000000e+00 1.9022947878713179e+01 1.8800000000000001e+01 2.6766991493737389e+00 
2149 2150 2 1.0843766380276505e+00 -2.1194623726078410e+00 1.0000000000000000e+00 2.1410565246327995e+01 1.8800000000000001e+01 2.7163803574724978e+00 
2108 2109 2 1.0843766380276505e+00 1.5377151048370341e-01 1.0000000000000000e+00 3.3060144535527087e+01 1.8800000000000001e+01 2.2893888744673525e+00 
434 435 2 1.0843766380276505e+00 4.5713074275995655e+00 1.0000000000000000e+00 1.7944751424838707e+00 1.0000000000000000e+01 3.6611845839354324e+00 
316 317 2 1.0843766380276505e+00 -8.4002884379936571e+00 1.0000000000000000e+00 4.1895543094602283e+00 1.0000000000000000e+01 3.5020526296916494e+00 
341 342 2 1.0843766380276505e+00 -5.8182088239050511e+00 1.0000000000000000e+00 7.0827210222336285e+00 1.0000000000000000e+01 4.0730419604299559e+00 
51 52 2 1.0843766380276505e+00 1.4388217708926314e+00 1.0000000000000000e+00 9.5280870292996784e+00 1.0000000000000000e+01 3.2442379519605713e+00 
458 459 2 1.0843766380276505e+00 2.9780592560883976e+00 1.0000000000000000e+00 1.1861920580749995e+01 1.0000000000000000e+01 4.4014095071296566e+00 
447 448 2 1.0843766380276505e+00 5.2976903618405462e+00 1.0000000000000000e+00 1.4164917888953193e+01 1.0000000000000000e+01 4.1895841238299836e+00 
27 28 2 1.0843766380276505e+00 8.9048418597467247e+00 1.0000000000000000e+00 1.6269065709568132e+01 1.0000000000000000e+01 3.3763564386977434e+00 
293 294 2 1.0843766380276505e+00 -2.2298926235770127e+00 1.0000000000000000e+00 1.8828412095315556e+01 1.0000000000000000e+01 4.0729256347485849e+00 
218 219 2 1.0843766380276505e+00 6.2611630056555008e+00 1.0000000000000000e+00 2.6001246461147385e+01 1.0000000000000000e+01 3.9665421409858874e+00 
58 59 2 1.0843766380276505e+00 -2.0196273032451875e+00 1.0000000000000000e+00 3.0572800873429784e+01 1.0000000000000000e+01 4.4206305510609685e+00 
110 111 2 1.0843766380276505e+00 1.9515706546514828e+00 1.0000000000000000e+00 3.3078761172960526e+01 1.0000000000000000e+01 3.4395111816517585e+00 
896 897 2 1.0843766380276505e+00 4.5713074275995655e+00 1.0000000000000000e+00 1.7944751424838707e+00 1.2199999999999999e+01 3.6611845839354324e+00 
778 779 2 1.0843766380276505e+00 -8.4002884379936571e+00 1.0000000000000000e+00 4.1895543094602283e+00 1.2199999999999999e+01 3.5020526296916494e+00 
803 804 2 1.0843766380276505e+00 -5.8182088239050511e+00 1.0000000000000000e+00 7.0827210222336285e+00 1.2199999999999999e+01 4.0730419604299559e+00 
513 514 2 1.0843766380276505e+00 1.4388217708926314e+00 1.0000000000000000e+00 9.5280870292996784e+00 1.2199999999999999e+01 3.2442379519605713e+00 
920 921 2 1.0843766380276505e+00 2.9780592560883976e+00 1.0000000000000000e+00 1.1861920580749995e+01 1.2199999999999999e+01 4.4014095071296566e+00 
909 910 2 1.0843766380276505e+00 5.2976903618405462e+00 1.0000000000000000e+00 1.4164917888953193e+01 1.2199999999999999e+01 4.1895841238299836e+00 
489 490 2 1.0843766380276505e+00 8.9048418597467247e+00 1.0000000000000000e+00 1.6269065709568132e+01 1.2199999999999999e+01 3.3763564386977434e+00 
755 756 2 1.0843766380276505e+00 -2.2298926235770127e+00 1.0000000000000000e+00 1.8828412095315556e+01 1.2199999999999999e+01 4.0729256347485849e+00 
680 681 2 1.0843766380276505e+00 6.2611630056555008e+00 1.0000000000000000e+00 2.6001246461147385e+01 1.2199999999999999e+01 3.9665421409858874e+00 
520 521 2 1.0843766380276505e+00 -2.0196273032451875e+00 1.0000000000000000e+00 3.0572800873429784e+01 1.2199999999999999e+01 4.4206305510609685e+00 
572 573 2 1.0843766380276505e+00 1.9515706546514828e+00 1.0000000000000000e+00 3.3078761172960526e+01 1.2199999999999999e+01 3.4395111816517585e+00 
1003 1004 2 1.0843767190785876e+00 -5.1162321212849813e+00 1.0000000000000000e+00 1.3403990821572240e+00 1.4400000000000000e+01 4.4006403691025966e+00 
1271 1272 2 1.0843766380276505e+00 7.3811619875682126e+00 1.0000000000000000e+00 3.5453606899592005e+00 1.4400000000000000e+01 3.7745292434697406e+00 
1272 1273 2 1.0843766380276505e+00 -6.2434239326675076e+00 1.0000000000000000e+00 8.3117177340390604e+00 1.4400000000000000e+01 4.0428251460942226e+00 
1210 1211 2 1.0843766380276505e+00 -1.8990533222624419e+00 1.0000000000000000e+00 1.8288584247156130e+01 1.4400000000000000e+01 4.1370604407689342e+00 
1004 1005 2 1.0843766451242129e+00 -5.8778549084901561e+00 1.0000000000000000e+00 2.1533907823669981e+01 1.4400000000000000e+01 4.4642748221790187e+00 
963 964 2 1.0843766380276505e+00 3.1159695726675674e+00 1.0000000000000000e+00 2.8191966281342427e+01 1.4400000000000000e+01 3.7638481880225552e+00 
1234 1235 2 1.0843766380276505e+00 -5.8718101476532070e+00 1.0000000000000000e+00 3.1539449860263829e+01 1.4400000000000000e+01 3.3091408310083894e+00 
1459 1460 2 1.0843766380276505e+00 -1.9189210860956307e+00 1.0000000000000000e+00 1.4912453465532605e+00 1.6600000000000001e+01 4.0228431624402345e+00 
1628 1629 2 1.0843766380276505e+00 8.8946208095247208e+00 1.0000000000000000e+00 3.6998779689786851e+00 1.6600000000000001e+01 4.2247624133720070e+00 
1477 1478 2 1.0843766380276505e+00 -8.8703414603438553e+00 1.0000000000000000e+00 1.0495860157135189e+01 1.6600000000000001e+01 3.5264613775974172e+00 
1433 1434 2 1.0843766380276505e+00 -7.6343349219939327e+00 1.0000000000000000e+00 1.8089195121972548e+01 1.6600000000000001e+01 3.5243065638013857e+00 
1528 1529 2 1.0843766380276505e+00 -6.9148185952905248e+00 1.0000000000000000e+00 2.0971063925608487e+01 1.6600000000000001e+01 3.4322508700871017e+00 
1464 1465 2 1.0843766380276505e+00 -2.9566513823631935e+00 1.0000000000000000e+00 3.3049238368613857e+01 1.6600000000000001e+01 3.9107791190640979e+00 
2022 2023 2 1.0843766380276505e+00 8.4155637773487086e+00 1.0000000000000000e+00 4.8119355358921965e+00 1.8800000000000001e+01 4.5972212806576147e+00 
1991 1992 2 1.0843766380276505e+00 -3.6619052582694431e+00 1.0000000000000000e+00 8.0722772445740816e+00 1.8800000000000001e+01 3.3549895590255980e+00 
2015 2016 2 1.0843766380276505e+00 -2.8987340699033819e+00 1.0000000000000000e+00 1.3613725800838614e+01 1.8800000000000001e+01 3.6693472450671627e+00 
2038 2039 2 1.0843766380276505e+00 -5.1765957969935474e+00 1.0000000000000000e+00 2.3525824814193733e+01 1.8800000000000001e+01 4.0288806439324807e+00 
2097 2098 2 1.0843766380276505e+00 4.8075809589196190e+00 1.0000000000000000e+00 2.6042498886402562e+01 1.8800000000000001e+01 4.4912359097391459e+00 
2085 2086 2 1.0843766380276505e+00 -2.8993384789539283e+00 1.0000000000000000e+00 3.0986299504129065e+01 1.8800000000000001e+01 3.3524599661572396e+00 
338 339 2 1.0843766380276505e+00 -7.3497531841577892e+00 1.0000000000000000e+00 2.5229739277976321e+01 1.0000000000000000e+01 6.1324911736053851e+00 
368 369 2 1.0843766380276505e+00 5.9035743314187372e-01 1.0000000000000000e+00 2.8008875679550879e+01 1.0000000000000000e+01 5.1571680660590919e+00 
800 801 2 1.0843766380276505e+00 -7.3497531841577892e+00 1.0000000000000000e+00 2.5229739277976321e+01 1.2199999999999999e+01 6.1324911736053851e+00 
830 831 2 1.0843766380276505e+00 5.9035743314187372e-01 1.0000000000000000e+00 2.8008875679550879e+01 1.2199999999999999e+01 5.1571680660590919e+00 
1159 1160 2 1.0843766380276505e+00 1.6020297112426354e+00 1.0000000000000000e+00 6.0217102155117077e+00 1.4400000000000000e+01 5.2143655625297356e+00 
1180 1181 2 1.0843766380276505e+00 -1.1873274984101670e-01 1.0000000000000000e+00 1.2738547504094095e+01 1.4400000000000000e+01 5.0182773625099903e+00 
1059 1060 2 1.0843766380276505e+00 -6.6497550268575392e+00 1.0000000000000000e+00 1.5116571957757014e+01 1.4400000000000000e+01 4.9454861839820241e+00 
1021 1022 2 1.0843766380276505e+00 -5.1196642152917393e-01 1.0000000000000000e+00 2.5249704826250834e+01 1.4400000000000000e+01 5.1988564633169378e+00 
1294 1295 2 1.0843766380276505e+00 -8.7323980032681980e-01 1.0000000000000000e+00 3.1570758780694145e+01 1.4400000000000000e+01 5.5211781403179927e+00 
1653 1654 2 1.0843769065990216e+00 -6.6426714750879894e+00 1.0000000000000000e+00 6.1050003068554206e+00 1.6600000000000001e+01 5.2754592028157363e+00 
1540 1541 2 1.0843769065990216e+00 -7.0822937211373871e+00 1.0000000000000000e+00 8.2776330848455686e+00 1.6600000000000001e+01 5.1681980496589182e+00 
1471 1472 2 1.0843766380276505e+00 -8.8961222399925011e-01 1.0000000000000000e+00 3.0161761237450456e+01 1.6600000000000001e+01 4.7846630484333010e+00 
2212 2213 2 1.0843766380276505e+00 2.0200362522414963e+00 1.0000000000000000e+00 9.2678266524951791e+00 1.8800000000000001e+01 5.2723547836850511e+00 
2220 2221 2 1.0843766380276505e+00 -8.0921081010412266e+00 1.0000000000000000e+00 1.6904055037868499e+01 1.8800000000000001e+01 5.3406292524910590e+00 
2259 2260 2 1.0843766380276505e+00 -7.1212539830190860e+00 1.0000000000000000e+00 2.0970159648111089e+01 1.8800000000000001e+01 5.4476411119824357e+00 
1859 1860 2 1.0843766380276505e+00 1.3734613099264705e+00 1.0000000000000000e+00 3.0184432158245823e+01 1.8800000000000001e+01 5.6066454481365948e+00 
445 446 2 1.0843766380276505e+00 8.0139985422852931e+00 1.0000000000000000e+00 3.8824145947733490e+00 1.0000000000000000e+01 6.3659444655512640e+00 
391 392 2 1.0843766380276505e+00 -4.5941894864267780e+00 1.0000000000000000e+00 8.1623225797347239e+00 1.0000000000000000e+01 6.1840844619490456e+00 
243 244 2 1.0843766380276505e+00 9.8730036700717483e-01 1.0000000000000000e+00 1.1196562175416517e+01 1.0000000000000000e+01 6.5268319752655302e+00 
250 251 2 1.0843766380276505e+00 9.6846272786023602e-01 1.0000000000000000e+00 1.5580201532262270e+01 1.0000000000000000e+01 7.6318884914563911e+00 
402 403 2 1.0843766380276505e+00 -5.8674909869116849e+00 1.0000000000000000e+00 1.7749290930410687e+01 1.0000000000000000e+01 7.1739259845854422e+00 
167 168 2 1.0843766380276505e+00 -5.0580076720849760e+00 1.0000000000000000e+00 1.9733333598108729e+01 1.0000000000000000e+01 6.2030470792211831e+00 
334 335 2 1.0843766380276505e+00 -2.2920374939943491e+00 1.0000000000000000e+00 2.8675899782774042e+01 1.0000000000000000e+01 7.6350984643423736e+00 
411 412 2 1.0843766380276505e+00 -3.7863602582412703e-01 1.0000000000000000e+00 3.1740141853142720e+01 1.0000000000000000e+01 7.1732841088589785e+00 
907 908 2 1.0843766380276505e+00 8.0139985422852931e+00 1.0000000000000000e+00 3.8824145947733490e+00 1.2199999999999999e+01 6.3659444655512640e+00 
853 854 2 1.0843766380276505e+00 -4.5941894864267780e+00 1.0000000000000000e+00 8.1623225797347239e+00 1.2199999999999999e+01 6.1840844619490456e+00 
705 706 2 1.0843766380276505e+00 9.8730036700717483e-01 1.0000000000000000e+00 1.1196562175416517e+01 1.2199999999999999e+01 6.5268319752655302e+00 
712 713 2 1.0843766380276505e+00 9.6846272786023602e-01 1.0000000000000000e+00 1.5580201532262270e+01 1.2199999999999999e+01 7.6318884914563911e+00 
864 865 2 1.0843766380276505e+00 -5.8674909869116849e+00 1.0000000000000000e+00 1.7749290930410687e+01 1.2199999999999999e+01 7.1739259845854422e+00 
629 630 2 1.0843766380276505e+00 -5.0580076720849760e+00 1.0000000000000000e+00 1.9733333598108729e+01 1.2199999999999999e+01 6.2030470792211831e+00 
796 797 2 1.0843766380276505e+00 -2.2920374939943491e+00 1.0000000000000000e+00 2.8675899782774042e+01 1.2199999999999999e+01 7.6350984643423736e+00 
873 874 2 1.0843766380276505e+00 -3.7863602582412703e-01 1.0000000000000000e+00 3.1740141853142720e+01 1.2199999999999999e+01 7.1732841088589785e+00 
964 965 2 1.0843766380276505e+00 1.4254817269734357e+00 1.0000000000000000e+00 3.6115875761576564e+00 1.4400000000000000e+01 7.5150438918242246e+00 
956 957 2 1.0843766380276505e+00 4.6423470932055615e+00 1.0000000000000000e+00 1.0588934842046932e+01 1.4400000000000000e+01 7.5941902881657617e+00 
1054 1055 2 1.0843766380276505e+00 -1.9338424110631873e+00 1.0000000000000000e+00 1.3068240726035379e+01 1.4400000000000000e+01 7.2648514535467648e+00 
1204 1205 2 1.0843766380276505e+00 -2.5210962989807371e+00 1.0000000000000000e+00 1.9400478364781915e+01 1.4400000000000000e+01 7.4218355117716515e+00 
1325 1326 2 1.0843766380276505e+00 -4.8808578729339780e-01 1.0000000000000000e+00 2.2069135423745042e+01 1.4400000000000000e+01 7.4131028749259480e+00 
1038 1039 2 1.0843766380276505e+00 -7.0724020272439354e+00 1.0000000000000000e+00 3.0112757674012752e+01 1.4400000000000000e+01 7.2031842959436982e+00 
1705 1706 2 1.0843766380276505e+00 -5.5666383609245997e+00 1.0000000000000000e+00 3.0080076378646736e+00 1.6600000000000001e+01 6.5868344900103271e+00 
1550 1551 2 1.0843766380276505e+00 -2.5340215542938243e+00 1.0000000000000000e+00 1.7833459173346576e+01 1.6600000000000001e+01 6.9060793562488128e+00 
1659 1660 2 1.0843766380276505e+00 -8.8739180221980369e+00 1.0000000000000000e+00 2.0652270412468727e+01 1.6600000000000001e+01 6.6154876462918226e+00 
1692 1693 2 1.0843766380276505e+00 2.6213473895123292e+00 1.0000000000000000e+00 3.1963902057476663e+01 1.6600000000000001e+01 6.4939807680355486e+00 
1928 1929 2 1.0843766380276505e+00 -3.8077753753358410e+00 1.0000000000000000e+00 1.4947349847489422e+00 1.8800000000000001e+01 6.2446739241450242e+00 
2189 2190 2 1.0843766380276505e+00 -3.1196343084425724e+00 1.0000000000000000e+00 6.0262018690397126e+00 1.8800000000000001e+01 6.4793467052747191e+00 
2152 2153 2 1.0843766380276505e+00 -2.7246175855633759e+00 1.0000000000000000e+00 1.2095931800444848e+01 1.8800000000000001e+01 6.2158167530489337e+00 
2274 2275 2 1.0843766380276505e+00 2.7260408755374925e+00 1.0000000000000000e+00 1.4558461767960152e+01 1.8800000000000001e+01 6.1860482570187454e+00 
1865 1866 2 1.0843766380276505e+00 1.6915614959766323e+01 1.0000000000000000e+00 2.5148195006266320e+01 1.8800000000000001e+01 7.4144739445381926e+00 
2209 2210 2 1.0843766380276505e+00 -6.1335300151531680e+00 1.0000000000000000e+00 2.8818274422659307e+01 1.8800000000000001e+01 7.3768036602989620e+00 
400 401 2 1.0843768631378929e+00 -3.6225433194303398e+00 1.0000000000000000e+00 4.0185836991822660e-01 1.0000000000000000e+01 7.9487260643741822e+00 
219 220 2 1.0843766380276505e+00 3.2294922331945939e+00 1.0000000000000000e+00 5.9201768575597775e+00 1.0000000000000000e+01 7.7697149379929824e+00 
324 325 2 1.0843766380276505e+00 1.3447329259851148e+01 1.0000000000000000e+00 8.9058009234544500e+00 1.0000000000000000e+01 9.0134000620755312e+00 
222 223 2 1.0843766380276505e+00 8.8638735186923228e+00 1.0000000000000000e+00 1.9737653596340262e+01 1.0000000000000000e+01 8.4828766768764066e+00 
433 434 2 1.0843766380276505e+00 2.3443991276286447e+00 1.0000000000000000e+00 2.3251065064853190e+01 1.0000000000000000e+01 8.5340338007458314e+00 
237 238 2 1.0843766380276505e+00 -3.1045545436557775e+00 1.0000000000000000e+00 2.5807221919777231e+01 1.0000000000000000e+01 8.5832752569591211e+00 
862 863 2 1.0843768631378929e+00 -3.6225433194303398e+00 1.0000000000000000e+00 4.0185836991822660e-01 1.2199999999999999e+01 7.9487260643741822e+00 
681 682 2 1.0843766380276505e+00 3.2294922331945939e+00 1.0000000000000000e+00 5.9201768575597775e+00 1.2199999999999999e+01 7.7697149379929824e+00 
786 787 2 1.0843766380276505e+00 1.3447329259851148e+01 1.0000000000000000e+00 8.9058009234544500e+00 1.2199999999999999e+01 9.0134000620755312e+00 
684 685 2 1.0843766380276505e+00 8.8638735186923228e+00 1.0000000000000000e+00 1.9737653596340262e+01 1.2199999999999999e+01 8.4828766768764066e+00 
895 896 2 1.0843766380276505e+00 2.3443991276286447e+00 1.0000000000000000e+00 2.3251065064853190e+01 1.2199999999999999e+01 8.5340338007458314e+00 
699 700 2 1.0843766380276505e+00 -3.1045545436557775e+00 1.0000000000000000e+00 2.5807221919777231e+01 1.2199999999999999e+01 8.5832752569591211e+00 
1242 1243 2 1.0843766380276505e+00 -2.8397494388988989e+00 1.0000000000000000e+00 1.4996710642692532e+00 1.4400000000000000e+01 8.4069008828445266e+00 
994 995 2 1.0843766380276505e+00 -1.7205238085353067e+00 1.0000000000000000e+00 7.6709343169351731e+00 1.4400000000000000e+01 8.8774747923429409e+00 
1173 1174 2 1.0843766380276505e+00 3.6034908017023053e+00 1.0000000000000000e+00 1.4643723441910110e+01 1.4400000000000000e+01 8.8140128860819633e+00 
1314 1315 2 1.0843766380276505e+00 1.0782375795306063e+01 1.0000000000000000e+00 1.6902232062880493e+01 1.4400000000000000e+01 8.7263784701434144e+00 
1140 1141 2 1.0843766380276505e+00 -1.4404869960441467e+00 1.0000000000000000e+00 2.4445612556334098e+01 1.4400000000000000e+01 7.7629568455647622e+00 
1119 1120 2 1.0843766380276505e+00 -4.3618007538392192e+00 1.0000000000000000e+00 2.6874850771168230e+01 1.4400000000000000e+01 8.0833184980932735e+00 
1084 1085 2 1.0843766380276505e+00 -1.0816986857960494e+01 1.0000000000000000e+00 3.1982903511236895e+01 1.4400000000000000e+01 8.6567428975329026e+00 
1669 1670 2 1.0843766380276505e+00 -2.4097961607795844e+00 1.0000000000000000e+00 9.5450315615788850e-01 1.6600000000000001e+01 7.8352513777343109e+00 
1624 1625 2 1.0843766471193255e+00 4.2499157510208256e+00 1.0000000000000000e+00 5.0115307332268548e+00 1.6600000000000001e+01 8.5335812143632328e+00 
1399 1400 2 1.0843766380276505e+00 6.5926919289494030e+00 1.0000000000000000e+00 7.9414310526237877e+00 1.6600000000000001e+01 8.1964553202081962e+00 
1469 1470 2 1.0843766380276505e+00 -7.5674526434063143e+00 1.0000000000000000e+00 1.0488791329281964e+01 1.6600000000000001e+01 8.2966342522434395e+00 
1554 1555 2 1.0843766380276505e+00 8.8413167636779981e+00 1.0000000000000000e+00 1.3011108994865456e+01 1.6600000000000001e+01 7.9728998144349603e+00 
1639 1640 2 1.0843766380276505e+00 1.2662823433011212e+01 1.0000000000000000e+00 1.5417227864160269e+01 1.6600000000000001e+01 7.9478770645088375e+00 
1593 1594 2 1.0843766380276505e+00 -2.2967675947945332e+00 1.0000000000000000e+00 1.7543763072233741e+01 1.6600000000000001e+01 9.1413384136290006e+00 
1421 1422 2 1.0843766380276505e+00 2.8899831502455315e+00 1.0000000000000000e+00 2.0440547932243405e+01 1.6600000000000001e+01 9.1554150247966337e+00 
1490 1491 2 1.0843766380276505e+00 -6.4207044387149015e+00 1.0000000000000000e+00 2.4375984875758729e+01 1.6600000000000001e+01 8.0460171276370858e+00 
1723 1724 2 1.0843766380276505e+00 6.5063180517304602e+00 1.0000000000000000e+00 2.7329405756631068e+01 1.6600000000000001e+01 8.7125986004033944e+00 
1689 1690 2 1.0843766380276505e+00 -6.0987003125689725e+00 1.0000000000000000e+00 2.9450422570824170e+01 1.6600000000000001e+01 8.0671379632365188e+00 
1910 1911 2 1.0843766380276505e+00 -2.4341998073170981e+00 1.0000000000000000e+00 2.2976541403711801e+00 1.8800000000000001e+01 8.6826622574240293e+00 
2289 2290 2 1.0843766380276505e+00 8.9809318463992440e+00 1.0000000000000000e+00 8.1287698821041889e+00 1.8800000000000001e+01 8.1633145249056831e+00 
1899 1900 2 1.0843766380276505e+00 4.0617258350826972e+00 1.0000000000000000e+00 1.0388122202537428e+01 1.8800000000000001e+01 8.1233322567415911e+00 
1902 1903 2 1.0843766380276505e+00 -3.5432621576723866e+00 1.0000000000000000e+00 1.6685355515085995e+01 1.8800000000000001e+01 7.8624716407198649e+00 
2237 2238 2 1.0843766380276505e+00 2.9730079066820183e+00 1.0000000000000000e+00 1.9568397841490739e+01 1.8800000000000001e+01 7.9358200772230987e+00 
2146 2147 2 1.0843766380276505e+00 -1.9769960349037090e+00 1.0000000000000000e+00 2.2846026906701614e+01 1.8800000000000001e+01 7.8655558147137414e+00 
236 237 2 1.0843768631378929e+00 -4.5985417361367560e+00 1.0000000000000000e+00 1.3905430221137316e+00 1.0000000000000000e+01 9.8874282020529769e+00 
148 149 2 1.0843766380276505e+00 -1.0104021394157254e+01 1.0000000000000000e+00 6.5216693757998954e+00 1.0000000000000000e+01 1.0237028589491400e+01 
256 257 2 1.0843766380276505e+00 3.0008523925374420e-01 1.0000000000000000e+00 1.4027279270035136e+01 1.0000000000000000e+01 1.0085021374378270e+01 
177 178 2 1.0843766380276505e+00 2.9509990700171187e+00 1.0000000000000000e+00 1.6756775730461495e+01 1.0000000000000000e+01 9.6049998294015175e+00 
330 331 2 1.0843766380276505e+00 -4.4247182440835591e+00 1.0000000000000000e+00 2.8128345672638719e+01 1.0000000000000000e+01 1.0605343136557542e+01 
4 5 2 1.0843766380276505e+00 5.5828127251042883e+00 1.0000000000000000e+00 3.1721049323340271e+01 1.0000000000000000e+01 9.8226054382996875e+00 
698 699 2 1.0843768631378929e+00 -4.5985417361367560e+00 1.0000000000000000e+00 1.3905430221137316e+00 1.2199999999999999e+01 9.8874282020529769e+00 
610 611 2 1.0843766380276505e+00 -1.0104021394157254e+01 1.0000000000000000e+00 6.5216693757998954e+00 1.2199999999999999e+01 1.0237028589491400e+01 
718 719 2 1.0843766380276505e+00 3.0008523925374420e-01 1.0000000000000000e+00 1.4027279270035136e+01 1.2199999999999999e+01 1.0085021374378270e+01 
639 640 2 1.0843766380276505e+00 2.9509990700171187e+00 1.0000000000000000e+00 1.6756775730461495e+01 1.2199999999999999e+01 9.6049998294015175e+00 
792 793 2 1.0843766380276505e+00 -4.4247182440835591e+00 1.0000000000000000e+00 2.8128345672638719e+01 1.2199999999999999e+01 1.0605343136557542e+01 
466 467 2 1.0843766380276505e+00 5.5828127251042883e+00 1.0000000000000000e+00 3.1721049323340271e+01 1.2199999999999999e+01 9.8226054382996875e+00 
1057 1058 2 1.0843766380276505e+00 -3.4755328417698728e+00 1.0000000000000000e+00 2.9261171804196726e+00 1.4400000000000000e+01 1.0419385314663581e+01 