LAMMPS data file via write_data, version 30 Jul 2016, timestep = 50000000

1520 atoms
8 atom types

0.0000000000000000e+00 4.0000000000000000e+01 xlo xhi
0.0000000000000000e+00 4.0000000000000000e+01 ylo yhi
0.0000000000000000e+00 1.0000000000000000e+02 zlo zhi

Masses

1 3.896
2 5.36
3 20.064
4 8.378
5 8.378
6 8.378
7 8.378
8 8.378

Atoms # meso-molecular

436 437 2 1.0279999999999980e+00 -5.3361454119040741e+02 1.0000000000000000e+00 7.2855589114084229e-01 3.5922844985099114e+00 1.4872520442770629e+00 
1365 1366 2 1.0279999999999987e+00 1.2226665997120922e+03 1.0000000000000000e+00 1.8004537822799904e+01 1.2189707151976906e+01 1.7724296582170038e+00 
1368 1369 2 1.0279999999999987e+00 1.2331244601094631e+03 1.0000000000000000e+00 1.8311650267274839e+01 1.2161827269473473e+01 2.8734644787649146e+00 
642 643 2 1.0279999999999878e+00 -1.3860835797548584e+03 1.0000000000000000e+00 9.1673380439581698e-01 1.3373721219919707e+01 2.4147315264511318e+00 
478 479 2 1.0280000000000000e+00 -6.2542960663201711e+02 1.0000000000000000e+00 1.0820512132439278e+01 1.0966533242386294e+01 4.4288742921174311e+00 
326 327 2 1.0280000000000000e+00 6.4060355699854687e-01 1.0000000000000000e+00 1.1429467217396077e+01 1.0034968517285920e+01 4.1667028121417040e+00 
820 821 2 1.0280000000000000e+00 1.0776865711496039e+03 1.0000000000000000e+00 1.2450121063259779e+01 4.0548744687498024e+00 6.0017734066428812e+00 
1112 1113 2 1.0280000000000000e+00 -6.4946519726069596e+02 1.0000000000000000e+00 1.3282717440106499e+01 3.7078082881371750e+00 5.2991345541763959e+00 
32 33 2 1.0280000000000002e+00 6.3233015676730008e+02 1.0000000000000000e+00 9.5056911150523877e+00 1.2598518529027562e+01 6.0041845845366915e+00 
906 907 2 1.0280000000000002e+00 -1.0244584016887322e+03 1.0000000000000000e+00 4.6019211757541747e+00 1.3224809903970254e+01 7.8290238080366787e+00 
902 903 2 1.0280000000000002e+00 -5.0077078929859772e+02 1.0000000000000000e+00 5.2754649893961822e+00 1.2642286827615344e+01 7.1118218740757255e+00 
27 28 2 1.0280000000000002e+00 -2.3066034882735443e+02 1.0000000000000000e+00 9.1969902744852448e+00 1.2000818471662900e+01 6.9287555390437854e+00 
21 22 2 1.0279999999999994e+00 2.5711990474200650e+02 1.0000000000000000e+00 1.5821912535266875e+01 1.3992808576900041e+01 7.6322232547803077e+00 
24 25 2 1.0279999999999994e+00 2.6366524500165218e+02 1.0000000000000000e+00 1.5540489384223353e+01 1.4114288819840759e+01 8.7337751501036927e+00 
396 397 2 1.0280000000000000e+00 -3.5891090363549529e+02 1.0000000000000000e+00 1.0071113416845735e+01 1.0000981975667189e+01 1.1636801114852579e+01 
379 380 2 1.0280000000000025e+00 -9.4527016103335018e+02 1.0000000000000000e+00 1.7610853805835706e+01 1.9777714796929277e-01 1.2721456261707127e+01 
1156 1157 2 1.0280000000000000e+00 -3.7138322284516551e+02 1.0000000000000000e+00 1.0238546186783525e+01 8.8956969139585169e+00 1.1876976503627857e+01 
832 833 2 1.0280000000000000e+00 1.4972429934887109e+03 1.0000000000000000e+00 1.6464757118866951e+00 8.8081177784173648e-01 1.4136286211286247e+01 
1147 1148 2 1.0280000000000000e+00 -5.4897442946505817e+02 1.0000000000000000e+00 1.6574963850128333e+00 1.9699718778458415e+00 1.4484110648009194e+01 
104 105 2 1.0279999849334707e+00 2.8031329636643068e+02 1.0000000000000000e+00 1.4824462010353252e+00 9.4743882306410150e+00 1.4913842752263811e+01 
108 109 2 1.0280000151337343e+00 -7.2842044598888378e+02 1.0000000000000000e+00 2.3334288044389400e+00 9.3785694452232118e+00 1.4155486326936630e+01 
1041 1042 2 1.0280000000000000e+00 4.2905247558234680e+02 1.0000000000000000e+00 1.2386113805977503e+01 1.0056545656759550e+01 1.4025693372993679e+01 
1013 1014 2 1.0280000000000000e+00 5.5572621567245835e+02 1.0000000000000000e+00 1.1837119242244185e+01 1.1033064510832832e+01 1.4254579620045371e+01 
233 234 2 1.0279999999873632e+00 4.6134709492289676e+02 1.0000000000000000e+00 4.1901150525454947e+00 1.1976822272560320e+01 1.4679209996773631e+01 
290 291 2 1.0279999999999996e+00 4.5878584440957763e+02 1.0000000000000000e+00 1.1564041748808039e+01 1.5155512384130169e+01 1.4674449457593683e+01 
130 131 2 1.0279999999999996e+00 -4.5083570516656016e+02 1.0000000000000000e+00 1.2380207178026611e+01 1.5866231729581839e+01 1.4305498212023274e+01 
232 233 2 1.0279999994247664e+00 4.6782562528897029e+02 1.0000000000000000e+00 2.8237309327869959e+00 1.1327414871385667e+01 1.5322112510568447e+01 
730 731 2 1.0280000000629390e+00 -2.3246066881017484e+02 1.0000000000000000e+00 4.9552835802254416e+00 1.0920723253516416e+01 1.5964440340874740e+01 
534 535 2 1.0280000002273326e+00 6.2206202733141640e+02 1.0000000000000000e+00 3.0804954049440161e+00 1.2769651386925801e+01 1.5064818602364394e+01 
729 730 2 1.0279999998556582e+00 9.7748231752720767e+02 1.0000000000000000e+00 4.9312793888258559e+00 1.2134607973620779e+01 1.6438995427525981e+01 
1208 1209 2 1.0280000000000000e+00 -1.5007293788776446e+03 1.0000000000000000e+00 1.0959195449672260e+01 4.8389273464951730e+00 1.6972422825718684e+01 
448 449 2 1.0280000000000000e+00 -1.5007372877350172e+03 1.0000000000000000e+00 1.0894165325945991e+01 5.9205518403620472e+00 1.7337433174522818e+01 
826 827 2 1.0280000021479092e+00 -1.7187386624558767e+03 1.0000000000000000e+00 7.1062498833950649e-01 1.0728273545341896e+01 1.7250557608548512e+01 
218 219 2 1.0280000016729116e+00 -5.9207223764558375e+02 1.0000000000000000e+00 3.1363349701202745e+00 1.1635239737723344e+01 1.6886529890288795e+01 
838 839 2 1.0279999973014076e+00 -1.8121198456075113e+03 1.0000000000000000e+00 2.4487331042385660e+00 1.0780739367563601e+01 1.7785767605225164e+01 
1033 1034 2 1.0279999997672444e+00 7.0635406201189573e+02 1.0000000000000000e+00 5.0044982419205644e+00 1.0298636231477719e+01 1.7656438642584536e+01 
1190 1191 2 1.0280000002375902e+00 -3.6142328093438323e+02 1.0000000000000000e+00 5.5360912896512353e+00 1.1354654899859266e+01 1.7964274200349763e+01 
1430 1431 2 1.0280000031932714e+00 2.4809109745376205e+02 1.0000000000000000e+00 1.7504346341174160e+00 1.2164592655955976e+01 1.8085526197691362e+01 
648 649 2 1.0279999961748447e+00 2.4864126980976036e+02 1.0000000000000000e+00 4.8644278782258843e-01 1.3439213628448691e+01 1.7637961557669314e+01 
241 242 2 1.0280000000000000e+00 5.0672671654961698e+02 1.0000000000000000e+00 1.0636761333049702e+01 8.3302391700431624e+00 1.9193268375346292e+01 
1352 1353 2 1.0279999827515243e+00 -9.5404186969028260e+01 1.0000000000000000e+00 8.1896961504870225e-01 9.6165709355495679e+00 1.9570818404171117e+01 
245 246 2 1.0280000000000000e+00 5.1574295455971969e+02 1.0000000000000000e+00 1.0238868148147350e+01 9.3985738562589294e+00 1.9281103613692085e+01 
82 83 2 1.0280000024854405e+00 4.1808570462839509e+02 1.0000000000000000e+00 9.2293268416241614e-01 1.1838819462824036e+01 1.9297676728491663e+01 
1422 1423 2 1.0280000000000071e+00 4.7087753448005435e+02 1.0000000000000000e+00 8.2876246006238876e+00 1.5423338819965142e+01 1.8788160995137353e+01 
1421 1422 2 1.0280000000000071e+00 4.1442962914949518e+01 1.0000000000000000e+00 8.4190955992972381e+00 1.6430545646636084e+01 1.9313158902060795e+01 
455 456 2 1.0279999999999951e+00 -1.4959383973084196e+03 1.0000000000000000e+00 1.9693929384146713e+01 1.8982397173007762e+01 1.9717952125386141e+01 
1353 1354 2 1.0279999999999974e+00 5.0648535304157349e+02 1.0000000000000000e+00 1.2273475602760501e+01 2.6140586042209661e+00 2.1524108669117616e+01 
1213 1214 2 1.0279999999999974e+00 4.4580824424065042e+02 1.0000000000000000e+00 1.2481779492397418e+01 3.3748221810872669e+00 2.0696327727603212e+01 
337 338 2 1.0280000046123985e+00 9.9641550218219479e+01 1.0000000000000000e+00 9.0062353675494800e-01 9.4279593344311809e+00 2.1448520616118202e+01 
1020 1021 2 1.0280000137170071e+00 1.3976216980988681e+03 1.0000000000000000e+00 1.8065090064427747e+00 1.0093841860660303e+01 2.0336735322340026e+01 
259 260 2 1.0280000080098817e+00 -8.0230677420089387e+02 1.0000000000000000e+00 5.1639247358442919e-01 1.3183438934704837e+01 2.0942717723961849e+01 
255 256 2 1.0280000071339794e+00 -6.5965172647680413e+02 1.0000000000000000e+00 3.0580732985301357e-01 1.1868681116685169e+01 2.1302957443976169e+01 
140 141 2 1.0279999999999951e+00 5.6633715149915747e+02 1.0000000000000000e+00 1.9732344900809835e+01 1.8161217932448039e+01 2.0512660826994487e+01 
695 696 2 1.0280000072063498e+00 -1.7837094232167940e+03 1.0000000000000000e+00 1.6513824657069562e-02 5.1508646792800112e+00 2.1741524080814013e+01 
1228 1229 2 1.0280000000000002e+00 -1.3656487030256295e+02 1.0000000000000000e+00 1.7335787925810102e+01 7.5589001964743838e+00 2.2959229219104596e+01 
1302 1303 2 1.0280000124069326e+00 -6.1430938790073640e+02 1.0000000000000000e+00 5.6817964067333004e-01 9.6090856038081256e+00 2.2915353375378146e+01 
317 318 2 1.0279999873435255e+00 2.1023623897574242e+02 1.0000000000000000e+00 1.3596272003015422e+00 1.1322412667193113e+01 2.2846003373756552e+01 
277 278 2 1.0279999463345488e+00 -2.2610079053925745e+01 1.0000000000000000e+00 2.0796925688579693e-01 1.8645708134211596e+01 2.2504952838148114e+01 
1137 1138 2 1.0279999999999996e+00 4.5795002251004071e+01 1.0000000000000000e+00 1.4690896514263780e+01 8.3920156289070069e-01 2.4792810710782465e+01 
1141 1142 2 1.0279999999999996e+00 6.6457507037719964e+01 1.0000000000000000e+00 1.3800538410980719e+01 1.3117981935457626e-01 2.4677308866394601e+01 
751 752 2 1.0279999999999920e+00 -5.0854312391429630e+02 1.0000000000000000e+00 5.5844700280451836e+00 1.8247033535826613e+00 2.3339845971821148e+01 
755 756 2 1.0279999999999920e+00 -1.0287769016032198e+03 1.0000000000000000e+00 5.5524457536530125e+00 1.9497760866924452e+00 2.4475937638343211e+01 
489 490 2 1.0280000000000000e+00 1.1088807683527264e+03 1.0000000000000000e+00 1.8023387085876589e+01 3.1053978593406604e+00 2.3734889085146808e+01 
329 330 2 1.0280000000000000e+00 5.8079079943613385e+02 1.0000000000000000e+00 1.7597059873433395e+01 2.0646974138660990e+00 2.3941191552844618e+01 
694 695 2 1.0280000071324387e+00 -1.7763160573377099e+03 1.0000000000000000e+00 7.4986262358232925e-01 8.0291988595192425e+00 2.3665436579917941e+01 
1451 1452 2 1.0280000000000002e+00 3.6251493722886687e+02 1.0000000000000000e+00 1.8337226140187791e+01 7.8116845791430496e+00 2.3449733628994647e+01 
238 239 2 1.0279999910269912e+00 -6.2879518803978488e+02 1.0000000000000000e+00 9.4525669852002736e-01 8.4502560683862367e+00 2.4918099805771849e+01 
758 759 2 1.0280000001349860e+00 2.6519580640963829e+02 1.0000000000000000e+00 8.2337019788777588e-01 1.0016675228416497e+01 2.4754367707156405e+01 
374 375 2 1.0280000000000000e+00 -5.5888182185915070e+02 1.0000000000000000e+00 7.6738021401919143e+00 1.0749695319078015e+01 2.3751817544892138e+01 
366 367 2 1.0280000000000000e+00 -1.8516350681320665e+02 1.0000000000000000e+00 8.7317895624974682e+00 1.1175962732861796e+01 2.3831389673480462e+01 
481 482 2 1.0280000001553666e+00 -7.3631847822237802e+01 1.0000000000000000e+00 1.3729124258566998e+00 1.2332338284404207e+01 2.3574902056552176e+01 
483 484 2 1.0280000000000000e+00 -1.2303382476612235e+02 1.0000000000000000e+00 9.8577872333553120e+00 1.4650662897397698e+01 2.4225133420958848e+01 
179 180 2 1.0280000000000000e+00 -4.2402647488709164e+02 1.0000000000000000e+00 1.0966443363802822e+01 1.4405966947937795e+01 2.4089566115911467e+01 
614 615 2 1.0280000016730357e+00 -1.0184186632888463e+03 1.0000000000000000e+00 9.3672142775182454e-01 5.3560396809040194e+00 2.5155623666266255e+01 
618 619 2 1.0279999983110462e+00 -5.0291695342393604e+02 1.0000000000000000e+00 1.8180266595831633e+00 5.7040796659440778e+00 2.5795578601812107e+01 
122 123 2 1.0279999925801833e+00 -1.4859816982806840e+03 1.0000000000000000e+00 8.3403976951029124e-01 1.1390010154021098e+01 2.5228720381949834e+01 
1214 1215 2 1.0280000025355218e+00 -1.4939379145430507e+03 1.0000000000000000e+00 2.6317486930258798e+00 1.1136167973347050e+01 2.5547667230073696e+01 
1505 1506 2 1.0280000007817380e+00 5.6438165066167335e+02 1.0000000000000000e+00 2.0121775923026650e+00 1.0897285071811037e+01 2.6554053005941672e+01 
885 886 2 1.0279999999999978e+00 1.4219399953801289e+03 1.0000000000000000e+00 1.9274926397756342e+01 1.5034793077309725e+01 2.5514449444329092e+01 
1034 1035 2 1.0279999999999978e+00 -5.5202789137446757e+02 1.0000000000000000e+00 1.8577177484583761e+01 1.5044466700974603e+01 2.6420223087481961e+01 
875 876 2 1.0280001305690953e+00 -1.3918333022283173e+03 1.0000000000000000e+00 2.3727204840688315e-01 1.9867091826775553e+01 2.5386146709744590e+01 
1254 1255 2 1.0280000051451605e+00 -6.8368073911305351e+02 1.0000000000000000e+00 2.2271896652321916e+00 1.4435617977933861e+00 2.6801466930940013e+01 
1257 1258 2 1.0279999964425008e+00 3.9486127826831910e+02 1.0000000000000000e+00 1.7929571010422487e+00 5.5302301504458340e-01 2.7549193186662674e+01 
1074 1075 2 1.0279999985923618e+00 4.8086508350063184e+02 1.0000000000000000e+00 5.5572487860493878e+00 8.7052139933159434e-01 2.7318212160140817e+01 
607 608 2 1.0279999989519950e+00 -5.4967312524517342e+02 1.0000000000000000e+00 7.4676387060467677e+00 6.5979704402399830e-01 2.7049460753537637e+01 
116 117 2 1.0280000009965904e+00 4.0864092967361029e+02 1.0000000000000000e+00 7.2639266551015629e+00 5.8448453265758082e-01 2.8207478265974711e+01 
1258 1259 2 1.0279999955131329e+00 -1.0131322261732686e+03 1.0000000000000000e+00 3.1531103947361792e+00 1.6840030944120199e+00 2.8262322935364143e+01 
962 963 2 1.0279999998704681e+00 4.5973751198421326e+02 1.0000000000000000e+00 4.4088536280624089e+00 1.8574437526695622e+00 2.7804625693390797e+01 
92 93 2 1.0279999871668459e+00 -1.7363672077295038e+02 1.0000000000000000e+00 1.5877439118087997e+00 4.0276019916975585e+00 2.7617959068691775e+01 
265 266 2 1.0279999999999951e+00 2.8807603259978276e+02 1.0000000000000000e+00 1.5420540961133833e+01 8.4403390013529549e+00 2.7837011190770145e+01 
843 844 2 1.0279999746664374e+00 -1.7813562015036007e+03 1.0000000000000000e+00 5.7318124431437978e-01 1.3602093894737592e+01 2.6789302667863577e+01 
1278 1279 2 1.0280000010812849e+00 -6.7583179873516553e+02 1.0000000000000000e+00 2.1243193937608420e+00 1.0336657359776018e+00 2.9771278174288934e+01 
89 90 2 1.0280000130088014e+00 -1.7416872887704099e+02 1.0000000000000000e+00 1.6046075980215824e+00 3.3602180435125106e+00 2.8599865225150815e+01 
353 354 2 1.0280000052337488e+00 5.5840702220013554e+02 1.0000000000000000e+00 1.0746038930473312e+00 4.9645178963827430e+00 2.9481112552061560e+01 
646 647 2 1.0279999814043133e+00 -1.3895943986356790e+03 1.0000000000000000e+00 4.3840564509029700e-01 5.3993775054513566e+00 2.8339272722825879e+01 
117 118 2 1.0280000000000000e+00 6.0587643723991641e+02 1.0000000000000000e+00 1.1793336395080988e+01 6.3608662230396362e+00 2.8693627705401081e+01 
565 566 2 1.0280000000000000e+00 1.2954753977573414e+03 1.0000000000000000e+00 1.2907737887445817e+01 6.1323135201176333e+00 2.8808718944254561e+01 
154 155 2 1.0279999771235673e+00 -3.3939858985389213e+02 1.0000000000000000e+00 9.6315783227196239e-01 6.8815221829927546e+00 2.9948667327130224e+01 
397 398 2 1.0279999999999951e+00 -1.1457888467247262e+01 1.0000000000000000e+00 1.5738729142335155e+01 7.9722215516754558e+00 2.8830487588129433e+01 
762 763 2 1.0279999894932730e+00 2.7460610336537741e+02 1.0000000000000000e+00 9.7856059174528032e-01 8.9980741897524759e+00 2.9618045468311280e+01 
167 168 2 1.0279999995733307e+00 4.5452605086833853e+02 1.0000000000000000e+00 4.1983283872372716e+00 9.7287325662638739e+00 2.9376983530915883e+01 
1240 1241 2 1.0279999736716692e+00 -1.2187401020463635e+02 1.0000000000000000e+00 5.2146290258691019e-01 1.4145402139177534e+01 2.8882719464526595e+01 
382 383 2 1.0280000000000076e+00 -9.7784050671983482e+02 1.0000000000000000e+00 5.2847387935390424e+00 1.4189561492668366e+01 2.9117592199826991e+01 
803 804 2 1.0279999977913987e+00 -1.1125926044341220e+03 1.0000000000000000e+00 2.8717244047344384e+00 6.5597651413440583e-01 3.1095053758572849e+01 
967 968 2 1.0280000516876449e+00 4.7609135123355128e+02 1.0000000000000000e+00 3.2276380174653556e+00 4.4888248050178614e+00 3.0837530391322563e+01 
157 158 2 1.0280000278313246e+00 -1.2390175789146097e+03 1.0000000000000000e+00 1.0378514651569291e+00 5.7589230778431455e+00 3.0929340053058592e+01 
1398 1399 2 1.0280000219765204e+00 -1.4884213987658206e+03 1.0000000000000000e+00 1.1827627079562793e-01 8.0199278912952252e+00 3.0421234515080066e+01 
166 167 2 1.0279999988118032e+00 4.6430025796305961e+02 1.0000000000000000e+00 1.8705351455282766e+00 7.3771756168572518e+00 3.1637739152708278e+01 
18 19 2 1.0280000046373359e+00 -2.0163021276933790e+01 1.0000000000000000e+00 2.0506463653155906e+00 9.6907058609708852e+00 3.0465480804714709e+01 
206 207 2 1.0279999973454632e+00 -4.3210008075389590e+02 1.0000000000000000e+00 2.9166443022171324e+00 8.7171477116647971e+00 3.1289030083247109e+01 
159 160 2 1.0279999992214508e+00 -7.0811076921789413e+02 1.0000000000000000e+00 4.9267870913195493e+00 9.9618017892992636e+00 3.0544209300613836e+01 
784 785 2 1.0280000023009637e+00 6.5131545868307501e+02 1.0000000000000000e+00 7.1613636861808494e-02 1.0065342205825131e+01 3.0593622851813155e+01 
1519 1520 2 1.0280000011632584e+00 2.4949583059796242e+02 1.0000000000000000e+00 1.2251557307258498e+00 1.0949458106442275e+01 3.1593122056921672e+01 
207 208 2 1.0280000013270858e+00 -4.4430371623977175e+02 1.0000000000000000e+00 3.6776423190963090e+00 1.0768415022889847e+01 3.0328604180350403e+01 
928 929 2 1.0279999744110411e+00 1.6226708345375550e+03 1.0000000000000000e+00 1.2994985490198936e+00 1.2544473922528551e+01 3.0426564312912873e+01 
472 473 2 1.0279999918971139e+00 1.6244116741412201e+03 1.0000000000000000e+00 2.8705908884153497e+00 1.2466831082639230e+01 3.0287576504835645e+01 
1321 1322 2 1.0280000217900207e+00 4.7170251515837771e+02 1.0000000000000000e+00 2.3414520397396457e+00 1.2613112146935645e+01 3.1569471176641237e+01 
754 755 2 1.0279999998426734e+00 -1.0336871191204946e+03 1.0000000000000000e+00 2.2578328102607537e-01 1.3881528460721249e+01 3.0174714771763337e+01 
383 384 2 1.0280000000000076e+00 -9.7812523377745629e+02 1.0000000000000000e+00 5.1574151900745351e+00 1.4142148755629707e+01 3.0252895573303007e+01 
527 528 2 1.0279999931694559e+00 4.9689304943720657e+02 1.0000000000000000e+00 1.3332227293806029e+00 1.0231315729982506e+00 3.1951672744340541e+01 
526 527 2 1.0280000000649070e+00 5.2776350271082401e+02 1.0000000000000000e+00 2.5619075583074471e+00 5.3529150170511697e-01 3.2565443303914677e+01 
898 899 2 1.0280000019466231e+00 -1.3609787121300708e+03 1.0000000000000000e+00 5.1596446640223697e+00 8.1599965857934598e-01 3.3262767339542570e+01 
149 150 2 1.0279999999999980e+00 -3.0934429456127020e+02 1.0000000000000000e+00 1.6276006992266282e+01 8.6960738574731244e-02 3.2578665188560024e+01 
14 15 2 1.0279999906368158e+00 4.2770212619870335e+02 1.0000000000000000e+00 2.7256622382786944e-01 2.1644418351370254e+00 3.2523233908207764e+01 
550 551 2 1.0280000089929833e+00 5.2481516604899775e+02 1.0000000000000000e+00 2.4136565415139226e+00 2.8315960564403344e+00 3.2240364826014556e+01 
551 552 2 1.0279999917151059e+00 5.1805736990055846e+02 1.0000000000000000e+00 2.1000773231868268e+00 3.1598029686989078e+00 3.3301393041511005e+01 
1344 1345 2 1.0280000000000005e+00 -2.4349710248245504e+01 1.0000000000000000e+00 1.8298912088232722e+01 2.7570078133700018e+00 3.2365009391504913e+01 
1347 1348 2 1.0280000000000005e+00 3.2497784803053435e+02 1.0000000000000000e+00 1.8508015966229472e+01 1.9313554765291616e+00 3.3127863771013033e+01 
1149 1150 2 1.0280000040665700e+00 -2.5589341558883910e+02 1.0000000000000000e+00 9.6815990811527738e-02 3.7364991200625264e+00 3.2146137487443582e+01 
815 816 2 1.0279999474275010e+00 -1.6616144756632671e+03 1.0000000000000000e+00 3.1316612733750846e+00 5.1824264756959630e+00 3.1742119515664054e+01 
158 159 2 1.0280000134649754e+00 -6.9990396694771255e+02 1.0000000000000000e+00 1.2449188608606736e+00 8.1868877005144984e+00 3.2460767906176116e+01 
38 39 2 1.0279999959726451e+00 4.0392687352405454e+02 1.0000000000000000e+00 2.4847408661799277e+00 9.6367564370079251e+00 3.2401517476755984e+01 
1234 1235 2 1.0279999978689049e+00 -4.9432220176677873e+02 1.0000000000000000e+00 9.0168231681292277e-01 1.0318506861284892e+01 3.3106112484825900e+01 
151 152 2 1.0280000182002735e+00 2.5382417431931245e+02 1.0000000000000000e+00 3.5738523183397536e-01 1.2158994920299959e+01 3.2231570226743763e+01 
1018 1019 2 1.0279999946555076e+00 -5.6379330977371819e+02 1.0000000000000000e+00 4.0417472476723617e+00 1.2676343925889737e+00 3.3822760187470259e+01 
1373 1374 2 1.0279999932833925e+00 4.1231562442176676e+02 1.0000000000000000e+00 5.7940042449869478e-01 6.1775436301255562e+00 3.4445766707053458e+01 
1017 1018 2 1.0280000059582786e+00 1.4090824315003185e+03 1.0000000000000000e+00 3.5455060291614937e-01 8.8988860442381554e+00 3.4035375753465871e+01 
1497 1498 2 1.0279999997407381e+00 1.7887253840628895e+02 1.0000000000000000e+00 1.8962172649194187e+00 9.2969375383210107e+00 3.3852702942438775e+01 
485 486 2 1.0279999986774095e+00 6.9989291822595044e+02 1.0000000000000000e+00 2.8000930220055356e+00 1.3195602075416115e+01 3.4674517885220382e+01 
708 709 2 1.0279999987396431e+00 1.3100750694472895e+03 1.0000000000000000e+00 2.3816986325668696e+00 1.1846902952692698e+01 3.4704935075069926e+01 
792 793 2 1.0280000349424414e+00 9.8331768895240270e+02 1.0000000000000000e+00 1.6406424801466009e+00 8.4358377590796385e-01 3.6098303286106990e+01 
791 792 2 1.0279999680244434e+00 -2.2049561514189864e+02 1.0000000000000000e+00 2.4156289896110543e+00 1.5185574749567556e+00 3.5430075822816974e+01 
376 377 2 1.0280000048639362e+00 7.1786367294970205e+01 1.0000000000000000e+00 5.1304580421816315e+00 1.1402775000313192e+00 3.5027556655141844e+01 
678 679 2 1.0280000034296481e+00 -1.7542137681023180e+03 1.0000000000000000e+00 1.0767665680212277e+00 3.2300509081124540e+00 3.5346272882202221e+01 
86 87 2 1.0279999946029679e+00 5.8786694925567154e+01 1.0000000000000000e+00 1.7807210563484739e+00 4.4248887241964638e+00 3.5001001609047449e+01 
221 222 2 1.0280000030595877e+00 4.6390591749298727e+02 1.0000000000000000e+00 2.0942045499813586e+00 4.0923992883403697e+00 3.6429234532271671e+01 
569 570 2 1.0279999932990165e+00 8.2409126520700249e+02 1.0000000000000000e+00 1.4016800385405948e+00 6.4412354663848275e+00 3.5758034401281428e+01 
94 95 2 1.0280000105259439e+00 3.1270741564952863e+02 1.0000000000000000e+00 3.2390553536184491e-01 5.6261961462196268e+00 3.5948689775158059e+01 
1274 1275 2 1.0280000051120035e+00 -7.1187200940252148e+02 1.0000000000000000e+00 1.5221698251502316e-01 9.3856927902774370e+00 3.5484958663078523e+01 
273 274 2 1.0279999976736676e+00 -4.2855475211795135e+02 1.0000000000000000e+00 1.3227687076323147e+00 1.0791978633659324e+01 3.5899450673057686e+01 
1303 1304 2 1.0279999998421938e+00 -6.3445420690106187e+02 1.0000000000000000e+00 7.8240240730764643e-01 1.2358680508898409e+01 3.5485377541623265e+01 
610 611 2 1.0280000018735111e+00 2.6332734067580884e+02 1.0000000000000000e+00 2.9343216506899652e+00 1.1855170269437725e+01 3.6249039492478438e+01 
1073 1074 2 1.0280000023892955e+00 -1.5012770989552164e+03 1.0000000000000000e+00 1.0039598255235094e+00 1.3958906865898697e+01 3.5049928612898015e+01 
62 63 2 1.0280000003059637e+00 2.3327030531513961e+02 1.0000000000000000e+00 3.2683699357019664e+00 1.3601164600233353e+01 3.6084964538371580e+01 
313 314 2 1.0279999973345582e+00 -1.4991521302971159e+03 1.0000000000000000e+00 5.4278168835605345e-01 1.5216685543589932e+01 3.5027318151006980e+01 
385 386 2 1.0279999995849218e+00 7.7278771403199622e+00 1.0000000000000000e+00 1.0270766226576162e+00 1.5685324635853062e+01 3.6519931382828929e+01 
1486 1487 2 1.0280000000000000e+00 -2.8470295822485980e+02 1.0000000000000000e+00 4.2665344879830434e+00 1.7910762389742196e+01 3.5479203431635838e+01 
1502 1503 2 1.0280000000000000e+00 -1.7084268004991102e+01 1.0000000000000000e+00 3.6455662574213523e+00 1.6951512576703433e+01 3.5519344062883007e+01 
1162 1163 2 1.0279999941086859e+00 9.2427886254425562e+02 1.0000000000000000e+00 2.3677910949939793e-02 1.4425038605031439e+00 3.8230904476861411e+01 
31 32 2 1.0279999923837129e+00 -1.4687877684967714e+03 1.0000000000000000e+00 7.9038773040562449e-01 3.1417837760439613e+00 3.7148353892385991e+01 
611 612 2 1.0280000021343021e+00 2.7661315978426165e+02 1.0000000000000000e+00 1.9933374400802502e+00 2.4956706427135815e+00 3.7015504806880216e+01 
919 920 2 1.0280000006180534e+00 4.9958080493911119e+01 1.0000000000000000e+00 1.3296450819451235e+00 5.7769908180632008e+00 3.7811534991958091e+01 
918 919 2 1.0279999961427211e+00 4.9810342835855309e+01 1.0000000000000000e+00 5.2700534921524600e-01 6.6907553112394158e+00 3.7661142719197159e+01 
731 732 2 1.0280000000000000e+00 -2.3354402539551415e+02 1.0000000000000000e+00 7.3153754362254491e+00 7.3312574178858796e+00 3.6840034046524224e+01 
732 733 2 1.0280000000000000e+00 9.7876053593799816e+02 1.0000000000000000e+00 8.0443257622445419e+00 8.2120492682954023e+00 3.6825537291453948e+01 
799 800 2 1.0280000000695344e+00 -1.3902588755713987e+03 1.0000000000000000e+00 3.3419690076492303e+00 9.1142655930296126e+00 3.6906191994827573e+01 
1116 1117 2 1.0279999999684033e+00 5.5785930150232855e+02 1.0000000000000000e+00 3.3482706892564167e+00 9.5028365107662829e+00 3.8026746011676593e+01 
274 275 2 1.0279999987734441e+00 -3.2833353311661324e+02 1.0000000000000000e+00 2.1174877244484382e+00 1.0571011873605169e+01 3.7035593376083362e+01 
229 230 2 1.0280000081329830e+00 4.6718877381085093e+02 1.0000000000000000e+00 7.0412177113543128e-01 1.1957131735509002e+01 3.7668390719620376e+01 
30 31 2 1.0280000016889208e+00 -1.4875397145365514e+03 1.0000000000000000e+00 2.0535873473534485e+00 1.2878719907410634e+01 3.7125534339509521e+01 
1142 1143 2 1.0279999994044262e+00 -9.7858280629436172e+02 1.0000000000000000e+00 2.6308804448022149e+00 1.4731014941431097e+01 3.7030799500572130e+01 
78 79 2 1.0279999999117524e+00 3.9142403046652373e+02 1.0000000000000000e+00 3.9489192608700802e-01 1.5305818190332987e+01 3.7851707101694331e+01 
1143 1144 2 1.0279999995085638e+00 -9.8580828462449529e+02 1.0000000000000000e+00 2.0247490022859198e+00 1.5604545040307430e+01 3.7948634923034859e+01 
828 829 2 1.0280000005082390e+00 1.4798972208892956e+03 1.0000000000000000e+00 1.9867838693203457e-01 1.7355433660719239e+01 3.7119939224586112e+01 
1129 1130 2 1.0279999999999925e+00 -2.2741297820541905e+02 1.0000000000000000e+00 3.2161843151610823e+00 1.9021995932973098e+01 3.8320907574334264e+01 
764 765 2 1.0280000077097176e+00 9.8340016543009270e+01 1.0000000000000000e+00 4.0707972297592709e-01 3.1850265251490781e+00 3.9413783290031937e+01 
441 442 2 1.0280000000000000e+00 2.2418406019832418e+02 1.0000000000000000e+00 1.9018197452748559e+01 8.0916355472836834e+00 3.9301712659852427e+01 
671 672 2 1.0279999970347076e+00 -1.7997511682624593e+03 1.0000000000000000e+00 5.8797904403092582e-01 1.3231083497377604e+01 3.8956002685532916e+01 
1404 1405 2 1.0280000024273577e+00 6.1058793258111609e+02 1.0000000000000000e+00 1.3779699414347228e+00 1.2215380251547382e+01 3.9795351862055512e+01 
956 957 2 1.0279999948400687e+00 1.1913097623385320e+03 1.0000000000000000e+00 2.1151604430212756e+00 1.1760173902870859e+01 3.8596181937239564e+01 
215 216 2 1.0280000022271867e+00 -6.6578182645507263e+02 1.0000000000000000e+00 2.0232338959887493e+00 1.3521139304863672e+01 3.8786700742505545e+01 
1504 1505 2 1.0279999998100298e+00 -4.0709065755355346e+02 1.0000000000000000e+00 4.4259377106249942e-01 1.7007217193442152e+01 3.8522161054560989e+01 
817 818 2 1.0279999999999925e+00 1.0916045598746514e+03 1.0000000000000000e+00 3.4974727670381540e+00 1.8206107537232320e+01 3.9070958205955165e+01 
1248 1249 2 1.0280000121598800e+00 -3.6015090974787489e+02 1.0000000000000000e+00 2.3021120898894160e-01 5.4665427611740736e-01 4.0250579532267899e+01 
1247 1248 2 1.0279999895394905e+00 -3.1854164731414005e+02 1.0000000000000000e+00 8.1551525928115631e-01 1.6364948170768967e+00 4.0178403921526382e+01 
868 869 2 1.0279999999999994e+00 1.0744430247163548e+03 1.0000000000000000e+00 4.0148468706331588e+00 6.1829677795627163e+00 4.0522286093730983e+01 
976 977 2 1.0279999999999994e+00 1.1940941485381124e+03 1.0000000000000000e+00 5.1085407540368095e+00 6.1371392086328385e+00 4.0852598747062203e+01 
1088 1089 2 1.0279999974562319e+00 -5.3770051330194178e+02 1.0000000000000000e+00 2.7739110175828858e+00 1.4426549354772540e+01 4.0448976270375134e+01 
1085 1086 2 1.0280000020726570e+00 -5.3661901741167890e+02 1.0000000000000000e+00 1.8038262425722384e+00 1.5002097631739508e+01 4.0173111753285191e+01 
336 337 2 1.0280000000000007e+00 -6.8377898566341719e+02 1.0000000000000000e+00 1.7064534307365829e+01 5.0811015377388169e-01 4.2798432745263369e+01 
491 492 2 1.0280000000000007e+00 1.3751262208394468e+02 1.0000000000000000e+00 1.6344369186225954e+01 1.0836615862819186e+00 4.3474802292397385e+01 
216 217 2 1.0279999999999985e+00 5.1559744879959635e+02 1.0000000000000000e+00 1.9629181949953082e+01 3.2427866005625294e-01 4.4947010984916268e+01 
1015 1016 2 1.0280000000000027e+00 4.8111404308679539e+02 1.0000000000000000e+00 1.6118297326849877e+00 1.4914952335389676e+01 4.3645335201583457e+01 
1207 1208 2 1.0280000000000027e+00 4.9066752199214068e+02 1.0000000000000000e+00 1.2800948007996147e+00 1.4125775942989101e+01 4.4403309854262126e+01 
1377 1378 2 1.0280000000000005e+00 -1.2777033272952949e+02 1.0000000000000000e+00 1.9363693920208554e+01 7.4553720761393434e+00 4.5101501015836561e+01 
867 868 2 1.0279999999999989e+00 -8.5937513163864662e+02 1.0000000000000000e+00 1.6845329577841316e+01 2.7555345590692037e+00 4.9192950027311937e+01 
1238 1239 2 1.0279999999999927e+00 3.1105375080773456e+02 1.0000000000000000e+00 8.9387244385526454e+00 4.4198159642922183e+00 4.8535040228673303e+01 