LAMMPS data file via write_data, version 30 Jul 2016, timestep = 50400000

1520 atoms
8 atom types

0.0000000000000000e+00 4.0000000000000000e+01 xlo xhi
0.0000000000000000e+00 4.0000000000000000e+01 ylo yhi
0.0000000000000000e+00 1.0000000000000000e+02 zlo zhi

Masses

1 3.896
2 5.36
3 20.064
4 8.378
5 8.378
6 8.378
7 8.378
8 8.378

Atoms # meso-molecular

1365 1366 2 1.0280000000000000e+00 1.2226665997120922e+03 1.0000000000000000e+00 1.8196068567841650e+01 1.2744519170526361e+01 5.3994064009744720e-02 
1368 1369 2 1.0280000000000000e+00 1.2331244601094631e+03 1.0000000000000000e+00 1.8503181012316585e+01 1.2716639288022929e+01 1.1550288845576533e+00 
642 643 2 1.0280000000000002e+00 -1.3860835797548584e+03 1.0000000000000000e+00 1.2774827442984427e+00 1.3621549722528334e+01 1.4514646964688657e-01 
657 658 2 1.0280000000000002e+00 1.2526707541716974e+03 1.0000000000000000e+00 1.4657224592049961e-01 1.3781477893096724e+01 1.9841411813957091e-01 
326 327 2 1.0280000000000000e+00 6.4067030166040073e-01 1.0000000000000000e+00 1.0931800761275385e+01 9.3336592468408277e+00 2.5242951312809474e+00 
478 479 2 1.0280000000000000e+00 -6.2542929659826336e+02 1.0000000000000000e+00 1.0322731507111392e+01 1.0267390279374938e+01 2.7783699627256273e+00 
1112 1113 2 1.0279999999999996e+00 -6.4946519726069596e+02 1.0000000000000000e+00 1.2329489404223896e+01 4.6920446485139857e+00 4.2141462705271140e+00 
820 821 2 1.0279999999999996e+00 1.0776865711496039e+03 1.0000000000000000e+00 1.1496893027377176e+01 5.0391108290738780e+00 4.9167851230196487e+00 
902 903 2 1.0280000000000000e+00 -5.0077078929859772e+02 1.0000000000000000e+00 5.4225193261038793e+00 1.2864753164523044e+01 4.6266724720229533e+00 
32 33 2 1.0279999999999994e+00 6.3233080276154408e+02 1.0000000000000000e+00 9.1289745899926338e+00 1.2765189892635766e+01 4.4872978095377754e+00 
27 28 2 1.0279999999999994e+00 -2.3065994612212609e+02 1.0000000000000000e+00 8.8289954422084431e+00 1.2150933400483620e+01 5.4038535853650593e+00 
906 907 2 1.0280000000000000e+00 -1.0244584016887322e+03 1.0000000000000000e+00 4.7489755124618718e+00 1.3447276240877954e+01 5.3438744059839074e+00 
21 22 2 1.0279999999999978e+00 2.5711990474200650e+02 1.0000000000000000e+00 1.6427022347625876e+01 1.5065853130023777e+01 5.6902514285205541e+00 
24 25 2 1.0279999999999978e+00 2.6366524500165218e+02 1.0000000000000000e+00 1.6145599196251894e+01 1.5187333372964495e+01 6.7918033237595168e+00 
379 380 2 1.0280000000000022e+00 -9.4527016103335018e+02 1.0000000000000000e+00 1.7175754912743361e+01 4.3681979901068750e-02 1.0474812160107183e+01 
1156 1157 2 1.0279999999999974e+00 -3.7138322284516551e+02 1.0000000000000000e+00 9.9932644675812856e+00 7.8757194468452125e+00 1.0523672359622326e+01 
396 397 2 1.0279999999999974e+00 -3.5891090363549529e+02 1.0000000000000000e+00 9.8258316976434958e+00 8.9810045085547827e+00 1.0283496970851157e+01 
1041 1042 2 1.0280000000000002e+00 4.2905247558234680e+02 1.0000000000000000e+00 1.2589407279055296e+01 9.2924172567380587e+00 1.1597808518783047e+01 
832 833 2 1.0280000000000005e+00 1.4972429934887109e+03 1.0000000000000000e+00 1.1862248490429588e+00 6.9587599764085284e-01 1.2014567256173267e+01 
1147 1148 2 1.0280000000000005e+00 -5.4897442946505817e+02 1.0000000000000000e+00 1.1972455221690970e+00 1.7850360976449959e+00 1.2362391692896091e+01 
104 105 2 1.0279999883530391e+00 2.8031329636643068e+02 1.0000000000000000e+00 1.5802631499905198e+00 9.4245801322753113e+00 1.2908782181877863e+01 
108 109 2 1.0280000116884989e+00 -7.2842044598888378e+02 1.0000000000000000e+00 2.4312289504772724e+00 9.3287193290639383e+00 1.2150405589341606e+01 
232 233 2 1.0279999993476074e+00 4.6782562528897029e+02 1.0000000000000000e+00 2.9216572657176818e+00 1.1276984879567605e+01 1.3317107309111698e+01 
1013 1014 2 1.0280000000000002e+00 5.5572621567245835e+02 1.0000000000000000e+00 1.2040412715321978e+01 1.0268936110811341e+01 1.1826694765834738e+01 
534 535 2 1.0280000002893730e+00 6.2206202733141640e+02 1.0000000000000000e+00 3.1783836073314733e+00 1.2719209181728804e+01 1.3059830559239902e+01 
233 234 2 1.0280000000219183e+00 4.6134709492289676e+02 1.0000000000000000e+00 4.2880144408805272e+00 1.1926370944289328e+01 1.2674237797234500e+01 
290 291 2 1.0280000000000020e+00 4.5878584440957763e+02 1.0000000000000000e+00 1.1224829895890332e+01 1.5358016287435536e+01 1.2635293106791996e+01 
130 131 2 1.0280000000000020e+00 -4.5083570516656016e+02 1.0000000000000000e+00 1.2040995325108868e+01 1.6068735632891435e+01 1.2266341861229670e+01 
1208 1209 2 1.0280000000000000e+00 -1.5007293788776446e+03 1.0000000000000000e+00 1.1338434915458700e+01 4.8292682846781263e+00 1.4527343726615221e+01 
448 449 2 1.0280000000000000e+00 -1.5007372877350172e+03 1.0000000000000000e+00 1.1273404791732432e+01 5.9108927785450005e+00 1.4892354075419355e+01 
218 219 2 1.0280000014078430e+00 -5.9207223764558375e+02 1.0000000000000000e+00 3.2343549619743261e+00 1.1584711104929024e+01 1.4881612530136762e+01 
730 731 2 1.0279999998936582e+00 -2.3246066881017484e+02 1.0000000000000000e+00 5.0532280243277583e+00 1.0870292277214830e+01 1.3959486160925410e+01 
729 730 2 1.0280000000526108e+00 9.7748231752720767e+02 1.0000000000000000e+00 5.0292453175342002e+00 1.2084176003381449e+01 1.4434036501101872e+01 
826 827 2 1.0280000021248539e+00 -1.7187386624558767e+03 1.0000000000000000e+00 8.0863962218461349e-01 1.0677434604272216e+01 1.5246026949280186e+01 
838 839 2 1.0279999976964320e+00 -1.8121198456075113e+03 1.0000000000000000e+00 2.5468088300510701e+00 1.0730219497706702e+01 1.5780853467555728e+01 
1033 1034 2 1.0279999998735381e+00 7.0635406201189573e+02 1.0000000000000000e+00 5.1024153570302211e+00 1.0248230365610477e+01 1.5651492895518750e+01 
1190 1191 2 1.0280000001420060e+00 -3.6142328093438323e+02 1.0000000000000000e+00 5.6340121171864288e+00 1.1304246469811515e+01 1.5959336543833015e+01 
1430 1431 2 1.0280000026056728e+00 2.4809109747649941e+02 1.0000000000000000e+00 1.8485655916455785e+00 1.2114189250494986e+01 1.6080543213614817e+01 
648 649 2 1.0279999967344979e+00 2.4864126983249773e+02 1.0000000000000000e+00 5.8408197985773569e-01 1.3388430573093380e+01 1.5633429087120142e+01 
1352 1353 2 1.0279999837378078e+00 -9.5404186320494802e+01 1.0000000000000000e+00 9.1986223890959007e-01 9.5668728581908589e+00 1.7564723527902355e+01 
241 242 2 1.0280000000000000e+00 5.0672671654961698e+02 1.0000000000000000e+00 1.1402991377085566e+01 8.3958837805017108e+00 1.6939388808339054e+01 
245 246 2 1.0280000000000000e+00 5.1574295455971969e+02 1.0000000000000000e+00 1.1005098192183215e+01 9.4642184667174778e+00 1.7027224046684854e+01 
1020 1021 2 1.0280000129950537e+00 1.3976216985822552e+03 1.0000000000000000e+00 1.9086548488987340e+00 1.0044155774887439e+01 1.8329456060019719e+01 
82 83 2 1.0280000024229756e+00 4.1808570488318327e+02 1.0000000000000000e+00 1.0211076158042953e+00 1.1788292083329623e+01 1.7292610364057122e+01 
1422 1423 2 1.0279999999999931e+00 4.7087753448005435e+02 1.0000000000000000e+00 8.8067145449857822e+00 1.5083350895928920e+01 1.7305927857064432e+01 
1421 1422 2 1.0279999999999931e+00 4.1442962914949518e+01 1.0000000000000000e+00 8.9381855436591326e+00 1.6090557722659629e+01 1.7830925763873267e+01 
455 456 2 1.0279999999999927e+00 -1.4959383973084196e+03 1.0000000000000000e+00 1.9148763557353732e+01 1.9117407436598846e+01 1.7659611995976356e+01 
1213 1214 2 1.0280000000000016e+00 4.4580824424065042e+02 1.0000000000000000e+00 1.2577250469299297e+01 2.9099918687128357e+00 1.8576429525420785e+01 
1353 1354 2 1.0280000000000016e+00 5.0648535304157349e+02 1.0000000000000000e+00 1.2368946579662380e+01 2.1492282918465349e+00 1.9404210466935179e+01 
695 696 2 1.0280000067617021e+00 -1.7837094230562102e+03 1.0000000000000000e+00 1.3238321964674671e-01 5.0984804744172711e+00 1.9733285722331615e+01 
337 338 2 1.0280000042497948e+00 9.9641551691896197e+01 1.0000000000000000e+00 1.0039761988746154e+00 9.3777066666996465e+00 1.9441384043171201e+01 
259 260 2 1.0280000074688613e+00 -8.0230677372080675e+02 1.0000000000000000e+00 6.1386811737239821e-01 1.3135033362504387e+01 1.8937134840807850e+01 
255 256 2 1.0280000064551944e+00 -6.5965172484343964e+02 1.0000000000000000e+00 4.0447477531092568e-01 1.1819395538961365e+01 1.9296257358554332e+01 
140 141 2 1.0279999999999927e+00 5.6633715149915747e+02 1.0000000000000000e+00 1.9187179074016854e+01 1.8296228196039124e+01 1.8454320697584709e+01 
751 752 2 1.0280000000000016e+00 -5.0854312391429630e+02 1.0000000000000000e+00 5.5368941083080419e+00 1.5527207849378595e+00 2.1276267582496203e+01 
489 490 2 1.0279999999999996e+00 1.1088807683527264e+03 1.0000000000000000e+00 1.8432460323382752e+01 3.1618674700171789e+00 2.1517056255583540e+01 
694 695 2 1.0280000062637324e+00 -1.7763160560355934e+03 1.0000000000000000e+00 8.6158867679054707e-01 7.9785436528577298e+00 2.1658973132867882e+01 
1228 1229 2 1.0280000000000002e+00 -1.3656487030256295e+02 1.0000000000000000e+00 1.7791243608223333e+01 7.4625788860799966e+00 2.0857180489253999e+01 
1451 1452 2 1.0280000000000002e+00 3.6251493722886687e+02 1.0000000000000000e+00 1.8792681822601022e+01 7.7153632687486624e+00 2.1347684899144049e+01 
1302 1303 2 1.0280000116597017e+00 -6.1430938572325783e+02 1.0000000000000000e+00 6.7568467040073210e-01 9.5594313689045141e+00 2.0908543640528581e+01 
317 318 2 1.0279999873667369e+00 2.1023624042996602e+02 1.0000000000000000e+00 1.4642816013085675e+00 1.1273821432182118e+01 2.0838229623721649e+01 
481 482 2 1.0280000009259089e+00 -7.3631846959133483e+01 1.0000000000000000e+00 1.4788498932867833e+00 1.2282902948023448e+01 2.1566073355753797e+01 
277 278 2 1.0279999590316438e+00 -2.2610065950575290e+01 1.0000000000000000e+00 2.3538123853094059e-01 1.8600990340778313e+01 2.0513011277453870e+01 
755 756 2 1.0280000000000016e+00 -1.0287769016032198e+03 1.0000000000000000e+00 5.5048698339158708e+00 1.6777935180476433e+00 2.2412359249018248e+01 
329 330 2 1.0279999999999996e+00 5.8079079943613385e+02 1.0000000000000000e+00 1.8006133110939558e+01 2.1211670245426157e+00 2.1723358723281343e+01 
614 615 2 1.0280000000001497e+00 -1.0184186632888463e+03 1.0000000000000000e+00 1.0919929871616045e+00 5.3142482131348814e+00 2.3140823328423064e+01 
758 759 2 1.0279999994626150e+00 2.6519580668598400e+02 1.0000000000000000e+00 9.3290415060094956e-01 9.9667789468597174e+00 2.2747891545709400e+01 
238 239 2 1.0279999921892222e+00 -6.2879518784838797e+02 1.0000000000000000e+00 1.0560245206433634e+00 8.4003643854269558e+00 2.2911462074457596e+01 
122 123 2 1.0279999936202950e+00 -1.4859816977349872e+03 1.0000000000000000e+00 9.4314422969555789e-01 1.1340088402272979e+01 2.3221151780312177e+01 
374 375 2 1.0280000000000000e+00 -5.5888182185915070e+02 1.0000000000000000e+00 7.9556692785327998e+00 1.0747635371843003e+01 2.1908989512732205e+01 
366 367 2 1.0280000000000000e+00 -1.8516350681320665e+02 1.0000000000000000e+00 9.0136567008383537e+00 1.1173902785626785e+01 2.1988561641320523e+01 
179 180 2 1.0280000000000000e+00 -4.2402647488709164e+02 1.0000000000000000e+00 1.1357438043635879e+01 1.3851659302464977e+01 2.1934630267171055e+01 
483 484 2 1.0280000000000000e+00 -1.2303382476612235e+02 1.0000000000000000e+00 1.0248781913188369e+01 1.4096355251924880e+01 2.2070197572218436e+01 
1254 1255 2 1.0280000042336925e+00 -6.8368073911305351e+02 1.0000000000000000e+00 2.3992181674499258e+00 1.3913495296846292e+00 2.4793149313057260e+01 
1137 1138 2 1.0280000000000000e+00 4.5795002251004071e+01 1.0000000000000000e+00 1.4621538203169333e+01 1.3284320283089979e+00 2.4408582504698032e+01 
1141 1142 2 1.0280000000000000e+00 6.6457507037719964e+01 1.0000000000000000e+00 1.3731180099886272e+01 6.2041028477309990e-01 2.4293080660308789e+01 
618 619 2 1.0279999999998146e+00 -5.0291695342393604e+02 1.0000000000000000e+00 1.9732984326275771e+00 5.6622880541964751e+00 2.3780778012979226e+01 
1214 1215 2 1.0280000022735500e+00 -1.4939379145430507e+03 1.0000000000000000e+00 2.7402689373366105e+00 1.1086485931362949e+01 2.3539678413720132e+01 
1505 1506 2 1.0280000006647352e+00 5.6438165066167335e+02 1.0000000000000000e+00 2.1205294311349920e+00 1.0847559365193753e+01 2.4546244064803645e+01 
843 844 2 1.0279999765370309e+00 -1.7813561958681737e+03 1.0000000000000000e+00 6.9146463298439609e-01 1.3552538097902977e+01 2.4779504539543865e+01 
885 886 2 1.0279999999999991e+00 1.4219399953801289e+03 1.0000000000000000e+00 1.9467083200581481e+01 1.4806380589807898e+01 2.3386783815958847e+01 
1034 1035 2 1.0279999999999991e+00 -5.5202789137446757e+02 1.0000000000000000e+00 1.8769334287408899e+01 1.4816054213472775e+01 2.4292557459111713e+01 
875 876 2 1.0280001294964802e+00 -1.3918333017703947e+03 1.0000000000000000e+00 2.5728668822771084e-01 1.9827728849110738e+01 2.3391506623374667e+01 
1257 1258 2 1.0279999971030021e+00 3.9486127826831910e+02 1.0000000000000000e+00 1.9650495421515222e+00 5.0075286540915143e-01 2.5541023215860271e+01 
1258 1259 2 1.0279999962886084e+00 -1.0131322247915987e+03 1.0000000000000000e+00 3.3246889543092242e+00 1.6315823187845548e+00 2.6254032851244414e+01 
1074 1075 2 1.0279999987400565e+00 4.8086508350063184e+02 1.0000000000000000e+00 5.7292490794028854e+00 8.1842750972995149e-01 2.5310056123569748e+01 
607 608 2 1.0279999991798137e+00 -5.4967312524517342e+02 1.0000000000000000e+00 7.6397314798612754e+00 6.0782296318979079e-01 2.5041293713585482e+01 
116 117 2 1.0280000007707626e+00 4.0864092967361029e+02 1.0000000000000000e+00 7.4360538345710081e+00 5.3251021941780430e-01 2.6199299560766907e+01 
89 90 2 1.0280000149129860e+00 -1.7416872726090816e+02 1.0000000000000000e+00 1.7484816620472285e+00 3.3074673085626172e+00 2.6591754940486076e+01 
962 963 2 1.0280000000045892e+00 4.5973751198421326e+02 1.0000000000000000e+00 4.5804466430050139e+00 1.8050981672621558e+00 2.5796464275650468e+01 
92 93 2 1.0279999857504101e+00 -1.7363672046300934e+02 1.0000000000000000e+00 1.7307220811973778e+00 3.9755081447357137e+00 2.5610317970970250e+01 
646 647 2 1.0279999834900075e+00 -1.3895943937135605e+03 1.0000000000000000e+00 5.7950350804393136e-01 5.3463475820118784e+00 2.6332161102984212e+01 
265 266 2 1.0280000000000040e+00 2.8807603259978276e+02 1.0000000000000000e+00 1.5418172395345886e+01 8.1268167975987087e+00 2.5998667772974596e+01 
1278 1279 2 1.0280000014042521e+00 -6.7583179864421606e+02 1.0000000000000000e+00 2.2955188949315861e+00 9.8145327357888446e-01 2.7763169242373063e+01 
353 354 2 1.0280000039610344e+00 5.5840702576132730e+02 1.0000000000000000e+00 1.2193450996561550e+00 4.9115658966855520e+00 2.7472011738563250e+01 
117 118 2 1.0280000000000000e+00 6.0587643723991641e+02 1.0000000000000000e+00 1.2112364228565131e+01 6.1826291950583823e+00 2.6784563184485688e+01 
565 566 2 1.0280000000000000e+00 1.2954753977573414e+03 1.0000000000000000e+00 1.3226765720929960e+01 5.9540764921363794e+00 2.6899654423339172e+01 
154 155 2 1.0279999777965552e+00 -3.3939858884333603e+02 1.0000000000000000e+00 1.1136630135674497e+00 6.8279490512105472e+00 2.7940779679042908e+01 
397 398 2 1.0280000000000040e+00 -1.1457888467247262e+01 1.0000000000000000e+00 1.5736360576547208e+01 7.6586993477749310e+00 2.6992144170264940e+01 
762 763 2 1.0279999894699841e+00 2.7460610354422187e+02 1.0000000000000000e+00 1.1290897823021657e+00 8.9448561522204635e+00 2.7610249324444641e+01 
167 168 2 1.0279999996530442e+00 4.5452605086833853e+02 1.0000000000000000e+00 4.3456742633884398e+00 9.6760551583875749e+00 2.7369230898762524e+01 
207 208 2 1.0280000011784862e+00 -4.4430371583049913e+02 1.0000000000000000e+00 3.8248430811544711e+00 1.0715823518975535e+01 2.8320853952958835e+01 
472 473 2 1.0279999921003784e+00 1.6244116743231191e+03 1.0000000000000000e+00 3.0148798857446941e+00 1.2413680200199675e+01 2.8280187572892316e+01 
1240 1241 2 1.0279999786691101e+00 -1.2187400429551653e+02 1.0000000000000000e+00 6.5799133825625755e-01 1.4091963704296992e+01 2.6878897445758618e+01 
754 755 2 1.0279999987924133e+00 -1.0336871169377073e+03 1.0000000000000000e+00 3.6611523339242164e-01 1.3827697655266739e+01 2.8169398738716481e+01 
382 383 2 1.0280000000000036e+00 -9.7784050671983482e+02 1.0000000000000000e+00 5.0678561626294902e+00 1.4555742970697059e+01 2.7299230122510092e+01 
527 528 2 1.0279999918069225e+00 4.9689304980072478e+02 1.0000000000000000e+00 1.5029662688349708e+00 9.7057842921577564e-01 2.9943838460046710e+01 
803 804 2 1.0279999982672363e+00 -1.1125926042522231e+03 1.0000000000000000e+00 3.0420894487576824e+00 6.0368581894749695e-01 2.9087113927470035e+01 
967 968 2 1.0280000493998067e+00 4.7609135126697709e+02 1.0000000000000000e+00 3.3896338360399016e+00 4.4416255356416112e+00 2.8824501814842979e+01 
157 158 2 1.0280000272689760e+00 -1.2390175760461891e+03 1.0000000000000000e+00 1.1892485489171210e+00 5.7050217173013262e+00 2.8921922035654461e+01 
815 816 2 1.0279999498112895e+00 -1.6616144752994692e+03 1.0000000000000000e+00 3.2934456849135922e+00 5.1351011931610691e+00 2.9729086619433780e+01 
1398 1399 2 1.0280000204735473e+00 -1.4884213985839217e+03 1.0000000000000000e+00 2.6918411244369689e-01 7.9661247568896689e+00 2.8413157455846065e+01 
166 167 2 1.0279999983306543e+00 4.6430025810201886e+02 1.0000000000000000e+00 2.0229008975063230e+00 7.3232640633896500e+00 2.9629104965688636e+01 
18 19 2 1.0280000046268909e+00 -2.0163020994175476e+01 1.0000000000000000e+00 2.2006221357996214e+00 9.6370229640160492e+00 2.8457391612827767e+01 
206 207 2 1.0279999970847657e+00 -4.3210008060625916e+02 1.0000000000000000e+00 3.0677462500112145e+00 8.6634415262717788e+00 2.9281174230859261e+01 
159 160 2 1.0279999992770181e+00 -7.0811076921789413e+02 1.0000000000000000e+00 5.0740693360630162e+00 9.9091213925069290e+00 2.8536388713952960e+01 
784 785 2 1.0280000023436009e+00 6.5131545941146783e+02 1.0000000000000000e+00 2.2073689298956936e-01 1.0012179072120745e+01 2.8586245183446263e+01 
1519 1520 2 1.0280000009085066e+00 2.4949583142894929e+02 1.0000000000000000e+00 1.3741013112180092e+00 1.0895550128856685e+01 2.9585269100746231e+01 
928 929 2 1.0279999758895402e+00 1.6226708358842786e+03 1.0000000000000000e+00 1.4446555568787063e+00 1.2491118515731698e+01 2.8420104236415636e+01 
1321 1322 2 1.0280000207369804e+00 4.7170251581519369e+02 1.0000000000000000e+00 2.4869176451957684e+00 1.2560320073238385e+01 2.9562903725078996e+01 
383 384 2 1.0280000000000036e+00 -9.7812523377745629e+02 1.0000000000000000e+00 4.9405325591647875e+00 1.4508330233658400e+01 2.8434533495986095e+01 
526 527 2 1.0280000009126882e+00 5.2776350280177348e+02 1.0000000000000000e+00 2.7318961382258484e+00 4.8300119496481503e-01 3.0557323995521720e+01 
898 899 2 1.0280000014712323e+00 -1.3609787121300708e+03 1.0000000000000000e+00 5.3301097215155204e+00 7.6395416697009078e-01 3.1254534671961476e+01 
149 150 2 1.0279999999999967e+00 -3.0934429456127020e+02 1.0000000000000000e+00 1.6510661864865831e+01 3.5249112316458088e-02 3.0313102991079944e+01 
14 15 2 1.0279999918625784e+00 4.2770212679866916e+02 1.0000000000000000e+00 4.4060068429355298e-01 2.1109255841467762e+00 3.0515404394726804e+01 
550 551 2 1.0280000085236720e+00 5.2481516613994722e+02 1.0000000000000000e+00 2.5806618624050053e+00 2.7784987232864413e+00 3.0232854869195897e+01 
551 552 2 1.0279999921188234e+00 5.1805736990055846e+02 1.0000000000000000e+00 2.2668810361052358e+00 3.1066966741083677e+00 3.1293948465302066e+01 
1344 1345 2 1.0279999999999936e+00 -2.4349710248245504e+01 1.0000000000000000e+00 1.8847657090737069e+01 3.0645501130870638e+00 3.0629540889412731e+01 
1347 1348 2 1.0279999999999936e+00 3.2497784803053435e+02 1.0000000000000000e+00 1.9056760968733819e+01 2.2388977762514775e+00 3.1392395268926556e+01 
1149 1150 2 1.0279999999106009e+00 -2.5589341223182339e+02 1.0000000000000000e+00 2.6210460479206638e-01 3.6827888445617010e+00 3.0138796537974148e+01 
158 159 2 1.0280000129897180e+00 -6.9990396667486414e+02 1.0000000000000000e+00 1.3972629215775554e+00 8.1329315162716256e+00 3.0452664194466159e+01 
38 39 2 1.0279999966506683e+00 4.0392687371744057e+02 1.0000000000000000e+00 2.6360813503384382e+00 9.5830183044747681e+00 3.0393621797532955e+01 
1234 1235 2 1.0279999983735797e+00 -4.9432220130966948e+02 1.0000000000000000e+00 1.0528615200641891e+00 1.0264593934380548e+01 3.1098260357059235e+01 
151 152 2 1.0280000178770841e+00 2.5382417492913459e+02 1.0000000000000000e+00 5.0594695412574786e-01 1.2105374824455053e+01 3.0224311067050998e+01 
1130 1131 2 1.0279999889880247e+00 -1.0575025241035864e+03 1.0000000000000000e+00 5.6823578657221180e-02 1.3816099774208577e+00 3.2245921275410012e+01 
1018 1019 2 1.0279999953530652e+00 -5.6379330977371819e+02 1.0000000000000000e+00 4.2121779505208119e+00 1.2153087697165881e+00 3.1814601155025279e+01 
376 377 2 1.0280000044704676e+00 7.1786367306338889e+01 1.0000000000000000e+00 5.3008824142144473e+00 1.0882107884493526e+00 3.3019445048247562e+01 
86 87 2 1.0279999947376082e+00 5.8786695440279914e+01 1.0000000000000000e+00 1.9463878992333667e+00 4.3711292708384013e+00 3.2992502128007438e+01 
1373 1374 2 1.0279999945947058e+00 4.1231562480758225e+02 1.0000000000000000e+00 7.3961963620726612e-01 6.1231877667415278e+00 3.2437286517274558e+01 
1017 1018 2 1.0280000072097246e+00 1.4090824320460154e+03 1.0000000000000000e+00 5.0761056124271187e-01 8.8448268819240887e+00 3.2028206219691519e+01 
1497 1498 2 1.0279999990397182e+00 1.7887253858303910e+02 1.0000000000000000e+00 2.0485588939841297e+00 9.2433844871757849e+00 3.1844971347377903e+01 
485 486 2 1.0279999985742525e+00 6.9989291822595044e+02 1.0000000000000000e+00 2.9554435544284070e+00 1.3140667703430207e+01 3.2668234867962454e+01 
708 709 2 1.0279999988817734e+00 1.3100750694472895e+03 1.0000000000000000e+00 2.5370010271842918e+00 1.1792144309182827e+01 3.2698665261247207e+01 
1073 1074 2 1.0280000015347941e+00 -1.5012770989552164e+03 1.0000000000000000e+00 1.1584685538557311e+00 1.3904107022569574e+01 3.3043652724838509e+01 
313 314 2 1.0279999973944365e+00 -1.4991521302971159e+03 1.0000000000000000e+00 6.9749355939715130e-01 1.5161819268020979e+01 3.3021120964507354e+01 
791 792 2 1.0279999710567418e+00 -2.2049561502089892e+02 1.0000000000000000e+00 2.5845277969966429e+00 1.4651266226001125e+00 3.3422009024452642e+01 
792 793 2 1.0280000315040405e+00 9.8331768911219581e+02 1.0000000000000000e+00 1.8096060899801565e+00 7.9002928457469390e-01 3.4090334500389496e+01 
678 679 2 1.0280000034329382e+00 -1.7542137679204191e+03 1.0000000000000000e+00 1.2431068980269702e+00 3.1763418632743590e+00 3.3337666785446579e+01 
221 222 2 1.0280000026273464e+00 4.6390591760339669e+02 1.0000000000000000e+00 2.2606731970016765e+00 4.0389721295351482e+00 3.4420712316624645e+01 
569 570 2 1.0279999936530209e+00 8.2409126547985090e+02 1.0000000000000000e+00 1.5628083582612038e+00 6.3867544106891847e+00 3.3749047562299346e+01 
94 95 2 1.0280000092666748e+00 3.1270741603586464e+02 1.0000000000000000e+00 4.8524053676228590e-01 5.5716314989031774e+00 3.3940050742779768e+01 
731 732 2 1.0280000000000000e+00 -2.3354402539551415e+02 1.0000000000000000e+00 7.7087361551564841e+00 6.9806052492511554e+00 3.4621395230097804e+01 
732 733 2 1.0280000000000000e+00 9.7876053593799816e+02 1.0000000000000000e+00 8.4376864811755770e+00 7.8613970996606781e+00 3.4606898475027528e+01 
1274 1275 2 1.0280000027830904e+00 -7.1187200912967307e+02 1.0000000000000000e+00 3.0708218440325696e-01 9.3314285500397176e+00 3.3478447088674692e+01 
799 800 2 1.0279999997860212e+00 -1.3902588755713987e+03 1.0000000000000000e+00 3.4975925702104305e+00 9.0594021995690355e+00 3.4899775007733538e+01 
273 274 2 1.0279999954968175e+00 -4.2855475206690136e+02 1.0000000000000000e+00 1.4782716329271179e+00 1.0737429130898335e+01 3.3893124113242024e+01 
1303 1304 2 1.0280000003984135e+00 -6.3445420681011240e+02 1.0000000000000000e+00 9.3698659911981752e-01 1.2304017986094546e+01 3.3479113924683986e+01 
610 611 2 1.0280000019860551e+00 2.6332734067580884e+02 1.0000000000000000e+00 3.0899887424911139e+00 1.1800289800743856e+01 3.4242616649956148e+01 
62 63 2 1.0280000001093943e+00 2.3327030531599962e+02 1.0000000000000000e+00 3.4240001353506089e+00 1.3546396817327734e+01 3.4078518372035198e+01 
385 386 2 1.0279999997490037e+00 7.7278771659713286e+00 1.0000000000000000e+00 1.1823279154603512e+00 1.5630457278730832e+01 3.4513526060288335e+01 
1486 1487 2 1.0280000000000000e+00 -2.8470295822485980e+02 1.0000000000000000e+00 4.5310004574625315e+00 1.8085864821141151e+01 3.3369612255267903e+01 
1502 1503 2 1.0280000000000000e+00 -1.7084268004991102e+01 1.0000000000000000e+00 3.9100322269008427e+00 1.7126615008102387e+01 3.3409752886515108e+01 
1162 1163 2 1.0279999953506833e+00 9.2427886272615456e+02 1.0000000000000000e+00 1.9162746894870941e-01 1.3889712090042134e+00 3.6222300560907044e+01 
145 146 2 1.0280000021980393e+00 4.1553902610111675e+02 1.0000000000000000e+00 1.7819742789657360e-02 2.9471830141592378e-02 3.5889620552486619e+01 
31 32 2 1.0279999936229796e+00 -1.4687877683148724e+03 1.0000000000000000e+00 9.5741287505232142e-01 3.0880599406711036e+00 3.5139718710811735e+01 
611 612 2 1.0280000012907420e+00 2.7661316000218238e+02 1.0000000000000000e+00 2.1607169761244371e+00 2.4423710945298587e+00 3.5007016311543481e+01 
918 919 2 1.0279999967835820e+00 4.9810342919079453e+01 1.0000000000000000e+00 6.8998775866381334e-01 6.6365405588161392e+00 3.5652984819245596e+01 
919 920 2 1.0280000006536381e+00 4.9958080564544375e+01 1.0000000000000000e+00 1.4926638375536005e+00 5.7230193654274713e+00 3.5803375433268307e+01 
1116 1117 2 1.0279999998390030e+00 5.5785930150232855e+02 1.0000000000000000e+00 3.5038935855211868e+00 9.4479645012372444e+00 3.6020302459911832e+01 
274 275 2 1.0280000001823941e+00 -3.2833353311661324e+02 1.0000000000000000e+00 2.2730616664743337e+00 1.0516256512092360e+01 3.5029123192526512e+01 
229 230 2 1.0280000057291054e+00 4.6718877390801219e+02 1.0000000000000000e+00 8.6017497100774853e-01 1.1902383119271523e+01 3.5661956905829456e+01 
30 31 2 1.0280000013855231e+00 -1.4875397145365514e+03 1.0000000000000000e+00 2.2094902923610382e+00 1.2824037467102384e+01 3.5119188953431319e+01 
956 957 2 1.0279999960894692e+00 1.1913097623385320e+03 1.0000000000000000e+00 2.2711849008029965e+00 1.1705503825482621e+01 3.6589936228327645e+01 
1142 1143 2 1.0280000001639631e+00 -9.7858280629436172e+02 1.0000000000000000e+00 2.7864408777358287e+00 1.4676266247184431e+01 3.5024403050089852e+01 
78 79 2 1.0280000003218734e+00 3.9142403046652373e+02 1.0000000000000000e+00 5.5034269678343073e-01 1.5250992658620032e+01 3.5845297658505359e+01 
1143 1144 2 1.0279999990630941e+00 -9.8580828462449529e+02 1.0000000000000000e+00 2.1802301257196253e+00 1.5549701062880466e+01 3.5942176919879429e+01 
828 829 2 1.0280000001193883e+00 1.4798972208892956e+03 1.0000000000000000e+00 3.5414339588853672e-01 1.7300629574174483e+01 3.5113569850364073e+01 
1504 1505 2 1.0280000002711438e+00 -4.0709065755355346e+02 1.0000000000000000e+00 5.9829388426783270e-01 1.6952460085111277e+01 3.6515738710925618e+01 
1247 1248 2 1.0279999901896568e+00 -3.1854164716489998e+02 1.0000000000000000e+00 9.8314282279318277e-01 1.5831387528428169e+00 3.8170036577406549e+01 
1248 1249 2 1.0280000110451259e+00 -3.6015090970240016e+02 1.0000000000000000e+00 3.9842878265956766e-01 4.9303131210418011e-01 3.8242409492265878e+01 
764 765 2 1.0280000062464953e+00 9.8340016731486813e+01 1.0000000000000000e+00 5.7295931914345000e-01 3.1315579417614301e+00 3.7406008144581349e+01 
441 442 2 1.0280000000000002e+00 2.2418406019832418e+02 1.0000000000000000e+00 1.9363538373408524e+01 7.9139632830104976e+00 3.7442817419789158e+01 
671 672 2 1.0279999976805494e+00 -1.7997511682624593e+03 1.0000000000000000e+00 7.4422398363141784e-01 1.3176337159440813e+01 3.6949869547988463e+01 
1404 1405 2 1.0280000022016382e+00 6.1058793258111609e+02 1.0000000000000000e+00 1.5341335877222044e+00 1.2160502672205141e+01 3.7789189115041083e+01 
215 216 2 1.0280000013342230e+00 -6.6578182645507263e+02 1.0000000000000000e+00 2.1793641864816782e+00 1.3466358285578398e+01 3.6780544842346806e+01 
1085 1086 2 1.0280000021837208e+00 -5.3661901741167890e+02 1.0000000000000000e+00 1.9600101003175545e+00 1.4947224389361839e+01 3.8167283876484085e+01 
1129 1130 2 1.0280000000000049e+00 -2.2741297820541905e+02 1.0000000000000000e+00 3.6694927525258789e+00 1.9330836926989655e+01 3.7351238488157925e+01 
817 818 2 1.0280000000000049e+00 1.0916045598746514e+03 1.0000000000000000e+00 3.9507812044029507e+00 1.8514948531248915e+01 3.8101289119778833e+01 
1443 1444 2 1.0279999879313588e+00 3.1465855358686508e+02 1.0000000000000000e+00 1.3447834790945498e-01 3.8215465592375830e+00 3.8362231892358643e+01 
868 869 2 1.0280000000000005e+00 1.0744430247163548e+03 1.0000000000000000e+00 4.4045922841758003e+00 6.3564211755645488e+00 3.8586649608836268e+01 
976 977 2 1.0280000000000005e+00 1.1940941485381124e+03 1.0000000000000000e+00 5.4982861675794510e+00 6.3105926046346710e+00 3.8916962262167480e+01 
1088 1089 2 1.0279999974521776e+00 -5.3770051330194178e+02 1.0000000000000000e+00 2.9300670821447765e+00 1.4371662113462710e+01 3.8443103928973734e+01 
336 337 2 1.0279999999999818e+00 -6.8377827712241560e+02 1.0000000000000000e+00 1.6966651108101523e+01 5.1353958390312981e-01 4.1486302356535020e+01 
1015 1016 2 1.0279999999999969e+00 4.8111404308679539e+02 1.0000000000000000e+00 2.0736977512855463e+00 1.5169956936728328e+01 4.0989351463940828e+01 
491 492 2 1.0279999999999818e+00 1.3751277382906716e+02 1.0000000000000000e+00 1.6256642756596897e+01 1.0907461016482276e+00 4.2171936219558923e+01 
216 217 2 1.0280000000000489e+00 5.1559808765112825e+02 1.0000000000000000e+00 1.9490494754913243e+01 2.3725045951879004e-01 4.1863176620633944e+01 
1377 1378 2 1.0280000000000000e+00 -1.2777033272952949e+02 1.0000000000000000e+00 1.9704649209099664e+01 7.6729268307950234e+00 4.3268847281453667e+01 