LAMMPS data file via write_data, version 30 Jul 2016, timestep = 50000000

3696 atoms
8 atom types

0.0000000000000000e+00 1.0000000000000000e+02 xlo xhi
0.0000000000000000e+00 4.0000000000000000e+01 ylo yhi
0.0000000000000000e+00 4.0000000000000000e+01 zlo zhi

Masses

1 3.896
2 5.36
3 20.064
4 8.378
5 8.378
6 8.378
7 8.378
8 8.378

Atoms # meso-molecular

204 205 2 1.0279999999999994e+00 7.2397326747972897e+01 1.0000000000000000e+00 3.0412627719542527e+01 1.0000000000000000e+01 8.1068927100596244e-01 
1179 1180 2 1.0279999999999974e+00 3.1073031035655174e+02 1.0000000000000000e+00 2.0283170548708146e+01 1.5199999999999999e+01 7.4419518224556813e-01 
932 933 2 1.0280000000000005e+00 1.4592243070195266e+02 1.0000000000000000e+00 3.3167074391530377e+01 1.5199999999999999e+01 1.6476946396003858e+00 
1513 1514 2 1.0280000000163214e+00 -2.6059573126800603e+02 1.0000000000000000e+00 3.3732525494312016e-01 1.7800000000000001e+01 1.2561829353391081e+00 
1651 1652 2 1.0280000000000007e+00 8.2042893112396564e+02 1.0000000000000000e+00 8.1607996830292766e+00 1.7800000000000001e+01 8.1180220858065399e-01 
1693 1694 2 1.0279999999999998e+00 -5.5304629748785283e+02 1.0000000000000000e+00 9.6131546930773819e+00 1.7800000000000001e+01 7.1475533088984722e-01 
1531 1532 2 1.0279999999999969e+00 -4.7844842778245925e+02 1.0000000000000000e+00 1.8749453511521036e+01 1.7800000000000001e+01 6.0065198074564574e-01 
1180 1181 2 1.0280000000000020e+00 4.0924566170839989e+02 1.0000000000000000e+00 1.9369914971687376e+01 1.5199999999999999e+01 2.1068502257250001e+00 
1345 1346 2 1.0279999999999978e+00 -7.7101476561644881e+02 1.0000000000000000e+00 2.0328149860443265e+01 1.5199999999999999e+01 3.2534314994473674e+00 
1263 1264 2 1.0280000000000036e+00 1.7030799799084838e+02 1.0000000000000000e+00 2.1332567048051995e+01 1.5199999999999999e+01 1.7801140194421796e+00 
1274 1275 2 1.0279999999999958e+00 2.6033477675685400e+01 1.0000000000000000e+00 2.2316609001892409e+01 1.5199999999999999e+01 3.3226410662882495e+00 
1261 1262 2 1.0279999999999998e+00 4.5701571730044904e+01 1.0000000000000000e+00 2.9657078892124048e+01 1.5199999999999999e+01 1.8860857426882986e+00 
1303 1304 2 1.0279999999999998e+00 -1.3198293706787695e+02 1.0000000000000000e+00 3.0843956897153689e+01 1.5199999999999999e+01 2.4852960511988527e+00 
1448 1449 2 1.0280000000100751e+00 -4.5548566505103383e+02 1.0000000000000000e+00 6.0365317921384354e-01 1.7800000000000001e+01 3.1846264359034127e+00 
1555 1556 2 1.0279999999349867e+00 -3.3417181310505100e+02 1.0000000000000000e+00 1.6498009124030888e+00 1.7800000000000001e+01 1.7092883544517934e+00 
1432 1433 2 1.0279999999999998e+00 -2.8005571261930822e+02 1.0000000000000000e+00 5.0109841925808887e+00 1.7800000000000001e+01 1.6699471729527502e+00 
1431 1432 2 1.0279999999999998e+00 -1.7036348422877967e+02 1.0000000000000000e+00 5.8455338963570638e+00 1.7800000000000001e+01 2.7049636871087088e+00 
1402 1403 2 1.0280000000000009e+00 1.1763712384930054e+02 1.0000000000000000e+00 8.2721818931898738e+00 1.7800000000000001e+01 2.4786926310879105e+00 
1449 1450 2 1.0280000000000011e+00 2.9171068082355464e+02 1.0000000000000000e+00 9.7245369032379774e+00 1.7800000000000001e+01 2.3816457533971049e+00 
1556 1557 2 1.0279999999999994e+00 1.4166293542776643e+02 1.0000000000000000e+00 3.1593356532901822e+01 1.7800000000000001e+01 2.4628500628415950e+00 
1515 1516 2 1.0279999999999994e+00 -4.6372714222607624e+02 1.0000000000000000e+00 3.0272837826590905e+01 1.7800000000000001e+01 2.6176490903947349e+00 
455 456 2 1.0280000000000002e+00 1.2000928671113527e+02 1.0000000000000000e+00 3.0001007866499211e+01 1.0000000000000000e+01 4.4061090938284844e+00 
981 982 2 1.0280000000000038e+00 5.0689591879693296e+02 1.0000000000000000e+00 2.1587415442151830e+01 1.5199999999999999e+01 4.5156050199985156e+00 
1447 1448 2 1.0279999999599554e+00 1.2352031350077307e+03 1.0000000000000000e+00 3.4924523532772517e-01 1.7800000000000001e+01 4.5746435977815354e+00 
1730 1731 2 1.0279999999103098e+00 -6.4261747643672507e+01 1.0000000000000000e+00 2.5671038397076771e+00 1.7800000000000001e+01 4.3863582371905343e+00 
454 455 2 1.0280000000000002e+00 -1.0307386609794059e+03 1.0000000000000000e+00 3.0296302920108957e+01 1.0000000000000000e+01 5.7024629128000139e+00 
1317 1318 2 1.0279999999999996e+00 5.0789303141693824e+02 1.0000000000000000e+00 9.2303876590924769e+00 1.5199999999999999e+01 6.5278952675406359e+00 
970 971 2 1.0279999999999994e+00 -2.8016638423689972e+02 1.0000000000000000e+00 1.4642634629492020e+01 1.5199999999999999e+01 6.1742588127164248e+00 
969 970 2 1.0279999999999994e+00 -1.6901180551607325e+02 1.0000000000000000e+00 1.5931119634928709e+01 1.5199999999999999e+01 6.5021898777488083e+00 
1729 1730 2 1.0280000000772309e+00 -9.2027432624585572e+02 1.0000000000000000e+00 2.2736457188419545e+00 1.7800000000000001e+01 5.6838358900208101e+00 
1393 1394 2 1.0279999999999998e+00 3.9233869647744719e+01 1.0000000000000000e+00 5.2025272853255906e+00 1.7800000000000001e+01 5.2355379159949216e+00 
1398 1399 2 1.0279999999999998e+00 -1.2685294450223428e+03 1.0000000000000000e+00 6.3222916136581446e+00 1.7800000000000001e+01 5.9523783735881004e+00 
1812 1813 2 1.0280000000000005e+00 -2.8293441606483259e+02 1.0000000000000000e+00 9.9778235084009967e+00 1.7800000000000001e+01 5.8184816733050999e+00 
1608 1609 2 1.0279999999999976e+00 3.6854962990984120e+02 1.0000000000000000e+00 1.5377941707524208e+01 1.7800000000000001e+01 5.2889384422876251e+00 
1609 1610 2 1.0279999999999976e+00 -5.0059364861621937e+01 1.0000000000000000e+00 1.6247998337726667e+01 1.7800000000000001e+01 6.2942910435620263e+00 
1724 1725 2 1.0280000000000000e+00 -1.8363267830916794e+02 1.0000000000000000e+00 1.9852830788222846e+01 1.7800000000000001e+01 5.8055164818129086e+00 
1547 1548 2 1.0280000000000002e+00 4.3285217445287424e+02 1.0000000000000000e+00 3.0868165307838506e+01 1.7800000000000001e+01 6.2743468690989168e+00 
47 48 2 1.0280000000000005e+00 -2.1496457147973906e+01 1.0000000000000000e+00 3.2521153756448903e+01 1.0000000000000000e+01 6.6936957009876501e+00 
510 511 2 1.0280000000000005e+00 6.2374766453931250e+02 1.0000000000000000e+00 1.4182232637744331e+01 1.2600000000000000e+01 7.2829555864341051e+00 
511 512 2 1.0280000000000005e+00 -1.0176682801394098e+03 1.0000000000000000e+00 1.5309346993708759e+01 1.2600000000000000e+01 7.9881829407159293e+00 
1273 1274 2 1.0279999999999996e+00 6.3793868567076811e+02 1.0000000000000000e+00 9.3880362756391360e+00 1.5199999999999999e+01 7.8480768104919756e+00 
1811 1812 2 1.0280000000000005e+00 -5.5299933929069027e+00 1.0000000000000000e+00 1.0644823187002627e+01 1.7800000000000001e+01 6.9686311511529890e+00 
1682 1683 2 1.0280000000000000e+00 1.5473628075105449e+02 1.0000000000000000e+00 2.0529604225226638e+01 1.7800000000000001e+01 6.9499421489553956e+00 
1475 1476 2 1.0280000000000016e+00 3.5200165122678732e+02 1.0000000000000000e+00 2.7884128087004612e+01 1.7800000000000001e+01 8.1284133378442895e+00 
1590 1591 2 1.0280000000000002e+00 7.2631763265877851e+01 1.0000000000000000e+00 3.1464696453699247e+01 1.7800000000000001e+01 7.4625736928436606e+00 
373 374 2 1.0279999999999976e+00 -2.9003664225624493e+02 1.0000000000000000e+00 2.7666529566886581e+01 1.0000000000000000e+01 8.9345933016202945e+00 
332 333 2 1.0279999999999976e+00 2.5169970674821593e+02 1.0000000000000000e+00 2.8882308428139744e+01 1.0000000000000000e+01 9.4727514133109292e+00 
1816 1817 2 1.0280000002189364e+00 -1.9094875325097564e+02 1.0000000000000000e+00 3.4877550839952809e-02 1.7800000000000001e+01 8.4798024098954468e+00 
1819 1820 2 1.0279999998054472e+00 -1.5929030719242332e+03 1.0000000000000000e+00 4.5417132183318432e-01 1.7800000000000001e+01 9.7451648571018747e+00 
1808 1809 2 1.0279999999999996e+00 7.9578749177007325e+01 1.0000000000000000e+00 4.6758860803467197e+00 1.7800000000000001e+01 8.6426928172667843e+00 
1810 1811 2 1.0279999999999996e+00 -6.1663763974371246e+00 1.0000000000000000e+00 5.8925174349261296e+00 1.7800000000000001e+01 9.1789208841401315e+00 
1532 1533 2 1.0280000000000000e+00 3.6361540033396807e+02 1.0000000000000000e+00 1.0494326881413846e+01 1.7800000000000001e+01 9.3849997261217855e+00 
1387 1388 2 1.0279999999999996e+00 -7.6632972785370021e+02 1.0000000000000000e+00 2.1468739694217440e+01 1.7800000000000001e+01 9.6490559858221445e+00 
1473 1474 2 1.0279999999999996e+00 1.8521381932516249e+02 1.0000000000000000e+00 2.2784175755611521e+01 1.7800000000000001e+01 9.8423442706003055e+00 
1433 1434 2 1.0280000000000016e+00 -2.1820853205541773e+01 1.0000000000000000e+00 2.6570875744054781e+01 1.7800000000000001e+01 8.3360203617746560e+00 
6 7 2 1.0280000000000002e+00 -2.8502776954583783e+02 1.0000000000000000e+00 5.0206780311401049e+00 1.0000000000000000e+01 1.0768221278948413e+01 
5 6 2 1.0280000000000002e+00 -6.1517466990918077e+00 1.0000000000000000e+00 6.3197207105541606e+00 1.0000000000000000e+01 1.0484989024942621e+01 
1491 1492 2 1.0280000009254389e+00 5.4016613920612272e+01 1.0000000000000000e+00 1.7449958332667674e+00 1.7800000000000001e+01 1.1435505792367877e+01 
1535 1536 2 1.0280000000000000e+00 3.6146191596771939e+02 1.0000000000000000e+00 1.0314844795596514e+01 1.7800000000000001e+01 1.0702390546462929e+01 
1821 1822 2 1.0280000000000005e+00 5.9443625237167885e+02 1.0000000000000000e+00 1.2730169669432899e+01 1.7800000000000001e+01 1.1624648352781627e+01 
1685 1686 2 1.0279999999999987e+00 2.4874023971521893e+02 1.0000000000000000e+00 1.6148771578709095e+01 1.7800000000000001e+01 1.0321049262897702e+01 
1728 1729 2 1.0279999999999987e+00 -2.9232814529089296e+02 1.0000000000000000e+00 1.7427183564163858e+01 1.7800000000000001e+01 1.0686282322866361e+01 
980 981 2 1.0279999999999854e+00 -7.1547157939503254e+00 1.0000000000000000e+00 2.1807872585444227e-01 1.5199999999999999e+01 1.1842937948619285e+01 
1322 1323 2 1.0280000000000000e+00 -4.2084316917947018e+02 1.0000000000000000e+00 5.0376322832855793e+00 1.5199999999999999e+01 1.2059936502673644e+01 
1321 1322 2 1.0280000000000000e+00 1.3105476063578153e+03 1.0000000000000000e+00 5.9452469611983219e+00 1.5199999999999999e+01 1.3031516653297256e+01 
1533 1534 2 1.0279999990800897e+00 -3.6413852808153194e+02 1.0000000000000000e+00 1.4159458520332342e+00 1.7800000000000001e+01 1.2727278021982904e+01 
1396 1397 2 1.0280000000000000e+00 -2.1910240542729224e+02 1.0000000000000000e+00 5.9826865037257129e+00 1.7800000000000001e+01 1.2787185959912721e+01 
1826 1827 2 1.0280000000000005e+00 -1.0277322680391096e+03 1.0000000000000000e+00 1.3969675014207370e+01 1.7800000000000001e+01 1.2105646162468913e+01 
428 429 2 1.0280000000000002e+00 1.2389681056759900e+02 1.0000000000000000e+00 4.5520882868000108e+00 1.0000000000000000e+01 1.4099729450394136e+01 
429 430 2 1.0280000000000002e+00 -1.0083764401586943e+03 1.0000000000000000e+00 5.6429852309599751e+00 1.0000000000000000e+01 1.3339679287660845e+01 
1399 1400 2 1.0280000000000000e+00 -1.5809396068078163e+03 1.0000000000000000e+00 6.0534809666972711e+00 1.7800000000000001e+01 1.4114860820961548e+01 
1784 1785 2 1.0280000000000009e+00 -4.2102632895001204e+02 1.0000000000000000e+00 8.7740843058962330e+00 1.7800000000000001e+01 1.4567123797329039e+01 
1783 1784 2 1.0280000000000009e+00 1.3061289021443872e+03 1.0000000000000000e+00 9.3717056704895150e+00 1.7800000000000001e+01 1.3379444927756076e+01 
1695 1696 2 1.0279999999999951e+00 -3.2532800268575795e+02 1.0000000000000000e+00 1.8011047323488665e+01 1.7800000000000001e+01 1.4244316965943746e+01 
1613 1614 2 1.0279999999999989e+00 -3.9530839428879744e+02 1.0000000000000000e+00 1.9274343529106368e+01 1.7800000000000001e+01 1.3367876665765651e+01 
1656 1657 2 1.0280000000000054e+00 5.1462675412707586e+02 1.0000000000000000e+00 2.0608640836046881e+01 1.7800000000000001e+01 1.4182012093948515e+01 
86 87 2 1.0280000000000016e+00 -1.7789228295680823e+02 1.0000000000000000e+00 2.5559032413573128e+01 1.0000000000000000e+01 1.5051531667634201e+01 
128 129 2 1.0280000000000016e+00 1.5987700021117726e+02 1.0000000000000000e+00 2.6289696915080686e+01 1.0000000000000000e+01 1.6162324978239354e+01 
300 301 2 1.0279999999999989e+00 -5.0419155457173201e+02 1.0000000000000000e+00 3.1276181592211362e+01 1.0000000000000000e+01 1.5291554342529665e+01 
257 258 2 1.0279999999999989e+00 4.0452691474513912e+01 1.0000000000000000e+00 3.1054376522974643e+01 1.0000000000000000e+01 1.6602483365745396e+01 
736 737 2 1.0280000000000000e+00 3.7078561455783506e+02 1.0000000000000000e+00 2.8196319835356585e+00 1.2600000000000000e+01 1.6192781412541013e+01 
717 718 2 1.0279999999998053e+00 3.1103763913395369e+02 1.0000000000000000e+00 2.0171420803102599e+01 1.2600000000000000e+01 1.6636033687458539e+01 
1151 1152 2 1.0279999999999978e+00 -3.9345511132283229e+02 1.0000000000000000e+00 3.1320784156442674e+01 1.5199999999999999e+01 1.5723235329341360e+01 
1194 1195 2 1.0279999999999978e+00 5.1910445014652510e+02 1.0000000000000000e+00 3.2641165435763988e+01 1.5199999999999999e+01 1.5879202216424089e+01 
1407 1408 2 1.0280000000000018e+00 -1.2413767076119830e+03 1.0000000000000000e+00 1.4172650394830107e+01 1.7800000000000001e+01 1.6604395407111340e+01 
1827 1828 2 1.0280000000000018e+00 -1.2278576507645607e+03 1.0000000000000000e+00 1.4880468924011508e+01 1.7800000000000001e+01 1.5478906481179184e+01 
1781 1782 2 1.0280000000000031e+00 -2.9238309026099262e+02 1.0000000000000000e+00 1.7571942815187985e+01 1.7800000000000001e+01 1.5744434637835273e+01 
1739 1740 2 1.0279999999999954e+00 5.0963403243947326e+01 1.0000000000000000e+00 1.8891087609978069e+01 1.7800000000000001e+01 1.6534321916681129e+01 
1780 1781 2 1.0279999999999936e+00 3.1385124073332804e+02 1.0000000000000000e+00 2.0187202186409973e+01 1.7800000000000001e+01 1.5660678509167486e+01 
695 696 2 1.0280000000000000e+00 -3.0090604009007006e+02 1.0000000000000000e+00 1.7986099522610397e+00 1.2600000000000000e+01 1.7044395412132555e+01 
917 918 2 1.0279999999999994e+00 1.2006692983927570e+02 1.0000000000000000e+00 8.9403768910228294e+00 1.2600000000000000e+01 1.7284119742993937e+01 
718 719 2 1.0280000000001686e+00 4.0912129344356447e+02 1.0000000000000000e+00 1.9248059053563782e+01 1.2600000000000000e+01 1.8265273547050963e+01 
801 802 2 1.0280000000001781e+00 1.7076016993083630e+02 1.0000000000000000e+00 2.1362119375253677e+01 1.2600000000000000e+01 1.7310854838449718e+01 
1019 1020 2 1.0280000000000000e+00 1.2192542448724291e+02 1.0000000000000000e+00 1.7705147161408561e+01 1.5199999999999999e+01 1.7969334669314701e+01 
1734 1735 2 1.0280000000000000e+00 5.8948783093853777e+01 1.0000000000000000e+00 9.8990240179868516e-01 1.7800000000000001e+01 1.6925825929642514e+01 
1733 1734 2 1.0280000000000000e+00 1.3418860646038075e+02 1.0000000000000000e+00 2.2913235051523553e+00 1.7800000000000001e+01 1.7197920590365889e+01 
1530 1531 2 1.0280000000000005e+00 1.9680236501687837e+01 1.0000000000000000e+00 8.0943770848177188e+00 1.7800000000000001e+01 1.7905344525940745e+01 
1489 1490 2 1.0280000000000005e+00 1.6765238790204305e+02 1.0000000000000000e+00 9.3980844222853612e+00 1.7800000000000001e+01 1.7644423904138865e+01 
249 250 2 1.0280000000000000e+00 -8.2910395018883946e+02 1.0000000000000000e+00 1.9428326875901516e+00 1.0000000000000000e+01 1.9713041749075877e+01 
338 339 2 1.0280000000000000e+00 -1.8080747727839167e+02 1.0000000000000000e+00 2.7165383755679127e+01 1.0000000000000000e+01 1.9942597484874064e+01 
916 917 2 1.0279999999999994e+00 -1.0306266559495891e+03 1.0000000000000000e+00 9.1975997270684964e+00 1.2600000000000000e+01 1.8588561694659507e+01 
883 884 2 1.0279999999998284e+00 -7.7103085750543028e+02 1.0000000000000000e+00 2.0438757625714910e+01 1.2600000000000000e+01 1.8940094698042024e+01 
1018 1019 2 1.0280000000000000e+00 6.8457246487648717e+02 1.0000000000000000e+00 1.8176509786182404e+01 1.5199999999999999e+01 1.9212536048261317e+01 
250 251 2 1.0280000000000000e+00 -1.3153047057605471e+02 1.0000000000000000e+00 2.9198346195850893e+00 1.0000000000000000e+01 2.0614817562416761e+01 
448 449 2 1.0280000000000016e+00 5.5185281928068491e+02 1.0000000000000000e+00 1.5947988395813613e+01 1.0000000000000000e+01 2.0798871570280966e+01 
296 297 2 1.0280000000000000e+00 1.5611803245766768e+02 1.0000000000000000e+00 2.7747788522470344e+01 1.0000000000000000e+01 2.1137811725195572e+01 
1013 1014 2 1.0280000000000002e+00 3.5203424398420913e+02 1.0000000000000000e+00 9.9272574019400572e+00 1.5199999999999999e+01 2.0881425385850871e+01 
1499 1500 2 1.0280000000324174e+00 -7.0318266467911485e+01 1.0000000000000000e+00 1.0406417970602417e+00 1.7800000000000001e+01 2.0026877945322294e+01 
1458 1459 2 1.0280000000740812e+00 8.3842058190156968e+02 1.0000000000000000e+00 6.1737338807621578e-01 1.7800000000000001e+01 2.1421420666248416e+01 
1418 1419 2 1.0279999998381879e+00 7.0932830299315788e+02 1.0000000000000000e+00 2.3842316323904820e+00 1.7800000000000001e+01 2.1036347739298201e+01 
1632 1633 2 1.0280000001405065e+00 -1.9830442269777218e+03 1.0000000000000000e+00 1.2769477555174703e+01 1.7800000000000001e+01 2.0491514304627827e+01 
1814 1815 2 1.0279999998998510e+00 1.2306046115779137e+02 1.0000000000000000e+00 1.4200181279091730e+01 1.7800000000000001e+01 2.0417135573177458e+01 
1737 1738 2 1.0279999999999991e+00 1.4041279611998715e+02 1.0000000000000000e+00 2.7349816169903995e+01 1.7800000000000001e+01 2.1482710171502088e+01 
426 427 2 1.0279999999999998e+00 -2.8143894922310096e+02 1.0000000000000000e+00 1.3269581371187593e+00 1.0000000000000000e+01 2.2731350942719128e+01 
28 29 2 1.0280000000000016e+00 5.4024182480977117e+02 1.0000000000000000e+00 1.5871161653365377e+01 1.0000000000000000e+01 2.2126211031117279e+01 
857 858 2 1.0279999999999996e+00 -2.9380172148322663e+02 1.0000000000000000e+00 1.7829064925166215e+01 1.2600000000000000e+01 2.1872190645314912e+01 
815 816 2 1.0279999999999996e+00 5.0962017822863558e+01 1.0000000000000000e+00 1.9053504247011169e+01 1.2600000000000000e+01 2.2390341916439787e+01 
1173 1174 2 1.0280000000000018e+00 -8.2897395563693340e+02 1.0000000000000000e+00 3.6455556577409451e+00 1.5199999999999999e+01 2.1969854059999193e+01 
1174 1175 2 1.0280000000000018e+00 -1.3174223139199233e+02 1.0000000000000000e+00 4.8388680324516713e+00 1.5199999999999999e+01 2.2556145769825189e+01 
971 972 2 1.0280000000000002e+00 -2.1488446592961012e+01 1.0000000000000000e+00 8.8646636162101622e+00 1.5199999999999999e+01 2.1680566699497376e+01 
943 944 2 1.0280000000000016e+00 2.1846873916014811e+03 1.0000000000000000e+00 2.0277714223417671e+01 1.5199999999999999e+01 2.1778184872257022e+01 
938 939 2 1.0280000000000016e+00 -1.3214182443604450e+03 1.0000000000000000e+00 2.1168825349210231e+01 1.5199999999999999e+01 2.2764923618905375e+01 
983 984 2 1.0279999999999996e+00 -2.3778726473625215e+02 1.0000000000000000e+00 2.5449814022990719e+01 1.5199999999999999e+01 2.2411992168500873e+01 
1358 1359 2 1.0279999999999998e+00 -1.2606736971702335e+03 1.0000000000000000e+00 3.0496349235795741e+01 1.5199999999999999e+01 2.2749026694918513e+01 
1757 1758 2 1.0280000000062717e+00 -6.1682504860510022e+01 1.0000000000000000e+00 1.0648462538370625e-01 1.7800000000000001e+01 2.3145313299886496e+01 
1422 1423 2 1.0280000001732121e+00 4.9032799258658919e+01 1.0000000000000000e+00 3.1386407570956223e+00 1.7800000000000001e+01 2.2356597225553841e+01 
1477 1478 2 1.0280000000340088e+00 -9.0949347010885572e+02 1.0000000000000000e+00 7.5648664191685100e+00 1.7800000000000001e+01 2.2800907417338383e+01 
1823 1824 2 1.0280000001930378e+00 -3.9220875145763546e+02 1.0000000000000000e+00 1.0216991112120652e+01 1.7800000000000001e+01 2.1683769106634937e+01 
1824 1825 2 1.0279999998372156e+00 -7.4847883552508665e+02 1.0000000000000000e+00 1.0353230502316354e+01 1.7800000000000001e+01 2.3092890938964331e+01 
1716 1717 2 1.0279999997489018e+00 1.1569805817632571e+03 1.0000000000000000e+00 1.1922469633468422e+01 1.7800000000000001e+01 2.2040898315421906e+01 
1675 1676 2 1.0279999999532203e+00 -3.6736803257172130e+02 1.0000000000000000e+00 1.3449587450759205e+01 1.7800000000000001e+01 2.2304386970471771e+01 
1815 1816 2 1.0279999999975318e+00 -1.0108435136652877e+03 1.0000000000000000e+00 1.5159769837182587e+01 1.7800000000000001e+01 2.1859476457533940e+01 
1805 1806 2 1.0280000000240161e+00 -1.2341229172546414e+02 1.0000000000000000e+00 1.5899375302082278e+01 1.7800000000000001e+01 2.3185814562406069e+01 
1437 1438 2 1.0280000000000005e+00 -3.4835097202763382e+02 1.0000000000000000e+00 2.0146247443338833e+01 1.7800000000000001e+01 2.2692430713831797e+01 
1436 1437 2 1.0280000000000005e+00 1.7516232351444401e+02 1.0000000000000000e+00 2.1472927018997165e+01 1.7800000000000001e+01 2.2604945308309063e+01 
1653 1654 2 1.0279999999999991e+00 4.9370744749645792e+02 1.0000000000000000e+00 2.6218913767781913e+01 1.7800000000000001e+01 2.2181846888834944e+01 
425 426 2 1.0279999999999998e+00 -4.0505468222476635e+00 1.0000000000000000e+00 1.4745643125298593e+00 1.0000000000000000e+01 2.4052692991406357e+01 
44 45 2 1.0280000000000005e+00 -1.2494654527934256e+02 1.0000000000000000e+00 1.9119523819254937e+01 1.0000000000000000e+01 2.4982505125476589e+01 
1268 1269 2 1.0280000000000018e+00 -6.4571555199961068e+01 1.0000000000000000e+00 1.8848594889987439e+01 1.5199999999999999e+01 2.4541282461036662e+01 
1025 1026 2 1.0279999999999996e+00 5.5063769837497475e+01 1.0000000000000000e+00 2.6367667074238835e+01 1.5199999999999999e+01 2.3373905973871697e+01 
1363 1364 2 1.0279999999999998e+00 2.1397386071870224e+03 1.0000000000000000e+00 3.1387091524610476e+01 1.5199999999999999e+01 2.3736098408405198e+01 
1558 1559 2 1.0279999997724234e+00 4.3853840829228875e+02 1.0000000000000000e+00 1.5195445484247716e+00 1.7800000000000001e+01 2.4063679291822378e+01 
1678 1679 2 1.0279999997035485e+00 3.1136186053419431e+02 1.0000000000000000e+00 3.1376511844834138e+00 1.7800000000000001e+01 2.3938265472982021e+01 
1434 1435 2 1.0279999998609475e+00 6.2380404164244158e+02 1.0000000000000000e+00 6.0419003310805515e+00 1.7800000000000001e+01 2.3340058586692845e+01 
1846 1847 2 1.0279999998754303e+00 2.2110896994921330e+02 1.0000000000000000e+00 4.8688116654123617e+00 1.7800000000000001e+01 2.4339991680557908e+01 
1435 1436 2 1.0280000000917175e+00 -1.0190513556140831e+03 1.0000000000000000e+00 7.2794845836946198e+00 1.7800000000000001e+01 2.4758415818081836e+01 
1478 1479 2 1.0279999997213689e+00 -5.7166737135856678e+01 1.0000000000000000e+00 8.6713098101138684e+00 1.7800000000000001e+01 2.3836263424650888e+01 
1469 1470 2 1.0279999999692881e+00 -1.2552638997484193e+02 1.0000000000000000e+00 1.4393837533351045e+01 1.7800000000000001e+01 2.3769329912100744e+01 
380 381 2 1.0280000000000005e+00 -1.2424664696820659e+02 1.0000000000000000e+00 1.7895109063300133e+01 1.0000000000000000e+01 2.5500714444235513e+01 
1267 1268 2 1.0280000000000018e+00 -9.2111711809502208e+02 1.0000000000000000e+00 1.8084775422041286e+01 1.5199999999999999e+01 2.5629543557021858e+01 
1560 1561 2 1.0279999999624554e+00 -3.3066366259301344e+02 1.0000000000000000e+00 1.2095305419683118e+00 1.7800000000000001e+01 2.5842657005375525e+01 
1680 1681 2 1.0279999999944762e+00 -3.3921790189833143e+02 1.0000000000000000e+00 2.6798891451107552e+00 1.7800000000000001e+01 2.6236144534854400e+01 
1428 1429 2 1.0280000000225638e+00 -7.6299930561674796e+02 1.0000000000000000e+00 4.4158246979793230e+00 1.7800000000000001e+01 2.6464499713326379e+01 
1501 1502 2 1.0279999998963667e+00 -1.0610644715633927e+02 1.0000000000000000e+00 5.9968420520446442e+00 1.7800000000000001e+01 2.5579324449209736e+01 
1726 1727 2 1.0279999999800795e+00 6.9654061618292690e+02 1.0000000000000000e+00 1.4211002225803336e+01 1.7800000000000001e+01 2.5453800183533911e+01 
1684 1685 2 1.0280000000261449e+00 -1.0354355779743585e+03 1.0000000000000000e+00 1.5676023512111028e+01 1.7800000000000001e+01 2.5138863254083461e+01 
771 772 2 1.0280000000000002e+00 -3.2713331001249844e+02 1.0000000000000000e+00 5.0416340484448687e+00 1.2600000000000000e+01 2.7393451963786536e+01 
856 857 2 1.0280000000000002e+00 3.1505040920856749e+02 1.0000000000000000e+00 6.1936398720506904e+00 1.2600000000000000e+01 2.8057240314864440e+01 
1233 1234 2 1.0280000000000000e+00 -3.2711312079846823e+02 1.0000000000000000e+00 5.9898251044071387e+00 1.5199999999999999e+01 2.7172540429485089e+01 
1318 1319 2 1.0280000000000000e+00 3.1522205136184544e+02 1.0000000000000000e+00 7.2503699310294447e+00 1.5199999999999999e+01 2.7595339593065379e+01 
925 926 2 1.0280000000000018e+00 -7.6668664629659634e+02 1.0000000000000000e+00 2.5545098165875544e+01 1.5199999999999999e+01 2.8207673958032697e+01 
1505 1506 2 1.0279999998930311e+00 -6.5011967064471776e+01 1.0000000000000000e+00 4.7944161720723710e-01 1.7800000000000001e+01 2.7980551948343646e+01 
1506 1507 2 1.0279999999762282e+00 -9.1784437018918629e+02 1.0000000000000000e+00 1.9186235907760056e+00 1.7800000000000001e+01 2.7994704925662777e+01 
1510 1511 2 1.0279999999507212e+00 1.8427041958373303e+02 1.0000000000000000e+00 3.6615899527795004e+00 1.7800000000000001e+01 2.7737564162780981e+01 
1604 1605 2 1.0280000000000042e+00 -1.3868048253324173e+03 1.0000000000000000e+00 9.5833310545108610e+00 1.7800000000000001e+01 2.7154549064132883e+01 
1390 1391 2 1.0280000000180096e+00 2.1835345522022209e+01 1.0000000000000000e+00 1.5426767791308714e+01 1.7800000000000001e+01 2.6834938112293003e+01 
1389 1390 2 1.0280000000378688e+00 2.1360747970429975e+02 1.0000000000000000e+00 1.4507690190904793e+01 1.7800000000000001e+01 2.8080375476121279e+01 
270 271 2 1.0280000000000005e+00 5.1910341179945590e+02 1.0000000000000000e+00 1.4036380481040892e+01 1.0000000000000000e+01 2.9959110778006533e+01 
297 298 2 1.0280000000000009e+00 -4.6297268173127384e+02 1.0000000000000000e+00 2.1406951510200471e+01 1.0000000000000000e+01 2.9632202930361810e+01 
762 763 2 1.0280000000000005e+00 -5.0419434613660655e+02 1.0000000000000000e+00 2.7871885894999867e+01 1.2600000000000000e+01 2.9810428159829339e+01 
1011 1012 2 1.0280000000000018e+00 1.8433236572278810e+02 1.0000000000000000e+00 2.6727529065860661e+01 1.5199999999999999e+01 2.8815612737359057e+01 
1142 1143 2 1.0279999999999996e+00 -1.3870019605422074e+03 1.0000000000000000e+00 3.2553203694426607e+01 1.5199999999999999e+01 2.9101646052550240e+01 
1771 1772 2 1.0279999999999994e+00 -1.0182468852960976e+03 1.0000000000000000e+00 6.3335759706190418e+00 1.7800000000000001e+01 2.9520827593254985e+01 
1605 1606 2 1.0280000000000042e+00 1.1854861987370052e+03 1.0000000000000000e+00 9.7668525517564593e+00 1.7800000000000001e+01 2.8471383242265105e+01 
1776 1777 2 1.0280000000410103e+00 7.6340657013788359e+02 1.0000000000000000e+00 1.4645039749358011e+01 1.7800000000000001e+01 2.9825898275167329e+01 
1388 1389 2 1.0279999999752762e+00 7.6609141505217252e+01 1.0000000000000000e+00 1.6126789162989560e+01 1.7800000000000001e+01 2.8542011623422141e+01 
1516 1517 2 1.0280000000000018e+00 -1.0251327099045050e+03 1.0000000000000000e+00 3.1067771411433959e+01 1.7800000000000001e+01 2.8408601929142222e+01 
1474 1475 2 1.0280000000000018e+00 7.0453771518880603e+02 1.0000000000000000e+00 3.2322476491495536e+01 1.7800000000000001e+01 2.8848428661749637e+01 
274 275 2 1.0279999999999718e+00 3.7079262405344582e+02 1.0000000000000000e+00 3.0536026478201655e-01 1.0000000000000000e+01 3.0992199623363209e+01 
227 228 2 1.0280000000000005e+00 -3.9328070618103902e+02 1.0000000000000000e+00 1.2751431251616141e+01 1.0000000000000000e+01 3.0300633647590971e+01 
254 255 2 1.0280000000000009e+00 1.4317622234706704e+02 1.0000000000000000e+00 2.0710487379427850e+01 1.0000000000000000e+01 3.0764753197323760e+01 
548 549 2 1.0280000000000002e+00 -1.7783409756730526e+02 1.0000000000000000e+00 1.5341973339275297e+00 1.2600000000000000e+01 3.1306515635094311e+01 
759 760 2 1.0279999999999996e+00 -4.6293819213313202e+02 1.0000000000000000e+00 1.6729272719844399e+01 1.2600000000000000e+01 3.0150808270954727e+01 
716 717 2 1.0279999999999996e+00 1.4320582034089679e+02 1.0000000000000000e+00 1.6483484317891939e+01 1.2600000000000000e+01 3.1457453002361895e+01 
719 720 2 1.0280000000000005e+00 4.0449986158589525e+01 1.0000000000000000e+00 2.7669821079123707e+01 1.2600000000000000e+01 3.1124544670201757e+01 
1143 1144 2 1.0279999999999996e+00 1.1849849166472081e+03 1.0000000000000000e+00 3.2913184342916992e+01 1.5199999999999999e+01 3.0381546957058436e+01 
1841 1842 2 1.0280000001800174e+00 1.2251201670329152e+02 1.0000000000000000e+00 2.9656154218394298e-01 1.7800000000000001e+01 3.1335778137830065e+01 
1770 1771 2 1.0279999999999994e+00 6.5321595968178701e+02 1.0000000000000000e+00 7.2328994285857124e+00 1.7800000000000001e+01 3.0500087370126948e+01 
1404 1405 2 1.0279999999646661e+00 -6.3078669863756863e+02 1.0000000000000000e+00 1.3341886205792678e+01 1.7800000000000001e+01 3.0916875044508949e+01 
1403 1404 2 1.0280000000416050e+00 -3.2123930008388925e+02 1.0000000000000000e+00 1.5172503979519210e+01 1.7800000000000001e+01 3.1639316393223908e+01 
1775 1776 2 1.0279999999867997e+00 3.6441183666508914e+02 1.0000000000000000e+00 1.6246780335224319e+01 1.7800000000000001e+01 3.0067622109074922e+01 
1764 1765 2 1.0279999999999996e+00 4.1667360590052702e+01 1.0000000000000000e+00 2.1522222582339388e+01 1.7800000000000001e+01 3.1584097905576161e+01 
1612 1613 2 1.0279999999999965e+00 7.5614956712893076e+01 1.0000000000000000e+00 3.2336600666227021e+01 1.7800000000000001e+01 3.1454469151703389e+01 
590 591 2 1.0280000000000002e+00 1.5993910421642946e+02 1.0000000000000000e+00 2.4330743604817688e+00 1.2600000000000000e+01 3.2286185213973567e+01 
1319 1320 2 1.0279999999999982e+00 -2.9397294876431607e+02 1.0000000000000000e+00 2.6099650093906359e+01 1.5199999999999999e+01 3.2665461199479097e+01 
1354 1355 2 1.0279999999999996e+00 -1.9426091283729920e+02 1.0000000000000000e+00 2.9817187404725942e+01 1.5199999999999999e+01 3.2233297018333850e+01 