LAMMPS data file via write_data, version 30 Jul 2016, timestep = 50000000

384 atoms
2 atom types

0.0000000000000000e+00 2.0000000000000000e+01 xlo xhi
0.0000000000000000e+00 2.0000000000000000e+01 ylo yhi
0.0000000000000000e+00 2.0000000000000000e+01 zlo zhi

Masses

1 3.896
2 4.31

Atoms # meso-molecular

282 1 2 1.1605763643715645e+00 1.3795471426227861e+01 1.0000000000000000e+00 2.3523887306154534e-01 3.2792655007523841e+00 3.3169172027048133e-01 
16 1 2 1.1605682584842913e+00 1.2909099983190625e+01 1.0000000000000000e+00 5.5529288397629788e+00 3.4660623227453380e+00 7.2263007916432853e-01 
287 1 2 1.1605682584842913e+00 1.5786397987150551e+01 1.0000000000000000e+00 9.6461824773413218e-01 7.3855762887092764e+00 1.1681536587472392e+00 
156 1 2 1.1605682584842913e+00 -1.0738044077029329e+01 1.0000000000000000e+00 2.6063061005696064e+00 3.7559248424295810e-02 2.5193550273781145e+00 
372 1 2 1.1605682584842913e+00 1.2123864149769346e+01 1.0000000000000000e+00 6.2961535340910437e+00 9.2033914481063872e-01 2.5369473871679902e+00 
384 1 2 1.1605682584842913e+00 1.0423390586922483e+01 1.0000000000000000e+00 3.2608461336503152e+00 2.1747481980355827e+00 2.3448072220992353e+00 
153 1 2 1.1605763443825583e+00 -1.4291866194926500e+01 1.0000000000000000e+00 5.3312538093435703e-02 4.5762763036335157e+00 1.7736293168910049e+00 
233 1 2 1.1605682584842913e+00 -1.2620999396522322e+02 1.0000000000000000e+00 2.6222782540234522e+00 4.6531036925299283e+00 1.6714307783166196e+00 
216 1 2 1.1605682584842913e+00 -8.0826312533452978e+01 1.0000000000000000e+00 2.7617871536507925e+00 7.3338551214651826e+00 2.7650288790389901e+00 
180 1 2 1.1605682584842913e+00 1.4449329473532725e+01 1.0000000000000000e+00 6.7607396955839882e-01 9.4303600607561240e+00 1.9852933653639826e+00 
59 1 2 1.1605701344589965e+00 1.2833894399050257e+01 1.0000000000000000e+00 1.3378581364116395e+00 2.7159569177033620e+00 3.2433506369532736e+00 
235 1 2 1.1605682584842913e+00 9.0509489131159384e+00 1.0000000000000000e+00 5.0489991487798989e+00 1.7029566561082516e+00 4.1815931714359316e+00 
224 1 2 1.1605682584842913e+00 1.6437846529213594e+01 1.0000000000000000e+00 4.9594742235098446e+00 4.1272673056215412e+00 3.5970038738465160e+00 
66 1 2 1.1605682584842913e+00 1.6217946525061684e+01 1.0000000000000000e+00 2.8435797576113133e+00 5.1376394228152362e+00 3.6877713607287346e+00 
335 1 2 1.1605682584842913e+00 1.1094596023565899e+01 1.0000000000000000e+00 5.6855335751361622e+00 6.6053708786575731e+00 3.0293098811251040e+00 
352 1 2 1.1605682584842913e+00 2.0333219755637060e+01 1.0000000000000000e+00 2.5244011664137327e+00 8.8877466620258083e+00 4.1363314130359647e+00 
44 1 2 1.1605840325290617e+00 1.1699596514679788e+01 1.0000000000000000e+00 6.4559803017200839e+00 9.1335037244544051e+00 3.6324544705223563e+00 
231 1 2 1.1605682584842913e+00 -6.8556748382416615e+00 1.0000000000000000e+00 4.6009796228679960e+00 4.7550840122512668e+00 5.6368124020730423e+00 
3 1 2 1.1605682584842913e+00 1.3343118911345666e+01 1.0000000000000000e+00 3.7029353698831273e+00 6.8271971967033487e+00 4.7398058279293940e+00 
49 1 2 1.1605682584842913e+00 1.6973259889180753e+01 1.0000000000000000e+00 5.5392306195929848e+00 8.5054137104602781e+00 5.4802108781205749e+00 
19 1 2 1.1605682584842913e+00 1.9815096476966595e+01 1.0000000000000000e+00 6.6661168959729604e+00 2.5130456815321276e+00 6.5330778609219884e+00 
50 1 2 1.1605682584842913e+00 1.3843141787630852e+01 1.0000000000000000e+00 2.4555794943241809e+00 5.5004735465804817e+00 6.9861774150169156e+00 
310 1 2 1.1605682584842913e+00 1.6267154260046709e+01 1.0000000000000000e+00 2.0682534571045164e-01 6.3696876915816016e+00 7.0201272335587870e+00 
172 1 2 1.1605682584842913e+00 -6.7588553669582954e+00 1.0000000000000000e+00 1.9357665001691240e+00 3.4725389488154872e+00 8.5188885771886902e+00 
179 1 2 1.1605682584842913e+00 1.0262035756616733e+01 1.0000000000000000e+00 5.0457157573814362e+00 3.6513011543665437e+00 7.7180618594402528e+00 
134 1 2 1.1605682584842913e+00 1.4307245166750182e+01 1.0000000000000000e+00 6.4800391840865510e+00 7.8985525675156794e+00 7.1771595763201246e+00 
88 1 2 1.1605682584842913e+00 1.7155867346989723e+01 1.0000000000000000e+00 1.7135431178241376e+00 8.9085500745939648e+00 7.3266900001119408e+00 
212 1 2 1.1605682584842913e+00 7.2033590551255511e+00 1.0000000000000000e+00 4.5657757401889034e+00 8.9622887780627334e+00 8.0452749640700567e+00 
223 1 2 1.1605682584842913e+00 1.0963729185416323e+01 1.0000000000000000e+00 4.8225514996465755e+00 1.2610288500216729e+00 9.7072888822049386e+00 
151 1 2 1.1605682584842913e+00 1.8474115940025328e+01 1.0000000000000000e+00 8.0623073300498538e-01 2.2741745591124949e+00 9.9176865776739529e+00 
316 1 2 1.1605682584842913e+00 -2.5599945684323892e+01 1.0000000000000000e+00 3.5605270065069745e+00 4.5465133705896070e+00 9.9860236266539140e+00 
170 1 2 1.1605694602765955e+00 1.2011660937245480e+01 1.0000000000000000e+00 6.1534702955825002e+00 6.4135005273040981e+00 8.9341325151877324e+00 
259 1 2 1.1605682584842913e+00 1.9612033138068448e+01 1.0000000000000000e+00 9.3372936667708739e-01 6.5248322364793401e+00 1.0815102996980100e+01 
11 1 2 1.1605682584842913e+00 1.6645738661290316e+01 1.0000000000000000e+00 5.6283640018446208e+00 5.8191108705658054e+00 1.0847895952301879e+01 
144 1 2 1.1605682584842913e+00 1.3082767585238379e+01 1.0000000000000000e+00 5.3886785837295799e+00 7.9082605559576375e+00 1.0296854832901953e+01 
36 1 2 1.1605682727084836e+00 9.0825258243838825e+00 1.0000000000000000e+00 2.2206979942359588e+00 8.7885565106745442e+00 1.0060753212641119e+01 
204 1 2 1.1605682727084836e+00 9.8879987691573348e+00 1.0000000000000000e+00 4.0293886995112436e+00 9.5311440738437341e+00 1.0427793530394089e+01 
141 1 2 1.1605682584842913e+00 9.9541034159155792e+00 1.0000000000000000e+00 4.2526273274489346e-01 6.4784500306392523e-01 1.1623044153236293e+01 
228 1 2 1.1605682584842913e+00 -2.4518258221055845e+01 1.0000000000000000e+00 1.2346806896290148e+00 3.5407491500846580e+00 1.1863160187047631e+01 
268 1 2 1.1605682584842913e+00 1.1561937252269434e+01 1.0000000000000000e+00 4.4401689524372205e+00 4.8194025107987359e+00 1.2554355972853436e+01 
361 1 2 1.1605682584842913e+00 1.2853333761507539e+01 1.0000000000000000e+00 6.1616938647932962e+00 7.3008963235245208e+00 1.2229574738776069e+01 
264 1 2 1.1605682584842913e+00 1.0595660228476724e+01 1.0000000000000000e+00 1.3071116821825504e+00 2.0942013749157438e+00 1.3424352521196683e+01 
210 1 2 1.1605682584842913e+00 1.7818056635416974e+00 1.0000000000000000e+00 3.9833963313951983e+00 1.8855857687696318e+00 1.3898836425062671e+01 
328 1 2 1.1605682584842913e+00 1.6824867352672349e+01 1.0000000000000000e+00 1.2491542165451293e+00 9.9614375463304956e+00 1.3770271959610755e+01 
81 1 2 1.1605682584842913e+00 1.3879229851768258e+01 1.0000000000000000e+00 2.8891151400630184e+00 8.9268792834776693e+00 1.3111124925267090e+01 
21 1 2 1.1605682584843715e+00 1.0579444972670871e+01 1.0000000000000000e+00 4.6634154904430840e+00 2.7848791867775740e+00 1.5669697255476279e+01 
173 1 2 1.1605682584843715e+00 1.1757349832194979e+01 1.0000000000000000e+00 6.6398084855960136e+00 3.0858420930358279e+00 1.5617290109008051e+01 
138 1 2 1.1605682584842913e+00 -1.1841489819524978e+02 1.0000000000000000e+00 6.3133103424490633e-01 4.9048893881513278e+00 1.5713006290295688e+01 
348 1 2 1.1605682584842913e+00 1.1774522036591613e+01 1.0000000000000000e+00 1.9397006415207165e+00 6.9496592175644771e+00 1.4644954836865313e+01 
27 1 2 1.1605682584842913e+00 1.3265387596132680e+01 1.0000000000000000e+00 2.1836974764481920e+00 9.3792916659481289e+00 1.5566069552355795e+01 
133 1 2 1.1605682584842913e+00 1.2538386409620266e+01 1.0000000000000000e+00 6.0418860959526439e+00 4.3019411461634571e-01 1.6193084472555999e+01 
306 1 2 1.1605682584842913e+00 -2.0910051395577867e+01 1.0000000000000000e+00 2.2859939993658585e+00 3.3056880494149121e+00 1.6598557911562022e+01 
362 1 2 1.1605682584842913e+00 1.2143650868701268e+01 1.0000000000000000e+00 4.3984853231904237e+00 5.1833221023631078e+00 1.6760700942056964e+01 
303 1 2 1.1605682584842913e+00 1.6959787246090898e+00 1.0000000000000000e+00 4.3109429269587729e-01 7.3399808525716690e+00 1.6133356716130216e+01 
40 1 2 1.1605684464275456e+00 6.2354042031822665e+00 1.0000000000000000e+00 2.0999633560982085e+00 1.0258575513217436e+00 1.7941447678272226e+01 
269 1 2 1.1605810201317801e+00 1.4994298468444484e+01 1.0000000000000000e+00 3.8332685883514031e+00 2.0056864943874550e-01 1.7457351606279364e+01 
10 1 2 1.1605682584842913e+00 6.0280447021371746e+00 1.0000000000000000e+00 3.5606987073825032e+00 6.7274134485654153e+00 1.7857626778783349e+01 
132 1 2 1.1605682584842913e+00 1.1982896799996105e+01 1.0000000000000000e+00 4.5559435842753002e+00 8.5548333846140086e+00 1.7291304744301438e+01 
15 1 2 1.1605682584842913e+00 1.6856215433992382e+01 1.0000000000000000e+00 3.1090653426182424e-01 9.8266804788190214e+00 1.7396919682294513e+01 
91 1 2 1.1605682584842913e+00 1.2346170954539982e+01 1.0000000000000000e+00 4.7974123156920960e+00 1.8441365015096995e+00 1.9489928917333152e+01 
267 1 2 1.1605682584842913e+00 4.6060358507538837e+01 1.0000000000000000e+00 2.6236579203612913e+00 3.9900174261360042e+00 1.9416961330544762e+01 
226 1 2 1.1605682584842913e+00 2.5144847398273011e+00 1.0000000000000000e+00 6.1042780757385602e+00 7.2312006152521473e+00 1.9445518085795893e+01 
257 1 2 1.1605682584842913e+00 1.8711316158173162e+01 1.0000000000000000e+00 8.2673205703905739e-01 9.0555908554644358e+00 1.9468275765124009e+01 
301 1 2 1.1605682584842913e+00 1.5994221613217155e+01 1.0000000000000000e+00 3.3745576746316530e+00 1.2432771887372370e+01 8.4243955158197339e-02 
106 1 2 1.1605734090691233e+00 7.6869720177958465e+00 1.0000000000000000e+00 2.3425031316811364e+00 1.5419093206942845e+01 6.5465528542601725e-01 
272 1 2 1.1605682584842913e+00 1.7125830060235693e+01 1.0000000000000000e+00 4.6674333609980252e+00 1.5115043630912364e+01 1.0767582489922893e+00 
236 1 2 1.1605682584842913e+00 1.3978937641504746e+01 1.0000000000000000e+00 5.9735770457250252e+00 1.6851045940720379e+01 1.3400692936612690e+00 
54 1 2 1.1605682584842913e+00 1.5928299206111985e+01 1.0000000000000000e+00 4.7444908656929208e+00 1.0413980742513326e+01 2.0897311299969057e+00 
120 1 2 1.1605682584842913e+00 1.1822459570971791e+01 1.0000000000000000e+00 4.0073693309749334e+00 1.2731159765655107e+01 2.1392441790437431e+00 
42 1 2 1.1605682584842913e+00 1.5973364550538808e+01 1.0000000000000000e+00 3.3591406839295272e+00 1.4590075176743669e+01 2.8510743322300782e+00 
159 1 2 1.1605682584842913e+00 1.4947681724853886e+01 1.0000000000000000e+00 4.6482079099823101e+00 1.9292953049981225e+01 1.5655271909675283e+00 
2 1 2 1.1605682584842913e+00 1.0968632634091794e+01 1.0000000000000000e+00 1.3589331724423437e+00 1.2550590353399288e+01 3.2018935825053814e+00 
58 1 2 1.1605682584842913e+00 2.6340040763388458e+01 1.0000000000000000e+00 2.4520089702015411e+00 1.6288792223890972e+01 3.5569781308703017e+00 
377 1 2 1.1605682584842913e+00 1.0931886258476712e+01 1.0000000000000000e+00 5.0138362928340037e+00 1.6388707362811164e+01 3.8203007106657014e+00 
250 1 2 1.1605682584842913e+00 1.7536027630582744e+01 1.0000000000000000e+00 1.0018575582880926e+00 1.8794116187413636e+01 3.6208872321862482e+00 
340 1 2 1.1605682584842913e+00 1.3587019122546693e+01 1.0000000000000000e+00 1.6902599511076049e+00 1.1262475647129214e+01 5.0354977155634888e+00 
114 1 2 1.1605682584842913e+00 1.1955325198201674e+01 1.0000000000000000e+00 4.9307829475854152e+00 1.3643388670765006e+01 4.7500083948826273e+00 
139 1 2 1.1605682584842913e+00 -3.3112990366104839e+02 1.0000000000000000e+00 4.7600498998554064e-02 1.4454971034589841e+01 5.1999275347071672e+00 
329 1 2 1.1605683172084624e+00 1.4948779031497798e+01 1.0000000000000000e+00 3.5279143157556638e+00 1.7687933233489417e+01 4.9830117020861993e+00 
234 1 2 1.1605682584842913e+00 -1.2947125740986905e+02 1.0000000000000000e+00 3.0079111626800716e+00 1.2250020075658583e+01 6.7217249092812157e+00 
355 1 2 1.1605682584842913e+00 1.6838891026171126e+01 1.0000000000000000e+00 5.4816059144348204e+00 1.3260096780091352e+01 7.0590188623049910e+00 
217 1 2 1.1605683172084624e+00 6.6952003498812740e+00 1.0000000000000000e+00 4.8319694112901201e+00 1.7451621891431756e+01 6.4604358392425274e+00 
197 1 2 1.1605689282423828e+00 9.0519910313911787e+00 1.0000000000000000e+00 3.2360249802659573e+00 1.8807051975185889e+01 6.9992158694904143e+00 
147 1 2 1.1605682584842913e+00 -1.9138949663832375e+02 1.0000000000000000e+00 6.2884210068815163e+00 1.9507548110608486e+01 6.7248915158019704e+00 
55 1 2 1.1605682584842913e+00 1.5390287189082116e+01 1.0000000000000000e+00 3.9604401282249060e+00 1.1450304046748014e+01 8.3309424228796285e+00 
375 1 2 1.1605899059885878e+00 1.3704300273119587e+01 1.0000000000000000e+00 2.7818730306649395e+00 1.6406524553137025e+01 7.9608264703654505e+00 
289 1 2 1.1605710939673481e+00 1.2919366095179253e+01 1.0000000000000000e+00 1.6300363611151985e+00 1.8283691848890918e+01 8.0171717351452365e+00 
302 1 2 1.1605682584842913e+00 1.1937112834986614e+01 1.0000000000000000e+00 5.1142336614239647e-01 1.3901257973467347e+01 8.7785899381741679e+00 
63 1 2 1.1606010384973624e+00 1.3932404302235559e+01 1.0000000000000000e+00 2.3296493059368437e+00 1.5425566545432513e+01 9.5640560887591732e+00 
292 1 2 1.1605682584842913e+00 3.7801656780406989e-01 1.0000000000000000e+00 4.1208908106691480e+00 1.4304517524616182e+01 9.2157613291494282e+00 
252 1 2 1.1605793909930660e+00 1.1590800446410974e+01 1.0000000000000000e+00 7.5623074968797854e-01 1.6382400998732990e+01 8.9425525283528060e+00 
33 1 2 1.1605682584842913e+00 -1.7221005817459138e+00 1.0000000000000000e+00 6.1434081224306745e+00 1.6664674284375380e+01 8.7957181986047779e+00 
353 1 2 1.1605682584842913e+00 -4.0677637345907939e+01 1.0000000000000000e+00 3.2608441072688295e+00 1.8254651808138149e+01 9.4909744749507983e+00 
68 1 2 1.1605682584842913e+00 1.2780783721187586e+01 1.0000000000000000e+00 1.5944552632631064e+00 1.9407752239956995e+01 9.7270607472074495e+00 
4 1 2 1.1605682584842913e+00 2.0172172174873438e+01 1.0000000000000000e+00 6.4702637272614076e+00 1.0622181112825640e+01 1.0259314579142906e+01 
256 1 2 1.1605682584842913e+00 1.4405943949627339e+01 1.0000000000000000e+00 2.1596303767627210e+00 1.3010336387765427e+01 1.0386610990351862e+01 
34 1 2 1.1605682584842913e+00 -5.4217561715635672e+00 1.0000000000000000e+00 1.5832007634144001e+00 1.1647416192469326e+01 1.1896207971259875e+01 
315 1 2 1.1605683479647473e+00 1.9616650500796013e+01 1.0000000000000000e+00 4.9294034666190418e+00 1.2563699698574780e+01 1.2070743367908394e+01 
295 1 2 1.1605683478879940e+00 9.3115324748334807e+00 1.0000000000000000e+00 6.5222896807784272e+00 1.3665133436781653e+01 1.2498243678931260e+01 
1 1 2 1.1605682584842913e+00 1.4694445716972723e+01 1.0000000000000000e+00 3.1089437069832502e+00 1.4957035818826025e+01 1.2372606694545265e+01 
122 1 2 1.1605682584842913e+00 1.6827961675399429e+01 1.0000000000000000e+00 1.4476678399381298e+00 1.7552209472004289e+01 1.1440875972030165e+01 
186 1 2 1.1605682630831100e+00 9.4839939199863359e+00 1.0000000000000000e+00 3.4757353583020545e+00 1.8468809918261883e+01 1.1618596923235492e+01 
194 1 2 1.1605682630831100e+00 5.7886215153052305e+00 1.0000000000000000e+00 4.9387667636679096e+00 1.9705612393373137e+01 1.2165652220549026e+01 
350 1 2 1.1605682585610446e+00 -1.4562124352906781e+02 1.0000000000000000e+00 5.5116305286944378e+00 1.1250290784154252e+01 1.3458316320089308e+01 
225 1 2 1.1605682584842913e+00 8.4506852679173683e+00 1.0000000000000000e+00 1.2369926086152279e+00 1.4492199191889030e+01 1.3001502618328297e+01 
168 1 2 1.1605682584842913e+00 1.0979889955611355e+01 1.0000000000000000e+00 4.8176187520565232e+00 1.5003040299410969e+01 1.3428615001628627e+01 
291 1 2 1.1605682584842913e+00 1.3500754795384619e+01 1.0000000000000000e+00 4.5877657921965986e-01 1.6718576268270951e+01 1.3299440262053389e+01 
325 1 2 1.1605682584842913e+00 8.7628186292713544e+00 1.0000000000000000e+00 4.3949519137556861e+00 1.8226063460098416e+01 1.3425268898810275e+01 
61 1 2 1.1605682584842913e+00 1.2051770932734257e+01 1.0000000000000000e+00 1.7619146636249834e+00 1.2711329734254681e+01 1.4406061044330412e+01 
140 1 2 1.1605682584842913e+00 1.5892443992521638e+01 1.0000000000000000e+00 2.1853946050717479e+00 1.5742218282202419e+01 1.4411090958011908e+01 
312 1 2 1.1605682584842913e+00 1.0330077227292701e+01 1.0000000000000000e+00 5.8036989504185028e+00 1.6035858489389692e+01 1.5556942246869182e+01 
104 1 2 1.1605682584842913e+00 6.7991833733355573e+00 1.0000000000000000e+00 1.6064882164038408e+00 1.8193321761579384e+01 1.4806351335423434e+01 
304 1 2 1.1605682584842913e+00 1.6686581016302839e+01 1.0000000000000000e+00 6.2719820113143836e+00 1.8382579938688782e+01 1.4785747137578257e+01 
72 1 2 1.1605682584842913e+00 -2.1696103954336037e+00 1.0000000000000000e+00 3.9261254948332436e+00 1.1051172148202578e+01 1.6688214849201646e+01 
242 1 2 1.1605682584842913e+00 1.7349167386662046e+01 1.0000000000000000e+00 3.2897866079764078e+00 1.4033505508015768e+01 1.6277127425113104e+01 
12 1 2 1.1605682584842913e+00 1.0450097677244766e+01 1.0000000000000000e+00 1.2582176007903574e+00 1.5127203629064736e+01 1.6565819085462000e+01 
167 1 2 1.1606093951406720e+00 1.5488511672171294e+01 1.0000000000000000e+00 6.2106939214438606e-02 1.6677430167051813e+01 1.5840817969646418e+01 
158 1 2 1.1605682584842913e+00 -1.6079367233301930e+01 1.0000000000000000e+00 6.5613459107368959e+00 1.4062441711689941e+01 1.8493323002339558e+01 
286 1 2 1.1605808321885260e+00 1.1468458851281463e+01 1.0000000000000000e+00 4.2624014164366999e+00 1.8315569145818330e+01 1.7639567786289060e+01 
115 1 2 1.1605682584842913e+00 1.3848146070052039e+01 1.0000000000000000e+00 1.2707005283374303e-03 1.1698626919386674e+01 1.9562388518894895e+01 
308 1 2 1.1605734090691233e+00 -1.5713998003005839e+01 1.0000000000000000e+00 2.9894492290892796e+00 1.6992143618674152e+01 1.9693700259195339e+01 
195 1 2 1.1605682584842913e+00 1.4027305535495643e+01 1.0000000000000000e+00 6.4880664359121729e+00 1.6576774129658837e+01 1.9306181574400174e+01 
381 1 2 1.1605682584842913e+00 1.5610128593075466e+01 1.0000000000000000e+00 1.2717563809955143e+01 2.5596807649965641e+00 9.3368804115021031e-01 
326 1 2 1.1605682584842913e+00 1.1132184205009555e+01 1.0000000000000000e+00 6.9570296030315486e+00 5.5975762223649692e+00 1.2884673589414743e+00 
346 1 2 1.1605682584842913e+00 -4.2762364864014742e+01 1.0000000000000000e+00 1.1662856753704697e+01 7.3995262475046637e+00 4.3028756180457969e-02 
145 1 2 1.1605691275162033e+00 9.2817315977546837e+00 1.0000000000000000e+00 6.9171882573811443e+00 9.2449396049558192e+00 7.1713847546480136e-01 
160 1 2 1.1605682584842913e+00 1.3574321934159919e+01 1.0000000000000000e+00 1.0973143002090586e+01 2.9644926473126154e-01 2.6590251742873532e+00 
28 1 2 1.1605682584842913e+00 1.0264846259142191e+00 1.0000000000000000e+00 1.0465137530227077e+01 2.1692763819380891e+00 1.7135459041506758e+00 
246 1 2 1.1605682584842913e+00 1.2874588615981708e+01 1.0000000000000000e+00 9.8875549848311852e+00 5.1517655603533568e+00 2.4198306954835322e+00 
105 1 2 1.1605682584842913e+00 1.3721787621271108e+01 1.0000000000000000e+00 9.1604990880629718e+00 7.5572455150448281e+00 1.5842516755343403e+00 
117 1 2 1.1605682584842913e+00 8.1234455420205798e+00 1.0000000000000000e+00 1.1751583272308201e+01 8.0655728412125747e+00 2.1310163296593072e+00 
247 1 2 1.1605843874879487e+00 1.1561594347267636e+01 1.0000000000000000e+00 7.8008070166066501e+00 9.7807201726569062e+00 2.3947699685682515e+00 
89 1 2 1.1605682584842913e+00 1.5570979300863034e+01 1.0000000000000000e+00 7.7153678825507006e+00 2.2468042102681425e+00 3.5422329506814041e+00 
371 1 2 1.1605682584842913e+00 -3.8395651522713941e+00 1.0000000000000000e+00 7.9407484480251007e+00 5.0281585711782633e+00 2.9835596816322050e+00 
232 1 2 1.1605682584842913e+00 -7.1232595121660633e+00 1.0000000000000000e+00 9.7474451117240868e+00 1.1257141001780784e+00 4.9121756700906536e+00 
263 1 2 1.1605682584842913e+00 -1.0226955562059763e+02 1.0000000000000000e+00 8.1082709410023242e+00 3.6201357445285480e+00 5.4214499711583199e+00 
152 1 2 1.1605682584842913e+00 9.8539914219221281e+00 1.0000000000000000e+00 1.0579157997215084e+01 5.5612305490886067e+00 4.7063371685417472e+00 
258 1 2 1.1605687725573162e+00 1.5822864104149518e+01 1.0000000000000000e+00 7.3315257522925785e+00 7.6491522928365212e+00 4.5951067297464530e+00 
219 1 2 1.1605682584842913e+00 5.9696880365003118e+00 1.0000000000000000e+00 9.9292111144544997e+00 7.5743030609259785e+00 4.6932848178665489e+00 
251 1 2 1.1605682584842913e+00 8.0111726658937172e+00 1.0000000000000000e+00 1.2919484851570513e+01 7.4367749178301787e+00 4.8924216351885850e+00 
244 1 2 1.1605763353527154e+00 1.3117078884158989e+01 1.0000000000000000e+00 8.8356379939949363e+00 2.3128708271620151e+00 7.0287906737556112e+00 
14 1 2 1.1605682584842913e+00 -1.6702208015232975e+02 1.0000000000000000e+00 8.6747460781358452e+00 6.9548153102850820e+00 6.5796856288780665e+00 
130 1 2 1.1605682584842913e+00 3.8685094913847156e+00 1.0000000000000000e+00 1.0604907287302659e+01 2.6730957326402083e-01 8.3966166119934798e+00 
162 1 2 1.1605763353527154e+00 -6.5135488310302470e-01 1.0000000000000000e+00 1.0764599970733116e+01 2.4736865706432116e+00 7.2469004448577365e+00 
32 1 2 1.1605929263299297e+00 9.0706536086099465e+00 1.0000000000000000e+00 6.9826315847480194e+00 4.6975440057477780e+00 8.1555688395445287e+00 
344 1 2 1.1605682584842913e+00 1.6156674785230067e+01 1.0000000000000000e+00 1.0680324120378391e+01 4.3568995656155982e+00 8.4493391122570589e+00 
349 1 2 1.1605682584842913e+00 -4.2757232432592602e+01 1.0000000000000000e+00 1.1408310251388844e+01 6.2389373825253971e+00 7.2940417229273447e+00 
47 1 2 1.1605682584842913e+00 1.9659956841886348e+01 1.0000000000000000e+00 9.0106700185787165e+00 8.8274169350279195e+00 7.7813859540293020e+00 
101 1 2 1.1605682584842913e+00 9.8572454223666739e+00 1.0000000000000000e+00 1.1485222285157652e+01 8.6384502216165515e+00 7.1571738665123084e+00 
166 1 2 1.1605682584842913e+00 1.5762623669055635e+01 1.0000000000000000e+00 1.3041082862937730e+01 2.4630277717036830e+00 8.7114375779231992e+00 
248 1 2 1.1605682584842913e+00 1.2877284865441599e+01 1.0000000000000000e+00 8.1814963552844571e+00 3.6918006439805859e+00 9.5609513319710402e+00 
111 1 2 1.1605682584842913e+00 -1.1180856041922373e+00 1.0000000000000000e+00 1.2914291662929086e+01 4.3932778827406995e+00 9.4257343110000882e+00 
249 1 2 1.1605941281222338e+00 -2.6392614764272981e-01 1.0000000000000000e+00 8.0223595026516463e+00 5.8913137834003182e+00 9.2611579379655655e+00 
214 1 2 1.1605684349333247e+00 8.2577745253448498e+00 1.0000000000000000e+00 8.0399255338734879e+00 2.0343185144799598e+00 1.0918635733107575e+01 
181 1 2 1.1605682584842913e+00 4.6148914723412116e+00 1.0000000000000000e+00 1.0187252706358571e+01 2.4418815596429013e+00 1.1051908138016312e+01 
368 1 2 1.1605682584842913e+00 1.2251011434829746e+01 1.0000000000000000e+00 1.2603501032104152e+01 1.4788275774928861e+00 1.0586140960267731e+01 
281 1 2 1.1605682584842913e+00 1.8184489845591465e+01 1.0000000000000000e+00 9.3803592673987435e+00 5.0765319146362291e+00 1.1072812434386785e+01 
321 1 2 1.1605682857053456e+00 1.7134208969415972e+01 1.0000000000000000e+00 6.8128403349141626e+00 9.7615107632452014e-01 1.2069710039830861e+01 
343 1 2 1.1605682584842913e+00 4.1557464028752680e+00 1.0000000000000000e+00 9.4863062806414753e+00 7.6588572375248548e-02 1.2157096851635769e+01 
243 1 2 1.1605684077122704e+00 7.4530151033556082e+00 1.0000000000000000e+00 8.0121185427707058e+00 3.4433225952102000e+00 1.2310769844355457e+01 
254 1 2 1.1605682584842913e+00 1.2142885918976084e+01 1.0000000000000000e+00 1.1684451476095383e+01 3.5063548684264911e+00 1.2756532289310847e+01 
154 1 2 1.1605682584842913e+00 -7.6168271643745200e+00 1.0000000000000000e+00 1.3148484185534166e+01 5.0204930510039247e+00 1.1567004465290083e+01 
182 1 2 1.1605682584842913e+00 9.1218256505392219e+00 1.0000000000000000e+00 1.1647422473149989e+01 6.8088942127838648e+00 1.2458114766357253e+01 
369 1 2 1.1605682584842913e+00 1.6115541780610030e+01 1.0000000000000000e+00 8.9272340414111202e+00 8.1957003835724898e+00 1.2560393992947525e+01 
200 1 2 1.1605682584842913e+00 1.3421034623741896e+01 1.0000000000000000e+00 1.1804717120248542e+01 5.1570012964025764e+00 1.4087712697410440e+01 
174 1 2 1.1605682584842913e+00 1.0535599700722337e+01 1.0000000000000000e+00 7.0325186155617994e+00 5.8510738407437417e+00 1.3605156208697354e+01 
70 1 2 1.1605682584842913e+00 1.2524870637097667e+01 1.0000000000000000e+00 9.3642892712951280e+00 5.7924540562957114e+00 1.3001599293842959e+01 
109 1 2 1.1605682584842913e+00 1.3323458851918101e+01 1.0000000000000000e+00 1.2752961699487221e+01 7.1255876757751668e-01 1.4355419143567827e+01 
69 1 2 1.1605682584842913e+00 1.4087671400853921e+01 1.0000000000000000e+00 1.2116331732769529e+01 2.8285142345669141e+00 1.4715216529557834e+01 
163 1 2 1.1605682584842913e+00 7.2578761412375989e+00 1.0000000000000000e+00 7.8304531568710649e+00 8.0488128447839618e+00 1.5140256194522104e+01 
367 1 2 1.1605682584842913e+00 1.2357728846704497e+01 1.0000000000000000e+00 1.0583752487353591e+01 7.6410937220473691e+00 1.5300067716678786e+01 
43 1 2 1.1605682584842913e+00 7.9239061265063331e+00 1.0000000000000000e+00 9.7989714532000569e+00 9.8100056520283001e+00 1.5576352656488908e+01 
137 1 2 1.1605682783580329e+00 1.4341062793042569e+01 1.0000000000000000e+00 8.3638249474906274e+00 1.6930198997695307e+00 1.5805228749255557e+01 
17 1 2 1.1605682584842913e+00 -1.2154449030413296e+01 1.0000000000000000e+00 1.2458859799352684e+01 6.6166491716832665e+00 1.7034463024260024e+01 
220 1 2 1.1605738350701302e+00 -3.6867294599299449e+00 1.0000000000000000e+00 8.5474341006235139e+00 1.3093433574641884e+00 1.7791715562438885e+01 
176 1 2 1.1605682584842913e+00 1.4425572738684370e+01 1.0000000000000000e+00 8.9685106564208805e+00 4.0399577830283997e+00 1.7241577066500746e+01 
322 1 2 1.1605682584842913e+00 1.8923220133122008e+01 1.0000000000000000e+00 1.2356551245602526e+01 4.5602283926653486e+00 1.7236741943747276e+01 
51 1 2 1.1605682584842913e+00 1.3463864767107324e+01 1.0000000000000000e+00 9.6535966964615874e+00 6.7002144985971617e+00 1.7370560764960196e+01 
196 1 2 1.1605682584842913e+00 2.4532325431029847e+01 1.0000000000000000e+00 1.0569152600534839e+01 8.2634646905107285e+00 1.8406614886443855e+01 
31 1 2 1.1605682584842913e+00 -1.0102874451603476e+01 1.0000000000000000e+00 7.1732623820904973e+00 8.9376041751087314e+00 1.8282828787242767e+01 
18 1 2 1.1605738350701302e+00 -1.6989108236487631e+01 1.0000000000000000e+00 6.9382604142027429e+00 7.3164901802524662e-01 1.8734707924425493e+01 
116 1 2 1.1605682584842913e+00 -1.6224942157985105e+01 1.0000000000000000e+00 1.1492950742519607e+01 2.6752172045078013e+00 1.9023130288341271e+01 
319 1 2 1.1605682584842913e+00 -3.3786091636540803e+01 1.0000000000000000e+00 7.0903300492054582e+00 4.4305687879293307e+00 1.9038264449958579e+01 
317 1 2 1.1605682584842913e+00 -2.2210840033418727e+01 1.0000000000000000e+00 8.8423466602551439e+00 6.6033605492309082e+00 1.9328098553179224e+01 
290 1 2 1.1605719774208683e+00 -3.1121536963613330e+01 1.0000000000000000e+00 7.9519854719059424e+00 1.1071129285075592e+01 3.6977586077235203e-01 
374 1 2 1.1605682584842913e+00 1.1442092658962810e+01 1.0000000000000000e+00 1.1373813631663712e+01 1.4162130477551282e+01 1.9968467056443398e-01 
382 1 2 1.1605682584842913e+00 1.7018577584248369e+01 1.0000000000000000e+00 1.3294955946758986e+01 1.3623796151229675e+01 9.1114052597079453e-01 
363 1 2 1.1605682584842913e+00 1.5579953380099944e+01 1.0000000000000000e+00 7.1299345204620224e+00 1.4740048340357868e+01 4.1111637373434390e-01 
93 1 2 1.1605682584842913e+00 -4.2426943393401046e+01 1.0000000000000000e+00 7.9489724882026689e+00 1.9254765476556464e+01 3.2078912054693454e-01 
339 1 2 1.1605682584842913e+00 1.2296360889722582e+01 1.0000000000000000e+00 1.0491821450540185e+01 1.8882648175040757e+01 1.0398439998332911e+00 
60 1 2 1.1605683097817507e+00 1.1091307225096942e+01 1.0000000000000000e+00 1.0750088396297054e+01 1.1916276622293470e+01 2.6665773361142411e+00 
46 1 2 1.1605682584842913e+00 1.2111895530420025e+01 1.0000000000000000e+00 1.2764673018960156e+01 1.9572188109504069e+01 1.8187958486346765e+00 
92 1 2 1.1605682584842913e+00 1.3809975613890028e+01 1.0000000000000000e+00 8.4145036036563283e+00 1.1558160762961155e+01 4.2568453954921077e+00 
284 1 2 1.1605683097817507e+00 1.3827914890130709e+01 1.0000000000000000e+00 1.2045193661972190e+01 1.2767702124548276e+01 3.9075176688057076e+00 
380 1 2 1.1605682584842913e+00 7.7186892077875946e+00 1.0000000000000000e+00 9.2947319461978637e+00 1.3308874416118082e+01 3.0761921420420313e+00 
218 1 2 1.1605682584842913e+00 1.4569296213132457e+01 1.0000000000000000e+00 7.5385558744832712e+00 1.5440712291320111e+01 4.2235160411945243e+00 
274 1 2 1.1605682584842913e+00 1.6199935377030663e+01 1.0000000000000000e+00 1.1388242659872196e+01 1.7633531989902078e+01 3.3198562520802484e+00 
123 1 2 1.1605682584842913e+00 1.3077427994694368e+01 1.0000000000000000e+00 8.4027519439990463e+00 1.8973935448594858e+01 2.8583106875650053e+00 
255 1 2 1.1605682584842913e+00 1.0134958710234677e+01 1.0000000000000000e+00 7.5346908058213957e+00 1.0189898722041528e+01 5.6010642307138578e+00 
75 1 2 1.1605682584842913e+00 1.5105714982379368e+01 1.0000000000000000e+00 1.0146949908880995e+01 1.0791530920957889e+01 5.4264473195253293e+00 
86 1 2 1.1605682584842913e+00 1.5631565414057789e+01 1.0000000000000000e+00 9.6065042260288269e+00 1.4401119346269786e+01 4.8792345318462234e+00 
121 1 2 1.1605682584842913e+00 1.0025050621304349e+01 1.0000000000000000e+00 8.6109714441577765e+00 1.7088975617136953e+01 4.6716281772241430e+00 