LAMMPS data file via write_data, version 30 Jul 2016, timestep = 50000000

180 atoms
2 atom types

0.0000000000000000e+00 2.0000000000000000e+01 xlo xhi
0.0000000000000000e+00 2.0000000000000000e+01 ylo yhi
0.0000000000000000e+00 2.0000000000000000e+01 zlo zhi

Masses

1 3.896
2 4.31

Atoms # meso-molecular

124 1 2 1.0276795486574488e+00 -4.7750676943710675e+02 1.0000000000000000e+00 1.3170768058922116e+01 7.3130312762584886e+00 1.6224740762855664e+01 
126 1 2 1.0276795486574488e+00 -4.4783934561764192e+02 1.0000000000000000e+00 1.3170768058922116e+01 7.3130312762584886e+00 1.6224740762855664e+01 
123 1 2 1.0276795486574488e+00 -3.9727452936364648e+02 1.0000000000000000e+00 1.3170768058922116e+01 7.3130312762584886e+00 1.6224740762855664e+01 
162 1 2 1.0276795486574488e+00 -5.5809382584802700e+02 1.0000000000000000e+00 1.3170768058922116e+01 7.3130312762584886e+00 1.6224740762855664e+01 
168 1 2 1.0276795486574488e+00 -6.1277060052257400e+02 1.0000000000000000e+00 1.3170768058922116e+01 7.3130312762584886e+00 1.6224740762855664e+01 
132 1 2 1.0276795486574488e+00 -5.1398020817204485e+02 1.0000000000000000e+00 1.3170768058922116e+01 7.3130312762584886e+00 1.6224740762855664e+01 
166 1 2 1.0276795486574488e+00 -5.7732807063633186e+02 1.0000000000000000e+00 1.3170768058922116e+01 7.3130312762584886e+00 1.6224740762855664e+01 
167 1 2 1.0276795486574488e+00 -5.7462966476851375e+02 1.0000000000000000e+00 1.3170768058922116e+01 7.3130312762584886e+00 1.6224740762855664e+01 
130 1 2 1.0276795486574488e+00 -4.6895305061858357e+02 1.0000000000000000e+00 1.3170768058922116e+01 7.3130312762584886e+00 1.6224740762855664e+01 
131 1 2 1.0276795486574488e+00 -5.0719862746526178e+02 1.0000000000000000e+00 1.3170768058922116e+01 7.3130312762584886e+00 1.6224740762855664e+01 
161 1 2 1.0276795486574488e+00 -6.4484835131448062e+02 1.0000000000000000e+00 1.3170768058922116e+01 7.3130312762584886e+00 1.6224740762855664e+01 
160 1 2 1.0276795486574488e+00 -5.4654183108918699e+02 1.0000000000000000e+00 1.3170768058922116e+01 7.3130312762584886e+00 1.6224740762855664e+01 
155 1 2 1.0276795486574488e+00 -5.2104401716953600e+02 1.0000000000000000e+00 1.3170768058922116e+01 7.3130312762584886e+00 1.6224740762855664e+01 
154 1 2 1.0276795486574488e+00 -4.8206069336943983e+02 1.0000000000000000e+00 1.3170768058922116e+01 7.3130312762584886e+00 1.6224740762855664e+01 
125 1 2 1.0276795486574488e+00 -5.3827142044287575e+02 1.0000000000000000e+00 1.3170768058922116e+01 7.3130312762584886e+00 1.6224740762855664e+01 
5 1 2 1.0284746479522819e+00 -6.7387075009749935e+02 1.0000000000000000e+00 9.3103413049334947e+00 6.4860665528024599e+00 1.6352265968938347e+01 
6 1 2 1.0284746479522819e+00 -6.5506170267289644e+02 1.0000000000000000e+00 9.3103413049334947e+00 6.4860665528024599e+00 1.6352265968938347e+01 
41 1 2 1.0284746479522819e+00 -5.9710178777056694e+02 1.0000000000000000e+00 9.3103413049334947e+00 6.4860665528024599e+00 1.6352265968938347e+01 
42 1 2 1.0284746479522819e+00 -5.3330561773389149e+02 1.0000000000000000e+00 9.3103413049334947e+00 6.4860665528024599e+00 1.6352265968938347e+01 
12 1 2 1.0284746479522819e+00 -7.1133392778679854e+02 1.0000000000000000e+00 9.3103413049334947e+00 6.4860665528024599e+00 1.6352265968938347e+01 
11 1 2 1.0284746479522819e+00 -6.3225682910957107e+02 1.0000000000000000e+00 9.3103413049334947e+00 6.4860665528024599e+00 1.6352265968938347e+01 
48 1 2 1.0284746479522819e+00 -5.2831457301658099e+02 1.0000000000000000e+00 9.3103413049334947e+00 6.4860665528024599e+00 1.6352265968938347e+01 
47 1 2 1.0284746479522819e+00 -5.9139069140335698e+02 1.0000000000000000e+00 9.3103413049334947e+00 6.4860665528024599e+00 1.6352265968938347e+01 
83 1 2 1.0284746479522819e+00 -3.8245498725412756e+02 1.0000000000000000e+00 9.3103413049334947e+00 6.4860665528024599e+00 1.6352265968938347e+01 
46 1 2 1.0284746479522819e+00 -4.4534724730497817e+02 1.0000000000000000e+00 9.3103413049334947e+00 6.4860665528024599e+00 1.6352265968938347e+01 
52 1 2 1.0284746479522819e+00 -4.8097081920657888e+02 1.0000000000000000e+00 9.3103413049334947e+00 6.4860665528024599e+00 1.6352265968938347e+01 
53 1 2 1.0284746479522819e+00 -5.2709044334073315e+02 1.0000000000000000e+00 9.3103413049334947e+00 6.4860665528024599e+00 1.6352265968938347e+01 
59 1 2 1.0284746479522819e+00 -5.1233428329911703e+02 1.0000000000000000e+00 9.3103413049334947e+00 6.4860665528024599e+00 1.6352265968938347e+01 
82 1 2 1.0284746479522819e+00 -3.6058495191481353e+02 1.0000000000000000e+00 9.3103413049334947e+00 6.4860665528024599e+00 1.6352265968938347e+01 
88 1 2 1.0284746479522819e+00 -3.9332491400829394e+02 1.0000000000000000e+00 9.3103413049334947e+00 6.4860665528024599e+00 1.6352265968938347e+01 
89 1 2 1.0284746479522819e+00 -4.7290570638357133e+02 1.0000000000000000e+00 9.3103413049334947e+00 6.4860665528024599e+00 1.6352265968938347e+01 
10 1 2 1.0284746479522819e+00 -6.7901378135944742e+02 1.0000000000000000e+00 9.3103413049334947e+00 6.4860665528024599e+00 1.6352265968938347e+01 
16 1 2 1.0284746479522819e+00 -5.6416465204929330e+02 1.0000000000000000e+00 9.3103413049334947e+00 6.4860665528024599e+00 1.6352265968938347e+01 
22 1 2 1.0284746479522819e+00 -5.7164559109145875e+02 1.0000000000000000e+00 9.3103413049334947e+00 6.4860665528024599e+00 1.6352265968938347e+01 
17 1 2 1.0284746479522819e+00 -6.8804744322796876e+02 1.0000000000000000e+00 9.3103413049334947e+00 6.4860665528024599e+00 1.6352265968938347e+01 
18 1 2 1.0284746479522819e+00 -6.1285904804637266e+02 1.0000000000000000e+00 9.3103413049334947e+00 6.4860665528024599e+00 1.6352265968938347e+01 
54 1 2 1.0284746479522819e+00 -4.3494847743456103e+02 1.0000000000000000e+00 9.3103413049334947e+00 6.4860665528024599e+00 1.6352265968938347e+01 
116 1 2 1.0276845237363095e+00 -5.2440219381450436e+02 1.0000000000000000e+00 1.3170738305617226e+01 7.3130223166668404e+00 1.6224737542233274e+01 
121 1 2 1.0276846954550467e+00 -5.4208832044220424e+02 1.0000000000000000e+00 1.3170737139562013e+01 7.3130219280339981e+00 1.6224736904080732e+01 
85 1 2 1.0276846999721856e+00 -5.3964939953878388e+02 1.0000000000000000e+00 1.3170737107252688e+01 7.3130219152201859e+00 1.6224736879894941e+01 
84 1 2 1.0276847063110524e+00 -5.2053224201572766e+02 1.0000000000000000e+00 1.3170737061501558e+01 7.3130218971546457e+00 1.6224736844504879e+01 
115 1 2 1.0276847008084409e+00 -6.0041464271588643e+02 1.0000000000000000e+00 1.3170737101091094e+01 7.3130219138371748e+00 1.6224736875526677e+01 
109 1 2 1.0276847011173216e+00 -6.3742378084288896e+02 1.0000000000000000e+00 1.3170737098706701e+01 7.3130219140023884e+00 1.6224736874037166e+01 
151 1 2 1.0276846997941409e+00 -6.2893270680939270e+02 1.0000000000000000e+00 1.3170737108325598e+01 7.3130219170293431e+00 1.6224736881117018e+01 
157 1 2 1.0276846997332234e+00 -6.2376435651314682e+02 1.0000000000000000e+00 1.3170737109001207e+01 7.3130219156856366e+00 1.6224736881153049e+01 
120 1 2 1.0276847035857515e+00 -5.7698901535397431e+02 1.0000000000000000e+00 1.3170737081170440e+01 7.3130219053675187e+00 1.6224736860039819e+01 
145 1 2 1.0276847008708130e+00 -6.7397542377572267e+02 1.0000000000000000e+00 1.3170737100475174e+01 7.3130219147288988e+00 1.6224736875394647e+01 
78 1 2 1.0276847072304143e+00 -5.5720662774632490e+02 1.0000000000000000e+00 1.3170737054476074e+01 7.3130218967656608e+00 1.6224736839674062e+01 
156 1 2 1.0276847023828866e+00 -6.4305052231720140e+02 1.0000000000000000e+00 1.3170737089746986e+01 7.3130219094452835e+00 1.6224736866871513e+01 
150 1 2 1.0276847036675076e+00 -6.0574702930503497e+02 1.0000000000000000e+00 1.3170737080278402e+01 7.3130219070750879e+00 1.6224736859971554e+01 
79 1 2 1.0276847136990073e+00 -5.1246861432630135e+02 1.0000000000000000e+00 1.3170737007685675e+01 7.3130218741621968e+00 1.6224736800189596e+01 
90 1 2 1.0276847125155668e+00 -4.1522349465936526e+02 1.0000000000000000e+00 1.3170737016495513e+01 7.3130218770238162e+00 1.6224736807331546e+01 
119 1 2 1.0276847177421609e+00 -4.3405923739718730e+02 1.0000000000000000e+00 1.3170736976735064e+01 7.3130218688149924e+00 1.6224736776125170e+01 
152 1 2 1.0276817905396549e+00 -6.1692342134227954e+02 1.0000000000000000e+00 1.3170749978418936e+01 7.3130212744933285e+00 1.6224719215973156e+01 
37 1 2 1.0276611255107728e+00 -5.3903205526533759e+02 1.0000000000000000e+00 9.5783512107360362e+00 6.5345333009317423e+00 1.9897965177737316e+01 
2 1 2 1.0276611255107717e+00 -5.5734383472558807e+02 1.0000000000000000e+00 9.5783512106612143e+00 6.5345333008685778e+00 1.9897965177720550e+01 
1 1 2 1.0276611255109083e+00 -6.2734144298383421e+02 1.0000000000000000e+00 9.5783512107376669e+00 6.5345333009197768e+00 1.9897965177736396e+01 
38 1 2 1.0276611255109800e+00 -4.8621844541769718e+02 1.0000000000000000e+00 9.5783512106750788e+00 6.5345333008664177e+00 1.9897965177721961e+01 
43 1 2 1.0276611255107844e+00 -5.7910862671986456e+02 1.0000000000000000e+00 9.5783512107370399e+00 6.5345333009517752e+00 1.9897965177738300e+01 
80 1 2 1.0276611255108064e+00 -6.2027569053256764e+02 1.0000000000000000e+00 9.5783512106282416e+00 6.5345333009000308e+00 1.9897965177715509e+01 
7 1 2 1.0276611255108428e+00 -7.3163200587566905e+02 1.0000000000000000e+00 9.5783512106821824e+00 6.5345333009426021e+00 1.9897965177727276e+01 
9 1 2 1.0276611255109511e+00 -6.1278714628536875e+02 1.0000000000000000e+00 9.5783512105472219e+00 6.5345333008660687e+00 1.9897965177698048e+01 
8 1 2 1.0276611255108710e+00 -7.2616224101633952e+02 1.0000000000000000e+00 9.5783512105917374e+00 6.5345333009079853e+00 1.9897965177708638e+01 
45 1 2 1.0276611255109425e+00 -5.1951951805137185e+02 1.0000000000000000e+00 9.5783512104526931e+00 6.5345333008436013e+00 1.9897965177679350e+01 
14 1 2 1.0276611255109052e+00 -7.1901591466402181e+02 1.0000000000000000e+00 9.5783512105662574e+00 6.5345333009187216e+00 1.9897965177704123e+01 
87 1 2 1.0276611255109347e+00 -3.7952408430847959e+02 1.0000000000000000e+00 9.5783512105068471e+00 6.5345333008840569e+00 1.9897965177691308e+01 
49 1 2 1.0276611255109431e+00 -4.9850307059095275e+02 1.0000000000000000e+00 9.5783512108058044e+00 6.5345333010579045e+00 1.9897965177754930e+01 
13 1 2 1.0276611255108428e+00 -7.3106511544091597e+02 1.0000000000000000e+00 9.5783512105908848e+00 6.5345333009395370e+00 1.9897965177709981e+01 
51 1 2 1.0276611255109322e+00 -5.3221839535104709e+02 1.0000000000000000e+00 9.5783512104557609e+00 6.5345333008759043e+00 1.9897965177681368e+01 
73 1 2 1.0276611255109176e+00 -5.4379808916232457e+02 1.0000000000000000e+00 9.5783512106170079e+00 6.5345333008865136e+00 1.9897965177712230e+01 
15 1 2 1.0276611255109394e+00 -6.9407694600786988e+02 1.0000000000000000e+00 9.5783512104863604e+00 6.5345333009104118e+00 1.9897965177688565e+01 
50 1 2 1.0276611255109340e+00 -5.9848710446897155e+02 1.0000000000000000e+00 9.5783512105169653e+00 6.5345333009264248e+00 1.9897965177695024e+01 
44 1 2 1.0276611255108135e+00 -6.4664360603259422e+02 1.0000000000000000e+00 9.5783512106349722e+00 6.5345333009087714e+00 1.9897965177717115e+01 
74 1 2 1.0276611255109078e+00 -5.3754124422083532e+02 1.0000000000000000e+00 9.5783512111163773e+00 6.5345333013472819e+00 1.9897965177825910e+01 
76 1 2 1.0276611254721713e+00 -4.9909393074073472e+02 1.0000000000000000e+00 9.5783510229109883e+00 6.5345331813224119e+00 1.9897965137500670e+01 
81 1 2 1.0276611254909240e+00 -4.1226241827121947e+02 1.0000000000000000e+00 9.5783511147203431e+00 6.5345332352374896e+00 1.9897965156974372e+01 
110 1 2 1.0276611254628700e+00 -5.8758299930908038e+02 1.0000000000000000e+00 9.5783509770196016e+00 6.5345331576176680e+00 1.9897965127905103e+01 
146 1 2 1.0276611254643333e+00 -7.5303231322429372e+02 1.0000000000000000e+00 9.5783509836516014e+00 6.5345331609318835e+00 1.9897965129286394e+01 
153 1 2 1.0276611254675483e+00 -6.4420781555656379e+02 1.0000000000000000e+00 9.5783510001913701e+00 6.5345331693959094e+00 1.9897965132742083e+01 
117 1 2 1.0276611254679360e+00 -5.6429325036483772e+02 1.0000000000000000e+00 9.5783510014461815e+00 6.5345331700556164e+00 1.9897965133004245e+01 
118 1 2 1.0276611254737078e+00 -4.7413628104383963e+02 1.0000000000000000e+00 9.5783510301594657e+00 6.5345331853592468e+00 1.9897965139028436e+01 
147 1 2 1.0276611254682539e+00 -7.3625289414412600e+02 1.0000000000000000e+00 9.5783510026819645e+00 6.5345331706406942e+00 1.9897965133259991e+01 
111 1 2 1.0276611254690220e+00 -6.0369846660130452e+02 1.0000000000000000e+00 9.5783510070603857e+00 6.5345331729124654e+00 1.9897965134176566e+01 
75 1 2 1.0276611254703667e+00 -5.2122898971400605e+02 1.0000000000000000e+00 9.5783510141247312e+00 6.5345331766605836e+00 1.9897965135658367e+01 
58 1 2 7.8499077541794593e-01 -4.6412843967201479e+02 1.0000000000000000e+00 7.9337655130960405e+00 1.4359938694362375e+01 1.2716803311375498e+01 
64 1 2 7.8499077541794593e-01 -4.7166741284112516e+02 1.0000000000000000e+00 7.9337655130961986e+00 1.4359938694363422e+01 1.2716803311376676e+01 
65 1 2 7.8499077541794593e-01 -6.1258577199203546e+02 1.0000000000000000e+00 7.9337655130961311e+00 1.4359938694364514e+01 1.2716803311375031e+01 
95 1 2 7.8499077541794593e-01 -4.5444853668920132e+02 1.0000000000000000e+00 7.9337655130959819e+00 1.4359938694364738e+01 1.2716803311376285e+01 
100 1 2 7.8499077541794593e-01 -4.6404030691380080e+02 1.0000000000000000e+00 7.9337655130960405e+00 1.4359938694363267e+01 1.2716803311376571e+01 
101 1 2 7.8499077541794593e-01 -5.7881425146353286e+02 1.0000000000000000e+00 7.9337655130966418e+00 1.4359938694362778e+01 1.2716803311374809e+01 
28 1 2 7.8499077541794593e-01 -5.4497201334203544e+02 1.0000000000000000e+00 7.9337655130958957e+00 1.4359938694362418e+01 1.2716803311374646e+01 
29 1 2 7.8499077541794593e-01 -6.2655064662902339e+02 1.0000000000000000e+00 7.9337655130954721e+00 1.4359938694364853e+01 1.2716803311376676e+01 
94 1 2 7.8499077541794593e-01 -3.3343097737866867e+02 1.0000000000000000e+00 7.9337655130951363e+00 1.4359938694364514e+01 1.2716803311374646e+01 
23 1 2 7.8499077541794593e-01 -6.6682967848799080e+02 1.0000000000000000e+00 7.9337655130948592e+00 1.4359938694362778e+01 1.2716803311375031e+01 
36 1 2 7.8499077541794593e-01 -6.5193937478782277e+02 1.0000000000000000e+00 7.9337655130959490e+00 1.4359938694363326e+01 1.2716803311374809e+01 
66 1 2 7.8499077541794593e-01 -6.1951676427043265e+02 1.0000000000000000e+00 7.9337655130955547e+00 1.4359938694365555e+01 1.2716803311374060e+01 
107 1 2 7.8499077541794593e-01 -5.6965005134400167e+02 1.0000000000000000e+00 7.9337655130966853e+00 1.4359938694363027e+01 1.2716803311376895e+01 
30 1 2 7.8499077541794593e-01 -6.9225507827879960e+02 1.0000000000000000e+00 7.9337655130955547e+00 1.4359938694365059e+01 1.2716803311375502e+01 
60 1 2 7.8499077541794593e-01 -5.7522250551757270e+02 1.0000000000000000e+00 7.9337655130954721e+00 1.4359938694363326e+01 1.2716803311377376e+01 
72 1 2 7.8499077541794593e-01 -5.2236474323857954e+02 1.0000000000000000e+00 7.9337655130958256e+00 1.4359938694363908e+01 1.2716803311375642e+01 
24 1 2 7.8499077541794593e-01 -7.3991965387257562e+02 1.0000000000000000e+00 7.9337655130958105e+00 1.4359938694364283e+01 1.2716803311375502e+01 
71 1 2 7.8499077541794593e-01 -5.3411776983685388e+02 1.0000000000000000e+00 7.9337655130961311e+00 1.4359938694362627e+01 1.2716803311376587e+01 
35 1 2 7.8499077541794593e-01 -5.5567180539120591e+02 1.0000000000000000e+00 7.9337655130960814e+00 1.4359938694363027e+01 1.2716803311376356e+01 
96 1 2 7.8499077541794593e-01 -4.4856686586557805e+02 1.0000000000000000e+00 7.9337655130954303e+00 1.4359938694365054e+01 1.2716803311376738e+01 
102 1 2 7.8499077541794593e-01 -4.4784478583096563e+02 1.0000000000000000e+00 7.9337655130960023e+00 1.4359938694362778e+01 1.2716803311376278e+01 
70 1 2 7.8499077541794593e-01 -4.9061469359129217e+02 1.0000000000000000e+00 7.9337655130953104e+00 1.4359938694364676e+01 1.2716803311375786e+01 
34 1 2 7.8499077541794593e-01 -6.7245490060757197e+02 1.0000000000000000e+00 7.9337655130963460e+00 1.4359938694364166e+01 1.2716803311376356e+01 
69 1 2 7.8499077541794593e-01 -4.4312306403846009e+02 1.0000000000000000e+00 7.9337655130954809e+00 1.4359938694362418e+01 1.2716803311375632e+01 
40 1 2 7.8499077541794593e-01 -4.8922706007350860e+02 1.0000000000000000e+00 7.9337655130965672e+00 1.4359938694362418e+01 1.2716803311374646e+01 
4 1 2 7.8499077541794593e-01 -4.4916168200928695e+02 1.0000000000000000e+00 7.9337655130963318e+00 1.4359938694362050e+01 1.2716803311375610e+01 
33 1 2 7.8499077541794593e-01 -5.1387217681077868e+02 1.0000000000000000e+00 7.9337655130955058e+00 1.4359938694365423e+01 1.2716803311375457e+01 
3 1 2 7.8499077541794593e-01 -5.3666465279950387e+02 1.0000000000000000e+00 7.9337655130959774e+00 1.4359938694363089e+01 1.2716803311375632e+01 
39 1 2 7.8499077541794593e-01 -4.3052047662099659e+02 1.0000000000000000e+00 7.9337655130959446e+00 1.4359938694365448e+01 1.2716803311375992e+01 
139 1 2 1.0280895702082711e+00 -5.5274170071266008e+02 1.0000000000000000e+00 1.5630214952246519e+01 1.4433322948576606e+01 2.1442129507853096e+00 
141 1 2 1.0279934575021781e+00 -4.7419531156849393e+02 1.0000000000000000e+00 1.5422654323165679e+01 1.4384189877974730e+01 2.3254458006614507e+00 
136 1 2 1.0279942472064609e+00 -4.1089212814289931e+02 1.0000000000000000e+00 1.5408282329844003e+01 1.4387639855046066e+01 2.3354283725948077e+00 
176 1 2 1.0279941529718331e+00 -6.5496825290655340e+02 1.0000000000000000e+00 1.5405831197668679e+01 1.4398291895031248e+01 2.3258452551362425e+00 
172 1 2 1.0279943925087884e+00 -4.5075370094722678e+02 1.0000000000000000e+00 1.5405057202931555e+01 1.4389472502243329e+01 2.3365345751162181e+00 
135 1 2 1.0279944108872836e+00 -5.0605651521175588e+02 1.0000000000000000e+00 1.5402785029441285e+01 1.4394899821465712e+01 2.3326356170797329e+00 
140 1 2 1.0279941718171566e+00 -6.0374723148176292e+02 1.0000000000000000e+00 1.5402126619897260e+01 1.4405417264196695e+01 2.3216518860080444e+00 
170 1 2 1.0279945167382609e+00 -6.3545232286130681e+02 1.0000000000000000e+00 1.5397016473247884e+01 1.4403968997421201e+01 2.3282780679854902e+00 
134 1 2 1.0279944850172233e+00 -6.1734558845135928e+02 1.0000000000000000e+00 1.5396225408679694e+01 1.4406879178669874e+01 2.3258748665720832e+00 
171 1 2 1.0279946921556362e+00 -5.5738199838086393e+02 1.0000000000000000e+00 1.5396035409250320e+01 1.4399653799526018e+01 2.3340568730931888e+00 
175 1 2 1.0279946404066407e+00 -7.6655768132978847e+02 1.0000000000000000e+00 1.5392586787038768e+01 1.4408814842986246e+01 2.3273971720569304e+00 
165 1 2 1.0279949202506036e+00 -5.5887541306445121e+02 1.0000000000000000e+00 1.5391736200380221e+01 1.4400171053387520e+01 2.3378467315842704e+00 
169 1 2 1.0279947999075525e+00 -8.5733280152021780e+02 1.0000000000000000e+00 1.5384771075451059e+01 1.4418851213601419e+01 2.3244433567308822e+00 
133 1 2 1.0279953207582837e+00 -6.2706404740609503e+02 1.0000000000000000e+00 1.5384138701253470e+01 1.4401048416683507e+01 2.3447357256884431e+00 
129 1 2 1.0279952421559118e+00 -5.0992144454407281e+02 1.0000000000000000e+00 1.5383655242667986e+01 1.4406030647076122e+01 2.3396101172818358e+00 
93 1 2 1.0279952745529162e+00 -4.2913313860837667e+02 1.0000000000000000e+00 1.5383095876848392e+01 1.4405904877415493e+01 2.3403348601935172e+00 
159 1 2 1.0279953341983199e+00 -6.0703952929555487e+02 1.0000000000000000e+00 1.5382865207735646e+01 1.4403223647114665e+01 2.3436010705126176e+00 
164 1 2 1.0279951811218349e+00 -6.3178918273812997e+02 1.0000000000000000e+00 1.5381923635664906e+01 1.4412019416654209e+01 2.3347615985885257e+00 
128 1 2 1.0279952831683623e+00 -5.7590095346318594e+02 1.0000000000000000e+00 1.5380698557822541e+01 1.4411366148118997e+01 2.3367551411636733e+00 
97 1 2 1.0279842705290070e+00 -5.3676885537490239e+02 1.0000000000000000e+00 1.5378408962995710e+01 1.4549318709629425e+01 2.2170222321940383e+00 
163 1 2 1.0279954952418904e+00 -7.3196059824630640e+02 1.0000000000000000e+00 1.5372164689079332e+01 1.4420835218610085e+01 2.3353368532035335e+00 
127 1 2 1.0279955763720081e+00 -6.3523287570327216e+02 1.0000000000000000e+00 1.5365960769438113e+01 1.4430728023921191e+01 2.3312890089287026e+00 
122 1 2 1.0279960371594370e+00 -4.4527800262609372e+02 1.0000000000000000e+00 1.5362506345761886e+01 1.4420566342281768e+01 2.3460077801861097e+00 
158 1 2 1.0279962408239298e+00 -5.6222737331832627e+02 1.0000000000000000e+00 1.5356412063178460e+01 1.4426128111588909e+01 2.3465818190361971e+00 
91 1 2 1.0279441600821488e+00 -5.1113159994526819e+02 1.0000000000000000e+00 1.6997514807726098e+01 1.5640486308183773e+01 3.7115657566381475e+00 
104 1 2 1.0280003491577401e+00 -4.7484763583253982e+02 1.0000000000000000e+00 1.6778875484259565e+01 1.5929668163964722e+01 3.7272197180452524e+00 
86 1 2 1.0280002312786853e+00 -3.2925319907070252e+02 1.0000000000000000e+00 1.6771066680129533e+01 1.5933956761077464e+01 3.7301397717671798e+00 
55 1 2 1.0280002295118860e+00 -4.9392406561219434e+02 1.0000000000000000e+00 1.6770984566462939e+01 1.5934097828620143e+01 3.7300649039571199e+00 
19 1 2 1.0280002295255031e+00 -6.3721516838337845e+02 1.0000000000000000e+00 1.6770980080312416e+01 1.5934100570937673e+01 3.7300662308579242e+00 
21 1 2 1.0280002303125562e+00 -6.5653870564910915e+02 1.0000000000000000e+00 1.6770971426374221e+01 1.5934077484460476e+01 3.7300997595733554e+00 
56 1 2 1.0280002303019700e+00 -4.9946441397673902e+02 1.0000000000000000e+00 1.6770973007727065e+01 1.5934079885004600e+01 3.7300956163247641e+00 
57 1 2 1.0280002290748846e+00 -4.4849819130100326e+02 1.0000000000000000e+00 1.6770968440256176e+01 1.5934078161150500e+01 3.7301019091165450e+00 
61 1 2 1.0280002293292152e+00 -5.9142260926022448e+02 1.0000000000000000e+00 1.6770967484254587e+01 1.5934106877957724e+01 3.7300714790245642e+00 
25 1 2 1.0280002291992136e+00 -5.7773686916517681e+02 1.0000000000000000e+00 1.6770968044520711e+01 1.5934105784057897e+01 3.7300721349298680e+00 
20 1 2 1.0280002293154837e+00 -5.7276893004802287e+02 1.0000000000000000e+00 1.6770965091687636e+01 1.5934092246410604e+01 3.7300897560598996e+00 
98 1 2 1.0280002289245660e+00 -4.6638615312608482e+02 1.0000000000000000e+00 1.6770956650567921e+01 1.5934116285485954e+01 3.7300716467605244e+00 
62 1 2 1.0280002286960808e+00 -5.3240801152102574e+02 1.0000000000000000e+00 1.6770950802811068e+01 1.5934111834439184e+01 3.7300821400160564e+00 
31 1 2 1.0280002289447105e+00 -6.0071536212768001e+02 1.0000000000000000e+00 1.6770950831869811e+01 1.5934119593254703e+01 3.7300736393002931e+00 
26 1 2 1.0280002288832677e+00 -5.7875682740004981e+02 1.0000000000000000e+00 1.6770944285540143e+01 1.5934116610041844e+01 3.7300832011587306e+00 
99 1 2 1.0280002285663514e+00 -3.7708974895295239e+02 1.0000000000000000e+00 1.6770941845576285e+01 1.5934109984367979e+01 3.7300927871362659e+00 
63 1 2 1.0280002288241736e+00 -4.3250996498271991e+02 1.0000000000000000e+00 1.6770942599514072e+01 1.5934112048136393e+01 3.7300898055627600e+00 
32 1 2 1.0280002291213450e+00 -6.3308387465140891e+02 1.0000000000000000e+00 1.6770940711679970e+01 1.5934122994725218e+01 3.7300796704385677e+00 
27 1 2 1.0280002288437788e+00 -4.9511293818034039e+02 1.0000000000000000e+00 1.6770938522629109e+01 1.5934117704515396e+01 3.7300875566145719e+00 
68 1 2 1.0280002285997296e+00 -4.7311530701126907e+02 1.0000000000000000e+00 1.6770936365412457e+01 1.5934128989359614e+01 3.7300773168967583e+00 
105 1 2 1.0280002285221483e+00 -4.3815617534344835e+02 1.0000000000000000e+00 1.6770932501946582e+01 1.5934126588527219e+01 3.7300836593145847e+00 
67 1 2 1.0280002284953194e+00 -4.2523749706077263e+02 1.0000000000000000e+00 1.6770932066179352e+01 1.5934137301490079e+01 3.7300723836761787e+00 
103 1 2 1.0280002274868316e+00 -4.8370293941159633e+02 1.0000000000000000e+00 1.6771053168831425e+01 1.5934316480814939e+01 3.7297600218940170e+00 
92 1 2 1.0280001899716498e+00 -4.3127051875426213e+02 1.0000000000000000e+00 1.6768427308187313e+01 1.5935219541202018e+01 3.7312955051503716e+00 
137 1 2 5.1430430113589565e-01 -4.7775037824010326e+02 1.0000000000000000e+00 1.5002798861004090e+01 1.7973545013857755e+01 1.3087272461158973e+01 
173 1 2 5.1430430113589565e-01 -5.8489186732716325e+02 1.0000000000000000e+00 1.5002798861003882e+01 1.7973545013857755e+01 1.3087272461157740e+01 
143 1 2 5.1430430113589565e-01 -6.6346589253654520e+02 1.0000000000000000e+00 1.5002798861003882e+01 1.7973545013856405e+01 1.3087272461157740e+01 
178 1 2 5.1430430113589565e-01 -5.7890148643236705e+02 1.0000000000000000e+00 1.5002798861003882e+01 1.7973545013857514e+01 1.3087272461158355e+01 
179 1 2 5.1430430113589565e-01 -7.2563396091488198e+02 1.0000000000000000e+00 1.5002798861003882e+01 1.7973545013858683e+01 1.3087272461157740e+01 
142 1 2 5.1430430113589565e-01 -5.6881717726164823e+02 1.0000000000000000e+00 1.5002798861004129e+01 1.7973545013857912e+01 1.3087272461158355e+01 
149 1 2 5.1430430113589565e-01 -7.9077549456138047e+02 1.0000000000000000e+00 1.5002798861003882e+01 1.7973545013857247e+01 1.3087272461158355e+01 
106 1 2 5.1430430113589565e-01 -5.1046495235781663e+02 1.0000000000000000e+00 1.5002798861003260e+01 1.7973545013857375e+01 1.3087272461158973e+01 
174 1 2 5.1430430113589565e-01 -6.6886561884962043e+02 1.0000000000000000e+00 1.5002798861004354e+01 1.7973545013857755e+01 1.3087272461157740e+01 
77 1 2 5.1430430113589565e-01 -5.3982291293967819e+02 1.0000000000000000e+00 1.5002798861003260e+01 1.7973545013857457e+01 1.3087272461159790e+01 
148 1 2 5.1430430113589565e-01 -7.2623535105238045e+02 1.0000000000000000e+00 1.5002798861004427e+01 1.7973545013857457e+01 1.3087272461158550e+01 
113 1 2 5.1430430113589565e-01 -5.3679404206967399e+02 1.0000000000000000e+00 1.5002798861003260e+01 1.7973545013857457e+01 1.3087272461159790e+01 
138 1 2 5.1430430113589565e-01 -6.0844907644190994e+02 1.0000000000000000e+00 1.5002798861004354e+01 1.7973545013857514e+01 1.3087272461157740e+01 
180 1 2 5.1430430113589565e-01 -6.4878595688714461e+02 1.0000000000000000e+00 1.5002798861003882e+01 1.7973545013857375e+01 1.3087272461159476e+01 
112 1 2 5.1430430113589565e-01 -4.7296758350507935e+02 1.0000000000000000e+00 1.5002798861004177e+01 1.7973545013857457e+01 1.3087272461157740e+01 
108 1 2 5.1430430113589565e-01 -4.6944512143491983e+02 1.0000000000000000e+00 1.5002798861003972e+01 1.7973545013859063e+01 1.3087272461159476e+01 
177 1 2 5.1430430113589565e-01 -6.2657144247923327e+02 1.0000000000000000e+00 1.5002798861004090e+01 1.7973545013858892e+01 1.3087272461157740e+01 
144 1 2 5.1430430113589565e-01 -5.7725521861601521e+02 1.0000000000000000e+00 1.5002798861003260e+01 1.7973545013857457e+01 1.3087272461158355e+01 
114 1 2 5.1430430113589565e-01 -4.7767559810967020e+02 1.0000000000000000e+00 1.5002798861004427e+01 1.7973545013857457e+01 1.3087272461157740e+01 

Velocities

124 2.3558204254475442e-03 5.0061234003455476e-04 -4.2686951362459272e-03
126 2.3558204254475442e-03 5.0061234003455476e-04 -4.2686951362459272e-03
123 2.3558204254475442e-03 5.0061234003455476e-04 -4.2686951362459272e-03
162 2.3558204254475442e-03 5.0061234003455476e-04 -4.2686951362459272e-03
168 2.3558204254475442e-03 5.0061234003455476e-04 -4.2686951362459272e-03
132 2.3558204254475442e-03 5.0061234003455476e-04 -4.2686951362459272e-03
166 2.3558204254475442e-03 5.0061234003455476e-04 -4.2686951362459272e-03
167 2.3558204254475442e-03 5.0061234003455476e-04 -4.2686951362459272e-03
130 2.3558204254475442e-03 5.0061234003455476e-04 -4.2686951362459272e-03
131 2.3558204254475442e-03 5.0061234003455476e-04 -4.2686951362459272e-03
161 2.3558204254475442e-03 5.0061234003455476e-04 -4.2686951362459272e-03
160 2.3558204254475442e-03 5.0061234003455476e-04 -4.2686951362459272e-03
155 2.3558204254475442e-03 5.0061234003455476e-04 -4.2686951362459272e-03
154 2.3558204254475442e-03 5.0061234003455476e-04 -4.2686951362459272e-03
125 2.3558204254475442e-03 5.0061234003455476e-04 -4.2686951362459272e-03
5 4.3362221793446709e-03 9.2378769242414149e-04 3.1252403678533034e-03
6 4.3362221793446709e-03 9.2378769242414149e-04 3.1252403678533034e-03
41 4.3362221793446709e-03 9.2378769242414149e-04 3.1252403678533034e-03
42 4.3362221793446709e-03 9.2378769242414149e-04 3.1252403678533034e-03
12 4.3362221793446709e-03 9.2378769242414149e-04 3.1252403678533034e-03
11 4.3362221793446709e-03 9.2378769242414149e-04 3.1252403678533034e-03
48 4.3362221793446709e-03 9.2378769242414149e-04 3.1252403678533034e-03
47 4.3362221793446709e-03 9.2378769242414149e-04 3.1252403678533034e-03
83 4.3362221793446709e-03 9.2378769242414149e-04 3.1252403678533034e-03
46 4.3362221793446709e-03 9.2378769242414149e-04 3.1252403678533034e-03
52 4.3362221793446709e-03 9.2378769242414149e-04 3.1252403678533034e-03
53 4.3362221793446709e-03 9.2378769242414149e-04 3.1252403678533034e-03
59 4.3362221793446709e-03 9.2378769242414149e-04 3.1252403678533034e-03
82 4.3362221793446709e-03 9.2378769242414149e-04 3.1252403678533034e-03
88 4.3362221793446709e-03 9.2378769242414149e-04 3.1252403678533034e-03
89 4.3362221793446709e-03 9.2378769242414149e-04 3.1252403678533034e-03
10 4.3362221793446709e-03 9.2378769242414149e-04 3.1252403678533034e-03
16 4.3362221793446709e-03 9.2378769242414149e-04 3.1252403678533034e-03
22 4.3362221793446709e-03 9.2378769242414149e-04 3.1252403678533034e-03
17 4.3362221793446709e-03 9.2378769242414149e-04 3.1252403678533034e-03
18 4.3362221793446709e-03 9.2378769242414149e-04 3.1252403678533034e-03
54 4.3362221793446709e-03 9.2378769242414149e-04 3.1252403678533034e-03
116 2.3362361783397958e-03 4.9636906966061016e-04 -4.2622115392883641e-03
121 2.3354247085510711e-03 4.9619270878317897e-04 -4.2619517214364452e-03
85 2.3354027383596658e-03 4.9618790543076111e-04 -4.2619446237326759e-03
84 2.3353718277778291e-03 4.9618114607622127e-04 -4.2619346254861492e-03
115 2.3353986693566576e-03 4.9618702605636273e-04 -4.2619433108942581e-03
109 2.3353971666512851e-03 4.9618670831760652e-04 -4.2619428276790159e-03