LAMMPS data file via write_data, version 30 Jul 2016, timestep = 100400000

603 atoms
2 atom types

0.0000000000000000e+00 2.0000000000000000e+01 xlo xhi
0.0000000000000000e+00 2.0000000000000000e+01 ylo yhi
0.0000000000000000e+00 2.0000000000000000e+01 zlo zhi

Masses

1 4.31
2 3.896

Atoms # meso-molecular

579 0 1 1.0280008886861385e+00 -3.5076438718943820e+01 1.0000000000000000e+00 5.8204044585239822e+00 7.7763622056879136e+00 3.1874124908602339e+00 
337 0 1 1.0280006498780287e+00 -4.5338829033096026e+01 1.0000000000000000e+00 5.8040771594439011e+00 7.7504597892046796e+00 3.2199508646032662e+00 
472 0 1 1.0280024926794018e+00 -3.0633433567796153e+01 1.0000000000000000e+00 5.7702249071274867e+00 7.8873360937818280e+00 3.2667077679354262e+00 
370 0 1 1.0279643018387712e+00 -1.2000783324560597e+01 1.0000000000000000e+00 6.4401334551892626e+00 6.2963290570697747e+00 4.7215353322794522e+00 
109 0 1 1.0279980198478478e+00 -2.8504122736458179e+01 1.0000000000000000e+00 6.5337154330953693e+00 5.5876452407535151e+00 5.2716064114089347e+00 
237 0 1 1.0280065186720284e+00 -3.0128339100155603e+01 1.0000000000000000e+00 6.5848699283640739e+00 5.2379817238594839e+00 5.4645200553302606e+00 
417 0 1 1.0279893174275043e+00 -2.4312731925071375e+01 1.0000000000000000e+00 6.0164285453457014e+00 6.9800128079555588e+00 4.8480693529253989e+00 
393 0 1 1.0280018119387544e+00 -5.0453630542879971e+01 1.0000000000000000e+00 5.7422109409293967e+00 8.3615399505015713e+00 3.6087272589678059e+00 
47 0 1 1.0280013815554749e+00 -3.9930603601515287e+01 1.0000000000000000e+00 5.8542964149058774e+00 8.7073611695811124e+00 4.0666935544731206e+00 
544 0 1 1.0279831714021281e+00 -2.6602428819233864e+01 1.0000000000000000e+00 6.2980700460702899e+00 9.0377193962871569e+00 4.6126215524899719e+00 
74 0 1 1.0273654830841266e+00 -3.6267073670403661e+01 1.0000000000000000e+00 6.3607022521863765e+00 9.0057593715633768e+00 6.3462516608075870e+00 
263 0 1 1.0282712353923704e+00 -1.4825599311468052e+01 1.0000000000000000e+00 5.6014898537662461e+00 9.0929075757886046e+00 6.4278971435725660e+00 
314 0 1 1.0283382843386715e+00 -3.1523548904321689e+01 1.0000000000000000e+00 6.6075327882089763e+00 7.8061819204241640e+00 6.3411967685983015e+00 
194 0 1 1.0280066294570869e+00 -1.7993285505939742e+01 1.0000000000000000e+00 5.2537458686311567e+00 3.1865915440663621e+00 8.3329845715613775e+00 
350 0 1 1.0280051786635789e+00 -3.8498997023039145e+01 1.0000000000000000e+00 5.2850961905490053e+00 3.3479769077122135e+00 8.8692180873211406e+00 
397 0 1 1.0280023555108653e+00 -2.6253115966188883e+01 1.0000000000000000e+00 5.3223053419311563e+00 3.4029832073668826e+00 8.9853667249616294e+00 
575 0 1 1.0279959596151094e+00 -4.6712073422073473e+01 1.0000000000000000e+00 5.3858669061872257e+00 3.6893942013667553e+00 7.3954048074167984e+00 
536 0 1 1.0279950462545822e+00 -2.1376870625835199e+01 1.0000000000000000e+00 5.3213830553942030e+00 3.9132802719720736e+00 7.3351381150422563e+00 
31 0 1 1.0279889505976612e+00 -2.7064538540889078e+01 1.0000000000000000e+00 5.3750788731943988e+00 5.2937671865877780e+00 7.9549261495675516e+00 
96 0 1 1.0279904952963916e+00 -2.1033068642646711e+01 1.0000000000000000e+00 5.2162573796628600e+00 5.2064425247774837e+00 8.1763593827397596e+00 
269 0 1 1.0279923175804342e+00 -1.0508386769011489e+01 1.0000000000000000e+00 5.2730812211160583e+00 4.0969149960052347e+00 7.3297817137258727e+00 
241 0 1 1.0280827577767397e+00 -4.4278144418850609e+01 1.0000000000000000e+00 5.4588676944879388e+00 6.3231184218706851e+00 9.2494142172412701e+00 
507 0 1 1.0280549831213692e+00 -2.0696717015862756e+01 1.0000000000000000e+00 6.3777922585856937e+00 4.8807714680074534e+00 6.7714258405895826e+00 
538 0 1 1.0280055642214236e+00 -3.5229295809862428e+01 1.0000000000000000e+00 2.9654645741874965e+00 9.2708867036981992e+00 8.4786537442160643e+00 
451 0 1 1.0280027437103885e+00 -1.7208893426684238e+01 1.0000000000000000e+00 4.1166970834584387e+00 7.8391462975976891e+00 7.3671896521742335e+00 
552 0 1 1.0279617980994054e+00 -3.2428927873595356e+01 1.0000000000000000e+00 6.1740485250480672e+00 9.2082197101904573e+00 9.9670907571662699e+00 
230 0 1 1.0279282949252306e+00 -2.5305209976818936e+01 1.0000000000000000e+00 6.1510424197295173e+00 7.2906337260742449e+00 9.1280317882114606e+00 
298 0 1 1.0279836763439736e+00 -1.4245789793042301e+01 1.0000000000000000e+00 3.8492661346980466e+00 9.6435594721195148e+00 7.1667795053001049e+00 
265 0 1 1.0279807776323528e+00 -1.0755041696338902e+01 1.0000000000000000e+00 3.8175157632210008e+00 9.8709774766996716e+00 7.2312883797696745e+00 
168 0 1 1.0280171527305366e+00 -6.4695651966302634e+01 1.0000000000000000e+00 4.1136094142207007e+00 8.7319054336383441e+00 9.2386116320402678e+00 
631 0 1 1.0279508277821621e+00 -4.1651842706686345e+01 1.0000000000000000e+00 5.9229679888874447e+00 8.6590586630671140e+00 9.1844219793879027e+00 
543 0 1 1.0280024768427445e+00 -1.8753338615701839e+01 1.0000000000000000e+00 4.1169113640808197e+00 7.8400370676120401e+00 7.3659914087212615e+00 
443 0 1 1.0280018738537176e+00 -1.1603728488828377e+01 1.0000000000000000e+00 4.1167711213545424e+00 7.8401009712608074e+00 7.3660614976137175e+00 
640 0 1 1.0280028700661081e+00 -5.1423814285012924e+01 1.0000000000000000e+00 4.1567022984566169e+00 7.7161874632931626e+00 7.4756584808264623e+00 
94 0 1 1.0280112438455222e+00 -3.1351082613864421e+01 1.0000000000000000e+00 4.4548124501338249e+00 7.3544018911097044e+00 7.7127198635385721e+00 
127 0 1 1.0279966142979904e+00 -4.6097779475110784e+01 1.0000000000000000e+00 4.7337770163766972e+00 5.6085023967189862e+00 1.2218656394652379e+01 
37 0 1 1.0279979654998204e+00 -3.9339655523300976e+01 1.0000000000000000e+00 4.4735974402210994e+00 5.5721755866920706e+00 1.1817365685810353e+01 
76 0 1 1.0279977862461298e+00 -3.8278105698485014e+01 1.0000000000000000e+00 4.4698094425753414e+00 5.5582878503398430e+00 1.1788989317718579e+01 
523 0 1 1.0280031695697469e+00 -2.7159057860581463e+01 1.0000000000000000e+00 6.1892908140145080e+00 4.9320426009192149e+00 1.1271851466332199e+01 
431 0 1 1.0279944529772636e+00 -8.1863669314906371e+00 1.0000000000000000e+00 4.9550346540879673e+00 5.5916758809931775e+00 1.2374238487841087e+01 
464 0 1 1.0279793714803933e+00 -2.8228944412255853e+01 1.0000000000000000e+00 5.6274368761111502e+00 4.7526891364018722e+00 1.0847416026298536e+01 
381 0 1 1.0280040085786561e+00 -1.1264862272825408e+01 1.0000000000000000e+00 5.4689975043570227e+00 6.4168194343606659e+00 1.3066549636825078e+01 
288 0 1 1.0279755659187690e+00 -4.6032845801331028e+01 1.0000000000000000e+00 5.9439585372916399e+00 4.3792590663545852e+00 1.0169048793758542e+01 
441 0 1 1.0280138815530016e+00 -3.1373716008584395e+01 1.0000000000000000e+00 4.5277601439616468e+00 6.4958876202202323e+00 1.0272528898437152e+01 
474 0 1 1.0280183095084880e+00 -2.7790789256091056e+01 1.0000000000000000e+00 4.4869030188510646e+00 6.5573786312278157e+00 1.0398645829830558e+01 
389 0 1 1.0280224959328925e+00 -1.8061395516158480e+01 1.0000000000000000e+00 4.5763544975679595e+00 6.5989544329375018e+00 1.0170456353780921e+01 
176 0 1 1.0280291143614069e+00 -4.3615149272058538e+01 1.0000000000000000e+00 4.7995498453186576e+00 7.1936009753994803e+00 1.1972780809883865e+01 
430 0 1 1.0279912008891912e+00 -1.1346447968771527e+01 1.0000000000000000e+00 4.6148330313944772e+00 8.9855982113233317e+00 1.2553873563709626e+01 
578 0 1 1.0279809615358622e+00 -2.9112649675092449e+01 1.0000000000000000e+00 3.6222965860194924e+00 9.7300556620752321e+00 1.1897017620171752e+01 
616 0 1 1.0279295820722825e+00 -4.1785468610565424e+01 1.0000000000000000e+00 4.0381197618855760e+00 9.9170465298836206e+00 1.0956726876317759e+01 
147 0 1 1.0279895115966211e+00 -3.1896085472604227e+01 1.0000000000000000e+00 5.2581183176264732e+00 8.7689020193425442e+00 1.1088170708058399e+01 
358 0 1 1.0279932420771929e+00 -2.6550402000386942e+01 1.0000000000000000e+00 6.5042593883295625e+00 7.8834485397439646e+00 1.2860933752605924e+01 
160 0 1 1.0281585997830145e+00 -5.3012755678914814e+01 1.0000000000000000e+00 5.2530242710058621e+00 8.7925510456041813e+00 1.0788132889680208e+01 
313 0 1 1.0279949112099100e+00 -2.4324177802202378e+01 1.0000000000000000e+00 6.4865527337339906e+00 6.4198795127460384e+00 1.5256635466479848e+01 
91 0 1 1.0279804904046910e+00 -5.4108275917455678e+01 1.0000000000000000e+00 6.2084480907248558e+00 7.0091381058705107e+00 1.3879501116889111e+01 
415 0 1 1.0279906248990167e+00 -2.7236287967179486e+01 1.0000000000000000e+00 6.1003056233470181e+00 6.9552448105738947e+00 1.3654658246397979e+01 
467 0 1 1.0279863576427664e+00 -1.9312520101687529e+01 1.0000000000000000e+00 6.4545238556870039e+00 7.2842632341460147e+00 1.4252032425181895e+01 
336 0 1 1.0279984605296286e+00 -4.4790266371976202e+01 1.0000000000000000e+00 5.3814836153987677e+00 9.6377946875798397e+00 1.3688123261034008e+01 
510 0 1 1.0279945021295098e+00 -3.0320899411678077e+01 1.0000000000000000e+00 4.8723762970057471e+00 1.1656301656947749e+01 4.3905605428040353e+00 
188 0 1 1.0280081690247060e+00 -3.1592039274591230e+01 1.0000000000000000e+00 4.7632258983743689e+00 1.0780451481946727e+01 5.0591487023380184e+00 
360 0 1 1.0280008534656051e+00 -1.7494651915307962e+01 1.0000000000000000e+00 5.4056971264370075e+00 1.2022322905081731e+01 4.2717036143695939e+00 
367 0 1 1.0279960935156289e+00 -1.7839510713833214e+01 1.0000000000000000e+00 4.9830791947056570e+00 1.1672479848866480e+01 4.2843936569764960e+00 
25 0 1 1.0280079522373999e+00 -3.8655551831144017e+01 1.0000000000000000e+00 4.7592819866025149e+00 1.0806904953942599e+01 4.9091215209835681e+00 
116 0 1 1.0280041562222701e+00 -1.9522589519351744e+01 1.0000000000000000e+00 4.8528176749667438e+00 1.0862003037341022e+01 4.5495352027372702e+00 
113 0 1 1.0280237860915045e+00 -4.8848095833449136e+01 1.0000000000000000e+00 6.3835330024630927e+00 1.2290231650960123e+01 4.5691536068859557e+00 
294 0 1 1.0280014532038098e+00 -2.2023830909231009e+01 1.0000000000000000e+00 5.4322106643248738e+00 1.2180973204817283e+01 4.4087084279934414e+00 
561 0 1 1.0279869147471015e+00 -5.5051855062031137e+01 1.0000000000000000e+00 5.7875578836073229e+00 1.3013718698639440e+01 6.6484022063845121e+00 
251 0 1 1.0279615225523093e+00 -2.9584041831133671e+01 1.0000000000000000e+00 5.2758319049038152e+00 1.1261715329600811e+01 6.5246549950657879e+00 
476 0 1 1.0280037213416011e+00 -4.4065771882582844e+01 1.0000000000000000e+00 6.3407698209722394e+00 1.4351157103015145e+01 5.5424214504495204e+00 
179 0 1 1.0280041043788855e+00 -1.0925396383196919e+01 1.0000000000000000e+00 6.4472816996856750e+00 1.4388716815555915e+01 5.5199176421097800e+00 
195 0 1 1.0280006233676739e+00 -1.8239553389329025e+01 1.0000000000000000e+00 6.4571288370133484e+00 1.5560409549271006e+01 6.3017653984458786e+00 
7 0 1 1.0280006353627087e+00 -8.2392303290163966e+01 1.0000000000000000e+00 6.4922462318433958e+00 1.5527081207198513e+01 6.1731540838417516e+00 
193 0 1 1.0280100089257904e+00 -1.9689644975524274e+01 1.0000000000000000e+00 2.6242723452468710e+00 1.0469175957485922e+01 8.7328727489789735e+00 
319 0 1 1.0280028162436476e+00 -2.5798744016572833e+01 1.0000000000000000e+00 2.7448046068265524e+00 1.0706600862901105e+01 8.3200261772313819e+00 
309 0 1 1.0280063012751277e+00 -2.8096582746056129e+01 1.0000000000000000e+00 2.7010478780996405e+00 1.0210032883888436e+01 9.0413089867920160e+00 
217 0 1 1.0280036944655864e+00 -4.5023603976950511e+01 1.0000000000000000e+00 2.7896194283704876e+00 1.0247718962786530e+01 8.0433374715304851e+00 
222 0 1 1.0279914168314650e+00 -1.0690990665752064e+01 1.0000000000000000e+00 3.4359844401900221e+00 1.1696665277295571e+01 8.7505201803147816e+00 
555 0 1 1.0283135227415636e+00 -4.4359457196094610e+01 1.0000000000000000e+00 5.9954442807209682e+00 1.1070409226874554e+01 8.0019810819630575e+00 
331 0 1 1.0279757466106358e+00 -3.9283195076990310e+01 1.0000000000000000e+00 4.4752390436870959e+00 1.2062566277073433e+01 8.5162612200049796e+00 
325 0 1 1.0279772374136007e+00 -4.9494300258123715e+01 1.0000000000000000e+00 4.2422534072719902e+00 1.2018311350651778e+01 8.6125779898884698e+00 
211 0 1 1.0279343543797215e+00 -2.9667234467364366e+01 1.0000000000000000e+00 5.9558775671741460e+00 1.1060334645325046e+01 7.8873329740586966e+00 
62 0 1 1.0280292373458535e+00 -3.3100496870661502e+01 1.0000000000000000e+00 5.0750594314753696e+00 1.2648115142072545e+01 8.5675313237934496e+00 
440 0 1 1.0277029384848466e+00 -9.1879207505330882e+00 1.0000000000000000e+00 6.5790997274197665e+00 1.1350555138676881e+01 9.0329901075919103e+00 
445 0 1 1.0279078012920986e+00 -1.0846186144201843e+01 1.0000000000000000e+00 6.5903820844209449e+00 1.0131207515464174e+01 9.9285213368286307e+00 
14 0 1 1.0280110527476833e+00 -8.2637564646031251e+01 1.0000000000000000e+00 5.1733928165568503e+00 1.4669835358731071e+01 9.9376581570922777e+00 
220 0 1 1.0279951713737876e+00 -2.2115276425526680e+01 1.0000000000000000e+00 5.5964296523147556e+00 1.3822701422514365e+01 7.0022098187271924e+00 
610 0 1 1.0280019587807649e+00 -6.8376935024575317e+01 1.0000000000000000e+00 5.6742384297776232e+00 1.4615002180455747e+01 7.1539281565329773e+00 
106 0 1 1.0280114323886198e+00 -3.4425287928020850e+01 1.0000000000000000e+00 5.2015082417251071e+00 1.4657746834389735e+01 9.8998263612430186e+00 
539 0 1 1.0280106139781338e+00 -4.3878950422062502e+01 1.0000000000000000e+00 5.1920469921538901e+00 1.4656837795565091e+01 9.9016225461851075e+00 
501 0 1 1.0279970772167222e+00 -2.2274693958316849e+01 1.0000000000000000e+00 5.5810418492585248e+00 1.3941687139997308e+01 7.1751902489690025e+00 
89 0 1 1.0280109594086417e+00 -4.1333266303201349e+01 1.0000000000000000e+00 5.1912294831253023e+00 1.4657937002344983e+01 9.9043301978715448e+00 
169 0 1 1.0279837960234772e+00 -4.4001131332992408e+01 1.0000000000000000e+00 3.5045990923154839e+00 1.0110110841225323e+01 1.0028523548210586e+01 
51 0 1 1.0280061322720266e+00 -3.6204800881200342e+01 1.0000000000000000e+00 3.8806779933605458e+00 1.1626882684088544e+01 1.0098310493358591e+01 
373 0 1 1.0279922325140123e+00 -2.0210514551520401e+01 1.0000000000000000e+00 4.1764960390878114e+00 1.2357888896318975e+01 1.1023925344788331e+01 
247 0 1 1.0281052312939751e+00 -3.7980289951307228e+01 1.0000000000000000e+00 4.2486793598961352e+00 1.1645801519697836e+01 1.0556986314821946e+01 
2 0 1 1.0280006307494982e+00 -6.9260165647394089e+01 1.0000000000000000e+00 3.4229710290199704e+00 1.0369516462217053e+01 1.3137375801718191e+01 
239 0 1 1.0280002330793812e+00 -4.5899036081558918e+01 1.0000000000000000e+00 3.4255930896599360e+00 1.0379567134118252e+01 1.3136013728732102e+01 
601 0 1 1.0280003224862435e+00 -3.8802183075561835e+01 1.0000000000000000e+00 3.4265331052746495e+00 1.0382404256284104e+01 1.3135993487429610e+01 
594 0 1 1.0279863675623624e+00 -3.9425705723483709e+01 1.0000000000000000e+00 5.4331302233683658e+00 1.2939410194401329e+01 1.1971654424444774e+01 
180 0 1 1.0280006601733556e+00 -1.7320776391718887e+01 1.0000000000000000e+00 3.4251123266678580e+00 1.0376176334748408e+01 1.3137397246837120e+01 
311 0 1 1.0280966486665861e+00 -1.5940033466551121e+01 1.0000000000000000e+00 5.7427004182301227e+00 1.0907937666607962e+01 1.1774121582791393e+01 
308 0 1 1.0280231026877411e+00 -1.9492030218896613e+01 1.0000000000000000e+00 6.2210166168233787e+00 1.2898479069499956e+01 1.1725427158303891e+01 
490 0 1 1.0279878233917186e+00 -7.5622107594265259e+01 1.0000000000000000e+00 5.1042539598594612e+00 1.2934953520288653e+01 1.1923907455915943e+01 
416 0 1 1.0279984617714357e+00 -2.2866902703775562e+01 1.0000000000000000e+00 3.4585552551144354e+00 1.0329407132633788e+01 1.3230125145236563e+01 
186 0 1 1.0279966724731413e+00 -2.4158728744336457e+01 1.0000000000000000e+00 4.4181312351167445e+00 1.4507830206594498e+01 1.1226727024079246e+01 
287 0 1 1.0279894195217041e+00 -4.3286586120436617e+01 1.0000000000000000e+00 4.1007981234402022e+00 1.4036067984522282e+01 1.1351632423960909e+01 
410 0 1 1.0279896296351299e+00 -3.1787983063089040e+01 1.0000000000000000e+00 4.0865221396080544e+00 1.4028600674596648e+01 1.1333888816640492e+01 
356 0 1 1.0279895107930814e+00 -1.6397483909660277e+01 1.0000000000000000e+00 4.0878625421603800e+00 1.4029221480604580e+01 1.1335659741840852e+01 
615 0 1 1.0279866824417168e+00 -3.3425194845195904e+01 1.0000000000000000e+00 5.9208659518432336e+00 1.1610537443856137e+01 1.5440793946831182e+01 
38 0 1 1.0280003607971573e+00 -4.0565857515964957e+01 1.0000000000000000e+00 5.4906604372588159e+00 1.0866558226464926e+01 1.5240489169107146e+01 
291 0 1 1.0279923780880140e+00 -1.9562495051148314e+01 1.0000000000000000e+00 5.6560564102329556e+00 1.1198252565569090e+01 1.5392245873907573e+01 
541 0 1 1.0279924302596548e+00 -2.7955652310731175e+01 1.0000000000000000e+00 5.7142455507318264e+00 1.1151776115514242e+01 1.5424880845695332e+01 
45 0 1 1.0279866650101666e+00 -3.5585857463556152e+01 1.0000000000000000e+00 6.0017383275582850e+00 1.1883869964167404e+01 1.5357900697122892e+01 
23 0 1 1.0279925349553456e+00 -3.2437519152255398e+01 1.0000000000000000e+00 5.6841983144891204e+00 1.1188002108451709e+01 1.5408932790012893e+01 
343 0 1 1.0280030477560882e+00 -2.5331473133119012e+01 1.0000000000000000e+00 4.8946604255548234e+00 1.0049498687405054e+01 1.4167183457430742e+01 
497 0 1 1.0279812381050775e+00 -5.9312896597185201e+01 1.0000000000000000e+00 6.1664379318598916e+00 1.4422868328378048e+01 1.4328332489470075e+01 
475 0 1 1.0279775335956851e+00 -3.8169155886483800e+01 1.0000000000000000e+00 6.1492435594615573e+00 1.4268652640069003e+01 1.4381429178440078e+01 
268 0 1 1.0279804989119288e+00 -9.7535356191472697e+00 1.0000000000000000e+00 6.1680311196179165e+00 1.4426548315992147e+01 1.4328007818192390e+01 
143 0 1 1.0279807220922330e+00 -2.1160704448674569e+01 1.0000000000000000e+00 6.1650458509154991e+00 1.4425386997965575e+01 1.4325901130564414e+01 
320 0 1 1.0279813184183402e+00 -2.2500026684124649e+01 1.0000000000000000e+00 6.1843137828578243e+00 1.4398465850572959e+01 1.4354472922098864e+01 
162 0 1 1.0279775275589609e+00 -7.8563086555584078e+01 1.0000000000000000e+00 6.1526041933120652e+00 1.4247497395663485e+01 1.4392775333222039e+01 
128 0 1 1.0279961265175042e+00 -3.1035289118938728e+01 1.0000000000000000e+00 7.8891596382207920e+00 7.7364463948351840e+00 2.7739596440200263e+00 
342 0 1 1.0279967882684304e+00 -1.7762168913034170e+01 1.0000000000000000e+00 7.8621559296136692e+00 7.7389155173462152e+00 2.7533500846787491e+00 
41 0 1 1.0279986204533802e+00 -4.0149444063942852e+01 1.0000000000000000e+00 7.6819249676345311e+00 7.5686132669770654e+00 2.6986094603145587e+00 
481 0 1 1.0279983226584513e+00 -2.3011381740676430e+01 1.0000000000000000e+00 7.8660152691765566e+00 7.7103330519174609e+00 2.7642703095038774e+00 
592 0 1 1.0279965653689627e+00 -3.1315969781019820e+01 1.0000000000000000e+00 7.8196773981198806e+00 7.8600568948060028e+00 2.7066216821749145e+00 
107 0 1 1.0280055510272059e+00 -3.7219133953843595e+01 1.0000000000000000e+00 8.8964577290052755e+00 4.3830371715364818e+00 4.4895102089952621e+00 
347 0 1 1.0280087269565179e+00 -2.3557874816908615e+01 1.0000000000000000e+00 8.8980750984196391e+00 4.1300462535442000e+00 5.3285665374677782e+00 
505 0 1 1.0280065511692893e+00 -2.8383712636964741e+01 1.0000000000000000e+00 8.2553327161055812e+00 4.6195427873658081e+00 4.2364305258596318e+00 
190 0 1 1.0280043632385130e+00 -3.4090662259290610e+01 1.0000000000000000e+00 8.8957647190930942e+00 4.3875814688586816e+00 4.4845840948465074e+00 
299 0 1 1.0280055593151232e+00 -1.1952451899309919e+01 1.0000000000000000e+00 8.9290362984415523e+00 4.3349018395787873e+00 4.5634727894569220e+00 
632 0 1 1.0280048458115163e+00 -4.1887226623142894e+01 1.0000000000000000e+00 8.7354984228712951e+00 4.5015126194738855e+00 4.3329745202784622e+00 
355 0 1 1.0280102155402808e+00 -1.8976522987544136e+01 1.0000000000000000e+00 6.8362568692243908e+00 5.0669849348908897e+00 5.0420130719483076e+00 
329 0 1 1.0279962509675111e+00 -6.6537378387997535e+01 1.0000000000000000e+00 6.8832578299201357e+00 5.6059298809867784e+00 4.6167063869433020e+00 
625 0 1 1.0279732423956858e+00 -3.2975463966278340e+01 1.0000000000000000e+00 9.5611381897604737e+00 5.9585816826406388e+00 5.4807995096265429e+00 
414 0 1 1.0280237839419992e+00 -3.2370434485478505e+01 1.0000000000000000e+00 1.0212016963430431e+01 6.0252053607351836e+00 5.5612982465382519e+00 
408 0 1 1.0280079867800567e+00 -4.5119842231935536e+01 1.0000000000000000e+00 1.0404854092044411e+01 6.0937416010690919e+00 5.3757004017033081e+00 
21 0 1 1.0280046667864851e+00 -3.8911818235655439e+01 1.0000000000000000e+00 1.2722562630893666e+01 4.4685011361783840e+00 6.4091214640046035e+00 
192 0 1 1.0280175227630424e+00 -1.3249891124218822e+01 1.0000000000000000e+00 1.2206453239967308e+01 5.1951316339723697e+00 6.2276294836246144e+00 
644 0 1 1.0280013922885618e+00 -6.8366904381877703e+01 1.0000000000000000e+00 1.2508743992514262e+01 5.7284723492385350e+00 5.9669289235773855e+00 
433 0 1 1.0280016293058194e+00 -3.5724892389970869e+01 1.0000000000000000e+00 1.1946963263834022e+01 6.5926814308675477e+00 3.6448488551291702e+00 
270 0 1 1.0278720648734716e+00 -2.8174238997891798e+01 1.0000000000000000e+00 8.8250996183607064e+00 8.3925581781801402e+00 3.9456547844403227e+00 
310 0 1 1.0277997711879847e+00 -3.7491470246604280e+01 1.0000000000000000e+00 8.9774583674867703e+00 8.8562001175828762e+00 5.7672977095659208e+00 
253 0 1 1.0279830602188029e+00 -3.5270239692950824e+01 1.0000000000000000e+00 8.7456969836460079e+00 8.9150661078263553e+00 4.8874481957036648e+00 
282 0 1 1.0279361273502072e+00 -1.5932548755847888e+01 1.0000000000000000e+00 9.7462510559270701e+00 8.9932081579905958e+00 4.9084359309712662e+00 
245 0 1 1.0283970769356452e+00 -7.6763810097633581e+01 1.0000000000000000e+00 8.6349005926794700e+00 8.8317862595954129e+00 5.0446091790478089e+00 
338 0 1 1.0279610173739833e+00 -2.4489341041548393e+01 1.0000000000000000e+00 9.5196928980709696e+00 9.2464745243064321e+00 4.6541181336220605e+00 
28 0 1 1.0280012132558232e+00 -7.0042780659767132e+01 1.0000000000000000e+00 6.7959482896011458e+00 8.0684851098471988e+00 6.3256637163793865e+00 
305 0 1 1.0279606372269807e+00 -1.3245056742277843e+01 1.0000000000000000e+00 1.2799258342390052e+01 6.6745980192087577e+00 5.0067200353558325e+00 
264 0 1 1.0280043249643454e+00 -9.5324406581197305e+00 1.0000000000000000e+00 1.0954125900173077e+01 7.1035447800335856e+00 3.7184034869878038e+00 
585 0 1 1.0280055633409024e+00 -4.3473435283177587e+01 1.0000000000000000e+00 1.0872440985847181e+01 7.1102601059185497e+00 3.7846633566928420e+00 
595 0 1 1.0279735836076140e+00 -6.5984814123028727e+01 1.0000000000000000e+00 1.2251438416674867e+01 7.4177646589908450e+00 3.5296917065607150e+00 
334 0 1 1.0279673242116651e+00 -3.3515525804731247e+01 1.0000000000000000e+00 1.2118857264843040e+01 7.7541066668061029e+00 3.5394629407132308e+00 
246 0 1 1.0280028483687567e+00 -6.9870775643499499e+01 1.0000000000000000e+00 1.1925656611903207e+01 6.6686310132068591e+00 3.5747802105367321e+00 
513 0 1 1.0279903569770101e+00 -3.2957288796264002e+01 1.0000000000000000e+00 1.2112648530202655e+01 6.8896070966027372e+00 3.5195816691451491e+00 
34 0 1 1.0279460530547906e+00 -4.1923686045237979e+01 1.0000000000000000e+00 1.1675394545422135e+01 9.4121035755461335e+00 4.6363639185565786e+00 
97 0 1 1.0281594478835205e+00 -4.1925687320775488e+01 1.0000000000000000e+00 1.2895038399613673e+01 7.8303579212795178e+00 5.9029628692762746e+00 
586 0 1 1.0282096882366676e+00 -2.6878612764320387e+01 1.0000000000000000e+00 1.1772521191206561e+01 9.3435991995495691e+00 4.9233207498522198e+00 
18 0 1 1.0280925285415652e+00 -3.2602081439138487e+01 1.0000000000000000e+00 1.2207158742771547e+01 8.8117627134935166e+00 6.3318425192007304e+00 
27 0 1 1.0278991495356908e+00 -5.0020728031772521e+01 1.0000000000000000e+00 1.1103573271793394e+01 7.4472534570938640e+00 6.3414986076201405e+00 
316 0 1 1.0280074135890616e+00 -5.8206184562019281e+01 1.0000000000000000e+00 9.2516286255775970e+00 2.6211589773238497e+00 7.2525108370782805e+00 
339 0 1 1.0279948551266609e+00 -7.8808147604600913e+00 1.0000000000000000e+00 9.3657935576052491e+00 2.0488422337051913e+00 7.5917233257791006e+00 
553 0 1 1.0280062450094141e+00 -3.9049419417619355e+01 1.0000000000000000e+00 9.2348893051047209e+00 2.6373461218362380e+00 7.2652243843101392e+00 
200 0 1 1.0279878881469544e+00 -2.3656091959171412e+01 1.0000000000000000e+00 6.8851706896614395e+00 3.0997624662358780e+00 8.8161077339552580e+00 
643 0 1 1.0279888689289509e+00 -4.6038819386467864e+01 1.0000000000000000e+00 6.8865610223621934e+00 3.0949213925172385e+00 8.7718105665166188e+00 
434 0 1 1.0279905398884102e+00 -4.9435397179520251e+01 1.0000000000000000e+00 7.0426613953236190e+00 3.1428436354771438e+00 8.6615008055689398e+00 
99 0 1 1.0279956737492475e+00 -4.8068754842856158e+01 1.0000000000000000e+00 9.6210059970875914e+00 2.0347692389618852e+00 7.2598108490467377e+00 
278 0 1 1.0279956284521528e+00 -2.4568933833910695e+01 1.0000000000000000e+00 1.1007095978566149e+01 1.9628961139399725e+00 8.6058238000900040e+00 
285 0 1 1.0279958565695844e+00 -2.6953499129636520e+00 1.0000000000000000e+00 1.1017169116813221e+01 1.9926292584913425e+00 8.6349659827643777e+00 
295 0 1 1.0279908411945093e+00 -2.8905938029821286e+01 1.0000000000000000e+00 1.0849189470432060e+01 1.7257142991258303e+00 8.3462223521713828e+00 
492 0 1 1.0280505381163756e+00 -4.4626866675029085e+01 1.0000000000000000e+00 1.0975781807729010e+01 3.2110507263566679e+00 9.3859598275489127e+00 
545 0 1 1.0279935066397485e+00 -3.3747010451799397e+01 1.0000000000000000e+00 1.0890360313110540e+01 1.7291450268404935e+00 8.3099492034722982e+00 
605 0 1 1.0280033657611627e+00 -4.1795085994087657e+01 1.0000000000000000e+00 1.0272085839149828e+01 2.0937223549843869e+00 7.0022169261432206e+00 
6 0 1 1.0280234039426621e+00 -6.3243449384236001e+01 1.0000000000000000e+00 1.1193619182964932e+01 2.9187640622666389e+00 7.0601748736116772e+00 
26 0 1 1.0282716935971166e+00 -3.9615925241311231e+01 1.0000000000000000e+00 8.5110777377809033e+00 3.8410918982147786e+00 8.6812655821935394e+00 
234 0 1 1.0276351244551711e+00 -2.2955531004024916e+01 1.0000000000000000e+00 8.6723175254689018e+00 5.4535023398387157e+00 7.4253052593287663e+00 
365 0 1 1.0276966009427924e+00 -5.3069923788089696e+01 1.0000000000000000e+00 8.7022318927411551e+00 4.2022073461329708e+00 9.0208836582643990e+00 
43 0 1 1.0282013144977311e+00 -6.8496185842600113e+01 1.0000000000000000e+00 7.5353666203089622e+00 5.8009469213814047e+00 7.7412042851689611e+00 
566 0 1 1.0280916679823533e+00 -4.6297747234611975e+01 1.0000000000000000e+00 8.6148841426096574e+00 3.9897141703672765e+00 9.1888918437367479e+00 
146 0 1 1.0281018965101929e+00 -2.7428692717591524e+01 1.0000000000000000e+00 8.0908237364722044e+00 6.0982992656318871e+00 7.0777184278392538e+00 
119 0 1 1.0281253187262307e+00 -3.4797410308580503e+01 1.0000000000000000e+00 9.1613724770910974e+00 5.9114297730346337e+00 9.5540568200855134e+00 
422 0 1 1.0274852899488742e+00 -2.0682692438816552e+01 1.0000000000000000e+00 7.5982867977356747e+00 6.6282735597798528e+00 7.5886361715362121e+00 
402 0 1 1.0286062640300933e+00 -4.4118585908017444e+01 1.0000000000000000e+00 9.7554089177412902e+00 6.0544841311567499e+00 7.4891002784947318e+00 
519 0 1 1.0275171299116066e+00 -2.4886383333586370e+01 1.0000000000000000e+00 1.0528348017285817e+01 5.0466563697193267e+00 7.1511282427796790e+00 
354 0 1 1.0282391542722615e+00 -1.7414302264224453e+01 1.0000000000000000e+00 1.0518768967416820e+01 4.8882098078329355e+00 6.7938142617140320e+00 
206 0 1 1.0280283205726684e+00 -2.3873710901927732e+00 1.0000000000000000e+00 1.2458788573763105e+01 3.8605231064439769e+00 7.5341055164160320e+00 
214 0 1 1.0280606243266874e+00 -1.7087183024093513e+01 1.0000000000000000e+00 1.1424416242409478e+01 5.5793726953113225e+00 9.8259097642214250e+00 
163 0 1 1.0280718530348774e+00 -6.8262197658683604e+01 1.0000000000000000e+00 1.1947734022665216e+01 4.0069720458481104e+00 7.1877723369783517e+00 
412 0 1 1.0278893603498900e+00 -4.0840874455343339e+01 1.0000000000000000e+00 1.0893255020070745e+01 4.4283974302985767e+00 9.2095689369287541e+00 
82 0 1 1.0279758023770034e+00 -5.6222602886185726e+01 1.0000000000000000e+00 1.1802140170165524e+01 3.9590190534291181e+00 9.1300149870569225e+00 
457 0 1 1.0275652889493945e+00 -1.4191741086232813e+01 1.0000000000000000e+00 1.0880577184996193e+01 6.3905685568153130e+00 9.8853783705700469e+00 
574 0 1 1.0280074318567889e+00 -6.8079964991190266e+01 1.0000000000000000e+00 1.3234842174855329e+01 6.4166354468486659e+00 7.6112248116514047e+00 
78 0 1 1.0280224130799225e+00 -6.3809427142394050e+01 1.0000000000000000e+00 1.3237267030918501e+01 4.0240432457393291e+00 8.9265485839749132e+00 
537 0 1 1.0284482881845902e+00 -1.7090970955939770e+01 1.0000000000000000e+00 1.0729611450987429e+01 6.0436437605348674e+00 9.8397519165236460e+00 
252 0 1 1.0278326010101155e+00 -3.6960693046201030e+01 1.0000000000000000e+00 8.1512569173422076e+00 9.6454358414700980e+00 8.9636497092593981e+00 
315 0 1 1.0280102286993944e+00 -4.3313812595257147e+01 1.0000000000000000e+00 7.5704279731603794e+00 7.9429818853045706e+00 7.3715059721081921e+00 
63 0 1 1.0277788430214636e+00 -4.0197721139419698e+01 1.0000000000000000e+00 9.4258442591161149e+00 8.4962502068234347e+00 8.4904920138973079e+00 
364 0 1 1.0285149762607733e+00 -3.8559082441819989e+01 1.0000000000000000e+00 7.5915629367526023e+00 8.9659646042939958e+00 9.5793554183767657e+00 
88 0 1 1.0278898234981662e+00 -3.8890031414466819e+01 1.0000000000000000e+00 7.1665164801805767e+00 8.7885182628035139e+00 8.7779542952753307e+00 
33 0 1 1.0283418916336189e+00 -2.9945799930925919e+01 1.0000000000000000e+00 8.3386213388082382e+00 7.4474914799431682e+00 8.1257180082598239e+00 