LAMMPS data file via write_data, version 30 Jul 2016, timestep = 50000000

384 atoms
2 atom types

0.0000000000000000e+00 2.0000000000000000e+01 xlo xhi
0.0000000000000000e+00 2.0000000000000000e+01 ylo yhi
0.0000000000000000e+00 2.0000000000000000e+01 zlo zhi

Masses

1 3.89
2 2.094

Atoms # meso-molecular

32 1 2 8.0000000000001403e-01 3.2651167041272888e+00 1.0000000000000000e+00 6.0407186415343828e-01 5.6785285246130828e+00 1.3266965010796821e+00 
160 1 2 7.9999999999999749e-01 7.9753538863306197e+00 1.0000000000000000e+00 1.0661299180869050e+00 5.0792392904622607e+00 1.6435678393365103e+00 
39 1 2 7.9999999999998617e-01 2.2706375399093162e+00 1.0000000000000000e+00 1.6305931975900012e+00 5.4498912745996861e+00 1.9197032096841808e+00 
152 1 2 8.0000000000000016e-01 1.1192364058520209e+01 1.0000000000000000e+00 1.3140430583885709e+00 6.1618784917324270e+00 9.6299938515622541e-01 
88 1 2 7.9999999999997295e-01 -2.1303063937715336e+01 1.0000000000000000e+00 1.1915497698947859e+00 6.1672895599619695e+00 9.9126295474060278e-01 
71 1 2 7.9999999999999327e-01 -1.5205950017375056e+01 1.0000000000000000e+00 5.6347977264854587e-01 9.9956292269709266e+00 9.1453452677359701e-02 
38 1 2 7.9999999999993843e-01 -9.7990555934105861e-01 1.0000000000000000e+00 1.0121750598344066e+00 9.6252654015161507e+00 6.4310973550672412e-01 
56 1 2 7.9999999999997096e-01 1.0257477796154809e+01 1.0000000000000000e+00 2.3128087381997027e+00 8.3681780169706794e+00 9.5063342709198750e-02 
272 1 2 7.9999999999999161e-01 1.0214006299110383e+00 1.0000000000000000e+00 2.4223052522769675e+00 8.5363376748111737e+00 8.2693835205334187e-01 
175 1 2 7.9999999999999194e-01 -5.8106214750460223e+00 1.0000000000000000e+00 2.4620043783020749e+00 8.5527041057134827e+00 8.8994385688146882e-01 
37 1 2 8.0000000000002436e-01 -2.1187233691634226e+01 1.0000000000000000e+00 3.1259609251871159e+00 9.1073749848722532e+00 1.3021145519783202e+00 
55 1 2 7.9999999999999927e-01 1.0780320330070651e+01 1.0000000000000000e+00 3.5454060255702431e+00 8.7154522091408726e+00 1.9907629165083252e+00 
24 1 2 8.0000000000000848e-01 -3.0499891074095714e+01 1.0000000000000000e+00 1.0451400635038515e+00 5.6791540727002054e+00 2.2934171746563332e+00 
96 1 2 8.0000000000002003e-01 1.9227844913969047e+01 1.0000000000000000e+00 1.0545056369820411e+00 5.6841742896050196e+00 2.2943877008625755e+00 
328 1 2 8.0000000000000626e-01 9.5215765515857664e-01 1.0000000000000000e+00 4.0711998723760905e+00 8.0513121221610664e+00 3.5747050814666701e+00 
279 1 2 8.0000000000000560e-01 -5.4946250997637058e-01 1.0000000000000000e+00 4.1554260743759466e+00 8.1283517112718986e+00 3.5835612993169255e+00 
271 1 2 8.0000000000000915e-01 -2.0499460694184442e+01 1.0000000000000000e+00 4.1555811768636941e+00 8.1289387074034103e+00 3.5836399896552940e+00 
243 1 2 8.0000000000000981e-01 7.9639096473656039e+00 1.0000000000000000e+00 4.1660616182260144e+00 8.1396648539357077e+00 3.5820210269874604e+00 
126 1 2 8.0000000000000004e-01 4.0024891042650917e-01 1.0000000000000000e+00 3.8596162964298069e+00 8.2400158676668109e+00 2.2418053349844165e+00 
343 1 2 7.9999999999999316e-01 5.0756430500061548e+01 1.0000000000000000e+00 3.6483809755143546e+00 8.7487384938251704e+00 2.1474180357966777e+00 
110 1 2 7.9999999999994531e-01 -1.9119288926899571e+01 1.0000000000000000e+00 1.1783007438084628e-01 7.8803514001275872e+00 4.0890669140782867e+00 
288 1 2 8.0000000000000915e-01 1.1015244375426754e+01 1.0000000000000000e+00 4.9091105526280659e-01 8.4312221229517537e+00 6.7075618628228142e+00 
159 1 2 8.0000000000000715e-01 2.9507545515546695e+01 1.0000000000000000e+00 4.7225506838096354e-01 8.4193468383172121e+00 6.8309590111556791e+00 
59 1 2 8.0000000000000249e-01 -1.8538449952640875e+01 1.0000000000000000e+00 1.0070918810013934e+00 9.6716529178247708e+00 6.8124617464020183e+00 
61 1 2 7.9999999999998661e-01 -7.7224008646420312e+00 1.0000000000000000e+00 1.4791750869109037e+00 9.5019573299580262e+00 6.7909853895438257e+00 
36 1 2 7.9999999999999449e-01 8.7348148290863605e+00 1.0000000000000000e+00 1.5169012402598583e+00 8.6588788980018290e+00 6.4374860615149840e+00 
310 1 2 7.9999999999998961e-01 -9.1384619875384310e+00 1.0000000000000000e+00 1.6312065704683081e+00 8.7626980035998603e+00 6.5324875615334008e+00 
99 1 2 8.0000000000000759e-01 -1.4503978172995851e+01 1.0000000000000000e+00 4.1357146458740229e-01 9.2992949093998796e+00 7.7285397860173140e+00 
166 1 2 7.9999999999997051e-01 -3.2121122466020871e+01 1.0000000000000000e+00 9.6088109835252500e-01 8.8267306008890305e+00 7.7491771509754237e+00 
46 1 2 7.9999999999994298e-01 -7.3465552252930246e+00 1.0000000000000000e+00 3.6747995352991569e-01 9.4343042938010928e+00 9.9535343675904322e+00 
124 1 2 8.0000000000002913e-01 4.8883614504958164e+00 1.0000000000000000e+00 6.4913458783358058e-01 9.3988985747132254e+00 9.8915100160297591e+00 
107 1 2 8.0000000000004379e-01 6.2104748151505884e+00 1.0000000000000000e+00 5.6246715234301348e-01 9.3157904051150986e+00 9.4882572399604683e+00 
170 1 2 8.0000000000001503e-01 -2.4500482273365613e+01 1.0000000000000000e+00 7.1681002637556834e-01 9.3855811371015534e+00 9.7724149250207919e+00 
189 1 2 8.0000000000018368e-01 -1.1326228125596069e+01 1.0000000000000000e+00 1.6916927496405290e+00 7.3808952525564484e+00 1.7089096045711937e+01 
128 1 2 7.9999999999992699e-01 -1.0614731987510957e+01 1.0000000000000000e+00 1.3965295596394309e+00 7.1242849327436222e+00 1.7171932960632621e+01 
119 1 2 7.9999999999996996e-01 2.1952950713387910e+01 1.0000000000000000e+00 1.3885349269645186e+00 7.1320539988968692e+00 1.7178862008538921e+01 
111 1 2 7.9999999999996385e-01 -9.5304870879411610e+00 1.0000000000000000e+00 1.3717424605797399e+00 7.1306136197739942e+00 1.7247994812745997e+01 
176 1 2 7.9999999999991267e-01 9.9166125370127389e+00 1.0000000000000000e+00 2.1449287636360013e+00 7.5537089576724705e+00 1.7556985222539403e+01 
205 1 2 7.9999999999998017e-01 -4.8804268702770450e+00 1.0000000000000000e+00 2.9756445708639698e+00 7.0496477187966855e+00 1.8441953057730053e+01 
141 1 2 7.9999999999999305e-01 1.9880536026143613e+01 1.0000000000000000e+00 3.2724874059665470e+00 7.3539610761576863e+00 1.8647530167064083e+01 
70 1 2 7.9999999999996485e-01 3.1060059336229564e+00 1.0000000000000000e+00 3.3995076348423328e+00 7.5573376766477267e+00 1.8877677666785832e+01 
78 1 2 7.9999999999997551e-01 -8.3496822451857504e+00 1.0000000000000000e+00 2.3929376556089852e+00 6.8030309316723230e+00 1.9627821928780470e+01 
95 1 2 8.0000000000010785e-01 -1.0230036940465101e+01 1.0000000000000000e+00 2.3572596809636082e+00 6.8364961431914644e+00 1.9687555580361789e+01 
23 1 2 8.0000000000012150e-01 2.7284232468954017e+00 1.0000000000000000e+00 2.3564722576123285e+00 6.8370739707668164e+00 1.9688218964674657e+01 
21 1 2 8.0000000000009786e-01 3.9028306591913342e+00 1.0000000000000000e+00 1.4908153972272296e+00 9.8751232111382095e+00 1.9686025435761866e+01 
31 1 2 8.0000000000008098e-01 7.2970426182140598e+00 1.0000000000000000e+00 1.5472042921511171e+00 9.8809680350431179e+00 1.9692828186715186e+01 
87 1 2 8.0000000000001315e-01 -2.8001583357122357e+01 1.0000000000000000e+00 3.8367759614731081e+00 9.0358151198250276e+00 1.8687844359266212e+01 
134 1 2 8.0000000000004323e-01 1.5808351541937736e+01 1.0000000000000000e+00 3.7677085991930364e+00 9.0893132863890873e+00 1.8668346310515343e+01 
25 1 2 8.0000000000006211e-01 2.5700897624594383e+01 1.0000000000000000e+00 3.7232552446407747e+00 9.2589798050976668e+00 1.8668188980469036e+01 
6 1 2 7.9999999999998739e-01 1.7712883333292961e+01 1.0000000000000000e+00 4.3018635899727453e+00 9.8667613626360868e+00 1.9721410058765088e+01 
278 1 2 7.9999999999996063e-01 1.3091986491475243e+01 1.0000000000000000e+00 4.2107311633244571e+00 9.6959712962768947e+00 1.9973940990273125e+01 
13 1 2 7.9999999999998928e-01 -4.9929225682640856e+00 1.0000000000000000e+00 2.0691673766849020e-01 1.0225408631520658e+01 3.3405850459722003e-01 
232 1 2 8.0000000000000637e-01 -7.8526450866372635e+00 1.0000000000000000e+00 1.6776351080243193e+00 1.0172498686868394e+01 3.0094119553758275e-01 
157 1 2 7.9999999999999838e-01 6.7681118287820468e+00 1.0000000000000000e+00 3.4645034164746273e+00 1.0068224429019633e+01 2.1343659759814164e-02 
260 1 2 7.9999999999996452e-01 5.2722298834520288e+01 1.0000000000000000e+00 1.6395777755272587e+00 1.4421170870906032e+01 1.4467032890066536e+00 
268 1 2 7.9999999999997384e-01 -9.6824390456748475e+00 1.0000000000000000e+00 1.6400844808065758e+00 1.4382585425721469e+01 1.4817085016172906e+00 
93 1 2 7.9999999999999283e-01 1.2388998756912057e+01 1.0000000000000000e+00 1.3348954514552189e+00 1.5536330409977630e+01 1.0003422883168891e+00 
198 1 2 7.9999999999996330e-01 5.2269501732573183e+00 1.0000000000000000e+00 1.6533988152535595e+00 1.5924490208964892e+01 1.3481649018462869e+00 
379 1 2 8.0000000000005589e-01 1.3524393532645647e+01 1.0000000000000000e+00 2.1885601373375811e+00 1.6094712671781238e+01 7.5136961729724860e-01 
269 1 2 7.9999999999996341e-01 9.2982137969247578e+00 1.0000000000000000e+00 2.0284018013040850e+00 1.6209798515999736e+01 7.1642179999237743e-01 
215 1 2 8.0000000000004734e-01 -5.0231525495599058e+01 1.0000000000000000e+00 2.2194784748086667e+00 1.6049097266038032e+01 7.3845872663844336e-01 
259 1 2 8.0000000000002791e-01 -4.6531384215179132e+00 1.0000000000000000e+00 1.7921182423955773e+00 1.3782714209692230e+01 2.5736362740565641e+00 
340 1 2 8.0000000000000127e-01 -4.1252086922205464e+00 1.0000000000000000e+00 1.8064319456594169e+00 1.3920274630470315e+01 2.8385739106369803e+00 
324 1 2 7.9999999999999261e-01 -7.5478105715628123e+00 1.0000000000000000e+00 9.7969478854921088e-01 1.3923475763294665e+01 3.0175216539968832e+00 
203 1 2 8.0000000000000238e-01 -3.2186888093785981e+01 1.0000000000000000e+00 2.0685893001970759e+00 1.4232612939508918e+01 2.2244164642700031e+00 
245 1 2 7.9999999999999361e-01 -5.4504522140506850e+00 1.0000000000000000e+00 7.6601977778931729e-01 1.4219469498079302e+01 3.7311391163913017e+00 
244 1 2 7.9999999999997551e-01 5.2986783054191138e+00 1.0000000000000000e+00 5.2768387143655449e-01 1.4162935455261046e+01 3.9313063067905509e+00 
77 1 2 8.0000000000001614e-01 -6.7607884958621725e+00 1.0000000000000000e+00 1.2079316145042679e-01 1.3762519793787645e+01 5.0634856298616864e+00 
79 1 2 7.9999999999998384e-01 -1.9814667405499186e+01 1.0000000000000000e+00 2.5828529438529890e-01 1.3981031340360037e+01 5.6000180941742235e+00 
17 1 2 7.9999999999998250e-01 3.0966226210674574e+00 1.0000000000000000e+00 5.3228394768314657e-01 1.4353851836645941e+01 4.5207587476189737e+00 
81 1 2 8.0000000000001181e-01 1.8634253577009074e+00 1.0000000000000000e+00 6.2427099457034875e-02 1.4113338318630037e+01 5.2847876567722398e+00 
116 1 2 8.0000000000001359e-01 2.0779838926534651e+00 1.0000000000000000e+00 8.6064099387236437e-01 1.0488682776713679e+01 9.9575978775027423e+00 
280 1 2 7.9999999999997895e-01 4.3664012809763690e+00 1.0000000000000000e+00 4.2469611248440647e-01 1.1694910608578386e+01 1.0282787374739589e+01 
235 1 2 7.9999999999998883e-01 1.0002298604336945e+01 1.0000000000000000e+00 5.1367304104380063e-01 1.1503325754993096e+01 1.0164022300870089e+01 
335 1 2 7.9999999999999150e-01 2.8665797755998295e+00 1.0000000000000000e+00 5.2289082889132976e-01 1.1497870716453821e+01 1.0122169970914104e+01 
109 1 2 8.0000000000005922e-01 -1.2409719501112654e+01 1.0000000000000000e+00 1.5346546826478584e+00 1.0503083429589164e+01 1.3095672906871869e+01 
306 1 2 7.9999999999998950e-01 2.9320371936820560e+00 1.0000000000000000e+00 1.3263552069407050e+00 1.0081169808608053e+01 1.3529322956787366e+01 
304 1 2 7.9999999999998683e-01 2.0818480966448135e+01 1.0000000000000000e+00 1.4726318209450123e-01 1.0858094444211551e+01 1.3360572013577007e+01 
262 1 2 7.9999999999998928e-01 4.7572419762940008e+00 1.0000000000000000e+00 2.3476244859219957e+00 1.0333181419031710e+01 1.3808838105718660e+01 
334 1 2 7.9999999999998850e-01 1.0344058067529657e+01 1.0000000000000000e+00 2.3476508092492168e+00 1.0333196657387537e+01 1.3809263652362212e+01 
270 1 2 7.9999999999998783e-01 -6.9404909106274300e+00 1.0000000000000000e+00 2.3476345144660740e+00 1.0333298023984513e+01 1.3808528576099080e+01 
195 1 2 7.9999999999993032e-01 9.7110418368419644e+00 1.0000000000000000e+00 9.8263536168770482e-01 1.2295023539718480e+01 1.2505996204209318e+01 
276 1 2 7.9999999999995264e-01 -1.4809735392157329e+01 1.0000000000000000e+00 9.6246865676990190e-01 1.2376970589205627e+01 1.2550178935246242e+01 
267 1 2 8.0000000000000571e-01 1.8552773244134244e+01 1.0000000000000000e+00 1.5298724552953546e+00 1.2322175668105011e+01 1.3423735911904188e+01 
333 1 2 8.0000000000000460e-01 4.8882879784876483e+00 1.0000000000000000e+00 1.5268782346474861e+00 1.2326058938331446e+01 1.3421604421169093e+01 
277 1 2 8.0000000000000537e-01 -2.2506325136617118e+00 1.0000000000000000e+00 1.5254965506585960e+00 1.2327495864321007e+01 1.3421132204786730e+01 
311 1 2 7.9999999999993154e-01 1.0364990520940093e+01 1.0000000000000000e+00 1.0773162376570755e-01 1.0805737434245959e+01 1.4373880080701213e+01 
236 1 2 7.9999999999999893e-01 -1.0216009736898553e+01 1.0000000000000000e+00 1.3120265984285617e+00 1.0188002353341524e+01 1.5163039918211815e+01 
186 1 2 8.0000000000000182e-01 -3.7065203028998601e+00 1.0000000000000000e+00 1.4795261201737770e+00 1.0196797699328638e+01 1.5166070830289097e+01 
28 1 2 8.0000000000002902e-01 2.8708479501570130e+00 1.0000000000000000e+00 1.4952429341194102e+00 1.0680049150305653e+01 1.6562449985618969e+01 
178 1 2 8.0000000000002403e-01 -2.2763359127674083e+00 1.0000000000000000e+00 1.5083673082197382e+00 1.0662051526885776e+01 1.6562101150338798e+01 
171 1 2 8.0000000000002547e-01 -7.1791448574825818e+00 1.0000000000000000e+00 1.5082572928472411e+00 1.0658343499045627e+01 1.6563537323636560e+01 
307 1 2 8.0000000000002480e-01 -2.1255141996211748e+01 1.0000000000000000e+00 1.5097205356506167e+00 1.0655587757562172e+01 1.6563629242869368e+01 
378 1 2 7.9999999999992000e-01 -2.7737450380262469e+01 1.0000000000000000e+00 3.0081334672495976e+00 1.6627808304337407e+01 1.7377694728462235e+01 
196 1 2 8.0000000000003124e-01 -1.2419600768592108e+01 1.0000000000000000e+00 3.1346937527147158e+00 1.6613206184031544e+01 1.7391881744892178e+01 
323 1 2 8.0000000000001437e-01 -1.2193335293842036e+01 1.0000000000000000e+00 3.2786781265442291e+00 1.6530800395271868e+01 1.7439345626252251e+01 
204 1 2 8.0000000000000948e-01 1.6403489497487904e+01 1.0000000000000000e+00 3.2496237086490440e+00 1.6004338452102399e+01 1.7765775168277383e+01 
149 1 2 7.9999999999999716e-01 2.5346838804988820e+01 1.0000000000000000e+00 3.9935788816507412e+00 1.0152897910234556e+01 1.9602151098044601e+01 
339 1 2 8.0000000000001603e-01 2.5529705149761335e+00 1.0000000000000000e+00 2.3473257673043946e-01 1.7603979436053780e+01 1.8615622278212463e+01 
43 1 2 8.0000000000002514e-01 3.8351311221120521e+00 1.0000000000000000e+00 1.0775449854054134e-01 1.6520030283383544e+01 1.9324150224689610e+01 
145 1 2 8.0000000000000349e-01 -3.4291680192208869e+00 1.0000000000000000e+00 1.1914266926124970e+00 1.7878896786194446e+01 1.9252637449494834e+01 
44 1 2 8.0000000000001703e-01 2.9722794600405011e+00 1.0000000000000000e+00 8.6519993225044944e-02 1.7992484875639917e+01 1.9285799884050380e+01 
132 1 2 8.0000000000000182e-01 1.2360195157444231e+01 1.0000000000000000e+00 2.5341418398689259e+00 1.6349541578002857e+01 1.8697351722966623e+01 
151 1 2 8.0000000000000204e-01 1.2498797808903994e+01 1.0000000000000000e+00 2.5357908838787235e+00 1.6566513553272635e+01 1.8708029670782508e+01 
206 1 2 7.9999999999999982e-01 -7.2753331620797699e+00 1.0000000000000000e+00 2.6183070540053057e+00 1.6358299118487881e+01 1.8738396521845406e+01 
193 1 2 8.0000000000006521e-01 -2.8600048518384369e+01 1.0000000000000000e+00 7.6339653436308563e-01 1.9404786950119512e+01 1.8718439250020054e+01 
137 1 2 8.0000000000005611e-01 -1.8950606161801242e+00 1.0000000000000000e+00 1.3165522115658954e+00 1.9357360664169907e+01 1.8910789027847503e+01 
161 1 2 8.0000000000000793e-01 -1.5727800112439777e+01 1.0000000000000000e+00 1.2664451785385993e+00 1.8305144741954486e+01 1.9342159646781109e+01 
202 1 2 7.9999999999983618e-01 1.6690360673015303e+00 1.0000000000000000e+00 1.0020235885967930e+00 1.9484616980892238e+01 1.8776660436307978e+01 
273 1 2 7.9999999999984217e-01 6.8658073558479549e+00 1.0000000000000000e+00 9.8931102662251014e-01 1.9491212161100481e+01 1.8797788815955883e+01 
286 1 2 8.0000000000002847e-01 -2.5784227474874655e+01 1.0000000000000000e+00 1.1795215593542318e+01 1.8760633334042196e+00 9.7909094377411923e-02 
237 1 2 8.0000000000009874e-01 1.0666248690216776e+01 1.0000000000000000e+00 1.1915775886489920e+01 2.4851440716688620e+00 1.8146672001477245e-02 
336 1 2 8.0000000000000482e-01 4.5916521655178655e-01 1.0000000000000000e+00 1.1150055856284904e+01 4.9820111717221129e+00 4.2190653403854034e-01 
120 1 2 7.9999999999999261e-01 7.9763824632314559e+00 1.0000000000000000e+00 1.1151886913803640e+01 5.0097079094050230e+00 4.0965457518776871e-01 
45 1 2 8.0000000000000504e-01 -1.2892119800784350e+01 1.0000000000000000e+00 1.1190545431812936e+01 5.1430330951244532e+00 4.5721190189517658e-01 
118 1 2 7.9999999999999760e-01 1.5768026558543466e+00 1.0000000000000000e+00 1.3269953754794901e+01 4.3198930398420332e+00 5.9007039486382939e-01 
190 1 2 7.9999999999999716e-01 -1.5836340731211365e+01 1.0000000000000000e+00 1.3272669773610017e+01 4.3086736098599108e+00 5.8191217269498152e-01 
112 1 2 7.9999999999999549e-01 -7.2080523101637208e+00 1.0000000000000000e+00 1.3276640357002275e+01 4.2652799684295539e+00 5.5040078908191248e-01 
47 1 2 8.0000000000000504e-01 -2.2268171446934497e+00 1.0000000000000000e+00 1.1223976252188864e+01 5.2103197062282467e+00 4.6708945501040028e-01 
173 1 2 7.9999999999999172e-01 -9.9935684555210074e+00 1.0000000000000000e+00 1.1737003251634412e+01 4.0502646510221876e+00 3.7022849997929475e-01 
97 1 2 8.0000000000000648e-01 -6.4429146665766091e-01 1.0000000000000000e+00 1.0802997464940923e+01 7.4932944193857383e+00 3.1301769445500022e-01 
338 1 2 7.9999999999999238e-01 -1.7793463529428351e+01 1.0000000000000000e+00 1.0707200424550475e+01 7.6058530985876862e+00 1.5482854091527443e-01 
192 1 2 8.0000000000000038e-01 2.7940286909073208e+01 1.0000000000000000e+00 1.3220364857887420e+01 6.7068383090736621e+00 1.3148198640553916e+00 
384 1 2 8.0000000000000404e-01 2.3183602358839166e+00 1.0000000000000000e+00 1.3203287954733220e+01 6.4728789141595113e+00 1.1930549670961172e+00 
376 1 2 8.0000000000000515e-01 -1.3437634322333874e+01 1.0000000000000000e+00 1.3207913926539899e+01 6.4473235203405688e+00 1.1744053798225071e+00 
63 1 2 8.0000000000001370e-01 1.5624881799522271e+01 1.0000000000000000e+00 1.2620158429741206e+01 6.9718524667091408e+00 3.6871618010172402e-01 
29 1 2 8.0000000000000704e-01 2.1995649474993719e+01 1.0000000000000000e+00 1.3120216912898993e+01 7.5821628286069460e+00 1.7837739466113661e-01 
103 1 2 8.0000000000005889e-01 -4.6863220080888919e+00 1.0000000000000000e+00 9.2885456708660303e+00 6.2089372467076283e+00 1.5837947597381037e+01 
94 1 2 8.0000000000006977e-01 8.3511896194439998e+00 1.0000000000000000e+00 9.4571048741327779e+00 6.1817843222812217e+00 1.5876689134317090e+01 
239 1 2 7.9999999999997118e-01 2.8054766675006420e+00 1.0000000000000000e+00 8.6271290009840556e+00 5.6513237711793725e+00 1.6521109495204833e+01 
358 1 2 7.9999999999995020e-01 -2.1602749784024518e+01 1.0000000000000000e+00 9.9337776212209565e+00 5.9716541213084122e+00 1.6113661985368857e+01 
352 1 2 7.9999999999995874e-01 -4.3572779190537219e+00 1.0000000000000000e+00 1.2881385093149872e+01 5.9488477688640380e+00 1.7934344526983573e+01 
351 1 2 7.9999999999995863e-01 -3.7270145919657667e+00 1.0000000000000000e+00 1.2881385094843978e+01 5.9488477697332725e+00 1.7934344526539448e+01 
366 1 2 8.0000000000001781e-01 1.0804479580299571e+01 1.0000000000000000e+00 1.1810149050390734e+01 5.9949267359948086e+00 1.7245767103717927e+01 
301 1 2 8.0000000000003213e-01 2.9253389194365120e+01 1.0000000000000000e+00 7.7745138962563942e+00 6.4008268217979358e+00 1.6643441638613911e+01 
294 1 2 7.9999999999996430e-01 -7.1896394178244161e-01 1.0000000000000000e+00 8.1516549484776064e+00 6.7350480941043616e+00 1.6647239821580101e+01 
360 1 2 8.0000000000003146e-01 -2.0078719836438580e+01 1.0000000000000000e+00 7.7669969122788682e+00 6.3266604317999420e+00 1.6667654347111934e+01 
309 1 2 8.0000000000003502e-01 -1.3093814266403847e+01 1.0000000000000000e+00 7.7860458591444122e+00 6.2407697443557701e+00 1.6717265309771815e+01 
303 1 2 7.9999999999999727e-01 1.9316143176321705e+00 1.0000000000000000e+00 1.0504358447437131e+01 6.2081670335108692e+00 1.6589919294654173e+01 
231 1 2 7.9999999999997662e-01 -1.6071664087577975e+01 1.0000000000000000e+00 1.0786576927679423e+01 6.0754549063708181e+00 1.6743884412409777e+01 
266 1 2 8.0000000000002292e-01 1.0051340603969965e+01 1.0000000000000000e+00 1.1433543987343249e+01 6.0695010289039040e+00 1.7062921866818510e+01 
347 1 2 7.9999999999998517e-01 1.7312483787844606e+00 1.0000000000000000e+00 1.1954067662401380e+01 6.0361074597058701e+00 1.7413935359109459e+01 
222 1 2 7.9999999999997973e-01 1.2067894462260516e+00 1.0000000000000000e+00 1.1814509264905032e+01 1.8550316404182969e+00 1.9896461047158770e+01 
287 1 2 7.9999999999998106e-01 -1.8202437899188141e+01 1.0000000000000000e+00 1.1707221762557607e+01 1.8587592578291900e+00 1.9875575343588366e+01 
174 1 2 7.9999999999979210e-01 2.5870419410961212e+00 1.0000000000000000e+00 1.1510959426972823e+01 2.0615305833282522e+00 1.9938879571342142e+01 
275 1 2 8.0000000000014315e-01 7.9836274444064754e+00 1.0000000000000000e+00 1.3252346210244768e+01 5.2496977833918894e+00 1.8725226215592322e+01 
356 1 2 7.9999999999986959e-01 -5.9927855963469225e+00 1.0000000000000000e+00 1.3234712742204119e+01 5.1994004834448448e+00 1.8887134084264147e+01 
374 1 2 7.9999999999998839e-01 -1.6277614951937188e+01 1.0000000000000000e+00 1.2920500067504980e+01 4.0907746546704900e+00 1.9822857964295114e+01 
64 1 2 7.9999999999995597e-01 -2.1077937387945589e+01 1.0000000000000000e+00 1.0604220470550322e+01 7.4599804268247558e+00 1.9897390873329233e+01 
344 1 2 7.9999999999998639e-01 7.3596972924294546e+00 1.0000000000000000e+00 1.1089930063830286e+01 7.5935580505237636e+00 1.9824717092402906e+01 
183 1 2 7.9999999999996096e-01 3.2029735499959124e+01 1.0000000000000000e+00 1.0761750869839748e+01 7.0956249966604190e+00 1.9793065815398492e+01 
326 1 2 8.0000000000001170e-01 2.6632683049052090e+00 1.0000000000000000e+00 1.3678120139125586e+01 7.2656863415232822e+00 1.1501914040008205e+00 
150 1 2 8.0000000000004778e-01 -5.7121931819091554e+00 1.0000000000000000e+00 1.7743929466499413e+01 7.4197220084996962e+00 1.1718155570526450e+00 
127 1 2 8.0000000000000437e-01 1.0897279020755539e+01 1.0000000000000000e+00 1.7326135559953695e+01 7.4110666564466570e+00 1.2192317887455166e+00 
216 1 2 7.9999999999996396e-01 1.5564080110878731e+00 1.0000000000000000e+00 1.7412875350529639e+01 7.6392066369888978e+00 1.8357038716910419e+00 
350 1 2 8.0000000000000115e-01 -3.1273805597736697e+01 1.0000000000000000e+00 1.7869917724289500e+01 7.5620147439853831e+00 9.9304542480506308e-01 
252 1 2 8.0000000000001903e-01 1.2400046150186000e+01 1.0000000000000000e+00 1.4044001153042572e+01 9.8267949030625825e+00 3.6266865959128569e-01 
299 1 2 8.0000000000001215e-01 -3.6493133413225394e+00 1.0000000000000000e+00 1.3930344669257938e+01 8.4938469200275559e+00 1.9651038401104762e-01 
281 1 2 7.9999999999999871e-01 2.4609959911364347e+00 1.0000000000000000e+00 1.3744161570076198e+01 8.2592033337285269e+00 1.6400308409897080e-01 
223 1 2 8.0000000000008675e-01 2.8208619736690842e+01 1.0000000000000000e+00 1.6871640762519913e+01 8.6804355742844042e+00 1.2963288872146010e+00 
224 1 2 8.0000000000001348e-01 -3.0409345465437623e+00 1.0000000000000000e+00 1.7023120834026173e+01 8.8398369090550943e+00 1.3729979951350653e+00 
62 1 2 8.0000000000002247e-01 2.4476404265711551e+01 1.0000000000000000e+00 1.7060577290861449e+01 8.8702474473547674e+00 1.3794695426706740e+00 
167 1 2 8.0000000000000038e-01 -5.7850870023038237e+00 1.0000000000000000e+00 1.8618546737260889e+01 9.0577213158689283e+00 1.1599640076842272e+00 
101 1 2 7.9999999999998905e-01 2.4247464202986517e+01 1.0000000000000000e+00 1.8792216859924011e+01 8.9081417746248803e+00 1.4072984253569409e+00 
302 1 2 7.9999999999999072e-01 -1.9298776966586850e+01 1.0000000000000000e+00 1.9420765673643444e+01 9.9512524621806850e+00 1.6681440162568522e+00 
200 1 2 7.9999999999999361e-01 -2.6040705868436206e+01 1.0000000000000000e+00 1.9085480870419499e+01 7.3734635583754153e+00 3.5352274603938305e+00 
136 1 2 7.9999999999999871e-01 6.5788809684828902e+00 1.0000000000000000e+00 1.9079365798476456e+01 7.3745424688558900e+00 3.5363322774125177e+00 
264 1 2 7.9999999999999527e-01 1.6967679515617937e+00 1.0000000000000000e+00 1.9081963097611034e+01 7.3694146595681325e+00 3.5471125645115409e+00 
342 1 2 8.0000000000000437e-01 -1.7763809405983957e+00 1.0000000000000000e+00 1.9128142638206160e+01 9.0264401452806666e+00 2.1116573704297061e+00 
54 1 2 8.0000000000005111e-01 -2.0509208560888261e+01 1.0000000000000000e+00 1.9765855876299476e+01 8.9870562470360014e+00 3.0435813290328433e+00 
30 1 2 8.0000000000005345e-01 1.5600849640972774e+01 1.0000000000000000e+00 1.9815176570342061e+01 8.9218127066199635e+00 3.0760122539422969e+00 
246 1 2 7.9999999999997173e-01 1.1726904032815790e+01 1.0000000000000000e+00 1.8146147119164851e+01 9.3853829059061891e+00 3.7657819900535334e+00 
102 1 2 7.9999999999994698e-01 6.3141388998266068e+00 1.0000000000000000e+00 1.8170023003024099e+01 9.4152581111175593e+00 3.8106882698233040e+00 
181 1 2 7.9999999999987825e-01 -1.6284094563138794e+01 1.0000000000000000e+00 1.8444652179360293e+01 9.5268512422730538e+00 3.8170962225279417e+00 
15 1 2 8.0000000000000904e-01 -1.7197928029167731e+00 1.0000000000000000e+00 1.7126589552994410e+01 7.8724269249776979e+00 4.7588702073861535e+00 
16 1 2 8.0000000000000437e-01 -3.4281562681880345e+01 1.0000000000000000e+00 1.7128009258401001e+01 7.8820259065706706e+00 4.7822022057537241e+00 
133 1 2 8.0000000000000615e-01 -3.8382583669903330e+00 1.0000000000000000e+00 1.7131173849910645e+01 7.8833617539953824e+00 4.7906109240300099e+00 
143 1 2 8.0000000000000726e-01 -8.4554219495130170e+00 1.0000000000000000e+00 1.7134562980859474e+01 7.8839362174121481e+00 4.7975594484043809e+00 
383 1 2 7.9999999999994387e-01 9.6552847019874299e+00 1.0000000000000000e+00 1.9989324057326968e+01 7.9509609746704957e+00 4.4045799840438020e+00 
182 1 2 8.0000000000005123e-01 1.1376574750794990e+01 1.0000000000000000e+00 1.7505714058158915e+01 9.0358604694111033e+00 4.5887935415564520e+00 
263 1 2 7.9999999999998550e-01 2.5212075045906584e+01 1.0000000000000000e+00 1.9118495243222210e+01 8.4403702436119588e+00 4.8694291316319092e+00 
199 1 2 8.0000000000007765e-01 1.0593090410593694e+01 1.0000000000000000e+00 1.9483374675042736e+01 8.8369646217136175e+00 4.6301946699793950e+00 
69 1 2 7.9999999999995020e-01 8.2825104650408949e+00 1.0000000000000000e+00 1.7769634613134041e+01 8.7421197861923172e+00 9.6783776865541373e+00 
75 1 2 8.0000000000000260e-01 3.2202661015012325e+01 1.0000000000000000e+00 1.7910469964325660e+01 8.9224320927454617e+00 9.8858798801104069e+00 
4 1 2 7.9999999999992311e-01 6.6896881812575231e+00 1.0000000000000000e+00 1.7844165405795788e+01 8.4969551702537789e+00 9.6038007367592009e+00 
11 1 2 7.9999999999999427e-01 -3.8588235718421693e+00 1.0000000000000000e+00 1.7270240757958017e+01 3.5913548222687437e+00 1.1160787558233185e+01 
65 1 2 7.9999999999999483e-01 -2.4697153557846121e+01 1.0000000000000000e+00 1.6972122170909518e+01 3.7687697272910010e+00 1.1319202907899728e+01 
10 1 2 7.9999999999999294e-01 -2.3428723889325902e+01 1.0000000000000000e+00 1.6859149114224444e+01 3.9906196876730617e+00 1.1466798675635365e+01 
27 1 2 7.9999999999999316e-01 -5.0244195957443729e+00 1.0000000000000000e+00 1.8129785617516141e+01 3.1366320554708786e+00 1.1583502809458798e+01 
19 1 2 7.9999999999998528e-01 -8.5119785152152687e+00 1.0000000000000000e+00 1.6928976574687379e+01 5.7353720414100202e+00 1.1655694107355702e+01 
290 1 2 8.0000000000000593e-01 -1.0028088950752316e+00 1.0000000000000000e+00 1.8161207982287983e+01 4.6133663769184334e+00 1.1785340516515571e+01 
131 1 2 8.0000000000001381e-01 -4.3587906083607617e+00 1.0000000000000000e+00 1.6995147474988549e+01 7.1534896919842099e+00 1.1448606916424058e+01 
140 1 2 7.9999999999998461e-01 -2.4024463027742087e+00 1.0000000000000000e+00 1.6495674823994104e+01 6.3401372402027123e+00 1.1432466098726710e+01 
82 1 2 8.0000000000001015e-01 1.6507369539108463e+01 1.0000000000000000e+00 1.6906283896645537e+01 7.1826489443850399e+00 1.1505567816868325e+01 
129 1 2 7.9999999999997429e-01 4.2317821615046451e+00 1.0000000000000000e+00 1.7164091331208052e+01 6.3399398878647029e+00 1.1282487924843215e+01 
308 1 2 8.0000000000000049e-01 6.6443348710958805e-01 1.0000000000000000e+00 1.9186091149325964e+01 7.1855930148360736e+00 1.0994409605826574e+01 
212 1 2 8.0000000000000027e-01 -6.9754353115755787e+00 1.0000000000000000e+00 1.9181037835218675e+01 7.1926342921075879e+00 1.1002731613134166e+01 
380 1 2 8.0000000000000060e-01 1.3309646199723929e+01 1.0000000000000000e+00 1.9198028687004875e+01 7.2045262099811458e+00 1.1000895331056402e+01 
300 1 2 7.9999999999999127e-01 1.5514780391881040e+01 1.0000000000000000e+00 1.9475593184804456e+01 7.7297713112516542e+00 1.0472530470309268e+01 
320 1 2 8.0000000000000981e-01 -6.0009787369103398e+00 1.0000000000000000e+00 1.9225273596066828e+01 7.3348597581737938e+00 1.0315330040349858e+01 
1 1 2 8.0000000000007765e-01 -8.6684640172743954e+00 1.0000000000000000e+00 1.7478441414711220e+01 8.1454770086574797e+00 1.0150679933667078e+01 