LAMMPS data file via write_data, version 30 Jul 2016, timestep = 50000000

4620 atoms
8 atom types

0.0000000000000000e+00 1.0000000000000000e+02 xlo xhi
0.0000000000000000e+00 4.0000000000000000e+01 ylo yhi
0.0000000000000000e+00 4.0000000000000000e+01 zlo zhi

Masses

1 3.896
2 5.36
3 20.064
4 8.378
5 8.378
6 8.378
7 8.378
8 8.378

Atoms # meso-molecular

4247 4248 2 1.0280000000000000e+00 -1.4184607279805464e+03 1.0000000000000000e+00 1.8218892634815970e-01 1.8128950779304212e+01 6.2426773487886933e-01 
4246 4247 2 1.0280000000000000e+00 -1.0441710246058947e+03 1.0000000000000000e+00 5.4855504540132949e-01 1.8418176352980677e+01 9.2697221853137973e-02 
2521 2522 2 1.0280000000000005e+00 -1.9559821403170924e+03 1.0000000000000000e+00 1.9644446485661398e+01 1.0133449879335339e+01 1.1998300821895571e+01 
1598 1599 2 1.0280000000000005e+00 -2.2231956512196030e+03 1.0000000000000000e+00 1.9227463492281057e+01 9.8697935144332849e+00 1.2505305043234214e+01 
1977 1978 2 1.0279999999999994e+00 7.9520742185865197e+02 1.0000000000000000e+00 2.6844289841206873e+01 3.5051337353889274e+00 1.7488452665881958e+01 
1515 1516 2 1.0279999999999994e+00 -2.6825571095299711e+02 1.0000000000000000e+00 2.7524718470022172e+01 3.3931041568388993e+00 1.7646278616205212e+01 
1266 1267 2 1.0280000000000000e+00 3.9246982471340395e+01 1.0000000000000000e+00 2.1301582046425653e+00 1.0666361003815489e+01 1.9075506777533803e+01 
1179 1180 2 1.0280000000000000e+00 -1.1300489024363137e+03 1.0000000000000000e+00 1.9372563757813244e+00 1.1232507802951361e+01 1.9453275836916909e+01 
632 633 2 1.0279999999999998e+00 2.3215258377143036e+02 1.0000000000000000e+00 3.3548448071045147e+00 1.7992711975094231e+01 1.8940543742689471e+01 
1436 1437 2 1.0279999999999998e+00 -4.4045520032887856e+02 1.0000000000000000e+00 3.4788033126949789e+00 1.8618321440010419e+01 1.8634455745087372e+01 
1858 1859 2 1.0279999999999987e+00 -9.1644738671632513e+02 1.0000000000000000e+00 6.9186799826996106e+00 6.3596492074510849e+00 2.3152785978964260e+01 
520 521 2 1.0279999999999987e+00 1.8712853018695396e+03 1.0000000000000000e+00 7.5532825531256611e+00 6.6716920701234983e+00 2.3134034833909560e+01 
1263 1264 2 1.0280000000000031e+00 1.4621728761072416e+03 1.0000000000000000e+00 5.5673312656623808e-01 8.6430702915163451e+00 2.2170784041568499e+01 
2220 2221 2 1.0279999999999998e+00 2.1095271057082249e+02 1.0000000000000000e+00 1.9551619899585184e+01 1.4627436439053479e+01 2.2682668626391042e+01 
2852 2853 2 1.0279999999999998e+00 -7.1651521803281270e+01 1.0000000000000000e+00 1.9827674461977679e+01 1.5092001244872092e+01 2.3139194853188588e+01 
1798 1799 2 1.0279999999999994e+00 -1.9628701362866736e+03 1.0000000000000000e+00 2.9452497818466177e+00 7.8665128684042918e+00 2.7065047650002413e+01 
834 835 2 1.0279999999999994e+00 2.7762973996159747e+02 1.0000000000000000e+00 2.9497971251410275e+00 7.2865216568755429e+00 2.7470056652612701e+01 
3651 3652 2 1.0280000000000000e+00 -1.1126743509216251e+02 1.0000000000000000e+00 4.3427482475794328e+00 6.7963850489847166e+00 3.1187080575444810e+01 
2728 2729 2 1.0280000000000000e+00 -2.3732201486377184e+02 1.0000000000000000e+00 3.7460087007025233e+00 6.4488439210684909e+00 3.1340572769307752e+01 
1612 1613 2 1.0280000000000014e+00 1.6928988011772822e+03 1.0000000000000000e+00 2.6149812711219703e+01 6.8456763847222186e+00 3.1620571609746658e+01 
3002 3003 2 1.0280000000000014e+00 -3.4096501715761065e+02 1.0000000000000000e+00 2.6795571086685769e+01 7.1313706985472480e+00 3.1577937638075365e+01 
2650 2651 2 1.0279999999999987e+00 8.6597491048324500e+01 1.0000000000000000e+00 2.9486212582224677e+01 1.3287387418278511e+01 3.3297573930410508e+01 
4120 4121 2 1.0279999999999987e+00 -5.8833558546328231e+02 1.0000000000000000e+00 2.9148907252807295e+01 1.3081954342593415e+01 3.3884485458784418e+01 
3183 3184 2 1.0280000000000005e+00 -1.9477411600047044e+03 1.0000000000000000e+00 1.8433588949239159e+01 1.4842336869420633e+01 3.6314843379014874e+01 
2684 2685 2 1.0280000000000005e+00 -1.3952560870826774e+03 1.0000000000000000e+00 1.7840814411741313e+01 1.4459448184960998e+01 3.6364415336652073e+01 
2319 2320 2 1.0280000000000005e+00 -2.5461743640364994e+03 1.0000000000000000e+00 9.3679485152799309e+00 8.0566398540376092e+00 3.8963483072967122e+01 
3277 3278 2 1.0280000000000005e+00 -8.1038542213541564e+02 1.0000000000000000e+00 9.5216619963160234e+00 8.3775768004132498e+00 3.8352079427103078e+01 
2851 2852 2 1.0279999999999982e+00 1.7481482978458075e+03 1.0000000000000000e+00 1.8828875940577248e+01 3.5980590802956236e+01 1.4683139397023885e+01 
2850 2851 2 1.0279999999999982e+00 -3.7792756688549230e+02 1.0000000000000000e+00 1.9521841464369764e+01 3.6046413190597896e+01 1.4557008623232852e+01 
454 455 2 1.0279999999999998e+00 -3.2855171883518851e+03 1.0000000000000000e+00 2.9872761655397234e+01 2.6709802538547379e+01 2.8552731010999477e+01 
4612 4613 2 1.0279999999999998e+00 -3.2898222280114451e+03 1.0000000000000000e+00 2.9639094015577378e+01 2.7291658021833314e+01 2.8880277048447820e+01 
1919 1920 2 1.0280000000000000e+00 1.5091921408187936e+03 1.0000000000000000e+00 3.0205406111963008e+01 2.0949178703487163e+01 3.5038695205324856e+01 
2255 2256 2 1.0280000000000000e+00 1.5395799184694229e+03 1.0000000000000000e+00 3.0570146867117288e+01 2.0607010111433350e+01 3.5539022710183822e+01 
3899 3900 2 1.0279999999999965e+00 -1.0362682323219965e+03 1.0000000000000000e+00 3.5538973945175600e+00 2.4551340581163000e+01 3.6635210180051821e+01 
3935 3936 2 1.0279999999999965e+00 -7.3166533887573951e+03 1.0000000000000000e+00 3.5627493795568070e+00 2.5034142064163291e+01 3.7152189044562355e+01 
1304 1305 2 1.0279999999999991e+00 2.8754580739317144e+03 1.0000000000000000e+00 1.2603809653885053e+01 3.6097729743616362e+01 3.8115901064886792e+01 
421 422 2 1.0279999999999991e+00 -5.9010137136638514e+02 1.0000000000000000e+00 1.3019866506274280e+01 3.6506408873664611e+01 3.7715500215462143e+01 
3367 3368 2 1.0280000000008980e+00 1.9232650075451752e+03 1.0000000000000000e+00 4.7321989358608342e+01 5.1933875158024619e-02 1.2132453249540491e+00 
641 642 2 1.0280000000044973e+00 -2.0671715572763869e+03 1.0000000000000000e+00 4.8806175993203077e+01 8.1146513587204994e-01 1.3355654104337096e+00 
1062 1063 2 1.0280000000293488e+00 -6.1822142332768863e+02 1.0000000000000000e+00 4.9864272722216931e+01 1.5072155421814175e+00 5.3622154159310909e-01 
560 561 2 1.0280000000129750e+00 6.6939403253997807e+02 1.0000000000000000e+00 5.1818580090249121e+01 1.2791141557935009e+00 9.2634579214932222e-01 
822 823 2 1.0280000000299565e+00 1.1732027983327387e+03 1.0000000000000000e+00 5.3590959398110549e+01 1.4625692352605288e+00 1.5301370121384159e+00 
3552 3553 2 1.0279999999629827e+00 -6.6028034544216075e+02 1.0000000000000000e+00 5.4965413670721496e+01 1.5320832847295400e+00 1.3087909019584574e+00 
3894 3895 2 1.0280000001660796e+00 -1.5490752389790746e+03 1.0000000000000000e+00 5.6764516233997590e+01 7.8999895128478326e-02 1.5586871185884763e+00 
72 73 2 1.0280000000857041e+00 5.3235331951502735e+02 1.0000000000000000e+00 5.6098011714905752e+01 3.1489138037482300e-01 5.0522338814549739e-01 
1921 1922 2 1.0279999999865370e+00 3.7836922107461032e+03 1.0000000000000000e+00 5.8946140099154903e+01 6.1244532313316369e-01 3.5007530402325560e-01 
1417 1418 2 1.0279999997078819e+00 1.5521636347770341e+03 1.0000000000000000e+00 5.7817042108683310e+01 1.5573713126344624e+00 4.6211415248698356e-01 
761 762 2 1.0279999999517144e+00 7.4585452483560289e+02 1.0000000000000000e+00 6.3625930853725606e+01 1.1459823788117203e+00 1.2875708341392375e-01 
2735 2736 2 1.0279999990877506e+00 -1.6326157995187932e+03 1.0000000000000000e+00 6.3746153192432544e+01 1.4620714961928154e+00 1.7093912920543506e+00 
636 637 2 1.0280000006234205e+00 5.9655634005581055e+02 1.0000000000000000e+00 6.5651018407885644e+01 3.2258157007565669e-01 1.1925553367966439e+00 
426 427 2 1.0280000000454161e+00 -1.0811678443482806e+03 1.0000000000000000e+00 4.2130076402437879e+01 3.0128299084285577e+00 1.3240748072832109e+00 
721 722 2 1.0279999999953493e+00 2.1416747762441832e+03 1.0000000000000000e+00 4.2976894144375173e+01 2.5302302039515272e+00 6.0631867317213584e-01 
569 570 2 1.0279999999875289e+00 2.4569258183553811e+03 1.0000000000000000e+00 5.2592305397381487e+01 2.5063545593856196e+00 1.5614520758556696e+00 
653 654 2 1.0279999997893767e+00 -3.7700069141424237e+03 1.0000000000000000e+00 5.5577909825031881e+01 2.5942755010282021e+00 2.3077588498847784e-01 
1416 1417 2 1.0280000001581184e+00 4.8065369222616494e+02 1.0000000000000000e+00 5.9004267802951198e+01 2.7300335320213529e+00 1.3106438911446643e+00 
1878 1879 2 1.0280000000928140e+00 -2.4333867569595250e+03 1.0000000000000000e+00 5.8093324030301950e+01 3.5844352003038846e+00 7.5606874616659514e-01 
3861 3862 2 1.0280000000370062e+00 -2.1104711759540687e+03 1.0000000000000000e+00 6.0763239242533494e+01 1.8736252847522199e+00 1.4142983138430403e+00 
4029 4030 2 1.0279999998162879e+00 -2.1140375169574863e+03 1.0000000000000000e+00 6.0121483982735541e+01 2.4775980728398754e+00 2.5964598961042168e-01 
3741 3742 2 1.0279999999923690e+00 4.6479399888892215e+02 1.0000000000000000e+00 6.4596288428673972e+01 2.2768336572327681e+00 6.4416559238304161e-01 
3280 3281 2 1.0280000000372063e+00 -9.2640660853393598e+01 1.0000000000000000e+00 4.0738634954471721e+01 4.6620633728084373e+00 2.8804587258187636e-01 
3616 3617 2 1.0279999999874470e+00 -6.2008187031903972e+01 1.0000000000000000e+00 4.1057773438954776e+01 4.4027818671680281e+00 1.3232862453178464e+00 
2492 2493 2 1.0279999999398377e+00 -4.7657554649101166e+02 1.0000000000000000e+00 4.2342580569204074e+01 5.1053174368727072e+00 5.2757008171009534e-01 
3331 3332 2 1.0280000000830387e+00 1.7926741777465559e+03 1.0000000000000000e+00 4.3842984672002650e+01 4.8140601175127236e+00 1.0869444256711289e+00 
3372 3373 2 1.0280000000572820e+00 -5.3512216011870350e+02 1.0000000000000000e+00 4.7901326848068933e+01 3.7323057870808043e+00 1.3394867473068357e+00 
561 562 2 1.0279999999513176e+00 1.0694834615045770e+02 1.0000000000000000e+00 4.9507906293638250e+01 3.7191743222897142e+00 1.4084765585697419e+00 
1567 1568 2 1.0279999999327583e+00 1.7432315880633732e+03 1.0000000000000000e+00 4.8425222598292365e+01 4.6365060964928873e+00 4.2439078885610187e-01 
562 563 2 1.0280000001680090e+00 1.3338150201653825e+03 1.0000000000000000e+00 4.9968778936373525e+01 5.0475299754414058e+00 1.2480818155862832e+00 
269 270 2 1.0280000000279406e+00 2.1790940470273472e+03 1.0000000000000000e+00 5.2678851929376741e+01 4.4825432412416690e+00 3.5916793918651285e-01 
990 991 2 1.0280000000314955e+00 1.0250800122455523e+03 1.0000000000000000e+00 5.3416579865826314e+01 4.5511121643139454e+00 1.7258196881773724e+00 
988 989 2 1.0280000000037117e+00 1.3802266069947891e+03 1.0000000000000000e+00 5.6774037052853238e+01 4.4177022018119319e+00 1.6682095346297330e+00 
1033 1034 2 1.0279999998393281e+00 1.1465778619321052e+03 1.0000000000000000e+00 5.7320020570401276e+01 5.3318946200703135e+00 6.3199618169270644e-01 
2539 2540 2 1.0280000000014260e+00 1.7624745711332741e+03 1.0000000000000000e+00 3.8441779303669001e+01 5.4674456297229765e+00 3.8228804662978966e-01 
2613 2614 2 1.0280000000517551e+00 2.0280646545343766e+03 1.0000000000000000e+00 4.1536592721804752e+01 6.6450157134703938e+00 1.7179369505022444e+00 
2151 2152 2 1.0279999997500455e+00 2.0260749052305987e+03 1.0000000000000000e+00 4.4170697931973280e+01 5.8325526774761727e+00 3.2405133460784680e-01 
973 974 2 1.0279999998379983e+00 6.6118091408358646e+02 1.0000000000000000e+00 4.7536676950338453e+01 6.5919474848218602e+00 1.7098140093329584e+00 
1984 1985 2 1.0279999998594720e+00 2.6977303874761360e+03 1.0000000000000000e+00 4.9331430016430460e+01 6.6814106559680644e+00 6.8210169613757354e-01 
518 519 2 1.0279999999206550e+00 -7.1025856919565786e+02 1.0000000000000000e+00 5.0788400819837477e+01 7.1769754001310178e+00 7.1442648791877348e-03 
4056 4057 2 1.0279999999889133e+00 1.0401104371400365e+03 1.0000000000000000e+00 5.4841856774938833e+01 6.1469280263368224e+00 1.5762051510404484e+00 
2007 2008 2 1.0279999997775708e+00 2.6693660478199372e+03 1.0000000000000000e+00 5.8629892573323474e+01 5.4660057061157410e+00 2.4238133039657300e-01 
2802 2803 2 1.0279999997129468e+00 5.5752214353516706e+02 1.0000000000000000e+00 5.9962955806334904e+01 5.6991625449281607e+00 2.1370811151003322e-01 
2427 2428 2 1.0279999999726479e+00 -8.0779312340243996e+02 1.0000000000000000e+00 6.2270589310698860e+01 6.6291452945100566e+00 1.5869469057852559e+00 
2382 2383 2 1.0280000000906164e+00 1.5251868704496715e+03 1.0000000000000000e+00 6.1319305020373747e+01 6.7806603124652796e+00 5.0551132358721296e-01 
1184 1185 2 1.0280000002799159e+00 -7.9932899292704576e+01 1.0000000000000000e+00 6.3653319455909823e+01 5.7668704585444441e+00 1.3449117939781723e+00 
1646 1647 2 1.0279999985517549e+00 9.1103091716810741e+02 1.0000000000000000e+00 6.4187089302315556e+01 6.0301753015479642e+00 5.2439775215413342e-01 
1295 1296 2 1.0280000000292002e+00 8.5816243141285008e+02 1.0000000000000000e+00 3.9828701142251283e+01 8.8307104935402183e+00 1.5714510143291043e+00 
3442 3443 2 1.0280000001206600e+00 -1.1264475603834553e+03 1.0000000000000000e+00 4.1669630711335394e+01 7.3647373504987481e+00 2.9595513641773558e-01 
2403 2404 2 1.0279999999081435e+00 -1.5812011473767761e+03 1.0000000000000000e+00 4.2405152269692806e+01 8.7815811487451381e+00 1.2467972431023013e+00 
4582 4583 2 1.0279999999568392e+00 -9.9752355242024441e+02 1.0000000000000000e+00 4.2814469849059776e+01 7.8804733944585070e+00 2.5006705354500230e-01 
648 649 2 1.0280000001479384e+00 -2.7305530199570348e+03 1.0000000000000000e+00 4.6323640086014585e+01 7.9210169424507555e+00 7.1473505228577774e-02 
1070 1071 2 1.0279999999971361e+00 -6.1644593435282786e+02 1.0000000000000000e+00 4.7702914425039573e+01 7.7981862656962271e+00 7.1375427630264776e-01 
728 729 2 1.0280000001517899e+00 -2.3630486851727110e+03 1.0000000000000000e+00 4.9970217680345989e+01 8.2794071630355468e+00 5.6410382031816453e-01 
935 936 2 1.0279999999366227e+00 -1.1096377009188295e+03 1.0000000000000000e+00 4.8792640601811520e+01 8.8259463833674179e+00 1.4096944695199791e+00 
521 522 2 1.0279999998422473e+00 9.1388853718329847e+02 1.0000000000000000e+00 5.2029701812914801e+01 8.4175571465052599e+00 9.2384329687003430e-01 
646 647 2 1.0279999999005065e+00 -3.3766864000801579e+03 1.0000000000000000e+00 5.5099538801855573e+01 7.8528024780218137e+00 1.5994474347458658e+00 
657 658 2 1.0279999998786042e+00 -3.3771499601680543e+03 1.0000000000000000e+00 5.4044790009954845e+01 9.0179010735849392e+00 3.5644735169310049e-01 
1877 1878 2 1.0280000000633780e+00 -1.3017113632184305e+03 1.0000000000000000e+00 5.6428987734805098e+01 7.3467876066657611e+00 5.7381919784077606e-01 
26 27 2 1.0280000002064311e+00 -3.1778426315090258e+02 1.0000000000000000e+00 5.7880483364369105e+01 7.8234069585262693e+00 4.0458606005430903e-01 
961 962 2 1.0279999999928273e+00 1.4386398221905545e+03 1.0000000000000000e+00 5.9716956503230186e+01 8.7330992836235453e+00 7.0912946303023014e-02 
3312 3313 2 1.0280000011335544e+00 6.2701736263394446e+02 1.0000000000000000e+00 6.1627142576188717e+01 8.8067483038529897e+00 1.3681230191650995e+00 
2098 2099 2 1.0279999995126705e+00 -4.8223304748371424e+02 1.0000000000000000e+00 6.2996967266771257e+01 8.1578438868932075e+00 8.4138806678098388e-01 
1733 1734 2 1.0279999999320117e+00 -1.3125070499251324e+03 1.0000000000000000e+00 3.7203200515114723e+01 1.0071151416694674e+01 1.8052791997109665e+00 
2281 2282 2 1.0280000000698539e+00 -2.2219570023002088e+03 1.0000000000000000e+00 3.7644553149368704e+01 1.0282499358597260e+01 1.1199947840577604e+00 
2429 2430 2 1.0279999998775553e+00 1.4641175654981926e+03 1.0000000000000000e+00 4.1408415016276535e+01 9.3257815739808407e+00 1.7598554714106820e+00 
2845 2846 2 1.0280000001036880e+00 -1.8995008585422756e+03 1.0000000000000000e+00 4.5562095023542597e+01 9.8729659659629920e+00 1.7022305376611995e+00 
475 476 2 1.0279999999552492e+00 2.9291735290474600e+02 1.0000000000000000e+00 5.1464460194187765e+01 1.0485696638238680e+01 7.4104015197646989e-01 
731 732 2 1.0280000001118594e+00 -2.8235331057510357e+03 1.0000000000000000e+00 5.2673920842818831e+01 9.9427960039928234e+00 6.0332103767051781e-01 
1503 1504 2 1.0280000001800063e+00 -2.5409363892288247e+03 1.0000000000000000e+00 5.4884198245355044e+01 1.0233001420401989e+01 8.3699193570698827e-01 
2040 2041 2 1.0280000001442793e+00 1.2394481429157315e+02 1.0000000000000000e+00 5.7368406475824543e+01 9.5363329922622881e+00 1.3750294998195132e+00 
156 157 2 1.0279999999968146e+00 -1.0334971345177100e+03 1.0000000000000000e+00 5.5873970225135494e+01 1.0311370440697603e+01 1.7359813142868867e+00 
3558 3559 2 1.0279999999274436e+00 -2.3443610442102813e+01 1.0000000000000000e+00 6.0597195190694755e+01 1.0145122257193307e+01 4.4524812892345866e-01 
508 509 2 1.0279999999007781e+00 -1.0272614104368977e+03 1.0000000000000000e+00 6.4467887099660672e+01 1.0413799931636579e+01 1.3431097964326761e+00 
474 475 2 1.0279999999709264e+00 -1.3567071725887945e+02 1.0000000000000000e+00 3.4906308467799761e+01 1.1140463187331433e+01 1.7864318771702554e+00 
471 472 2 1.0280000000288456e+00 6.8179508576226885e+02 1.0000000000000000e+00 3.5738372029948621e+01 1.1336024044460848e+01 1.7933339978394489e+00 
3011 3012 2 1.0279999997479488e+00 1.7055656146173951e+03 1.0000000000000000e+00 3.9555478926205005e+01 1.2187021697161887e+01 2.4961104003895587e-01 
1619 1620 2 1.0280000002723007e+00 -3.3736444226353399e+02 1.0000000000000000e+00 3.9004889082959920e+01 1.2649260025591460e+01 3.1959642803202254e-01 
3286 3287 2 1.0280000000346881e+00 1.4160740382659792e+03 1.0000000000000000e+00 4.7245376546585064e+01 1.2335901779924772e+01 1.7629276125374118e+00 
2358 2359 2 1.0279999999456533e+00 2.2937737519181319e+03 1.0000000000000000e+00 4.8959412586429821e+01 1.0967121855840055e+01 3.3611637300123409e-01 
3376 3377 2 1.0280000000343279e+00 -9.8813243715910289e+02 1.0000000000000000e+00 4.9920059901696469e+01 1.2233501371076635e+01 6.3417913088080813e-01 
3274 3275 2 1.0279999999697438e+00 -3.1582895800699184e+03 1.0000000000000000e+00 5.1395692492568109e+01 1.1864048121380657e+01 3.8992210221611928e-01 
1373 1374 2 1.0280000001216500e+00 -8.3779580259726595e+02 1.0000000000000000e+00 5.3723154369467572e+01 1.1540548640835985e+01 1.4084232318660803e+00 
1757 1758 2 1.0279999997742295e+00 -2.5053655627612452e+03 1.0000000000000000e+00 6.1110830569391638e+01 1.1088635023051163e+01 1.6432942367202974e+00 
3074 3075 2 1.0280000001287586e+00 -2.6310152589940958e+02 1.0000000000000000e+00 6.2110983102397668e+01 1.1736347884260793e+01 1.0110325856898237e+00 
634 635 2 1.0280000000718954e+00 4.2950171928134057e+02 1.0000000000000000e+00 6.3134243366981273e+01 1.1155356570449630e+01 1.7865564198217454e+00 
590 591 2 1.0279999995443978e+00 -7.8147945048135216e+02 1.0000000000000000e+00 6.4038146618382257e+01 1.2184227116215478e+01 7.5025763380767974e-01 
3407 3408 2 1.0280000000010412e+00 1.3627074222591964e+03 1.0000000000000000e+00 6.5734044127807437e+01 1.1040858427554680e+01 9.6024222605297049e-01 
4166 4167 2 1.0280000000863068e+00 7.5184819051530113e+01 1.0000000000000000e+00 4.7101043568996317e+01 1.3257536943464785e+01 4.1636358339325880e-01 
2449 2450 2 1.0279999998402249e+00 2.6210199681566764e+03 1.0000000000000000e+00 4.8321973580952481e+01 1.3261472707904520e+01 1.3005146674932286e+00 
2961 2962 2 1.0280000001815737e+00 1.6071253837434701e+03 1.0000000000000000e+00 4.9629718613698103e+01 1.4319872741550004e+01 3.1015278192616524e-01 
3755 3756 2 1.0279999998001350e+00 8.8775333196949259e+02 1.0000000000000000e+00 5.1031700379471374e+01 1.4410048109529560e+01 6.5887728062819650e-01 
3134 3135 2 1.0279999999938358e+00 -8.8868574541123007e+02 1.0000000000000000e+00 5.3587888862779074e+01 1.3849416093847486e+01 1.3787480523311275e+00 
2416 2417 2 1.0279999999104215e+00 -1.8263365603449945e+03 1.0000000000000000e+00 5.2596895309350046e+01 1.2765364512007404e+01 2.1213194662837864e-01 
3642 3643 2 1.0280000000545264e+00 1.6144146042728205e+03 1.0000000000000000e+00 5.4398556929422597e+01 1.2895174556512730e+01 1.7952789569684868e+00 
828 829 2 1.0279999999111291e+00 1.6519420283895823e+02 1.0000000000000000e+00 5.9145409964961416e+01 1.3581653867424558e+01 5.3581022959680902e-01 
4535 4536 2 1.0279999997676106e+00 6.2823857186703992e+02 1.0000000000000000e+00 5.7783622392750452e+01 1.3750469786477959e+01 9.0474607175854360e-01 
3577 3578 2 1.0280000001560743e+00 -3.7560930375907003e+02 1.0000000000000000e+00 6.2474570116163498e+01 1.3538285049755341e+01 1.2761563377052785e+00 
235 236 2 1.0279999998077529e+00 -3.3512780952906433e+03 1.0000000000000000e+00 6.1390240086590786e+01 1.3697600778292108e+01 1.3293806315176770e+00 
2315 2316 2 1.0280000003379077e+00 -1.7524413025765193e+03 1.0000000000000000e+00 6.4889282077964211e+01 1.3009988203704918e+01 2.1600700954412191e-01 
3744 3745 2 1.0279999996388574e+00 -5.5136592258048677e+02 1.0000000000000000e+00 6.5911259013252973e+01 1.2814669997665664e+01 1.1376312443123324e+00 
3662 3663 2 1.0280000000643659e+00 -1.0358896021547246e+03 1.0000000000000000e+00 4.6989621088261579e+01 1.4611671529594975e+01 5.3111390200519315e-01 
2485 2486 2 1.0279999999484633e+00 -1.2640284518611847e+03 1.0000000000000000e+00 4.6627618361218559e+01 1.6138382761120941e+01 1.3387953451164183e+00 
3423 3424 2 1.0280000000017997e+00 2.3480472339426751e+03 1.0000000000000000e+00 4.8984787270650166e+01 1.5105423786031814e+01 1.6994082172839486e+00 
4427 4428 2 1.0280000001102967e+00 1.9627540500108057e+03 1.0000000000000000e+00 5.1229196583085049e+01 1.5961856354715129e+01 5.7015998123619738e-01 
2716 2717 2 1.0280000001421203e+00 2.2105522842860314e+03 1.0000000000000000e+00 5.2643191032792359e+01 1.5413104587939722e+01 1.4540421963414096e+00 
2757 2758 2 1.0279999999269720e+00 -1.7906021201095832e+03 1.0000000000000000e+00 5.2681845926315070e+01 1.5135250398922690e+01 2.6465735503048444e-02 
2630 2631 2 1.0280000001176703e+00 2.6775181456234395e+03 1.0000000000000000e+00 5.4895500858846063e+01 1.6052854962448773e+01 5.0069333488348078e-01 
4103 4104 2 1.0279999999417340e+00 -8.8120907548449350e+02 1.0000000000000000e+00 5.6066037165674494e+01 1.6009892486293968e+01 8.2325153240558724e-01 
4277 4278 2 1.0279999997737082e+00 -6.1322142076106434e+02 1.0000000000000000e+00 5.8929699825456069e+01 1.6355101623071679e+01 1.4395085699248547e+00 
3005 3006 2 1.0279999998733600e+00 -3.0316880503759330e+02 1.0000000000000000e+00 6.0911304455348862e+01 1.6013374097436067e+01 1.1265634550259920e+00 
4101 4102 2 1.0279999999520704e+00 1.4959042020468969e+03 1.0000000000000000e+00 5.9752862462651436e+01 1.4628126409138343e+01 3.9390022853478854e-02 
1432 1433 2 1.0279999997768887e+00 -2.9419115114862461e+03 1.0000000000000000e+00 6.3897793619507375e+01 1.5521404377750542e+01 4.2598586817828593e-01 
2784 2785 2 1.0279999999214717e+00 1.6172160903672816e+03 1.0000000000000000e+00 4.7053308859723380e+01 1.7413425206410352e+01 1.1331343986401539e+00 
3885 3886 2 1.0279999999669827e+00 -3.4976432905928523e+03 1.0000000000000000e+00 5.0572377770178853e+01 1.8004681322402931e+01 6.6140223822157551e-01 
3298 3299 2 1.0279999999140776e+00 1.3019524519600398e+03 1.0000000000000000e+00 5.2053600312394558e+01 1.7180273407037905e+01 1.5487894728004385e+00 
3886 3887 2 1.0280000001477196e+00 -3.6439228222337051e+03 1.0000000000000000e+00 5.3510419509883860e+01 1.7509643201108442e+01 1.8152722946801982e+00 
1392 1393 2 1.0280000005950614e+00 -2.6607238788383427e+02 1.0000000000000000e+00 5.9181311619230996e+01 1.6647373711635151e+01 4.7510146197945746e-01 
3533 3534 2 1.0280000004165162e+00 -4.2219236470279014e+01 1.0000000000000000e+00 6.2758480298096799e+01 1.6527758943604287e+01 1.1662569458332368e+00 
1223 1224 2 1.0279999997132216e+00 -5.4875884137414857e+01 1.0000000000000000e+00 6.1961977143121281e+01 1.7082137013541786e+01 1.5033558812813932e+00 
3829 3830 2 1.0279999999476184e+00 -9.1392166337639628e+02 1.0000000000000000e+00 4.3999227795616449e+01 1.9860033337199663e+01 1.4845639641115191e+00 
4260 4261 2 1.0279999999793463e+00 -1.2665353561682102e+03 1.0000000000000000e+00 4.9884060979075954e+01 1.9761371757933407e+01 1.0768053034524088e+00 
3800 3801 2 1.0279999999881679e+00 2.2947058241011373e+03 1.0000000000000000e+00 5.1605683731511817e+01 1.9227147131791849e+01 1.1258932495622882e+00 
4059 4060 2 1.0280000001060150e+00 1.5514254445387533e+03 1.0000000000000000e+00 5.3393804724794940e+01 1.8451458959747594e+01 3.8219635692059684e-01 
1123 1124 2 1.0280000001317275e+00 2.0273218983078466e+03 1.0000000000000000e+00 5.4935275489240198e+01 1.9940221830304250e+01 1.0381112761902955e+00 
4316 4317 2 1.0280000003767387e+00 -6.7540293803620966e+02 1.0000000000000000e+00 5.8335718664447484e+01 1.8961661208423095e+01 5.3207054135174137e-01 
1994 1995 2 1.0280000000367784e+00 2.3192062093766472e+03 1.0000000000000000e+00 5.2184035258311482e+01 1.7388152361257911e+00 3.0244808028897450e+00 
1082 1083 2 1.0280000000347516e+00 -1.2484869753379508e+03 1.0000000000000000e+00 5.7170229374682982e+01 1.7668199975337555e+00 2.8501423361036036e+00 
30 31 2 1.0279999999537461e+00 -7.8065163719015572e+02 1.0000000000000000e+00 5.8228601071679883e+01 1.1133464852323463e+00 2.3997274014241383e+00 
2771 2772 2 1.0279999998955787e+00 1.8555201331802205e+03 1.0000000000000000e+00 6.2837232615241092e+01 5.0442449172377071e-02 2.1718973080596489e+00 
448 449 2 1.0280000002495731e+00 1.1118525453309840e+03 1.0000000000000000e+00 6.1653047545966935e+01 4.1466777713410918e-01 2.9207472560980499e+00 
633 634 2 1.0279999989614554e+00 3.9034367511510078e+02 1.0000000000000000e+00 6.5092963913095133e+01 2.7031887152255002e-01 2.8255302904368125e+00 
593 594 2 1.0280000007603058e+00 7.2827115615942262e+02 1.0000000000000000e+00 6.5168459033485476e+01 1.5579551141281440e+00 2.3476678351720217e+00 
57 58 2 1.0279999999567340e+00 -1.0666682522023439e+03 1.0000000000000000e+00 5.0537310218408805e+01 2.1780579912402858e+00 3.3560704953112639e+00 
1113 1114 2 1.0280000000036511e+00 2.3009231262752628e+03 1.0000000000000000e+00 5.1426100613340274e+01 3.1327609340089211e+00 2.5523193222904652e+00 
2038 2039 2 1.0280000000371845e+00 -2.0394438813940553e+02 1.0000000000000000e+00 5.4880482966469280e+01 2.0750448280291129e+00 2.9219287393349860e+00 
985 986 2 1.0279999999081944e+00 1.0375642155010230e+03 1.0000000000000000e+00 5.4060776990219267e+01 3.1930538560798247e+00 3.1995491799483773e+00 
3804 3805 2 1.0279999999915965e+00 1.1845167325390848e+03 1.0000000000000000e+00 5.6029707666809188e+01 3.1164703679516701e+00 2.9588127241305799e+00 
1003 1004 2 1.0280000000516336e+00 1.8882385503167493e+03 1.0000000000000000e+00 6.1033152648286951e+01 2.9244276198900603e+00 2.2287450062532170e+00 
2052 2053 2 1.0280000001312797e+00 -1.2218730103542596e+03 1.0000000000000000e+00 6.1739670453120617e+01 1.9259494613067989e+00 2.8252644751001421e+00 
643 644 2 1.0280000000283214e+00 -1.8323519135869078e+03 1.0000000000000000e+00 4.8028539070024827e+01 4.4162337199731816e+00 2.6569666638801590e+00 
1992 1993 2 1.0279999999526817e+00 2.6697016043557537e+03 1.0000000000000000e+00 5.1435059415481881e+01 4.6297551100876291e+00 1.8229707836822635e+00 
987 988 2 1.0280000001296639e+00 1.3198905657990535e+03 1.0000000000000000e+00 5.2260044027086792e+01 5.2359056014329228e+00 2.7007058998734519e+00 
570 571 2 1.0280000000286238e+00 1.3786437589776726e+03 1.0000000000000000e+00 5.4682417157679993e+01 4.4306336179217976e+00 2.2976746445039260e+00 
106 107 2 1.0279999999045730e+00 -4.0160817104435455e+02 1.0000000000000000e+00 5.5949255930561840e+01 4.9850833849817251e+00 3.3618886585138776e+00 
2930 2931 2 1.0279999997988203e+00 -1.6273437716405674e+03 1.0000000000000000e+00 5.8005201143822809e+01 3.6659826532086170e+00 2.5306443403334953e+00 
1585 1586 2 1.0280000000975362e+00 2.5154551651323154e+03 1.0000000000000000e+00 5.8524655744720917e+01 5.0794432828927194e+00 2.1146373490677188e+00 
68 69 2 1.0279999999893483e+00 -6.7474699755896904e+02 1.0000000000000000e+00 5.9764138138783366e+01 4.7600796340758977e+00 3.2410382780846607e+00 
999 1000 2 1.0280000000996243e+00 1.3748917906338979e+03 1.0000000000000000e+00 6.1194223285458193e+01 3.9945511855165923e+00 3.6295921925103087e+00 
3536 3537 2 1.0280000000692855e+00 9.8383317861475439e+02 1.0000000000000000e+00 4.1686459816416438e+01 6.4386015177191211e+00 2.8410488843164430e+00 
3201 3202 2 1.0280000000099692e+00 4.6606547311069750e+02 1.0000000000000000e+00 4.3161284914019170e+01 6.2543700338723287e+00 3.1541816319266949e+00 
2571 2572 2 1.0279999998759917e+00 6.1183430624446260e+02 1.0000000000000000e+00 4.3372539672359693e+01 7.1602130263739250e+00 2.6531455399967228e+00 
88 89 2 1.0280000000289220e+00 -1.1126842231244514e+03 1.0000000000000000e+00 4.5673713167304093e+01 6.5527628043411106e+00 1.9712476024629313e+00 
89 90 2 1.0280000000856870e+00 -1.4188825561485578e+03 1.0000000000000000e+00 4.5038905595188027e+01 7.2139018414306104e+00 2.3085739978042477e+00 
1560 1561 2 1.0280000002583105e+00 -1.5182571186229924e+02 1.0000000000000000e+00 4.7077514184273703e+01 5.8545225271842014e+00 2.8846641849835315e+00 
1575 1576 2 1.0280000001592366e+00 1.5223409868654967e+03 1.0000000000000000e+00 4.9772421504242637e+01 6.7352717684014678e+00 1.9650103513184523e+00 
645 646 2 1.0279999998805600e+00 -3.0793676628773578e+03 1.0000000000000000e+00 4.8575651688194270e+01 6.1983297212589816e+00 2.9872997011808695e+00 
650 651 2 1.0279999998847065e+00 -3.7382783247306093e+03 1.0000000000000000e+00 5.1752717784348256e+01 6.7519640616853218e+00 2.7010957422796227e+00 
350 351 2 1.0279999998786500e+00 4.4800125139744847e+02 1.0000000000000000e+00 5.0051736855532120e+01 7.1402481388199206e+00 3.5728600945735707e+00 