LAMMPS data file via write_data, version 30 Jul 2016, timestep = 50000000

4620 atoms
8 atom types

0.0000000000000000e+00 1.0000000000000000e+02 xlo xhi
0.0000000000000000e+00 4.0000000000000000e+01 ylo yhi
0.0000000000000000e+00 4.0000000000000000e+01 zlo zhi

Masses

1 3.896
2 5.36
3 20.064
4 8.378
5 8.378
6 8.378
7 8.378
8 8.378

Atoms # meso-molecular

687 688 2 1.4218704307376302e+00 -8.8810168094486081e-02 1.0000000000000000e+00 1.7914083001587904e+00 1.2199999999999999e+01 9.2962036637849232e-01 
225 226 2 1.4218704307376302e+00 -8.8810168094486081e-02 1.0000000000000000e+00 1.7914083001587904e+00 1.0000000000000000e+01 9.2962036637849232e-01 
897 898 2 1.4218704307376302e+00 -6.6226672101821774e-02 1.0000000000000000e+00 8.2091291762184717e+00 1.2199999999999999e+01 1.8771703839091967e+00 
435 436 2 1.4218704307376302e+00 -6.6226672101821774e-02 1.0000000000000000e+00 8.2091291762184717e+00 1.0000000000000000e+01 1.8771703839091967e+00 
182 183 2 1.4218704307376302e+00 -8.9029786062377464e-02 1.0000000000000000e+00 9.8295970157889148e+00 1.0000000000000000e+01 5.0060560857533876e-01 
644 645 2 1.4218704307376302e+00 -8.9029786062377464e-02 1.0000000000000000e+00 9.8295970157889148e+00 1.2199999999999999e+01 5.0060560857533876e-01 
104 105 2 1.4218704307376302e+00 -8.8795859177074637e-02 1.0000000000000000e+00 1.2364799085384245e+01 1.0000000000000000e+01 1.9790246646323058e+00 
566 567 2 1.4218704307376302e+00 -8.8795859177074637e-02 1.0000000000000000e+00 1.2364799085384245e+01 1.2199999999999999e+01 1.9790246646323058e+00 
101 102 2 1.4218704307376302e+00 -8.8879014637255283e-02 1.0000000000000000e+00 1.4394781743404183e+01 1.0000000000000000e+01 4.7375872122082330e-02 
563 564 2 1.4218704307376302e+00 -8.8879014637255283e-02 1.0000000000000000e+00 1.4394781743404183e+01 1.2199999999999999e+01 4.7375872122082330e-02 
688 689 2 1.4218704307376302e+00 -8.8917461328385392e-02 1.0000000000000000e+00 1.4221893776630791e+01 1.2199999999999999e+01 2.9237613885712244e+00 
226 227 2 1.4218704307376302e+00 -8.8917461328385392e-02 1.0000000000000000e+00 1.4221893776630791e+01 1.0000000000000000e+01 2.9237613885712244e+00 
867 868 2 1.4218704307376302e+00 -8.9131203369348405e-02 1.0000000000000000e+00 1.6608324905815785e+01 1.2199999999999999e+01 2.4209452034803300e+00 
405 406 2 1.4218704307376302e+00 -8.9131203369348405e-02 1.0000000000000000e+00 1.6608324905815785e+01 1.0000000000000000e+01 2.4209452034803300e+00 
243 244 2 1.4218704307376302e+00 -8.9028298768498881e-02 1.0000000000000000e+00 1.7220136920804563e+01 1.0000000000000000e+01 1.5716414814215127e-01 
705 706 2 1.4218704307376302e+00 -8.9028298768498881e-02 1.0000000000000000e+00 1.7220136920804563e+01 1.2199999999999999e+01 1.5716414814215127e-01 
314 315 2 1.4218704307376302e+00 -8.9009153240276903e-02 1.0000000000000000e+00 1.9863379962808889e+01 1.0000000000000000e+01 1.7743954809404223e+00 
776 777 2 1.4218704307376302e+00 -8.9009153240276903e-02 1.0000000000000000e+00 1.9863379962808889e+01 1.2199999999999999e+01 1.7743954809404223e+00 
291 292 2 1.4218704307376302e+00 -8.8919556587220880e-02 1.0000000000000000e+00 2.2781066315712483e+01 1.0000000000000000e+01 1.1891284137701457e+00 
753 754 2 1.4218704307376302e+00 -8.8919556587220880e-02 1.0000000000000000e+00 2.2781066315712483e+01 1.2199999999999999e+01 1.1891284137701457e+00 
381 382 2 1.4218704307376302e+00 -8.8705800804813065e-02 1.0000000000000000e+00 2.6528192450947742e+01 1.0000000000000000e+01 1.8849122489013350e+00 
843 844 2 1.4218704307376302e+00 -8.8705800804813065e-02 1.0000000000000000e+00 2.6528192450947742e+01 1.2199999999999999e+01 1.8849122489013350e+00 
60 61 2 1.4218704307376302e+00 -8.8954905369991621e-02 1.0000000000000000e+00 3.0626704225246975e+01 1.0000000000000000e+01 3.2293523146661203e+00 
522 523 2 1.4218704307376302e+00 -8.8954905369991621e-02 1.0000000000000000e+00 3.0626704225246975e+01 1.2199999999999999e+01 3.2293523146661203e+00 
710 711 2 1.4218704307376302e+00 -8.8965878443685503e-02 1.0000000000000000e+00 3.2744609468284430e+01 1.2199999999999999e+01 2.3191528605363110e+00 
248 249 2 1.4218704307376302e+00 -8.8965878443685503e-02 1.0000000000000000e+00 3.2744609468284430e+01 1.0000000000000000e+01 2.3191528605363110e+00 
1149 1150 2 1.4218704307376302e+00 -8.8810168094486081e-02 1.0000000000000000e+00 1.7914083001587904e+00 1.4400000000000000e+01 9.2962036637849232e-01 
1611 1612 2 1.4218704307376302e+00 -8.8810168094486081e-02 1.0000000000000000e+00 1.7914083001587904e+00 1.6600000000000001e+01 9.2962036637849232e-01 
1359 1360 2 1.4218704307376302e+00 -6.6226672101821774e-02 1.0000000000000000e+00 8.2091291762184717e+00 1.4400000000000000e+01 1.8771703839091967e+00 
1821 1822 2 1.4218704307376302e+00 -6.6226672101821774e-02 1.0000000000000000e+00 8.2091291762184717e+00 1.6600000000000001e+01 1.8771703839091967e+00 
1106 1107 2 1.4218704307376302e+00 -8.9029786062377464e-02 1.0000000000000000e+00 9.8295970157889148e+00 1.4400000000000000e+01 5.0060560857533876e-01 
1568 1569 2 1.4218704307376302e+00 -8.9029786062377464e-02 1.0000000000000000e+00 9.8295970157889148e+00 1.6600000000000001e+01 5.0060560857533876e-01 
1028 1029 2 1.4218704307376302e+00 -8.8795859177074637e-02 1.0000000000000000e+00 1.2364799085384245e+01 1.4400000000000000e+01 1.9790246646323058e+00 
1490 1491 2 1.4218704307376302e+00 -8.8795859177074637e-02 1.0000000000000000e+00 1.2364799085384245e+01 1.6600000000000001e+01 1.9790246646323058e+00 
1612 1613 2 1.4218704307376302e+00 -8.8917461328385392e-02 1.0000000000000000e+00 1.4221893776630791e+01 1.6600000000000001e+01 2.9237613885712244e+00 
1025 1026 2 1.4218704307376302e+00 -8.8879014637255283e-02 1.0000000000000000e+00 1.4394781743404183e+01 1.4400000000000000e+01 4.7375872122082330e-02 
1487 1488 2 1.4218704307376302e+00 -8.8879014637255283e-02 1.0000000000000000e+00 1.4394781743404183e+01 1.6600000000000001e+01 4.7375872122082330e-02 
1150 1151 2 1.4218704307376302e+00 -8.8917461328385392e-02 1.0000000000000000e+00 1.4221893776630791e+01 1.4400000000000000e+01 2.9237613885712244e+00 
1791 1792 2 1.4218704307376302e+00 -8.9131203369348405e-02 1.0000000000000000e+00 1.6608324905815785e+01 1.6600000000000001e+01 2.4209452034803300e+00 
1329 1330 2 1.4218704307376302e+00 -8.9131203369348405e-02 1.0000000000000000e+00 1.6608324905815785e+01 1.4400000000000000e+01 2.4209452034803300e+00 
1167 1168 2 1.4218704307376302e+00 -8.9028298768498881e-02 1.0000000000000000e+00 1.7220136920804563e+01 1.4400000000000000e+01 1.5716414814215127e-01 
1629 1630 2 1.4218704307376302e+00 -8.9028298768498881e-02 1.0000000000000000e+00 1.7220136920804563e+01 1.6600000000000001e+01 1.5716414814215127e-01 
1238 1239 2 1.4218704307376302e+00 -8.9009153240276903e-02 1.0000000000000000e+00 1.9863379962808889e+01 1.4400000000000000e+01 1.7743954809404223e+00 
1700 1701 2 1.4218704307376302e+00 -8.9009153240276903e-02 1.0000000000000000e+00 1.9863379962808889e+01 1.6600000000000001e+01 1.7743954809404223e+00 
1215 1216 2 1.4218704307376302e+00 -8.8919556587220880e-02 1.0000000000000000e+00 2.2781066315712483e+01 1.4400000000000000e+01 1.1891284137701457e+00 
1677 1678 2 1.4218704307376302e+00 -8.8919556587220880e-02 1.0000000000000000e+00 2.2781066315712483e+01 1.6600000000000001e+01 1.1891284137701457e+00 
1305 1306 2 1.4218704307376302e+00 -8.8705800804813065e-02 1.0000000000000000e+00 2.6528192450947742e+01 1.4400000000000000e+01 1.8849122489013350e+00 
1767 1768 2 1.4218704307376302e+00 -8.8705800804813065e-02 1.0000000000000000e+00 2.6528192450947742e+01 1.6600000000000001e+01 1.8849122489013350e+00 
984 985 2 1.4218704307376302e+00 -8.8954905369991621e-02 1.0000000000000000e+00 3.0626704225246975e+01 1.4400000000000000e+01 3.2293523146661203e+00 
1446 1447 2 1.4218704307376302e+00 -8.8954905369991621e-02 1.0000000000000000e+00 3.0626704225246975e+01 1.6600000000000001e+01 3.2293523146661203e+00 
1634 1635 2 1.4218704307376302e+00 -8.8965878443685503e-02 1.0000000000000000e+00 3.2744609468284430e+01 1.6600000000000001e+01 2.3191528605363110e+00 
1172 1173 2 1.4218704307376302e+00 -8.8965878443685503e-02 1.0000000000000000e+00 3.2744609468284430e+01 1.4400000000000000e+01 2.3191528605363110e+00 
2073 2074 2 1.4218704307376302e+00 -8.8810168094486081e-02 1.0000000000000000e+00 1.7914083001587904e+00 1.8800000000000001e+01 9.2962036637849232e-01 
2283 2284 2 1.4218704307376302e+00 -6.6226672101821774e-02 1.0000000000000000e+00 8.2091291762184717e+00 1.8800000000000001e+01 1.8771703839091967e+00 
2030 2031 2 1.4218704307376302e+00 -8.9029786062377464e-02 1.0000000000000000e+00 9.8295970157889148e+00 1.8800000000000001e+01 5.0060560857533876e-01 
1952 1953 2 1.4218704307376302e+00 -8.8795859177074637e-02 1.0000000000000000e+00 1.2364799085384245e+01 1.8800000000000001e+01 1.9790246646323058e+00 
2074 2075 2 1.4218704307376302e+00 -8.8917461328385392e-02 1.0000000000000000e+00 1.4221893776630791e+01 1.8800000000000001e+01 2.9237613885712244e+00 
1949 1950 2 1.4218704307376302e+00 -8.8879014637255283e-02 1.0000000000000000e+00 1.4394781743404183e+01 1.8800000000000001e+01 4.7375872122082330e-02 
2253 2254 2 1.4218704307376302e+00 -8.9131203369348405e-02 1.0000000000000000e+00 1.6608324905815785e+01 1.8800000000000001e+01 2.4209452034803300e+00 
2091 2092 2 1.4218704307376302e+00 -8.9028298768498881e-02 1.0000000000000000e+00 1.7220136920804563e+01 1.8800000000000001e+01 1.5716414814215127e-01 
2162 2163 2 1.4218704307376302e+00 -8.9009153240276903e-02 1.0000000000000000e+00 1.9863379962808889e+01 1.8800000000000001e+01 1.7743954809404223e+00 
2139 2140 2 1.4218704307376302e+00 -8.8919556587220880e-02 1.0000000000000000e+00 2.2781066315712483e+01 1.8800000000000001e+01 1.1891284137701457e+00 
2229 2230 2 1.4218704307376302e+00 -8.8705800804813065e-02 1.0000000000000000e+00 2.6528192450947742e+01 1.8800000000000001e+01 1.8849122489013350e+00 
1908 1909 2 1.4218704307376302e+00 -8.8954905369991621e-02 1.0000000000000000e+00 3.0626704225246975e+01 1.8800000000000001e+01 3.2293523146661203e+00 
2096 2097 2 1.4218704307376302e+00 -8.8965878443685503e-02 1.0000000000000000e+00 3.2744609468284430e+01 1.8800000000000001e+01 2.3191528605363110e+00 
127 128 2 1.4218704307376302e+00 -6.5916108468840065e-02 1.0000000000000000e+00 2.7613364307409380e+00 1.0000000000000000e+01 3.4448034496458813e+00 
589 590 2 1.4218704307376302e+00 -6.5916108468840065e-02 1.0000000000000000e+00 2.7613364307409380e+00 1.2199999999999999e+01 3.4448034496458813e+00 
421 422 2 1.4218704307376302e+00 -4.3043200330936532e-02 1.0000000000000000e+00 1.2283239125319858e+00 1.0000000000000000e+01 4.8854523309104705e+00 
883 884 2 1.4218704307376302e+00 -4.3043200330936532e-02 1.0000000000000000e+00 1.2283239125319858e+00 1.2199999999999999e+01 4.8854523309104705e+00 
223 224 2 1.4218704307376302e+00 -8.8804659118861984e-02 1.0000000000000000e+00 4.3818439852987670e+00 1.0000000000000000e+01 5.5529999291718193e+00 
685 686 2 1.4218704307376302e+00 -8.8804659118861984e-02 1.0000000000000000e+00 4.3818439852987670e+00 1.2199999999999999e+01 5.5529999291718193e+00 
188 189 2 1.4218704307376302e+00 -8.9091325551516262e-02 1.0000000000000000e+00 1.0581291473521405e+01 1.0000000000000000e+01 3.5923062535250825e+00 
650 651 2 1.4218704307376302e+00 -8.9091325551516262e-02 1.0000000000000000e+00 1.0581291473521405e+01 1.2199999999999999e+01 3.5923062535250825e+00 
347 348 2 1.4218704307376302e+00 -8.8849893635240457e-02 1.0000000000000000e+00 1.3287487128594655e+01 1.0000000000000000e+01 4.7673428953357240e+00 
809 810 2 1.4218704307376302e+00 -8.8849893635240457e-02 1.0000000000000000e+00 1.3287487128594655e+01 1.2199999999999999e+01 4.7673428953357240e+00 
610 611 2 1.4218704307376302e+00 -8.8872631925437817e-02 1.0000000000000000e+00 1.5864050130868009e+01 1.2199999999999999e+01 4.9863195235978024e+00 
148 149 2 1.4218704307376302e+00 -8.8872631925437817e-02 1.0000000000000000e+00 1.5864050130868009e+01 1.0000000000000000e+01 4.9863195235978024e+00 
197 198 2 1.4218704307376302e+00 -8.9030989172589711e-02 1.0000000000000000e+00 1.8073127079005225e+01 1.0000000000000000e+01 6.1390045320265019e+00 
659 660 2 1.4218704307376302e+00 -8.9030989172589711e-02 1.0000000000000000e+00 1.8073127079005225e+01 1.2199999999999999e+01 6.1390045320265019e+00 
55 56 2 1.4218704307376302e+00 -8.9034542236743452e-02 1.0000000000000000e+00 2.0889888277149527e+01 1.0000000000000000e+01 3.8193663002577494e+00 
517 518 2 1.4218704307376302e+00 -8.9034542236743452e-02 1.0000000000000000e+00 2.0889888277149527e+01 1.2199999999999999e+01 3.8193663002577494e+00 
13 14 2 1.4218704307376302e+00 -6.6279571766403603e-02 1.0000000000000000e+00 2.0338752348720750e+01 1.0000000000000000e+01 5.8035760347976604e+00 
475 476 2 1.4218704307376302e+00 -6.6279571766403603e-02 1.0000000000000000e+00 2.0338752348720750e+01 1.2199999999999999e+01 5.8035760347976604e+00 
811 812 2 1.4218704307376302e+00 -8.8930579593545528e-02 1.0000000000000000e+00 2.3350801914771377e+01 1.2199999999999999e+01 4.2865869699053611e+00 
349 350 2 1.4218704307376302e+00 -8.8930579593545528e-02 1.0000000000000000e+00 2.3350801914771377e+01 1.0000000000000000e+01 4.2865869699053611e+00 
86 87 2 1.4218704307376302e+00 -8.8922222696921543e-02 1.0000000000000000e+00 2.5643963178232138e+01 1.0000000000000000e+01 6.3434582804424986e+00 
548 549 2 1.4218704307376302e+00 -8.8922222696921543e-02 1.0000000000000000e+00 2.5643963178232138e+01 1.2199999999999999e+01 6.3434582804424986e+00 
785 786 2 1.4218704307376302e+00 -8.8957966491910984e-02 1.0000000000000000e+00 2.7754173442012103e+01 1.2199999999999999e+01 3.7797506086354549e+00 
323 324 2 1.4218704307376302e+00 -8.8957966491910984e-02 1.0000000000000000e+00 2.7754173442012103e+01 1.0000000000000000e+01 3.7797506086354549e+00 
156 157 2 1.4218704307376302e+00 -8.8903997711987370e-02 1.0000000000000000e+00 3.1244006081178487e+01 1.0000000000000000e+01 6.4215843418104468e+00 
618 619 2 1.4218704307376302e+00 -8.8903997711987370e-02 1.0000000000000000e+00 3.1244006081178487e+01 1.2199999999999999e+01 6.4215843418104468e+00 
1051 1052 2 1.4218704307376302e+00 -6.5916108468840065e-02 1.0000000000000000e+00 2.7613364307409380e+00 1.4400000000000000e+01 3.4448034496458813e+00 
1513 1514 2 1.4218704307376302e+00 -6.5916108468840065e-02 1.0000000000000000e+00 2.7613364307409380e+00 1.6600000000000001e+01 3.4448034496458813e+00 
1345 1346 2 1.4218704307376302e+00 -4.3043200330936532e-02 1.0000000000000000e+00 1.2283239125319858e+00 1.4400000000000000e+01 4.8854523309104705e+00 
1807 1808 2 1.4218704307376302e+00 -4.3043200330936532e-02 1.0000000000000000e+00 1.2283239125319858e+00 1.6600000000000001e+01 4.8854523309104705e+00 
1147 1148 2 1.4218704307376302e+00 -8.8804659118861984e-02 1.0000000000000000e+00 4.3818439852987670e+00 1.4400000000000000e+01 5.5529999291718193e+00 
1609 1610 2 1.4218704307376302e+00 -8.8804659118861984e-02 1.0000000000000000e+00 4.3818439852987670e+00 1.6600000000000001e+01 5.5529999291718193e+00 
1112 1113 2 1.4218704307376302e+00 -8.9091325551516262e-02 1.0000000000000000e+00 1.0581291473521405e+01 1.4400000000000000e+01 3.5923062535250825e+00 
1574 1575 2 1.4218704307376302e+00 -8.9091325551516262e-02 1.0000000000000000e+00 1.0581291473521405e+01 1.6600000000000001e+01 3.5923062535250825e+00 
1733 1734 2 1.4218704307376302e+00 -8.8849893635240457e-02 1.0000000000000000e+00 1.3287487128594655e+01 1.6600000000000001e+01 4.7673428953357240e+00 
1271 1272 2 1.4218704307376302e+00 -8.8849893635240457e-02 1.0000000000000000e+00 1.3287487128594655e+01 1.4400000000000000e+01 4.7673428953357240e+00 
1534 1535 2 1.4218704307376302e+00 -8.8872631925437817e-02 1.0000000000000000e+00 1.5864050130868009e+01 1.6600000000000001e+01 4.9863195235978024e+00 
1072 1073 2 1.4218704307376302e+00 -8.8872631925437817e-02 1.0000000000000000e+00 1.5864050130868009e+01 1.4400000000000000e+01 4.9863195235978024e+00 
1121 1122 2 1.4218704307376302e+00 -8.9030989172589711e-02 1.0000000000000000e+00 1.8073127079005225e+01 1.4400000000000000e+01 6.1390045320265019e+00 
1583 1584 2 1.4218704307376302e+00 -8.9030989172589711e-02 1.0000000000000000e+00 1.8073127079005225e+01 1.6600000000000001e+01 6.1390045320265019e+00 
1441 1442 2 1.4218704307376302e+00 -8.9034542236743452e-02 1.0000000000000000e+00 2.0889888277149527e+01 1.6600000000000001e+01 3.8193663002577494e+00 
979 980 2 1.4218704307376302e+00 -8.9034542236743452e-02 1.0000000000000000e+00 2.0889888277149527e+01 1.4400000000000000e+01 3.8193663002577494e+00 
937 938 2 1.4218704307376302e+00 -6.6279571766403603e-02 1.0000000000000000e+00 2.0338752348720750e+01 1.4400000000000000e+01 5.8035760347976604e+00 
1399 1400 2 1.4218704307376302e+00 -6.6279571766403603e-02 1.0000000000000000e+00 2.0338752348720750e+01 1.6600000000000001e+01 5.8035760347976604e+00 
1735 1736 2 1.4218704307376302e+00 -8.8930579593545528e-02 1.0000000000000000e+00 2.3350801914771377e+01 1.6600000000000001e+01 4.2865869699053611e+00 
1273 1274 2 1.4218704307376302e+00 -8.8930579593545528e-02 1.0000000000000000e+00 2.3350801914771377e+01 1.4400000000000000e+01 4.2865869699053611e+00 
1010 1011 2 1.4218704307376302e+00 -8.8922222696921543e-02 1.0000000000000000e+00 2.5643963178232138e+01 1.4400000000000000e+01 6.3434582804424986e+00 
1472 1473 2 1.4218704307376302e+00 -8.8922222696921543e-02 1.0000000000000000e+00 2.5643963178232138e+01 1.6600000000000001e+01 6.3434582804424986e+00 
1247 1248 2 1.4218704307376302e+00 -8.8957966491910984e-02 1.0000000000000000e+00 2.7754173442012103e+01 1.4400000000000000e+01 3.7797506086354549e+00 
1709 1710 2 1.4218704307376302e+00 -8.8957966491910984e-02 1.0000000000000000e+00 2.7754173442012103e+01 1.6600000000000001e+01 3.7797506086354549e+00 
1080 1081 2 1.4218704307376302e+00 -8.8903997711987370e-02 1.0000000000000000e+00 3.1244006081178487e+01 1.4400000000000000e+01 6.4215843418104468e+00 
1542 1543 2 1.4218704307376302e+00 -8.8903997711987370e-02 1.0000000000000000e+00 3.1244006081178487e+01 1.6600000000000001e+01 6.4215843418104468e+00 
1975 1976 2 1.4218704307376302e+00 -6.5916108468840065e-02 1.0000000000000000e+00 2.7613364307409380e+00 1.8800000000000001e+01 3.4448034496458813e+00 
2269 2270 2 1.4218704307376302e+00 -4.3043200330936532e-02 1.0000000000000000e+00 1.2283239125319858e+00 1.8800000000000001e+01 4.8854523309104705e+00 
2071 2072 2 1.4218704307376302e+00 -8.8804659118861984e-02 1.0000000000000000e+00 4.3818439852987670e+00 1.8800000000000001e+01 5.5529999291718193e+00 
2036 2037 2 1.4218704307376302e+00 -8.9091325551516262e-02 1.0000000000000000e+00 1.0581291473521405e+01 1.8800000000000001e+01 3.5923062535250825e+00 
2195 2196 2 1.4218704307376302e+00 -8.8849893635240457e-02 1.0000000000000000e+00 1.3287487128594655e+01 1.8800000000000001e+01 4.7673428953357240e+00 
1996 1997 2 1.4218704307376302e+00 -8.8872631925437817e-02 1.0000000000000000e+00 1.5864050130868009e+01 1.8800000000000001e+01 4.9863195235978024e+00 
2045 2046 2 1.4218704307376302e+00 -8.9030989172589711e-02 1.0000000000000000e+00 1.8073127079005225e+01 1.8800000000000001e+01 6.1390045320265019e+00 
1903 1904 2 1.4218704307376302e+00 -8.9034542236743452e-02 1.0000000000000000e+00 2.0889888277149527e+01 1.8800000000000001e+01 3.8193663002577494e+00 
1861 1862 2 1.4218704307376302e+00 -6.6279571766403603e-02 1.0000000000000000e+00 2.0338752348720750e+01 1.8800000000000001e+01 5.8035760347976604e+00 
2197 2198 2 1.4218704307376302e+00 -8.8930579593545528e-02 1.0000000000000000e+00 2.3350801914771377e+01 1.8800000000000001e+01 4.2865869699053611e+00 
1934 1935 2 1.4218704307376302e+00 -8.8922222696921543e-02 1.0000000000000000e+00 2.5643963178232138e+01 1.8800000000000001e+01 6.3434582804424986e+00 
2171 2172 2 1.4218704307376302e+00 -8.8957966491910984e-02 1.0000000000000000e+00 2.7754173442012103e+01 1.8800000000000001e+01 3.7797506086354549e+00 
2004 2005 2 1.4218704307376302e+00 -8.8903997711987370e-02 1.0000000000000000e+00 3.1244006081178487e+01 1.8800000000000001e+01 6.4215843418104468e+00 
165 166 2 1.4218704307376302e+00 -8.8923645990799258e-02 1.0000000000000000e+00 3.6314980796265024e+00 1.0000000000000000e+01 8.0325791907944222e+00 
627 628 2 1.4218704307376302e+00 -8.8923645990799258e-02 1.0000000000000000e+00 3.6314980796265024e+00 1.2199999999999999e+01 8.0325791907944222e+00 
234 235 2 1.4218704307376302e+00 -8.9232868320338166e-02 1.0000000000000000e+00 6.3124988266975288e+00 1.0000000000000000e+01 7.5714324755963736e+00 
696 697 2 1.4218704307376302e+00 -8.9232868320338166e-02 1.0000000000000000e+00 6.3124988266975288e+00 1.2199999999999999e+01 7.5714324755963736e+00 
276 277 2 1.4218704307376302e+00 -8.9048115959916740e-02 1.0000000000000000e+00 8.7481364630501712e+00 1.0000000000000000e+01 7.5538612997919250e+00 
738 739 2 1.4218704307376302e+00 -8.9048115959916740e-02 1.0000000000000000e+00 8.7481364630501712e+00 1.2199999999999999e+01 7.5538612997919250e+00 
284 285 2 1.4218704307376302e+00 -8.9000095259957612e-02 1.0000000000000000e+00 1.1508659469291764e+01 1.0000000000000000e+01 6.6985503962355128e+00 
746 747 2 1.4218704307376302e+00 -8.9000095259957612e-02 1.0000000000000000e+00 1.1508659469291764e+01 1.2199999999999999e+01 6.6985503962355128e+00 
825 826 2 1.4218704307376302e+00 -8.9062151536408424e-02 1.0000000000000000e+00 1.0458321704503966e+01 1.2199999999999999e+01 9.3304501837593747e+00 
363 364 2 1.4218704307376302e+00 -8.9062151536408424e-02 1.0000000000000000e+00 1.0458321704503966e+01 1.0000000000000000e+01 9.3304501837593747e+00 
451 452 2 1.4218704307376302e+00 -6.6288900515103916e-02 1.0000000000000000e+00 1.3756854483701822e+01 1.0000000000000000e+01 7.1358220310498162e+00 
913 914 2 1.4218704307376302e+00 -6.6288900515103916e-02 1.0000000000000000e+00 1.3756854483701822e+01 1.2199999999999999e+01 7.1358220310498162e+00 
599 600 2 1.4218704307376302e+00 -8.9057658043477081e-02 1.0000000000000000e+00 1.6483641479535947e+01 1.2199999999999999e+01 7.4382192416385609e+00 
137 138 2 1.4218704307376302e+00 -8.9057658043477081e-02 1.0000000000000000e+00 1.6483641479535947e+01 1.0000000000000000e+01 7.4382192416385609e+00 
7 8 2 1.4218704307376302e+00 -6.5773044654458629e-02 1.0000000000000000e+00 1.6995059646188771e+01 1.0000000000000000e+01 9.4617485228642355e+00 
469 470 2 1.4218704307376302e+00 -6.5773044654458629e-02 1.0000000000000000e+00 1.6995059646188771e+01 1.2199999999999999e+01 9.4617485228642355e+00 
525 526 2 1.4218704307376302e+00 -8.9312258034501241e-02 1.0000000000000000e+00 1.9967525005440248e+01 1.2199999999999999e+01 9.7901377430715044e+00 
63 64 2 1.4218704307376302e+00 -8.9312258034501241e-02 1.0000000000000000e+00 1.9967525005440248e+01 1.0000000000000000e+01 9.7901377430715044e+00 
319 320 2 1.4218704307376302e+00 -8.8913187350329645e-02 1.0000000000000000e+00 2.3667646702734647e+01 1.0000000000000000e+01 7.0926740575979812e+00 
781 782 2 1.4218704307376302e+00 -8.8913187350329645e-02 1.0000000000000000e+00 2.3667646702734647e+01 1.2199999999999999e+01 7.0926740575979812e+00 
604 605 2 1.4218704307376302e+00 -8.8835871627362950e-02 1.0000000000000000e+00 2.5676889372402755e+01 1.2199999999999999e+01 9.0744470951221370e+00 
142 143 2 1.4218704307376302e+00 -8.8835871627362950e-02 1.0000000000000000e+00 2.5676889372402755e+01 1.0000000000000000e+01 9.0744470951221370e+00 
655 656 2 1.4218704307376302e+00 -8.9000765233463425e-02 1.0000000000000000e+00 2.7965810416949790e+01 1.2199999999999999e+01 7.5711344722691383e+00 
193 194 2 1.4218704307376302e+00 -8.9000765233463425e-02 1.0000000000000000e+00 2.7965810416949790e+01 1.0000000000000000e+01 7.5711344722691383e+00 
53 54 2 1.4218704307376302e+00 -8.8851935555362693e-02 1.0000000000000000e+00 3.2154616963561971e+01 1.0000000000000000e+01 8.3061345469657208e+00 
515 516 2 1.4218704307376302e+00 -8.8851935555362693e-02 1.0000000000000000e+00 3.2154616963561971e+01 1.2199999999999999e+01 8.3061345469657208e+00 
1089 1090 2 1.4218704307376302e+00 -8.8923645990799258e-02 1.0000000000000000e+00 3.6314980796265024e+00 1.4400000000000000e+01 8.0325791907944222e+00 
1551 1552 2 1.4218704307376302e+00 -8.8923645990799258e-02 1.0000000000000000e+00 3.6314980796265024e+00 1.6600000000000001e+01 8.0325791907944222e+00 
1158 1159 2 1.4218704307376302e+00 -8.9232868320338166e-02 1.0000000000000000e+00 6.3124988266975288e+00 1.4400000000000000e+01 7.5714324755963736e+00 
1620 1621 2 1.4218704307376302e+00 -8.9232868320338166e-02 1.0000000000000000e+00 6.3124988266975288e+00 1.6600000000000001e+01 7.5714324755963736e+00 
1662 1663 2 1.4218704307376302e+00 -8.9048115959916740e-02 1.0000000000000000e+00 8.7481364630501712e+00 1.6600000000000001e+01 7.5538612997919250e+00 
1200 1201 2 1.4218704307376302e+00 -8.9048115959916740e-02 1.0000000000000000e+00 8.7481364630501712e+00 1.4400000000000000e+01 7.5538612997919250e+00 
1670 1671 2 1.4218704307376302e+00 -8.9000095259957612e-02 1.0000000000000000e+00 1.1508659469291764e+01 1.6600000000000001e+01 6.6985503962355128e+00 
1208 1209 2 1.4218704307376302e+00 -8.9000095259957612e-02 1.0000000000000000e+00 1.1508659469291764e+01 1.4400000000000000e+01 6.6985503962355128e+00 
1287 1288 2 1.4218704307376302e+00 -8.9062151536408424e-02 1.0000000000000000e+00 1.0458321704503966e+01 1.4400000000000000e+01 9.3304501837593747e+00 
1749 1750 2 1.4218704307376302e+00 -8.9062151536408424e-02 1.0000000000000000e+00 1.0458321704503966e+01 1.6600000000000001e+01 9.3304501837593747e+00 
1375 1376 2 1.4218704307376302e+00 -6.6288900515103916e-02 1.0000000000000000e+00 1.3756854483701822e+01 1.4400000000000000e+01 7.1358220310498162e+00 
1837 1838 2 1.4218704307376302e+00 -6.6288900515103916e-02 1.0000000000000000e+00 1.3756854483701822e+01 1.6600000000000001e+01 7.1358220310498162e+00 
1523 1524 2 1.4218704307376302e+00 -8.9057658043477081e-02 1.0000000000000000e+00 1.6483641479535947e+01 1.6600000000000001e+01 7.4382192416385609e+00 
1061 1062 2 1.4218704307376302e+00 -8.9057658043477081e-02 1.0000000000000000e+00 1.6483641479535947e+01 1.4400000000000000e+01 7.4382192416385609e+00 
1393 1394 2 1.4218704307376302e+00 -6.5773044654458629e-02 1.0000000000000000e+00 1.6995059646188771e+01 1.6600000000000001e+01 9.4617485228642355e+00 
931 932 2 1.4218704307376302e+00 -6.5773044654458629e-02 1.0000000000000000e+00 1.6995059646188771e+01 1.4400000000000000e+01 9.4617485228642355e+00 
1449 1450 2 1.4218704307376302e+00 -8.9312258034501241e-02 1.0000000000000000e+00 1.9967525005440248e+01 1.6600000000000001e+01 9.7901377430715044e+00 
987 988 2 1.4218704307376302e+00 -8.9312258034501241e-02 1.0000000000000000e+00 1.9967525005440248e+01 1.4400000000000000e+01 9.7901377430715044e+00 
1705 1706 2 1.4218704307376302e+00 -8.8913187350329645e-02 1.0000000000000000e+00 2.3667646702734647e+01 1.6600000000000001e+01 7.0926740575979812e+00 
1243 1244 2 1.4218704307376302e+00 -8.8913187350329645e-02 1.0000000000000000e+00 2.3667646702734647e+01 1.4400000000000000e+01 7.0926740575979812e+00 
1528 1529 2 1.4218704307376302e+00 -8.8835871627362950e-02 1.0000000000000000e+00 2.5676889372402755e+01 1.6600000000000001e+01 9.0744470951221370e+00 
1066 1067 2 1.4218704307376302e+00 -8.8835871627362950e-02 1.0000000000000000e+00 2.5676889372402755e+01 1.4400000000000000e+01 9.0744470951221370e+00 
1579 1580 2 1.4218704307376302e+00 -8.9000765233463425e-02 1.0000000000000000e+00 2.7965810416949790e+01 1.6600000000000001e+01 7.5711344722691383e+00 
1117 1118 2 1.4218704307376302e+00 -8.9000765233463425e-02 1.0000000000000000e+00 2.7965810416949790e+01 1.4400000000000000e+01 7.5711344722691383e+00 
1439 1440 2 1.4218704307376302e+00 -8.8851935555362693e-02 1.0000000000000000e+00 3.2154616963561971e+01 1.6600000000000001e+01 8.3061345469657208e+00 
977 978 2 1.4218704307376302e+00 -8.8851935555362693e-02 1.0000000000000000e+00 3.2154616963561971e+01 1.4400000000000000e+01 8.3061345469657208e+00 
2013 2014 2 1.4218704307376302e+00 -8.8923645990799258e-02 1.0000000000000000e+00 3.6314980796265024e+00 1.8800000000000001e+01 8.0325791907944222e+00 
2082 2083 2 1.4218704307376302e+00 -8.9232868320338166e-02 1.0000000000000000e+00 6.3124988266975288e+00 1.8800000000000001e+01 7.5714324755963736e+00 
2124 2125 2 1.4218704307376302e+00 -8.9048115959916740e-02 1.0000000000000000e+00 8.7481364630501712e+00 1.8800000000000001e+01 7.5538612997919250e+00 
2132 2133 2 1.4218704307376302e+00 -8.9000095259957612e-02 1.0000000000000000e+00 1.1508659469291764e+01 1.8800000000000001e+01 6.6985503962355128e+00 
2211 2212 2 1.4218704307376302e+00 -8.9062151536408424e-02 1.0000000000000000e+00 1.0458321704503966e+01 1.8800000000000001e+01 9.3304501837593747e+00 
2299 2300 2 1.4218704307376302e+00 -6.6288900515103916e-02 1.0000000000000000e+00 1.3756854483701822e+01 1.8800000000000001e+01 7.1358220310498162e+00 
1985 1986 2 1.4218704307376302e+00 -8.9057658043477081e-02 1.0000000000000000e+00 1.6483641479535947e+01 1.8800000000000001e+01 7.4382192416385609e+00 
1855 1856 2 1.4218704307376302e+00 -6.5773044654458629e-02 1.0000000000000000e+00 1.6995059646188771e+01 1.8800000000000001e+01 9.4617485228642355e+00 
1911 1912 2 1.4218704307376302e+00 -8.9312258034501241e-02 1.0000000000000000e+00 1.9967525005440248e+01 1.8800000000000001e+01 9.7901377430715044e+00 
2167 2168 2 1.4218704307376302e+00 -8.8913187350329645e-02 1.0000000000000000e+00 2.3667646702734647e+01 1.8800000000000001e+01 7.0926740575979812e+00 
1990 1991 2 1.4218704307376302e+00 -8.8835871627362950e-02 1.0000000000000000e+00 2.5676889372402755e+01 1.8800000000000001e+01 9.0744470951221370e+00 
2041 2042 2 1.4218704307376302e+00 -8.9000765233463425e-02 1.0000000000000000e+00 2.7965810416949790e+01 1.8800000000000001e+01 7.5711344722691383e+00 
1901 1902 2 1.4218704307376302e+00 -8.8851935555362693e-02 1.0000000000000000e+00 3.2154616963561971e+01 1.8800000000000001e+01 8.3061345469657208e+00 
159 160 2 1.4218704307376302e+00 -8.8915746854453429e-02 1.0000000000000000e+00 2.5866071579771268e+00 1.0000000000000000e+01 1.3055183426633533e+01 