LAMMPS data file via write_data, version 30 Jul 2016, timestep = 50400000

4620 atoms
8 atom types

0.0000000000000000e+00 1.0000000000000000e+02 xlo xhi
0.0000000000000000e+00 4.0000000000000000e+01 ylo yhi
0.0000000000000000e+00 4.0000000000000000e+01 zlo zhi

Masses

1 3.896
2 5.36
3 20.064
4 8.378
5 8.378
6 8.378
7 8.378
8 8.378

Atoms # meso-molecular

687 688 2 1.4218704307376302e+00 -8.8804083250496588e-02 1.0000000000000000e+00 2.2113103833571897e+00 1.2199999999999999e+01 5.2526587471468045e-01 
225 226 2 1.4218704307376302e+00 -8.8804083250496588e-02 1.0000000000000000e+00 2.2113103833571897e+00 1.0000000000000000e+01 5.2526587471468045e-01 
421 422 2 1.4218704307376302e+00 -4.3026953793769515e-02 1.0000000000000000e+00 9.5686440498557901e-01 1.0000000000000000e+01 2.7043365665958969e+00 
883 884 2 1.4218704307376302e+00 -4.3026953793769515e-02 1.0000000000000000e+00 9.5686440498557901e-01 1.2199999999999999e+01 2.7043365665958969e+00 
40 41 2 1.4218704307376302e+00 -6.6157843691626708e-02 1.0000000000000000e+00 5.6238015399221490e+00 1.0000000000000000e+01 1.6721524297482768e+00 
502 503 2 1.4218704307376302e+00 -6.6157843691626708e-02 1.0000000000000000e+00 5.6238015399221490e+00 1.2199999999999999e+01 1.6721524297482768e+00 
897 898 2 1.4218704307376302e+00 -6.6197447145146235e-02 1.0000000000000000e+00 7.2890913666967876e+00 1.2199999999999999e+01 2.9156610357837258e+00 
435 436 2 1.4218704307376302e+00 -6.6197447145146235e-02 1.0000000000000000e+00 7.2890913666967876e+00 1.0000000000000000e+01 2.9156610357837258e+00 
765 766 2 1.4218704307376302e+00 -8.9004182651013536e-02 1.0000000000000000e+00 9.3432580302071226e+00 1.2199999999999999e+01 6.0317683720765702e-01 
303 304 2 1.4218704307376302e+00 -8.9004182651013536e-02 1.0000000000000000e+00 9.3432580302071226e+00 1.0000000000000000e+01 6.0317683720765702e-01 
219 220 2 1.4218704307376302e+00 -8.8977480430589076e-02 1.0000000000000000e+00 1.2354287688062685e+01 1.0000000000000000e+01 1.3430608261192489e+00 
681 682 2 1.4218704307376302e+00 -8.8977480430589076e-02 1.0000000000000000e+00 1.2354287688062685e+01 1.2199999999999999e+01 1.3430608261192489e+00 
243 244 2 1.4218704307376302e+00 -8.9011707771666282e-02 1.0000000000000000e+00 1.4453393893438072e+01 1.0000000000000000e+01 9.3056290151902044e-01 
705 706 2 1.4218704307376302e+00 -8.9011707771666282e-02 1.0000000000000000e+00 1.4453393893438072e+01 1.2199999999999999e+01 9.3056290151902044e-01 
688 689 2 1.4218704307376302e+00 -8.8884236458620619e-02 1.0000000000000000e+00 1.4207804614670899e+01 1.2199999999999999e+01 3.3325732041119367e+00 
226 227 2 1.4218704307376302e+00 -8.8884236458620619e-02 1.0000000000000000e+00 1.4207804614670899e+01 1.0000000000000000e+01 3.3325732041119367e+00 
563 564 2 1.4218704307376302e+00 -8.8860794093049505e-02 1.0000000000000000e+00 1.7109723311272734e+01 1.2199999999999999e+01 2.2201683741848699e+00 
101 102 2 1.4218704307376302e+00 -8.8860794093049505e-02 1.0000000000000000e+00 1.7109723311272734e+01 1.0000000000000000e+01 2.2201683741848699e+00 
514 515 2 1.4218704307376302e+00 -8.8972804890307192e-02 1.0000000000000000e+00 1.7171009118874789e+01 1.2199999999999999e+01 1.3161479446871363e-01 
52 53 2 1.4218704307376302e+00 -8.8972804890307192e-02 1.0000000000000000e+00 1.7171009118874789e+01 1.0000000000000000e+01 1.3161479446871363e-01 
867 868 2 1.4218704307376302e+00 -8.9103742224799179e-02 1.0000000000000000e+00 1.9964453090123314e+01 1.2199999999999999e+01 2.4158100686403130e+00 
405 406 2 1.4218704307376302e+00 -8.9103742224799179e-02 1.0000000000000000e+00 1.9964453090123314e+01 1.0000000000000000e+01 2.4158100686403130e+00 
55 56 2 1.4218704307376302e+00 -8.9007954772420864e-02 1.0000000000000000e+00 2.1796802679572718e+01 1.0000000000000000e+01 1.4965636810256855e+00 
517 518 2 1.4218704307376302e+00 -8.9007954772420864e-02 1.0000000000000000e+00 2.1796802679572718e+01 1.2199999999999999e+01 1.4965636810256855e+00 
811 812 2 1.4218704307376302e+00 -8.8920601682363834e-02 1.0000000000000000e+00 2.4088837582401037e+01 1.2199999999999999e+01 8.6006793464244824e-01 
349 350 2 1.4218704307376302e+00 -8.8920601682363834e-02 1.0000000000000000e+00 2.4088837582401037e+01 1.0000000000000000e+01 8.6006793464244824e-01 
472 473 2 1.4218704307376302e+00 -6.6159053515234587e-02 1.0000000000000000e+00 2.5963070519285058e+01 1.2199999999999999e+01 2.6586760461476384e+00 
10 11 2 1.4218704307376302e+00 -6.6159053515234587e-02 1.0000000000000000e+00 2.5963070519285058e+01 1.0000000000000000e+01 2.6586760461476384e+00 
785 786 2 1.4218704307376302e+00 -8.8952653270755896e-02 1.0000000000000000e+00 3.0166533384515692e+01 1.2199999999999999e+01 3.0297873102969470e+00 
323 324 2 1.4218704307376302e+00 -8.8952653270755896e-02 1.0000000000000000e+00 3.0166533384515692e+01 1.0000000000000000e+01 3.0297873102969470e+00 
710 711 2 1.4218704307376302e+00 -8.8950322620269959e-02 1.0000000000000000e+00 3.1939905306750298e+01 1.2199999999999999e+01 6.1756658014502119e-01 
248 249 2 1.4218704307376302e+00 -8.8950322620269959e-02 1.0000000000000000e+00 3.1939905306750298e+01 1.0000000000000000e+01 6.1756658014502119e-01 
1149 1150 2 1.4218704307376302e+00 -8.8804083250496588e-02 1.0000000000000000e+00 2.2113103833571897e+00 1.4400000000000000e+01 5.2526587471468045e-01 
1611 1612 2 1.4218704307376302e+00 -8.8804083250496588e-02 1.0000000000000000e+00 2.2113103833571897e+00 1.6600000000000001e+01 5.2526587471468045e-01 
1345 1346 2 1.4218704307376302e+00 -4.3026953793769515e-02 1.0000000000000000e+00 9.5686440498557901e-01 1.4400000000000000e+01 2.7043365665958969e+00 
1807 1808 2 1.4218704307376302e+00 -4.3026953793769515e-02 1.0000000000000000e+00 9.5686440498557901e-01 1.6600000000000001e+01 2.7043365665958969e+00 
1426 1427 2 1.4218704307376302e+00 -6.6157843691626708e-02 1.0000000000000000e+00 5.6238015399221490e+00 1.6600000000000001e+01 1.6721524297482768e+00 
964 965 2 1.4218704307376302e+00 -6.6157843691626708e-02 1.0000000000000000e+00 5.6238015399221490e+00 1.4400000000000000e+01 1.6721524297482768e+00 
1359 1360 2 1.4218704307376302e+00 -6.6197447145146235e-02 1.0000000000000000e+00 7.2890913666967876e+00 1.4400000000000000e+01 2.9156610357837258e+00 
1821 1822 2 1.4218704307376302e+00 -6.6197447145146235e-02 1.0000000000000000e+00 7.2890913666967876e+00 1.6600000000000001e+01 2.9156610357837258e+00 
1689 1690 2 1.4218704307376302e+00 -8.9004182651013536e-02 1.0000000000000000e+00 9.3432580302071226e+00 1.6600000000000001e+01 6.0317683720765702e-01 
1227 1228 2 1.4218704307376302e+00 -8.9004182651013536e-02 1.0000000000000000e+00 9.3432580302071226e+00 1.4400000000000000e+01 6.0317683720765702e-01 
1143 1144 2 1.4218704307376302e+00 -8.8977480430589076e-02 1.0000000000000000e+00 1.2354287688062685e+01 1.4400000000000000e+01 1.3430608261192489e+00 
1605 1606 2 1.4218704307376302e+00 -8.8977480430589076e-02 1.0000000000000000e+00 1.2354287688062685e+01 1.6600000000000001e+01 1.3430608261192489e+00 
1167 1168 2 1.4218704307376302e+00 -8.9011707771666282e-02 1.0000000000000000e+00 1.4453393893438072e+01 1.4400000000000000e+01 9.3056290151902044e-01 
1629 1630 2 1.4218704307376302e+00 -8.9011707771666282e-02 1.0000000000000000e+00 1.4453393893438072e+01 1.6600000000000001e+01 9.3056290151902044e-01 
1612 1613 2 1.4218704307376302e+00 -8.8884236458620619e-02 1.0000000000000000e+00 1.4207804614670899e+01 1.6600000000000001e+01 3.3325732041119367e+00 
1150 1151 2 1.4218704307376302e+00 -8.8884236458620619e-02 1.0000000000000000e+00 1.4207804614670899e+01 1.4400000000000000e+01 3.3325732041119367e+00 
1487 1488 2 1.4218704307376302e+00 -8.8860794093049505e-02 1.0000000000000000e+00 1.7109723311272734e+01 1.6600000000000001e+01 2.2201683741848699e+00 
1025 1026 2 1.4218704307376302e+00 -8.8860794093049505e-02 1.0000000000000000e+00 1.7109723311272734e+01 1.4400000000000000e+01 2.2201683741848699e+00 
1438 1439 2 1.4218704307376302e+00 -8.8972804890307192e-02 1.0000000000000000e+00 1.7171009118874789e+01 1.6600000000000001e+01 1.3161479446871363e-01 
976 977 2 1.4218704307376302e+00 -8.8972804890307192e-02 1.0000000000000000e+00 1.7171009118874789e+01 1.4400000000000000e+01 1.3161479446871363e-01 
1791 1792 2 1.4218704307376302e+00 -8.9103742224799179e-02 1.0000000000000000e+00 1.9964453090123314e+01 1.6600000000000001e+01 2.4158100686403130e+00 
1329 1330 2 1.4218704307376302e+00 -8.9103742224799179e-02 1.0000000000000000e+00 1.9964453090123314e+01 1.4400000000000000e+01 2.4158100686403130e+00 
1441 1442 2 1.4218704307376302e+00 -8.9007954772420864e-02 1.0000000000000000e+00 2.1796802679572718e+01 1.6600000000000001e+01 1.4965636810256855e+00 
979 980 2 1.4218704307376302e+00 -8.9007954772420864e-02 1.0000000000000000e+00 2.1796802679572718e+01 1.4400000000000000e+01 1.4965636810256855e+00 
1735 1736 2 1.4218704307376302e+00 -8.8920601682363834e-02 1.0000000000000000e+00 2.4088837582401037e+01 1.6600000000000001e+01 8.6006793464244824e-01 
1273 1274 2 1.4218704307376302e+00 -8.8920601682363834e-02 1.0000000000000000e+00 2.4088837582401037e+01 1.4400000000000000e+01 8.6006793464244824e-01 
1396 1397 2 1.4218704307376302e+00 -6.6159053515234587e-02 1.0000000000000000e+00 2.5963070519285058e+01 1.6600000000000001e+01 2.6586760461476384e+00 
934 935 2 1.4218704307376302e+00 -6.6159053515234587e-02 1.0000000000000000e+00 2.5963070519285058e+01 1.4400000000000000e+01 2.6586760461476384e+00 
1247 1248 2 1.4218704307376302e+00 -8.8952653270755896e-02 1.0000000000000000e+00 3.0166533384515692e+01 1.4400000000000000e+01 3.0297873102969470e+00 
1709 1710 2 1.4218704307376302e+00 -8.8952653270755896e-02 1.0000000000000000e+00 3.0166533384515692e+01 1.6600000000000001e+01 3.0297873102969470e+00 
1634 1635 2 1.4218704307376302e+00 -8.8950322620269959e-02 1.0000000000000000e+00 3.1939905306750298e+01 1.6600000000000001e+01 6.1756658014502119e-01 
1172 1173 2 1.4218704307376302e+00 -8.8950322620269959e-02 1.0000000000000000e+00 3.1939905306750298e+01 1.4400000000000000e+01 6.1756658014502119e-01 
2073 2074 2 1.4218704307376302e+00 -8.8804083250496588e-02 1.0000000000000000e+00 2.2113103833571897e+00 1.8800000000000001e+01 5.2526587471468045e-01 
2269 2270 2 1.4218704307376302e+00 -4.3026953793769515e-02 1.0000000000000000e+00 9.5686440498557901e-01 1.8800000000000001e+01 2.7043365665958969e+00 
1888 1889 2 1.4218704307376302e+00 -6.6157843691626708e-02 1.0000000000000000e+00 5.6238015399221490e+00 1.8800000000000001e+01 1.6721524297482768e+00 
2283 2284 2 1.4218704307376302e+00 -6.6197447145146235e-02 1.0000000000000000e+00 7.2890913666967876e+00 1.8800000000000001e+01 2.9156610357837258e+00 
2151 2152 2 1.4218704307376302e+00 -8.9004182651013536e-02 1.0000000000000000e+00 9.3432580302071226e+00 1.8800000000000001e+01 6.0317683720765702e-01 
2067 2068 2 1.4218704307376302e+00 -8.8977480430589076e-02 1.0000000000000000e+00 1.2354287688062685e+01 1.8800000000000001e+01 1.3430608261192489e+00 
2091 2092 2 1.4218704307376302e+00 -8.9011707771666282e-02 1.0000000000000000e+00 1.4453393893438072e+01 1.8800000000000001e+01 9.3056290151902044e-01 
2074 2075 2 1.4218704307376302e+00 -8.8884236458620619e-02 1.0000000000000000e+00 1.4207804614670899e+01 1.8800000000000001e+01 3.3325732041119367e+00 
1949 1950 2 1.4218704307376302e+00 -8.8860794093049505e-02 1.0000000000000000e+00 1.7109723311272734e+01 1.8800000000000001e+01 2.2201683741848699e+00 
1900 1901 2 1.4218704307376302e+00 -8.8972804890307192e-02 1.0000000000000000e+00 1.7171009118874789e+01 1.8800000000000001e+01 1.3161479446871363e-01 
2253 2254 2 1.4218704307376302e+00 -8.9103742224799179e-02 1.0000000000000000e+00 1.9964453090123314e+01 1.8800000000000001e+01 2.4158100686403130e+00 
1903 1904 2 1.4218704307376302e+00 -8.9007954772420864e-02 1.0000000000000000e+00 2.1796802679572718e+01 1.8800000000000001e+01 1.4965636810256855e+00 
2197 2198 2 1.4218704307376302e+00 -8.8920601682363834e-02 1.0000000000000000e+00 2.4088837582401037e+01 1.8800000000000001e+01 8.6006793464244824e-01 
1858 1859 2 1.4218704307376302e+00 -6.6159053515234587e-02 1.0000000000000000e+00 2.5963070519285058e+01 1.8800000000000001e+01 2.6586760461476384e+00 
2171 2172 2 1.4218704307376302e+00 -8.8952653270755896e-02 1.0000000000000000e+00 3.0166533384515692e+01 1.8800000000000001e+01 3.0297873102969470e+00 
2096 2097 2 1.4218704307376302e+00 -8.8950322620269959e-02 1.0000000000000000e+00 3.1939905306750298e+01 1.8800000000000001e+01 6.1756658014502119e-01 
357 358 2 1.4218704307376302e+00 -8.8546656557721121e-02 1.0000000000000000e+00 2.8562783512895447e+00 1.0000000000000000e+01 4.0607458147952453e+00 
819 820 2 1.4218704307376302e+00 -8.8546656557721121e-02 1.0000000000000000e+00 2.8562783512895447e+00 1.2199999999999999e+01 4.0607458147952453e+00 
127 128 2 1.4218704307376302e+00 -6.5889594109013697e-02 1.0000000000000000e+00 4.7997813643036222e+00 1.0000000000000000e+01 3.5189032958746420e+00 
589 590 2 1.4218704307376302e+00 -6.5889594109013697e-02 1.0000000000000000e+00 4.7997813643036222e+00 1.2199999999999999e+01 3.5189032958746420e+00 
182 183 2 1.4218704307376302e+00 -8.8998871557689097e-02 1.0000000000000000e+00 9.7594899649478801e+00 1.0000000000000000e+01 3.8893773937546636e+00 
644 645 2 1.4218704307376302e+00 -8.8998871557689097e-02 1.0000000000000000e+00 9.7594899649478801e+00 1.2199999999999999e+01 3.8893773937546636e+00 
104 105 2 1.4218704307376302e+00 -8.8778888693262517e-02 1.0000000000000000e+00 1.1995350401553175e+01 1.0000000000000000e+01 4.7159564947610759e+00 
566 567 2 1.4218704307376302e+00 -8.8778888693262517e-02 1.0000000000000000e+00 1.1995350401553175e+01 1.2199999999999999e+01 4.7159564947610759e+00 
599 600 2 1.4218704307376302e+00 -8.9018847277901797e-02 1.0000000000000000e+00 1.3771480385454115e+01 1.2199999999999999e+01 5.8732080735948049e+00 
137 138 2 1.4218704307376302e+00 -8.9018847277901797e-02 1.0000000000000000e+00 1.3771480385454115e+01 1.0000000000000000e+01 5.8732080735948049e+00 
610 611 2 1.4218704307376302e+00 -8.8862019181963792e-02 1.0000000000000000e+00 1.6429451375996877e+01 1.2199999999999999e+01 6.2295376982615709e+00 
148 149 2 1.4218704307376302e+00 -8.8862019181963792e-02 1.0000000000000000e+00 1.6429451375996877e+01 1.0000000000000000e+01 6.2295376982615709e+00 
314 315 2 1.4218704307376302e+00 -8.8992639517073355e-02 1.0000000000000000e+00 1.9445097356980941e+01 1.0000000000000000e+01 6.4780568662690827e+00 
776 777 2 1.4218704307376302e+00 -8.8992639517073355e-02 1.0000000000000000e+00 1.9445097356980941e+01 1.2199999999999999e+01 6.4780568662690827e+00 
319 320 2 1.4218704307376302e+00 -8.8896638516236928e-02 1.0000000000000000e+00 2.2752716912750383e+01 1.0000000000000000e+01 5.4915095823424913e+00 
781 782 2 1.4218704307376302e+00 -8.8896638516236928e-02 1.0000000000000000e+00 2.2752716912750383e+01 1.2199999999999999e+01 5.4915095823424913e+00 
381 382 2 1.4218704596119442e+00 -4.6810696461095987e-02 1.0000000000000000e+00 2.4493900732441205e+01 1.0000000000000000e+01 4.1317168824771811e+00 
843 844 2 1.4218704596119442e+00 -4.6810696461095987e-02 1.0000000000000000e+00 2.4493900732441205e+01 1.2199999999999999e+01 4.1317168824771811e+00 
655 656 2 1.4218704596119442e+00 -4.7107334217889263e-02 1.0000000000000000e+00 2.4989078870721325e+01 1.2199999999999999e+01 6.0671393502743127e+00 
193 194 2 1.4218704596119442e+00 -4.7107334217889263e-02 1.0000000000000000e+00 2.4989078870721325e+01 1.0000000000000000e+01 6.0671393502743127e+00 
86 87 2 1.4218704307376302e+00 -8.8892130442417505e-02 1.0000000000000000e+00 2.8200950525192518e+01 1.0000000000000000e+01 6.3062105769332639e+00 
548 549 2 1.4218704307376302e+00 -8.8892130442417505e-02 1.0000000000000000e+00 2.8200950525192518e+01 1.2199999999999999e+01 6.3062105769332639e+00 
60 61 2 1.4218704307376302e+00 -8.8942067041578865e-02 1.0000000000000000e+00 3.0548031210045952e+01 1.0000000000000000e+01 5.9813907527202952e+00 
522 523 2 1.4218704307376302e+00 -8.8942067041578865e-02 1.0000000000000000e+00 3.0548031210045952e+01 1.2199999999999999e+01 5.9813907527202952e+00 
12 13 2 1.4218704307376302e+00 -6.6182868540862680e-02 1.0000000000000000e+00 3.3291793077620916e+01 1.0000000000000000e+01 5.3804565801333899e+00 
474 475 2 1.4218704307376302e+00 -6.6182868540862680e-02 1.0000000000000000e+00 3.3291793077620916e+01 1.2199999999999999e+01 5.3804565801333899e+00 
1743 1744 2 1.4218704307376302e+00 -8.8546656557721121e-02 1.0000000000000000e+00 2.8562783512895447e+00 1.6600000000000001e+01 4.0607458147952453e+00 
1281 1282 2 1.4218704307376302e+00 -8.8546656557721121e-02 1.0000000000000000e+00 2.8562783512895447e+00 1.4400000000000000e+01 4.0607458147952453e+00 
1051 1052 2 1.4218704307376302e+00 -6.5889594109013697e-02 1.0000000000000000e+00 4.7997813643036222e+00 1.4400000000000000e+01 3.5189032958746420e+00 
1513 1514 2 1.4218704307376302e+00 -6.5889594109013697e-02 1.0000000000000000e+00 4.7997813643036222e+00 1.6600000000000001e+01 3.5189032958746420e+00 
1106 1107 2 1.4218704307376302e+00 -8.8998871557689097e-02 1.0000000000000000e+00 9.7594899649478801e+00 1.4400000000000000e+01 3.8893773937546636e+00 
1568 1569 2 1.4218704307376302e+00 -8.8998871557689097e-02 1.0000000000000000e+00 9.7594899649478801e+00 1.6600000000000001e+01 3.8893773937546636e+00 
1028 1029 2 1.4218704307376302e+00 -8.8778888693262517e-02 1.0000000000000000e+00 1.1995350401553175e+01 1.4400000000000000e+01 4.7159564947610759e+00 
1490 1491 2 1.4218704307376302e+00 -8.8778888693262517e-02 1.0000000000000000e+00 1.1995350401553175e+01 1.6600000000000001e+01 4.7159564947610759e+00 
1523 1524 2 1.4218704307376302e+00 -8.9018847277901797e-02 1.0000000000000000e+00 1.3771480385454115e+01 1.6600000000000001e+01 5.8732080735948049e+00 
1061 1062 2 1.4218704307376302e+00 -8.9018847277901797e-02 1.0000000000000000e+00 1.3771480385454115e+01 1.4400000000000000e+01 5.8732080735948049e+00 
1534 1535 2 1.4218704307376302e+00 -8.8862019181963792e-02 1.0000000000000000e+00 1.6429451375996877e+01 1.6600000000000001e+01 6.2295376982615709e+00 
1072 1073 2 1.4218704307376302e+00 -8.8862019181963792e-02 1.0000000000000000e+00 1.6429451375996877e+01 1.4400000000000000e+01 6.2295376982615709e+00 
1238 1239 2 1.4218704307376302e+00 -8.8992639517073355e-02 1.0000000000000000e+00 1.9445097356980941e+01 1.4400000000000000e+01 6.4780568662690827e+00 
1700 1701 2 1.4218704307376302e+00 -8.8992639517073355e-02 1.0000000000000000e+00 1.9445097356980941e+01 1.6600000000000001e+01 6.4780568662690827e+00 
1705 1706 2 1.4218704307376302e+00 -8.8896638516236928e-02 1.0000000000000000e+00 2.2752716912750383e+01 1.6600000000000001e+01 5.4915095823424913e+00 
1243 1244 2 1.4218704307376302e+00 -8.8896638516236928e-02 1.0000000000000000e+00 2.2752716912750383e+01 1.4400000000000000e+01 5.4915095823424913e+00 
1305 1306 2 1.4218704596119442e+00 -4.6810696461095987e-02 1.0000000000000000e+00 2.4493900732441205e+01 1.4400000000000000e+01 4.1317168824771811e+00 
1767 1768 2 1.4218704596119442e+00 -4.6810696461095987e-02 1.0000000000000000e+00 2.4493900732441205e+01 1.6600000000000001e+01 4.1317168824771811e+00 
1579 1580 2 1.4218704596119442e+00 -4.7107334217889263e-02 1.0000000000000000e+00 2.4989078870721325e+01 1.6600000000000001e+01 6.0671393502743127e+00 
1117 1118 2 1.4218704596119442e+00 -4.7107334217889263e-02 1.0000000000000000e+00 2.4989078870721325e+01 1.4400000000000000e+01 6.0671393502743127e+00 
1010 1011 2 1.4218704307376302e+00 -8.8892130442417505e-02 1.0000000000000000e+00 2.8200950525192518e+01 1.4400000000000000e+01 6.3062105769332639e+00 
1472 1473 2 1.4218704307376302e+00 -8.8892130442417505e-02 1.0000000000000000e+00 2.8200950525192518e+01 1.6600000000000001e+01 6.3062105769332639e+00 
984 985 2 1.4218704307376302e+00 -8.8942067041578865e-02 1.0000000000000000e+00 3.0548031210045952e+01 1.4400000000000000e+01 5.9813907527202952e+00 
1446 1447 2 1.4218704307376302e+00 -8.8942067041578865e-02 1.0000000000000000e+00 3.0548031210045952e+01 1.6600000000000001e+01 5.9813907527202952e+00 
936 937 2 1.4218704307376302e+00 -6.6182868540862680e-02 1.0000000000000000e+00 3.3291793077620916e+01 1.4400000000000000e+01 5.3804565801333899e+00 
1398 1399 2 1.4218704307376302e+00 -6.6182868540862680e-02 1.0000000000000000e+00 3.3291793077620916e+01 1.6600000000000001e+01 5.3804565801333899e+00 
2205 2206 2 1.4218704307376302e+00 -8.8546656557721121e-02 1.0000000000000000e+00 2.8562783512895447e+00 1.8800000000000001e+01 4.0607458147952453e+00 
1975 1976 2 1.4218704307376302e+00 -6.5889594109013697e-02 1.0000000000000000e+00 4.7997813643036222e+00 1.8800000000000001e+01 3.5189032958746420e+00 
2030 2031 2 1.4218704307376302e+00 -8.8998871557689097e-02 1.0000000000000000e+00 9.7594899649478801e+00 1.8800000000000001e+01 3.8893773937546636e+00 
1952 1953 2 1.4218704307376302e+00 -8.8778888693262517e-02 1.0000000000000000e+00 1.1995350401553175e+01 1.8800000000000001e+01 4.7159564947610759e+00 
1985 1986 2 1.4218704307376302e+00 -8.9018847277901797e-02 1.0000000000000000e+00 1.3771480385454115e+01 1.8800000000000001e+01 5.8732080735948049e+00 
1996 1997 2 1.4218704307376302e+00 -8.8862019181963792e-02 1.0000000000000000e+00 1.6429451375996877e+01 1.8800000000000001e+01 6.2295376982615709e+00 
2162 2163 2 1.4218704307376302e+00 -8.8992639517073355e-02 1.0000000000000000e+00 1.9445097356980941e+01 1.8800000000000001e+01 6.4780568662690827e+00 
2167 2168 2 1.4218704307376302e+00 -8.8896638516236928e-02 1.0000000000000000e+00 2.2752716912750383e+01 1.8800000000000001e+01 5.4915095823424913e+00 
2229 2230 2 1.4218704596119442e+00 -4.6810696461095987e-02 1.0000000000000000e+00 2.4493900732441205e+01 1.8800000000000001e+01 4.1317168824771811e+00 
2041 2042 2 1.4218704596119442e+00 -4.7107334217889263e-02 1.0000000000000000e+00 2.4989078870721325e+01 1.8800000000000001e+01 6.0671393502743127e+00 
1934 1935 2 1.4218704307376302e+00 -8.8892130442417505e-02 1.0000000000000000e+00 2.8200950525192518e+01 1.8800000000000001e+01 6.3062105769332639e+00 
1908 1909 2 1.4218704307376302e+00 -8.8942067041578865e-02 1.0000000000000000e+00 3.0548031210045952e+01 1.8800000000000001e+01 5.9813907527202952e+00 
1860 1861 2 1.4218704307376302e+00 -6.6182868540862680e-02 1.0000000000000000e+00 3.3291793077620916e+01 1.8800000000000001e+01 5.3804565801333899e+00 
784 785 2 1.4218704307376302e+00 -8.8929508947971456e-02 1.0000000000000000e+00 1.8463227641469442e+00 1.2199999999999999e+01 7.7978069769765641e+00 
322 323 2 1.4218704307376302e+00 -8.8929508947971456e-02 1.0000000000000000e+00 1.8463227641469442e+00 1.0000000000000000e+01 7.7978069769765641e+00 
223 224 2 1.4218704307376302e+00 -8.8774141918529753e-02 1.0000000000000000e+00 4.1102307481573428e+00 1.0000000000000000e+01 7.1334947794959866e+00 
685 686 2 1.4218704307376302e+00 -8.8774141918529753e-02 1.0000000000000000e+00 4.1102307481573428e+00 1.2199999999999999e+01 7.1334947794959866e+00 
234 235 2 1.4218704307376302e+00 -8.9221743697154035e-02 1.0000000000000000e+00 3.9476234096252911e+00 1.0000000000000000e+01 9.7921209266938600e+00 
696 697 2 1.4218704307376302e+00 -8.9221743697154035e-02 1.0000000000000000e+00 3.9476234096252911e+00 1.2199999999999999e+01 9.7921209266938600e+00 
284 285 2 1.4218704420025412e+00 -6.9659011273455015e-02 1.0000000000000000e+00 6.5677627794606979e+00 1.0000000000000000e+01 8.5288517504338213e+00 
746 747 2 1.4218704420025412e+00 -6.9659011273455015e-02 1.0000000000000000e+00 6.5677627794606979e+00 1.2199999999999999e+01 8.5288517504338213e+00 
825 826 2 1.4218704307376302e+00 -8.9053485235532068e-02 1.0000000000000000e+00 8.7038769661901529e+00 1.2199999999999999e+01 8.9601693008832175e+00 
363 364 2 1.4218704307376302e+00 -8.9053485235532068e-02 1.0000000000000000e+00 8.7038769661901529e+00 1.0000000000000000e+01 8.9601693008832175e+00 
188 189 2 1.4218704307376302e+00 -8.9089800160517013e-02 1.0000000000000000e+00 9.1675747634648079e+00 1.0000000000000000e+01 6.9262186943931852e+00 
650 651 2 1.4218704307376302e+00 -8.9089800160517013e-02 1.0000000000000000e+00 9.1675747634648079e+00 1.2199999999999999e+01 6.9262186943931852e+00 
347 348 2 1.4218704307376302e+00 -8.8846899265579718e-02 1.0000000000000000e+00 1.1647096825250003e+01 1.0000000000000000e+01 6.7417643415070261e+00 
809 810 2 1.4218704307376302e+00 -8.8846899265579718e-02 1.0000000000000000e+00 1.1647096825250003e+01 1.2199999999999999e+01 6.7417643415070261e+00 
451 452 2 1.4218704307376302e+00 -6.6283662676432445e-02 1.0000000000000000e+00 1.0728754504850468e+01 1.0000000000000000e+01 8.9702266865080524e+00 
913 914 2 1.4218704307376302e+00 -6.6283662676432445e-02 1.0000000000000000e+00 1.0728754504850468e+01 1.2199999999999999e+01 8.9702266865080524e+00 
7 8 2 1.4218704307376302e+00 -6.5700722037665638e-02 1.0000000000000000e+00 1.5607254262227867e+01 1.0000000000000000e+01 8.6129979233329443e+00 
469 470 2 1.4218704307376302e+00 -6.5700722037665638e-02 1.0000000000000000e+00 1.5607254262227867e+01 1.2199999999999999e+01 8.6129979233329443e+00 
197 198 2 1.4218704307376302e+00 -8.9026040735930373e-02 1.0000000000000000e+00 1.7932694370839922e+01 1.0000000000000000e+01 9.0082586935903866e+00 
659 660 2 1.4218704307376302e+00 -8.9026040735930373e-02 1.0000000000000000e+00 1.7932694370839922e+01 1.2199999999999999e+01 9.0082586935903866e+00 
13 14 2 1.4218704307376302e+00 -6.6242178898023168e-02 1.0000000000000000e+00 2.0216892795264140e+01 1.0000000000000000e+01 8.8320425594021739e+00 
475 476 2 1.4218704307376302e+00 -6.6242178898023168e-02 1.0000000000000000e+00 2.0216892795264140e+01 1.2199999999999999e+01 8.8320425594021739e+00 
561 562 2 1.4218704307376302e+00 -8.9107191520507417e-02 1.0000000000000000e+00 2.9346076294494633e+01 1.2199999999999999e+01 8.0061688934404991e+00 
99 100 2 1.4218704307376302e+00 -8.9107191520507417e-02 1.0000000000000000e+00 2.9346076294494633e+01 1.0000000000000000e+01 8.0061688934404991e+00 
618 619 2 1.4218704307376302e+00 -8.8899054961233515e-02 1.0000000000000000e+00 3.2085439657669291e+01 1.2199999999999999e+01 7.6910992239087435e+00 
156 157 2 1.4218704307376302e+00 -8.8899054961233515e-02 1.0000000000000000e+00 3.2085439657669291e+01 1.0000000000000000e+01 7.6910992239087435e+00 
1708 1709 2 1.4218704307376302e+00 -8.8929508947971456e-02 1.0000000000000000e+00 1.8463227641469442e+00 1.6600000000000001e+01 7.7978069769765641e+00 
1246 1247 2 1.4218704307376302e+00 -8.8929508947971456e-02 1.0000000000000000e+00 1.8463227641469442e+00 1.4400000000000000e+01 7.7978069769765641e+00 
1147 1148 2 1.4218704307376302e+00 -8.8774141918529753e-02 1.0000000000000000e+00 4.1102307481573428e+00 1.4400000000000000e+01 7.1334947794959866e+00 
1609 1610 2 1.4218704307376302e+00 -8.8774141918529753e-02 1.0000000000000000e+00 4.1102307481573428e+00 1.6600000000000001e+01 7.1334947794959866e+00 
1158 1159 2 1.4218704307376302e+00 -8.9221743697154035e-02 1.0000000000000000e+00 3.9476234096252911e+00 1.4400000000000000e+01 9.7921209266938600e+00 
1620 1621 2 1.4218704307376302e+00 -8.9221743697154035e-02 1.0000000000000000e+00 3.9476234096252911e+00 1.6600000000000001e+01 9.7921209266938600e+00 
1670 1671 2 1.4218704420025412e+00 -6.9659011273455015e-02 1.0000000000000000e+00 6.5677627794606979e+00 1.6600000000000001e+01 8.5288517504338213e+00 
1208 1209 2 1.4218704420025412e+00 -6.9659011273455015e-02 1.0000000000000000e+00 6.5677627794606979e+00 1.4400000000000000e+01 8.5288517504338213e+00 
1287 1288 2 1.4218704307376302e+00 -8.9053485235532068e-02 1.0000000000000000e+00 8.7038769661901529e+00 1.4400000000000000e+01 8.9601693008832175e+00 
1749 1750 2 1.4218704307376302e+00 -8.9053485235532068e-02 1.0000000000000000e+00 8.7038769661901529e+00 1.6600000000000001e+01 8.9601693008832175e+00 
1112 1113 2 1.4218704307376302e+00 -8.9089800160517013e-02 1.0000000000000000e+00 9.1675747634648079e+00 1.4400000000000000e+01 6.9262186943931852e+00 
1574 1575 2 1.4218704307376302e+00 -8.9089800160517013e-02 1.0000000000000000e+00 9.1675747634648079e+00 1.6600000000000001e+01 6.9262186943931852e+00 
1733 1734 2 1.4218704307376302e+00 -8.8846899265579718e-02 1.0000000000000000e+00 1.1647096825250003e+01 1.6600000000000001e+01 6.7417643415070261e+00 
1271 1272 2 1.4218704307376302e+00 -8.8846899265579718e-02 1.0000000000000000e+00 1.1647096825250003e+01 1.4400000000000000e+01 6.7417643415070261e+00 
1375 1376 2 1.4218704307376302e+00 -6.6283662676432445e-02 1.0000000000000000e+00 1.0728754504850468e+01 1.4400000000000000e+01 8.9702266865080524e+00 
1837 1838 2 1.4218704307376302e+00 -6.6283662676432445e-02 1.0000000000000000e+00 1.0728754504850468e+01 1.6600000000000001e+01 8.9702266865080524e+00 
1393 1394 2 1.4218704307376302e+00 -6.5700722037665638e-02 1.0000000000000000e+00 1.5607254262227867e+01 1.6600000000000001e+01 8.6129979233329443e+00 
931 932 2 1.4218704307376302e+00 -6.5700722037665638e-02 1.0000000000000000e+00 1.5607254262227867e+01 1.4400000000000000e+01 8.6129979233329443e+00 
1121 1122 2 1.4218704307376302e+00 -8.9026040735930373e-02 1.0000000000000000e+00 1.7932694370839922e+01 1.4400000000000000e+01 9.0082586935903866e+00 
1583 1584 2 1.4218704307376302e+00 -8.9026040735930373e-02 1.0000000000000000e+00 1.7932694370839922e+01 1.6600000000000001e+01 9.0082586935903866e+00 
937 938 2 1.4218704307376302e+00 -6.6242178898023168e-02 1.0000000000000000e+00 2.0216892795264140e+01 1.4400000000000000e+01 8.8320425594021739e+00 
1399 1400 2 1.4218704307376302e+00 -6.6242178898023168e-02 1.0000000000000000e+00 2.0216892795264140e+01 1.6600000000000001e+01 8.8320425594021739e+00 
1023 1024 2 1.4218704307376302e+00 -8.9107191520507417e-02 1.0000000000000000e+00 2.9346076294494633e+01 1.4400000000000000e+01 8.0061688934404991e+00 
1485 1486 2 1.4218704307376302e+00 -8.9107191520507417e-02 1.0000000000000000e+00 2.9346076294494633e+01 1.6600000000000001e+01 8.0061688934404991e+00 
1542 1543 2 1.4218704307376302e+00 -8.8899054961233515e-02 1.0000000000000000e+00 3.2085439657669291e+01 1.6600000000000001e+01 7.6910992239087435e+00 