LAMMPS data file via write_data, version 30 Jul 2016, timestep = 50000000

384 atoms
2 atom types

0.0000000000000000e+00 2.0000000000000000e+01 xlo xhi
0.0000000000000000e+00 2.0000000000000000e+01 ylo yhi
0.0000000000000000e+00 2.0000000000000000e+01 zlo zhi

Masses

1 3.89
2 2.094

Atoms # meso-molecular

282 1 2 7.9999999999999627e-01 -4.7042307530673398e+01 1.0000000000000000e+00 6.1584892773365514e+00 9.4558390419084617e+00 2.9189722502198157e+00 
114 1 2 7.9999999999999361e-01 -2.4122723124686853e+01 1.0000000000000000e+00 6.2608904026406762e+00 9.5665986413427095e+00 2.8309931964436474e+00 
159 1 2 7.9999999999999305e-01 -4.6284714668347377e+01 1.0000000000000000e+00 6.2750883609529948e+00 9.5973089606905315e+00 2.8159223425534257e+00 
55 1 2 7.9999999999999394e-01 2.1881023785869225e+00 1.0000000000000000e+00 6.2496064437694478e+00 9.6143634375626181e+00 2.8159300151128930e+00 
327 1 2 7.9999999999999338e-01 -5.2928577305398349e+01 1.0000000000000000e+00 6.3667870083492870e+00 9.7436816746474673e+00 2.7607938514562855e+00 
260 1 2 7.9999999999999316e-01 2.3244064988503517e+01 1.0000000000000000e+00 6.4083768463857167e+00 9.8147212892907518e+00 2.7456861757732094e+00 
108 1 2 7.9999999999999938e-01 8.0165601832481865e+00 1.0000000000000000e+00 5.4471689594381916e+00 9.7651617750263195e+00 4.1272433692706239e+00 
142 1 2 8.0000000000000049e-01 3.3052030697506552e+01 1.0000000000000000e+00 6.3753600700220634e+00 8.9844766828303673e+00 3.6558992614777166e+00 
83 1 2 8.0000000000000893e-01 5.5361613599230282e+01 1.0000000000000000e+00 6.6485134641619155e+00 9.0072536385677697e+00 4.1447116832032425e+00 
31 1 2 8.0000000000001426e-01 6.1814346381815009e+00 1.0000000000000000e+00 6.4212352046813130e+00 8.9750013600333176e+00 3.7735924120963120e+00 
381 1 2 7.9999999999999027e-01 -3.6104729185613834e+01 1.0000000000000000e+00 6.4292244318468743e+00 1.0356585826520780e+01 2.8030604922712867e+00 
74 1 2 7.9999999999999138e-01 -1.5171003266294231e-01 1.0000000000000000e+00 6.3307600638937016e+00 1.0215739482202144e+01 2.7814911086809180e+00 
281 1 2 7.9999999999999627e-01 -1.2561955061047716e+01 1.0000000000000000e+00 5.2096225808252896e+00 1.1830193501899084e+01 5.3750260580751208e+00 
75 1 2 7.9999999999999827e-01 -3.7326889183605431e+01 1.0000000000000000e+00 5.3818668861484023e+00 1.2318829355364244e+01 5.7551738811075177e+00 
110 1 2 7.9999999999999449e-01 -6.7607640725065368e+00 1.0000000000000000e+00 5.4137702635979972e+00 1.2496107951025193e+01 5.0352487049245287e+00 
304 1 2 7.9999999999999516e-01 2.3288553891307355e+01 1.0000000000000000e+00 5.2568499826635717e+00 1.2014185751088446e+01 4.9248253938790549e+00 
67 1 2 8.0000000000000138e-01 5.1271003445185073e+01 1.0000000000000000e+00 5.3527801901813055e+00 1.0512837534964417e+01 4.9222041987729073e+00 
118 1 2 7.9999999999999583e-01 -2.0810044811039745e+01 1.0000000000000000e+00 5.2544571299821659e+00 1.1565403011771364e+01 5.4943960811684178e+00 
362 1 2 7.9999999999999494e-01 -2.6450302958810479e+00 1.0000000000000000e+00 6.0420268372240891e+00 1.2670809971467770e+01 6.2641860785478363e+00 
233 1 2 8.0000000000001292e-01 3.6266890823748795e+01 1.0000000000000000e+00 5.5062505058560891e+00 1.0306648561771915e+01 5.0488485427977414e+00 
240 1 2 7.9999999999999560e-01 7.8985860692268295e+00 1.0000000000000000e+00 5.2108935335487256e+00 1.1721254884349065e+01 5.3797035619634794e+00 
303 1 2 7.9999999999999571e-01 -1.2018075727518578e+01 1.0000000000000000e+00 5.1899200534801828e+00 1.1333069062047523e+01 4.9088637130601791e+00 
71 1 2 8.0000000000001303e-01 -1.3496477462494759e+01 1.0000000000000000e+00 5.5615265244843908e+00 1.0465702255463194e+01 5.2862977108146243e+00 
309 1 2 7.9999999999999172e-01 -3.9760443169715245e+01 1.0000000000000000e+00 6.0841066671863215e+00 1.3106616088105760e+01 5.8089224084442606e+00 
54 1 2 7.9999999999999405e-01 -3.7202044566372706e+01 1.0000000000000000e+00 5.8175844559538250e+00 1.3035766393145066e+01 5.5073504700905493e+00 
296 1 2 7.9999999999999405e-01 5.1981851928753130e+01 1.0000000000000000e+00 6.0799838278324696e+00 1.2865163997938234e+01 6.1398993528680421e+00 
308 1 2 7.9999999999999694e-01 -4.7216983222323904e+01 1.0000000000000000e+00 5.7694559111583485e+00 1.2872674708290294e+01 5.8505672767925700e+00 
340 1 2 7.9999999999999716e-01 -7.8185877200484493e+00 1.0000000000000000e+00 5.7453993400830541e+00 1.2763075271779647e+01 5.9574795936377045e+00 
119 1 2 7.9999999999999860e-01 -6.4373351521335508e+01 1.0000000000000000e+00 5.4125843031291954e+00 1.0020114592026808e+01 3.6362659461993907e+00 
137 1 2 7.9999999999999138e-01 -4.5185065851977662e+01 1.0000000000000000e+00 1.1415755034474325e+01 3.0438472917184018e+00 2.3775556326038494e+00 
353 1 2 8.0000000000000615e-01 -6.6744489824524550e+01 1.0000000000000000e+00 1.1043280078936881e+01 3.0705691951041172e+00 2.3386275389755875e+00 
280 1 2 7.9999999999998883e-01 5.5988889003160963e+01 1.0000000000000000e+00 1.1413413632795825e+01 3.0567286905636708e+00 2.3679274370479395e+00 
7 1 2 7.9999999999998817e-01 -3.3628133293608130e+01 1.0000000000000000e+00 1.1357053273742476e+01 3.0763441515112908e+00 2.3428043335423210e+00 
135 1 2 7.9999999999998928e-01 3.0739179952991837e+01 1.0000000000000000e+00 1.1318753696350415e+01 3.0906465755360282e+00 2.3254667218002409e+00 
178 1 2 8.0000000000000937e-01 2.3074078604446420e+01 1.0000000000000000e+00 1.1071774613314082e+01 3.2039918881689320e+00 2.2073172992791235e+00 
113 1 2 8.0000000000000648e-01 -1.0694995968052496e+01 1.0000000000000000e+00 1.0877501664955400e+01 3.2955966618963415e+00 2.1269855538904943e+00 
335 1 2 7.9999999999999072e-01 -5.9474820936846697e+01 1.0000000000000000e+00 1.1013035124469171e+01 3.3103400908168150e+00 2.1295826264531330e+00 
256 1 2 7.9999999999999583e-01 1.7300787730060826e+01 1.0000000000000000e+00 1.3280546031024317e+01 1.5530716556722748e+00 3.3168181921371236e+00 
49 1 2 7.9999999999999460e-01 -5.8562205418735232e+01 1.0000000000000000e+00 1.3286548935957551e+01 1.5460728118960050e+00 3.3185581271835725e+00 
1 1 2 7.9999999999999494e-01 -3.2382352269606343e+01 1.0000000000000000e+00 1.3300817225455013e+01 1.5257344330433602e+00 3.3245451192523983e+00 
63 1 2 7.9999999999998139e-01 4.2823909503933010e+01 1.0000000000000000e+00 8.7700107778286807e+00 5.7317447555355292e+00 3.0266808102547191e+00 
39 1 2 7.9999999999998384e-01 -2.7986491556409273e+01 1.0000000000000000e+00 8.7743074745236349e+00 5.6721545609185489e+00 2.9389681116408930e+00 
45 1 2 7.9999999999996374e-01 4.9948805774462329e+01 1.0000000000000000e+00 8.8298713663625961e+00 5.2914797556130377e+00 2.5996716680645426e+00 
328 1 2 7.9999999999996618e-01 4.3814357575920468e+01 1.0000000000000000e+00 8.8549164889550678e+00 5.2273632513206270e+00 2.5443917287589493e+00 
314 1 2 7.9999999999997795e-01 -1.4655339072726422e+01 1.0000000000000000e+00 8.9431159409583483e+00 6.0753388132681261e+00 3.1922792336513544e+00 
157 1 2 8.0000000000001703e-01 -1.7670391483829619e+01 1.0000000000000000e+00 8.8863433682692214e+00 4.6924096694377164e+00 2.8071032746984037e+00 
318 1 2 7.9999999999998350e-01 5.8823599603840961e+01 1.0000000000000000e+00 9.1836121527360373e+00 4.7246154222426755e+00 2.1637024356846042e+00 
263 1 2 7.9999999999998428e-01 4.6958199989340370e+00 1.0000000000000000e+00 9.1870456477756441e+00 4.7299913997926737e+00 2.1603865001767115e+00 
50 1 2 7.9999999999998483e-01 -6.5020974129868534e+01 1.0000000000000000e+00 9.2322669412835339e+00 4.6912180368766538e+00 2.1272002232869220e+00 
302 1 2 7.9999999999998639e-01 1.6498623355309753e+01 1.0000000000000000e+00 9.3777701453185287e+00 4.5526067482911490e+00 2.0385455365683596e+00 
23 1 2 7.9999999999999172e-01 2.0268523357752528e+00 1.0000000000000000e+00 9.4458392125246284e+00 3.9222897925190749e+00 2.5255869842262615e+00 
29 1 2 7.9999999999999505e-01 1.3269221566824488e+01 1.0000000000000000e+00 9.7355203607309964e+00 4.2620893549999534e+00 1.8997740667449770e+00 
149 1 2 7.9999999999999638e-01 1.1732362275736246e+01 1.0000000000000000e+00 1.0593885427068210e+01 3.6371690604143354e+00 1.9296587610151914e+00 
153 1 2 7.9999999999999172e-01 1.0940602869093937e+01 1.0000000000000000e+00 1.0931819944166204e+01 3.5687706248925717e+00 2.0094663792990106e+00 
254 1 2 7.9999999999999383e-01 5.3555328189185957e+01 1.0000000000000000e+00 1.0965918848525684e+01 3.3841444404066925e+00 2.0825207811612927e+00 
111 1 2 7.9999999999997595e-01 -2.2709597863748861e+01 1.0000000000000000e+00 1.1174572195410120e+01 4.5722903288716523e+00 2.7867795411501031e+00 
334 1 2 8.0000000000001315e-01 -3.1562118959933635e+01 1.0000000000000000e+00 1.2110848243055640e+01 2.6057972802389293e+00 4.0688548959014712e+00 
232 1 2 7.9999999999999738e-01 2.8146891729196263e+01 1.0000000000000000e+00 1.2424265622192499e+01 2.0675992627355462e+00 3.9238397558131539e+00 
161 1 2 8.0000000000003413e-01 5.9304223009532578e+01 1.0000000000000000e+00 1.2897123103940798e+01 2.5251936096115295e+00 5.1815983479112635e+00 
306 1 2 7.9999999999997662e-01 6.0868973382604359e+01 1.0000000000000000e+00 1.3019596777995476e+01 3.2364006556986116e+00 4.3311000698763280e+00 
242 1 2 7.9999999999998361e-01 -4.5504001755072551e+01 1.0000000000000000e+00 1.3262839587329871e+01 3.0452337529830458e+00 4.1959396382354139e+00 
126 1 2 8.0000000000009541e-01 -5.4734666393847860e+01 1.0000000000000000e+00 8.8476966972543032e+00 5.9626891603587318e+00 3.5793042230496228e+00 
297 1 2 8.0000000000013682e-01 -1.6893509730168645e+00 1.0000000000000000e+00 8.9622512332044657e+00 6.2048651583224395e+00 3.6050903630495852e+00 
283 1 2 7.9999999999996330e-01 -1.2131143396566486e+01 1.0000000000000000e+00 8.9089232694045624e+00 6.1253158372751120e+00 3.4977345162212652e+00 
53 1 2 8.0000000000010174e-01 4.2691089349313714e+01 1.0000000000000000e+00 8.9906229466909195e+00 6.2434839969831097e+00 3.6427276001240676e+00 
4 1 2 8.0000000000003246e-01 1.0368860596942390e+02 1.0000000000000000e+00 8.9138388336982164e+00 5.5492294417042194e+00 3.7185717377087140e+00 
237 1 2 7.9999999999999405e-01 6.6394491957803567e+01 1.0000000000000000e+00 9.3520645069494268e+00 6.6129094088215510e+00 4.0364315608324004e+00 
129 1 2 8.0000000000010230e-01 -4.0721407529907879e+01 1.0000000000000000e+00 1.1395880075488568e+01 5.3581642964807745e+00 5.1562785583731694e+00 
150 1 2 8.0000000000010152e-01 3.5665956433750608e+01 1.0000000000000000e+00 1.1374798499707458e+01 5.4373691546692333e+00 5.6619129910974113e+00 
236 1 2 7.9999999999984206e-01 1.3808993033760352e+01 1.0000000000000000e+00 1.1705333483139395e+01 4.9131259139395134e+00 5.0888357113545428e+00 
359 1 2 7.9999999999985882e-01 -3.3488371075096495e+01 1.0000000000000000e+00 1.1796365369856987e+01 4.7785996558954587e+00 5.0414747581658554e+00 
228 1 2 7.9999999999988836e-01 -1.9359498109392888e+01 1.0000000000000000e+00 1.2060334750729744e+01 5.9508287715139234e+00 6.0451063245869632e+00 
180 1 2 8.0000000000006155e-01 -2.6093592137327981e+01 1.0000000000000000e+00 1.1734896749874148e+01 5.6307122401076484e+00 6.2133302177829091e+00 
102 1 2 8.0000000000008575e-01 1.9443483475766385e+01 1.0000000000000000e+00 1.1866913718500813e+01 5.8615678183161304e+00 6.2734238549856594e+00 
222 1 2 8.0000000000005023e-01 1.5078899272033773e+01 1.0000000000000000e+00 1.1806656003395366e+01 5.2970099083893611e+00 6.1944859689530256e+00 
367 1 2 8.0000000000011129e-01 -1.4370950896046743e+01 1.0000000000000000e+00 1.1817994738942627e+01 4.2133656716750680e+00 4.5247192324279224e+00 
36 1 2 7.9999999999988669e-01 -1.5187786218412541e+01 1.0000000000000000e+00 1.2158081291739448e+01 5.8680177956653914e+00 6.0948318178714604e+00 
285 1 2 8.0000000000013671e-01 2.8965322028676006e+01 1.0000000000000000e+00 1.1881551328480835e+01 4.2459379153787058e+00 4.5169764384432876e+00 
331 1 2 8.0000000000000027e-01 -6.6090419141789681e+01 1.0000000000000000e+00 1.1903481675766937e+01 4.2493245428269057e+00 4.4818772062560610e+00 
176 1 2 7.9999999999988169e-01 1.2123854215175218e+02 1.0000000000000000e+00 1.2215016229898218e+01 5.8213497054505190e+00 6.1587116550896868e+00 
368 1 2 8.0000000000004734e-01 2.8254068153110033e+01 1.0000000000000000e+00 1.2422010341246420e+01 4.3480411002307555e+00 6.2709676393600544e+00 
293 1 2 8.0000000000003979e-01 3.6934637458543158e+01 1.0000000000000000e+00 1.2313758033233668e+01 5.1665739223959930e+00 6.6346630619607661e+00 
162 1 2 7.9999999999997951e-01 1.3236649522518032e+01 1.0000000000000000e+00 1.2719447836941793e+01 3.4921818530641868e+00 4.1622045583240102e+00 
292 1 2 7.9999999999994031e-01 4.4364068752967434e+01 1.0000000000000000e+00 1.2889038130931485e+01 3.9700454383189694e+00 5.9444807904459553e+00 
298 1 2 7.9999999999996552e-01 4.8586110865557274e+01 1.0000000000000000e+00 1.3283685539143548e+01 3.5977479023028551e+00 6.2853554248750507e+00 
286 1 2 8.0000000000027782e-01 3.3926907051647447e+01 1.0000000000000000e+00 9.4222154872130357e+00 8.3365983735195215e+00 5.6128133603643189e+00 
170 1 2 7.9999999999962190e-01 2.3439791712627787e+01 1.0000000000000000e+00 9.0676469320978175e+00 8.9973097873928296e+00 5.9854182986862012e+00 
177 1 2 7.9999999999975058e-01 5.6594744286371022e+00 1.0000000000000000e+00 9.5617966752902639e+00 7.1447444859510307e+00 4.7648880825903062e+00 
105 1 2 8.0000000000020333e-01 -1.7653848960770240e+01 1.0000000000000000e+00 9.4681571734493115e+00 9.3794630806398942e+00 6.4805261314777072e+00 
337 1 2 7.9999999999999272e-01 7.5344064759686134e+01 1.0000000000000000e+00 9.3596918514045839e+00 9.2410374580498456e+00 6.4811599367102772e+00 
275 1 2 7.9999999999992022e-01 -3.5719357524664076e+01 1.0000000000000000e+00 9.4802893751126884e+00 9.1134347430843228e+00 6.0761242596399594e+00 
8 1 2 7.9999999999993554e-01 6.8940226085379521e+00 1.0000000000000000e+00 9.6268501097659378e+00 8.8418088525307379e+00 5.8848961054584361e+00 
139 1 2 7.9999999999991955e-01 -2.1170178394201123e+01 1.0000000000000000e+00 9.6858138241701646e+00 8.8652592351849790e+00 5.9255483496412360e+00 
78 1 2 7.9999999999991800e-01 -3.2433806273053420e+01 1.0000000000000000e+00 9.9043502136195638e+00 8.6045660896281753e+00 5.7668755272823171e+00 
319 1 2 8.0000000000014393e-01 -4.2007637516502811e+01 1.0000000000000000e+00 9.5490568873323163e+00 7.7038589901676779e+00 5.5051651624253060e+00 
199 1 2 8.0000000000017402e-01 7.4427217028631645e+01 1.0000000000000000e+00 9.5604354389978781e+00 7.7694006525032888e+00 5.5982486064889851e+00 
290 1 2 7.9999999999994054e-01 3.8596664352625289e+01 1.0000000000000000e+00 7.3876129267664714e+00 9.3358290038493283e+00 4.9701340588392453e+00 
289 1 2 7.9999999999999361e-01 1.1714497878464298e+00 1.0000000000000000e+00 7.0912894249748346e+00 9.1853117826375588e+00 4.6530097127696246e+00 
265 1 2 7.9999999999995319e-01 2.1944566928898155e+01 1.0000000000000000e+00 9.5148061472190868e+00 6.7635160551184379e+00 4.2369251243275938e+00 
183 1 2 8.0000000000008398e-01 -3.3931810971501832e+01 1.0000000000000000e+00 9.6803321084273097e+00 7.0891556746892421e+00 5.2996953010305390e+00 
146 1 2 8.0000000000002214e-01 6.3590632658278601e+00 1.0000000000000000e+00 6.9395394927836040e+00 9.1385485500246730e+00 4.5593102033133235e+00 
81 1 2 7.9999999999997673e-01 -3.3079657237890402e+01 1.0000000000000000e+00 6.9508944474667782e+00 9.1142073104953010e+00 3.5053159434345020e+00 
89 1 2 7.9999999999993787e-01 2.5386122467344094e+01 1.0000000000000000e+00 1.0062969358305493e+01 7.0912442026408709e+00 4.6732640205082534e+00 
258 1 2 7.9999999999993721e-01 8.1076294448283690e+00 1.0000000000000000e+00 1.0095512738849267e+01 7.1113367556886296e+00 4.7023738625542011e+00 
107 1 2 7.9999999999993143e-01 3.1107321522577877e+01 1.0000000000000000e+00 1.0805819904300890e+01 8.1301512553963384e+00 5.7947066226405219e+00 
201 1 2 7.9999999999997140e-01 -2.8451541928517116e+01 1.0000000000000000e+00 1.1558953655721997e+01 7.1946006663245772e+00 6.1317203216550693e+00 
91 1 2 8.0000000000009774e-01 -8.0783968075426529e+00 1.0000000000000000e+00 1.1590805887593831e+01 7.0670790152551346e+00 6.2887214199333794e+00 
93 1 2 8.0000000000002625e-01 -7.0923039500607103e+00 1.0000000000000000e+00 1.3236471771811155e+01 4.4046034146222786e+00 8.4760465172959965e+00 
371 1 2 7.9999999999990401e-01 -2.0536224461660296e+01 1.0000000000000000e+00 1.1777805172535819e+01 7.9635910652008333e+00 7.0624746252932376e+00 
164 1 2 8.0000000000003224e-01 -4.9757881897925365e+01 1.0000000000000000e+00 1.2063642616825925e+01 8.7779088807839010e+00 7.7854717933429889e+00 
217 1 2 7.9999999999995086e-01 3.3199031147070862e+01 1.0000000000000000e+00 1.1990654515326680e+01 8.5217337271635838e+00 7.5521182428877545e+00 
165 1 2 7.9999999999994309e-01 1.7042075791654025e+02 1.0000000000000000e+00 1.2099114187327451e+01 9.2924315182958388e+00 8.2209633248397225e+00 
17 1 2 8.0000000000008586e-01 5.8408664658044962e-01 1.0000000000000000e+00 1.2090205442086825e+01 9.3841835262519364e+00 8.2893000883896111e+00 
204 1 2 8.0000000000008031e-01 4.3436637136668405e-01 1.0000000000000000e+00 1.2086529273202229e+01 9.4069714505472657e+00 8.3090942295070782e+00 
65 1 2 7.9999999999995186e-01 -2.6800982285496140e+01 1.0000000000000000e+00 1.1931610220374321e+01 9.5405548656405497e+00 8.6226713074524959e+00 
156 1 2 8.0000000000007454e-01 -3.3412186611381685e+01 1.0000000000000000e+00 1.2093611679477178e+01 9.3545930887683788e+00 8.2670815605312047e+00 
355 1 2 8.0000000000006799e-01 -1.3321332302397902e+01 1.0000000000000000e+00 1.2094493980638999e+01 9.3434113422912972e+00 8.2597371688363808e+00 
25 1 2 7.9999999999986848e-01 -1.2762063779235746e+01 1.0000000000000000e+00 1.2101536287967239e+01 9.2694913517994468e+00 8.2003751984761788e+00 
336 1 2 7.9999999999999749e-01 1.7963510598042820e+01 1.0000000000000000e+00 1.1824952766982532e+01 8.0849271246622685e+00 7.1611401661659544e+00 
12 1 2 8.0000000000003113e-01 5.1529440577364580e+00 1.0000000000000000e+00 1.1918643626701845e+01 8.3241619726733340e+00 7.3728398555828001e+00 
124 1 2 8.0000000000004079e-01 -3.7395839935848841e+01 1.0000000000000000e+00 1.1878690857063102e+01 8.2235640627134856e+00 7.2882308533067546e+00 
284 1 2 7.9999999999985383e-01 6.6667318778568870e+01 1.0000000000000000e+00 1.2105756550242445e+01 9.1530429012815020e+00 8.1074393022277071e+00 
210 1 2 8.0000000000005411e-01 9.1782933738358707e+00 1.0000000000000000e+00 1.2081828233855985e+01 8.8717245448487905e+00 7.8707665374845606e+00 
372 1 2 8.0000000000007687e-01 -4.9182426720171179e+01 1.0000000000000000e+00 1.2334160772852496e+01 5.9176854337198588e+00 1.2954345577512218e+01 
224 1 2 8.0000000000009441e-01 2.4684286491297872e+01 1.0000000000000000e+00 1.2420552908767769e+01 5.9165149117984903e+00 1.2705692697271900e+01 
131 1 2 8.0000000000016236e-01 3.8817666998340137e+01 1.0000000000000000e+00 1.2729453178747070e+01 5.4705196330322297e+00 1.2183194551531271e+01 
361 1 2 8.0000000000001625e-01 2.6436166618226231e+01 1.0000000000000000e+00 1.2739583121112831e+01 6.0615968626040058e+00 1.2644617924211468e+01 
350 1 2 8.0000000000003402e-01 -2.1690457383151063e+01 1.0000000000000000e+00 1.2306640591222090e+01 6.3678619903654736e+00 1.3320893112593842e+01 
76 1 2 8.0000000000004057e-01 -2.6577053741332612e+01 1.0000000000000000e+00 1.2899123063593890e+01 5.5908527598448101e+00 1.3056289852188367e+01 
73 1 2 8.0000000000012095e-01 -4.0064895568306980e+01 1.0000000000000000e+00 1.3096339211167134e+01 4.9281973303756796e+00 1.1849070645324463e+01 
380 1 2 8.0000000000004079e-01 3.8223978706427246e+01 1.0000000000000000e+00 1.3133204204948429e+01 5.2215511769394451e+00 1.2598994655520043e+01 
64 1 2 8.0000000000003924e-01 -5.2921217197768769e+01 1.0000000000000000e+00 1.3199997415375885e+01 4.9482787524966598e+00 1.2162490905796604e+01 
42 1 2 7.9999999999990434e-01 -4.9957848489473719e+01 1.0000000000000000e+00 1.3206747853398854e+01 4.8536181575199491e+00 1.1960190962102061e+01 
250 1 2 7.9999999999994942e-01 -3.7171067332861909e+01 1.0000000000000000e+00 1.3209306431368923e+01 4.8174963494186747e+00 1.1769280351413119e+01 
373 1 2 7.9999999999988092e-01 -2.7810559623459007e+01 1.0000000000000000e+00 1.3216281651976551e+01 4.8736020909371547e+00 1.1997153030588120e+01 
186 1 2 7.9999999999988392e-01 -3.2403802015213259e+01 1.0000000000000000e+00 1.3260626054657617e+01 4.7204630954148392e+00 1.1640046321620535e+01 
300 1 2 7.9999999999988158e-01 -1.0822676359884870e+01 1.0000000000000000e+00 1.2549178863967741e+01 6.1999467272250888e+00 1.3526093419580423e+01 
325 1 2 8.0000000000000082e-01 2.3471614450593947e+01 1.0000000000000000e+00 1.2250447078736331e+01 6.6621471750894807e+00 1.3713242590681608e+01 
125 1 2 8.0000000000040516e-01 1.6028704899214714e+00 1.0000000000000000e+00 1.1843343059968449e+01 8.3890095135695937e+00 1.5665890865950606e+01 
343 1 2 8.0000000000068594e-01 -5.2473290648030499e+01 1.0000000000000000e+00 1.1842881800539965e+01 8.3691386854136489e+00 1.5640554763789158e+01 
99 1 2 8.0000000000072846e-01 -2.5711216597086278e+01 1.0000000000000000e+00 1.1842564093214177e+01 8.3636581372428580e+00 1.5634067050024465e+01 
341 1 2 8.0000000000073590e-01 -1.0640069233472868e+01 1.0000000000000000e+00 1.1842703195428104e+01 8.3622441620183192e+00 1.5630753073296912e+01 
351 1 2 8.0000000000052407e-01 -4.0510937978981232e+01 1.0000000000000000e+00 1.1861561063575627e+01 8.3207845615080664e+00 1.5655274360341634e+01 
184 1 2 7.9999999999956073e-01 2.3616076182450229e+01 1.0000000000000000e+00 1.1868907704066872e+01 8.3552355929106596e+00 1.5566274728765928e+01 
172 1 2 7.9999999999958304e-01 -1.6477357069286448e+01 1.0000000000000000e+00 1.1874348668514557e+01 8.3497868014115753e+00 1.5553025619086011e+01 
21 1 2 7.9999999999962856e-01 3.2724843458838002e+00 1.0000000000000000e+00 1.1903345281809852e+01 8.3478600949981008e+00 1.5544633754701657e+01 
214 1 2 7.9999999999961391e-01 5.1541208583196550e+01 1.0000000000000000e+00 1.1887819704117652e+01 8.3083065451564639e+00 1.5474882734765020e+01 
60 1 2 7.9999999999962434e-01 1.3010363400010259e+01 1.0000000000000000e+00 1.1891590001041775e+01 8.3015382792271630e+00 1.5461575884566814e+01 
82 1 2 7.9999999999963423e-01 5.9572277160498324e+01 1.0000000000000000e+00 1.1895788165679900e+01 8.3009658119015608e+00 1.5459058502958523e+01 
383 1 2 7.9999999999963189e-01 -6.0070158790280942e+01 1.0000000000000000e+00 1.1896782281470223e+01 8.3002222913719148e+00 1.5457462402049156e+01 
168 1 2 8.0000000000003824e-01 8.4101050964681377e+01 1.0000000000000000e+00 1.2178249355896412e+01 6.8597083502889893e+00 1.3936340489186854e+01 
151 1 2 7.9999999999999172e-01 1.2343527519890571e+01 1.0000000000000000e+00 1.2192674682368406e+01 6.8311931513852322e+00 1.3900797084747794e+01 
112 1 2 7.9999999999990778e-01 6.7809772794656297e+01 1.0000000000000000e+00 1.2211593742315110e+01 6.7878334145427592e+00 1.3850708893308775e+01 
9 1 2 7.9999999999990357e-01 -5.0626488689140089e+01 1.0000000000000000e+00 1.2223064085083546e+01 6.7604119219043213e+00 1.3817075807834316e+01 
234 1 2 7.9999999999989990e-01 1.0798200374474669e+02 1.0000000000000000e+00 1.2223953305324404e+01 6.7548889501819405e+00 1.3814002071512888e+01 
310 1 2 8.0000000000009519e-01 -2.7488327988332291e+00 1.0000000000000000e+00 1.2237369221940034e+01 6.6782583504736932e+00 1.3781923078347072e+01 
97 1 2 7.9999999999989868e-01 -4.8921132530417495e+01 1.0000000000000000e+00 1.1582423346029760e+01 9.9299630286359175e+00 1.7619399156298513e+01 
26 1 2 7.9999999999989757e-01 5.7864860068779267e-01 1.0000000000000000e+00 1.1585846952230357e+01 9.9283927398009482e+00 1.7617547684142082e+01 
133 1 2 7.9999999999990989e-01 4.0780674592338979e+00 1.0000000000000000e+00 1.1542723996518149e+01 9.9527848656501181e+00 1.7680205691368286e+01 
40 1 2 7.9999999999981264e-01 -2.6636971607347835e+01 1.0000000000000000e+00 1.1800015126379336e+01 9.5093554956545692e+00 1.6821116719298750e+01 
72 1 2 8.0000000000006088e-01 -1.2357149682260125e+01 1.0000000000000000e+00 1.1656092189126033e+01 9.5507870443447000e+00 1.7447952238359992e+01 
347 1 2 7.9999999999990123e-01 6.2661907462834900e+00 1.0000000000000000e+00 1.1531935662437810e+01 9.9597473439780710e+00 1.7707272360526101e+01 
226 1 2 7.9999999999990989e-01 1.2051440091370594e+01 1.0000000000000000e+00 1.1550407695750893e+01 9.9452097325528470e+00 1.7656308028807366e+01 
57 1 2 8.0000000000002236e-01 -7.7860871836352246e+01 1.0000000000000000e+00 9.0881743661610006e+00 1.2440003523995717e+01 3.3188250122540683e+00 
268 1 2 7.9999999999994387e-01 5.0531183896181400e+00 1.0000000000000000e+00 9.0793155848420479e+00 1.2387936714584466e+01 2.9522472914851199e+00 
56 1 2 7.9999999999997207e-01 -1.7911719089329587e+01 1.0000000000000000e+00 9.0969068636838699e+00 1.2274873983670560e+01 3.0319629388850515e+00 
202 1 2 8.0000000000005045e-01 3.1895285795467199e+01 1.0000000000000000e+00 9.3594422080825357e+00 1.1745468775083346e+01 2.0197386255539462e+00 
261 1 2 7.9999999999999627e-01 1.4712772794003481e-01 1.0000000000000000e+00 9.3929711002989045e+00 1.1695074581681675e+01 1.9900565455386494e+00 
255 1 2 8.0000000000000548e-01 7.0991234626538482e+00 1.0000000000000000e+00 9.4020805614538308e+00 1.1661484212426000e+01 2.0626197066711676e+00 
79 1 2 7.9999999999991078e-01 -2.8283637618590618e+01 1.0000000000000000e+00 9.4917298243412791e+00 1.1559849700681658e+01 2.0049364901851034e+00 
121 1 2 7.9999999999999793e-01 -4.2851677630644986e+01 1.0000000000000000e+00 9.7712704014617948e+00 1.1339050530847494e+01 1.6166651812827262e+00 
143 1 2 8.0000000000003757e-01 8.6463264793019645e-01 1.0000000000000000e+00 9.9654814997993526e+00 1.1248265889929153e+01 1.2566769842556835e+00 
80 1 2 8.0000000000000260e-01 6.8579594820995844e+00 1.0000000000000000e+00 7.0920487898555571e+00 1.0381691189462975e+01 2.9168443407094040e+00 
138 1 2 8.0000000000000282e-01 5.9537258057016809e+00 1.0000000000000000e+00 6.9046559141049064e+00 1.0197262652237123e+01 2.8126809477987864e+00 
249 1 2 8.0000000000000415e-01 3.8119337838336492e+01 1.0000000000000000e+00 1.0173411289841251e+01 1.1126786790586051e+01 1.1948636725220940e+00 
11 1 2 8.0000000000001070e-01 4.6613634874584811e+01 1.0000000000000000e+00 1.0569559955409725e+01 1.2980353955731726e+01 2.6705857965356512e+00 
207 1 2 8.0000000000001259e-01 3.2172423546167622e+01 1.0000000000000000e+00 1.0644227648459951e+01 1.2938743981537707e+01 2.5372626698801324e+00 
358 1 2 8.0000000000001326e-01 -2.1245376965536785e+01 1.0000000000000000e+00 1.0675790504191587e+01 1.2919987827368510e+01 2.4812066491443110e+00 
221 1 2 8.0000000000002924e-01 2.6362944770018757e+00 1.0000000000000000e+00 1.0685092467477345e+01 1.2919528163377207e+01 2.4302090747242557e+00 
205 1 2 8.0000000000005456e-01 1.0004555949535710e+02 1.0000000000000000e+00 1.0578815029784911e+01 1.1016197475111564e+01 7.6230976681840756e-01 
24 1 2 8.0000000000005067e-01 3.3414830793960513e+00 1.0000000000000000e+00 1.0766696293157926e+01 1.2858364901936103e+01 2.3355731223910143e+00 
191 1 2 8.0000000000004223e-01 1.3124595333972014e+01 1.0000000000000000e+00 1.0775171248574059e+01 1.2850602545564247e+01 2.3315274222050735e+00 
96 1 2 8.0000000000007010e-01 8.2641057730281048e+01 1.0000000000000000e+00 1.0828026883907580e+01 1.2809753093045323e+01 2.2490725738637067e+00 
87 1 2 7.9999999999986970e-01 -4.3691697223173165e+01 1.0000000000000000e+00 1.1034979533314274e+01 1.2611835925571043e+01 1.8221010058734832e+00 
213 1 2 7.9999999999996119e-01 4.8668360610872270e+01 1.0000000000000000e+00 1.1171405813886929e+01 1.2379790932815906e+01 1.4171165388761757e+00 
346 1 2 7.9999999999996763e-01 -1.0685849362781013e+01 1.0000000000000000e+00 1.1220870028843432e+01 1.1723079275359325e+01 5.0998872103605564e-01 
320 1 2 7.9999999999997651e-01 -2.8122927121133124e+01 1.0000000000000000e+00 1.1216124389901038e+01 1.1669419612865084e+01 4.4757707419850423e-01 
160 1 2 7.9999999999996829e-01 -2.6767914866331900e+01 1.0000000000000000e+00 1.1202505198875867e+01 1.1596305772295166e+01 3.4957863777291365e-01 
13 1 2 7.9999999999993454e-01 -2.4048620696353574e+01 1.0000000000000000e+00 1.1169755852072885e+01 1.1364696113234270e+01 7.1136201798708332e-02 
262 1 2 7.9999999999993321e-01 3.3412070834233070e+01 1.0000000000000000e+00 1.1169541848808612e+01 1.1353603599000843e+01 6.0489599888971866e-02 
277 1 2 7.9999999999987059e-01 -1.9145188593734531e+01 1.0000000000000000e+00 1.1187051502716445e+01 1.1238811489805014e+01 1.7585760205682081e-02 
197 1 2 8.0000000000013693e-01 5.7271022529908521e+01 1.0000000000000000e+00 1.0904623582363060e+01 1.0992800751167547e+01 3.6837800117321773e-01 
103 1 2 7.9999999999999960e-01 -1.0482910944316401e+01 1.0000000000000000e+00 7.5717570392418683e+00 1.1096125995074146e+01 3.4841599851041698e+00 
253 1 2 8.0000000000008520e-01 -5.7426458096612674e+00 1.0000000000000000e+00 8.1909576911002411e+00 1.2615063757482533e+01 4.3332786059949591e+00 
189 1 2 7.9999999999989457e-01 -3.3206453679150833e+01 1.0000000000000000e+00 9.7036945172331688e+00 1.3056239916381362e+01 4.8461300262694911e+00 
171 1 2 8.0000000000012284e-01 3.9160450026058236e+01 1.0000000000000000e+00 8.9226604012976001e+00 1.2589870746469595e+01 6.0460861565028043e+00 
20 1 2 8.0000000000006755e-01 1.8985664806951721e+01 1.0000000000000000e+00 8.1736876314690825e+00 1.3072652976742070e+01 4.6532182962582525e+00 
370 1 2 7.9999999999984917e-01 -1.4038709456031881e+01 1.0000000000000000e+00 8.1973971293129360e+00 1.2652021795336985e+01 6.5643065716026383e+00 
33 1 2 7.9999999999986449e-01 -7.7003924628378684e+01 1.0000000000000000e+00 8.1419806661578260e+00 1.2631858496867357e+01 6.5819303624518701e+00 
152 1 2 7.9999999999996407e-01 -4.4506581849812612e+00 1.0000000000000000e+00 7.8217038601680686e+00 1.2640251201597945e+01 4.2669134517295246e+00 
34 1 2 8.0000000000005045e-01 -3.2460791008010531e+01 1.0000000000000000e+00 7.5834303969835126e+00 1.2796735778590172e+01 4.3473197442809779e+00 