LAMMPS data file via write_data, version 30 Jul 2016, timestep = 50400000

644 atoms
2 atom types

0.0000000000000000e+00 2.0000000000000000e+01 xlo xhi
0.0000000000000000e+00 2.0000000000000000e+01 ylo yhi
0.0000000000000000e+00 2.0000000000000000e+01 zlo zhi

Masses

1 4.31
2 3.896

Atoms # meso-molecular

413 0 1 1.0562640903746381e+00 -3.3135458834653257e+01 1.0000000000000000e+00 6.5761952674733468e+00 3.3336882714060506e-01 2.6102713187385249e+00 
462 0 1 1.0104762505517211e+00 -4.0903221713071055e+01 1.0000000000000000e+00 6.3592473639244451e+00 3.3302943436591557e+00 2.5316976577862045e+00 
21 0 1 1.0345684596048739e+00 -5.1433849395729922e+01 1.0000000000000000e+00 5.5941942957988378e+00 6.0933774634448072e+00 2.5538731999111501e+00 
187 0 1 1.0176554043139765e+00 -1.5380605787179721e+01 1.0000000000000000e+00 5.4774284417515222e+00 5.8323152729886276e+00 2.7618810001466656e+00 
504 0 1 1.0223381341272157e+00 -5.6595644375709924e+01 1.0000000000000000e+00 5.4873293492387258e+00 7.1478066169158545e+00 2.5301135035949658e+00 
642 0 1 1.0254869076758673e+00 -4.3424862503940410e+01 1.0000000000000000e+00 5.4266748946257293e+00 7.1135142847001589e+00 2.5833304400098629e+00 
565 0 1 1.0306900884967816e+00 -1.2756490264980023e+01 1.0000000000000000e+00 5.1796060817115617e+00 7.3059852965760630e+00 3.0651759353375900e+00 
237 0 1 1.0278079846362307e+00 -2.2133081280867469e+01 1.0000000000000000e+00 3.2489350736461344e+00 2.7827016814230330e+00 6.0120789258068568e+00 
170 0 1 1.0436636756982245e+00 -3.2453251902187510e+01 1.0000000000000000e+00 3.3414717517956993e+00 3.0275828029447536e+00 5.9457829080364917e+00 
17 0 1 1.0708903793121214e+00 -2.9995389329684016e+01 1.0000000000000000e+00 5.0951094366597909e+00 8.4085133860070649e-01 5.6057849329920089e+00 
177 0 1 1.0245845116002263e+00 -3.2791040114278118e+01 1.0000000000000000e+00 3.6614034639295840e+00 1.8895542989588856e+00 6.3498986818989147e+00 
421 0 1 9.9476403402203262e-01 -4.6473188526222962e+01 1.0000000000000000e+00 4.6273809684255696e+00 6.6513814731863463e-01 5.4294482336896408e+00 
11 0 1 1.0293273486620356e+00 -3.4172392366532129e+01 1.0000000000000000e+00 5.6093524500265861e+00 1.2066535973362498e+00 5.0384776115442573e+00 
454 0 1 1.0425774472308424e+00 -2.0160059040909026e+01 1.0000000000000000e+00 6.0274730069508253e+00 2.8284784596901611e+00 5.5051161401817117e+00 
499 0 1 1.0370783831561463e+00 -3.2382446874839140e+01 1.0000000000000000e+00 5.1752794515994411e+00 1.1797985118777667e+00 5.3089147100903364e+00 
406 0 1 1.0353655944865239e+00 -3.9140292854209733e+01 1.0000000000000000e+00 6.6194651381571497e+00 2.5795268886085196e+00 5.0982211983157226e+00 
586 0 1 1.0590741799481775e+00 -4.3311147245601333e+01 1.0000000000000000e+00 6.4535323535493401e+00 3.2709265687458027e+00 3.7595107363418530e+00 
163 0 1 1.0348100773785405e+00 -3.5405876745310394e+01 1.0000000000000000e+00 4.9245738322237305e+00 7.7221848851645281e-01 6.1186239497538519e+00 
103 0 1 9.6880254418023570e-01 -2.9373787818631005e+01 1.0000000000000000e+00 2.8292928445892169e+00 4.8476481634946138e+00 6.3566257908415258e+00 
291 0 1 1.0275702765592893e+00 -7.4240469896689509e+00 1.0000000000000000e+00 3.0864598257393028e+00 4.6954498144812780e+00 5.9958074503957901e+00 
475 0 1 1.0267032106432352e+00 -4.5168383843656599e+01 1.0000000000000000e+00 6.1942126648201459e+00 3.4121745078250973e+00 3.3893425462578373e+00 
64 0 1 1.0168641962455871e+00 -4.8698395247538038e+01 1.0000000000000000e+00 6.6664246227430652e+00 6.1164195385946822e+00 4.0419595793315839e+00 
603 0 1 1.0006891354378216e+00 -5.9130530004409358e+01 1.0000000000000000e+00 5.9608560860697031e+00 4.1112784905218858e+00 3.8770508333208977e+00 
575 0 1 1.0369122394770862e+00 -7.6698883800930290e+01 1.0000000000000000e+00 6.3298882243648409e+00 4.1459652412298347e+00 5.7392213655260811e+00 
471 0 1 1.0577127343662529e+00 -2.0485412534477948e+01 1.0000000000000000e+00 3.4997533368376370e+00 5.9565880380621836e+00 6.1279245379738274e+00 
424 0 1 1.0071662244886823e+00 -2.0282335790181140e+01 1.0000000000000000e+00 5.9906607997909314e+00 4.5674893576986255e+00 4.9972386120988839e+00 
584 0 1 9.7734521575675537e-01 -4.4771091030594313e+01 1.0000000000000000e+00 3.5369602836783209e+00 4.6970012557031202e+00 5.4629429920351527e+00 
329 0 1 1.0201329450724976e+00 -3.4788707692987835e+01 1.0000000000000000e+00 4.7248865170401304e+00 5.6652958570500935e+00 4.0930370981801687e+00 
233 0 1 1.0013212436929846e+00 -3.1198190910007959e+01 1.0000000000000000e+00 4.0918262248138095e+00 6.3114019400327876e+00 4.6581566370363161e+00 
133 0 1 1.0245622020646974e+00 -4.7231508476948271e+01 1.0000000000000000e+00 4.4348805375338403e+00 6.8958816202233049e+00 5.0127920048299233e+00 
62 0 1 1.0236121006037411e+00 -4.5747090351717389e+01 1.0000000000000000e+00 4.2375354515368953e+00 6.7928776063369369e+00 5.7341083409951503e+00 
190 0 1 1.0157201998947152e+00 -6.8765526248916174e+01 1.0000000000000000e+00 6.4364573105491143e+00 8.2814001367915768e+00 5.9455088176786592e+00 
563 0 1 1.0102507166681047e+00 -2.4389814034009323e+01 1.0000000000000000e+00 4.6216272918020058e+00 7.1405661874952910e+00 3.9987960659011343e+00 
382 0 1 1.0019692894549352e+00 -2.4779219510832608e+01 1.0000000000000000e+00 5.9462401928271387e+00 8.8670606079416814e+00 5.4897008323989400e+00 
489 0 1 1.0570830228424986e+00 -2.3150253065651405e+01 1.0000000000000000e+00 6.6067923543958509e+00 8.9938683512880306e+00 5.9694385890770238e+00 
196 0 1 1.0232531055694802e+00 -4.2282963630957170e+01 1.0000000000000000e+00 5.9481516271322938e+00 8.9161720991975209e+00 4.3651528104797359e+00 
448 0 1 1.0173811345100561e+00 -5.7357441305423144e+01 1.0000000000000000e+00 6.3299654051386574e+00 6.9117273101286960e+00 4.4603161080860385e+00 
379 0 1 1.0233439164854334e+00 -5.7090220520540214e+01 1.0000000000000000e+00 3.0897954813378932e+00 2.5694227313070486e+00 7.0928513659213914e+00 
473 0 1 1.0200058275796786e+00 -2.9339822825661944e+01 1.0000000000000000e+00 3.2180910008030703e+00 2.2675981303969555e+00 6.7422321641539051e+00 
193 0 1 1.0336068659481688e+00 -2.9352409886306194e+01 1.0000000000000000e+00 3.7435202049581382e+00 2.7651349899518234e+00 7.7311922454175184e+00 
254 0 1 9.9952959630930294e-01 -3.0317098626421348e+01 1.0000000000000000e+00 5.8599558013781046e+00 2.8468348031105166e+00 7.7310131870445824e+00 
267 0 1 9.9978672261456547e-01 -3.1695123656077957e+01 1.0000000000000000e+00 6.4802673063307372e+00 2.1293348151159628e+00 7.2013466746838830e+00 
425 0 1 1.0371804794035273e+00 -4.1589761492495796e+01 1.0000000000000000e+00 5.3847331670144918e+00 3.2896726303216925e+00 9.1045765318871670e+00 
534 0 1 1.0125636466992558e+00 -3.3125011531400268e+01 1.0000000000000000e+00 2.8091565515812755e+00 3.9657213060881529e+00 7.0513135323928404e+00 
253 0 1 1.0432319660354694e+00 -4.2846188847007085e+01 1.0000000000000000e+00 5.4439651298472951e+00 3.3854164304679770e+00 8.8257911824363564e+00 
602 0 1 1.0212365985196832e+00 -5.7927595886001050e+01 1.0000000000000000e+00 4.0886724310951781e+00 3.5576015350872776e+00 8.0215385148374345e+00 
610 0 1 1.0323127948373494e+00 -7.5061621227479947e+01 1.0000000000000000e+00 3.6180226761084953e+00 5.6444621975950717e+00 6.9494850395467624e+00 
73 0 1 1.0352286505008423e+00 -1.1843802610091938e+01 1.0000000000000000e+00 4.2352515628371679e+00 3.5127951002630700e+00 8.0013538168478409e+00 
176 0 1 1.0517933432398663e+00 -4.7011949106345099e+01 1.0000000000000000e+00 4.2148559465645983e+00 6.4215540250218721e+00 6.8045969171258873e+00 
125 0 1 1.0487882543166298e+00 -4.6112232945728934e+01 1.0000000000000000e+00 5.1205788116255642e+00 5.7514190631974014e+00 7.1386763389384464e+00 
216 0 1 1.0451977824598992e+00 -3.7408365814037829e+01 1.0000000000000000e+00 5.4216793445538380e+00 6.2894963078867159e+00 8.4064486291678069e+00 
184 0 1 1.0021856350063136e+00 -3.9476780881647940e+01 1.0000000000000000e+00 5.3076071624619123e+00 4.8679400134667921e+00 9.9347905835872901e+00 
422 0 1 1.0390449602934981e+00 -3.0176934126465543e+01 1.0000000000000000e+00 5.6211019959816682e+00 8.8935392941240607e+00 9.9101153799715380e+00 
616 0 1 1.0742712685268136e+00 -4.0146225147913064e+01 1.0000000000000000e+00 5.2385317690061051e+00 7.0897090628454711e+00 8.3902796026178628e+00 
149 0 1 9.8618724334698904e-01 -2.4053814504042609e+01 1.0000000000000000e+00 4.7075871756872969e+00 7.0112430914661470e+00 7.5862631362731099e+00 
126 0 1 1.0291496690312658e+00 -7.0468726017445746e+01 1.0000000000000000e+00 6.3767097397991321e+00 7.9055932651395358e+00 7.0113389887299675e+00 
227 0 1 1.0752517650081712e+00 -1.7761952690233421e+01 1.0000000000000000e+00 5.6275652214483758e+00 9.1016117646103609e+00 9.3129808304886446e+00 
161 0 1 1.0139075737444248e+00 -3.6484968664624517e+01 1.0000000000000000e+00 5.2272568075929255e+00 8.2051375181411164e+00 9.4976009785464477e+00 
601 0 1 1.0237040723672342e+00 -4.4939955843633584e+01 1.0000000000000000e+00 5.0743141697868817e+00 7.5196437559696712e+00 8.8762506848158012e+00 
349 0 1 1.0501493676235349e+00 -3.1997075296132216e+01 1.0000000000000000e+00 5.3058615887553113e+00 7.9852590039750631e+00 9.3065599003032062e+00 
35 0 1 1.0158680464824856e+00 -5.2908034068074166e+01 1.0000000000000000e+00 6.0062448564533710e+00 9.7884362017377935e+00 9.9653438446588414e+00 
104 0 1 1.0569412770665649e+00 -5.1078555814856379e+01 1.0000000000000000e+00 6.4427755438463583e+00 9.9957825887749738e+00 8.6626797380357736e+00 
271 0 1 1.0073140351962637e+00 6.3609952913772672e-01 1.0000000000000000e+00 5.5117837659412858e+00 3.3193974295850146e+00 1.1366997497765462e+01 
306 0 1 9.9897339835854759e-01 -1.8065697851063959e+01 1.0000000000000000e+00 5.4889287607778883e+00 3.5079534039937026e+00 1.1586184068840367e+01 
69 0 1 1.0549062547545904e+00 -4.7949228751326430e+01 1.0000000000000000e+00 6.0706449778316927e+00 3.7422396460151330e+00 1.1975507260496927e+01 
327 0 1 1.0279519182104786e+00 -2.6236590454465169e+01 1.0000000000000000e+00 5.9906658086550868e+00 4.2919340759671583e+00 1.2086220254023813e+01 
258 0 1 1.0280197640452895e+00 -2.9077192953983815e+01 1.0000000000000000e+00 5.1931256610886161e+00 4.2382097391017322e+00 1.1213809004315316e+01 
512 0 1 1.0098992060980745e+00 -7.1910977925034715e+01 1.0000000000000000e+00 6.4483455047755003e+00 5.8034791302085464e+00 1.1793348047825321e+01 
236 0 1 1.0131129300134147e+00 -8.8985695046147950e-01 1.0000000000000000e+00 5.8215782449170765e+00 5.4819609927114152e+00 1.0455106531841622e+01 
573 0 1 1.0216096835287025e+00 -4.6559286368721203e+01 1.0000000000000000e+00 5.1977823631885585e+00 3.3721355096658518e+00 1.0132324058602878e+01 
376 0 1 9.7627754690010737e-01 -2.4404937398430707e+01 1.0000000000000000e+00 6.3542235156049696e+00 6.2660130442493509e+00 1.1531344649472478e+01 
116 0 1 1.0297512224750704e+00 -3.5672435633931620e+01 1.0000000000000000e+00 6.3823904819150741e+00 9.0647298064181570e+00 1.2070094040929614e+01 
537 0 1 1.0055460354276824e+00 -3.5376042318895166e+01 1.0000000000000000e+00 6.5199937538729014e+00 8.0048654595094639e+00 1.0895413204591231e+01 
203 0 1 1.0194810456908694e+00 -5.1177494611048672e+01 1.0000000000000000e+00 6.2776331643917986e+00 9.0427764004048719e+00 1.1825232649223809e+01 
140 0 1 1.0269617051973980e+00 -6.0055093758459293e+01 1.0000000000000000e+00 6.6573538352794088e+00 8.3593534293935861e+00 1.2799317732058226e+01 
366 0 1 9.8834077049333346e-01 -2.2889959221614870e+01 1.0000000000000000e+00 5.2662559919189214e+00 1.1422691516525093e+01 2.9492196045263501e+00 
400 0 1 1.0087477922800683e+00 -3.2058534279818922e+01 1.0000000000000000e+00 5.0275906791926728e+00 1.2189835834932540e+01 1.9960971327050565e+00 
107 0 1 1.0109719172666820e+00 -3.4985747427669956e+01 1.0000000000000000e+00 5.0149461398451125e+00 1.2277201975868381e+01 2.2319917814545414e+00 
597 0 1 1.0362055955981844e+00 -5.8898613827992278e+01 1.0000000000000000e+00 6.1401720120842613e+00 1.0291041289297212e+01 2.2585197445688450e+00 
283 0 1 1.0504219937338222e+00 -3.4859842141704917e+01 1.0000000000000000e+00 6.1197320987612942e+00 1.1540826773282582e+01 9.7174052966480717e-01 
166 0 1 1.0285756197294096e+00 -3.2393846817635470e+01 1.0000000000000000e+00 6.5933861979818280e+00 1.2596618037407264e+01 7.7360189909337773e-01 
276 0 1 1.0584256821324938e+00 -2.8924796392720154e+01 1.0000000000000000e+00 5.8610141393818838e+00 1.1720098358592056e+01 1.0386379702925170e+00 
248 0 1 1.0359100515390320e+00 -3.0268322383925913e+01 1.0000000000000000e+00 6.1315376413296345e+00 1.1066811591696412e+01 1.1704375611221538e+00 
6 0 1 1.0644236753765843e+00 -4.2772756372532797e+01 1.0000000000000000e+00 5.8067092822968114e+00 1.0803870265255158e+01 3.1735225891734724e+00 
385 0 1 1.0448830569064662e+00 -2.6411989597592640e+01 1.0000000000000000e+00 5.6976132381158120e+00 1.3077714683617724e+01 1.2204985988087842e+00 
578 0 1 1.0662120379780347e+00 -4.6815337630689335e+01 1.0000000000000000e+00 5.2265069244021021e+00 1.4214765571711958e+01 3.2014004602703170e+00 
408 0 1 1.0491512739600146e+00 -4.3675733602329998e+01 1.0000000000000000e+00 5.6791380871707489e+00 1.4548712968107122e+01 2.4952731638335441e+00 
16 0 1 1.0038539994495832e+00 -4.7739804783352334e+01 1.0000000000000000e+00 6.3563781855233525e+00 1.5039377509304940e+01 1.6418175008628610e+00 
551 0 1 1.0015019170251185e+00 -3.8209268282402022e+01 1.0000000000000000e+00 4.9398749950476306e+00 1.3859033584091241e+01 3.0565027558954503e+00 
581 0 1 1.0070210551505776e+00 -6.8516992676271258e+01 1.0000000000000000e+00 4.9148976875134602e+00 1.4191737893218427e+01 3.3258762235029709e+00 
319 0 1 1.0276010750065958e+00 -3.7196376277329875e+01 1.0000000000000000e+00 5.0983675969399176e+00 1.8514816108618430e+01 2.8102853299158017e+00 
414 0 1 1.0373838495691299e+00 -5.0804635416940876e+01 1.0000000000000000e+00 6.3056355143458402e+00 1.7014712223538460e+01 2.6741534320344309e+00 
367 0 1 1.0102009877815283e+00 -3.7490866091883554e+01 1.0000000000000000e+00 5.0615820969260694e+00 1.8049022815345438e+01 2.8319184165082580e+00 
373 0 1 1.0408348649942485e+00 -2.5100050390829143e+01 1.0000000000000000e+00 5.8420274845077618e+00 1.7977938913699340e+01 2.3949858375176536e+00 
175 0 1 1.0068140958952048e+00 -5.8848993525602829e+01 1.0000000000000000e+00 5.5271939168804369e+00 1.9449457136505160e+01 2.7011638157932634e+00 
159 0 1 1.0147162548864956e+00 -1.7669014249021075e+01 1.0000000000000000e+00 6.0843220495023971e+00 1.9862328013860544e+01 2.4750542121993919e+00 
118 0 1 9.8537824797805929e-01 -3.3932695470017130e+01 1.0000000000000000e+00 6.1525022096516508e+00 1.2024222216769360e+01 4.2787313856262612e+00 
483 0 1 1.0245953802427394e+00 -4.2729973029313605e+01 1.0000000000000000e+00 5.8110034833185162e+00 1.0694468850921094e+01 5.0393688487102297e+00 
290 0 1 1.0470069739305758e+00 -1.5469257705657288e+01 1.0000000000000000e+00 6.1508968197114795e+00 1.0994624124012516e+01 5.4583517832397215e+00 
162 0 1 9.8391047208209970e-01 -6.3184433903438205e+01 1.0000000000000000e+00 5.9414998654934577e+00 1.1618367855939619e+01 5.5175660165351772e+00 
530 0 1 1.0308283444760789e+00 -4.6059111445253620e+01 1.0000000000000000e+00 5.9210480675810615e+00 1.0150706661114805e+01 3.4832283866211320e+00 
468 0 1 1.0381953042513341e+00 -4.5297876808755859e+01 1.0000000000000000e+00 5.6035253728676055e+00 1.3602572122405586e+01 4.7382241846226831e+00 
53 0 1 1.0067831267786713e+00 -3.9842787507788174e+01 1.0000000000000000e+00 3.4196287352305674e+00 1.4997269802146340e+01 6.4152634335130925e+00 
353 0 1 1.0770374095488544e+00 -2.7722104057543298e+01 1.0000000000000000e+00 6.3670879447133455e+00 1.4779338068846293e+01 4.4507444488551808e+00 
505 0 1 1.0033518837975517e+00 -3.4212206452794639e+01 1.0000000000000000e+00 3.8530921174941670e+00 1.5292755900466409e+01 5.3560917647794195e+00 
472 0 1 1.0209787639976191e+00 -2.0991009266380793e+01 1.0000000000000000e+00 3.8503690718397707e+00 1.4398648904420911e+01 6.5926253761144187e+00 
174 0 1 9.9832121042824584e-01 -5.6367636941243212e+01 1.0000000000000000e+00 4.6203172272951498e+00 1.4670958629116594e+01 4.1041653994361766e+00 
324 0 1 1.0413690716455486e+00 -5.4899311830185077e+01 1.0000000000000000e+00 4.0826191667593275e+00 1.4963527803772966e+01 5.3358258303889796e+00 
410 0 1 9.8181625761865599e-01 -3.1004278188136432e+01 1.0000000000000000e+00 5.0934410471409919e+00 1.3868933317890141e+01 6.1324719673502033e+00 
117 0 1 9.7662572993033714e-01 -1.1737471801166786e+01 1.0000000000000000e+00 3.5968805311150271e+00 1.4678600827372236e+01 5.8907576125169889e+00 
386 0 1 1.0658044638905426e+00 -3.1630630372735745e+01 1.0000000000000000e+00 3.5679498181441280e+00 1.6504999515561742e+01 6.4266111193653286e+00 
52 0 1 1.0450923972668889e+00 -3.2223983477870981e+01 1.0000000000000000e+00 5.8219438745867134e+00 1.6725539188717992e+01 4.4253882604119346e+00 
234 0 1 1.0470995678687691e+00 -1.5971452061662850e+01 1.0000000000000000e+00 4.6766951047202108e+00 1.8576182962843642e+01 3.9828806507850691e+00 
524 0 1 1.0616296676347452e+00 -3.1432339689735176e+01 1.0000000000000000e+00 4.4678899487214192e+00 1.8595261161072475e+01 5.4394856587050890e+00 
527 0 1 1.0319920060935142e+00 -4.3862295076365506e+01 1.0000000000000000e+00 4.9630891515420545e+00 1.7101322421631721e+01 4.2284255613068193e+00 
251 0 1 1.0593191012160506e+00 -2.3226057497257884e+01 1.0000000000000000e+00 5.7517315141137511e+00 1.7027185915668642e+01 4.6843374259418331e+00 
615 0 1 1.0428714147427405e+00 -2.8605062502970998e+01 1.0000000000000000e+00 4.5705056028530109e+00 1.8727836214595570e+01 4.5865961725966011e+00 
65 0 1 1.0016002120385616e+00 -4.5089158341015271e+01 1.0000000000000000e+00 4.2922420980307079e+00 1.8716373810815298e+01 5.7696751030871880e+00 
157 0 1 1.0269113346958441e+00 -2.9634332738473582e+01 1.0000000000000000e+00 6.1872427771361718e+00 1.8670938381880624e+01 5.9512369194003325e+00 
539 0 1 1.0306038716045596e+00 -5.7027754923995076e+01 1.0000000000000000e+00 6.5524198487284160e+00 1.8795068125611117e+01 4.9276939406011824e+00 
32 0 1 1.0062612870953722e+00 -4.1665178510705637e+01 1.0000000000000000e+00 5.5423409610946193e+00 1.1644724032924637e+01 6.7592260858097086e+00 
151 0 1 1.0152450167901919e+00 -3.7637238736771323e+01 1.0000000000000000e+00 5.2661258214837972e+00 1.1781887081059418e+01 8.8968503138634176e+00 
387 0 1 9.7858585732200798e-01 -2.2544688537899134e+01 1.0000000000000000e+00 4.5804811079979872e+00 1.3264843395058875e+01 8.4375511502305134e+00 
79 0 1 1.0396071449045656e+00 -3.7243755132444321e+01 1.0000000000000000e+00 4.9574590598937256e+00 1.1714879540716526e+01 7.9916128234351715e+00 
110 0 1 1.0454706692990892e+00 -2.7860500566035768e+01 1.0000000000000000e+00 6.1336980569085071e+00 1.0213699002902841e+01 8.8228525967455589e+00 
516 0 1 1.0394014303055898e+00 -2.8871738868910491e+01 1.0000000000000000e+00 4.8597052422970153e+00 1.2198258905424463e+01 8.4779243056563551e+00 
130 0 1 9.9800645187721326e-01 -3.4696162926804952e+01 1.0000000000000000e+00 4.6093635955927788e+00 1.2188407873341854e+01 7.6977206381249248e+00 
459 0 1 1.0751545475098523e+00 -9.6999254284416345e+00 1.0000000000000000e+00 5.6703110957804741e+00 1.1161044136965559e+01 8.0621383846333892e+00 
508 0 1 1.0880176330413764e+00 -4.0848665635319456e+01 1.0000000000000000e+00 6.3743705278766321e+00 1.2712773882928332e+01 7.1752492843955702e+00 
369 0 1 1.0186722128617105e+00 -2.1201688589240206e+01 1.0000000000000000e+00 5.2005532220570156e+00 1.3983581475154519e+01 8.5580185231161785e+00 
155 0 1 1.0670456485290554e+00 -5.3776829544799263e+01 1.0000000000000000e+00 6.1809651740982163e+00 1.4556330794558972e+01 8.0497772618933556e+00 
30 0 1 1.0018002230816807e+00 -4.1520522246110239e+01 1.0000000000000000e+00 5.2391503599498943e+00 1.5242290145053548e+01 8.1266028613611265e+00 
76 0 1 1.0247880936278164e+00 -5.4666414255124302e+01 1.0000000000000000e+00 4.3651226022500644e+00 1.3951842382798006e+01 7.5809059998007857e+00 
38 0 1 1.0382853097675415e+00 -4.0715530714471193e+01 1.0000000000000000e+00 6.2696572555569148e+00 1.3859350139796511e+01 9.4285032948924545e+00 
457 0 1 1.0577985657230684e+00 -3.3203226226146953e+01 1.0000000000000000e+00 5.4288285158196050e+00 1.6124519171698410e+01 7.7605915298432695e+00 
231 0 1 1.0141637530725864e+00 -5.1850636990377907e+01 1.0000000000000000e+00 6.5212083476144898e+00 1.6112375959787588e+01 8.2583708866955554e+00 
487 0 1 1.0587571760315189e+00 -4.8592761060166552e+01 1.0000000000000000e+00 3.7412821739040005e+00 1.6665396602324314e+01 7.2618807820406239e+00 
561 0 1 9.7115663552091003e-01 -5.0612498003187056e+01 1.0000000000000000e+00 6.3167135811241470e+00 1.7961065270157359e+01 7.7623684113252960e+00 
449 0 1 1.0063277985114749e+00 -5.6378733939896655e+01 1.0000000000000000e+00 5.0942671884413286e+00 1.8657888133457568e+01 6.9076330111284490e+00 
528 0 1 1.0542291479133288e+00 -2.8081136958410553e+01 1.0000000000000000e+00 3.6875620097828961e+00 1.6904768059508918e+01 7.0378204168072260e+00 
309 0 1 1.0369111856283431e+00 -3.1789009641343458e+01 1.0000000000000000e+00 5.2234403254664779e+00 1.7461721659896320e+01 7.7167584730871459e+00 
488 0 1 1.0408278041180621e+00 -5.1975873701496091e+01 1.0000000000000000e+00 3.6665983959915822e+00 1.6822069906935987e+01 7.1564866159065597e+00 
13 0 1 9.9705282194801481e-01 -5.3588064621775494e+01 1.0000000000000000e+00 5.9226693659407541e+00 1.8522950593007469e+01 6.9588029346229128e+00 
428 0 1 1.0354869560751525e+00 -2.7910055965225823e+01 1.0000000000000000e+00 4.1063642203112387e+00 1.7319081618845502e+01 7.4309171678519430e+00 
497 0 1 1.0318994958624614e+00 -5.2852021771614154e+01 1.0000000000000000e+00 6.3699340813167833e+00 1.3221635687233654e+01 1.0766993587767697e+01 
303 0 1 1.0050589090201105e+00 -4.3303304408494355e+01 1.0000000000000000e+00 6.3110910638186999e+00 1.3646186859044844e+01 1.1828848363757222e+01 
356 0 1 1.0083705682811139e+00 -1.7268833001447092e+01 1.0000000000000000e+00 6.1958904836907553e+00 1.3749627928695253e+01 1.1237623601600919e+01 
139 0 1 9.9966988041610072e-01 -3.9849170147597626e+01 1.0000000000000000e+00 6.5528407836990263e+00 1.4530873930308871e+01 1.2099993167863270e+01 
331 0 1 1.0316780499164651e+00 -3.0072578200048870e+01 1.0000000000000000e+00 6.1703055405816114e+00 1.5614107723037622e+01 1.2109047869865604e+01 
315 0 1 1.0323246443384368e+00 -4.6826792651372223e+01 1.0000000000000000e+00 6.1667260741717929e+00 1.5674292394752500e+01 1.1786906232057285e+01 
403 0 1 1.0476603290505524e+00 -1.4740285949474844e+01 1.0000000000000000e+00 5.9663469651915095e+00 1.6557913183395115e+01 1.1785714193824042e+01 
119 0 1 1.0230560298167679e+00 -4.0626212277813110e+01 1.0000000000000000e+00 5.8231043341744346e+00 1.6232242406447778e+01 1.2163555047590158e+01 
337 0 1 1.0413876069185881e+00 -5.6863736944548123e+01 1.0000000000000000e+00 6.0455310439699215e+00 1.7667253358538211e+01 1.2850518192336287e+01 
239 0 1 1.0405745994724531e+00 -4.7568564249788629e+01 1.0000000000000000e+00 6.3887412746889209e+00 1.8388146550720808e+01 1.2429978415917665e+01 
164 0 1 1.0708178866059219e+00 -3.5179401264565904e+01 1.0000000000000000e+00 6.6397526583746425e+00 1.7212064239895877e+01 1.3167836563548173e+01 
122 0 1 1.0055260071398970e+00 -2.2462969241702151e+01 1.0000000000000000e+00 6.4328250522730270e+00 1.7102132623411539e+01 1.3329039727990134e+01 
506 0 1 9.7743432014976384e-01 -5.4638089221101509e+01 1.0000000000000000e+00 6.3269324919838947e+00 1.7483261231765653e+01 1.3399092093017806e+01 
453 0 1 1.0325667717278528e+00 -1.9626717874763042e+01 1.0000000000000000e+00 9.0571047690158064e+00 1.3282259754953254e+00 2.1623679917489693e+00 
71 0 1 1.0436193262407401e+00 -6.7205495371283263e+01 1.0000000000000000e+00 8.2327447006263235e+00 1.4891883228342704e+00 1.5391794600223008e+00 
372 0 1 1.0355053351986507e+00 -1.9323714522001268e+01 1.0000000000000000e+00 7.4977874055717360e+00 8.2320425025860691e-02 1.9560396474447572e+00 
123 0 1 1.0130100271411770e+00 -2.4122850946295408e+01 1.0000000000000000e+00 8.3927776826341010e+00 9.4663990053150249e-01 1.6829215720834920e+00 
627 0 1 1.0313771035457588e+00 -4.0642950166896341e+01 1.0000000000000000e+00 9.0225869475659586e+00 2.0884333874694994e+00 1.9877204152908452e+00 
167 0 1 1.0200732115598077e+00 -3.1919962909373595e+01 1.0000000000000000e+00 8.7724039001398619e+00 1.3478558765595654e+00 1.7953483353410320e+00 
418 0 1 1.0343727498132680e+00 -2.4682265089479706e+01 1.0000000000000000e+00 7.5205650934862183e+00 3.3128154060279251e+00 1.7624710013174634e+00 
538 0 1 1.0190538290016782e+00 -5.5451482421688539e+01 1.0000000000000000e+00 6.8224762684342553e+00 2.8597488558695705e+00 1.9419587035164767e+00 
332 0 1 1.0607750365704387e+00 -5.0691829699225408e+01 1.0000000000000000e+00 6.7374685513002186e+00 1.5753787075786312e+00 2.7042312853021997e+00 
15 0 1 1.0251136842518762e+00 -7.4742029014886128e+01 1.0000000000000000e+00 1.1557492981977591e+01 6.9925473965251617e-01 3.2345932769492323e+00 
269 0 1 1.0202890994732730e+00 -2.5656055719556999e+01 1.0000000000000000e+00 1.2681967682009546e+01 9.4334001781425403e-01 3.2611413707730499e+00 
587 0 1 1.0230366456498508e+00 -3.7185182287758060e+01 1.0000000000000000e+00 8.0392121105315226e+00 3.7057019408521370e+00 2.0389900194269428e+00 
416 0 1 1.0504579610575657e+00 -2.3204923786794971e+01 1.0000000000000000e+00 8.0526221628219954e+00 6.0888052710573142e+00 2.2141698439377637e+00 
147 0 1 1.0219899521532743e+00 -4.9487747270933205e+01 1.0000000000000000e+00 7.1797056192492041e+00 3.6532817896580490e+00 1.9024959227588198e+00 
623 0 1 1.0450905742405656e+00 -7.3341686179552426e+01 1.0000000000000000e+00 7.5311449834957127e+00 5.9617102686423538e+00 2.0119642357588288e+00 
346 0 1 1.0436779254612429e+00 -2.9784171843009240e+01 1.0000000000000000e+00 7.8389780317191216e+00 4.6338384176624388e+00 2.7141836731028062e+00 
3 0 1 1.0503072920330536e+00 -2.3160680027201316e+01 1.0000000000000000e+00 8.4719528536638222e+00 6.4330467036787056e+00 3.0157208250470506e+00 
434 0 1 9.7826306384425199e-01 -2.5591579324237092e+01 1.0000000000000000e+00 7.5319526930872440e+00 7.8017634978126642e+00 1.0894702267355796e+00 
312 0 1 9.8348351583251803e-01 -1.3985342344168693e+01 1.0000000000000000e+00 7.7770612118997491e+00 7.9481765350600266e+00 1.0510038922040490e+00 
637 0 1 1.0249613582505241e+00 -8.2312894260184279e+01 1.0000000000000000e+00 8.8664375041659671e+00 8.7424005335886488e+00 1.4501948639191593e+00 
456 0 1 1.0595251671404080e+00 -4.1675829283619400e+01 1.0000000000000000e+00 7.0640962507853891e+00 7.6969064359365529e+00 1.5950270212601758e+00 
59 0 1 1.0271148855428047e+00 -2.6129179242014356e+01 1.0000000000000000e+00 9.5362888019701018e+00 7.6713642916880431e+00 2.0888745161037776e+00 
197 0 1 1.0582366822356126e+00 -3.4981942892239040e+01 1.0000000000000000e+00 8.4423484374632789e+00 7.9491371662176080e+00 1.2642679794779099e+00 
566 0 1 1.0408604897817406e+00 -4.5626856206188229e+01 1.0000000000000000e+00 7.5741755176090617e+00 9.8168401756307500e+00 1.7757553031538797e+00 
55 0 1 9.9941320225956665e-01 -4.7127214302160311e+01 1.0000000000000000e+00 6.9119202629934122e+00 7.0456722900911251e+00 1.3958405026554506e+00 
77 0 1 1.0049030031993691e+00 -4.2233764857851185e+01 1.0000000000000000e+00 9.8095622275297440e+00 9.2565488720080289e+00 2.3957231198581019e+00 
402 0 1 1.0264230664928482e+00 -3.6282850138917254e+01 1.0000000000000000e+00 8.6467577094251613e+00 6.8415965106545142e+00 3.2655343147031948e+00 
452 0 1 1.0702368161443736e+00 -1.7944304086818228e+01 1.0000000000000000e+00 1.2423551973939237e+01 9.5137608066931847e+00 3.0417270294323231e+00 
521 0 1 1.0355116689072126e+00 -1.4393288928196361e+01 1.0000000000000000e+00 1.3109762756226436e+01 8.8503114761806181e+00 2.9704492312620077e+00 
598 0 1 1.0208206692935731e+00 -2.2945208380677496e+01 1.0000000000000000e+00 1.0380929770291793e+01 8.5091428036545196e+00 2.6967858673768657e+00 
380 0 1 9.7417008616625578e-01 -3.8362645649350107e+01 1.0000000000000000e+00 1.0130792926344387e+01 7.8931776456370129e+00 2.4490218542978175e+00 
515 0 1 1.0198769025384156e+00 -2.8369257527903692e+01 1.0000000000000000e+00 1.2449939071497182e+01 8.7626686203348143e+00 2.8913061714006938e+00 
100 0 1 1.0019057983921336e+00 -4.7703694400676902e+01 1.0000000000000000e+00 1.1885058532450586e+01 8.7520437040965202e+00 2.8600717166235921e+00 
583 0 1 1.0156191813690203e+00 -2.8405229313285250e+01 1.0000000000000000e+00 8.5952849346584088e+00 1.6074575746732604e+00 4.0280162450970858e+00 
265 0 1 1.0480903389373977e+00 -2.4289773417119200e+01 1.0000000000000000e+00 9.4190643382043913e+00 2.2239812399099916e+00 3.4860241885032544e+00 
54 0 1 1.0197281176709427e+00 -3.9016250410408162e+01 1.0000000000000000e+00 9.3461438684143125e+00 3.0829386835666278e-01 5.4062883422022905e+00 
211 0 1 1.0198829906240221e+00 -3.6299730625372291e+01 1.0000000000000000e+00 7.7021100023318319e+00 2.4144353903350377e+00 6.2661551412539263e+00 
78 0 1 1.0505533195362546e+00 -5.4381846855339276e+01 1.0000000000000000e+00 8.7849414000694672e+00 1.0827502600580698e+00 6.4593755402456097e+00 
256 0 1 1.0396503910372092e+00 -3.9432879386274578e+01 1.0000000000000000e+00 9.8605176371973311e+00 2.3669461256440081e+00 6.1708748719178130e+00 
355 0 1 1.0149699036552726e+00 -2.4168705431621770e+01 1.0000000000000000e+00 7.7316060178552126e+00 9.1832805030927023e-01 4.3155718452550635e+00 
245 0 1 1.0421874770642185e+00 -5.8655921556970036e+01 1.0000000000000000e+00 7.7801578291689717e+00 4.9260289720584211e-01 5.4314745405429337e+00 
186 0 1 1.0162260301683075e+00 -1.7523621756485042e+01 1.0000000000000000e+00 1.3074428848443823e+01 4.2246238088224031e-01 3.3576304123846317e+00 
363 0 1 1.0253120577070953e+00 -2.2898231703880338e+01 1.0000000000000000e+00 1.1683186609670036e+01 1.3544269414597976e+00 3.5237862207413331e+00 