LAMMPS data file via write_data, version 30 Jul 2016, timestep = 50000000

644 atoms
2 atom types

0.0000000000000000e+00 2.0000000000000000e+01 xlo xhi
0.0000000000000000e+00 2.0000000000000000e+01 ylo yhi
0.0000000000000000e+00 2.0000000000000000e+01 zlo zhi

Masses

1 4.31
2 3.896

Atoms # meso-molecular

411 0 1 1.0548986345661544e+00 -2.1911134194671515e+01 1.0000000000000000e+00 5.2040837508276576e+00 3.9069050248388704e-01 2.8234177457247922e+00 
418 0 1 9.9420947965352369e-01 -2.4126545315986295e+01 1.0000000000000000e+00 4.8093429055878758e+00 2.7203973660824041e+00 2.1673408102615075e+00 
470 0 1 1.0459744882322923e+00 -3.7493136686501998e+01 1.0000000000000000e+00 5.4415754050266303e+00 1.8276689087098488e+00 2.8550176480750783e-01 
67 0 1 1.0398451333768117e+00 -4.3304775752642414e+01 1.0000000000000000e+00 6.4546851363981101e+00 7.8583944420894991e-01 1.2571842607896533e+00 
168 0 1 1.0423648405585573e+00 -1.7412064503071750e+01 1.0000000000000000e+00 5.3103447782586963e+00 7.5381000472168369e-01 1.0708094503774639e+00 
73 0 1 1.0109572239460305e+00 -1.1040367886157069e+01 1.0000000000000000e+00 4.5760273721397269e+00 2.0177176886669863e+00 7.7423954089841673e-01 
627 0 1 1.0011554091766433e+00 -4.0396709045776149e+01 1.0000000000000000e+00 5.0716327960779104e+00 3.0173396121455793e+00 1.0856985667842864e+00 
147 0 1 1.0295510024190275e+00 -4.9793930263984649e+01 1.0000000000000000e+00 5.2728274363551284e+00 2.6842683236325375e+00 5.3614992498055203e-01 
421 0 1 1.0328379097100271e+00 -4.7004106521416425e+01 1.0000000000000000e+00 4.8913510645918121e+00 7.5248716583843367e-01 1.7093377219023953e+00 
462 0 1 1.0361365995896625e+00 -4.0160616663626406e+01 1.0000000000000000e+00 5.1403375675497509e+00 1.6145656981347170e+00 3.5952077985702213e-01 
475 0 1 1.0071842104478914e+00 -4.5340399414057558e+01 1.0000000000000000e+00 5.9244977783832056e+00 2.5031725153543265e+00 4.6575369728127808e-01 
575 0 1 9.8957907992948402e-01 -7.5875961244743294e+01 1.0000000000000000e+00 5.3007307581496184e+00 5.6653595933409809e-02 2.3364540683825363e+00 
587 0 1 1.0271526883949216e+00 -3.6812092675300946e+01 1.0000000000000000e+00 6.2769154020597764e+00 3.2371485127402946e+00 1.5107519386547537e+00 
492 0 1 1.0565032194009956e+00 -3.0218896658609896e+01 1.0000000000000000e+00 6.3544694345193911e+00 3.6647242910887026e+00 3.3193664651629349e+00 
409 0 1 1.0448109962946666e+00 -2.3696157491281735e+01 1.0000000000000000e+00 5.8719722371750587e+00 4.2916832845721835e+00 3.1220183297509814e+00 
111 0 1 1.0244658311234536e+00 -7.0370883410131668e+01 1.0000000000000000e+00 3.1759558010607298e+00 2.4483146679727903e+00 5.2059288385658808e+00 
507 0 1 1.0399827593869080e+00 -2.6582479545831507e+01 1.0000000000000000e+00 3.4430134100823468e+00 1.8946394523973531e+00 5.3702055571751703e+00 
132 0 1 1.0240330275736560e+00 -3.2562729023949608e+01 1.0000000000000000e+00 3.4954024068860483e+00 2.4365621672740727e+00 4.5493559764062423e+00 
71 0 1 1.0257654774127247e+00 -6.6957198670627577e+01 1.0000000000000000e+00 4.5907363410860880e+00 2.2899767459550930e+00 3.9188610998662483e+00 
59 0 1 1.0542809671099445e+00 -2.6800214829645356e+01 1.0000000000000000e+00 5.8136587328399987e+00 2.4234845386804144e-01 3.7296713118475608e+00 
20 0 1 1.0371010492081396e+00 -4.2408688917872880e+01 1.0000000000000000e+00 4.7425045663494698e+00 1.2068788934169727e+00 6.4239159201951166e+00 
603 0 1 1.0259648721721102e+00 -5.9661086951458870e+01 1.0000000000000000e+00 3.4337230428068897e+00 1.8347969562861510e+00 5.4042723426795227e+00 
644 0 1 1.0228547822782308e+00 -5.4134728578578361e+01 1.0000000000000000e+00 5.5487658351912996e+00 2.7230184646561550e+00 5.7404057320215651e+00 
583 0 1 9.8921569324762815e-01 -2.8318168121642056e+01 1.0000000000000000e+00 4.5466710757762669e+00 1.1008532846272818e+00 3.7902265798805579e+00 
330 0 1 1.0514789471809551e+00 -5.2076818393249624e+01 1.0000000000000000e+00 5.1312531997981790e+00 1.2865760395935617e+00 6.0765829733272181e+00 
373 0 1 9.8190825439175655e-01 -2.5712791304169652e+01 1.0000000000000000e+00 6.0219160050819047e+00 4.0752557966596159e-01 6.6099946243456689e+00 
254 0 1 1.0325275606240645e+00 -3.1324217527373495e+01 1.0000000000000000e+00 5.3378050063068025e+00 9.8560452172793050e-02 3.9802189430264394e+00 
62 0 1 1.0012541260358794e+00 -4.5102246325896623e+01 1.0000000000000000e+00 2.9752398637429094e+00 3.8543296251974088e+00 5.5472674967686650e+00 
535 0 1 1.0264605815288299e+00 -3.2197150647080953e+01 1.0000000000000000e+00 3.2749679841770378e+00 5.8103360437827316e+00 6.3964958012126942e+00 
379 0 1 9.8587789467065778e-01 -5.6492025074277720e+01 1.0000000000000000e+00 3.2184473509101896e+00 5.0940703812447534e+00 5.2220264605747539e+00 
457 0 1 1.0977092920929710e+00 -3.2691143274093761e+01 1.0000000000000000e+00 3.3694299660276101e+00 4.0110056055037262e+00 5.4485381478058761e+00 
153 0 1 1.0067186638346803e+00 -4.7024854095260359e+01 1.0000000000000000e+00 5.6352446216058238e+00 5.5018576435344713e+00 3.8588326243270958e+00 
326 0 1 1.0691777185903102e+00 -1.8349437315786425e+01 1.0000000000000000e+00 5.7623472018519442e+00 5.3718094390972073e+00 4.0612161247203407e+00 
402 0 1 9.9453731592844341e-01 -3.6007309402469723e+01 1.0000000000000000e+00 3.9808550980531243e+00 6.3918803536585802e+00 5.8610252996113710e+00 
53 0 1 1.0076345872544750e+00 -3.8408663068673903e+01 1.0000000000000000e+00 4.4684201263769028e+00 5.7906546548456159e+00 4.4363863392340299e+00 
70 0 1 1.0410900647104486e+00 -7.6977289834386482e+01 1.0000000000000000e+00 5.6082317616303872e+00 3.4575146151789449e+00 3.6197383814635300e+00 
585 0 1 1.0390791299106770e+00 -3.9517491933888039e+01 1.0000000000000000e+00 4.5941442324043891e+00 5.3564813712810091e+00 4.2310464827951595e+00 
9 0 1 1.0347662471327692e+00 -2.4503026878026400e+01 1.0000000000000000e+00 6.5381443825084249e+00 6.1040586154794276e+00 5.6505971789021450e+00 
472 0 1 1.0619711421334481e+00 -2.1473325057083780e+01 1.0000000000000000e+00 3.8990669021718007e+00 3.7079943037855099e+00 4.4659901875842491e+00 
265 0 1 1.0151447770072493e+00 -2.4577921206784147e+01 1.0000000000000000e+00 5.7188726897748063e+00 3.4566742300750120e+00 5.8501735624725910e+00 
32 0 1 1.0170805166242924e+00 -4.0617424505836610e+01 1.0000000000000000e+00 3.6059684062180990e+00 6.0261771872512631e+00 5.8022462427383763e+00 
561 0 1 1.0420369648392482e+00 -5.1081376041459116e+01 1.0000000000000000e+00 6.0414910790248992e+00 4.4080408923555181e+00 6.1135088315966302e+00 
149 0 1 1.0759317329257181e+00 -2.3850651654312824e+01 1.0000000000000000e+00 6.3935087507156467e+00 5.3547709977971341e+00 4.7832895954326524e+00 
309 0 1 1.0524195727859575e+00 -3.0124489866019811e+01 1.0000000000000000e+00 5.6376255781691649e+00 6.7370843756597534e+00 5.1597192916737944e+00 
483 0 1 1.0116320385478743e+00 -4.2864157607756539e+01 1.0000000000000000e+00 4.7305227204873246e+00 9.9680935565376085e+00 5.0092221251538387e+00 
187 0 1 1.0011005416562733e+00 -1.5255366999390040e+01 1.0000000000000000e+00 4.9551576222840250e+00 8.2705189180687402e+00 5.2319520279725973e+00 
151 0 1 1.0405561853989653e+00 -3.7443107969362480e+01 1.0000000000000000e+00 5.4701463082406283e+00 9.8191451359588378e+00 6.5310028925146284e+00 
637 0 1 1.0263237707644972e+00 -8.2018390771702727e+01 1.0000000000000000e+00 5.0025459591675636e+00 8.5053433453304912e+00 4.9125167771847122e+00 
610 0 1 1.0043398747317389e+00 -7.5564334149769351e+01 1.0000000000000000e+00 4.7471693520522011e+00 9.0428301279763694e+00 5.0479662870942210e+00 
312 0 1 1.0226374728914953e+00 -1.3715755434790744e+01 1.0000000000000000e+00 6.3402112147884662e+00 8.6809069620512762e+00 3.9760033134877517e+00 
552 0 1 1.0117348775577981e+00 -4.9479340402649768e+01 1.0000000000000000e+00 5.1243246063362600e+00 9.3649395881594639e+00 4.3989495986352365e+00 
290 0 1 9.6064850851694306e-01 -1.4553509883581199e+01 1.0000000000000000e+00 6.1373470474212191e+00 8.3661111362712575e+00 6.5569999924055056e+00 
613 0 1 9.5162241514685941e-01 -3.4149398925240639e+01 1.0000000000000000e+00 3.4205316906144247e+00 2.3561482177321187e+00 6.8088477615671570e+00 
584 0 1 1.0074745237879532e+00 -4.5227376734883677e+01 1.0000000000000000e+00 3.4450751154666932e+00 3.0175746941296189e+00 8.6836355889548908e+00 
399 0 1 1.0079493521789116e+00 -3.1084158559056391e+01 1.0000000000000000e+00 4.0356484543017945e+00 1.0030775437749971e-01 8.4181026164319182e+00 
429 0 1 1.0296584235799431e+00 -4.2445618775712525e+01 1.0000000000000000e+00 4.0309658950543694e+00 1.2695283678290412e+00 8.2004076110018360e+00 
350 0 1 1.0354634662624236e+00 -6.3277418673896143e+01 1.0000000000000000e+00 4.7895168254855127e+00 1.7699473545169409e+00 9.4736809925219365e+00 
135 0 1 1.0505893170857312e+00 -4.0887211413897923e+01 1.0000000000000000e+00 5.8537705281993455e+00 2.3580010202804109e+00 8.2170889639996645e+00 
83 0 1 9.9399495422206274e-01 -4.3108680945453109e+01 1.0000000000000000e+00 3.8216861987944171e+00 2.3363571434424899e+00 9.1275006109551828e+00 
13 0 1 1.0315317287992432e+00 -5.2881004462308049e+01 1.0000000000000000e+00 4.9352306629037610e+00 1.9917136432768472e+00 9.5617348541131264e+00 
143 0 1 9.6808046532169678e-01 -3.5529712782953489e+01 1.0000000000000000e+00 4.0116942800262958e+00 1.7217462206387046e-01 7.8498829097198248e+00 
389 0 1 1.0472059787803214e+00 -1.8083512318059476e+01 1.0000000000000000e+00 5.7140207282732050e+00 3.1644628895796472e+00 9.4536678655474411e+00 
345 0 1 1.0164937207803113e+00 -2.8557478453853225e+01 1.0000000000000000e+00 6.4027038386789554e+00 2.2314658300381440e+00 6.8916397393783235e+00 
620 0 1 1.0422057543348291e+00 -4.5255445643387560e+01 1.0000000000000000e+00 4.6141943570615824e+00 8.5842633846708368e-03 9.5675125947560247e+00 
601 0 1 1.0175150147610794e+00 -4.5121158679333405e+01 1.0000000000000000e+00 2.7980133082127212e+00 5.1109527523999123e+00 6.9169749451368023e+00 
216 0 1 1.0235507771174510e+00 -3.7405546001455093e+01 1.0000000000000000e+00 3.1240997443939666e+00 3.6108681626348846e+00 7.9538438003696275e+00 
467 0 1 9.8436492821161625e-01 -3.3030298192832106e+01 1.0000000000000000e+00 2.7573638814879851e+00 4.9753755262981958e+00 7.6060581330071431e+00 
87 0 1 1.0020836948652412e+00 -3.2166678605547212e+01 1.0000000000000000e+00 2.9279768375074640e+00 4.4964689071752906e+00 8.1516192542681676e+00 
608 0 1 1.0579093924889920e+00 -5.0225990709914250e+01 1.0000000000000000e+00 5.5076670055785941e+00 5.9421270310805774e+00 9.7574189385190451e+00 
227 0 1 1.0286425279710820e+00 -1.6890207126797311e+01 1.0000000000000000e+00 3.6912020346956589e+00 3.7962867397589619e+00 8.9184653876721782e+00 
432 0 1 1.0273320440725338e+00 -1.8384207597094203e+01 1.0000000000000000e+00 4.7138203019388811e+00 5.9548187275253071e+00 7.7411277046960754e+00 
616 0 1 1.0470417091947151e+00 -4.0828691532871204e+01 1.0000000000000000e+00 4.1430275121678770e+00 3.8741905515206763e+00 8.9663513040800495e+00 
369 0 1 9.9279987691160443e-01 -1.9238200292411243e+01 1.0000000000000000e+00 4.4040113885933110e+00 6.2152494126304232e+00 7.4360708254903312e+00 
85 0 1 9.7943655700190901e-01 -6.6432080680101876e+01 1.0000000000000000e+00 3.4412284180802257e+00 5.1070429708099656e+00 8.4710885400158080e+00 
376 0 1 1.0285983542413983e+00 -2.4073654411628002e+01 1.0000000000000000e+00 5.6463797611354858e+00 5.6740562738294482e+00 8.0596976946426437e+00 
424 0 1 1.0482278583760607e+00 -1.9174170079962074e+01 1.0000000000000000e+00 5.8217562246233978e+00 6.1104794212348370e+00 8.1140788510289727e+00 
384 0 1 1.0484665231866825e+00 -3.8454244561769897e+01 1.0000000000000000e+00 6.0643343772500984e+00 6.6838887309031749e+00 8.0077437935226250e+00 
75 0 1 1.0278429314079218e+00 -3.2763534132317886e+01 1.0000000000000000e+00 5.7634770843851575e+00 7.4948641475954778e+00 9.6515952846710302e+00 
236 0 1 9.9005839296709086e-01 -1.6160947673082435e+00 1.0000000000000000e+00 5.8962506524167564e+00 2.8737118934391237e+00 1.0114884965350582e+01 
95 0 1 9.8650217510076210e-01 -2.6885306651944802e+01 1.0000000000000000e+00 6.2757300775125611e+00 4.0561109387787875e+00 1.1386599594693537e+01 
220 0 1 1.0021111467047197e+00 -2.0181371430050664e+01 1.0000000000000000e+00 5.8803623852423144e+00 5.2817211195907303e+00 1.1635335752327530e+01 
473 0 1 9.7605358060562597e-01 -3.0136402351379289e+01 1.0000000000000000e+00 6.3101071964180955e+00 3.6930157554644909e+00 1.1353499703302960e+01 
596 0 1 9.9637885675433191e-01 -7.7857074727431865e+01 1.0000000000000000e+00 5.2785344696795677e+00 6.1092729829348471e+00 1.1822969168148534e+01 
414 0 1 1.0246645208691414e+00 -5.0522014681457463e+01 1.0000000000000000e+00 5.4459798076763857e+00 5.4054074276717152e+00 1.0664104524007159e+01 
482 0 1 1.0184360626848992e+00 -1.8304960418933920e+01 1.0000000000000000e+00 4.9690872197683982e+00 6.5507929025390572e+00 1.1566067079175419e+01 
198 0 1 1.0403409846112175e+00 -4.4207573821897434e+01 1.0000000000000000e+00 4.9136421169551214e+00 6.5883833110905528e+00 1.1305008882148206e+01 
632 0 1 9.8290233706171215e-01 -3.7272973484448151e+01 1.0000000000000000e+00 6.4219908460778843e+00 8.9526350009644382e+00 1.0571836816949805e+01 
403 0 1 1.0288604775056338e+00 -1.5111323579492728e+01 1.0000000000000000e+00 6.3167360491563462e+00 7.2464274764153300e+00 1.1995055231545962e+01 
460 0 1 9.8915986440932002e-01 -2.4235926009405222e+01 1.0000000000000000e+00 5.1097984209279419e+00 7.4710639964208916e+00 1.0366551804249925e+01 
48 0 1 1.0199897588535347e+00 -4.7993947568429554e+01 1.0000000000000000e+00 5.1269011313681787e+00 7.4543895219517573e+00 1.1459265469198606e+01 
391 0 1 1.0184949906799798e+00 -3.1600313328837530e+01 1.0000000000000000e+00 6.3758813633396869e+00 8.5621336667472452e+00 1.1173373194746979e+01 
422 0 1 1.0310146657087687e+00 -2.9297466299734225e+01 1.0000000000000000e+00 6.3122370541304607e+00 8.3859978778884887e+00 1.1311219796325316e+01 
126 0 1 1.0058163798507798e+00 -7.0206040510591222e+01 1.0000000000000000e+00 5.3064582762613437e+00 1.1620244279201964e+01 4.8995474350080510e+00 
190 0 1 1.0288350554484180e+00 -6.8495261254068623e+01 1.0000000000000000e+00 5.1045549593503363e+00 1.1761675193031831e+01 5.2638708254304341e+00 
505 0 1 1.0297057477448632e+00 -3.3767328181076273e+01 1.0000000000000000e+00 5.1314434279504324e+00 1.0612748557578939e+01 4.8335211001535079e+00 
581 0 1 1.0448921413108749e+00 -6.8318083749679559e+01 1.0000000000000000e+00 5.0672316528407766e+00 1.1496500268326376e+01 6.3256434321512387e+00 
527 0 1 1.0428963790255092e+00 -4.3767788760184153e+01 1.0000000000000000e+00 6.2590996246280737e+00 1.2870337712583906e+01 4.1097719140251696e+00 
66 0 1 1.0083091034543514e+00 -4.4789357025866671e+01 1.0000000000000000e+00 5.2511687863359402e+00 1.3327461867842421e+01 4.3632689857683475e+00 
385 0 1 1.0298591528675771e+00 -2.6606932450397423e+01 1.0000000000000000e+00 5.2115273097533148e+00 1.4440350352249935e+01 5.2203580167653740e+00 
578 0 1 1.0151799094203573e+00 -4.6329403908931944e+01 1.0000000000000000e+00 5.1569307530399673e+00 1.4730219677340246e+01 4.4007123441682587e+00 
366 0 1 1.0286298609685529e+00 -2.3168849771382966e+01 1.0000000000000000e+00 5.8155892781133458e+00 1.4423825179047762e+01 3.9369937910983746e+00 
382 0 1 1.0279398950319423e+00 -2.5061783996664634e+01 1.0000000000000000e+00 5.0814531757880914e+00 1.4179217010468987e+01 4.9108974793069011e+00 
170 0 1 1.0295016552999401e+00 -3.1585094012397324e+01 1.0000000000000000e+00 4.2295238858527959e+00 1.6514995463393522e+01 4.5885500483209629e+00 
6 0 1 9.9712749528927669e-01 -4.3538438807526617e+01 1.0000000000000000e+00 5.0822774721244484e+00 1.3606626965905233e+01 5.3164671582652643e+00 
417 0 1 1.0353203623024900e+00 -2.7629922065305315e+01 1.0000000000000000e+00 5.9122896417754491e+00 1.5255836648951435e+01 5.8436668768185100e+00 
229 0 1 1.0621918458093593e+00 -2.9405060454003213e+01 1.0000000000000000e+00 6.4951212024892682e+00 1.6594970988524601e+01 4.1347891287920504e+00 
211 0 1 1.0442998963973598e+00 -3.6812461264134988e+01 1.0000000000000000e+00 5.2799956783114519e+00 1.7192339251371241e+01 3.9477374346931002e+00 
251 0 1 1.0153840434464732e+00 -2.2993161955455495e+01 1.0000000000000000e+00 4.3041075085010254e+00 1.8084338895171207e+01 3.9374839413652118e+00 
319 0 1 1.0667124096447427e+00 -3.6872088505390231e+01 1.0000000000000000e+00 3.5827596288402113e+00 1.7925431225673105e+01 5.2631699770427449e+00 
367 0 1 1.0313168290828483e+00 -3.7550962641439469e+01 1.0000000000000000e+00 4.2856361832612304e+00 1.7583074443977228e+01 3.9631865365931240e+00 
372 0 1 1.0316121914263012e+00 -1.9516428396920880e+01 1.0000000000000000e+00 3.8116481073014570e+00 1.6950890905636260e+01 5.2564091889567361e+00 
177 0 1 1.0265659747569855e+00 -3.3254844079247597e+01 1.0000000000000000e+00 3.8778715232399756e+00 1.7002136124805006e+01 4.4328129477743019e+00 
221 0 1 1.0641270984024194e+00 -4.3769562092004620e+01 1.0000000000000000e+00 4.0276232898821007e+00 1.8671308518507960e+01 5.5776884630288031e+00 
353 0 1 1.0144308705450822e+00 -2.7440996824605897e+01 1.0000000000000000e+00 4.0685364575976877e+00 1.8482298565139416e+01 6.3140922979410723e+00 
82 0 1 1.0280320750327099e+00 -3.5499106193747032e+01 1.0000000000000000e+00 3.4838606881905032e+00 1.7968020470202617e+01 5.2699467523645751e+00 
412 0 1 1.0305251850142210e+00 -3.2983431391058623e+01 1.0000000000000000e+00 6.0997259524521281e+00 1.8458646826223497e+01 5.8605379463719620e+00 
295 0 1 9.9103780687443566e-01 -1.8899447146309893e+01 1.0000000000000000e+00 4.5387866634485734e+00 1.9990196444866992e+01 4.6736355759892962e+00 
180 0 1 1.0195621938967896e+00 -1.0298200152914433e+01 1.0000000000000000e+00 6.6547515570399414e+00 1.7383762773464742e+01 4.0373844037852180e+00 
79 0 1 1.0183589767257153e+00 -3.7835694808769922e+01 1.0000000000000000e+00 5.8210075236964922e+00 1.0978690966819752e+01 7.4515742622266643e+00 
99 0 1 9.9560645514716528e-01 -4.7314888539241551e+01 1.0000000000000000e+00 5.7585958716906944e+00 1.1862024560754628e+01 7.2046136285108044e+00 
621 0 1 1.0079200970270858e+00 -4.1278550684219510e+01 1.0000000000000000e+00 5.6608700917441395e+00 1.0926722910654687e+01 7.3535887626611487e+00 
383 0 1 9.9264266742709317e-01 -2.1780517386697390e+01 1.0000000000000000e+00 5.3871514659687731e+00 1.1969513634586367e+01 6.7021629745756588e+00 
551 0 1 1.0272482106701672e+00 -3.8781879509550606e+01 1.0000000000000000e+00 6.5274781145682459e+00 1.3284904542652248e+01 9.4846287409835544e+00 
93 0 1 1.0461648522631430e+00 -5.6022891621189686e+01 1.0000000000000000e+00 6.5540761913800027e+00 1.0334272957646865e+01 7.5926505557969630e+00 
469 0 1 1.0503126178322055e+00 -3.3152864690670775e+01 1.0000000000000000e+00 5.8396237399495892e+00 1.6577446126496891e+01 7.4389441518900847e+00 
245 0 1 1.0514362939352955e+00 -5.7385689416216429e+01 1.0000000000000000e+00 5.5823703753805400e+00 1.5507972911599992e+01 9.1700741596052016e+00 
267 0 1 1.0779061277766255e+00 -2.9497031263190625e+01 1.0000000000000000e+00 4.6209499424397178e+00 1.6665889476451738e+01 9.1047585855575353e+00 
351 0 1 1.0276749822742772e+00 -2.6130004456422917e+01 1.0000000000000000e+00 5.3630920239598021e+00 1.5560977515067229e+01 9.0648281777671738e+00 
571 0 1 1.0360003076809989e+00 -5.9198712649246282e+01 1.0000000000000000e+00 6.3630704075448250e+00 1.5701854490593314e+01 7.1817601057639422e+00 
533 0 1 9.8373935161467696e-01 -3.4363615696613913e+01 1.0000000000000000e+00 4.3391525698082996e+00 1.6602961633878010e+01 9.1171917067980903e+00 
285 0 1 1.0030347979987813e+00 -1.4461436326360966e+01 1.0000000000000000e+00 5.2479346167415724e+00 1.6357092651424207e+01 7.3658722721091552e+00 
340 0 1 1.0112305604029093e+00 -3.5037078939297267e+01 1.0000000000000000e+00 5.3124715265349520e+00 1.6518420720728852e+01 7.2561060039184389e+00 
175 0 1 1.0484650245622928e+00 -5.9169430490481837e+01 1.0000000000000000e+00 4.7055873991556032e+00 1.8326075486262525e+01 7.6776581394456089e+00 
425 0 1 1.0630833462074933e+00 -4.2161535022343173e+01 1.0000000000000000e+00 4.0942438376723880e+00 1.9101507084476914e+01 8.7834312731012076e+00 
252 0 1 1.0579994804373527e+00 -2.7918412062108207e+01 1.0000000000000000e+00 4.1523617475732841e+00 1.9535454360899756e+01 9.1261745545246651e+00 
130 0 1 1.0320789745136709e+00 -3.4490707065549799e+01 1.0000000000000000e+00 4.6295546233794891e+00 1.8461179118850616e+01 7.1118833266780053e+00 
386 0 1 1.0408677809568290e+00 -3.1374909599281072e+01 1.0000000000000000e+00 4.2949422193730236e+00 1.7596240987755003e+01 9.9746236134248285e+00 
387 0 1 1.0239936615726555e+00 -2.2294804600937869e+01 1.0000000000000000e+00 4.2035635061235865e+00 1.7282824737448752e+01 9.6169352822277343e+00 
356 0 1 9.9582357667560550e-01 -1.7971414660405564e+01 1.0000000000000000e+00 6.3501207948375828e+00 1.3086573123701763e+01 1.0903564003690946e+01 
481 0 1 1.0302131861092108e+00 -2.4946281470110890e+01 1.0000000000000000e+00 6.5980837953015197e+00 1.3241290857847135e+01 1.1319481429223019e+01 
88 0 1 1.0333811079205548e+00 -6.5204931656350524e+01 1.0000000000000000e+00 6.0548803641931537e+00 1.5636838317088211e+01 1.0379562631987961e+01 
271 0 1 1.0500342159756570e+00 1.1424135108066182e+00 1.0000000000000000e+00 6.3982407078197685e+00 1.3988813803798472e+01 1.1293816618997402e+01 
549 0 1 1.0280746727521313e+00 -1.0303346050717131e+01 1.0000000000000000e+00 6.1582566083601273e+00 1.3621696041892895e+01 1.0534501734940170e+01 
395 0 1 1.0084310545373314e+00 -2.8134092270707622e+01 1.0000000000000000e+00 6.3440275999940168e+00 1.6793283657109704e+01 1.1251537972132269e+01 
1 0 1 1.0237741482254774e+00 -6.2705697953260938e+01 1.0000000000000000e+00 6.0130633514876894e+00 1.9561104228512608e+01 1.0221068366216208e+01 
235 0 1 1.0395839159701568e+00 -1.8182856628869374e+01 1.0000000000000000e+00 6.4450993823691549e+00 1.9459729588013946e+01 1.0210706297046947e+01 
487 0 1 1.0334026916652865e+00 -4.7894654817216789e+01 1.0000000000000000e+00 4.6802258929395890e+00 1.8093326613848031e+01 1.0478970538691792e+01 
497 0 1 1.0314431982867738e+00 -5.3829939778455412e+01 1.0000000000000000e+00 5.6587732203525327e+00 1.8243146389196902e+01 1.0798520076769087e+01 
218 0 1 9.8772660707770354e-01 -5.2193301638664650e+01 1.0000000000000000e+00 4.3996848545737670e+00 1.8416184482585958e+01 1.0397031762647581e+01 
433 0 1 9.9598342437986809e-01 -5.9133827323635771e+01 1.0000000000000000e+00 6.4955994401527173e+00 1.7559232090996712e+01 1.1413918451241225e+01 
495 0 1 1.0479844964656475e+00 -2.2698437934084154e+01 1.0000000000000000e+00 6.8664010714163588e+00 2.5401884349457742e+00 2.2402501005499036e+00 
159 0 1 9.9317288669197823e-01 -1.8732505184262443e+01 1.0000000000000000e+00 8.7930719833128244e+00 1.0269228093677580e+00 1.9840756205625523e+00 
550 0 1 1.0316277827854088e+00 -2.8675873003807869e+01 1.0000000000000000e+00 7.6920365845228575e+00 4.3515118259433355e-01 2.0119323639098865e+00 
186 0 1 1.0337551886025607e+00 -1.6841080854293892e+01 1.0000000000000000e+00 7.7597887365193765e+00 8.4889657617510350e-01 2.0356987120838799e+00 
536 0 1 1.0030185792999442e+00 -2.0168042552988812e+01 1.0000000000000000e+00 8.3244131933444230e+00 2.9201971658348533e+00 2.7341223046962537e+00 
534 0 1 1.0056552341993552e+00 -3.2294937105080486e+01 1.0000000000000000e+00 9.8552807655302654e+00 2.6632484843868500e+00 2.7293867866326438e+00 
419 0 1 1.0374874456933532e+00 -2.6173808063558141e+01 1.0000000000000000e+00 1.0287811162665108e+01 4.2496158740043372e-01 1.5863643343465128e+00 
108 0 1 1.0410978271920464e+00 -4.0970577162639607e+01 1.0000000000000000e+00 1.1763920422285940e+01 6.9395075465871270e-01 1.5208808504863882e+00 
333 0 1 1.0351213856993429e+00 -4.9648754660384540e+01 1.0000000000000000e+00 1.1957253159690378e+01 2.6384297627133962e-01 1.4066266998963932e+00 
589 0 1 1.0506853594131895e+00 -4.7208367739179806e+01 1.0000000000000000e+00 1.1861226572818319e+01 1.3365265245371167e+00 2.8155978319260728e+00 
477 0 1 1.0530331087056608e+00 -3.9744759687476645e+01 1.0000000000000000e+00 1.0998964279270044e+01 5.1460530643899638e-01 1.3771577635637056e+00 
413 0 1 1.0119907456087200e+00 -3.3106640777410689e+01 1.0000000000000000e+00 1.0421898808479483e+01 1.2775044896982439e+00 1.7441579244067742e+00 
18 0 1 1.0351242722972609e+00 -3.7776342449175530e+01 1.0000000000000000e+00 1.1405724015312618e+01 6.3245031575392119e-01 1.3501113151164172e+00 
232 0 1 1.0286802816363141e+00 -4.2417592627344185e+01 1.0000000000000000e+00 7.1928631842703297e+00 4.8371842132460845e+00 2.4855909077181213e+00 
321 0 1 1.0333441005784136e+00 -2.3929655774047855e+01 1.0000000000000000e+00 8.0718038680130597e+00 5.8420387508573963e+00 1.1868203574584817e+00 
28 0 1 1.0453515931473325e+00 -6.9687241009699122e+01 1.0000000000000000e+00 8.7889940051780329e+00 5.8541748699911862e+00 1.3735304913017505e+00 
332 0 1 1.0549065450925315e+00 -4.9571980979335493e+01 1.0000000000000000e+00 8.3624763105368274e+00 5.2405338144147873e+00 1.3151493506060543e+00 
161 0 1 1.0289608519912699e+00 -3.6226733882833400e+01 1.0000000000000000e+00 7.4662485486120840e+00 5.2765589278850165e+00 1.7584269785405198e+00 
374 0 1 1.0010694131848286e+00 -2.4450641193083335e+01 1.0000000000000000e+00 8.8130971424146907e+00 5.5937994640617745e+00 1.1962676412062845e+00 
16 0 1 1.0244548996168767e+00 -4.7281235992232297e+01 1.0000000000000000e+00 9.4391441896246420e+00 4.7359453302480139e+00 1.8630798331299701e+00 
231 0 1 1.0226653497506719e+00 -5.4709683426543606e+01 1.0000000000000000e+00 7.6775872680009769e+00 3.6518749764449439e+00 2.9858966686144628e+00 
559 0 1 1.0160547184841087e+00 -3.0293975004451696e+01 1.0000000000000000e+00 1.0025246963804015e+01 4.3300383339725856e+00 2.4538468513086684e+00 
504 0 1 9.9310142885392805e-01 -5.6263263292542035e+01 1.0000000000000000e+00 1.1890565318953296e+01 5.5124461503131030e+00 3.3006980547124041e+00 
579 0 1 1.0158826433946777e+00 -2.7581722670971395e+01 1.0000000000000000e+00 1.0138916541666495e+01 4.8199930307814114e+00 2.5743254330548759e+00 
262 0 1 9.9710539358172467e-01 -5.5626961906278671e+00 1.0000000000000000e+00 1.3019488510156584e+01 5.2326144113731452e+00 3.3008280258238347e+00 
291 0 1 1.0374145203196459e+00 -7.0747680927319783e+00 1.0000000000000000e+00 7.9518347627307309e+00 7.4633532829275211e+00 1.8546447255996490e+00 
17 0 1 1.0377768490724955e+00 -2.9469472790947208e+01 1.0000000000000000e+00 7.8443127628306941e+00 7.3021736216548820e+00 2.5480574680740173e+00 
516 0 1 1.0237411619478631e+00 -2.9693960526316928e+01 1.0000000000000000e+00 8.4285435299751512e+00 8.5990450959841436e+00 2.2312555995632839e+00 
452 0 1 1.0482142498335756e+00 -1.8268027895453230e+01 1.0000000000000000e+00 7.8614327768098056e+00 6.7857784628657125e+00 1.5685142917849419e+00 
199 0 1 1.0282346372087925e+00 2.1199909244685053e+00 1.0000000000000000e+00 7.9159408220263305e+00 9.6198734371751726e+00 1.8192160981506751e+00 
210 0 1 1.0333540948663642e+00 -2.7726079473902480e+01 1.0000000000000000e+00 7.4199906871499222e+00 8.0304516433683872e+00 2.3810667180971459e+00 
166 0 1 1.0580816927766765e+00 -3.2095749781996084e+01 1.0000000000000000e+00 8.5998561385197352e+00 9.8712443588496370e+00 2.2121716063762666e+00 
530 0 1 1.0111693020770938e+00 -4.5793571488215662e+01 1.0000000000000000e+00 7.2619089033088979e+00 8.1222345068326032e+00 2.4975132137448171e+00 
30 0 1 1.0015010531006303e+00 -4.0719009546201093e+01 1.0000000000000000e+00 7.9346707730738357e+00 1.6474576841303665e+00 3.5764411124959845e+00 
629 0 1 1.0351195211936515e+00 -4.4391384796377139e+01 1.0000000000000000e+00 9.0682675411180469e+00 8.9643791381762672e-01 3.9828441128691066e+00 
165 0 1 1.0045161827050570e+00 -2.7838236196348980e+01 1.0000000000000000e+00 8.6321626657759172e+00 1.1998905590982025e+00 5.5023560214940588e+00 
599 0 1 1.0164195576213888e+00 -3.4670625724800551e+01 1.0000000000000000e+00 9.6833894032915673e+00 2.1419292930034350e+00 4.0401195415031665e+00 
476 0 1 1.0358412792002356e+00 -2.8673116069448831e+01 1.0000000000000000e+00 8.9675106734859575e+00 1.7784148708830643e+00 5.3654413453881302e+00 
480 0 1 9.9975363657185345e-01 -3.6497838428792690e+01 1.0000000000000000e+00 7.1328620104538665e+00 1.4480200009352687e-01 5.3031653075140195e+00 
453 0 1 1.0443421047167107e+00 -1.7928527080271902e+01 1.0000000000000000e+00 8.8250490099133394e+00 1.5122047091248128e+00 6.1479426819528786e+00 
406 0 1 1.0254228009359858e+00 -3.8314746321236612e+01 1.0000000000000000e+00 7.7913024375112530e+00 2.0136641994243596e+00 5.8876179555160304e+00 
431 0 1 1.0068803216669255e+00 -2.8865936651677853e+01 1.0000000000000000e+00 6.6791233566433634e+00 4.5650241763632853e-02 6.1954142886550105e+00 
21 0 1 1.0209839514481749e+00 -5.2226234613570988e+01 1.0000000000000000e+00 1.1416835159833806e+01 1.1889592471444825e+00 3.3608943058219576e+00 
134 0 1 9.9275127252706152e-01 -5.3229379154619153e+01 1.0000000000000000e+00 1.0036636033910476e+01 3.1561196986039892e+00 5.8231906539755691e+00 
614 0 1 1.0166942938574044e+00 -2.8037044224006049e+01 1.0000000000000000e+00 1.2958819513840933e+01 2.7785610566200813e+00 3.7136946299602114e+00 
244 0 1 1.0142518763134944e+00 -3.3577159349741699e+01 1.0000000000000000e+00 1.2602365287656305e+01 2.4453339011879689e+00 3.6191524006538809e+00 
371 0 1 1.0587252307631883e+00 -3.9191755393354455e+01 1.0000000000000000e+00 1.3017965965628177e+01 5.9856120124913703e-01 5.1870614287347134e+00 
179 0 1 1.0465571124886088e+00 -2.8823837989559497e+01 1.0000000000000000e+00 1.2370228278821832e+01 2.6518145448487291e+00 4.3405387680208705e+00 
508 0 1 1.0317691867556626e+00 -4.1103284828103625e+01 1.0000000000000000e+00 1.1590706869702645e+01 1.8804544744295457e+00 6.4465644136743467e+00 
298 0 1 1.0559257251372081e+00 -2.6449991966890551e+01 1.0000000000000000e+00 1.2529204467690684e+01 1.5161033391619434e+00 5.0814546478659288e+00 