LAMMPS data file via write_data, version 30 Jul 2016, timestep = 600000

2080 atoms
8 atom types

0.0000000000000000e+00 4.0000000000000000e+01 xlo xhi
0.0000000000000000e+00 4.0000000000000000e+01 ylo yhi
0.0000000000000000e+00 1.0000000000000000e+02 zlo zhi

Masses

1 3.896
2 16.08
3 1058.08
4 8.378
5 8.378
6 8.378
7 8.378
8 8.378

Atoms # meso-molecular

1 2 4 2.2559723595316457e+00 5.6569564409752116e-01 4.2000000000000000e+03 0.0000000000000000e+00 0.0000000000000000e+00 2.5000000000000000e+00 
2 2 4 2.2559723595316457e+00 1.1477901085231024e+00 4.2000000000000000e+03 0.0000000000000000e+00 2.0000000000000000e+00 2.5000000000000000e+00 
3 2 4 2.2559723595316457e+00 1.1330408112402282e+00 4.2000000000000000e+03 0.0000000000000000e+00 4.0000000000000000e+00 2.5000000000000000e+00 
4 2 4 2.2559723595316457e+00 1.0294129629840327e+00 4.2000000000000000e+03 0.0000000000000000e+00 6.0000000000000000e+00 2.5000000000000000e+00 
21 2 4 2.2559723595316457e+00 9.3634591507385934e-01 4.2000000000000000e+03 2.0000000000000000e+00 0.0000000000000000e+00 2.5000000000000000e+00 
22 2 4 2.2559723595316457e+00 9.6276123597878716e-01 4.2000000000000000e+03 2.0000000000000000e+00 2.0000000000000000e+00 2.5000000000000000e+00 
23 2 4 2.2559723595316457e+00 9.3756022944102546e-01 4.2000000000000000e+03 2.0000000000000000e+00 4.0000000000000000e+00 2.5000000000000000e+00 
24 2 4 2.2559723595316457e+00 9.2919035728056032e-01 4.2000000000000000e+03 2.0000000000000000e+00 6.0000000000000000e+00 2.5000000000000000e+00 
41 2 4 2.2559723595316457e+00 1.0917730932794472e+00 4.2000000000000000e+03 4.0000000000000000e+00 0.0000000000000000e+00 2.5000000000000000e+00 
42 2 4 2.2559723595316457e+00 9.2238945804112094e-01 4.2000000000000000e+03 4.0000000000000000e+00 2.0000000000000000e+00 2.5000000000000000e+00 
43 2 4 2.2559723595316457e+00 7.4774411032458876e-01 4.2000000000000000e+03 4.0000000000000000e+00 4.0000000000000000e+00 2.5000000000000000e+00 
44 2 4 2.2559723595316457e+00 9.6744305099908434e-01 4.2000000000000000e+03 4.0000000000000000e+00 6.0000000000000000e+00 2.5000000000000000e+00 
61 2 4 2.2559723595316457e+00 1.1939176059294354e+00 4.2000000000000000e+03 6.0000000000000000e+00 0.0000000000000000e+00 2.5000000000000000e+00 
62 2 4 2.2559723595316457e+00 1.0967494691582309e+00 4.2000000000000000e+03 6.0000000000000000e+00 2.0000000000000000e+00 2.5000000000000000e+00 
63 2 4 2.2559723595316457e+00 8.3185725394978460e-01 4.2000000000000000e+03 6.0000000000000000e+00 4.0000000000000000e+00 2.5000000000000000e+00 
64 2 4 2.2559723595316457e+00 1.0194036872229324e+00 4.2000000000000000e+03 6.0000000000000000e+00 6.0000000000000000e+00 2.5000000000000000e+00 
81 2 4 2.2559723595316457e+00 5.8239073623471116e-01 4.2000000000000000e+03 8.0000000000000000e+00 0.0000000000000000e+00 2.5000000000000000e+00 
82 2 4 2.2559723595316457e+00 9.7631372533549476e-01 4.2000000000000000e+03 8.0000000000000000e+00 2.0000000000000000e+00 2.5000000000000000e+00 
83 2 4 2.2559723595316457e+00 8.9656354302151975e-01 4.2000000000000000e+03 8.0000000000000000e+00 4.0000000000000000e+00 2.5000000000000000e+00 
84 2 4 2.2559723595316457e+00 1.0782865980320671e+00 4.2000000000000000e+03 8.0000000000000000e+00 6.0000000000000000e+00 2.5000000000000000e+00 
101 2 4 2.2559723595316457e+00 -5.2797511854458946e-02 4.2000000000000000e+03 1.0000000000000000e+01 0.0000000000000000e+00 2.5000000000000000e+00 
102 2 4 2.2559723595316457e+00 9.5758817259197304e-01 4.2000000000000000e+03 1.0000000000000000e+01 2.0000000000000000e+00 2.5000000000000000e+00 
103 2 4 2.2559723595316457e+00 9.3339214690876049e-01 4.2000000000000000e+03 1.0000000000000000e+01 4.0000000000000000e+00 2.5000000000000000e+00 
104 2 4 2.2559723595316457e+00 1.1157805350510439e+00 4.2000000000000000e+03 1.0000000000000000e+01 6.0000000000000000e+00 2.5000000000000000e+00 
121 2 4 2.2559723595316457e+00 9.7943798382372482e-01 4.2000000000000000e+03 1.2000000000000000e+01 0.0000000000000000e+00 2.5000000000000000e+00 
122 2 4 2.2559723595316457e+00 1.1113427130418136e+00 4.2000000000000000e+03 1.2000000000000000e+01 2.0000000000000000e+00 2.5000000000000000e+00 
123 2 4 2.2559723595316457e+00 1.0251714446119395e+00 4.2000000000000000e+03 1.2000000000000000e+01 4.0000000000000000e+00 2.5000000000000000e+00 
124 2 4 2.2559723595316457e+00 -6.0949747694924483e+01 4.2000000000000000e+03 1.2000000000000000e+01 6.0000000000000000e+00 2.5000000000000000e+00 
141 2 4 2.2559723595316457e+00 2.7829572955580161e+01 4.2000000000000000e+03 1.4000000000000000e+01 0.0000000000000000e+00 2.5000000000000000e+00 
142 2 4 2.2559723595316457e+00 6.9040898533208690e+00 4.2000000000000000e+03 1.4000000000000000e+01 2.0000000000000000e+00 2.5000000000000000e+00 
143 2 4 2.2559723595316457e+00 -1.4352249761949780e+00 4.2000000000000000e+03 1.4000000000000000e+01 4.0000000000000000e+00 2.5000000000000000e+00 
144 2 4 2.2559723595316457e+00 -6.2367745002028312e+02 4.2000000000000000e+03 1.4000000000000000e+01 6.0000000000000000e+00 2.5000000000000000e+00 
161 2 4 2.2559723595316457e+00 6.3565445361666605e+01 4.2000000000000000e+03 1.6000000000000000e+01 0.0000000000000000e+00 2.5000000000000000e+00 
162 2 4 2.2559723595316457e+00 1.1783550344615929e+01 4.2000000000000000e+03 1.6000000000000000e+01 2.0000000000000000e+00 2.5000000000000000e+00 
163 2 4 2.2559723595316457e+00 -2.3501821088204512e+01 4.2000000000000000e+03 1.6000000000000000e+01 4.0000000000000000e+00 2.5000000000000000e+00 
164 2 4 2.2559723595316457e+00 -1.5883827765236433e+03 4.2000000000000000e+03 1.6000000000000000e+01 6.0000000000000000e+00 2.5000000000000000e+00 
181 2 4 2.2559723595316457e+00 6.4514651333835985e+01 4.2000000000000000e+03 1.8000000000000000e+01 0.0000000000000000e+00 2.5000000000000000e+00 
182 2 4 2.2559723595316457e+00 -3.9826476980676642e+00 4.2000000000000000e+03 1.8000000000000000e+01 2.0000000000000000e+00 2.5000000000000000e+00 
183 2 4 2.2559723595316457e+00 -3.7997101786529257e+01 4.2000000000000000e+03 1.8000000000000000e+01 4.0000000000000000e+00 2.5000000000000000e+00 
184 2 4 2.2559723595316457e+00 -2.1790225122828151e+03 4.2000000000000000e+03 1.8000000000000000e+01 6.0000000000000000e+00 2.5000000000000000e+00 
5 2 4 2.2559723595316457e+00 8.7965805844971889e-01 4.2000000000000000e+03 0.0000000000000000e+00 8.0000000000000000e+00 2.5000000000000000e+00 
6 2 4 2.2559723595316457e+00 9.5661712648287800e-01 4.2000000000000000e+03 0.0000000000000000e+00 1.0000000000000000e+01 2.5000000000000000e+00 
7 2 4 2.2559723595316457e+00 9.7288597837652935e-01 4.2000000000000000e+03 0.0000000000000000e+00 1.2000000000000000e+01 2.5000000000000000e+00 
25 2 4 2.2559723595316457e+00 3.4777727393754321e-01 4.2000000000000000e+03 2.0000000000000000e+00 8.0000000000000000e+00 2.5000000000000000e+00 
26 2 4 2.2559723595316457e+00 5.4253920361041730e-01 4.2000000000000000e+03 2.0000000000000000e+00 1.0000000000000000e+01 2.5000000000000000e+00 
27 2 4 2.2559723595316457e+00 1.0834884010740042e+00 4.2000000000000000e+03 2.0000000000000000e+00 1.2000000000000000e+01 2.5000000000000000e+00 
45 2 4 2.2559723595316457e+00 4.5472052931042439e-01 4.2000000000000000e+03 4.0000000000000000e+00 8.0000000000000000e+00 2.5000000000000000e+00 
46 2 4 2.2559723595316457e+00 7.3825393743907863e-01 4.2000000000000000e+03 4.0000000000000000e+00 1.0000000000000000e+01 2.5000000000000000e+00 
47 2 4 2.2559723595316457e+00 1.0830260192751697e+00 4.2000000000000000e+03 4.0000000000000000e+00 1.2000000000000000e+01 2.5000000000000000e+00 
65 2 4 2.2559723595316457e+00 9.3906666806937078e-01 4.2000000000000000e+03 6.0000000000000000e+00 8.0000000000000000e+00 2.5000000000000000e+00 
66 2 4 2.2559723595316457e+00 1.0309108921135373e+00 4.2000000000000000e+03 6.0000000000000000e+00 1.0000000000000000e+01 2.5000000000000000e+00 
67 2 4 2.2559723595316457e+00 9.6429252141805599e-01 4.2000000000000000e+03 6.0000000000000000e+00 1.2000000000000000e+01 2.5000000000000000e+00 
85 2 4 2.2559723595316457e+00 9.2525790787089435e-01 4.2000000000000000e+03 8.0000000000000000e+00 8.0000000000000000e+00 2.5000000000000000e+00 
86 2 4 2.2559723595316457e+00 7.7906447605768436e-01 4.2000000000000000e+03 8.0000000000000000e+00 1.0000000000000000e+01 2.5000000000000000e+00 
87 2 4 2.2559723595316457e+00 8.9487807937940178e-01 4.2000000000000000e+03 8.0000000000000000e+00 1.2000000000000000e+01 2.5000000000000000e+00 
105 2 4 2.2559723595316457e+00 -7.6553074617220029e-01 4.2000000000000000e+03 1.0000000000000000e+01 8.0000000000000000e+00 2.5000000000000000e+00 
106 2 4 2.2559723595316457e+00 -1.6882798443206376e+01 4.2000000000000000e+03 1.0000000000000000e+01 1.0000000000000000e+01 2.5000000000000000e+00 
107 2 4 2.2559723595316457e+00 -1.8356257669532560e+01 4.2000000000000000e+03 1.0000000000000000e+01 1.2000000000000000e+01 2.5000000000000000e+00 
125 2 4 2.2559723595316457e+00 -6.2626268052757462e+02 4.2000000000000000e+03 1.2000000000000000e+01 8.0000000000000000e+00 2.5000000000000000e+00 
126 2 4 2.2559723595316457e+00 -1.5878064316057732e+03 4.2000000000000000e+03 1.2000000000000000e+01 1.0000000000000000e+01 2.5000000000000000e+00 
127 2 4 2.2559723595316457e+00 -2.1667462966038602e+03 4.2000000000000000e+03 1.2000000000000000e+01 1.2000000000000000e+01 2.5000000000000000e+00 
145 2 4 2.2559723595316457e+00 -3.4677466599640265e+03 4.2000000000000000e+03 1.4000000000000000e+01 8.0000000000000000e+00 2.5000000000000000e+00 
146 2 4 2.2559723595316457e+00 -7.8814805033599487e+03 4.2000000000000000e+03 1.4000000000000000e+01 1.0000000000000000e+01 2.5000000000000000e+00 
147 2 4 2.2559723595316457e+00 -1.0875477525328712e+04 4.2000000000000000e+03 1.4000000000000000e+01 1.2000000000000000e+01 2.5000000000000000e+00 
165 2 4 2.2559723595316457e+00 -7.8848330917781313e+03 4.2000000000000000e+03 1.6000000000000000e+01 8.0000000000000000e+00 2.5000000000000000e+00 
166 2 4 2.2559723595316457e+00 -1.7631942264297861e+04 4.2000000000000000e+03 1.6000000000000000e+01 1.0000000000000000e+01 2.5000000000000000e+00 
167 2 4 2.2559723595316457e+00 -2.4642467428465068e+04 4.2000000000000000e+03 1.6000000000000000e+01 1.2000000000000000e+01 2.5000000000000000e+00 
185 2 4 2.2559723595316457e+00 -1.0909261225366918e+04 4.2000000000000000e+03 1.8000000000000000e+01 8.0000000000000000e+00 2.5000000000000000e+00 
186 2 4 2.2559723595316457e+00 -2.4655161977221098e+04 4.2000000000000000e+03 1.8000000000000000e+01 1.0000000000000000e+01 2.5000000000000000e+00 
187 2 4 2.2559723595316457e+00 -3.4745835215311337e+04 4.2000000000000000e+03 1.8000000000000000e+01 1.2000000000000000e+01 2.5000000000000000e+00 
8 2 4 2.2559723595316457e+00 9.0987569290484926e-01 4.2000000000000000e+03 0.0000000000000000e+00 1.4000000000000000e+01 2.5000000000000000e+00 
9 2 4 2.2559723595316457e+00 9.6792035714641789e-01 4.2000000000000000e+03 0.0000000000000000e+00 1.6000000000000000e+01 2.5000000000000000e+00 
10 2 4 2.2559723595316457e+00 9.6798186123617891e-01 4.2000000000000000e+03 0.0000000000000000e+00 1.8000000000000000e+01 2.5000000000000000e+00 
28 2 4 2.2559723595316457e+00 1.0275778487008163e+00 4.2000000000000000e+03 2.0000000000000000e+00 1.4000000000000000e+01 2.5000000000000000e+00 
29 2 4 2.2559723595316457e+00 1.0182750825228610e+00 4.2000000000000000e+03 2.0000000000000000e+00 1.6000000000000000e+01 2.5000000000000000e+00 
30 2 4 2.2559723595316457e+00 1.0309794531917058e+00 4.2000000000000000e+03 2.0000000000000000e+00 1.8000000000000000e+01 2.5000000000000000e+00 
48 2 4 2.2559723595316457e+00 9.9182909927214769e-01 4.2000000000000000e+03 4.0000000000000000e+00 1.4000000000000000e+01 2.5000000000000000e+00 
49 2 4 2.2559723595316457e+00 1.0604778192872728e+00 4.2000000000000000e+03 4.0000000000000000e+00 1.6000000000000000e+01 2.5000000000000000e+00 
50 2 4 2.2559723595316457e+00 1.1954397844969571e+00 4.2000000000000000e+03 4.0000000000000000e+00 1.8000000000000000e+01 2.5000000000000000e+00 
68 2 4 2.2559723595316457e+00 9.1146200619872297e-01 4.2000000000000000e+03 6.0000000000000000e+00 1.4000000000000000e+01 2.5000000000000000e+00 
69 2 4 2.2559723595316457e+00 1.1153328207688531e+00 4.2000000000000000e+03 6.0000000000000000e+00 1.6000000000000000e+01 2.5000000000000000e+00 
70 2 4 2.2559723595316457e+00 1.5268698800387686e+00 4.2000000000000000e+03 6.0000000000000000e+00 1.8000000000000000e+01 2.5000000000000000e+00 
88 2 4 2.2559723595316457e+00 1.1174954519558735e+00 4.2000000000000000e+03 8.0000000000000000e+00 1.4000000000000000e+01 2.5000000000000000e+00 
89 2 4 2.2559723595316457e+00 1.1944158202481590e+00 4.2000000000000000e+03 8.0000000000000000e+00 1.6000000000000000e+01 2.5000000000000000e+00 
90 2 4 2.2559723595316457e+00 1.0745078701506314e+00 4.2000000000000000e+03 8.0000000000000000e+00 1.8000000000000000e+01 2.5000000000000000e+00 
108 2 4 2.2559723595316457e+00 -1.7643588540382869e+01 4.2000000000000000e+03 1.0000000000000000e+01 1.4000000000000000e+01 2.5000000000000000e+00 
109 2 4 2.2559723595316457e+00 -1.5464482181421953e+01 4.2000000000000000e+03 1.0000000000000000e+01 1.6000000000000000e+01 2.5000000000000000e+00 
110 2 4 2.2559723595316457e+00 -1.5467292158953875e+01 4.2000000000000000e+03 1.0000000000000000e+01 1.8000000000000000e+01 2.5000000000000000e+00 
128 2 4 2.2559723595316457e+00 -2.2367950444822427e+03 4.2000000000000000e+03 1.2000000000000000e+01 1.4000000000000000e+01 2.5000000000000000e+00 
129 2 4 2.2559723595316457e+00 -2.2343819702370338e+03 4.2000000000000000e+03 1.2000000000000000e+01 1.6000000000000000e+01 2.5000000000000000e+00 
130 2 4 2.2559723595316457e+00 -2.2339072920747094e+03 4.2000000000000000e+03 1.2000000000000000e+01 1.8000000000000000e+01 2.5000000000000000e+00 
148 2 4 2.2559723595316457e+00 -1.1549769283920417e+04 4.2000000000000000e+03 1.4000000000000000e+01 1.4000000000000000e+01 2.5000000000000000e+00 
149 2 4 2.2559723595316457e+00 -1.1535717490582634e+04 4.2000000000000000e+03 1.4000000000000000e+01 1.6000000000000000e+01 2.5000000000000000e+00 
150 2 4 2.2559723595316457e+00 -1.1531018100668909e+04 4.2000000000000000e+03 1.4000000000000000e+01 1.8000000000000000e+01 2.5000000000000000e+00 
168 2 4 2.2559723595316457e+00 -2.6488119824732905e+04 4.2000000000000000e+03 1.6000000000000000e+01 1.4000000000000000e+01 2.5000000000000000e+00 
169 2 4 2.2559723595316457e+00 -2.6472043628439453e+04 4.2000000000000000e+03 1.6000000000000000e+01 1.6000000000000000e+01 2.5000000000000000e+00 
170 2 4 2.2559723595316457e+00 -2.6450623638339282e+04 4.2000000000000000e+03 1.6000000000000000e+01 1.8000000000000000e+01 2.5000000000000000e+00 
188 2 4 2.2559723595316457e+00 -3.7436575732363919e+04 4.2000000000000000e+03 1.8000000000000000e+01 1.4000000000000000e+01 2.5000000000000000e+00 
189 2 4 2.2559723595316457e+00 -3.7413608264849652e+04 4.2000000000000000e+03 1.8000000000000000e+01 1.6000000000000000e+01 2.5000000000000000e+00 
190 2 4 2.2559723595316457e+00 -3.7365732833558439e+04 4.2000000000000000e+03 1.8000000000000000e+01 1.8000000000000000e+01 2.5000000000000000e+00 
1223 825 2 1.0280099855363050e+00 -6.7232274107079924e+04 4.2000000000000000e+03 1.2831231105462244e+01 1.5387936633797934e+00 5.4209868470778979e+01 
953 555 2 1.0280082336073777e+00 3.7926151750334240e+04 4.2000000000000000e+03 1.1788609081434352e+01 2.0635053640747456e+00 5.4676818181337154e+01 
460 62 2 1.0280081860334758e+00 4.0470651739244400e+04 4.2000000000000000e+03 1.1800788652527940e+01 1.9667640675879581e+00 5.4680330511832203e+01 
1556 1158 2 1.0280085518573414e+00 2.4523043595328723e+04 4.2000000000000000e+03 1.1535844617943505e+01 1.9437476650351255e+00 5.4832300903179757e+01 
2050 1652 2 1.0280085987258991e+00 2.5300833459876144e+03 4.2000000000000000e+03 1.0827928106625304e+01 2.4899143182358463e+00 5.5210731665952707e+01 
1885 1487 2 1.0280039233072613e+00 1.7120505632161341e+04 4.2000000000000000e+03 1.2669782471078436e+01 4.9535676739968504e-02 5.5315091434848341e+01 
889 491 2 1.0280080836103060e+00 -1.1699788953040694e+04 4.2000000000000000e+03 1.0436199996668222e+01 2.5176242754871585e+00 5.5332187964091609e+01 
1789 1391 2 1.0279999843904970e+00 2.2005645119071196e+04 4.2000000000000000e+03 8.3116817559767515e+00 5.2675150772066752e+00 5.5432302937405737e+01 
1981 1583 2 1.0280070080326722e+00 -3.0755812273668462e+03 4.2000000000000000e+03 1.0977185870431976e+01 2.9956573647687517e+00 5.5500892295583512e+01 
533 135 2 1.0280114081922660e+00 4.2839976294040440e+04 4.2000000000000000e+03 1.4853314558712666e+01 3.0795155953391888e+00 5.3575859693292458e+01 
1654 1256 2 1.0280113654165173e+00 8.1217223011861897e+03 4.2000000000000000e+03 1.5209437582217680e+01 3.2726828161875723e+00 5.3642432617113307e+01 
1918 1520 2 1.0280116534565917e+00 5.7438331480438836e+04 4.2000000000000000e+03 1.5265122923033529e+01 3.2190473485615603e+00 5.3634931628411081e+01 
1449 1051 2 1.0280098197998315e+00 3.6362061610651093e+04 4.2000000000000000e+03 1.4302513016918605e+01 3.2994931657640616e+00 5.3653611553484410e+01 
796 398 2 1.0280106432587863e+00 2.4451893515216601e+04 4.2000000000000000e+03 1.5142467489360348e+01 3.5714973584569547e+00 5.3731232470754350e+01 
571 173 2 1.0280093321795956e+00 2.1423926858622086e+04 4.2000000000000000e+03 1.4510183582221837e+01 3.6551976950942322e+00 5.3746274160776949e+01 
662 264 2 1.0280129830057425e+00 -2.5079066617061821e+04 4.2000000000000000e+03 1.6016577098213450e+01 3.5219957610074761e+00 5.3909752297605763e+01 
723 325 2 1.0280079093095222e+00 7.7534664953615102e+03 4.2000000000000000e+03 1.4201447144103380e+01 4.1078417802183438e+00 5.3999741663477131e+01 
1209 811 2 1.0280168292698009e+00 5.9099860816357483e+04 4.2000000000000000e+03 1.7249399397846034e+01 2.4983242687713876e+00 5.3960461878458439e+01 
615 217 2 1.0280171658072454e+00 2.5519278189995265e+02 4.2000000000000000e+03 1.7552361377647731e+01 2.4130693087630504e+00 5.4034914672337344e+01 
1866 1468 2 1.0280110412101882e+00 -7.6575989119815094e+03 4.2000000000000000e+03 1.5750908304415502e+01 4.1859109250760387e+00 5.4203267226210038e+01 
852 454 2 1.0280174938373372e+00 2.0973694618226251e+04 4.2000000000000000e+03 1.8480496416493075e+01 2.1513270470111423e+00 5.4261253244345845e+01 
614 216 2 1.0280170602472960e+00 2.8694684233049912e+02 4.2000000000000000e+03 1.9022662478444197e+01 2.1463014043093867e+00 5.4428751371838828e+01 
1835 1437 2 1.0279893704111931e+00 -1.0910290905936512e+04 4.2000000000000000e+03 3.1336268083864548e-02 1.1635043787959194e+01 5.4463438990039798e+01 
635 237 2 1.0279900225108536e+00 1.6181451817570223e+03 4.2000000000000000e+03 2.6442268498766391e-01 1.1669346736513772e+01 5.4533204602681671e+01 
1625 1227 2 1.0279925359577338e+00 5.6258708103496203e+04 4.2000000000000000e+03 3.3212266736025291e+00 1.2536509713624094e+01 5.4873879831386674e+01 
1587 1189 2 1.0279928789420016e+00 -1.2076997079347406e+04 4.2000000000000000e+03 3.3766065448880509e+00 1.2126991657793857e+01 5.5006972524108775e+01 
699 301 2 1.0279935551854469e+00 -4.7383822429785150e+03 4.2000000000000000e+03 3.6844961836503960e+00 1.1200676577948791e+01 5.5230295332072409e+01 
1466 1068 2 1.0279920430843525e+00 -5.3787889147617148e+04 4.2000000000000000e+03 2.8405509218108387e+00 1.1544708188077347e+01 5.5311181424547534e+01 
1343 945 2 1.0279971030859427e+00 -1.0962450799724521e+05 4.2000000000000000e+03 4.3122766472376419e+00 1.0188815490244352e+01 5.5403089191508279e+01 
1094 696 2 1.0279987383461993e+00 -6.3800842965420125e+04 4.2000000000000000e+03 8.0179163065329657e+00 8.9488939774575122e+00 5.2953275139224978e+01 
958 560 2 1.0279987212658743e+00 -3.2807102562355132e+04 4.2000000000000000e+03 7.9855025592382569e+00 8.8238576835401137e+00 5.2956936855701180e+01 
1001 603 2 1.0279986701859392e+00 4.7472571434659891e+04 4.2000000000000000e+03 7.8411583485743543e+00 8.8253698289604436e+00 5.2969733478935403e+01 
1292 894 2 1.0279986806922212e+00 3.2256263699758605e+04 4.2000000000000000e+03 7.8598418096354710e+00 8.7651807664907526e+00 5.2972497024658701e+01 
1499 1101 2 1.0279985389435053e+00 -5.3739759582871113e+04 4.2000000000000000e+03 7.9148410175179214e+00 8.6308475916562930e+00 5.2983527920738162e+01 
1338 940 2 1.0279984709139036e+00 -9.9446075819469930e+04 4.2000000000000000e+03 8.2027432095888653e+00 9.3495896445313278e+00 5.3011574619052006e+01 
1863 1465 2 1.0279984413658196e+00 -1.0262634982058784e+04 4.2000000000000000e+03 7.8576526955870616e+00 8.4533040144768758e+00 5.3029345589396897e+01 
1029 631 2 1.0279990452924967e+00 3.0765764558474966e+04 4.2000000000000000e+03 7.6696172760809116e+00 8.5881360001123088e+00 5.3037115755869934e+01 
426 28 2 1.0279980708496286e+00 1.6587294501339315e+04 4.2000000000000000e+03 8.0020438530261693e+00 8.2269271370466974e+00 5.3079852470915434e+01 
642 244 2 1.0279982533146932e+00 -3.5532468652108051e+04 4.2000000000000000e+03 7.9258138359343882e+00 8.2595487680255903e+00 5.3078382139881931e+01 
751 353 2 1.0279990639807848e+00 -5.0408188699661230e+04 4.2000000000000000e+03 8.2091087108156469e+00 9.6791754495677260e+00 5.3113970290198395e+01 
1607 1209 2 1.0279984220187153e+00 -4.3721604723155127e+04 4.2000000000000000e+03 7.7659635372049740e+00 8.1999467932197501e+00 5.3134529245058786e+01 
844 446 2 1.0280006101195154e+00 5.0606578457479562e+04 4.2000000000000000e+03 7.1911822419453300e+00 1.2028065708758833e+01 5.4545632449350308e+01 
1385 987 2 1.0279982753885073e+00 1.0287251392033369e+04 4.2000000000000000e+03 1.1945685917842383e+01 8.6927654270736525e+00 5.5454995331149149e+01 
1623 1225 2 1.0279987014076384e+00 -2.9587205749693934e+04 4.2000000000000000e+03 1.2107143339790881e+01 8.6173348703383787e+00 5.5535114507755566e+01 
1763 1365 2 1.0279897683751500e+00 -1.8572479293319873e+04 4.2000000000000000e+03 1.4411720761096987e+01 1.0578688056406870e+01 5.4791459517752607e+01 
1902 1504 2 1.0279884910153991e+00 -2.0267667650058047e+04 4.2000000000000000e+03 1.5126824252701242e+01 1.1816123251395053e+01 5.4846134727211044e+01 
1323 925 2 1.0279913680249602e+00 -8.2713440363776594e+04 4.2000000000000000e+03 1.4255571991561800e+01 1.0261312558250546e+01 5.4858901817691262e+01 
1287 889 2 1.0279897266496021e+00 -1.0403158788152669e+05 4.2000000000000000e+03 1.4476493371795778e+01 9.7095564314769973e+00 5.4978293750578310e+01 
996 598 2 1.0279878554185666e+00 1.7838575394406391e+04 4.2000000000000000e+03 1.4970050299562356e+01 9.5328408470284067e+00 5.5004403138261509e+01 
1224 826 2 1.0279876031073480e+00 -3.2648344735655079e+04 4.2000000000000000e+03 1.5635976035381095e+01 1.2241686500992717e+01 5.5101690097160613e+01 
1012 614 2 1.0279914089716859e+00 3.2972552028511294e+04 4.2000000000000000e+03 1.5266010739206873e+01 8.3567085778577770e+00 5.5304196749439541e+01 
1903 1505 2 1.0279912710878638e+00 -2.0308852531134744e+04 4.2000000000000000e+03 1.5102645670962049e+01 8.2930329906026721e+00 5.5318431216930996e+01 
1565 1167 2 1.0279945378888484e+00 3.4637913651538322e+04 4.2000000000000000e+03 1.5140269940837390e+01 7.6372094828779806e+00 5.5431223348170924e+01 
461 63 2 1.0279962551204282e+00 1.7332762239169911e+04 4.2000000000000000e+03 1.5159745029208239e+01 7.1226126116776944e+00 5.5468978947651486e+01 
911 513 2 1.0279936395900893e+00 1.6645066722783886e+04 4.2000000000000000e+03 2.8874343185400723e-03 1.3997053030067336e+01 5.3397138654843282e+01 
1234 836 2 1.0279951764672228e+00 -6.7936348834031509e+04 4.2000000000000000e+03 2.3548905962206566e+00 1.7034044728755863e+01 5.3556194337264309e+01 
470 72 2 1.0279953894618588e+00 3.6288466107727400e+04 4.2000000000000000e+03 2.1117929803091240e+00 1.7110730797373453e+01 5.3565565075181738e+01 
810 412 2 1.0279929101226346e+00 2.7589408177030327e+04 4.2000000000000000e+03 2.1509920995064857e+00 1.6266350582849125e+01 5.3597226080535727e+01 
2079 1681 2 1.0280067962163286e+00 1.2298982051238512e+04 4.2000000000000000e+03 5.1985542707037757e-01 1.9697649350680038e+01 5.3550867365785713e+01 
2055 1657 2 1.0279945249941358e+00 -1.0324640133450479e+04 4.2000000000000000e+03 3.5548167962221728e+00 1.6386442681614351e+01 5.3664022048852537e+01 
798 400 2 1.0279894944436683e+00 -1.0097503756216907e+04 4.2000000000000000e+03 9.5871152833472384e-01 1.3920600191540986e+01 5.3882098278320427e+01 
1253 855 2 1.0279954474260562e+00 1.0524370287219886e+04 4.2000000000000000e+03 4.1804399530262923e+00 1.7101232986352361e+01 5.3926709638368493e+01 
1297 899 2 1.0279958436283874e+00 -9.5328380999829369e+02 4.2000000000000000e+03 4.2026889715978522e+00 1.7291048134998043e+01 5.3973899771485726e+01 
2014 1616 2 1.0279959950107296e+00 -6.3630960863418804e+03 4.2000000000000000e+03 4.3239919151190307e+00 1.7496442276658097e+01 5.4106666880595064e+01 
1660 1262 2 1.0279958018164581e+00 3.0814330020889101e+04 4.2000000000000000e+03 4.8852571947951473e+00 1.5172073768783919e+01 5.4194711092466584e+01 
617 219 2 1.0279950383690177e+00 2.9052528224127127e+04 4.2000000000000000e+03 3.8752300058739664e+00 1.3505959457996289e+01 5.4389923558101785e+01 
637 239 2 1.0279988837800329e+00 2.6781754770359883e+04 4.2000000000000000e+03 5.4262802761718483e+00 1.4304371763330325e+01 5.4511504391089780e+01 
421 23 2 1.0280005316909360e+00 3.1428002653314492e+04 4.2000000000000000e+03 6.2588604080744368e+00 1.3609365514406036e+01 5.4844515926948773e+01 
1301 903 2 1.0279960735589804e+00 6.3554687571868753e+03 4.2000000000000000e+03 4.3425449246280241e+00 1.8822541695419709e+01 5.4880722779892366e+01 
580 182 2 1.0279963189912888e+00 4.3097034375968607e+04 4.2000000000000000e+03 1.4633649223271814e+01 1.3437942272817745e+01 5.5371580131304157e+01 
1370 972 2 1.0280023061995407e+00 -8.3771789763910507e+04 4.2000000000000000e+03 1.4184591338859411e+01 1.3875575460657634e+01 5.5532752766708633e+01 
673 275 2 1.0280132093819643e+00 7.4939700329503257e+03 4.2000000000000000e+03 6.6236798513347548e+00 7.9031086532362094e-01 5.6604832160489671e+01 
511 113 2 1.0280102964616553e+00 8.3375076377182013e+03 4.2000000000000000e+03 6.5216444712644996e+00 2.0287898177813153e+00 5.6932708713870241e+01 
1179 781 2 1.0280066756826609e+00 -1.0232423855235775e+05 4.2000000000000000e+03 6.3331228859899973e+00 2.9536061929031407e+00 5.7208193332711048e+01 
971 573 2 1.0280058593449464e+00 -4.9551857647780351e+04 4.2000000000000000e+03 5.9116036374941432e+00 3.2667841705292289e+00 5.7518841050126362e+01 
998 600 2 1.0279993368362468e+00 -7.3618046592851999e+04 4.2000000000000000e+03 2.9488959847490630e+00 4.9711670127082170e+00 5.8050593750282324e+01 
2045 1647 2 1.0280019935151548e+00 4.2873549017548416e+04 4.2000000000000000e+03 3.8363256640314880e+00 3.4139488137453653e+00 5.8064051457029855e+01 
837 439 2 1.0280270900797279e+00 2.7780424480468493e+04 4.2000000000000000e+03 6.6265957253720087e+00 3.2037686755167422e-01 5.8484986625217260e+01 
764 366 2 1.0280360733583109e+00 1.1065596035847724e+04 4.2000000000000000e+03 6.6493900633090544e+00 9.1233342577361976e-01 5.8533807777072376e+01 
780 382 2 1.0280013769772243e+00 2.8428973364751655e+04 4.2000000000000000e+03 1.7362885082271837e+00 3.4843314623712693e+00 5.8624350532018973e+01 
1956 1558 2 1.0280012345813645e+00 3.7102180877197068e+04 4.2000000000000000e+03 1.7852065542790028e+00 3.3397116390276036e+00 5.8683449714979162e+01 
1307 909 2 1.0280013726046866e+00 -8.7625211517068281e+04 4.2000000000000000e+03 1.3259728431004443e+00 3.6948593271431531e+00 5.8703714796043172e+01 
1037 639 2 1.0279957964658324e+00 -1.7210797653815891e+03 4.2000000000000000e+03 5.6503495997355673e+00 6.6662155789874262e+00 5.8788349617135722e+01 
1528 1130 2 1.0280013363210574e+00 2.9481051590838208e+04 4.2000000000000000e+03 1.1918458848947693e+00 3.6179917262485364e+00 5.8819633569962186e+01 
1347 949 2 1.0280011099565896e+00 -1.0255838755041150e+05 4.2000000000000000e+03 8.7028084801977079e-01 3.7528428777050267e+00 5.8908137939069107e+01 
1176 778 2 1.0280011941493696e+00 7.3434965193676777e+04 4.2000000000000000e+03 7.5032691907381399e-01 3.7953845468288931e+00 5.8947116740636616e+01 
1847 1449 2 1.0280012346871756e+00 -1.5818253354002351e+04 4.2000000000000000e+03 1.0302779829030011e+00 3.5769890622909459e+00 5.8942884455729001e+01 
1207 809 2 1.0280010403012088e+00 -4.8238800421402077e+04 4.2000000000000000e+03 8.2505619606831571e-01 3.6917080653274819e+00 5.8979007423857254e+01 
886 488 2 1.0280011917183760e+00 -1.8891609342047264e+04 4.2000000000000000e+03 4.2971704772750119e-01 3.7511877474119388e+00 5.9179985707339945e+01 
858 460 2 1.0280012847253444e+00 2.3808124073728308e+04 4.2000000000000000e+03 8.6747251248374446e-01 3.4537904968655488e+00 5.9164958443076614e+01 
1446 1048 2 1.0280059234352894e+00 -8.5426432479899609e+04 4.2000000000000000e+03 6.4797728040077551e+00 6.1769738198318622e+00 6.0431556718886966e+01 
1083 685 2 1.0279986778242507e+00 -3.3952242240307867e+04 4.2000000000000000e+03 9.1024912367651201e+00 4.9376941091446076e+00 5.5659673376256265e+01 
1189 791 2 1.0280009884309154e+00 2.1381114796868766e+04 4.2000000000000000e+03 7.9727540837933226e+00 5.0778327131497676e+00 5.5719129048445524e+01 
1160 762 2 1.0279969082036857e+00 -2.7282931307522135e+03 4.2000000000000000e+03 9.3586534395613867e+00 4.4380610795186328e+00 5.5967523508125254e+01 
1829 1431 2 1.0280084990999381e+00 2.0943435612765381e+04 4.2000000000000000e+03 7.7128953408104328e+00 2.2190935757792056e+00 5.6085086253730545e+01 
469 71 2 1.0280100526280469e+00 -3.0034424907480479e+03 4.2000000000000000e+03 7.2371761556346126e+00 2.3115041611801117e+00 5.6409763901726365e+01 
1311 913 2 1.0280056358773879e+00 -9.4315661810873615e+04 4.2000000000000000e+03 6.9906779873181524e+00 3.1894693669393823e+00 5.6720119704580739e+01 
982 584 2 1.0280045625375061e+00 -6.7248107397188913e+04 4.2000000000000000e+03 9.1028451303943481e+00 4.9167565599985750e+00 5.8954004573831519e+01 
1191 793 2 1.0280084386222044e+00 -1.1735117494713512e+05 4.2000000000000000e+03 1.8147469246014261e+01 5.4551963249642199e+00 5.7381904288664487e+01 