LAMMPS data file via write_data, version 30 Jul 2016, timestep = 10000000

180 atoms
2 atom types

0.0000000000000000e+00 2.0000000000000000e+01 xlo xhi
0.0000000000000000e+00 2.0000000000000000e+01 ylo yhi
0.0000000000000000e+00 2.0000000000000000e+01 zlo zhi

Masses

1 3.896
2 4.31

Atoms # meso-molecular

9 1 2 1.0279999999999938e+00 -5.2892820654100410e+02 1.0000000000000000e+00 6.6020056859640945e+00 5.3041191839063595e+00 8.1150741521144028e+00 
3 1 2 1.0279999999999743e+00 -2.6114726904497377e+02 1.0000000000000000e+00 6.5942323381759795e+00 5.5287780109373665e+00 7.8730652601959337e+00 
52 1 2 1.0279999999999860e+00 -3.2179875435528459e+02 1.0000000000000000e+00 6.6004538019882659e+00 5.2981676614521040e+00 8.1294217136278650e+00 
45 1 2 1.0280000000000080e+00 -4.1866043212658167e+02 1.0000000000000000e+00 6.6134520079370684e+00 5.3062168939585765e+00 8.1090434997894363e+00 
46 1 2 1.0280000000000040e+00 -3.6362476272658773e+02 1.0000000000000000e+00 6.6065326556716872e+00 5.3006328763345349e+00 8.1225554087192204e+00 
10 1 2 1.0280000000000142e+00 -4.4005310225010169e+02 1.0000000000000000e+00 6.6022933364599785e+00 5.3001454706821587e+00 8.1243137212983125e+00 
50 1 2 1.0279999999999982e+00 -4.7875368386080947e+02 1.0000000000000000e+00 6.6065854039363092e+00 6.0296106622190582e+00 7.8089736843234387e+00 
39 1 2 1.0280000000000187e+00 -3.1955646905614896e+02 1.0000000000000000e+00 6.6280464050157297e+00 5.3481026051325458e+00 8.0336564875024976e+00 
40 1 2 1.0280000000000171e+00 -3.1826868507009499e+02 1.0000000000000000e+00 6.6401972743007081e+00 5.3167824043886238e+00 8.0866493073469705e+00 
56 1 2 1.0279999999999732e+00 -3.9676067232272271e+02 1.0000000000000000e+00 6.4828981449818928e+00 5.7997373708584021e+00 7.8155852870500730e+00 
17 1 2 1.0279999999999743e+00 -4.7501950557756493e+02 1.0000000000000000e+00 6.5386836608102987e+00 8.4138358678421579e+00 1.0214539234637396e+01 
53 1 2 1.0280000000000522e+00 -4.5573165319650701e+02 1.0000000000000000e+00 6.5385590610375193e+00 8.4138910888590193e+00 1.0214422871687171e+01 
59 1 2 1.0280000000000202e+00 -4.0623142204310597e+02 1.0000000000000000e+00 6.5380360703838791e+00 8.4141869034777024e+00 1.0213797363855496e+01 
57 1 2 1.0280000000000002e+00 -3.6901766518141170e+02 1.0000000000000000e+00 6.5385142401902678e+00 8.4132618276913860e+00 1.0215742007821204e+01 
64 1 2 1.0280000000000000e+00 -2.1983968829145348e+02 1.0000000000000000e+00 6.5381351991405801e+00 8.4132742354161536e+00 1.0215715037870055e+01 
28 1 2 1.0280000000000000e+00 -3.6768078972686305e+02 1.0000000000000000e+00 6.5383554285615286e+00 8.4133086837574460e+00 1.0215643795185800e+01 
21 1 2 1.0280000000000034e+00 -5.8786059946594560e+02 1.0000000000000000e+00 6.5386276954779872e+00 8.4133322772155044e+00 1.0215595023571375e+01 
58 1 2 1.0280000000000031e+00 -4.0567332141228860e+02 1.0000000000000000e+00 6.5385055136773929e+00 8.4133565314335286e+00 1.0215544141676030e+01 
23 1 2 1.0279999999999867e+00 -5.3153150818902748e+02 1.0000000000000000e+00 6.5387123474428988e+00 8.4137701950880484e+00 1.0214677346494973e+01 
22 1 2 1.0279999999999923e+00 -4.3211992271308486e+02 1.0000000000000000e+00 6.5387508743616554e+00 8.4135710751928805e+00 1.0215095326779979e+01 
16 1 2 1.0279999999999985e+00 -4.6432744661928149e+02 1.0000000000000000e+00 6.5388083433765107e+00 8.4136288738654699e+00 1.0214974144466892e+01 
51 1 2 1.0280000000000364e+00 -4.2121774436815411e+02 1.0000000000000000e+00 6.5138806663770161e+00 7.9665714165210320e+00 1.0492405600258861e+01 
15 1 2 1.0280000000000398e+00 -5.5285928509220787e+02 1.0000000000000000e+00 6.3387106406841660e+00 7.9290797989973560e+00 1.0455910646256182e+01 
36 1 2 2.9710547417197863e-01 -4.3769885467439309e+02 1.0000000000000000e+00 5.2446962877139098e+00 1.6432317507534140e+01 1.4940583235071919e+01 
29 1 2 2.9710547417197863e-01 -3.9103767948597613e+02 1.0000000000000000e+00 5.2446962877138548e+00 1.6432317507534101e+01 1.4940583235071950e+01 
30 1 2 2.9710547417197863e-01 -4.4940278191460726e+02 1.0000000000000000e+00 5.2446962877138752e+00 1.6432317507533895e+01 1.4940583235071902e+01 
35 1 2 2.9710547417197863e-01 -3.8292808597960129e+02 1.0000000000000000e+00 5.2446962877138770e+00 1.6432317507533927e+01 1.4940583235071841e+01 
37 1 2 5.9421094834395738e-01 -4.6289648242131312e+02 1.0000000000000000e+00 1.0903716165484068e+01 2.5547804892425297e+00 4.5825825023908910e+00 
38 1 2 5.9421094834395738e-01 -4.4567075346149142e+02 1.0000000000000000e+00 1.0903716165484022e+01 2.5547804892425252e+00 4.5825825023908591e+00 
44 1 2 5.9421094834395738e-01 -3.9516620625142775e+02 1.0000000000000000e+00 1.0903716165484152e+01 2.5547804892425354e+00 4.5825825023908564e+00 
74 1 2 5.9421094834395738e-01 -4.7478727561199906e+02 1.0000000000000000e+00 1.0903716165484024e+01 2.5547804892425292e+00 4.5825825023908635e+00 
75 1 2 5.9421094834395738e-01 -4.2599002134261303e+02 1.0000000000000000e+00 1.0903716165484152e+01 2.5547804892425536e+00 4.5825825023908804e+00 
111 1 2 5.9421094834395738e-01 -3.2596887660107774e+02 1.0000000000000000e+00 1.0903716165484118e+01 2.5547804892425479e+00 4.5825825023908475e+00 
80 1 2 5.9421094834395738e-01 -3.9973184739879611e+02 1.0000000000000000e+00 1.0903716165484060e+01 2.5547804892425341e+00 4.5825825023908635e+00 
81 1 2 5.9421094834395738e-01 -2.6913489746488528e+02 1.0000000000000000e+00 1.0903716165484102e+01 2.5547804892425439e+00 4.5825825023908937e+00 
34 1 2 1.0279999999999943e+00 -1.9215779688230270e+02 1.0000000000000000e+00 6.7717274174160300e+00 5.6860596704346955e+00 9.1938411609728785e+00 
20 1 2 1.0279999999999938e+00 -4.0051489190416100e+02 1.0000000000000000e+00 6.8031252230700776e+00 5.7795592999302698e+00 7.8267029174682303e+00 
14 1 2 1.0280000000000142e+00 -4.5980608613914194e+02 1.0000000000000000e+00 6.7696861768302590e+00 5.8751435848690736e+00 7.8124987837673432e+00 
4 1 2 1.0279999999999745e+00 -2.2758359353865376e+02 1.0000000000000000e+00 6.6815492645063133e+00 5.6607864960958887e+00 9.1865144120697284e+00 
1 1 2 1.0279999999999907e+00 -4.2623993030564941e+02 1.0000000000000000e+00 7.2313575146411146e+00 3.6747918067625647e+00 1.6716512497224365e+01 
42 1 2 1.0280000000000000e+00 -4.5405038685072572e+02 1.0000000000000000e+00 6.8649002176230232e+00 3.4467101065885846e+00 1.7041379579392586e+01 
41 1 2 1.0280000000000045e+00 -3.9481469930628180e+02 1.0000000000000000e+00 6.8872296929651347e+00 3.4473740933750117e+00 1.7024142296117073e+01 
6 1 2 1.0280000000000105e+00 -4.8392972743352419e+02 1.0000000000000000e+00 6.7873913414220493e+00 3.4527736626256744e+00 1.7101484273943846e+01 
48 1 2 1.0280000000000218e+00 -4.7581338627944672e+02 1.0000000000000000e+00 8.1005039985007521e+00 4.9759329216392301e+00 1.7389909970913919e+01 
7 1 2 1.0279999999999709e+00 -5.4286304950973170e+02 1.0000000000000000e+00 6.8796511407957865e+00 4.4249728517446698e+00 1.8604170949508280e+01 
47 1 2 1.0280000000000000e+00 -6.8055326126070906e+02 1.0000000000000000e+00 6.8184351689489384e+00 3.4851039154454857e+00 1.7024389506929882e+01 
5 1 2 1.0279999999999996e+00 -6.1168153758414689e+02 1.0000000000000000e+00 6.8006795605850616e+00 3.4961016954034432e+00 1.7024882443111736e+01 
49 1 2 1.0279999999999878e+00 -5.8396552133976957e+02 1.0000000000000000e+00 7.2948987773343630e+00 4.8195208086144472e+00 1.8605614433464112e+01 
84 1 2 1.0280000000000153e+00 -3.2591781729630719e+02 1.0000000000000000e+00 8.1147260554281555e+00 4.9426219513521259e+00 1.7358975710019788e+01 
18 1 2 1.0279999999999723e+00 -5.7064551189196527e+02 1.0000000000000000e+00 7.1918474557560987e+00 4.7371817390265960e+00 1.8630661698631805e+01 
43 1 2 1.0279999999999556e+00 -5.6003543743345563e+02 1.0000000000000000e+00 7.0755313979524592e+00 4.6297274872515795e+00 1.8641169604076108e+01 
90 1 2 1.0280000000000191e+00 -4.2040324755326492e+02 1.0000000000000000e+00 8.1159405688900215e+00 4.9753197404867873e+00 1.7431994545330387e+01 
13 1 2 1.0279999999999803e+00 -6.1813369546538161e+02 1.0000000000000000e+00 7.1005828332541290e+00 4.6565537877732499e+00 1.8639912525636902e+01 
54 1 2 1.0280000000000069e+00 -3.6772318234058412e+02 1.0000000000000000e+00 8.1159537783193212e+00 4.9811674213970196e+00 1.7447012958058600e+01 
79 1 2 1.0280000000000071e+00 -4.1869439280852697e+02 1.0000000000000000e+00 7.9269416080355581e+00 5.1002431196670672e+00 1.8093151502866117e+01 
8 1 2 1.0280000000000471e+00 -5.7847404512502283e+02 1.0000000000000000e+00 7.1419824936955170e+00 4.6907644638826786e+00 1.8638426325273322e+01 
89 1 2 1.0279999999999896e+00 -4.1742164211575255e+02 1.0000000000000000e+00 8.1024818835326418e+00 4.8538842143407352e+00 1.7208088946853902e+01 
12 1 2 1.0280000000000069e+00 -7.0251953750375003e+02 1.0000000000000000e+00 6.7871545398410973e+00 3.4917675704069424e+00 1.7042876565113811e+01 
11 1 2 1.0279999999999909e+00 -5.0776422852525127e+02 1.0000000000000000e+00 6.7876261909272211e+00 3.5093007722812040e+00 1.7019238878041609e+01 
68 1 2 5.9421094834395738e-01 -4.5430798437339104e+02 1.0000000000000000e+00 6.9892752032144596e+00 1.6525604226337649e+01 6.4281920829884847e+00 
33 1 2 5.9421094834395738e-01 -4.4826710081335750e+02 1.0000000000000000e+00 6.9892752032144054e+00 1.6525604226337641e+01 6.4281920829884376e+00 
2 1 2 5.9421094834395738e-01 -4.1239283740281121e+02 1.0000000000000000e+00 6.9892752032144703e+00 1.6525604226337563e+01 6.4281920829884598e+00 
32 1 2 5.9421094834395738e-01 -4.7726821484110371e+02 1.0000000000000000e+00 6.9892752032144321e+00 1.6525604226337574e+01 6.4281920829884331e+00 
27 1 2 5.9421094834395738e-01 -5.1478804574112223e+02 1.0000000000000000e+00 6.9892752032144241e+00 1.6525604226337624e+01 6.4281920829884820e+00 
69 1 2 5.9421094834395738e-01 -4.2746869448302130e+02 1.0000000000000000e+00 6.9892752032144632e+00 1.6525604226337812e+01 6.4281920829884385e+00 
63 1 2 5.9421094834395738e-01 -3.5184001571673605e+02 1.0000000000000000e+00 6.9892752032144347e+00 1.6525604226337784e+01 6.4281920829884438e+00 
62 1 2 5.9421094834395738e-01 -3.5900023006606466e+02 1.0000000000000000e+00 6.9892752032144116e+00 1.6525604226337812e+01 6.4281920829884367e+00 
65 1 2 6.6848731688695207e-01 -3.2930598071593226e+02 1.0000000000000000e+00 1.0739468045510028e+01 1.5150043441346392e+01 1.2141209562426482e+01 
70 1 2 6.6848731688695207e-01 -3.8222677455487423e+02 1.0000000000000000e+00 1.0739468045509913e+01 1.5150043441346286e+01 1.2141209562426585e+01 
71 1 2 6.6848731688695207e-01 -4.1044953624883726e+02 1.0000000000000000e+00 1.0739468045510035e+01 1.5150043441346298e+01 1.2141209562426484e+01 
100 1 2 6.6848731688695207e-01 -4.4629183879481991e+02 1.0000000000000000e+00 1.0739468045509902e+01 1.5150043441346275e+01 1.2141209562426580e+01 
137 1 2 6.6848731688695207e-01 -4.1697856126215748e+02 1.0000000000000000e+00 1.0739468045510026e+01 1.5150043441346304e+01 1.2141209562426617e+01 
107 1 2 6.6848731688695207e-01 -3.9392375005282679e+02 1.0000000000000000e+00 1.0739468045510009e+01 1.5150043441346392e+01 1.2141209562426587e+01 
101 1 2 6.6848731688695207e-01 -4.2872593911464696e+02 1.0000000000000000e+00 1.0739468045509993e+01 1.5150043441346327e+01 1.2141209562426598e+01 
106 1 2 6.6848731688695207e-01 -3.8565585626433437e+02 1.0000000000000000e+00 1.0739468045509922e+01 1.5150043441346359e+01 1.2141209562426489e+01 
143 1 2 6.6848731688695207e-01 -3.2484975756330840e+02 1.0000000000000000e+00 1.0739468045509902e+01 1.5150043441346286e+01 1.2141209562426519e+01 
66 1 2 1.0279999999998557e+00 -6.2110254925054085e+02 1.0000000000000000e+00 8.6235940990440891e+00 1.3225630694684147e+01 1.9800405118584429e+01 
55 1 2 1.0280000000000786e+00 -5.0372192808149759e+02 1.0000000000000000e+00 8.7138691794188468e+00 1.3281919215946562e+01 1.9765622078859263e+01 
61 1 2 1.0280000000001948e+00 -5.7925724912976352e+02 1.0000000000000000e+00 8.7032945430298234e+00 1.2983036881328699e+01 1.9565097261036229e+01 
25 1 2 1.0280000000000620e+00 -4.9068276664670009e+02 1.0000000000000000e+00 8.8993855820391836e+00 1.3181159669591189e+01 1.9659552832547075e+01 
97 1 2 1.0279999999998253e+00 -5.7025950275953278e+02 1.0000000000000000e+00 8.5761499154883509e+00 1.3003497060412656e+01 1.9741423584294768e+01 
26 1 2 1.0280000000001168e+00 -4.1694666601755051e+02 1.0000000000000000e+00 8.9231815304758957e+00 1.3108489418790803e+01 1.9723141802314935e+01 
31 1 2 1.0280000000000973e+00 -5.4214725611272218e+02 1.0000000000000000e+00 8.7680870704758398e+00 1.2921028782823935e+01 1.9664455312404417e+01 
103 1 2 1.0279999999999410e+00 -4.7194974933002396e+02 1.0000000000000000e+00 8.8325971209020633e+00 1.2941625686367427e+01 1.9686641340647835e+01 
67 1 2 1.0280000000000822e+00 -5.6556552283486144e+02 1.0000000000000000e+00 8.6898606688896329e+00 1.2918058080681083e+01 1.9703860292689502e+01 
72 1 2 1.0280000000001250e+00 -5.2800926227375578e+02 1.0000000000000000e+00 8.7139856317916617e+00 1.2925452146565361e+01 1.9643607166314869e+01 
19 1 2 1.0280000000000487e+00 -4.6787013107352607e+02 1.0000000000000000e+00 8.7956780961901675e+00 1.3281467182848518e+01 1.9715713604661666e+01 
60 1 2 1.0280000000000840e+00 -3.0421301628495900e+02 1.0000000000000000e+00 8.6671065384966575e+00 1.3263377508590047e+01 1.9782460339390632e+01 
24 1 2 1.0279999999998399e+00 -4.9448920062413026e+02 1.0000000000000000e+00 8.8041960600916962e+00 1.3273899168083167e+01 1.9669405387939378e+01 
91 1 2 1.0279999999998433e+00 -2.6122433252511524e+02 1.0000000000000000e+00 8.5720960032146376e+00 1.3122139200853214e+01 1.9804256151252520e+01 
109 1 2 1.0279999999999965e+00 -2.7472357976088733e+02 1.0000000000000000e+00 1.5283698987671189e+01 2.1380144866382085e+00 1.4218343563240741e+00 
151 1 2 1.0279999999999971e+00 -3.1838303278236998e+02 1.0000000000000000e+00 1.5283730690327682e+01 2.1379782890289341e+00 1.4218424470473117e+00 
145 1 2 1.0280000000000051e+00 -3.0795547911127716e+02 1.0000000000000000e+00 1.5283731859076070e+01 2.1379705719941495e+00 1.4218456341829666e+00 
110 1 2 1.0280000000000018e+00 -3.6971491786670197e+02 1.0000000000000000e+00 1.5283715735065673e+01 2.1379465024010011e+00 1.4218607468497058e+00 
146 1 2 1.0280000000000034e+00 -3.5955341096619543e+02 1.0000000000000000e+00 1.5283722590840835e+01 2.1379529671233843e+00 1.4218560272908489e+00 
153 1 2 1.0279999999999960e+00 -2.8872296571801178e+02 1.0000000000000000e+00 1.5283652585011247e+01 2.1379691924202437e+00 1.4218669965970725e+00 
116 1 2 1.0279999999999960e+00 -4.8401036134793918e+02 1.0000000000000000e+00 1.5283681429300374e+01 2.1379557441327393e+00 1.4218655387465533e+00 
152 1 2 1.0279999999999996e+00 -4.3326286434983024e+02 1.0000000000000000e+00 1.5283692687225123e+01 2.1379591279683483e+00 1.4218610622834762e+00 
117 1 2 1.0280000000000018e+00 -3.0728974216619611e+02 1.0000000000000000e+00 1.5283646660096604e+01 2.1379697575054184e+00 1.4218682904188191e+00 
162 1 2 2.9710547417197863e-01 -5.3086421580942226e+02 1.0000000000000000e+00 1.6343373718632840e+01 8.2038581400690820e+00 1.8581446994508702e-01 
121 1 2 2.9710547417197863e-01 -3.5844156429006699e+02 1.0000000000000000e+00 1.6343373718632645e+01 8.2038581400689843e+00 1.8581446994508799e-01 
157 1 2 2.9710547417197863e-01 -4.1954377537665937e+02 1.0000000000000000e+00 1.6343373718632879e+01 8.2038581400690607e+00 1.8581446994508621e-01 
163 1 2 2.9710547417197863e-01 -4.8611229654441894e+02 1.0000000000000000e+00 1.6343373718632712e+01 8.2038581400689594e+00 1.8581446994508691e-01 
112 1 2 1.0279999999999947e+00 -3.1721595282946168e+02 1.0000000000000000e+00 1.5229250813839725e+01 1.6613566272855589e+00 1.0881646815969066e+01 
177 1 2 1.0279999999999954e+00 -4.5934916596096468e+02 1.0000000000000000e+00 1.5322935564352818e+01 1.6981270340432040e+00 1.0866443282556212e+01 
147 1 2 1.0279999999999994e+00 -5.9528367268835177e+02 1.0000000000000000e+00 1.5309333625326234e+01 1.6914758101990903e+00 1.0869818953517409e+01 
178 1 2 1.0279999999999958e+00 -5.6218021659569547e+02 1.0000000000000000e+00 1.5312797761618326e+01 1.7232439030952338e+00 1.0802517883699501e+01 
148 1 2 1.0279999999999951e+00 -5.0566697773933765e+02 1.0000000000000000e+00 1.5313841875762909e+01 1.7161504625598456e+00 1.0817655813989305e+01 
142 1 2 1.0280000000000011e+00 -4.2049815308654610e+02 1.0000000000000000e+00 1.5362590979468337e+01 1.7651334005643735e+00 1.0766153016395938e+01 
160 1 2 1.0279999999999783e+00 -2.9956878545783877e+02 1.0000000000000000e+00 1.4407338145051506e+01 2.3528491346130007e+00 1.1841318388818509e+01 
155 1 2 1.0280000000000300e+00 -4.7312378917468095e+02 1.0000000000000000e+00 1.4547320427339725e+01 2.4901146772686773e+00 1.1959859129918197e+01 
124 1 2 1.0279999999999976e+00 -4.4763809194081921e+02 1.0000000000000000e+00 1.4316550552735640e+01 2.1915573076015127e+00 1.1671616928504605e+01 
154 1 2 1.0279999999999765e+00 -4.0406590411280791e+02 1.0000000000000000e+00 1.4494959701231823e+01 2.4144012761569664e+00 1.1921511360905342e+01 
88 1 2 1.0279999999999887e+00 -3.6623620539333126e+02 1.0000000000000000e+00 1.4286931732464193e+01 2.1400573022340197e+00 1.1582184149066070e+01 
83 1 2 1.0280000000000065e+00 -5.2211903881263015e+02 1.0000000000000000e+00 1.5397066799088998e+01 3.2725640243528500e+00 1.0852054414366693e+01 
119 1 2 1.0280000000000034e+00 -6.0279441500248436e+02 1.0000000000000000e+00 1.5429100019873946e+01 3.2855818312844178e+00 1.0927593691806610e+01 
113 1 2 1.0280000000000098e+00 -3.1013871125688513e+02 1.0000000000000000e+00 1.5387447545399782e+01 3.3144616673781799e+00 1.0949453249506409e+01 
76 1 2 1.0279999999999978e+00 -3.9428639346518264e+02 1.0000000000000000e+00 1.5289897511203895e+01 3.3329880550522342e+00 1.0886653904854018e+01 
77 1 2 1.0279999999999963e+00 -4.0929092748502188e+02 1.0000000000000000e+00 1.5313986824645664e+01 3.3441662868820949e+00 1.0943820600972892e+01 
82 1 2 1.0280000000000113e+00 -4.6996479412877244e+02 1.0000000000000000e+00 1.4684598956963843e+01 3.3530724202829338e+00 1.1331482285430562e+01 
118 1 2 1.0280000000000047e+00 -5.8626718121055603e+02 1.0000000000000000e+00 1.4873270638039591e+01 3.3737530504769717e+00 1.1468798719921693e+01 
78 1 2 1.0279999999999976e+00 -3.0203278444149748e+02 1.0000000000000000e+00 1.5241263958018402e+01 1.9795019508730658e+00 1.9445523062103828e+01 
115 1 2 1.0280000000000014e+00 -2.8534604678928048e+02 1.0000000000000000e+00 1.4609734454489026e+01 8.7050472905967136e-01 1.9731633043629156e+01 
156 1 2 1.0280000000000025e+00 -4.7347229046241370e+02 1.0000000000000000e+00 1.4529969744708696e+01 9.0907053376493019e-01 1.9740453402600512e+01 
150 1 2 1.0280000000000005e+00 -2.8827126086902581e+02 1.0000000000000000e+00 1.4510547180041142e+01 9.3864927287331790e-01 1.9718578472791023e+01 
149 1 2 1.0280000000000036e+00 -2.8634285858807812e+02 1.0000000000000000e+00 1.4502144328148113e+01 9.3343600698316653e-01 1.9733094697881086e+01 
114 1 2 1.0280000000000036e+00 -3.6682530545686473e+02 1.0000000000000000e+00 1.4529704026601538e+01 9.3804495382138431e-01 1.9702695343337759e+01 
120 1 2 1.0280000000000038e+00 -4.0990317362591821e+02 1.0000000000000000e+00 1.4582685872069332e+01 9.1278800301278873e-01 1.9693340023024980e+01 
108 1 2 1.0280000000000005e+00 -4.0390710325003624e+02 1.0000000000000000e+00 1.5186019094765300e+01 1.8956667138038745e+00 1.9395906666592122e+01 
144 1 2 1.0279999999999958e+00 -4.1146146786548246e+02 1.0000000000000000e+00 1.5176980039820041e+01 1.8964434312036982e+00 1.9393932469455340e+01 
139 1 2 1.0279999999999903e+00 -5.1256166345911686e+02 1.0000000000000000e+00 1.5165941503719132e+01 1.8867578628488990e+00 1.9387948458554654e+01 
73 1 2 1.0280000000000020e+00 -2.6285100836255486e+02 1.0000000000000000e+00 1.4616968381269276e+01 9.2819051163347077e-01 1.9652491163395915e+01 
134 1 2 1.0280000000000016e+00 -2.6104037751193727e+02 1.0000000000000000e+00 1.4636593638271563e+01 1.2558078946109010e+01 3.5760815621319924e+00 
133 1 2 1.0280000000000113e+00 -4.3515346739930334e+02 1.0000000000000000e+00 1.4699458626110838e+01 1.2867885949750697e+01 3.8766087896728907e+00 
175 1 2 1.0280000000000038e+00 -5.5159184393753719e+02 1.0000000000000000e+00 1.4586013203493035e+01 1.2417983812294800e+01 3.5042624627793146e+00 
169 1 2 1.0280000000000020e+00 -5.6484648816351364e+02 1.0000000000000000e+00 1.4663144086378781e+01 1.2667019965035928e+01 3.6518071929228673e+00 
140 1 2 1.0280000000000005e+00 -3.1845024382068721e+02 1.0000000000000000e+00 1.4689955179563830e+01 1.2631489489277985e+01 3.6436751101126728e+00 
170 1 2 1.0280000000000058e+00 -3.8543351457123782e+02 1.0000000000000000e+00 1.4636271922796206e+01 1.2758530408074435e+01 3.7083882595468176e+00 
176 1 2 1.0280000000000018e+00 -3.4633759329102833e+02 1.0000000000000000e+00 1.4675734323880320e+01 1.2622441032881962e+01 3.6300855038165780e+00 
127 1 2 1.0280000000000016e+00 -2.6675284195770303e+02 1.0000000000000000e+00 1.3609644124460599e+01 1.1408244339391681e+01 5.5684099568342242e+00 
128 1 2 1.0280000000000209e+00 -3.0961270982967875e+02 1.0000000000000000e+00 1.3621741832339135e+01 1.1386554386059048e+01 5.5603238106024513e+00 
99 1 2 1.0279999999999856e+00 -3.6479939139213803e+02 1.0000000000000000e+00 1.3836120272715672e+01 1.3045649404237302e+01 4.7079233665127846e+00 
141 1 2 1.0279999999999963e+00 -3.7952900205167771e+02 1.0000000000000000e+00 1.4792225894584680e+01 1.1259915203199981e+01 4.2023608028728106e+00 
104 1 2 1.0280000000000020e+00 -3.5966152626832940e+02 1.0000000000000000e+00 1.4761321288643433e+01 1.1253046545724645e+01 4.1622239743463565e+00 
105 1 2 1.0279999999999778e+00 -3.2453583841647190e+02 1.0000000000000000e+00 1.4758112989493545e+01 1.1248978330092473e+01 4.1659215573692139e+00 
123 1 2 1.0280000000000142e+00 -3.4543407622721571e+02 1.0000000000000000e+00 1.3553826496231004e+01 1.1409652127016303e+01 5.5225094865056983e+00 
87 1 2 1.0279999999999816e+00 -2.9517977622574062e+02 1.0000000000000000e+00 1.3559568505973758e+01 1.1405466988382171e+01 5.5243114741941231e+00 
86 1 2 1.0280000000000125e+00 -3.8510727728797673e+02 1.0000000000000000e+00 1.3513537301246510e+01 1.1386416832068258e+01 5.4623519766873745e+00 
98 1 2 1.0280000000000249e+00 -4.1486309542246079e+02 1.0000000000000000e+00 1.3945609992648686e+01 1.3097675426502160e+01 4.5966816376692243e+00 
93 1 2 1.0280000000000096e+00 -4.3284772785867165e+02 1.0000000000000000e+00 1.4137363641884940e+01 1.3125328176066695e+01 4.6119973449780796e+00 
122 1 2 1.0279999999999725e+00 -3.6576382111144426e+02 1.0000000000000000e+00 1.3425669611815305e+01 1.1301472093921070e+01 5.2392423986894565e+00 
85 1 2 1.0279999999999605e+00 -3.9968312349841210e+02 1.0000000000000000e+00 1.3480116940033922e+01 1.1364693102233721e+01 5.4022634714000004e+00 
92 1 2 1.0280000000000062e+00 -3.7094603264022533e+02 1.0000000000000000e+00 1.3464672937741202e+01 1.1369431739805147e+01 5.3878065095383976e+00 
166 1 2 1.0279999999999943e+00 -4.1488199915881557e+02 1.0000000000000000e+00 1.4471017338592850e+01 1.1383000300741740e+01 8.7570299833516536e+00 
158 1 2 1.0280000000000182e+00 -4.3691118230478520e+02 1.0000000000000000e+00 1.4087049221958152e+01 1.0840281016501322e+01 9.7270172129112638e+00 
159 1 2 1.0280000000000058e+00 -3.0186811804001439e+02 1.0000000000000000e+00 1.4155904444400536e+01 1.1129471202893935e+01 8.9809987108091569e+00 
165 1 2 1.0279999999999982e+00 -4.1949472004078177e+02 1.0000000000000000e+00 1.4100248421682933e+01 1.1232389934733670e+01 9.0621446894619506e+00 
172 1 2 1.0279999999999605e+00 -3.2169228477068356e+02 1.0000000000000000e+00 1.4442902259375712e+01 1.1318649164201494e+01 8.7494064639786764e+00 
129 1 2 1.0279999999999754e+00 -4.6874768224656873e+02 1.0000000000000000e+00 1.5387521416365438e+01 1.0892602399932045e+01 9.2529718696476149e+00 
135 1 2 1.0279999999999749e+00 -4.2624111387291896e+02 1.0000000000000000e+00 1.4362632177743938e+01 1.1826446138233129e+01 9.4219952009383245e+00 
136 1 2 1.0279999999999907e+00 -5.4710510793720903e+02 1.0000000000000000e+00 1.5558195687965707e+01 1.1187780119467044e+01 9.6456761495543510e+00 
171 1 2 1.0280000000000526e+00 -4.6675684959020049e+02 1.0000000000000000e+00 1.4545963946991321e+01 1.1577649950434580e+01 8.8462451105785718e+00 
125 1 2 1.0280000000000429e+00 -4.5448813970748620e+02 1.0000000000000000e+00 1.5473453181715508e+01 1.1001683267756903e+01 9.9882721990719023e+00 
130 1 2 1.0279999999999780e+00 -4.8196980461578181e+02 1.0000000000000000e+00 1.4642989107564819e+01 1.1127633904417223e+01 1.0419743407392589e+01 
95 1 2 1.0279999999999772e+00 -2.7729311823806398e+02 1.0000000000000000e+00 1.4784269109093213e+01 1.1206021604242435e+01 1.0436662344768896e+01 
94 1 2 1.0280000000000056e+00 -3.1744431754094819e+02 1.0000000000000000e+00 1.4661608968841922e+01 1.1142455734022587e+01 1.0424199060230473e+01 
167 1 2 1.0280000000000338e+00 -4.6913755628039121e+02 1.0000000000000000e+00 1.5422716500614751e+01 1.0930254982787737e+01 1.0042645006708888e+01 
161 1 2 1.0279999999999667e+00 -4.9346432757368473e+02 1.0000000000000000e+00 1.5430348962947003e+01 1.0983821431360099e+01 1.0061498632955018e+01 
164 1 2 1.0279999999999607e+00 -5.2455508785279119e+02 1.0000000000000000e+00 1.4220590818049407e+01 1.1300899369429075e+01 1.0166146298190888e+01 
131 1 2 1.0280000000000438e+00 -2.9007271124724394e+02 1.0000000000000000e+00 1.5460690952394211e+01 1.0998275769003442e+01 1.0013384661333781e+01 
173 1 2 1.4855273708598932e-01 -2.0035246510023109e+02 1.0000000000000000e+00 1.7827052022156526e+01 1.5368831110420688e+01 1.2881097145637147e+01 
179 1 2 1.4855273708598932e-01 -2.2554858889307204e+02 1.0000000000000000e+00 1.7827052022156536e+01 1.5368831110420624e+01 1.2881097145637128e+01 
180 1 2 5.9421094834395738e-01 -4.9212595331316078e+02 1.0000000000000000e+00 1.4087156603243416e+01 1.2326945653649233e+01 1.7936172772397601e+01 
138 1 2 5.9421094834395738e-01 -4.4994443239362920e+02 1.0000000000000000e+00 1.4087156603243461e+01 1.2326945653649114e+01 1.7936172772397644e+01 
96 1 2 5.9421094834395738e-01 -3.0181115828247442e+02 1.0000000000000000e+00 1.4087156603243349e+01 1.2326945653649103e+01 1.7936172772397697e+01 
132 1 2 5.9421094834395738e-01 -3.2723029235522921e+02 1.0000000000000000e+00 1.4087156603243477e+01 1.2326945653649213e+01 1.7936172772397612e+01 
168 1 2 5.9421094834395738e-01 -4.1961433195954402e+02 1.0000000000000000e+00 1.4087156603243443e+01 1.2326945653649137e+01 1.7936172772397654e+01 
126 1 2 5.9421094834395738e-01 -4.1825681161656780e+02 1.0000000000000000e+00 1.4087156603243351e+01 1.2326945653649199e+01 1.7936172772397462e+01 
102 1 2 5.9421094834395738e-01 -3.2170824362062660e+02 1.0000000000000000e+00 1.4087156603243463e+01 1.2326945653649139e+01 1.7936172772397526e+01 
174 1 2 5.9421094834395738e-01 -4.3757754677959758e+02 1.0000000000000000e+00 1.4087156603243358e+01 1.2326945653649210e+01 1.7936172772397544e+01 

Velocities

9 1.7977128669827295e-13 -5.3106218542100675e-13 -9.4781045108020805e-13
3 5.1172606382307360e-13 6.2599334658904184e-13 3.1284234328286034e-12
52 2.8209291479164762e-13 8.6191179289776914e-13 -5.0596315088331005e-13
45 5.1266794451342023e-14 -2.9476100034060234e-12 -1.9037175560500532e-12
46 6.6869475474833879e-14 -2.2983678742429254e-12 -1.6209317418445709e-12
10 -5.5477534956603515e-14 -4.0404786678648578e-12 -2.2508929156502810e-12
50 1.3497038361854176e-13 -2.2417183140894062e-12 -1.0027871851009274e-12
39 9.2470166228810019e-14 -4.4400552080195920e-12 -3.1724302069015113e-12
40 1.8413875586050860e-13 -4.4246122016885447e-12 -2.6732728967597716e-12
56 1.8936842245673975e-12 -1.8344784189749602e-12 4.3859191469710369e-12
17 9.0726570349614616e-14 -1.6218356796628785e-12 -1.2827429658521675e-12
53 1.7075594598347593e-13 8.8650469722556558e-12 3.4618482138995848e-12
59 1.3218760849117551e-13 4.5731733398967198e-12 1.5117417725111117e-12
57 1.1799568286515967e-13 1.8707601042189887e-12 3.0286727623915447e-13
64 1.1671087428974065e-13 1.8397602953168665e-12 2.8859551453166725e-13
28 1.1732366071308267e-13 1.8398238761493836e-12 2.8837958694293813e-13
21 1.2165785442045640e-13 2.2986543029052899e-12 4.9785487392457850e-13
58 1.2090467699800203e-13 2.2681687001171750e-12 4.8366584812153818e-13
23 1.0389871908227683e-13 4.8572085286948929e-14 -5.2692185671126982e-13
22 1.0990085009046041e-13 7.9948150219352456e-13 -1.8680100668152410e-13
16 1.1679312538995622e-13 1.6266098691424746e-12 1.8918974005133202e-13
51 -3.2272010814476238e-13 -1.5965023541740337e-13 8.7319227461635478e-12
15 -4.0146260460758253e-12 -6.4871542016126915e-13 8.8471981270260911e-12
36 -4.3566493132738202e-12 -1.7679124319084762e-11 -2.3361699993077744e-12
29 3.4726877885106565e-12 -1.2122828104515374e-11 -6.6296716196573156e-12
30 5.6826022180366301e-13 1.7174006481398550e-11 1.8941918913307521e-13
35 3.1570130295958054e-13 1.2627945942205522e-11 8.7764224298321917e-12
37 2.5673669590674792e-12 1.0401246692743563e-12 -2.9183352144388487e-12
38 8.7931487498718610e-12 1.6387575337746047e-12 1.3918214099630349e-12
44 -8.7796400333054159e-12 2.6190194542402180e-13 1.7510011286631798e-12
74 8.5536956040704149e-12 1.0999879557243777e-12 7.9318854546274940e-13
75 -8.7796400333054159e-12 -2.1924933366679464e-12 -1.4816163396381740e-12
111 -4.1373211233352653e-12 -1.4142700751767154e-12 2.9482668576637186e-12
80 3.7646326880680754e-12 4.4149180477410517e-13 7.9318854546274970e-13
81 -1.9822428111344147e-12 -8.7550049712647153e-13 -3.2775149331389352e-12
34 -2.6088787990102518e-13 -1.4364848579548454e-12 -3.6113587767356335e-12
20 -4.5169483347173703e-13 -1.8169860882254294e-12 -4.8674391053331668e-14
14 9.0996788815835519e-13 -1.6646139365694828e-12 -4.4183155256797102e-12
4 -5.2040711979611847e-13 2.5887129047297426e-12 -7.9649856522264486e-12
1 -1.3749884318798571e-12 1.4480242804187830e-12 4.7697062077597580e-12
42 -1.0685542379229564e-12 1.8970304950786243e-13 2.1417064748814964e-12
41 -1.5390998662276318e-12 -8.1753646256794296e-13 1.4602381985174668e-12