LAMMPS data file via write_data, version 30 Jul 2016, timestep = 50000000

180 atoms
2 atom types

0.0000000000000000e+00 2.0000000000000000e+01 xlo xhi
0.0000000000000000e+00 2.0000000000000000e+01 ylo yhi
0.0000000000000000e+00 2.0000000000000000e+01 zlo zhi

Masses

1 3.896
2 4.31

Atoms # meso-molecular

135 1 2 1.0280021688864172e+00 -2.7764267107913469e+02 1.0000000000000000e+00 3.4073571318312852e+00 3.7304195595079856e+00 1.0998824997991191e+01 
93 1 2 1.0280021688864176e+00 -2.2372152711088552e+02 1.0000000000000000e+00 3.4073571318309845e+00 3.7304195595080318e+00 1.0998824997991228e+01 
99 1 2 1.0280021688864172e+00 -2.3628671823832605e+02 1.0000000000000000e+00 3.4073571318310969e+00 3.7304195595080403e+00 1.0998824997991134e+01 
130 1 2 1.0280021688864172e+00 -2.6408393691069472e+02 1.0000000000000000e+00 3.4073571318313292e+00 3.7304195595079608e+00 1.0998824997991235e+01 
129 1 2 1.0280021688864174e+00 -2.8436812827959517e+02 1.0000000000000000e+00 3.4073571318312368e+00 3.7304195595079714e+00 1.0998824997991262e+01 
136 1 2 1.0280021688864172e+00 -2.0382207029106496e+02 1.0000000000000000e+00 3.4073571318312172e+00 3.7304195595080016e+00 1.0998824997991180e+01 
144 1 2 1.0279966583687739e+00 -1.5699174752209527e+02 1.0000000000000000e+00 3.9042860845769507e+00 5.8257651513773983e+00 1.1349507210431655e+01 
103 1 2 1.0279966583687743e+00 -1.9932260907139798e+02 1.0000000000000000e+00 3.9042860845769551e+00 5.8257651513774187e+00 1.1349507210431684e+01 
108 1 2 1.0279966583687739e+00 -2.1676594995433018e+02 1.0000000000000000e+00 3.9042860845769272e+00 5.8257651513774240e+00 1.1349507210431675e+01 
131 1 2 1.0279966583687739e+00 -2.1815157799332417e+02 1.0000000000000000e+00 3.9042860845768588e+00 5.8257651513773903e+00 1.1349507210431595e+01 
147 1 2 1.0280023631204951e+00 -2.2705979932764518e+02 1.0000000000000000e+00 3.7435585881734639e+00 5.9297272561021046e+00 1.3166764386868756e+01 
152 1 2 1.0280023631230033e+00 -2.2537125577330465e+02 1.0000000000000000e+00 3.7435580841539777e+00 5.9297263448484658e+00 1.3166765421728753e+01 
154 1 2 1.0280023631205331e+00 -1.2079954542853955e+02 1.0000000000000000e+00 3.7435585910506894e+00 5.9297272613336176e+00 1.3166764380948857e+01 
153 1 2 1.0280023633797544e+00 -2.2301589296745522e+02 1.0000000000000000e+00 3.7435062506384580e+00 5.9296338800053414e+00 1.3166871318463251e+01 
172 1 2 1.0279978207372600e+00 -1.5024824546083101e+02 1.0000000000000000e+00 1.7719146742525400e+00 5.1687632314193284e+00 1.3727128053559134e+01 
145 1 2 1.0279978207372562e+00 -2.8682393666574484e+02 1.0000000000000000e+00 1.7719146742524767e+00 5.1687632314192884e+00 1.3727128053558998e+01 
168 1 2 1.0279978207372584e+00 -2.1055572651530682e+02 1.0000000000000000e+00 1.7719146742525864e+00 5.1687632314192511e+00 1.3727128053558975e+01 
132 1 2 1.0279978207372573e+00 -2.3393850219661510e+02 1.0000000000000000e+00 1.7719146742526637e+00 5.1687632314192244e+00 1.3727128053558976e+01 
140 1 2 1.0280038648558394e+00 -1.7386828318089550e+02 1.0000000000000000e+00 1.1855402394098080e+00 6.8418220242175432e+00 1.3491483704240771e+01 
146 1 2 1.0280038648558392e+00 -2.3632493875554167e+02 1.0000000000000000e+00 1.1855402394100008e+00 6.8418220242176888e+00 1.3491483704240840e+01 
39 1 2 1.0280038648558392e+00 -1.2279960821635615e+02 1.0000000000000000e+00 1.1855402394097965e+00 6.8418220242175360e+00 1.3491483704240771e+01 
15 1 2 1.0280038648558398e+00 -1.3464300611857496e+02 1.0000000000000000e+00 1.1855402394108825e+00 6.8418220242183310e+00 1.3491483704240796e+01 
139 1 2 1.0280038648558398e+00 -1.6513844830479451e+02 1.0000000000000000e+00 1.1855402394109475e+00 6.8418220242183798e+00 1.3491483704240848e+01 
162 1 2 1.0279999999936353e+00 -2.0410914356124857e+02 1.0000000000000000e+00 4.0046743661458581e+00 1.5410561218919961e+01 1.6299006703368814e+01 
88 1 2 1.0280000000079226e+00 -2.5947052980583931e+02 1.0000000000000000e+00 5.5734903020924058e+00 1.4709432126755429e+01 1.6348342906510208e+01 
9 1 2 1.0280000000079224e+00 -1.5665150729697029e+02 1.0000000000000000e+00 5.5734903020924067e+00 1.4709432126755436e+01 1.6348342906510187e+01 
2 1 2 1.0280000000079221e+00 -1.3402529619955885e+02 1.0000000000000000e+00 5.5734903020924182e+00 1.4709432126755463e+01 1.6348342906510208e+01 
78 1 2 1.0280000000079232e+00 -1.8915506610952468e+02 1.0000000000000000e+00 5.5734903020923845e+00 1.4709432126755384e+01 1.6348342906510172e+01 
3 1 2 1.0280000000079224e+00 -1.5512604810568598e+02 1.0000000000000000e+00 5.5734903020924049e+00 1.4709432126755434e+01 1.6348342906510176e+01 
63 1 2 1.0280000000079224e+00 -2.4953608440368635e+02 1.0000000000000000e+00 5.5734903020923960e+00 1.4709432126755393e+01 1.6348342906510229e+01 
161 1 2 1.0279999999932492e+00 -1.9380117388786539e+02 1.0000000000000000e+00 3.4060947978200486e+00 1.5307816678101572e+01 1.6653517087021442e+01 
125 1 2 1.0279999999932523e+00 -2.7833650520996150e+02 1.0000000000000000e+00 3.4028556690454215e+00 1.5307738373274901e+01 1.6656108408279653e+01 
122 1 2 1.0279999999931593e+00 -1.8871951893050357e+02 1.0000000000000000e+00 3.4351299092294481e+00 1.5309670630198875e+01 1.6630038700088587e+01 
123 1 2 1.0280000000066050e+00 -2.1270477625709549e+02 1.0000000000000000e+00 2.4412967451934939e+00 1.6302329813141515e+01 1.8075638185033871e+01 
89 1 2 1.0280000000066052e+00 -2.1074663371337502e+02 1.0000000000000000e+00 2.4412967450309981e+00 1.6302329813185914e+01 1.8075638184888113e+01 
118 1 2 1.0280000000066052e+00 -2.0365245956909177e+02 1.0000000000000000e+00 2.4412967451997591e+00 1.6302329813143061e+01 1.8075638185037334e+01 
55 1 2 1.0280000000066047e+00 -8.2616327796310912e+01 1.0000000000000000e+00 2.4412967451996108e+00 1.6302329813143043e+01 1.8075638185037242e+01 
155 1 2 1.0280000000066047e+00 -1.7008365133685226e+02 1.0000000000000000e+00 2.4412971482695829e+00 1.6302329797735251e+01 1.8075638483888969e+01 
110 1 2 1.0280000000066050e+00 -2.5026990894840623e+02 1.0000000000000000e+00 2.4412967452012371e+00 1.6302329813143416e+01 1.8075638185038159e+01 
7 1 2 1.0279444666663915e+00 -2.5975096054027739e+02 1.0000000000000000e+00 1.0969059680493055e+01 4.5444728699559240e+00 1.6534479121546350e+00 
90 1 2 1.0279444667092739e+00 -2.1333058277660683e+02 1.0000000000000000e+00 1.0969057835118313e+01 4.5444739397145328e+00 1.6534483504431197e+00 
67 1 2 1.0279444666501631e+00 -2.1698898699767491e+02 1.0000000000000000e+00 1.0969061452414000e+01 4.5444777631946032e+00 1.6534523030265280e+00 
104 1 2 1.0279444666501631e+00 -1.9877090763670273e+02 1.0000000000000000e+00 1.0969061452414369e+01 4.5444777631951387e+00 1.6534523030270525e+00 
61 1 2 1.0279444666515025e+00 -1.8801473429020527e+02 1.0000000000000000e+00 1.0969061372457736e+01 4.5444776877545667e+00 1.6534522230286131e+00 
68 1 2 1.0279444666663915e+00 -2.6192101509564276e+02 1.0000000000000000e+00 1.0969059680486819e+01 4.5444728699552321e+00 1.6534479121526118e+00 
54 1 2 1.0279444677290452e+00 -2.0804004214040927e+02 1.0000000000000000e+00 1.0969004390343903e+01 4.5444461527686482e+00 1.6534133112837039e+00 
71 1 2 1.0279997545833532e+00 -1.8623671292484104e+02 1.0000000000000000e+00 8.7107585375309515e+00 8.9027702466228664e+00 1.2172488147848020e+00 
66 1 2 1.0279997545833532e+00 -2.4881857691130298e+02 1.0000000000000000e+00 8.7107585375307330e+00 8.9027702466228966e+00 1.2172488147849814e+00 
24 1 2 1.0279997545833532e+00 -1.8299567930644557e+02 1.0000000000000000e+00 8.7107585375309515e+00 8.9027702466228664e+00 1.2172488147848020e+00 
72 1 2 1.0279997545833532e+00 -1.6355590861436008e+02 1.0000000000000000e+00 8.7107585375309515e+00 8.9027702466228664e+00 1.2172488147848020e+00 
30 1 2 1.0279997545833532e+00 -2.1100636799791732e+02 1.0000000000000000e+00 8.7107585375309515e+00 8.9027702466228664e+00 1.2172488147848020e+00 
29 1 2 1.0279997545833532e+00 -2.5041775850997237e+02 1.0000000000000000e+00 8.7107585375309515e+00 8.9027702466228664e+00 1.2172488147848020e+00 
36 1 2 1.0279997545833532e+00 -2.4249295503494818e+02 1.0000000000000000e+00 8.7107585375309515e+00 8.9027702466228664e+00 1.2172488147848020e+00 
56 1 2 1.0280700191348440e+00 -1.0201580478178138e+02 1.0000000000000000e+00 1.0385277954527053e+01 2.5171198006794300e+00 4.1484984615756133e+00 
13 1 2 1.0280700191348440e+00 -1.5200349324329460e+02 1.0000000000000000e+00 1.0385277954527053e+01 2.5171198006794300e+00 4.1484984615756133e+00 
86 1 2 1.0280700191348440e+00 -1.8434148323704065e+02 1.0000000000000000e+00 1.0385277954527053e+01 2.5171198006794300e+00 4.1484984615756133e+00 
151 1 2 1.0280700191348440e+00 -2.6684392978872711e+02 1.0000000000000000e+00 1.0385277954527053e+01 2.5171198006794300e+00 4.1484984615756133e+00 
20 1 2 1.0280700191348433e+00 -1.3287174815129742e+02 1.0000000000000000e+00 1.0385277954527021e+01 2.5171198006787345e+00 4.1484984615750538e+00 
19 1 2 1.0280700191348433e+00 -1.7043626743655872e+02 1.0000000000000000e+00 1.0385277954527021e+01 2.5171198006787345e+00 4.1484984615750538e+00 
8 1 2 1.0280700191348440e+00 -1.9009038343495180e+02 1.0000000000000000e+00 1.0385277954527053e+01 2.5171198006794300e+00 4.1484984615756133e+00 
58 1 2 1.0279997550888100e+00 -1.8917646143623409e+02 1.0000000000000000e+00 9.9580936950740711e+00 6.1401572499325185e+00 9.6475785392110822e+00 
167 1 2 1.0279997550888100e+00 -1.7227846060726637e+02 1.0000000000000000e+00 9.9580936950740711e+00 6.1401572499325185e+00 9.6475785392110822e+00 
52 1 2 1.0279997550888100e+00 -2.4419958249045908e+02 1.0000000000000000e+00 9.9580936950740711e+00 6.1401572499325185e+00 9.6475785392110822e+00 
160 1 2 1.0279997550888100e+00 -2.5319068919086004e+02 1.0000000000000000e+00 9.9580936950740711e+00 6.1401572499325185e+00 9.6475785392110822e+00 
166 1 2 1.0279997550888100e+00 -2.5091503120812050e+02 1.0000000000000000e+00 9.9580936950740711e+00 6.1401572499325185e+00 9.6475785392110822e+00 
59 1 2 1.0279997550888100e+00 -2.0495548335978845e+02 1.0000000000000000e+00 9.9580936950740711e+00 6.1401572499325185e+00 9.6475785392110822e+00 
53 1 2 1.0279997550888100e+00 -2.1566844985490386e+02 1.0000000000000000e+00 9.9580936950740711e+00 6.1401572499325185e+00 9.6475785392110822e+00 
84 1 2 1.0279997553051881e+00 -1.9176447679022908e+02 1.0000000000000000e+00 7.5200889464449361e+00 4.2541775695249129e+00 1.0729036028607943e+01 
79 1 2 1.0279997553051881e+00 -2.1363630211413053e+02 1.0000000000000000e+00 7.5200889464449361e+00 4.2541775695249129e+00 1.0729036028607943e+01 
164 1 2 1.0279997553051881e+00 -2.7834676260011150e+02 1.0000000000000000e+00 7.5200889464449361e+00 4.2541775695249129e+00 1.0729036028607943e+01 
85 1 2 1.0279997553051881e+00 -1.9174171337236939e+02 1.0000000000000000e+00 7.5200889464449361e+00 4.2541775695249129e+00 1.0729036028607943e+01 
159 1 2 1.0279997553051881e+00 -2.7277720010401185e+02 1.0000000000000000e+00 7.5200889464449361e+00 4.2541775695249129e+00 1.0729036028607943e+01 
80 1 2 1.0279997553051881e+00 -1.3088213863914072e+02 1.0000000000000000e+00 7.5200889464449361e+00 4.2541775695249129e+00 1.0729036028607943e+01 
128 1 2 1.0279997553051881e+00 -1.6802688005063027e+02 1.0000000000000000e+00 7.5200889464449361e+00 4.2541775695249129e+00 1.0729036028607943e+01 
10 1 2 1.0280005937518018e+00 -1.9292103053524031e+02 1.0000000000000000e+00 9.9029676047305273e+00 3.6049948303688389e-01 1.4264363474213869e+01 
22 1 2 1.0280005937518018e+00 -1.6203981564825867e+02 1.0000000000000000e+00 9.9029676047305273e+00 3.6049948303688389e-01 1.4264363474213869e+01 
17 1 2 1.0280005937518018e+00 -1.9479098184910563e+02 1.0000000000000000e+00 9.9029676047305273e+00 3.6049948303688389e-01 1.4264363474213869e+01 
57 1 2 1.0280005937518018e+00 -2.1688560953734412e+02 1.0000000000000000e+00 9.9029676047305273e+00 3.6049948303688389e-01 1.4264363474213869e+01 
11 1 2 1.0280005937518018e+00 -2.1804115995550799e+02 1.0000000000000000e+00 9.9029676047305273e+00 3.6049948303688389e-01 1.4264363474213869e+01 
64 1 2 1.0280005937518018e+00 -2.4964359141346424e+02 1.0000000000000000e+00 9.9029676047305273e+00 3.6049948303688389e-01 1.4264363474213869e+01 
23 1 2 1.0280005937518018e+00 -1.7355229863804107e+02 1.0000000000000000e+00 9.9029676047305273e+00 3.6049948303688389e-01 1.4264363474213869e+01 
62 1 2 1.0280005899862765e+00 -2.9349494511090666e+02 1.0000000000000000e+00 1.2241202794994953e+01 2.6185878907303448e+00 1.3941965363474944e+01 
98 1 2 1.0280005899862479e+00 -2.8161673877600560e+02 1.0000000000000000e+00 1.2241205252171373e+01 2.6185809027516602e+00 1.3941934389707711e+01 
14 1 2 1.0280005899863318e+00 -2.4140692218634851e+02 1.0000000000000000e+00 1.2241196530256614e+01 2.6185913529725604e+00 1.3941944270736913e+01 
48 1 2 1.0280005899862765e+00 -3.1135466901133640e+02 1.0000000000000000e+00 1.2241202794994923e+01 2.6185878907303737e+00 1.3941965363474930e+01 
87 1 2 1.0280005899863114e+00 -1.7384285714568082e+02 1.0000000000000000e+00 1.2241198365679498e+01 2.6185901788236454e+00 1.3941949332028582e+01 
60 1 2 1.0280005899876334e+00 -2.6896321736181653e+02 1.0000000000000000e+00 1.2241217403884329e+01 2.6185975638504497e+00 1.3942139811853250e+01 
47 1 2 1.0280005899876363e+00 -2.6071459063447901e+02 1.0000000000000000e+00 1.2241217442715563e+01 2.6185975288907390e+00 1.3942139849080975e+01 
141 1 2 1.0279997545833528e+00 -2.8306737094732182e+02 1.0000000000000000e+00 6.6838639226752568e+00 7.7095883223652280e+00 1.8950455488688977e+01 
134 1 2 1.0279997545833528e+00 -2.1208586180975075e+02 1.0000000000000000e+00 6.6838639226751093e+00 7.7095883223653168e+00 1.8950455488689062e+01 
176 1 2 1.0279997545833528e+00 -2.4963870482197933e+02 1.0000000000000000e+00 6.6838639226752568e+00 7.7095883223652280e+00 1.8950455488688977e+01 
124 1 2 1.0279997545833528e+00 -2.1625063792472858e+02 1.0000000000000000e+00 6.6838639226751093e+00 7.7095883223653168e+00 1.8950455488689062e+01 
177 1 2 1.0279997545833528e+00 -2.6081024580761147e+02 1.0000000000000000e+00 6.6838639226751093e+00 7.7095883223653168e+00 1.8950455488689062e+01 
170 1 2 1.0279997545833528e+00 -2.5697227093536355e+02 1.0000000000000000e+00 6.6838639226751093e+00 7.7095883223653168e+00 1.8950455488689062e+01 
171 1 2 1.0279997545833528e+00 -2.5147194981575410e+02 1.0000000000000000e+00 6.6838639226748748e+00 7.7095883223652262e+00 1.8950455488689318e+01 
114 1 2 1.0279997144980855e+00 -2.4334222309631491e+02 1.0000000000000000e+00 1.2993605298731191e+01 1.7148190866654769e+01 9.0114655159243029e-01 
163 1 2 1.0279997144980770e+00 -2.1083767894971839e+02 1.0000000000000000e+00 1.2993605299702301e+01 1.7148190867239876e+01 9.0114655133721633e-01 
21 1 2 1.0279997144980748e+00 -1.4812632484413797e+02 1.0000000000000000e+00 1.2993605299436293e+01 1.7148190867271047e+01 9.0114655144425371e-01 
1 1 2 1.0279997144980846e+00 -9.6299323576551217e+01 1.0000000000000000e+00 1.2993605298538826e+01 1.7148190866649465e+01 9.0114655166443314e-01 
175 1 2 1.0279997144980815e+00 -2.0395248567701086e+02 1.0000000000000000e+00 1.2993605298215403e+01 1.7148190866723930e+01 9.0114655180167269e-01 
133 1 2 1.0279997144980810e+00 -2.7809061716466800e+02 1.0000000000000000e+00 1.2993605298260130e+01 1.7148190866756778e+01 9.0114655179106196e-01 
169 1 2 1.0279997144980770e+00 -2.8066414364375959e+02 1.0000000000000000e+00 1.2993605299882992e+01 1.7148190867270163e+01 9.0114655127448695e-01 
37 1 2 1.0280752776021622e+00 -1.8642754277196650e+02 1.0000000000000000e+00 1.2322929521887831e+01 1.9735044878359790e+01 5.8273090329514030e+00 
6 1 2 1.0280752776021618e+00 -1.9676729384522963e+02 1.0000000000000000e+00 1.2322929521887801e+01 1.9735044878359844e+01 5.8273090329515087e+00 
105 1 2 1.0280752776021618e+00 -1.7165275617791625e+02 1.0000000000000000e+00 1.2322929521887758e+01 1.9735044878359858e+01 5.8273090329515149e+00 
28 1 2 1.0280752776021618e+00 -2.2606815287139312e+02 1.0000000000000000e+00 1.2322929521887801e+01 1.9735044878359844e+01 5.8273090329515087e+00 
42 1 2 1.0280752776021618e+00 -2.3227791689489456e+02 1.0000000000000000e+00 1.2322929521887787e+01 1.9735044878359854e+01 5.8273090329515229e+00 
83 1 2 1.0280752776021618e+00 -2.4022643948709182e+02 1.0000000000000000e+00 1.2322929521887758e+01 1.9735044878359858e+01 5.8273090329515149e+00 
75 1 2 1.0280752776021618e+00 -1.8179662637884235e+02 1.0000000000000000e+00 1.2322929521887801e+01 1.9735044878359844e+01 5.8273090329515087e+00 
38 1 2 1.0279497541936573e+00 -1.3973508401067659e+02 1.0000000000000000e+00 1.1645814641964792e+01 1.6742306801173783e+01 6.9501227417725566e+00 
18 1 2 1.0279497541936573e+00 -2.6592343746706553e+02 1.0000000000000000e+00 1.1645814641964796e+01 1.6742306801173779e+01 6.9501227417725460e+00 
12 1 2 1.0279497541936573e+00 -3.0823808393170373e+02 1.0000000000000000e+00 1.1645814641964789e+01 1.6742306801173786e+01 6.9501227417725602e+00 
95 1 2 1.0279497541936573e+00 -2.0030201329077357e+02 1.0000000000000000e+00 1.1645814641964796e+01 1.6742306801173779e+01 6.9501227417725460e+00 
96 1 2 1.0279497541936573e+00 -2.4114356827774054e+02 1.0000000000000000e+00 1.1645814641964792e+01 1.6742306801173783e+01 6.9501227417725566e+00 
156 1 2 1.0279497541936573e+00 -1.9421009405500689e+02 1.0000000000000000e+00 1.1645814641964796e+01 1.6742306801173779e+01 6.9501227417725460e+00 
150 1 2 1.0279497541936573e+00 -1.8375354313470834e+02 1.0000000000000000e+00 1.1645814641964789e+01 1.6742306801173786e+01 6.9501227417725602e+00 
50 1 2 1.0280000018855793e+00 -1.7705280759313382e+02 1.0000000000000000e+00 1.1765513356375534e+01 1.6378307199888273e+01 1.6997834297354043e+01 
41 1 2 1.0280000018855793e+00 -2.2790506953801892e+02 1.0000000000000000e+00 1.1765513356375534e+01 1.6378307199888273e+01 1.6997834297354043e+01 
76 1 2 1.0280000018855793e+00 -2.6225094349405691e+02 1.0000000000000000e+00 1.1765513356375521e+01 1.6378307199888262e+01 1.6997834297354025e+01 
165 1 2 1.0280000018855793e+00 -2.2068483464244790e+02 1.0000000000000000e+00 1.1765513356375534e+01 1.6378307199888273e+01 1.6997834297354043e+01 
46 1 2 1.0280000018855804e+00 -2.6039865604513756e+02 1.0000000000000000e+00 1.1765513356375537e+01 1.6378307199888280e+01 1.6997834297354057e+01 
82 1 2 1.0280000018855793e+00 -2.1430135991908887e+02 1.0000000000000000e+00 1.1765513356375534e+01 1.6378307199888273e+01 1.6997834297354043e+01 
51 1 2 1.0280000018855793e+00 -2.2900038880741945e+02 1.0000000000000000e+00 1.1765513356375521e+01 1.6378307199888262e+01 1.6997834297354025e+01 
69 1 2 1.0280000018855799e+00 -1.3703551875849323e+02 1.0000000000000000e+00 1.1673858308639616e+01 1.3627134875088153e+01 1.8756515820870003e+01 
27 1 2 1.0280000018855799e+00 -1.4211202732973354e+02 1.0000000000000000e+00 1.1673858308639600e+01 1.3627134875088162e+01 1.8756515820870018e+01 
113 1 2 1.0280000018855799e+00 -2.6459709116250247e+02 1.0000000000000000e+00 1.1673858308639634e+01 1.3627134875088146e+01 1.8756515820869996e+01 
43 1 2 1.0280000018855799e+00 -3.0986176328126754e+02 1.0000000000000000e+00 1.1673858308639616e+01 1.3627134875088153e+01 1.8756515820870003e+01 
33 1 2 1.0280000018855799e+00 -1.3669802352088524e+02 1.0000000000000000e+00 1.1673858308639600e+01 1.3627134875088162e+01 1.8756515820870018e+01 
77 1 2 1.0280000018855799e+00 -1.9700480896602332e+02 1.0000000000000000e+00 1.1673858308639634e+01 1.3627134875088148e+01 1.8756515820869996e+01 
119 1 2 1.0280000018855799e+00 -2.2957559742853610e+02 1.0000000000000000e+00 1.1673858308639614e+01 1.3627134875088165e+01 1.8756515820870025e+01 
16 1 2 1.0279895541429731e+00 -1.8408048407168732e+02 1.0000000000000000e+00 1.5283653053380972e+01 4.2383452127248789e-01 8.7495735658118292e+00 
4 1 2 1.0279895541429731e+00 -2.1511521852919930e+02 1.0000000000000000e+00 1.5283653053380972e+01 4.2383452127248789e-01 8.7495735658118292e+00 
40 1 2 1.0279895541429731e+00 -2.1045385326006826e+02 1.0000000000000000e+00 1.5283653053380972e+01 4.2383452127248789e-01 8.7495735658118292e+00 
70 1 2 1.0279895541429731e+00 -2.4653868917942057e+02 1.0000000000000000e+00 1.5283653053380972e+01 4.2383452127248789e-01 8.7495735658118292e+00 
5 1 2 1.0279895541429731e+00 -2.0617731896630906e+02 1.0000000000000000e+00 1.5283653053380972e+01 4.2383452127248789e-01 8.7495735658118292e+00 
34 1 2 1.0279895541429731e+00 -2.0316408991683889e+02 1.0000000000000000e+00 1.5283653053380972e+01 4.2383452127248789e-01 8.7495735658118292e+00 
35 1 2 1.0279895541429731e+00 -2.0083794798422176e+02 1.0000000000000000e+00 1.5283653053380988e+01 4.2383452127250032e-01 8.7495735658118523e+00 
101 1 2 1.0279895541429731e+00 -1.6285334222653452e+02 1.0000000000000000e+00 1.3833630724920571e+01 3.3039857875194980e+00 8.2265176380523979e+00 
142 1 2 1.0279895541429731e+00 -2.5576948590268196e+02 1.0000000000000000e+00 1.3833630724920571e+01 3.3039857875194980e+00 8.2265176380523979e+00 
100 1 2 1.0279895541429731e+00 -1.8616929187956023e+02 1.0000000000000000e+00 1.3833630724920578e+01 3.3039857875195016e+00 8.2265176380523979e+00 
143 1 2 1.0279895541429731e+00 -2.6522881611491925e+02 1.0000000000000000e+00 1.3833630724920571e+01 3.3039857875194980e+00 8.2265176380523979e+00 
65 1 2 1.0279895541429731e+00 -1.8503817649099804e+02 1.0000000000000000e+00 1.3833630724920578e+01 3.3039857875195016e+00 8.2265176380523979e+00 
107 1 2 1.0279895541429731e+00 -1.9922834106793951e+02 1.0000000000000000e+00 1.3833630724920571e+01 3.3039857875194980e+00 8.2265176380523979e+00 
106 1 2 1.0279895541429731e+00 -2.5680161664069328e+02 1.0000000000000000e+00 1.3833630724920571e+01 3.3039857875194980e+00 8.2265176380523979e+00 
121 1 2 1.0280015182921389e+00 -2.4664841785402058e+02 1.0000000000000000e+00 1.9519782609417842e+01 9.5670244330751331e+00 1.3460842358390112e+01 
45 1 2 1.0280015182921389e+00 -1.3179829597997474e+02 1.0000000000000000e+00 1.9519782609417842e+01 9.5670244330751331e+00 1.3460842358390112e+01 
173 1 2 1.0280015182921389e+00 -2.5048753078164151e+02 1.0000000000000000e+00 1.9519782609417842e+01 9.5670244330751331e+00 1.3460842358390112e+01 
157 1 2 1.0280015182921389e+00 -2.2145230029933174e+02 1.0000000000000000e+00 1.9519782609417842e+01 9.5670244330751331e+00 1.3460842358390112e+01 
126 1 2 1.0280015182921389e+00 -2.1175150719304619e+02 1.0000000000000000e+00 1.9519782609417842e+01 9.5670244330751331e+00 1.3460842358390112e+01 
180 1 2 1.0280015182921389e+00 -1.9326395091344870e+02 1.0000000000000000e+00 1.9519782609417842e+01 9.5670244330751331e+00 1.3460842358390112e+01 
174 1 2 1.0280015182921389e+00 -2.1230183318170617e+02 1.0000000000000000e+00 1.9519782609417842e+01 9.5670244330751331e+00 1.3460842358390112e+01 
148 1 2 1.0279996210686053e+00 -1.7298121358275563e+02 1.0000000000000000e+00 1.4150051261921961e+01 1.2803297157283701e+01 2.5244327406204197e+00 
179 1 2 1.0279996210686055e+00 -1.9517302322417294e+02 1.0000000000000000e+00 1.4150051261922018e+01 1.2803297157283639e+01 2.5244327406204201e+00 
178 1 2 1.0279996210686055e+00 -1.4651260487268169e+02 1.0000000000000000e+00 1.4150051261922014e+01 1.2803297157283630e+01 2.5244327406204095e+00 
120 1 2 1.0280001764309266e+00 -2.6899896946501877e+02 1.0000000000000000e+00 1.3548042234118109e+01 1.1739678896551178e+01 2.6949432539572964e+00 
138 1 2 1.0280001764309286e+00 -2.5151940473282508e+02 1.0000000000000000e+00 1.3548042234117148e+01 1.1739678896551659e+01 2.6949432539580842e+00 
137 1 2 1.0280001764309268e+00 -2.7964484369829717e+02 1.0000000000000000e+00 1.3548042234116885e+01 1.1739678896551721e+01 2.6949432539570166e+00 
102 1 2 1.0280001764309268e+00 -1.9883575655904687e+02 1.0000000000000000e+00 1.3548042234118141e+01 1.1739678896551171e+01 2.6949432539574727e+00 
149 1 2 1.0280001764309266e+00 -1.9653423546818013e+02 1.0000000000000000e+00 1.3548042234118109e+01 1.1739678896551178e+01 2.6949432539572964e+00 
116 1 2 1.0279998678109534e+00 -1.7538530201260153e+02 1.0000000000000000e+00 1.6993958876768449e+01 1.4184559342969598e+01 1.8353888728793957e+00 
111 1 2 1.0279998678109563e+00 -1.8472630386857296e+02 1.0000000000000000e+00 1.6993958876708991e+01 1.4184559342997650e+01 1.8353888727986025e+00 
81 1 2 1.0279998678109525e+00 -1.7396827353504426e+02 1.0000000000000000e+00 1.6993958876776798e+01 1.4184559342946010e+01 1.8353888728884762e+00 
112 1 2 1.0279998678109545e+00 -1.8747337412734390e+02 1.0000000000000000e+00 1.6993958876739484e+01 1.4184559342940227e+01 1.8353888728350973e+00 
109 1 2 1.0279998678109521e+00 -2.9487929190640568e+02 1.0000000000000000e+00 1.6993958876785801e+01 1.4184559342916462e+01 1.8353888728978123e+00 
49 1 2 1.0279998678109534e+00 -2.0420522935440115e+02 1.0000000000000000e+00 1.6993958876768449e+01 1.4184559342969598e+01 1.8353888728793957e+00 
117 1 2 1.0279998678109523e+00 -1.7177943184098928e+02 1.0000000000000000e+00 1.6993958876788636e+01 1.4184559342889719e+01 1.8353888728987542e+00 
32 1 2 1.0279996158993803e+00 -2.3763359878213143e+02 1.0000000000000000e+00 1.5479370478707992e+01 1.5401395529874609e+01 4.2881216928209911e+00 
26 1 2 1.0279997390449118e+00 -2.3629990509083967e+02 1.0000000000000000e+00 1.5495935028521991e+01 1.5237408116668375e+01 4.4004153302941864e+00 
25 1 2 1.0280006210357575e+00 -2.2654275140211152e+02 1.0000000000000000e+00 1.4838374621168102e+01 1.4426703160333055e+01 5.0891245067200490e+00 
44 1 2 1.0280006210358130e+00 -1.9699634987843697e+02 1.0000000000000000e+00 1.4838375209642946e+01 1.4426703172678565e+01 5.0891242500724321e+00 
94 1 2 1.0280006210357506e+00 -1.8823173782654644e+02 1.0000000000000000e+00 1.4838374622949591e+01 1.4426703160367154e+01 5.0891245059407302e+00 
31 1 2 1.0280006210357790e+00 -2.2506712980084686e+02 1.0000000000000000e+00 1.4838374609437965e+01 1.4426703160160864e+01 5.0891245118897537e+00 
127 1 2 1.0279992589187874e+00 -2.4670221446766601e+02 1.0000000000000000e+00 1.4109318053536271e+01 1.6577090822680493e+01 3.8391142888062575e+00 
91 1 2 1.0279992589187881e+00 -2.9185598306263302e+02 1.0000000000000000e+00 1.4109318053536215e+01 1.6577090822680482e+01 3.8391142888062499e+00 
92 1 2 1.0279992589187872e+00 -2.3173763487594198e+02 1.0000000000000000e+00 1.4109318053536199e+01 1.6577090822680479e+01 3.8391142888062197e+00 
158 1 2 1.0279992589187879e+00 -2.7711018876894633e+02 1.0000000000000000e+00 1.4109318053536267e+01 1.6577090822680493e+01 3.8391142888062730e+00 
97 1 2 1.0279992589187879e+00 -2.4455852678502396e+02 1.0000000000000000e+00 1.4109318053536265e+01 1.6577090822680493e+01 3.8391142888062748e+00 
74 1 2 1.0279998643300527e+00 -2.1497966262174288e+02 1.0000000000000000e+00 1.3449489026671467e+01 1.4582626872717535e+01 3.9374048579507326e+00 
73 1 2 1.0279998643300736e+00 -2.3736507225080220e+02 1.0000000000000000e+00 1.3449489029618150e+01 1.4582626857933795e+01 3.9374048651758398e+00 
115 1 2 1.0279998643308390e+00 -2.2777199499018525e+02 1.0000000000000000e+00 1.3449488340000840e+01 1.4582630318010308e+01 3.9374031739939839e+00 

Velocities

135 1.2930785598490988e-01 -3.9764596911605492e-02 -3.2904437258904706e-01
93 1.2930785598490924e-01 -3.9764596911606276e-02 -3.2904437258904845e-01
99 1.2930785598490974e-01 -3.9764596911604971e-02 -3.2904437258904784e-01
130 1.2930785598491004e-01 -3.9764596911604493e-02 -3.2904437258904723e-01
129 1.2930785598490999e-01 -3.9764596911606241e-02 -3.2904437258904828e-01
136 1.2930785598491004e-01 -3.9764596911605152e-02 -3.2904437258904706e-01
144 1.2971113976398144e-01 -4.0094942098997929e-02 -3.2842180053795772e-01
103 1.2971113976397991e-01 -4.0094942099002683e-02 -3.2842180053795345e-01
108 1.2971113976397913e-01 -4.0094942099004494e-02 -3.2842180053795250e-01
131 1.2971113976398083e-01 -4.0094942099001406e-02 -3.2842180053795650e-01
147 1.3136869697008541e-01 -4.0263817145079574e-02 -3.2799197011831105e-01
152 1.3136869740160714e-01 -4.0263817871313855e-02 -3.2799196904259459e-01
154 1.3136869696775061e-01 -4.0263817140873424e-02 -3.2799197012437009e-01
153 1.3136874187297382e-01 -4.0263891850889952e-02 -3.2799185884358989e-01
172 1.3202502428005725e-01 -4.0897997532615527e-02 -3.2742319964637506e-01
145 1.3202502428005120e-01 -4.0897997532629897e-02 -3.2742319964637207e-01
168 1.3202502428005411e-01 -4.0897997532621619e-02 -3.2742319964637356e-01
132 1.3202502428005208e-01 -4.0897997532623805e-02 -3.2742319964637484e-01
140 1.3188840539025423e-01 -4.0624638143024028e-02 -3.2699802898537994e-01
146 1.3188840539025518e-01 -4.0624638143024597e-02 -3.2699802898537961e-01
39 1.3188840539025654e-01 -4.0624638143026415e-02 -3.2699802898537972e-01
15 1.3188840539025654e-01 -4.0624638143023750e-02 -3.2699802898537966e-01
139 1.3188840539025365e-01 -4.0624638143020794e-02 -3.2699802898538011e-01
162 1.3087455551723312e-01 -4.1244811639600046e-02 -3.7697268148708435e-01
88 1.3087455706741813e-01 -4.1244808108231501e-02 -3.7697268385939309e-01
9 1.3087455706741638e-01 -4.1244808108231286e-02 -3.7697268385939281e-01
2 1.3087455706741602e-01 -4.1244808108230835e-02 -3.7697268385939275e-01
78 1.3087455706741821e-01 -4.1244808108232882e-02 -3.7697268385939342e-01
3 1.3087455706741727e-01 -4.1244808108231348e-02 -3.7697268385939298e-01
63 1.3087455706741818e-01 -4.1244808108231508e-02 -3.7697268385939331e-01
161 1.3087455604237919e-01 -4.1244813074821696e-02 -3.7697268105975867e-01
125 1.3087455604513912e-01 -4.1244813083792714e-02 -3.7697268105921616e-01
122 1.3087455601599232e-01 -4.1244812997806669e-02 -3.7697268106461140e-01
123 1.3087455515268501e-01 -4.1244817481011595e-02 -3.7697267862473743e-01
89 1.3087455515268404e-01 -4.1244817481010616e-02 -3.7697267862473632e-01
118 1.3087455515268492e-01 -4.1244817481011331e-02 -3.7697267862473754e-01
55 1.3087455515269086e-01 -4.1244817481017958e-02 -3.7697267862474626e-01
155 1.3087455515269333e-01 -4.1244817481019831e-02 -3.7697267862474998e-01
110 1.3087455515268812e-01 -4.1244817481015911e-02 -3.7697267862474293e-01
7 1.3383841429800383e-01 -2.4229077215569411e-02 -3.5409860724140585e-01
90 1.3383845320959251e-01 -2.4229099226159047e-02 -3.5409861702768747e-01
67 1.3383837700758303e-01 -2.4229180235820626e-02 -3.5409869926507054e-01