LAMMPS data file via write_data, version 30 Jul 2016, timestep = 50400000

180 atoms
2 atom types

0.0000000000000000e+00 2.0000000000000000e+01 xlo xhi
0.0000000000000000e+00 2.0000000000000000e+01 ylo yhi
0.0000000000000000e+00 2.0000000000000000e+01 zlo zhi

Masses

1 3.896
2 4.31

Atoms # meso-molecular

139 1 2 1.0280005829314707e+00 -1.6513843862929369e+02 1.0000000000000000e+00 6.4478834958924560e+00 5.2271218899507632e+00 3.9874779628953561e-01 
140 1 2 1.0280005829314707e+00 -1.7386827350539468e+02 1.0000000000000000e+00 6.4478834958913076e+00 5.2271218899499061e+00 3.9874779628945817e-01 
146 1 2 1.0280005829314709e+00 -2.3632492908004085e+02 1.0000000000000000e+00 6.4478834958915012e+00 5.2271218899500518e+00 3.9874779628952800e-01 
39 1 2 1.0280005829314705e+00 -1.2279959854085368e+02 1.0000000000000000e+00 6.4478834958912907e+00 5.2271218899498892e+00 3.9874779628945906e-01 
15 1 2 1.0280005829314711e+00 -1.3464299644307414e+02 1.0000000000000000e+00 6.4478834958923921e+00 5.2271218899507099e+00 3.9874779628948631e-01 
174 1 2 1.0279999477728072e+00 -2.1230182833397473e+02 1.0000000000000000e+00 4.8385593008894281e+00 7.9861221937239337e+00 4.2304909822334835e-01 
121 1 2 1.0279999477728072e+00 -2.4664841300628913e+02 1.0000000000000000e+00 4.8385593008894281e+00 7.9861221937239337e+00 4.2304909822334835e-01 
126 1 2 1.0279999477728072e+00 -2.1175150234531475e+02 1.0000000000000000e+00 4.8385593008894281e+00 7.9861221937239337e+00 4.2304909822334835e-01 
45 1 2 1.0279999477728072e+00 -1.3179829113224329e+02 1.0000000000000000e+00 4.8385593008894281e+00 7.9861221937239337e+00 4.2304909822334835e-01 
173 1 2 1.0279999477728072e+00 -2.5048752593391006e+02 1.0000000000000000e+00 4.8385593008894281e+00 7.9861221937239337e+00 4.2304909822334835e-01 
157 1 2 1.0279999477728072e+00 -2.2145229545160029e+02 1.0000000000000000e+00 4.8385593008894281e+00 7.9861221937239337e+00 4.2304909822334835e-01 
180 1 2 1.0279999477728072e+00 -1.9326394606571725e+02 1.0000000000000000e+00 4.8385593008894281e+00 7.9861221937239337e+00 4.2304909822334835e-01 
116 1 2 1.0279999434247906e+00 -1.7538530125344448e+02 1.0000000000000000e+00 2.5058050181038989e+00 1.2504400950617127e+01 7.9989838255644683e+00 
117 1 2 1.0279999434247897e+00 -1.7177943108183223e+02 1.0000000000000000e+00 2.5058050181236768e+00 1.2504400950537285e+01 7.9989838255841184e+00 
49 1 2 1.0279999434247906e+00 -2.0420522859524411e+02 1.0000000000000000e+00 2.5058050181038989e+00 1.2504400950617127e+01 7.9989838255644683e+00 
111 1 2 1.0279999434247928e+00 -1.8472630310941591e+02 1.0000000000000000e+00 2.5058050180457525e+00 1.2504400950645266e+01 7.9989838254828642e+00 
81 1 2 1.0279999434247906e+00 -1.7396827277588721e+02 1.0000000000000000e+00 2.5058050181120675e+00 1.2504400950593540e+01 7.9989838255736698e+00 
112 1 2 1.0279999434247917e+00 -1.8747337336818686e+02 1.0000000000000000e+00 2.5058050180756068e+00 1.2504400950587840e+01 7.9989838255197983e+00 
109 1 2 1.0279999434247900e+00 -2.9487929114734595e+02 1.0000000000000000e+00 2.5058050181208951e+00 1.2504400950564005e+01 7.9989838255831396e+00 
31 1 2 1.0280003146385222e+00 -2.2506712948233351e+02 1.0000000000000000e+00 3.2647264670912463e-01 1.2771952520502419e+01 1.1232748034971292e+01 
25 1 2 1.0280003146385250e+00 -2.2654275108359818e+02 1.0000000000000000e+00 3.2647265848713519e-01 1.2771952520668808e+01 1.1232748029784679e+01 
44 1 2 1.0280003146384558e+00 -1.9699634955992346e+02 1.0000000000000000e+00 3.2647324935918320e-01 1.2771952532739951e+01 1.1232747772294754e+01 
94 1 2 1.0280003146385288e+00 -1.8823173750803309e+02 1.0000000000000000e+00 3.2647266027578009e-01 1.2771952520702001e+01 1.1232748029002776e+01 
32 1 2 1.0279998005662601e+00 -2.3763359661691638e+02 1.0000000000000000e+00 9.6527768644393885e-01 1.3746783584848597e+01 1.0430526123386990e+01 
26 1 2 1.0279998647486273e+00 -2.3629990305154260e+02 1.0000000000000000e+00 9.8255592109605039e-01 1.3583096191799571e+01 1.0542691285040235e+01 
154 1 2 1.0280004561282809e+00 -1.2079953500452039e+02 1.0000000000000000e+00 8.9920210080499583e+00 4.3153455133560428e+00 4.9982302598535359e-02 
152 1 2 1.0280004561290219e+00 -2.2537124534929092e+02 1.0000000000000000e+00 8.9920205098522086e+00 4.3153445859096369e+00 4.9983363286123766e-02 
147 1 2 1.0280004561282932e+00 -2.2705978890363048e+02 1.0000000000000000e+00 8.9920210052217158e+00 4.3153455080617977e+00 4.9982308631876055e-02 
153 1 2 1.0280004562109182e+00 -2.2301588254356824e+02 1.0000000000000000e+00 8.9919695684937864e+00 4.3152510119792966e+00 5.0091289246654520e-02 
145 1 2 1.0279996519958399e+00 -2.8682393194829757e+02 1.0000000000000000e+00 7.0331354749818678e+00 3.5468347203289410e+00 6.2324295934480667e-01 
168 1 2 1.0279996519958394e+00 -2.1055572179792983e+02 1.0000000000000000e+00 7.0331354749819743e+00 3.5468347203288930e+00 6.2324295934477081e-01 
132 1 2 1.0279996519958394e+00 -2.3393849747923812e+02 1.0000000000000000e+00 7.0331354749820534e+00 3.5468347203288726e+00 6.2324295934478402e-01 
172 1 2 1.0279996519958399e+00 -1.5024824074345403e+02 1.0000000000000000e+00 7.0331354749819264e+00 3.5468347203289667e+00 6.2324295934492524e-01 
171 1 2 1.0279892792801020e+00 -2.5147194981298082e+02 1.0000000000000000e+00 1.2093395414732532e+01 5.3659972731673911e+00 4.1002742197972255e+00 
170 1 2 1.0279892792801020e+00 -2.5697227093660968e+02 1.0000000000000000e+00 1.2093395414732765e+01 5.3659972731674825e+00 4.1002742197969697e+00 
177 1 2 1.0279892792801020e+00 -2.6081024580885759e+02 1.0000000000000000e+00 1.2093395414732765e+01 5.3659972731674825e+00 4.1002742197969697e+00 
124 1 2 1.0279892792801020e+00 -2.1625063792195530e+02 1.0000000000000000e+00 1.2093395414732765e+01 5.3659972731674825e+00 4.1002742197969697e+00 
141 1 2 1.0279892792801020e+00 -2.8306737094856794e+02 1.0000000000000000e+00 1.2093395414732910e+01 5.3659972731673946e+00 4.1002742197968853e+00 
134 1 2 1.0279892792801020e+00 -2.1208586180697748e+02 1.0000000000000000e+00 1.2093395414732765e+01 5.3659972731674825e+00 4.1002742197969697e+00 
176 1 2 1.0279892792801020e+00 -2.4963870481920605e+02 1.0000000000000000e+00 1.2093395414732910e+01 5.3659972731673946e+00 4.1002742197968853e+00 
128 1 2 1.0278836761399328e+00 -1.6802682996291193e+02 1.0000000000000000e+00 1.3312880789793718e+01 2.6643299767827289e+00 1.5357329267791162e+01 
80 1 2 1.0278836761399328e+00 -1.3088208855142238e+02 1.0000000000000000e+00 1.3312880789793718e+01 2.6643299767827289e+00 1.5357329267791162e+01 
159 1 2 1.0278836761399328e+00 -2.7277715001628951e+02 1.0000000000000000e+00 1.3312880789793718e+01 2.6643299767827289e+00 1.5357329267791162e+01 
85 1 2 1.0278836761399328e+00 -1.9174166328465105e+02 1.0000000000000000e+00 1.3312880789793718e+01 2.6643299767827289e+00 1.5357329267791162e+01 
164 1 2 1.0278836761399328e+00 -2.7834671251238916e+02 1.0000000000000000e+00 1.3312880789793718e+01 2.6643299767827289e+00 1.5357329267791162e+01 
79 1 2 1.0278836761399328e+00 -2.1363625202641219e+02 1.0000000000000000e+00 1.3312880789793718e+01 2.6643299767827289e+00 1.5357329267791162e+01 
84 1 2 1.0278836761399328e+00 -1.9176442670251075e+02 1.0000000000000000e+00 1.3312880789793718e+01 2.6643299767827289e+00 1.5357329267791162e+01 
135 1 2 1.0280003227666086e+00 -2.7764266718899188e+02 1.0000000000000000e+00 8.6136165803410378e+00 2.1264373326653168e+00 1.7858427513775393e+01 
93 1 2 1.0280003227666081e+00 -2.2372152322071025e+02 1.0000000000000000e+00 8.6136165803407323e+00 2.1264373326653621e+00 1.7858427513775439e+01 
99 1 2 1.0280003227666084e+00 -2.3628671434815078e+02 1.0000000000000000e+00 8.6136165803408460e+00 2.1264373326653709e+00 1.7858427513775347e+01 
130 1 2 1.0280003227666081e+00 -2.6408393302055191e+02 1.0000000000000000e+00 8.6136165803410822e+00 2.1264373326652901e+00 1.7858427513775442e+01 
129 1 2 1.0280003227666081e+00 -2.8436812438945236e+02 1.0000000000000000e+00 8.6136165803409916e+00 2.1264373326652941e+00 1.7858427513775482e+01 
136 1 2 1.0280003227666084e+00 -2.0382206640088970e+02 1.0000000000000000e+00 8.6136165803409739e+00 2.1264373326653274e+00 1.7858427513775393e+01 
131 1 2 1.0279992175409494e+00 -2.1815156985385985e+02 1.0000000000000000e+00 9.1230439214225640e+00 4.2127563774628536e+00 1.8224273170136090e+01 
108 1 2 1.0279992175409498e+00 -2.1676594181486587e+02 1.0000000000000000e+00 9.1230439214226351e+00 4.2127563774628785e+00 1.8224273170136161e+01 
103 1 2 1.0279992175409509e+00 -1.9932260093193366e+02 1.0000000000000000e+00 9.1230439214226760e+00 4.2127563774628802e+00 1.8224273170136190e+01 
144 1 2 1.0279992175409500e+00 -1.5699173938263095e+02 1.0000000000000000e+00 9.1230439214226529e+00 4.2127563774628820e+00 1.8224273170136176e+01 
9 1 2 1.0280000000009508e+00 -1.5665150729697029e+02 1.0000000000000000e+00 1.0808512629776631e+01 1.3059627066790217e+01 1.2693202011830993e+00 
2 1 2 1.0280000000009550e+00 -1.3402529619955885e+02 1.0000000000000000e+00 1.0808512629776589e+01 1.3059627066790076e+01 1.2693202011833682e+00 
78 1 2 1.0280000000009499e+00 -1.8915506610952468e+02 1.0000000000000000e+00 1.0808512629776608e+01 1.3059627066790140e+01 1.2693202011830671e+00 
88 1 2 1.0280000000009568e+00 -2.5947052980583931e+02 1.0000000000000000e+00 1.0808512629776581e+01 1.3059627066790084e+01 1.2693202011833524e+00 
63 1 2 1.0280000000009433e+00 -2.4953608440368635e+02 1.0000000000000000e+00 1.0808512629776629e+01 1.3059627066790039e+01 1.2693202011833296e+00 
3 1 2 1.0280000000009550e+00 -1.5512604810568598e+02 1.0000000000000000e+00 1.0808512629776576e+01 1.3059627066790044e+01 1.2693202011833382e+00 
162 1 2 1.0279999999992153e+00 -2.0410914356124857e+02 1.0000000000000000e+00 9.2396966678012209e+00 1.3760756099603810e+01 1.2199840372847675e+00 
122 1 2 1.0279999999992253e+00 -1.8871951893050357e+02 1.0000000000000000e+00 8.6701522191815279e+00 1.3659865488110340e+01 1.5510160409070903e+00 
125 1 2 1.0279999999991765e+00 -2.7833650520996150e+02 1.0000000000000000e+00 8.6378779794800060e+00 1.3657933229746416e+01 1.5770857491705161e+00 
161 1 2 1.0279999999991929e+00 -1.9380117388786539e+02 1.0000000000000000e+00 8.6411171082084373e+00 1.3658011534717422e+01 1.5744944279057069e+00 
123 1 2 1.0280000000008243e+00 -2.1270477625709549e+02 1.0000000000000000e+00 7.6763190401368373e+00 1.4652524595916180e+01 2.9966155662717404e+00 
110 1 2 1.0280000000008247e+00 -2.5026990894840623e+02 1.0000000000000000e+00 7.6763190401446106e+00 1.4652524595918038e+01 2.9966155662760747e+00 
155 1 2 1.0280000000008243e+00 -1.7008365133685226e+02 1.0000000000000000e+00 7.6763194432129680e+00 1.4652524580509880e+01 2.9966158651268850e+00 
118 1 2 1.0280000000008240e+00 -2.0365245956909177e+02 1.0000000000000000e+00 7.6763190401431229e+00 1.4652524595917711e+01 2.9966155662752287e+00 
55 1 2 1.0280000000008240e+00 -8.2616327796310912e+01 1.0000000000000000e+00 7.6763190401429888e+00 1.4652524595917688e+01 2.9966155662751475e+00 
89 1 2 1.0280000000008240e+00 -2.1074663371337502e+02 1.0000000000000000e+00 7.6763190399743442e+00 1.4652524595960587e+01 2.9966155661259806e+00 
60 1 2 1.0279994401142993e+00 -2.6896321736181653e+02 1.0000000000000000e+00 1.7689470270203874e+01 1.3033919646963394e+00 5.3475461622530907e-01 
47 1 2 1.0279994401142984e+00 -2.6071459063447901e+02 1.0000000000000000e+00 1.7689470309037802e+01 1.3033919297341368e+00 5.3475465345562823e-01 
48 1 2 1.0279994401144619e+00 -3.1135466901133640e+02 1.0000000000000000e+00 1.7689455660072085e+01 1.3033822906852368e+00 5.3458015575748596e-01 
87 1 2 1.0279994401144110e+00 -1.7384285714547627e+02 1.0000000000000000e+00 1.7689451230439779e+01 1.3033845789285132e+00 5.3456412319878865e-01 
14 1 2 1.0279994401143995e+00 -2.4140692218614396e+02 1.0000000000000000e+00 1.7689449394888271e+01 1.3033857531571806e+00 5.3455906155521671e-01 
98 1 2 1.0279994401143198e+00 -2.8161673877600560e+02 1.0000000000000000e+00 1.7689458117364040e+01 1.3033753021674661e+00 5.3454917984588801e-01 
62 1 2 1.0279994401144619e+00 -2.9349494511090666e+02 1.0000000000000000e+00 1.7689455660072113e+01 1.3033822906852099e+00 5.3458015575750284e-01 
71 1 2 1.0280140089707697e+00 -1.8623670904155205e+02 1.0000000000000000e+00 1.4117553916615430e+01 6.5595004493700859e+00 6.3695882269904329e+00 
36 1 2 1.0280140089707697e+00 -2.4249295115165918e+02 1.0000000000000000e+00 1.4117553916615430e+01 6.5595004493700859e+00 6.3695882269904329e+00 
29 1 2 1.0280140089707697e+00 -2.5041775462668338e+02 1.0000000000000000e+00 1.4117553916615430e+01 6.5595004493700859e+00 6.3695882269904329e+00 
30 1 2 1.0280140089707697e+00 -2.1100636411462833e+02 1.0000000000000000e+00 1.4117553916615430e+01 6.5595004493700859e+00 6.3695882269904329e+00 
72 1 2 1.0280140089707697e+00 -1.6355590473107108e+02 1.0000000000000000e+00 1.4117553916615430e+01 6.5595004493700859e+00 6.3695882269904329e+00 
24 1 2 1.0280140089707697e+00 -1.8299567542315657e+02 1.0000000000000000e+00 1.4117553916615430e+01 6.5595004493700859e+00 6.3695882269904329e+00 
66 1 2 1.0280140089707694e+00 -2.4881857302801399e+02 1.0000000000000000e+00 1.4117553916615213e+01 6.5595004493701143e+00 6.3695882269906106e+00 
8 1 2 1.0279830848130582e+00 -1.9009036450018766e+02 1.0000000000000000e+00 1.5673463786983469e+01 1.5718249232809285e+00 9.9719261913000867e+00 
56 1 2 1.0279830848130582e+00 -1.0201578584700610e+02 1.0000000000000000e+00 1.5673463786983469e+01 1.5718249232809285e+00 9.9719261913000867e+00 
13 1 2 1.0279830848130582e+00 -1.5200347430853046e+02 1.0000000000000000e+00 1.5673463786983469e+01 1.5718249232809285e+00 9.9719261913000867e+00 
86 1 2 1.0279830848130582e+00 -1.8434146430227651e+02 1.0000000000000000e+00 1.5673463786983469e+01 1.5718249232809285e+00 9.9719261913000867e+00 
151 1 2 1.0279830848130582e+00 -2.6684391085391991e+02 1.0000000000000000e+00 1.5673463786983469e+01 1.5718249232809285e+00 9.9719261913000867e+00 
20 1 2 1.0279830848130582e+00 -1.3287172921653328e+02 1.0000000000000000e+00 1.5673463786983397e+01 1.5718249232799459e+00 9.9719261912992767e+00 
19 1 2 1.0279830848130582e+00 -1.7043624850179458e+02 1.0000000000000000e+00 1.5673463786983397e+01 1.5718249232799459e+00 9.9719261912992767e+00 
7 1 2 1.0280069778148704e+00 -2.5975095440075415e+02 1.0000000000000000e+00 1.6309133086909636e+01 3.5862308856293592e+00 7.4798795463814178e+00 
90 1 2 1.0280069783119681e+00 -2.1333057663691125e+02 1.0000000000000000e+00 1.6309131823417296e+01 3.5862316379961596e+00 7.4798798251597054e+00 
67 1 2 1.0280069781932846e+00 -2.1698898085807409e+02 1.0000000000000000e+00 1.6309134305162605e+01 3.5862342477156548e+00 7.4798825682590504e+00 
104 1 2 1.0280069781932846e+00 -1.9877090149710190e+02 1.0000000000000000e+00 1.6309134305162875e+01 3.5862342477160207e+00 7.4798825682594154e+00 
61 1 2 1.0280069781972190e+00 -1.8801472815060160e+02 1.0000000000000000e+00 1.6309134250314379e+01 3.5862341962904596e+00 7.4798825126650721e+00 
68 1 2 1.0280069778148719e+00 -2.6192100895611952e+02 1.0000000000000000e+00 1.6309133086905359e+01 3.5862308856289187e+00 7.4798795463799541e+00 
54 1 2 1.0280069842115254e+00 -2.0804003599827283e+02 1.0000000000000000e+00 1.6309095181339362e+01 3.5862128861497182e+00 7.4798552622285150e+00 
101 1 2 1.0281862021762995e+00 -1.6285329141078125e+02 1.0000000000000000e+00 1.8488035568818372e+01 2.3245547155599238e+00 1.4142360333590071e+01 
142 1 2 1.0281862021762995e+00 -2.5576943508692870e+02 1.0000000000000000e+00 1.8488035568818372e+01 2.3245547155599238e+00 1.4142360333590071e+01 
100 1 2 1.0281862021762995e+00 -1.8616924106380696e+02 1.0000000000000000e+00 1.8488035568818379e+01 2.3245547155599273e+00 1.4142360333590069e+01 
143 1 2 1.0281862021762995e+00 -2.6522876529916232e+02 1.0000000000000000e+00 1.8488035568818372e+01 2.3245547155599238e+00 1.4142360333590071e+01 
65 1 2 1.0281862021762995e+00 -1.8503812567524477e+02 1.0000000000000000e+00 1.8488035568818379e+01 2.3245547155599273e+00 1.4142360333590069e+01 
107 1 2 1.0281862021762995e+00 -1.9922829025218624e+02 1.0000000000000000e+00 1.8488035568818372e+01 2.3245547155599238e+00 1.4142360333590071e+01 
106 1 2 1.0281862021762995e+00 -2.5680156582493635e+02 1.0000000000000000e+00 1.8488035568818372e+01 2.3245547155599238e+00 1.4142360333590071e+01 
53 1 2 1.0281381765775981e+00 -2.1566835018268583e+02 1.0000000000000000e+00 1.5584419697402708e+01 4.6816343979738058e+00 1.4151781931326287e+01 
59 1 2 1.0281381765775981e+00 -2.0495538368757042e+02 1.0000000000000000e+00 1.5584419697402708e+01 4.6816343979738058e+00 1.4151781931326287e+01 
166 1 2 1.0281381765775981e+00 -2.5091493153590247e+02 1.0000000000000000e+00 1.5584419697402708e+01 4.6816343979738058e+00 1.4151781931326287e+01 
160 1 2 1.0281381765775981e+00 -2.5319058951864201e+02 1.0000000000000000e+00 1.5584419697402708e+01 4.6816343979738058e+00 1.4151781931326287e+01 
52 1 2 1.0281381765775981e+00 -2.4419948281824105e+02 1.0000000000000000e+00 1.5584419697402708e+01 4.6816343979738058e+00 1.4151781931326287e+01 
167 1 2 1.0281381765775981e+00 -1.7227836093504834e+02 1.0000000000000000e+00 1.5584419697402708e+01 4.6816343979738058e+00 1.4151781931326287e+01 
58 1 2 1.0281381765775981e+00 -1.8917636176401606e+02 1.0000000000000000e+00 1.5584419697402708e+01 4.6816343979738058e+00 1.4151781931326287e+01 
51 1 2 1.0280001548271103e+00 -2.2900038879687253e+02 1.0000000000000000e+00 1.7318648216371553e+01 1.4932646914416285e+01 2.9578021581440725e+00 
82 1 2 1.0280001548271103e+00 -2.1430135990854194e+02 1.0000000000000000e+00 1.7318648216371567e+01 1.4932646914416296e+01 2.9578021581440903e+00 
46 1 2 1.0280001548271103e+00 -2.6039865603844737e+02 1.0000000000000000e+00 1.7318648216371571e+01 1.4932646914416305e+01 2.9578021581441059e+00 
165 1 2 1.0280001548271103e+00 -2.2068483463190097e+02 1.0000000000000000e+00 1.7318648216371567e+01 1.4932646914416296e+01 2.9578021581440903e+00 
76 1 2 1.0280001548271103e+00 -2.6225094348736673e+02 1.0000000000000000e+00 1.7318648216371553e+01 1.4932646914416285e+01 2.9578021581440725e+00 
41 1 2 1.0280001548271103e+00 -2.2790506952747199e+02 1.0000000000000000e+00 1.7318648216371567e+01 1.4932646914416296e+01 2.9578021581440903e+00 
50 1 2 1.0280001548271103e+00 -1.7705280758258689e+02 1.0000000000000000e+00 1.7318648216371567e+01 1.4932646914416296e+01 2.9578021581440903e+00 
22 1 2 1.0279994438800302e+00 -1.6203981564805412e+02 1.0000000000000000e+00 1.5351200119440021e+01 1.9045288913747768e+01 8.5698590510724482e-01 
17 1 2 1.0279994438800302e+00 -1.9479098184890108e+02 1.0000000000000000e+00 1.5351200119440021e+01 1.9045288913747768e+01 8.5698590510724482e-01 
57 1 2 1.0279994438800302e+00 -2.1688560953713957e+02 1.0000000000000000e+00 1.5351200119440021e+01 1.9045288913747768e+01 8.5698590510724482e-01 
11 1 2 1.0279994438800302e+00 -2.1804115995530344e+02 1.0000000000000000e+00 1.5351200119440021e+01 1.9045288913747768e+01 8.5698590510724482e-01 
64 1 2 1.0279994438800302e+00 -2.4964359141325968e+02 1.0000000000000000e+00 1.5351200119440021e+01 1.9045288913747768e+01 8.5698590510724482e-01 
23 1 2 1.0279994438800302e+00 -1.7355229863783651e+02 1.0000000000000000e+00 1.5351200119440021e+01 1.9045288913747768e+01 8.5698590510724482e-01 
10 1 2 1.0279994438800302e+00 -1.9292103053503575e+02 1.0000000000000000e+00 1.5351200119440021e+01 1.9045288913747768e+01 8.5698590510724482e-01 
119 1 2 1.0280001548271103e+00 -2.2957559741798917e+02 1.0000000000000000e+00 1.7228810081986996e+01 1.2183298398972171e+01 4.7194224531546540e+00 
69 1 2 1.0280001548271103e+00 -1.3703551874794630e+02 1.0000000000000000e+00 1.7228810081986996e+01 1.2183298398972155e+01 4.7194224531546292e+00 
27 1 2 1.0280001548271103e+00 -1.4211202731918661e+02 1.0000000000000000e+00 1.7228810081986982e+01 1.2183298398972164e+01 4.7194224531546434e+00 
113 1 2 1.0280001548271103e+00 -2.6459709115581228e+02 1.0000000000000000e+00 1.7228810081987014e+01 1.2183298398972155e+01 4.7194224531546300e+00 
43 1 2 1.0280001548271103e+00 -3.0986176327457736e+02 1.0000000000000000e+00 1.7228810081986996e+01 1.2183298398972155e+01 4.7194224531546292e+00 
33 1 2 1.0280001548271103e+00 -1.3669802351033832e+02 1.0000000000000000e+00 1.7228810081986982e+01 1.2183298398972164e+01 4.7194224531546434e+00 
77 1 2 1.0280001548271103e+00 -1.9700480895547639e+02 1.0000000000000000e+00 1.7228810081987014e+01 1.2183298398972150e+01 4.7194224531546221e+00 
148 1 2 1.0279998577134026e+00 -1.7298121215204242e+02 1.0000000000000000e+00 1.9654674027201807e+01 1.1140764861134613e+01 8.6730822553719893e+00 
179 1 2 1.0279998577134026e+00 -1.9517302179345972e+02 1.0000000000000000e+00 1.9654674027201864e+01 1.1140764861134562e+01 8.6730822553719964e+00 
178 1 2 1.0279998577134024e+00 -1.4651260344196848e+02 1.0000000000000000e+00 1.9654674027201850e+01 1.1140764861134562e+01 8.6730822553719840e+00 
120 1 2 1.0280000498388220e+00 -2.6899896922673412e+02 1.0000000000000000e+00 1.9055048369995703e+01 1.0077251204952800e+01 8.8431488129179581e+00 
138 1 2 1.0280000498388220e+00 -2.5151940449435989e+02 1.0000000000000000e+00 1.9055048369994722e+01 1.0077251204953281e+01 8.8431488129187503e+00 
137 1 2 1.0280000498388224e+00 -2.7964484346001251e+02 1.0000000000000000e+00 1.9055048369994484e+01 1.0077251204953340e+01 8.8431488129176863e+00 
102 1 2 1.0280000498388222e+00 -1.9883575632058168e+02 1.0000000000000000e+00 1.9055048369995728e+01 1.0077251204952798e+01 8.8431488129181375e+00 
149 1 2 1.0280000498388220e+00 -1.9653423522971494e+02 1.0000000000000000e+00 1.9055048369995703e+01 1.0077251204952800e+01 8.8431488129179581e+00 
114 1 2 1.0279999092558523e+00 -2.4334222228585611e+02 1.0000000000000000e+00 1.8470593966154016e+01 1.5526401328910239e+01 7.0529372752513639e+00 
163 1 2 1.0279999092558503e+00 -2.1083767813925959e+02 1.0000000000000000e+00 1.8470593967123666e+01 1.5526401329493289e+01 7.0529372749994446e+00 
21 1 2 1.0279999092558489e+00 -1.4812632403367917e+02 1.0000000000000000e+00 1.8470593966858740e+01 1.5526401329524136e+01 7.0529372751074266e+00 
1 1 2 1.0279999092558512e+00 -9.6299322766101810e+01 1.0000000000000000e+00 1.8470593965962411e+01 1.5526401328904813e+01 7.0529372753237416e+00 
175 1 2 1.0279999092558481e+00 -2.0395248486655206e+02 1.0000000000000000e+00 1.8470593965640507e+01 1.5526401328978682e+01 7.0529372754624235e+00 
133 1 2 1.0279999092558478e+00 -2.7809061635428867e+02 1.0000000000000000e+00 1.8470593965685172e+01 1.5526401329011433e+01 7.0529372754520328e+00 
169 1 2 1.0279999092558507e+00 -2.8066414283338025e+02 1.0000000000000000e+00 1.8470593967303795e+01 1.5526401329523544e+01 7.0529372749365722e+00 
127 1 2 1.0279996113670700e+00 -2.4670221320889419e+02 1.0000000000000000e+00 1.9594245576864441e+01 1.4922790174742547e+01 9.9813605185063548e+00 
91 1 2 1.0279996113670715e+00 -2.9185598180393538e+02 1.0000000000000000e+00 1.9594245576864385e+01 1.4922790174742534e+01 9.9813605185063512e+00 
92 1 2 1.0279996113670702e+00 -2.3173763361717016e+02 1.0000000000000000e+00 1.9594245576864338e+01 1.4922790174742529e+01 9.9813605185063317e+00 
158 1 2 1.0279996113670702e+00 -2.7711018751024869e+02 1.0000000000000000e+00 1.9594245576864452e+01 1.4922790174742548e+01 9.9813605185063636e+00 
97 1 2 1.0279996113670704e+00 -2.4455852552625214e+02 1.0000000000000000e+00 1.9594245576864424e+01 1.4922790174742545e+01 9.9813605185063725e+00 
115 1 2 1.0279998930919116e+00 -2.2777199396076054e+02 1.0000000000000000e+00 1.8940117654043206e+01 1.2928991022988706e+01 1.0079704884308329e+01 
73 1 2 1.0279998930911376e+00 -2.3736507122137454e+02 1.0000000000000000e+00 1.8940118352150279e+01 1.2928987559143527e+01 1.0079706575060223e+01 
74 1 2 1.0279998930911634e+00 -2.1497966159231521e+02 1.0000000000000000e+00 1.8940118349167353e+01 1.2928987573943619e+01 1.0079706567836975e+01 
150 1 2 1.0280043885354671e+00 -1.8375354127826105e+02 1.0000000000000000e+00 1.6287909766331005e+01 1.5290931981605858e+01 1.2789683744677964e+01 
156 1 2 1.0280043885354671e+00 -1.9421009219855961e+02 1.0000000000000000e+00 1.6287909766331008e+01 1.5290931981605853e+01 1.2789683744677953e+01 
96 1 2 1.0280043885354671e+00 -2.4114356642129326e+02 1.0000000000000000e+00 1.6287909766331008e+01 1.5290931981605857e+01 1.2789683744677962e+01 
95 1 2 1.0280043885354671e+00 -2.0030201143432629e+02 1.0000000000000000e+00 1.6287909766331008e+01 1.5290931981605853e+01 1.2789683744677953e+01 
12 1 2 1.0280043885354671e+00 -3.0823808207523524e+02 1.0000000000000000e+00 1.6287909766331005e+01 1.5290931981605858e+01 1.2789683744677964e+01 
18 1 2 1.0280043885354671e+00 -2.6592343561059704e+02 1.0000000000000000e+00 1.6287909766331008e+01 1.5290931981605853e+01 1.2789683744677953e+01 
38 1 2 1.0280043885354671e+00 -1.3973508215422930e+02 1.0000000000000000e+00 1.6287909766331008e+01 1.5290931981605857e+01 1.2789683744677962e+01 
6 1 2 1.0280052239173689e+00 -1.9676727534974029e+02 1.0000000000000000e+00 1.6994663602141248e+01 1.8289219756988004e+01 1.1703123758022002e+01 
83 1 2 1.0280052239173687e+00 -2.4022642099160248e+02 1.0000000000000000e+00 1.6994663602141184e+01 1.8289219756988025e+01 1.1703123758022016e+01 
28 1 2 1.0280052239173689e+00 -2.2606813437590378e+02 1.0000000000000000e+00 1.6994663602141248e+01 1.8289219756988004e+01 1.1703123758022002e+01 
105 1 2 1.0280052239173687e+00 -1.7165273768242690e+02 1.0000000000000000e+00 1.6994663602141184e+01 1.8289219756988025e+01 1.1703123758022016e+01 
75 1 2 1.0280052239173689e+00 -1.8179660788335300e+02 1.0000000000000000e+00 1.6994663602141248e+01 1.8289219756988004e+01 1.1703123758022002e+01 
42 1 2 1.0280052239173689e+00 -2.3227789839940522e+02 1.0000000000000000e+00 1.6994663602141220e+01 1.8289219756988018e+01 1.1703123758022027e+01 
37 1 2 1.0280052239173689e+00 -1.8642752427647716e+02 1.0000000000000000e+00 1.6994663602141291e+01 1.8289219756987940e+01 1.1703123758021853e+01 
16 1 2 1.0279317017386340e+00 -1.8408048284148074e+02 1.0000000000000000e+00 1.9943963437630927e+01 1.9447996224802257e+01 1.4674609539788321e+01 
35 1 2 1.0279317017386342e+00 -2.0083794675401518e+02 1.0000000000000000e+00 1.9943963437630931e+01 1.9447996224802264e+01 1.4674609539788342e+01 
34 1 2 1.0279317017386340e+00 -2.0316408868663231e+02 1.0000000000000000e+00 1.9943963437630927e+01 1.9447996224802257e+01 1.4674609539788321e+01 
4 1 2 1.0279317017386340e+00 -2.1511521729899272e+02 1.0000000000000000e+00 1.9943963437630927e+01 1.9447996224802257e+01 1.4674609539788321e+01 
5 1 2 1.0279317017386340e+00 -2.0617731773610248e+02 1.0000000000000000e+00 1.9943963437630927e+01 1.9447996224802257e+01 1.4674609539788321e+01 
70 1 2 1.0279317017386340e+00 -2.4653868794921399e+02 1.0000000000000000e+00 1.9943963437630927e+01 1.9447996224802257e+01 1.4674609539788321e+01 
40 1 2 1.0279317017386340e+00 -2.1045385202986168e+02 1.0000000000000000e+00 1.9943963437630927e+01 1.9447996224802257e+01 1.4674609539788321e+01 

Velocities

139 1.3139804767668448e-01 -4.0228754799312177e-02 -3.2747411925244824e-01
140 1.3139804767668273e-01 -4.0228754799309763e-02 -3.2747411925244818e-01
146 1.3139804767668239e-01 -4.0228754799308944e-02 -3.2747411925244829e-01
39 1.3139804767668153e-01 -4.0228754799310790e-02 -3.2747411925244785e-01
15 1.3139804767668120e-01 -4.0228754799309055e-02 -3.2747411925244824e-01
174 1.3255732218741861e-01 -3.9562603294665676e-02 -3.2627233728514771e-01
121 1.3255732218741861e-01 -3.9562603294665676e-02 -3.2627233728514771e-01
126 1.3255732218741861e-01 -3.9562603294665676e-02 -3.2627233728514771e-01
45 1.3255732218741861e-01 -3.9562603294665676e-02 -3.2627233728514771e-01
173 1.3255732218741861e-01 -3.9562603294665676e-02 -3.2627233728514771e-01
157 1.3255732218741861e-01 -3.9562603294665676e-02 -3.2627233728514771e-01
180 1.3255732218741861e-01 -3.9562603294665676e-02 -3.2627233728514771e-01
116 1.3768736470898135e-01 -4.1883510355876910e-02 -3.4599851341207288e-01
117 1.3768736470897200e-01 -4.1883510355876327e-02 -3.4599851341206667e-01
49 1.3768736470898135e-01 -4.1883510355876910e-02 -3.4599851341207288e-01
111 1.3768736470900816e-01 -4.1883510355875321e-02 -3.4599851341208793e-01
81 1.3768736470897813e-01 -4.1883510355876799e-02 -3.4599851341207055e-01
112 1.3768736470899309e-01 -4.1883510355875550e-02 -3.4599851341207932e-01
109 1.3768736470897364e-01 -4.1883510355876695e-02 -3.4599851341206755e-01
31 1.3727970860725264e-01 -4.1365099060390112e-02 -3.4638415496611807e-01
25 1.3727970860810737e-01 -4.1365099060524817e-02 -3.4638415496638031e-01
44 1.3727970864958655e-01 -4.1365099064858045e-02 -3.4638415498254466e-01
94 1.3727970860823191e-01 -4.1365099060533830e-02 -3.4638415496643910e-01
32 1.3724102737008639e-01 -4.1367920192874441e-02 -3.4640172557917498e-01
26 1.3725360891515567e-01 -4.1362339205762599e-02 -3.4640442169086622e-01
154 1.3116398597221257e-01 -4.0346902531133808e-02 -3.2784914695757139e-01
152 1.3116398608680449e-01 -4.0346902609238657e-02 -3.2784914672427012e-01
147 1.3116398597288079e-01 -4.0346902531575739e-02 -3.2784914695623052e-01
153 1.3116399784082922e-01 -4.0346910477261695e-02 -3.2784912292406826e-01
145 1.3131374865921283e-01 -4.0349581232390339e-02 -3.2766203797565380e-01
168 1.3131374865921291e-01 -4.0349581232391164e-02 -3.2766203797565341e-01
132 1.3131374865921411e-01 -4.0349581232386619e-02 -3.2766203797565502e-01
172 1.3131374865921516e-01 -4.0349581232383920e-02 -3.2766203797565724e-01
171 1.3519275145595142e-01 -5.8606389667361890e-02 -3.7127852446940862e-01
170 1.3519275145595114e-01 -5.8606389667361994e-02 -3.7127852446940840e-01
177 1.3519275145595114e-01 -5.8606389667361994e-02 -3.7127852446940840e-01
124 1.3519275145595114e-01 -5.8606389667361994e-02 -3.7127852446940840e-01
141 1.3519275145595130e-01 -5.8606389667361661e-02 -3.7127852446940801e-01
134 1.3519275145595114e-01 -5.8606389667361994e-02 -3.7127852446940840e-01
176 1.3519275145595130e-01 -5.8606389667361661e-02 -3.7127852446940801e-01
128 1.4358223895203456e-01 -3.9234044379134053e-02 -3.8485961526181822e-01
80 1.4358223895203456e-01 -3.9234044379134053e-02 -3.8485961526181822e-01