LAMMPS data file via write_data, version 30 Jul 2016, timestep = 50000000

180 atoms
2 atom types

0.0000000000000000e+00 2.0000000000000000e+01 xlo xhi
0.0000000000000000e+00 2.0000000000000000e+01 ylo yhi
0.0000000000000000e+00 2.0000000000000000e+01 zlo zhi

Masses

1 3.896
2 4.31

Atoms # meso-molecular

166 1 2 1.0280000001055938e+00 -1.1456364373529811e+02 1.0000000000000000e+00 1.2853995440245672e+01 5.7106604737148059e-01 9.7829782987352711e+00 
154 1 2 1.0280000000066902e+00 3.2052583303980512e+01 1.0000000000000000e+00 1.2909716629080455e+01 2.8694682662765825e-01 9.6015661751966519e+00 
168 1 2 1.0279999999728378e+00 -3.1839941435946946e+02 1.0000000000000000e+00 1.2916749825692476e+01 3.5595091364548520e-01 9.5613838602157220e+00 
40 1 2 1.0280000001336524e+00 4.6406274869796130e+02 1.0000000000000000e+00 1.2886893231853756e+01 1.3046629477582685e+00 9.9272715596651917e+00 
175 1 2 1.0280000001098402e+00 1.3322269217629571e+02 1.0000000000000000e+00 1.2900985799108335e+01 1.3850655066666600e+00 9.9371024280535334e+00 
81 1 2 1.0280000001171641e+00 -2.4775478162916494e+02 1.0000000000000000e+00 1.2898575060436871e+01 1.3914150405420871e+00 9.9390554655363417e+00 
58 1 2 1.0280000000876106e+00 7.0646301318277324e+01 1.0000000000000000e+00 1.2910894679039247e+01 1.4814555547207486e+00 9.9501182176961294e+00 
22 1 2 1.0280000000671243e+00 -1.8177637774686912e+02 1.0000000000000000e+00 1.2916832028630488e+01 1.5365542390225890e+00 9.9570544590652297e+00 
28 1 2 1.0280000000413994e+00 -1.5644469015842799e+02 1.0000000000000000e+00 1.3091479077031597e+01 4.4693435264500589e+00 1.0726498617108421e+01 
53 1 2 1.0280000000278844e+00 -2.7161809249591968e+01 1.0000000000000000e+00 1.3108390336390492e+01 3.9002228938467183e+00 1.0626188352840567e+01 
169 1 2 1.0280000000040332e+00 4.7198956701153833e+01 1.0000000000000000e+00 1.3155168849385701e+01 4.0433636793747407e+00 1.0624184197795342e+01 
76 1 2 1.0279999999867260e+00 2.8567706914356603e+00 1.0000000000000000e+00 1.3187123498127319e+01 4.4248244675810158e+00 1.0649455068431390e+01 
68 1 2 1.0279999999964817e+00 1.0042889981713790e+02 1.0000000000000000e+00 1.3170714182187663e+01 4.1590121933322832e+00 1.0631408709466223e+01 
17 1 2 1.0280000000128551e+00 -2.0406446175215842e+02 1.0000000000000000e+00 1.3131470528168782e+01 3.8538751918025858e+00 1.0600848277550005e+01 
176 1 2 1.0279999999890246e+00 -1.2539317443005382e+02 1.0000000000000000e+00 1.3172814826032072e+01 3.9515124820671126e+00 1.0588166375159414e+01 
11 1 2 1.0279999999915350e+00 -2.3501464906134407e+02 1.0000000000000000e+00 1.3138317835709481e+01 3.5719727425613530e+00 1.0516028899094415e+01 
136 1 2 1.0279999999591103e+00 3.0930094280236915e+02 1.0000000000000000e+00 1.3140881567350059e+01 3.3330939480551907e+00 1.0424634359598299e+01 
80 1 2 1.0279999999065355e+00 -1.5209935201950537e+02 1.0000000000000000e+00 1.3227997675812018e+01 3.7006564616081583e+00 1.0401918648067237e+01 
48 1 2 1.0279999999080913e+00 -1.2191688052105314e+02 1.0000000000000000e+00 1.3200272563709584e+01 3.4844988871151061e+00 1.0379908980110979e+01 
155 1 2 1.0279999999553495e+00 2.1894407430113233e+02 1.0000000000000000e+00 1.2842047512767834e+01 3.3009457382323273e+00 1.0097231295923800e+01 
42 1 2 1.0280000001979188e+00 1.3655991776200869e+02 1.0000000000000000e+00 1.2889659095224300e+01 2.4670885779129383e+00 1.0183187544495166e+01 
38 1 2 1.0279999998286471e+00 7.8263909013919147e+01 1.0000000000000000e+00 1.2947187223577780e+01 2.0544548037556249e+00 1.0050326916436072e+01 
43 1 2 1.0279999994223095e+00 3.2834565945520745e+02 1.0000000000000000e+00 1.2973954423973263e+01 2.2831219853779534e+00 1.0003413669465701e+01 
72 1 2 1.0279999999064109e+00 4.3668764900852034e+02 1.0000000000000000e+00 1.3243011638729165e+01 4.7164346565881914e+00 1.0492806863285503e+01 
64 1 2 1.0279999999441458e+00 -2.3760152907711365e+01 1.0000000000000000e+00 1.3215677217490438e+01 4.8515534426842279e+00 1.0606036511575537e+01 
96 1 2 1.0280000000796088e+00 3.1815390558595539e+02 1.0000000000000000e+00 1.2989463219580973e+01 4.8621266137514345e+00 1.0783141722059757e+01 
138 1 2 1.0279999999937020e+00 4.2471419377403288e+02 1.0000000000000000e+00 1.2319551212837940e+01 8.6089467913656073e+00 1.0164977079589264e+01 
78 1 2 1.0280000000772582e+00 1.3867431102699615e+02 1.0000000000000000e+00 1.2175719309708331e+01 9.7675684905929945e+00 1.0326001576267778e+01 
170 1 2 1.0280000000418814e+00 -8.4787507932270913e+01 1.0000000000000000e+00 1.2249595478608226e+01 9.9379104790900108e+00 1.0292401016303916e+01 
141 1 2 1.0280000000752305e+00 7.6697157756255791e+01 1.0000000000000000e+00 1.2139631782527557e+01 9.9486826345101420e+00 1.0278307795017456e+01 
94 1 2 1.0280000000551592e+00 2.9482522705723227e+02 1.0000000000000000e+00 1.2210371721493509e+01 9.9557246783943949e+00 1.0289853790343630e+01 
105 1 2 1.0280000000897132e+00 2.3722720082362440e+02 1.0000000000000000e+00 1.2940550392784411e+01 5.5274305556141829e+00 1.0785106652166421e+01 
121 1 2 1.0280000000948626e+00 7.6926479504759428e+01 1.0000000000000000e+00 1.2918994996778403e+01 5.7109475894312212e+00 1.0774671660271062e+01 
71 1 2 1.0280000000907252e+00 2.1121289321569770e+02 1.0000000000000000e+00 1.2920947874875612e+01 5.7837892318831150e+00 1.0767557670616130e+01 
27 1 2 1.0280000000907421e+00 -5.1052459222667352e+01 1.0000000000000000e+00 1.2914640287082252e+01 5.8545120042028653e+00 1.0760952558216767e+01 
146 1 2 1.0280000000784806e+00 -2.5870173378480501e+02 1.0000000000000000e+00 1.2960013475520523e+01 5.5668123758834165e+00 1.0779037295402764e+01 
101 1 2 1.0280000000747440e+00 5.0234249200970837e+01 1.0000000000000000e+00 1.2978413462198766e+01 5.4111356737714438e+00 1.0784464879248837e+01 
132 1 2 1.0280000000877338e+00 4.4902556290294001e+01 1.0000000000000000e+00 1.2902795330072891e+01 6.0128258434664588e+00 1.0742569218038556e+01 
49 1 2 1.0280000000389502e+00 1.8743528546286865e+02 1.0000000000000000e+00 1.2504139040711957e+01 8.9156847454906121e+00 1.0457191321227503e+01 
115 1 2 1.0280000000843030e+00 6.7477038598823640e+01 1.0000000000000000e+00 1.2926424357113213e+01 5.8370051815426862e+00 1.0760621034692202e+01 
66 1 2 1.0280000001022760e+00 2.5102042528916701e+02 1.0000000000000000e+00 1.2914221597351254e+01 5.0633531425245790e+00 1.0790425976622775e+01 
139 1 2 1.0280000000674407e+00 -1.6064828148110814e+02 1.0000000000000000e+00 1.2993063018183873e+01 5.4036328073069368e+00 1.0780921278824094e+01 
63 1 2 1.0280000000062273e+00 3.6235736137274796e+02 1.0000000000000000e+00 1.2626342972737930e+01 8.2625054466027983e+00 1.0463558506416581e+01 
20 1 2 1.0280000000361653e+00 -1.8671622926334243e+02 1.0000000000000000e+00 1.2579143634146543e+01 8.4882768106316018e+00 1.0475379719797306e+01 
134 1 2 1.0280000000746039e+00 1.7227275590986363e+02 1.0000000000000000e+00 1.2924793293932538e+01 5.9718857777137755e+00 1.0742839529109805e+01 
65 1 2 1.0280000000627985e+00 1.8064911649219880e+02 1.0000000000000000e+00 1.2964465172034819e+01 5.7755197539299257e+00 1.0756822503832836e+01 
104 1 2 1.0280000000679070e+00 1.4939164087490106e+01 1.0000000000000000e+00 1.2935802869922354e+01 5.9515216682523535e+00 1.0742328835670527e+01 
75 1 2 1.0280000000164382e+00 -7.7652207340684953e+01 1.0000000000000000e+00 1.2878973731300947e+01 6.5173623218488679e+00 1.0641243353717424e+01 
93 1 2 1.0279999999319027e+00 9.7553914123974863e+01 1.0000000000000000e+00 1.2639979062599094e+01 8.6095944826071822e+00 1.0355265392480208e+01 
106 1 2 1.0279999995947302e+00 2.0231280202769966e+02 1.0000000000000000e+00 1.2726252227830750e+01 7.3575179448346857e+00 1.0458065304122300e+01 
135 1 2 1.0279999999956377e+00 3.9572286159692567e+01 1.0000000000000000e+00 1.3043640867836983e+01 5.7690763285540472e+00 1.0707955934043321e+01 
50 1 2 1.0279999997278373e+00 1.4362845806433180e+02 1.0000000000000000e+00 1.2701897092439314e+01 7.5440177087416709e+00 1.0453348006274291e+01 
88 1 2 1.0279999996396518e+00 4.0892106843056672e+02 1.0000000000000000e+00 1.2721707264204571e+01 7.3828452967572096e+00 1.0462363500473801e+01 
56 1 2 1.0280000000154164e+00 -1.6526870930846206e+02 1.0000000000000000e+00 1.3033079575358752e+01 5.7067302808077205e+00 1.0728884944578876e+01 
46 1 2 1.0279999999981499e+00 -3.6695444031074544e+01 1.0000000000000000e+00 1.3058263546144246e+01 5.6659180040116919e+00 1.0714715310619866e+01 
79 1 2 1.0279999999633895e+00 -1.7947924584417643e+02 1.0000000000000000e+00 1.3161524225870975e+01 5.2045049870188498e+00 1.0666121612740437e+01 
151 1 2 1.0279999999252476e+00 -9.3631231961466398e+01 1.0000000000000000e+00 7.8762026301289021e+00 1.4763241078565921e+01 4.5835030565756778e+00 
85 1 2 1.0279999999556606e+00 -7.1033345042043408e+01 1.0000000000000000e+00 7.7954223564924892e+00 1.3789615307419528e+01 4.3854025343611527e+00 
35 1 2 1.0279999999966201e+00 -3.1227983722017268e+02 1.0000000000000000e+00 7.7099260570185066e+00 1.4213644256044033e+01 3.9357221277743153e+00 
165 1 2 1.0279999999833414e+00 -6.2467352065396412e+01 1.0000000000000000e+00 7.7140586847565089e+00 1.3966143429792899e+01 4.0527720041491326e+00 
6 1 2 1.0279999999963980e+00 -1.1133556475526311e+02 1.0000000000000000e+00 7.7476138003187840e+00 1.3945700250480098e+01 4.0267816565858707e+00 
83 1 2 1.0280000000149587e+00 1.5173500983936941e+02 1.0000000000000000e+00 7.7488547358332172e+00 1.4120743110398818e+01 3.9123924228754605e+00 
47 1 2 1.0280000000182565e+00 -1.0933487485765554e+02 1.0000000000000000e+00 7.7557451923990586e+00 1.4175982247918977e+01 3.8945680846566884e+00 
73 1 2 1.0280000000156069e+00 1.5438154042040912e+02 1.0000000000000000e+00 7.7578960461594910e+00 1.4055592236561314e+01 3.9301807731321117e+00 
130 1 2 1.0280000000209171e+00 -4.1187735292196415e+00 1.0000000000000000e+00 7.7614756389219366e+00 1.4148498296564791e+01 3.8943889734434931e+00 
171 1 2 1.0280000000210956e+00 -3.0649644007406955e+01 1.0000000000000000e+00 7.7622402908050754e+00 1.4132321550816522e+01 3.8974719367891066e+00 
14 1 2 1.0280000000216456e+00 -5.4274039429744107e+01 1.0000000000000000e+00 7.7663959674435956e+00 1.4213149421763443e+01 3.8828573573207446e+00 
126 1 2 1.0280000000211018e+00 1.4795324295397108e+02 1.0000000000000000e+00 7.7628013495758630e+00 1.4120775856565910e+01 3.9001228518625322e+00 
117 1 2 1.0280000000269245e+00 -7.0724434231184119e+01 1.0000000000000000e+00 7.7759057619656993e+00 1.4165949943484362e+01 3.8797314976466071e+00 
57 1 2 1.0280000000273668e+00 -1.7209747965886618e+02 1.0000000000000000e+00 7.7795709233276575e+00 1.4205324263217982e+01 3.8730374279925366e+00 
118 1 2 1.0280000000267049e+00 6.3466718734978791e+00 1.0000000000000000e+00 7.7780615857591817e+00 1.4094337283058907e+01 3.8961592726567886e+00 
86 1 2 1.0280000000310712e+00 -1.0940322206541109e+02 1.0000000000000000e+00 7.7867418285562380e+00 1.4179629076469389e+01 3.8698912207453504e+00 
29 1 2 1.0280000000316825e+00 -7.0935278292200280e+01 1.0000000000000000e+00 7.7892018959357774e+00 1.4103891213194011e+01 3.8843996142601895e+00 
119 1 2 1.0280000000352114e+00 2.7605538297290025e+02 1.0000000000000000e+00 7.7962266733061014e+00 1.4141089860837480e+01 3.8695006804303933e+00 
137 1 2 1.0280000000377501e+00 1.1912771357889386e+02 1.0000000000000000e+00 7.8027232663377157e+00 1.4144285326334543e+01 3.8644278201238893e+00 
128 1 2 1.0280000000376492e+00 -4.7434139155058162e+01 1.0000000000000000e+00 7.8095561457390348e+00 1.4062873914573460e+01 3.8852993497690891e+00 
51 1 2 1.0280000000398273e+00 -1.4748546607788580e+02 1.0000000000000000e+00 7.8090953124267246e+00 1.4114402387168786e+01 3.8674076229610623e+00 
90 1 2 1.0280000000407039e+00 8.7000373360846140e+01 1.0000000000000000e+00 7.8137060427473717e+00 1.4089145775997260e+01 3.8723195455736179e+00 
163 1 2 1.0280000000455525e+00 -4.3965047162610375e+01 1.0000000000000000e+00 7.8315077996297928e+00 1.4058695491758501e+01 3.8729082083332931e+00 
113 1 2 1.0280000000483189e+00 1.7027325902616661e+02 1.0000000000000000e+00 7.8316677544534441e+00 1.4154590169168188e+01 3.8447516670417574e+00 
102 1 2 1.0280000000486882e+00 3.0796633589248358e+02 1.0000000000000000e+00 7.8343749166708543e+00 1.4100480745664926e+01 3.8559637246665468e+00 
21 1 2 1.0280000000511951e+00 -1.6021806760776968e+02 1.0000000000000000e+00 7.8399432029362650e+00 1.4152008958645080e+01 3.8406203182997403e+00 
54 1 2 1.0280000000558713e+00 -1.4381485155954897e+02 1.0000000000000000e+00 7.8643228630266755e+00 1.4046900192282195e+01 3.8597713486748875e+00 
100 1 2 1.0280000000738416e+00 1.8356498009334322e+02 1.0000000000000000e+00 7.9175782859389514e+00 1.4101488476328429e+01 3.8180859435780863e+00 
60 1 2 1.0280000000634666e+00 1.5770784184257300e+02 1.0000000000000000e+00 7.9701601218753177e+00 1.4397133351818686e+01 3.8170990957925435e+00 
149 1 2 1.0280000000894538e+00 -1.9567994870442084e+02 1.0000000000000000e+00 7.9882811189934122e+00 1.4115489479219182e+01 3.7961746252859987e+00 
26 1 2 1.0280000000904399e+00 -1.0741606314683520e+02 1.0000000000000000e+00 8.0363364987618677e+00 1.4271798060419034e+01 3.7788301024682904e+00 
3 1 2 1.0280000000576910e+00 5.2306421603764619e+01 1.0000000000000000e+00 8.1766468141670856e+00 1.3732505993777213e+01 4.1048076950722434e+00 
145 1 2 1.0280000000960361e+00 1.0040802532799589e+02 1.0000000000000000e+00 8.8288854993282673e+00 1.4491715352145821e+01 4.2618501176013508e+00 
129 1 2 1.0280000001086456e+00 2.4447393294472818e+02 1.0000000000000000e+00 9.0584251513831529e+00 1.4304409109481719e+01 4.5706814168792613e+00 
161 1 2 1.0279999999023572e+00 -2.1772364065035782e+02 1.0000000000000000e+00 8.1134243981186476e+00 1.4750778589582954e+01 5.0592188706473689e+00 
111 1 2 1.0279999998981175e+00 -1.2234105715298793e+02 1.0000000000000000e+00 8.1062301602020614e+00 1.4720792040579534e+01 5.0917734834648583e+00 
82 1 2 1.0279999998973233e+00 -6.8314751614154954e+00 1.0000000000000000e+00 8.2122326436576607e+00 1.4734683313172928e+01 5.1875125221080651e+00 
178 1 2 1.0280000000467617e+00 -2.3728782324706796e+02 1.0000000000000000e+00 1.1194925439750733e+01 1.4716506004546465e+01 7.7584040013381657e+00 
162 1 2 1.0279999997697546e+00 -1.7814375556648365e+01 1.0000000000000000e+00 1.1981307628993308e+01 1.1551191479553738e+01 9.4855959317252676e+00 
99 1 2 1.0279999999851128e+00 -1.0721847314307094e+01 1.0000000000000000e+00 1.0740686496370614e+01 1.4762318390119360e+01 8.1927592659111070e+00 
45 1 2 1.0280000000785237e+00 -1.5660535988253166e+01 1.0000000000000000e+00 1.1669909365383427e+01 1.3644911772544440e+01 8.7407157771753550e+00 
150 1 2 1.0279999998188374e+00 7.8194620097070242e+01 1.0000000000000000e+00 1.1889662388080342e+01 1.1895472888960684e+01 9.3448700253756662e+00 
107 1 2 1.0279999999857472e+00 -8.2325950005979422e+01 1.0000000000000000e+00 1.0740098749947697e+01 1.4724263490063416e+01 8.2012438612240626e+00 
69 1 2 1.0279999998521379e+00 7.0317929264442284e+01 1.0000000000000000e+00 1.1934342718200593e+01 1.1905014678526545e+01 9.4455722774318414e+00 
140 1 2 1.0280000000006346e+00 -2.2965950055326630e+01 1.0000000000000000e+00 1.1219745886398297e+01 1.3461075586942494e+01 8.8076042929304794e+00 
123 1 2 1.0279999999751919e+00 1.5505492570963878e+02 1.0000000000000000e+00 1.0887160899550704e+01 1.4378873283275933e+01 8.4988587770791728e+00 
159 1 2 1.0279999999976432e+00 -3.9086878711224898e+01 1.0000000000000000e+00 1.1440502121125530e+01 1.4127196951708987e+01 8.8884072053612737e+00 
116 1 2 1.0280000000232294e+00 9.2801330521117222e+01 1.0000000000000000e+00 1.1546541825548955e+01 1.3955183349714201e+01 8.8879284563031344e+00 
147 1 2 1.0280000000731464e+00 -2.9297405122984151e+02 1.0000000000000000e+00 1.1615564879490014e+01 1.2616335328309590e+01 9.0182318370395453e+00 
109 1 2 1.0279999999810536e+00 -1.1061724333217114e+02 1.0000000000000000e+00 1.0838630879137099e+01 1.4384043717182731e+01 8.4145143016693122e+00 
10 1 2 1.0279999999912990e+00 -1.8590622466093464e+02 1.0000000000000000e+00 1.1020683219628699e+01 1.3842828711296262e+01 8.5846521634833621e+00 
174 1 2 1.0280000001581198e+00 -6.6730606703957903e+01 1.0000000000000000e+00 1.1465606830771367e+01 1.3041319532599188e+01 8.7981198652133976e+00 
112 1 2 1.0279999999904557e+00 4.7742635219801471e+01 1.0000000000000000e+00 1.1019993310618837e+01 1.3849394727119854e+01 8.5878814599230413e+00 
133 1 2 1.0279999998752913e+00 -3.8495724712132272e+01 1.0000000000000000e+00 9.0074609866508464e+00 1.4479553864732598e+01 5.8046567681669998e+00 
25 1 2 1.0279999998753018e+00 -2.1393854704860328e+02 1.0000000000000000e+00 9.0074159166541659e+00 1.4479336170227608e+01 5.8046782586790320e+00 
97 1 2 1.0280000001001139e+00 -8.3974710602184615e+01 1.0000000000000000e+00 1.0861455901690087e+01 1.4558605538882873e+01 7.6665886566567307e+00 
62 1 2 1.0279999999662441e+00 2.9039221711992263e+02 1.0000000000000000e+00 1.0862537223242214e+01 1.4842772529579481e+01 8.4165457275788498e+00 
12 1 2 1.0279999998262266e+00 -3.2657698017974087e+02 1.0000000000000000e+00 1.2045580712409468e+01 1.1413801543806020e+01 9.6623934918645524e+00 
164 1 2 1.0279999999071419e+00 -1.0663812333195145e+02 1.0000000000000000e+00 1.2044266555044990e+01 1.1283542041895375e+01 9.7783818329802159e+00 
19 1 2 1.0279999999599170e+00 -8.3693550432610181e+01 1.0000000000000000e+00 1.2071006959285615e+01 1.1031846329035531e+01 9.9002616989632468e+00 
16 1 2 1.0279999999495992e+00 -1.4881841953423745e+01 1.0000000000000000e+00 1.2112685000021479e+01 1.0903969615592063e+01 9.9404710624102339e+00 
74 1 2 1.0280000000000102e+00 -1.3239901319490082e+02 1.0000000000000000e+00 1.2078719005900213e+01 1.0857896746203304e+01 9.9803807636474637e+00 
124 1 2 1.0279999999679570e+00 2.6242757176398766e+02 1.0000000000000000e+00 1.2047179035339893e+01 1.7226335338263546e+01 8.7165984709350095e+00 
24 1 2 1.0280000000045146e+00 6.1510493990842747e+01 1.0000000000000000e+00 1.1163702330444323e+01 1.5472718017767878e+01 7.9286241012129750e+00 
1 1 2 1.0280000000154330e+00 -1.5238456948317986e+02 1.0000000000000000e+00 1.1676923511109056e+01 1.6188604667907764e+01 8.3477523839001435e+00 
44 1 2 1.0279999999659248e+00 9.9011119230765587e+01 1.0000000000000000e+00 1.2036394058782584e+01 1.7197352470052930e+01 8.7082563222285092e+00 
36 1 2 1.0279999999906835e+00 -1.5912952200192558e+01 1.0000000000000000e+00 1.2790562894940678e+01 1.9490671735615614e+01 9.3539485494834356e+00 
142 1 2 1.0279999999399414e+00 -4.3265980940753536e+01 1.0000000000000000e+00 1.1022298354523258e+01 1.5528803858269397e+01 8.2690823968354241e+00 
167 1 2 1.0280000000365701e+00 -1.6672620632561728e+02 1.0000000000000000e+00 1.0845080907128152e+01 1.5017426813546981e+01 7.7241013167148891e+00 
177 1 2 1.0280000000659850e+00 -1.5011407507300788e+01 1.0000000000000000e+00 1.2710099432902419e+01 1.9301541113522234e+01 9.4327441742603479e+00 
110 1 2 1.0279999999846348e+00 -4.7732621381595592e+01 1.0000000000000000e+00 1.2779679681252741e+01 1.9441783625542755e+01 9.3308428123697755e+00 
131 1 2 1.0280000000205054e+00 -1.1972514188383764e+02 1.0000000000000000e+00 1.1720067253157064e+01 1.5422521476784864e+01 8.5523825373371469e+00 
122 1 2 1.0279999999535792e+00 8.9088381839636412e+01 1.0000000000000000e+00 1.0915643086905892e+01 1.5337973949017794e+01 8.2101961145644999e+00 
160 1 2 1.0279999999362068e+00 -2.4293726926985912e+01 1.0000000000000000e+00 1.1884964703994703e+01 1.6876998864045571e+01 8.5864138627919271e+00 
179 1 2 1.0280000000367551e+00 -1.4081717390222775e+02 1.0000000000000000e+00 1.1475385739541098e+01 1.5519306122459437e+01 8.0366872922184758e+00 
156 1 2 1.0280000000102649e+00 1.6579263534232319e+02 1.0000000000000000e+00 1.2729135669215838e+01 1.9228801008324954e+01 9.3353642536711430e+00 
30 1 2 1.0280000000365199e+00 4.9933624923386418e+01 1.0000000000000000e+00 1.1360038700917931e+01 1.5215190776234854e+01 7.8931165584564340e+00 
59 1 2 1.0280000000379297e+00 3.2088299127941591e+00 1.0000000000000000e+00 1.1548814719843957e+01 1.5663387620215866e+01 8.1237569401924095e+00 
23 1 2 1.0279999999754617e+00 1.7083118494547534e+01 1.0000000000000000e+00 1.1796847754924826e+01 1.6543975779814055e+01 8.4960714012470628e+00 
67 1 2 1.0280000000369907e+00 7.1897757647289694e+01 1.0000000000000000e+00 1.1571324243951025e+01 1.5728059323669305e+01 8.1564110828375913e+00 
31 1 2 1.0279999999742739e+00 -1.2772782619043778e+02 1.0000000000000000e+00 1.1810641034831992e+01 1.6566791148470632e+01 8.5090893076819079e+00 
4 1 2 1.0280000000376388e+00 -1.1733954469778126e+02 1.0000000000000000e+00 1.1327160319695507e+01 1.5107935075387854e+01 7.8543631698254899e+00 
55 1 2 1.0280000000619758e+00 1.6308393151135203e+02 1.0000000000000000e+00 1.2727766901104800e+01 1.9358197867580802e+01 9.4411220772803386e+00 
34 1 2 1.0279999999473959e+00 -1.6885368406782624e+02 1.0000000000000000e+00 1.2663781590900582e+01 1.9117977126729205e+01 9.1445891942406110e+00 
18 1 2 1.0279999999693712e+00 -2.4078956474626304e+02 1.0000000000000000e+00 1.2341667920076162e+01 1.8023898008710148e+01 8.9232640590891794e+00 
7 1 2 1.0279999999454288e+00 3.8177951701710867e+01 1.0000000000000000e+00 1.2566275733063074e+01 1.8752361985052069e+01 9.0618793532133477e+00 
84 1 2 1.0280000000092975e+00 -1.3119699421137454e+02 1.0000000000000000e+00 1.2329090458310450e+01 1.7957340165608265e+01 8.9750910823153660e+00 
61 1 2 1.0279999999539648e+00 7.4463732981186681e+01 1.0000000000000000e+00 1.2337431231975136e+01 1.8217086083442346e+01 8.8860776998746935e+00 
180 1 2 1.0279999999721490e+00 -1.2994571431149507e+02 1.0000000000000000e+00 1.0813813213988107e+01 1.5162357005595226e+01 8.0789584570727033e+00 
157 1 2 1.0279999999883180e+00 -9.8009860392653934e+01 1.0000000000000000e+00 1.0834195634276671e+01 1.5183276411215394e+01 7.9137615394486973e+00 
95 1 2 1.0279999999605300e+00 1.4989579970168313e+02 1.0000000000000000e+00 1.0874662895614049e+01 1.5271464359743485e+01 8.1582750971602032e+00 
173 1 2 1.0280000000369391e+00 -2.0208861643726976e+02 1.0000000000000000e+00 1.1154075525062568e+01 1.5003090680106759e+01 7.7450190987063321e+00 
15 1 2 1.0279999999493932e+00 -8.3242101328752170e+01 1.0000000000000000e+00 1.2678266025684115e+01 1.9142093944057436e+01 9.1627466234419828e+00 
9 1 2 1.0280000000466538e+00 -1.6909303830579489e+02 1.0000000000000000e+00 1.2777981017809452e+01 1.9524056961650341e+01 9.4584216517714736e+00 
77 1 2 1.0279999999795228e+00 8.8819756059940516e+01 1.0000000000000000e+00 1.2793597064952833e+01 1.9524557514103986e+01 9.3342763473578323e+00 
143 1 2 1.0279999999768770e+00 1.8561448563805527e+02 1.0000000000000000e+00 1.2793751417367956e+01 1.9534335679929882e+01 9.3289959756814085e+00 
33 1 2 1.0279999999813554e+00 1.6795357112621338e+02 1.0000000000000000e+00 1.2796979285422523e+01 1.9538265015277268e+01 9.3414774031916927e+00 
37 1 2 1.0279999999628426e+00 5.4702468661388684e+02 1.0000000000000000e+00 1.2777213740126784e+01 1.9551831972793654e+01 9.2827714620967487e+00 
2 1 2 1.0280000001159029e+00 3.6844465132564972e+02 1.0000000000000000e+00 1.2708547983080628e+01 1.9590601484290406e+01 9.5571797122433360e+00 
52 1 2 1.0279999999790224e+00 -2.3208622970880876e+02 1.0000000000000000e+00 1.2817066137375519e+01 1.9664285392430827e+01 9.3597016274222451e+00 
98 1 2 1.0280000000209273e+00 -1.7932351991239034e+02 1.0000000000000000e+00 1.2820925822056761e+01 1.9670237829607473e+01 9.4510511391754211e+00 
70 1 2 1.0279999999949270e+00 2.0923647722055591e+01 1.0000000000000000e+00 1.2827357689442211e+01 1.9686660552262168e+01 9.4040800163784173e+00 
120 1 2 1.0279999999963059e+00 2.0688915743649443e+02 1.0000000000000000e+00 1.2833066649407293e+01 1.9719021273995065e+01 9.4143377619593736e+00 
125 1 2 1.0279999999896257e+00 -9.7658659759298587e+01 1.0000000000000000e+00 1.2834959539204389e+01 1.9739430396705647e+01 9.4035917150630581e+00 
5 1 2 1.0280000000123910e+00 6.4057992651151903e+00 1.0000000000000000e+00 1.2851207640824516e+01 1.9834240989190668e+01 9.4753078992782243e+00 
158 1 2 1.0279999999989136e+00 -1.9947012509570129e+02 1.0000000000000000e+00 1.2858107789554403e+01 1.9872862441104992e+01 9.4580001094751687e+00 
108 1 2 1.0280000001484713e+00 -1.0873989400943501e+02 1.0000000000000000e+00 1.2699001925734299e+01 1.9950325914988444e+01 9.6611359049008136e+00 
148 1 2 1.0280000000676646e+00 -2.5075350460937779e+02 1.0000000000000000e+00 1.2072815963244635e+01 1.0425922243472458e+01 1.0138385368384014e+01 
13 1 2 1.0280000000310714e+00 1.5087112197177692e+02 1.0000000000000000e+00 1.2190493908453110e+01 1.0253164305515865e+01 1.0198446715737180e+01 
172 1 2 1.0280000000737253e+00 -3.9012933082715676e+02 1.0000000000000000e+00 1.2054591880930477e+01 1.0427450543217546e+01 1.0132441068823383e+01 
92 1 2 1.0280000000389997e+00 1.1365034020235086e+01 1.0000000000000000e+00 1.2172916177309242e+01 1.0262876444113839e+01 1.0197477052558236e+01 
89 1 2 1.0280000000322498e+00 3.1213083763623793e+01 1.0000000000000000e+00 1.2162257316553806e+01 1.0356887465951395e+01 1.0165691425063656e+01 
41 1 2 1.0280000000388891e+00 -1.7831159327761992e+02 1.0000000000000000e+00 1.2160902539801143e+01 1.0313186586213117e+01 1.0181334623202801e+01 
39 1 2 1.0280000000378771e+00 3.3237962782771024e+02 1.0000000000000000e+00 1.2160147787589054e+01 1.0324183836736758e+01 1.0177586003643992e+01 
152 1 2 1.0280000000465737e+00 -2.7762354102043105e+02 1.0000000000000000e+00 1.2147621298767566e+01 1.0305021913953526e+01 1.0184757010815126e+01 
32 1 2 1.0280000000496503e+00 -2.7995243438871637e+02 1.0000000000000000e+00 1.2147247159054690e+01 1.0278231839481711e+01 1.0193439661665533e+01 
87 1 2 1.0280000000011347e+00 -1.6712901733466020e+02 1.0000000000000000e+00 1.2147560494290106e+01 1.0588687656838381e+01 1.0076573570485094e+01 
144 1 2 1.0280000000340168e+00 -6.7736206966083728e+01 1.0000000000000000e+00 1.2072492108556439e+01 1.0714851215953152e+01 1.0040805897584324e+01 
114 1 2 1.0280000000462224e+00 -5.5826890568594507e+01 1.0000000000000000e+00 1.2127272419938899e+01 1.0395914481721899e+01 1.0154560972267120e+01 
127 1 2 1.0280000000645546e+00 5.3473310576470027e+01 1.0000000000000000e+00 1.2123059528539949e+01 1.0216825528558401e+01 1.0209131063926767e+01 
8 1 2 1.0280000000232252e+00 -1.6473281858287237e+02 1.0000000000000000e+00 1.2124918003475194e+01 1.0563226921887594e+01 1.0093372039249136e+01 
91 1 2 1.0280000000713769e+00 7.7006740622127495e+01 1.0000000000000000e+00 1.2100857965118029e+01 1.0217733111106950e+01 1.0203283658401377e+01 
103 1 2 1.0280000000776399e+00 -1.6020848855208709e+02 1.0000000000000000e+00 1.2074108926943028e+01 1.0219974507699407e+01 1.0192479483102744e+01 
153 1 2 1.0280000000790150e+00 -8.6968962277848021e+01 1.0000000000000000e+00 1.2066859116065155e+01 1.0218307456659240e+01 1.0189344856983007e+01 

Velocities

166 1.3044195814692033e-07 -1.1209031198442690e-08 -9.6367945693658685e-08
154 1.2186449233833873e-07 -1.4214379703316185e-08 -1.0090498471450170e-07
168 1.2008889412693429e-07 -1.5126656002187079e-08 -1.0179921583521016e-07
40 1.4157740507062165e-07 -7.7004718061699461e-09 -1.0630371830696727e-07
175 1.4301824575958059e-07 -7.8102997808508678e-09 -1.0917779586095214e-07
81 1.4305869768647581e-07 -7.6500764982272380e-09 -1.0885492181442763e-07
58 1.4426508687551821e-07 -7.8247782717096416e-09 -1.1192364265392107e-07
22 1.4479791863367553e-07 -7.9854870925608287e-09 -1.1371968508507134e-07
28 1.7631011671611963e-07 -1.2249054688105014e-08 -1.3669025768516042e-07
53 1.7296919744674478e-07 -1.2261411672320949e-08 -1.3709754842635382e-07
169 1.7252786464452987e-07 -1.1052751677398001e-08 -1.4036946804582097e-07
76 1.7261737769981900e-07 -1.0371956590715498e-08 -1.4296250147300202e-07
68 1.7248991123380272e-07 -1.0744743117256558e-08 -1.4149603315368478e-07
17 1.7194148615979928e-07 -1.1424059432740705e-08 -1.3865642965181985e-07
176 1.7061293479505818e-07 -1.0288021630046113e-08 -1.4134132316677626e-07
11 1.6826404514558075e-07 -9.9056317410070384e-09 -1.3900584874539953e-07
136 1.6340400499063112e-07 -7.7184172032511265e-09 -1.3888894123350596e-07
80 1.5806082991132658e-07 -6.4753078634802330e-09 -1.4010965498151827e-07
48 1.5767012019257444e-07 -5.7325911505759728e-09 -1.3947585427986879e-07
155 1.6880418998025162e-07 -8.8043278341614584e-09 -1.3084369374551184e-07
42 1.5141070441905977e-07 -1.3174201996769773e-08 -1.1984329636758309e-07
38 1.4822388296531029e-07 -8.5595459268978284e-09 -1.2660331058148613e-07
43 1.3995531112406161e-07 -1.0051882880270618e-08 -1.0815359770025602e-07
72 1.6160094639628204e-07 -9.4195294472733553e-09 -1.4141235486377070e-07
64 1.6789975065145919e-07 -9.5131923881211477e-09 -1.4459594069302600e-07
96 1.7537144682586813e-07 -1.1843159439753791e-08 -1.3119431388764820e-07
138 1.4230429761128681e-07 -1.5626620780609420e-08 -1.1052373981428156e-07
78 1.2045206416095433e-07 -1.6305245917273616e-08 -8.6491213030214971e-08
170 1.2130694549634244e-07 -1.3394452510407626e-08 -8.8435414100823460e-08
141 1.1686728300938845e-07 -1.4295006417925491e-08 -8.4836851975018603e-08
94 1.1999842265340935e-07 -1.3480189726515448e-08 -8.6653155305672613e-08
105 1.7440882251563075e-07 -5.3988941952324306e-09 -1.3026713508592313e-07
121 1.7344157431237756e-07 -2.8825237321507936e-09 -1.2982288370221285e-07
71 1.7355196147813685e-07 -1.9787754217984750e-09 -1.3040460992964364e-07
27 1.7323621861453633e-07 -1.0479337730485050e-09 -1.3046650378908202e-07
146 1.7523684445788247e-07 -4.9960391659633845e-09 -1.3176281033803006e-07
101 1.7589607521293658e-07 -6.8524658561424409e-09 -1.3218968923123492e-07
132 1.7255808549690462e-07 7.1688053738802960e-10 -1.3092605676898284e-07
49 1.4106642512582408e-07 -1.7258619543977168e-08 -1.0386384180119121e-07
115 1.7375179668830856e-07 -1.4568232447230298e-09 -1.3121010854119787e-07
66 1.7191902559760022e-07 -1.0816124059611375e-08 -1.2831618643912306e-07
139 1.7631409407783383e-07 -6.9470759908993286e-09 -1.3318931080938625e-07
63 1.4854211439819850e-07 -1.4733459223089439e-08 -1.1658074406661385e-07