LAMMPS data file via write_data, version 30 Jul 2016, timestep = 50400000

180 atoms
2 atom types

0.0000000000000000e+00 2.0000000000000000e+01 xlo xhi
0.0000000000000000e+00 2.0000000000000000e+01 ylo yhi
0.0000000000000000e+00 2.0000000000000000e+01 zlo zhi

Masses

1 3.896
2 4.31

Atoms # meso-molecular

166 1 2 1.0280000000962441e+00 -1.1456364373529811e+02 1.0000000000000000e+00 1.2854000428822397e+01 5.7106561910702058e-01 9.7829746127999027e+00 
154 1 2 1.0280000000059046e+00 3.2052583303980512e+01 1.0000000000000000e+00 1.2909721289573739e+01 2.8694628342326028e-01 9.6015623157674739e+00 
168 1 2 1.0279999999749732e+00 -3.1839941435946946e+02 1.0000000000000000e+00 1.2916754418262842e+01 3.5595033553873506e-01 9.5613799666038179e+00 
40 1 2 1.0280000001218432e+00 4.6406274869796130e+02 1.0000000000000000e+00 1.2886898646344106e+01 1.3046626536643264e+00 9.9272674937597518e+00 
175 1 2 1.0280000001000804e+00 1.3322269217629571e+02 1.0000000000000000e+00 1.2900991268704267e+01 1.3850652083690043e+00 9.9370982522313476e+00 
81 1 2 1.0280000001067700e+00 -2.4775478162916494e+02 1.0000000000000000e+00 1.2898580531580832e+01 1.3914147483719312e+00 9.9390513020625537e+00 
58 1 2 1.0280000000797602e+00 7.0646301318277324e+01 1.0000000000000000e+00 1.2910900196323043e+01 1.4814552558651775e+00 9.9501139368625147e+00 
22 1 2 1.0280000000610392e+00 -1.8177637774686912e+02 1.0000000000000000e+00 1.2916837566293555e+01 1.5365539340180863e+00 9.9570501095437969e+00 
28 1 2 1.0280000000376517e+00 -1.5644469015842799e+02 1.0000000000000000e+00 1.3091485820028845e+01 4.4693430582752809e+00 1.0726493389231791e+01 
53 1 2 1.0280000000251710e+00 -2.7161809249591968e+01 1.0000000000000000e+00 1.3108396951591466e+01 3.9002224252099498e+00 1.0626183109362175e+01 
169 1 2 1.0280000000034191e+00 4.7198956701153833e+01 1.0000000000000000e+00 1.3155175447714942e+01 4.0433632569618831e+00 1.0624178829184963e+01 
76 1 2 1.0279999999876983e+00 2.8567706914356603e+00 1.0000000000000000e+00 1.3187130099894961e+01 4.4248240711978761e+00 1.0649449600666356e+01 
68 1 2 1.0279999999965386e+00 1.0042889981713790e+02 1.0000000000000000e+00 1.3170720779070018e+01 4.1590117826970490e+00 1.0631403297774543e+01 
17 1 2 1.0280000000114380e+00 -2.0406446175215842e+02 1.0000000000000000e+00 1.3131477104064377e+01 3.8538747551914363e+00 1.0600842974448705e+01 
176 1 2 1.0279999999896863e+00 -1.2539317443005382e+02 1.0000000000000000e+00 1.3172821351122055e+01 3.9515120889032271e+00 1.0588160969374851e+01 
11 1 2 1.0279999999919316e+00 -2.3501464906134407e+02 1.0000000000000000e+00 1.3138324270960526e+01 3.5719723640212635e+00 1.0516023582625236e+01 
136 1 2 1.0279999999623044e+00 3.0930094280236915e+02 1.0000000000000000e+00 1.3140887816715351e+01 3.3330936531752879e+00 1.0424629047579478e+01 
80 1 2 1.0279999999142824e+00 -1.5209935201950537e+02 1.0000000000000000e+00 1.3228003720835034e+01 3.7006562142693724e+00 1.0401913289365487e+01 
48 1 2 1.0279999999156872e+00 -1.2191688052105314e+02 1.0000000000000000e+00 1.3200278593791010e+01 3.4844986681827352e+00 1.0379903645641583e+01 
155 1 2 1.0279999999587945e+00 2.1894407430113233e+02 1.0000000000000000e+00 1.2842053968656002e+01 3.3009454018435527e+00 1.0097226291602112e+01 
42 1 2 1.0280000001804721e+00 1.3655991776200869e+02 1.0000000000000000e+00 1.2889664885823382e+01 2.4670880744129624e+00 1.0183182960855950e+01 
38 1 2 1.0279999998431770e+00 7.8263909013919147e+01 1.0000000000000000e+00 1.2947192892307649e+01 2.0544544767808195e+00 1.0050322074229811e+01 
43 1 2 1.0279999994718951e+00 3.2834565945520745e+02 1.0000000000000000e+00 1.2973959776464065e+01 2.2831216013168780e+00 1.0003409532870760e+01 
72 1 2 1.0279999999144036e+00 4.3668764900852034e+02 1.0000000000000000e+00 1.3243017819177233e+01 4.7164342966246195e+00 1.0492801454817789e+01 
64 1 2 1.0279999999489391e+00 -2.3760152907711365e+01 1.0000000000000000e+00 1.3215683638846764e+01 4.8515530791357984e+00 1.0606030981360181e+01 
96 1 2 1.0280000000726872e+00 3.1815390558595539e+02 1.0000000000000000e+00 1.2989469926694223e+01 4.8621261610923225e+00 1.0783136704397274e+01 
138 1 2 1.0279999999946530e+00 4.2471419377403288e+02 1.0000000000000000e+00 1.2319556655325503e+01 8.6089461940613283e+00 1.0164972852605215e+01 
78 1 2 1.0280000000708518e+00 1.3867431102699615e+02 1.0000000000000000e+00 1.2175723916523522e+01 9.7675678674613629e+00 1.0325998268639678e+01 
170 1 2 1.0280000000384923e+00 -8.4787507932270913e+01 1.0000000000000000e+00 1.2249600118153461e+01 9.9379099673078937e+00 1.0292397634288891e+01 
141 1 2 1.0280000000689511e+00 7.6697157756255791e+01 1.0000000000000000e+00 1.2139636252242441e+01 9.9486820882786109e+00 1.0278304550651493e+01 
94 1 2 1.0280000000506035e+00 2.9482522705723227e+02 1.0000000000000000e+00 1.2210376310985103e+01 9.9557241633333504e+00 1.0289850476498748e+01 
105 1 2 1.0280000000821261e+00 2.3722720082362440e+02 1.0000000000000000e+00 1.2940557063109374e+01 5.5274303494047645e+00 1.0785101669995676e+01 
121 1 2 1.0280000000868972e+00 7.6926479504759428e+01 1.0000000000000000e+00 1.2919001630118197e+01 5.7109474794525541e+00 1.0774666695107562e+01 
71 1 2 1.0280000000831175e+00 2.1121289321569770e+02 1.0000000000000000e+00 1.2920954512439721e+01 5.7837891564797435e+00 1.0767552683206199e+01 
27 1 2 1.0280000000831722e+00 -5.1052459222667352e+01 1.0000000000000000e+00 1.2914646912571680e+01 5.8545119643897392e+00 1.0760947568429945e+01 
146 1 2 1.0280000000718745e+00 -2.5870173378480501e+02 1.0000000000000000e+00 1.2960020177514204e+01 5.5668121850845935e+00 1.0779032256030765e+01 
101 1 2 1.0280000000684166e+00 5.0234249200970837e+01 1.0000000000000000e+00 1.2978420189398243e+01 5.4111354119749189e+00 1.0784459823539905e+01 
132 1 2 1.0280000000805081e+00 4.4902556290294001e+01 1.0000000000000000e+00 1.2902801929632684e+01 6.0128258711589266e+00 1.0742564210689338e+01 
49 1 2 1.0280000000359986e+00 1.8743528546286865e+02 1.0000000000000000e+00 1.2504144435982276e+01 8.9156840858601765e+00 1.0457187349127686e+01 
115 1 2 1.0280000000772580e+00 6.7477038598823640e+01 1.0000000000000000e+00 1.2926431002324343e+01 5.8370051261071882e+00 1.0760616016493621e+01 
66 1 2 1.0280000000934637e+00 2.5102042528916701e+02 1.0000000000000000e+00 1.2914228172434367e+01 5.0633527291403899e+00 1.0790421069046710e+01 
139 1 2 1.0280000000617422e+00 -1.6064828148110814e+02 1.0000000000000000e+00 1.2993069761369535e+01 5.4036325418909019e+00 1.0780916184883491e+01 
63 1 2 1.0280000000060920e+00 3.6235736137274796e+02 1.0000000000000000e+00 1.2626348653924682e+01 8.2625048835059172e+00 1.0463554047907181e+01 
20 1 2 1.0280000000334557e+00 -1.8671622926334243e+02 1.0000000000000000e+00 1.2579149262542725e+01 8.4882761916312344e+00 1.0475375474236779e+01 
134 1 2 1.0280000000684877e+00 1.7227275590986363e+02 1.0000000000000000e+00 1.2924799925498078e+01 5.9718857691337854e+00 1.0742834467156248e+01 
65 1 2 1.0280000000576752e+00 1.8064911649219880e+02 1.0000000000000000e+00 1.2964471862533026e+01 5.7755196466061225e+00 1.0756817388940215e+01 
104 1 2 1.0280000000623788e+00 1.4939164087490106e+01 1.0000000000000000e+00 1.2935809513944896e+01 5.9515216414919401e+00 1.0742323745489573e+01 
75 1 2 1.0280000000153955e+00 -7.7652207340684953e+01 1.0000000000000000e+00 1.2878980161009697e+01 6.5173622932081177e+00 1.0641238162803143e+01 
93 1 2 1.0279999999381768e+00 9.7553914123974863e+01 1.0000000000000000e+00 1.2639984276640934e+01 8.6095939318040084e+00 1.0355261044034989e+01 
106 1 2 1.0279999996303018e+00 2.0231280202769966e+02 1.0000000000000000e+00 1.2726257878899379e+01 7.3575172023941944e+00 1.0458060443225177e+01 
135 1 2 1.0279999999962492e+00 3.9572286159692567e+01 1.0000000000000000e+00 1.3043647482970997e+01 5.7690761341607777e+00 1.0707950562716471e+01 
50 1 2 1.0279999997519407e+00 1.4362845806433180e+02 1.0000000000000000e+00 1.2701902763189945e+01 7.5440171371480167e+00 1.0453343129821976e+01 
88 1 2 1.0279999996713440e+00 4.0892106843056672e+02 1.0000000000000000e+00 1.2721712954886565e+01 7.3828446103576990e+00 1.0462358594059975e+01 
56 1 2 1.0280000000143141e+00 -1.6526870930846206e+02 1.0000000000000000e+00 1.3033086249763969e+01 5.7067300938870522e+00 1.0728879629899497e+01 
46 1 2 1.0279999999985123e+00 -3.6695444031074544e+01 1.0000000000000000e+00 1.3058270187003588e+01 5.6659177853342415e+00 1.0714709933970227e+01 
79 1 2 1.0279999999666229e+00 -1.7947924584417643e+02 1.0000000000000000e+00 1.3161530769144376e+01 5.2045046500712848e+00 1.0666116106092518e+01 
151 1 2 1.0279999999316751e+00 -9.3631231961466398e+01 1.0000000000000000e+00 7.8761898993463531e+00 1.4763241820087829e+01 4.5835138597434595e+00 
85 1 2 1.0279999999595035e+00 -7.1033345042043408e+01 1.0000000000000000e+00 7.7954089327526610e+00 1.3789616879706537e+01 4.3854136885689723e+00 
35 1 2 1.0279999999969673e+00 -3.1227983722017268e+02 1.0000000000000000e+00 7.7099120311193383e+00 1.4213645620534747e+01 3.9357333970525317e+00 
165 1 2 1.0279999999848799e+00 -6.2467352065396412e+01 1.0000000000000000e+00 7.7140447929675187e+00 1.3966144768411723e+01 4.0527833302266991e+00 
6 1 2 1.0279999999968139e+00 -1.1133556475526311e+02 1.0000000000000000e+00 7.7475998301300422e+00 1.3945701517766384e+01 4.0267929293678471e+00 
83 1 2 1.0280000000137111e+00 1.5173500983936941e+02 1.0000000000000000e+00 7.7488406123409082e+00 1.4120744409499828e+01 3.9124035777692097e+00 
47 1 2 1.0280000000167346e+00 -1.0933487485765554e+02 1.0000000000000000e+00 7.7557310553612302e+00 1.4175983585785982e+01 3.8945792080605393e+00 
73 1 2 1.0280000000142975e+00 1.5438154042040912e+02 1.0000000000000000e+00 7.7578819319956480e+00 1.4055593485456313e+01 3.9301919313545395e+00 
130 1 2 1.0280000000191643e+00 -4.1187735292196415e+00 1.0000000000000000e+00 7.7614614914554609e+00 1.4148499609393161e+01 3.8944000802562386e+00 
171 1 2 1.0280000000193250e+00 -3.0649644007406955e+01 1.0000000000000000e+00 7.7622261431968900e+00 1.4132322849518104e+01 3.8974830445904813e+00 
14 1 2 1.0280000000198370e+00 -5.4274039429744107e+01 1.0000000000000000e+00 7.7663818232685298e+00 1.4213150789708113e+01 3.8828684488521366e+00 
126 1 2 1.0280000000193277e+00 1.4795324295397108e+02 1.0000000000000000e+00 7.7627872027418983e+00 1.4120777145292047e+01 3.9001339612738573e+00 
117 1 2 1.0280000000246527e+00 -7.0724434231184119e+01 1.0000000000000000e+00 7.7758915964725714e+00 1.4165951266481592e+01 3.8797425537227244e+00 
57 1 2 1.0280000000250635e+00 -1.7209747965886618e+02 1.0000000000000000e+00 7.7795567612492880e+00 1.4205325624362407e+01 3.8730484736036308e+00 
118 1 2 1.0280000000244478e+00 6.3466718734978791e+00 1.0000000000000000e+00 7.7780474250559548e+00 1.4094338536465099e+01 3.8961703427419043e+00 
86 1 2 1.0280000000284455e+00 -1.0940322206541109e+02 1.0000000000000000e+00 7.7867276541603587e+00 1.4179630410579692e+01 3.8699022394237859e+00 
29 1 2 1.0280000000289966e+00 -7.0935278292200280e+01 1.0000000000000000e+00 7.7891877216193528e+00 1.4103892465814106e+01 3.8844106422173730e+00 
119 1 2 1.0280000000322236e+00 2.7605538297290025e+02 1.0000000000000000e+00 7.7962124892725528e+00 1.4141091148872576e+01 3.8695116708599029e+00 
137 1 2 1.0280000000345408e+00 1.1912771357889386e+02 1.0000000000000000e+00 7.8027090785364592e+00 1.4144286614877341e+01 3.8644387874831607e+00 
128 1 2 1.0280000000344325e+00 -4.7434139155058162e+01 1.0000000000000000e+00 7.8095419706243732e+00 1.4062875105732417e+01 3.8853103356700425e+00 
51 1 2 1.0280000000364309e+00 -1.4748546607788580e+02 1.0000000000000000e+00 7.8090811239084319e+00 1.4114403636178729e+01 3.8674185784407338e+00 
90 1 2 1.0280000000372334e+00 8.7000373360846140e+01 1.0000000000000000e+00 7.8136918574961411e+00 1.4089146991557683e+01 3.8723304988976079e+00 
163 1 2 1.0280000000416640e+00 -4.3965047162610375e+01 1.0000000000000000e+00 7.8314936206959489e+00 1.4058696654373289e+01 3.8729191250475314e+00 
113 1 2 1.0280000000442033e+00 1.7027325902616661e+02 1.0000000000000000e+00 7.8316535613503460e+00 1.4154591458836755e+01 3.8447625330407305e+00 
102 1 2 1.0280000000445291e+00 3.0796633589248358e+02 1.0000000000000000e+00 7.8343607268991278e+00 1.4100481958442430e+01 3.8559746014181027e+00 
21 1 2 1.0280000000468261e+00 -1.6021806760776968e+02 1.0000000000000000e+00 7.8399290111914910e+00 1.4152010241445465e+01 3.8406311565868574e+00 
54 1 2 1.0280000000510849e+00 -1.4381485155954897e+02 1.0000000000000000e+00 7.8643086974033434e+00 1.4046901305229502e+01 3.8597821699211718e+00 
100 1 2 1.0280000000675147e+00 1.8356498009334322e+02 1.0000000000000000e+00 7.9175641645260244e+00 1.4101489634893356e+01 3.8180965532740689e+00 
60 1 2 1.0280000000580320e+00 1.5770784184257300e+02 1.0000000000000000e+00 7.9701461495619759e+00 1.4397135023464958e+01 3.8171097186037564e+00 
149 1 2 1.0280000000817879e+00 -1.9567994870442084e+02 1.0000000000000000e+00 7.9882671266557495e+00 1.4115490630991724e+01 3.7961850336470726e+00 
26 1 2 1.0280000000826772e+00 -1.0741606314683520e+02 1.0000000000000000e+00 8.0363226258399489e+00 1.4271799553381472e+01 3.7788404213344671e+00 
3 1 2 1.0280000000528016e+00 5.2306421603764619e+01 1.0000000000000000e+00 8.1766333220317158e+00 1.3732506566829617e+01 4.1048185447997563e+00 
145 1 2 1.0280000000876712e+00 1.0040802532799589e+02 1.0000000000000000e+00 8.8288739330088983e+00 1.4491717122756732e+01 4.2618600345968263e+00 
129 1 2 1.0280000000992242e+00 2.4447393294472818e+02 1.0000000000000000e+00 9.0584145446305691e+00 1.4304410322125724e+01 4.5706911069312435e+00 
161 1 2 1.0279999999108205e+00 -2.1772364065035782e+02 1.0000000000000000e+00 8.1134125881849943e+00 1.4750779119763321e+01 5.0592286589994195e+00 
111 1 2 1.0279999999069931e+00 -1.2234105715298793e+02 1.0000000000000000e+00 8.1062184327637468e+00 1.4720792587617916e+01 5.0917831765964507e+00 
82 1 2 1.0279999999062468e+00 -6.8314751614154954e+00 1.0000000000000000e+00 8.2122211146389734e+00 1.4734683828461618e+01 5.1875219815575369e+00 
178 1 2 1.0280000000426801e+00 -2.3728782324706796e+02 1.0000000000000000e+00 1.1194924317357380e+01 1.4716506086435647e+01 7.7584049441367089e+00 
162 1 2 1.0279999997896878e+00 -1.7814375556648365e+01 1.0000000000000000e+00 1.1981310386282715e+01 1.1551190782547064e+01 9.4855940470541000e+00 
99 1 2 1.0279999999863274e+00 -1.0721847314307094e+01 1.0000000000000000e+00 1.0740685388715136e+01 1.4762318519928099e+01 8.1927603353629586e+00 
45 1 2 1.0280000000718363e+00 -1.5660535988253166e+01 1.0000000000000000e+00 1.1669910342206400e+01 1.3644911623697672e+01 8.7407155050710905e+00 
150 1 2 1.0279999998345373e+00 7.8194620097070242e+01 1.0000000000000000e+00 1.1889664864291316e+01 1.1895472360995107e+01 9.3448683539253956e+00 
107 1 2 1.0279999999871952e+00 -8.2325950005979422e+01 1.0000000000000000e+00 1.0740097644102889e+01 1.4724263623914755e+01 8.2012449254673481e+00 
69 1 2 1.0279999998648679e+00 7.0317929264442284e+01 1.0000000000000000e+00 1.1934345188231061e+01 1.1905014059006247e+01 9.4455702244522595e+00 
140 1 2 1.0280000000004605e+00 -2.2965950055326630e+01 1.0000000000000000e+00 1.1219746283213130e+01 1.3461075594980414e+01 8.8076040415253303e+00 
123 1 2 1.0279999999776350e+00 1.5505492570963878e+02 1.0000000000000000e+00 1.0887160365925549e+01 1.4378873419049020e+01 8.4988592995102099e+00 
159 1 2 1.0279999999985694e+00 -3.9086878711224898e+01 1.0000000000000000e+00 1.1440502372176596e+01 1.4127196984809700e+01 8.8884070566663613e+00 
116 1 2 1.0280000000211611e+00 9.2801330521117222e+01 1.0000000000000000e+00 1.1546542306861609e+01 1.3955183350549657e+01 8.8879283211525504e+00 
147 1 2 1.0280000000670395e+00 -2.9297405122984151e+02 1.0000000000000000e+00 1.1615566578926742e+01 1.2616335032317393e+01 9.0182304567356883e+00 
109 1 2 1.0279999999830018e+00 -1.1061724333217114e+02 1.0000000000000000e+00 1.0838630174733060e+01 1.4384043859821338e+01 8.4145149934830457e+00 
10 1 2 1.0279999999922553e+00 -1.8590622466093464e+02 1.0000000000000000e+00 1.1020682995214869e+01 1.3842828818186982e+01 8.5846524288637980e+00 
174 1 2 1.0280000001447378e+00 -6.6730606703957903e+01 1.0000000000000000e+00 1.1465607785826490e+01 1.3041319001707244e+01 8.7981190225884909e+00 
112 1 2 1.0279999999915457e+00 4.7742635219801471e+01 1.0000000000000000e+00 1.1019993089871569e+01 1.3849394836598774e+01 8.5878817218551262e+00 
133 1 2 1.0279999998862328e+00 -3.8495724712132272e+01 1.0000000000000000e+00 9.0074513225805610e+00 1.4479554771836646e+01 5.8046644555585099e+00 
25 1 2 1.0279999998862386e+00 -2.1393854704860328e+02 1.0000000000000000e+00 9.0074062525486784e+00 1.4479337077805113e+01 5.8046859460813192e+00 
97 1 2 1.0280000000915752e+00 -8.3974710602184615e+01 1.0000000000000000e+00 1.0861454031364232e+01 1.4558605541725044e+01 7.6665898724402215e+00 
62 1 2 1.0279999999690925e+00 2.9039221711992263e+02 1.0000000000000000e+00 1.0862536604034508e+01 1.4842772596228979e+01 8.4165463310460371e+00 
12 1 2 1.0279999998412133e+00 -3.2657698017974087e+02 1.0000000000000000e+00 1.2045583682462816e+01 1.1413800789343009e+01 9.6623909152245737e+00 
164 1 2 1.0279999999151390e+00 -1.0663812333195145e+02 1.0000000000000000e+00 1.2044269909268818e+01 1.1283541491685259e+01 9.7783789795944536e+00 
19 1 2 1.0279999999634311e+00 -8.3693550432610181e+01 1.0000000000000000e+00 1.2071010655949987e+01 1.1031845944306895e+01 9.9002586698609019e+00 
16 1 2 1.0279999999540219e+00 -1.4881841953423745e+01 1.0000000000000000e+00 1.2112688783782030e+01 1.0903969204325747e+01 9.9404679305219723e+00 
74 1 2 1.0280000000000604e+00 -1.3239901319490082e+02 1.0000000000000000e+00 1.2078722898333233e+01 1.0857896460957186e+01 9.9803776843100103e+00 
124 1 2 1.0279999999704703e+00 2.6242757176398766e+02 1.0000000000000000e+00 1.2047180659909722e+01 1.7226334891578823e+01 8.7165969852434912e+00 
24 1 2 1.0280000000036540e+00 6.1510493990842747e+01 1.0000000000000000e+00 1.1163701420165202e+01 1.5472718099657737e+01 7.9286249367173598e+00 
1 1 2 1.0280000000139702e+00 -1.5238456948317986e+02 1.0000000000000000e+00 1.1676923907303298e+01 1.6188604528642717e+01 8.3477520520403736e+00 
44 1 2 1.0279999999685707e+00 9.9011119230765587e+01 1.0000000000000000e+00 1.2036395644425392e+01 1.7197352026049099e+01 8.7082548689528796e+00 
36 1 2 1.0279999999913083e+00 -1.5912952200192558e+01 1.0000000000000000e+00 1.2790566914883218e+01 1.9490671122354051e+01 9.3539451070595554e+00 
142 1 2 1.0279999999445308e+00 -4.3265980940753536e+01 1.0000000000000000e+00 1.1022297957353775e+01 1.5528803641605892e+01 8.2690829016017222e+00 
167 1 2 1.0280000000333507e+00 -1.6672620632561728e+02 1.0000000000000000e+00 1.0845079162686655e+01 1.5017427048809255e+01 7.7241027139518277e+00 
177 1 2 1.0280000000601062e+00 -1.5011407507300788e+01 1.0000000000000000e+00 1.2710103494106606e+01 1.9301540356514447e+01 9.4327409624622565e+00 
110 1 2 1.0279999999857576e+00 -4.7732621381595592e+01 1.0000000000000000e+00 1.2779683644192692e+01 1.9441783017091137e+01 9.3308394037627806e+00 
131 1 2 1.0280000000192815e+00 -1.1972514188383764e+02 1.0000000000000000e+00 1.1720067494662617e+01 1.5422521421768922e+01 8.5523825383580743e+00 
122 1 2 1.0279999999571050e+00 8.9088381839636412e+01 1.0000000000000000e+00 1.0915642426020844e+01 1.5337973860836362e+01 8.2101968591041405e+00 
160 1 2 1.0279999999413441e+00 -2.4293726926985912e+01 1.0000000000000000e+00 1.1884965843755079e+01 1.6876998414632201e+01 8.5864128347452233e+00 
179 1 2 1.0280000000332929e+00 -1.4081717390222775e+02 1.0000000000000000e+00 1.1475385400029154e+01 1.5519306221102275e+01 8.0366876307379282e+00 
156 1 2 1.0280000000091505e+00 1.6579263534232319e+02 1.0000000000000000e+00 1.2729139554628627e+01 1.9228800355640729e+01 9.3353609596212106e+00 
30 1 2 1.0280000000333613e+00 4.9933624923386418e+01 1.0000000000000000e+00 1.1360037991599171e+01 1.5215190908548029e+01 7.8931172010710480e+00 
59 1 2 1.0280000000344620e+00 3.2088299127941591e+00 1.0000000000000000e+00 1.1548814605187413e+01 1.5663387683477405e+01 8.1237571001823703e+00 
23 1 2 1.0279999999771725e+00 1.7083118494547534e+01 1.0000000000000000e+00 1.1796848529604597e+01 1.6543975445716452e+01 8.4960706879585413e+00 
67 1 2 1.0280000000339231e+00 7.1897757647289694e+01 1.0000000000000000e+00 1.1571324207676714e+01 1.5728059370271561e+01 8.1564111760090565e+00 
31 1 2 1.0279999999760776e+00 -1.2772782619043778e+02 1.0000000000000000e+00 1.1810641841437716e+01 1.6566790807487418e+01 8.5090885606413540e+00 
4 1 2 1.0280000000341711e+00 -1.1733954469778126e+02 1.0000000000000000e+00 1.1327159508330226e+01 1.5107935207460685e+01 7.8543638953529697e+00 
55 1 2 1.0280000000564413e+00 1.6308393151135203e+02 1.0000000000000000e+00 1.2727771005530828e+01 1.9358197132118445e+01 9.4411188192358075e+00 
34 1 2 1.0279999999517135e+00 -1.6885368406782624e+02 1.0000000000000000e+00 1.2663785195010648e+01 1.9117976568627164e+01 9.1445861320288895e+00 
18 1 2 1.0279999999717617e+00 -2.4078956474626304e+02 1.0000000000000000e+00 1.2341670506353637e+01 1.8023897507242637e+01 8.9232617712002469e+00 
7 1 2 1.0279999999498799e+00 3.8177951701710867e+01 1.0000000000000000e+00 1.2566279015442161e+01 1.8752361474093139e+01 9.0618765463919591e+00 
84 1 2 1.0280000000082306e+00 -1.3119699421137454e+02 1.0000000000000000e+00 1.2329093072450480e+01 1.7957339586964352e+01 8.9750887943142352e+00 
61 1 2 1.0279999999576470e+00 7.4463732981186681e+01 1.0000000000000000e+00 1.2337434007536300e+01 1.8217085571052468e+01 8.8860753675042830e+00 
180 1 2 1.0279999999748624e+00 -1.2994571431149507e+02 1.0000000000000000e+00 1.0813812160790530e+01 1.5162357048898706e+01 8.0789595392178679e+00 
157 1 2 1.0279999999890987e+00 -9.8009860392653934e+01 1.0000000000000000e+00 1.0834194304352847e+01 1.5183276514393155e+01 7.9137628216331235e+00 
95 1 2 1.0279999999636624e+00 1.4989579970168313e+02 1.0000000000000000e+00 1.0874662086595526e+01 1.5271464323178115e+01 8.1582759780751619e+00 
173 1 2 1.0280000000337570e+00 -2.0208861643726976e+02 1.0000000000000000e+00 1.1154074314620225e+01 1.5003090845186858e+01 7.7450201095554494e+00 
15 1 2 1.0279999999535481e+00 -8.3242101328752170e+01 1.0000000000000000e+00 1.2678269651036873e+01 1.9142093384233622e+01 9.1627435255042595e+00 
9 1 2 1.0280000000424063e+00 -1.6909303830579489e+02 1.0000000000000000e+00 1.2777985229515103e+01 1.9524056289787850e+01 9.4584182545945037e+00 
77 1 2 1.0279999999811023e+00 8.8819756059940516e+01 1.0000000000000000e+00 1.2793601069865426e+01 1.9524556907940024e+01 9.3342729033208176e+00 
143 1 2 1.0279999999786698e+00 1.8561448563805527e+02 1.0000000000000000e+00 1.2793755420002103e+01 1.9534335074461243e+01 9.3289925326301404e+00 
33 1 2 1.0279999999827667e+00 1.6795357112621338e+02 1.0000000000000000e+00 1.2796983306518158e+01 1.9538264408125372e+01 9.3414739482663940e+00 
37 1 2 1.0279999999658427e+00 5.4702468661388684e+02 1.0000000000000000e+00 1.2777217711315435e+01 1.9551831364700174e+01 9.2827680647458894e+00 
2 1 2 1.0280000001056993e+00 3.6844465132564972e+02 1.0000000000000000e+00 1.2708552238593153e+01 1.9590600755324445e+01 9.5571765830983058e+00 
52 1 2 1.0279999999806346e+00 -2.3208622970880876e+02 1.0000000000000000e+00 1.2817070240161664e+01 1.9664284784660889e+01 9.3596981115185258e+00 
98 1 2 1.0280000000189169e+00 -1.7932351991239034e+02 1.0000000000000000e+00 1.2820930075517477e+01 1.9670237209790159e+01 9.4510476100692440e+00 
70 1 2 1.0279999999951790e+00 2.0923647722055591e+01 1.0000000000000000e+00 1.2827361865618117e+01 1.9686659944775950e+01 9.4040764664679379e+00 
120 1 2 1.0279999999964236e+00 2.0688915743649443e+02 1.0000000000000000e+00 1.2833070853725316e+01 1.9719020668394521e+01 9.4143341943730725e+00 
125 1 2 1.0279999999903238e+00 -9.7658659759298587e+01 1.0000000000000000e+00 1.2834963733792019e+01 1.9739429792160802e+01 9.4035881418549785e+00 
5 1 2 1.0280000000110998e+00 6.4057992651151903e+00 1.0000000000000000e+00 1.2851211986221713e+01 1.9834240394424452e+01 9.4753042756541390e+00 
158 1 2 1.0279999999988205e+00 -1.9947012509570129e+02 1.0000000000000000e+00 1.2858112114972982e+01 1.9872861848354798e+01 9.4579964605160889e+00 
108 1 2 1.0280000001354388e+00 -1.0873989400943501e+02 1.0000000000000000e+00 1.2699006280373487e+01 1.9950325352432490e+01 9.6611327684112087e+00 
148 1 2 1.0280000000619389e+00 -2.5075350460937779e+02 1.0000000000000000e+00 1.2072820115932876e+01 1.0425921946235915e+01 1.0138382265408360e+01 
13 1 2 1.0280000000285212e+00 1.5087112197177692e+02 1.0000000000000000e+00 1.2190498305529161e+01 1.0253163913944286e+01 1.0198443424552886e+01 
172 1 2 1.0280000000675036e+00 -3.9012933082715676e+02 1.0000000000000000e+00 1.2054595994562840e+01 1.0427450247422064e+01 1.0132437980139665e+01 
92 1 2 1.0280000000357679e+00 1.1365034020235086e+01 1.0000000000000000e+00 1.2172920556826808e+01 1.0262876060029479e+01 1.0197473795294361e+01 
89 1 2 1.0280000000295950e+00 3.1213083763623793e+01 1.0000000000000000e+00 1.2162261628302566e+01 1.0356887115367567e+01 1.0165688180784541e+01 
41 1 2 1.0280000000356697e+00 -1.7831159327761992e+02 1.0000000000000000e+00 1.2160906878582495e+01 1.0313186223047710e+01 1.0181331385166263e+01 
39 1 2 1.0280000000347445e+00 3.3237962782771024e+02 1.0000000000000000e+00 1.2160152118977855e+01 1.0324183477460389e+01 1.0177582766247401e+01 
152 1 2 1.0280000000426823e+00 -2.7762354102043105e+02 1.0000000000000000e+00 1.2147625628882333e+01 1.0305021551363499e+01 1.0184753797534004e+01 
32 1 2 1.0280000000455027e+00 -2.7995243438871637e+02 1.0000000000000000e+00 1.2147251502962430e+01 1.0278231465962248e+01 1.0193436449697913e+01 
87 1 2 1.0280000000011269e+00 -1.6712901733466020e+02 1.0000000000000000e+00 1.2147564616307267e+01 1.0588687331919916e+01 1.0076570338565425e+01 
144 1 2 1.0280000000311635e+00 -6.7736206966083728e+01 1.0000000000000000e+00 1.2072496114169240e+01 1.0714850981686586e+01 1.0040802821732116e+01 
114 1 2 1.0280000000423504e+00 -5.5826890568594507e+01 1.0000000000000000e+00 1.2127276676343213e+01 1.0395914158246034e+01 1.0154557792042343e+01 
127 1 2 1.0280000000591265e+00 5.3473310576470027e+01 1.0000000000000000e+00 1.2123063862954858e+01 1.0216825125006446e+01 1.0209127882580729e+01 
8 1 2 1.0280000000212943e+00 -1.6473281858287237e+02 1.0000000000000000e+00 1.2124922150121721e+01 1.0563226628579786e+01 1.0093368856858937e+01 
91 1 2 1.0280000000653731e+00 7.7006740622127495e+01 1.0000000000000000e+00 1.2100862256154935e+01 1.0217732704134622e+01 1.0203280496485544e+01 
103 1 2 1.0280000000710958e+00 -1.6020848855208709e+02 1.0000000000000000e+00 1.2074113160187487e+01 1.0219974094842398e+01 1.0192476331851905e+01 
153 1 2 1.0280000000723339e+00 -8.6968962277848021e+01 1.0000000000000000e+00 1.2066863333966920e+01 1.0218307040341591e+01 1.0189341705189888e+01 

Velocities

166 1.1915737878993878e-07 -1.0218853880156455e-08 -8.8052983542575668e-08
154 1.1131977019968669e-07 -1.2964556721252478e-08 -9.2197047707495492e-08
168 1.0969694771764600e-07 -1.3798481414869252e-08 -9.3013304445579741e-08
40 1.2933185227132739e-07 -7.0141982524895823e-09 -9.7129076061634994e-08
175 1.3064818254176015e-07 -7.1146770803531618e-09 -9.9754578165696056e-08
81 1.3068518269925532e-07 -6.9683153057461701e-09 -9.9459614248096501e-08
58 1.3178738013087513e-07 -7.1280728368852915e-09 -1.0226285890458912e-07
22 1.3227422646169980e-07 -7.2749874072897416e-09 -1.0390351435838886e-07
28 1.6106954009682200e-07 -1.1173871754066194e-08 -1.2488029730476048e-07
53 1.5801666775826462e-07 -1.1185491502412807e-08 -1.2525321057388484e-07
169 1.5761399221055277e-07 -1.0081123048957780e-08 -1.2824242745548258e-07
76 1.5769630766152629e-07 -9.4589488205236273e-09 -1.3061095787716422e-07
68 1.5757951627558429e-07 -9.7996396671502981e-09 -1.2927155995523414e-07
17 1.5707792854558673e-07 -1.0420522206641037e-08 -1.2667759686843375e-07
176 1.5586460455884126e-07 -9.3825226217690598e-09 -1.2913061790093117e-07
11 1.5371811446784522e-07 -9.0334727757218610e-09 -1.2699757593666725e-07
136 1.4927795463382622e-07 -7.0352531497841715e-09 -1.2689169692060507e-07
80 1.4439726865710864e-07 -5.8991562749167552e-09 -1.2800728914517034e-07
48 1.4404018695406106e-07 -5.2207893717991753e-09 -1.2742855312639250e-07
155 1.5420938708287688e-07 -8.0257745311593356e-09 -1.1954319708173667e-07
42 1.3831639373317452e-07 -1.2017693801842797e-08 -1.0949385298280380e-07
38 1.3540592667982834e-07 -7.8001392121836012e-09 -1.1567113515192956e-07
43 1.2785174951700531e-07 -9.1639545140247966e-09 -9.8816457945191248e-08
72 1.4763215280894307e-07 -8.5887377263607729e-09 -1.2919488872184352e-07
64 1.5338670332079875e-07 -8.6742994259472644e-09 -1.3210272844226155e-07
96 1.6021234793227937e-07 -1.0802973036334473e-08 -1.1985876844066068e-07
138 1.3000536835857204e-07 -1.4256808036565540e-08 -1.0096923589778032e-07
78 1.1004554825587558e-07 -1.4872243838414469e-08 -7.9004460108823377e-08
170 1.1082774268423153e-07 -1.2212170454190978e-08 -8.0781991501410982e-08
141 1.0677069362813706e-07 -1.3035257162082901e-08 -7.7493385302578074e-08
94 1.0963207725725201e-07 -1.2290549559762425e-08 -7.9153442463086977e-08
105 1.5933411467689302e-07 -4.9156777489048044e-09 -1.1901082579673125e-07
121 1.5845080513199934e-07 -2.6167007865261139e-09 -1.1860417880843567e-07
71 1.5855173981336101e-07 -1.7911281787780277e-09 -1.1913578191307386e-07
27 1.5826342730867639e-07 -9.4063486787260093e-10 -1.1919192197466492e-07
146 1.6009060727710387e-07 -4.5476427437629464e-09 -1.2037715388413595e-07
101 1.6069260077022186e-07 -6.2436059451662771e-09 -1.2076744481476857e-07
132 1.5764404908664829e-07 6.7140049465187950e-10 -1.1961207374543349e-07
49 1.2887954720555774e-07 -1.5743904836583407e-08 -9.4878116195458181e-08
115 1.5873446460944120e-07 -1.3140851301490403e-09 -1.1987100040902287e-07
66 1.5705860856578628e-07 -9.8646965476171931e-09 -1.1722914096093724e-07
139 1.6107446587861886e-07 -6.3300369976763699e-09 -1.2168068584348916e-07
63 1.3570923875466311e-07 -1.3438337075586294e-08 -1.0649772010989573e-07