LAMMPS data file via write_data, version 30 Jul 2016, timestep = 600000

2080 atoms
8 atom types

0.0000000000000000e+00 4.0000000000000000e+01 xlo xhi
0.0000000000000000e+00 4.0000000000000000e+01 ylo yhi
0.0000000000000000e+00 1.0000000000000000e+02 zlo zhi

Masses

1 3.896
2 16.08
3 1058.08
4 8.378
5 8.378
6 8.378
7 8.378
8 8.378

Atoms # meso-molecular

1 2 4 2.2559723595316457e+00 -5.1698901802819364e+02 4.2000000000000000e+03 0.0000000000000000e+00 0.0000000000000000e+00 2.5000000000000000e+00 
2 2 4 2.2559723595321182e+00 -2.1000109089109455e+02 4.2000000000000000e+03 0.0000000000000000e+00 2.0000000000000000e+00 2.5000000000000000e+00 
21 2 4 2.2559723595316457e+00 -3.0535498842298598e+01 4.2000000000000000e+03 2.0000000000000000e+00 0.0000000000000000e+00 2.5000000000000000e+00 
22 2 4 2.2559723595603560e+00 1.6626672620041833e+02 4.2000000000000000e+03 2.0000000000000000e+00 2.0000000000000000e+00 2.5000000000000000e+00 
41 2 4 2.2559723595316457e+00 9.7029419420267260e+00 4.2000000000000000e+03 4.0000000000000000e+00 0.0000000000000000e+00 2.5000000000000000e+00 
42 2 4 2.2559723595316457e+00 6.4131915604539216e+01 4.2000000000000000e+03 4.0000000000000000e+00 2.0000000000000000e+00 2.5000000000000000e+00 
61 2 4 2.2559723595316457e+00 -8.2209639109888721e-01 4.2000000000000000e+03 6.0000000000000000e+00 0.0000000000000000e+00 2.5000000000000000e+00 
62 2 4 2.2559723595316457e+00 1.1274412545255972e+00 4.2000000000000000e+03 6.0000000000000000e+00 2.0000000000000000e+00 2.5000000000000000e+00 
81 2 4 2.2559723595316457e+00 -2.6115522352646732e+00 4.2000000000000000e+03 8.0000000000000000e+00 0.0000000000000000e+00 2.5000000000000000e+00 
82 2 4 2.2559723595323375e+00 1.1064877603093531e+02 4.2000000000000000e+03 8.0000000000000000e+00 2.0000000000000000e+00 2.5000000000000000e+00 
101 2 4 2.2559723595377745e+00 -1.4658533967068239e+00 4.2000000000000000e+03 1.0000000000000000e+01 0.0000000000000000e+00 2.5000000000000000e+00 
102 2 4 2.2559723595316457e+00 5.7013845379861698e+02 4.2000000000000000e+03 1.0000000000000000e+01 2.0000000000000000e+00 2.5000000000000000e+00 
121 2 4 2.2559723595316457e+00 -2.8843804483177724e+00 4.2000000000000000e+03 1.2000000000000000e+01 0.0000000000000000e+00 2.5000000000000000e+00 
122 2 4 2.2559723595316457e+00 4.4831917805796058e+02 4.2000000000000000e+03 1.2000000000000000e+01 2.0000000000000000e+00 2.5000000000000000e+00 
141 2 4 2.2559723595316457e+00 3.1148263287929943e+01 4.2000000000000000e+03 1.4000000000000000e+01 0.0000000000000000e+00 2.5000000000000000e+00 
142 2 4 2.2559723595316457e+00 3.8681915362884274e+02 4.2000000000000000e+03 1.4000000000000000e+01 2.0000000000000000e+00 2.5000000000000000e+00 
161 2 4 2.2559723595316457e+00 -5.1984823350351142e+01 4.2000000000000000e+03 1.6000000000000000e+01 0.0000000000000000e+00 2.5000000000000000e+00 
162 2 4 2.2559723595462486e+00 -2.9190565587404626e+02 4.2000000000000000e+03 1.6000000000000000e+01 2.0000000000000000e+00 2.5000000000000000e+00 
181 2 4 2.2559723595333963e+00 -1.6623640707328966e+00 4.2000000000000000e+03 1.8000000000000000e+01 0.0000000000000000e+00 2.5000000000000000e+00 
182 2 4 2.2559723595316457e+00 -1.7398457152709454e+01 4.2000000000000000e+03 1.8000000000000000e+01 2.0000000000000000e+00 2.5000000000000000e+00 
3 2 4 2.2559723595316457e+00 -4.7852855696559317e+01 4.2000000000000000e+03 0.0000000000000000e+00 4.0000000000000000e+00 2.5000000000000000e+00 
4 2 4 2.2559723595316457e+00 2.6661215842792636e+01 4.2000000000000000e+03 0.0000000000000000e+00 6.0000000000000000e+00 2.5000000000000000e+00 
23 2 4 2.2559723595316457e+00 2.4023097518521560e+01 4.2000000000000000e+03 2.0000000000000000e+00 4.0000000000000000e+00 2.5000000000000000e+00 
24 2 4 2.2559723595316457e+00 -2.2039041733095951e+02 4.2000000000000000e+03 2.0000000000000000e+00 6.0000000000000000e+00 2.5000000000000000e+00 
43 2 4 2.2559723595316457e+00 -4.6513510793471298e+01 4.2000000000000000e+03 4.0000000000000000e+00 4.0000000000000000e+00 2.5000000000000000e+00 
44 2 4 2.2559723595450003e+00 -1.1899622023281222e+02 4.2000000000000000e+03 4.0000000000000000e+00 6.0000000000000000e+00 2.5000000000000000e+00 
63 2 4 2.2559723595316457e+00 5.2532126441091705e+01 4.2000000000000000e+03 6.0000000000000000e+00 4.0000000000000000e+00 2.5000000000000000e+00 
64 2 4 2.2559723595316457e+00 1.6971804271013602e+02 4.2000000000000000e+03 6.0000000000000000e+00 6.0000000000000000e+00 2.5000000000000000e+00 
83 2 4 2.2559723595316457e+00 8.3389221541861957e+02 4.2000000000000000e+03 8.0000000000000000e+00 4.0000000000000000e+00 2.5000000000000000e+00 
84 2 4 2.2559723595363952e+00 3.4520115346072214e+02 4.2000000000000000e+03 8.0000000000000000e+00 6.0000000000000000e+00 2.5000000000000000e+00 
103 2 4 2.2559723595513312e+00 1.0079413932020167e+03 4.2000000000000000e+03 1.0000000000000000e+01 4.0000000000000000e+00 2.5000000000000000e+00 
104 2 4 2.2559723595316457e+00 -1.0721835439322185e+03 4.2000000000000000e+03 1.0000000000000000e+01 6.0000000000000000e+00 2.5000000000000000e+00 
123 2 4 2.2559723595316457e+00 4.2198917809776390e+02 4.2000000000000000e+03 1.2000000000000000e+01 4.0000000000000000e+00 2.5000000000000000e+00 
124 2 4 2.2559723595316457e+00 -1.4205919182570972e+03 4.2000000000000000e+03 1.2000000000000000e+01 6.0000000000000000e+00 2.5000000000000000e+00 
143 2 4 2.2559723595316457e+00 3.5342588249296131e+02 4.2000000000000000e+03 1.4000000000000000e+01 4.0000000000000000e+00 2.5000000000000000e+00 
144 2 4 2.2559723595316457e+00 -4.1662716440947679e+02 4.2000000000000000e+03 1.4000000000000000e+01 6.0000000000000000e+00 2.5000000000000000e+00 
163 2 4 2.2559723595316457e+00 -1.4135023645349776e+02 4.2000000000000000e+03 1.6000000000000000e+01 4.0000000000000000e+00 2.5000000000000000e+00 
164 2 4 2.2559723595316457e+00 -3.0767585616686770e+01 4.2000000000000000e+03 1.6000000000000000e+01 6.0000000000000000e+00 2.5000000000000000e+00 
183 2 4 2.2559723595316457e+00 -1.1104573498833408e+02 4.2000000000000000e+03 1.8000000000000000e+01 4.0000000000000000e+00 2.5000000000000000e+00 
184 2 4 2.2559723595316457e+00 -3.0241978544723224e+02 4.2000000000000000e+03 1.8000000000000000e+01 6.0000000000000000e+00 2.5000000000000000e+00 
5 2 4 2.2559723595316457e+00 -5.0382370578724860e+01 4.2000000000000000e+03 0.0000000000000000e+00 8.0000000000000000e+00 2.5000000000000000e+00 
25 2 4 2.2559723595316457e+00 -1.6555371662585361e+02 4.2000000000000000e+03 2.0000000000000000e+00 8.0000000000000000e+00 2.5000000000000000e+00 
45 2 4 2.2559723595316457e+00 -6.9927357174728755e+01 4.2000000000000000e+03 4.0000000000000000e+00 8.0000000000000000e+00 2.5000000000000000e+00 
65 2 4 2.2559723595316457e+00 7.1709629049165002e+00 4.2000000000000000e+03 6.0000000000000000e+00 8.0000000000000000e+00 2.5000000000000000e+00 
85 2 4 2.2559723595368970e+00 -3.0874546027902493e+01 4.2000000000000000e+03 8.0000000000000000e+00 8.0000000000000000e+00 2.5000000000000000e+00 
105 2 4 2.2559723595316457e+00 -9.9041329772751806e+02 4.2000000000000000e+03 1.0000000000000000e+01 8.0000000000000000e+00 2.5000000000000000e+00 
125 2 4 2.2559723595316457e+00 -1.7884157270459127e+03 4.2000000000000000e+03 1.2000000000000000e+01 8.0000000000000000e+00 2.5000000000000000e+00 
145 2 4 2.2559723595316457e+00 -1.0265565971161543e+03 4.2000000000000000e+03 1.4000000000000000e+01 8.0000000000000000e+00 2.5000000000000000e+00 
165 2 4 2.2559723595344336e+00 2.4230284452002394e+01 4.2000000000000000e+03 1.6000000000000000e+01 8.0000000000000000e+00 2.5000000000000000e+00 
185 2 4 2.2559723595316457e+00 -1.0466522691295589e+02 4.2000000000000000e+03 1.8000000000000000e+01 8.0000000000000000e+00 2.5000000000000000e+00 
6 2 4 2.2559723595316457e+00 9.7072474850571609e+01 4.2000000000000000e+03 0.0000000000000000e+00 1.0000000000000000e+01 2.5000000000000000e+00 
7 2 4 2.2559723595335788e+00 1.0365274471099278e+03 4.2000000000000000e+03 0.0000000000000000e+00 1.2000000000000000e+01 2.5000000000000000e+00 
26 2 4 2.2559723595967855e+00 2.2809381477176390e+02 4.2000000000000000e+03 2.0000000000000000e+00 1.0000000000000000e+01 2.5000000000000000e+00 
27 2 4 2.2559723595513423e+00 7.1829329575224722e+02 4.2000000000000000e+03 2.0000000000000000e+00 1.2000000000000000e+01 2.5000000000000000e+00 
46 2 4 2.2559723595316457e+00 -2.6183011482420120e+01 4.2000000000000000e+03 4.0000000000000000e+00 1.0000000000000000e+01 2.5000000000000000e+00 
47 2 4 2.2559723595316457e+00 -4.6265206054516511e+01 4.2000000000000000e+03 4.0000000000000000e+00 1.2000000000000000e+01 2.5000000000000000e+00 
66 2 4 2.2559723595316457e+00 -3.5627752429981427e+01 4.2000000000000000e+03 6.0000000000000000e+00 1.0000000000000000e+01 2.5000000000000000e+00 
67 2 4 2.2559723595800074e+00 -8.4176399175736066e+01 4.2000000000000000e+03 6.0000000000000000e+00 1.2000000000000000e+01 2.5000000000000000e+00 
86 2 4 2.2559723595316457e+00 -3.6013430818639918e+01 4.2000000000000000e+03 8.0000000000000000e+00 1.0000000000000000e+01 2.5000000000000000e+00 
87 2 4 2.2559723595316457e+00 1.0799690330666749e+02 4.2000000000000000e+03 8.0000000000000000e+00 1.2000000000000000e+01 2.5000000000000000e+00 
106 2 4 2.2559723595316457e+00 -1.4485335890156983e+02 4.2000000000000000e+03 1.0000000000000000e+01 1.0000000000000000e+01 2.5000000000000000e+00 
107 2 4 2.2559723595316457e+00 1.0369756629402504e+02 4.2000000000000000e+03 1.0000000000000000e+01 1.2000000000000000e+01 2.5000000000000000e+00 
126 2 4 2.2559723595316457e+00 1.2995553260694652e+02 4.2000000000000000e+03 1.2000000000000000e+01 1.0000000000000000e+01 2.5000000000000000e+00 
127 2 4 2.2559723595316457e+00 1.0695138435821855e+03 4.2000000000000000e+03 1.2000000000000000e+01 1.2000000000000000e+01 2.5000000000000000e+00 
146 2 4 2.2559723595316457e+00 7.3457748568212264e+02 4.2000000000000000e+03 1.4000000000000000e+01 1.0000000000000000e+01 2.5000000000000000e+00 
147 2 4 2.2559723595316457e+00 1.6683723941257954e+03 4.2000000000000000e+03 1.4000000000000000e+01 1.2000000000000000e+01 2.5000000000000000e+00 
166 2 4 2.2559723595316457e+00 2.9371464079315179e-01 4.2000000000000000e+03 1.6000000000000000e+01 1.0000000000000000e+01 2.5000000000000000e+00 
167 2 4 2.2559723595316457e+00 2.4007264476786628e+02 4.2000000000000000e+03 1.6000000000000000e+01 1.2000000000000000e+01 2.5000000000000000e+00 
186 2 4 2.2559723595316457e+00 -1.6551327575069567e+02 4.2000000000000000e+03 1.8000000000000000e+01 1.0000000000000000e+01 2.5000000000000000e+00 
187 2 4 2.2559723595316457e+00 1.4285069608648996e+02 4.2000000000000000e+03 1.8000000000000000e+01 1.2000000000000000e+01 2.5000000000000000e+00 
8 2 4 2.2559723595316457e+00 1.8418545347848899e+03 4.2000000000000000e+03 0.0000000000000000e+00 1.4000000000000000e+01 2.5000000000000000e+00 
9 2 4 2.2559723595316457e+00 1.4064557915642081e+03 4.2000000000000000e+03 0.0000000000000000e+00 1.6000000000000000e+01 2.5000000000000000e+00 
28 2 4 2.2559723595316457e+00 9.6848635685028967e+02 4.2000000000000000e+03 2.0000000000000000e+00 1.4000000000000000e+01 2.5000000000000000e+00 
29 2 4 2.2559723595316457e+00 9.1934688094436706e+02 4.2000000000000000e+03 2.0000000000000000e+00 1.6000000000000000e+01 2.5000000000000000e+00 
48 2 4 2.2559723595316457e+00 1.7849731156352632e+01 4.2000000000000000e+03 4.0000000000000000e+00 1.4000000000000000e+01 2.5000000000000000e+00 
49 2 4 2.2559723595316457e+00 1.8837199527230609e+01 4.2000000000000000e+03 4.0000000000000000e+00 1.6000000000000000e+01 2.5000000000000000e+00 
68 2 4 2.2559723595319241e+00 -5.2314398529090170e+01 4.2000000000000000e+03 6.0000000000000000e+00 1.4000000000000000e+01 2.5000000000000000e+00 
69 2 4 2.2559723595316457e+00 -1.9364464940375172e+00 4.2000000000000000e+03 6.0000000000000000e+00 1.6000000000000000e+01 2.5000000000000000e+00 
88 2 4 2.2559723595316457e+00 1.3126367611948956e+02 4.2000000000000000e+03 8.0000000000000000e+00 1.4000000000000000e+01 2.5000000000000000e+00 
89 2 4 2.2559723595484140e+00 4.5173665755413360e+01 4.2000000000000000e+03 8.0000000000000000e+00 1.6000000000000000e+01 2.5000000000000000e+00 
108 2 4 2.2559723595325840e+00 1.7345988049131535e+02 4.2000000000000000e+03 1.0000000000000000e+01 1.4000000000000000e+01 2.5000000000000000e+00 
109 2 4 2.2559723595316457e+00 4.5378100732636568e+01 4.2000000000000000e+03 1.0000000000000000e+01 1.6000000000000000e+01 2.5000000000000000e+00 
128 2 4 2.2559723595316457e+00 9.6148670520350876e+01 4.2000000000000000e+03 1.2000000000000000e+01 1.4000000000000000e+01 2.5000000000000000e+00 
129 2 4 2.2559723595316457e+00 5.8951921421098454e+01 4.2000000000000000e+03 1.2000000000000000e+01 1.6000000000000000e+01 2.5000000000000000e+00 
148 2 4 2.2559723595316457e+00 3.8093043376996150e+02 4.2000000000000000e+03 1.4000000000000000e+01 1.4000000000000000e+01 2.5000000000000000e+00 
149 2 4 2.2559723595316457e+00 1.2361857894415780e+02 4.2000000000000000e+03 1.4000000000000000e+01 1.6000000000000000e+01 2.5000000000000000e+00 
168 2 4 2.2559723595316457e+00 7.4056120831143147e+01 4.2000000000000000e+03 1.6000000000000000e+01 1.4000000000000000e+01 2.5000000000000000e+00 
169 2 4 2.2559723595316457e+00 -1.0474825384004741e+02 4.2000000000000000e+03 1.6000000000000000e+01 1.6000000000000000e+01 2.5000000000000000e+00 
188 2 4 2.2559723595316457e+00 -3.1856922401783610e+01 4.2000000000000000e+03 1.8000000000000000e+01 1.4000000000000000e+01 2.5000000000000000e+00 
189 2 4 2.2559723595316457e+00 -1.8991185453134796e+02 4.2000000000000000e+03 1.8000000000000000e+01 1.6000000000000000e+01 2.5000000000000000e+00 
10 2 4 2.2559723595316457e+00 2.8021315104638711e+02 4.2000000000000000e+03 0.0000000000000000e+00 1.8000000000000000e+01 2.5000000000000000e+00 
30 2 4 2.2559723595344350e+00 5.0612989533105178e+02 4.2000000000000000e+03 2.0000000000000000e+00 1.8000000000000000e+01 2.5000000000000000e+00 
50 2 4 2.2559723595316457e+00 5.8892041546722294e+02 4.2000000000000000e+03 4.0000000000000000e+00 1.8000000000000000e+01 2.5000000000000000e+00 
70 2 4 2.2559723595316457e+00 1.0829539720990297e+02 4.2000000000000000e+03 6.0000000000000000e+00 1.8000000000000000e+01 2.5000000000000000e+00 
90 2 4 2.2559723595316457e+00 2.9117070247661798e+02 4.2000000000000000e+03 8.0000000000000000e+00 1.8000000000000000e+01 2.5000000000000000e+00 
110 2 4 2.2559723595316457e+00 1.4022294118854953e+02 4.2000000000000000e+03 1.0000000000000000e+01 1.8000000000000000e+01 2.5000000000000000e+00 
130 2 4 2.2559723595316457e+00 3.8100646967407818e+02 4.2000000000000000e+03 1.2000000000000000e+01 1.8000000000000000e+01 2.5000000000000000e+00 
150 2 4 2.2559723595316457e+00 6.7020849277855268e+02 4.2000000000000000e+03 1.4000000000000000e+01 1.8000000000000000e+01 2.5000000000000000e+00 
170 2 4 2.2559723595316457e+00 1.6309650661262293e+02 4.2000000000000000e+03 1.6000000000000000e+01 1.8000000000000000e+01 2.5000000000000000e+00 
190 2 4 2.2559723595316457e+00 3.9593313387237515e+02 4.2000000000000000e+03 1.8000000000000000e+01 1.8000000000000000e+01 2.5000000000000000e+00 
793 395 2 1.0280000627418160e+00 2.8188307268123481e+04 4.2000000000000000e+03 1.7198648709543352e+01 1.8978720657730985e+01 2.3109623486136694e+01 
469 71 2 1.0279998307136096e+00 2.6106970846399250e+04 4.2000000000000000e+03 1.9189734522052159e+01 1.9552528360294417e+01 2.3209509757041392e+01 
764 366 2 1.0280002287597017e+00 8.8331242715344357e+04 4.2000000000000000e+03 1.9695963389092420e+01 1.9743160052180336e+01 2.1536367236829257e+01 
1763 1365 2 1.0279998591850994e+00 -1.2613168672038744e+05 4.2000000000000000e+03 1.9447892739995364e+01 1.9762812189950726e+01 2.3013870764251468e+01 
1322 924 2 1.0280008819783504e+00 3.7397794588038749e+04 4.2000000000000000e+03 1.1745168899668331e+01 1.8473855357220106e+01 2.3850311581936054e+01 
965 567 2 1.0279951562447449e+00 5.5329821118925065e+03 4.2000000000000000e+03 1.1267572674933881e+01 1.8156575513902151e+01 2.6211339875505981e+01 
1122 724 2 1.0280009471730147e+00 -1.4642881222693945e+05 4.2000000000000000e+03 1.1592782288181530e+01 1.8605619477933768e+01 2.3923393460222442e+01 
1958 1560 2 1.0279962996171217e+00 6.7668604842623128e+04 4.2000000000000000e+03 1.3254922523412908e+01 1.9069391413267311e+01 2.4221721408124377e+01 
1924 1526 2 1.0279986719541259e+00 3.7900369114438479e+04 4.2000000000000000e+03 1.6532485262744061e+01 1.9494168873085563e+01 2.3406302070889193e+01 
1961 1563 2 1.0279981709698240e+00 3.8024786762907293e+04 4.2000000000000000e+03 8.9199878827313928e+00 7.5805746268398098e+00 2.9969096827024075e+01 
1750 1352 2 1.0280047377090111e+00 -1.0071625911801217e+05 4.2000000000000000e+03 5.2898165082026214e+00 1.5977285192408779e+01 2.7711715059021117e+01 
457 59 2 1.0280063839808782e+00 7.0904705864357762e+04 4.2000000000000000e+03 4.8889421859122608e+00 1.6045369401692643e+01 2.7605455583910356e+01 
2007 1609 2 1.0280051472110807e+00 7.3962105243440810e+03 4.2000000000000000e+03 4.1694245710083608e+00 1.6417599010172179e+01 2.7786499273840523e+01 
1983 1585 2 1.0280012406284873e+00 7.6060733981608835e+04 4.2000000000000000e+03 1.0910747028367192e+01 1.6267576124986739e+01 2.7005762731395954e+01 
1755 1357 2 1.0280011606749886e+00 -1.4462267811732600e+05 4.2000000000000000e+03 1.1218669668113046e+01 1.6382045443204461e+01 2.6908030423496676e+01 
586 188 2 1.0279909457810408e+00 -1.2634877839273780e+05 4.2000000000000000e+03 2.4492367179621999e+00 1.9646513015342549e+01 2.9125699106008181e+01 
918 520 2 1.0279884520736171e+00 -6.1706535817429314e+04 4.2000000000000000e+03 2.4031245047062617e+00 1.9670951101181892e+01 2.9131356846587185e+01 
678 280 2 1.0280102262227988e+00 -9.2659236471193944e+04 4.2000000000000000e+03 4.9127499884787236e+00 1.9695558478848795e+01 2.6729460283245153e+01 
775 377 2 1.0279937309660041e+00 -1.1076958953758639e+05 4.2000000000000000e+03 3.8266376048341488e+00 1.8380290342726717e+01 2.9354774855923871e+01 
1260 862 2 1.0279906094668825e+00 2.8847209508092819e+04 4.2000000000000000e+03 6.0806181864066788e+00 1.7343361310901873e+01 2.9353663592810069e+01 
796 398 2 1.0279940447244795e+00 1.9513696521026010e+04 4.2000000000000000e+03 5.5190311993308425e+00 1.7381897304645840e+01 2.9575681672220764e+01 
1926 1528 2 1.0279939459525951e+00 7.6455013787505290e+04 4.2000000000000000e+03 8.8398589684621705e+00 1.7035256989097469e+01 2.8496101518237701e+01 
1154 756 2 1.0280007293106934e+00 3.6998132685008663e+04 4.2000000000000000e+03 9.8521476743741232e+00 1.7086110569159331e+01 2.9609888267624054e+01 
1419 1021 2 1.0279952032103434e+00 -1.1387699193121796e+05 4.2000000000000000e+03 8.8979495817301100e+00 1.7488372939312118e+01 2.8513576989911471e+01 
1286 888 2 1.0280003603084664e+00 -1.1692757030550292e+05 4.2000000000000000e+03 1.1779334240331512e+01 1.7330734340409240e+01 2.9527474298882240e+01 
1984 1586 2 1.0280010862352287e+00 2.9009671629756147e+04 4.2000000000000000e+03 1.2235866345453520e+01 1.8365914336302730e+01 2.8568961670572062e+01 
1442 1044 2 1.0280012687673421e+00 -1.4807716604241409e+05 4.2000000000000000e+03 1.2077806656593422e+01 1.8458010657871068e+01 2.8756436894969010e+01 
1116 718 2 1.0279985908612483e+00 3.3641192035919259e+04 4.2000000000000000e+03 1.4952142004355593e+01 8.4990813587524672e-01 3.2564556820693731e+01 
519 121 2 1.0280028204789489e+00 2.3525987748858583e+05 4.2000000000000000e+03 1.4919748887459646e+01 2.0436924145866842e+00 3.2882694198717594e+01 
1073 675 2 1.0280084931173343e+00 -1.1976084128924360e+04 4.2000000000000000e+03 1.6966003672910688e+01 2.0683537076078551e+00 3.2864882146949874e+01 
1418 1020 2 1.0279706725816684e+00 -1.1292493909291380e+05 4.2000000000000000e+03 1.2729640950041956e+01 5.8185084476653124e+00 3.2512194354723469e+01 
1718 1320 2 1.0280007023519133e+00 -7.9950144371846094e+04 4.2000000000000000e+03 9.9291141299795473e+00 6.7334298253335350e+00 3.2146245357418550e+01 
1747 1349 2 1.0279982524533879e+00 1.3786640699400444e+05 4.2000000000000000e+03 8.9467256547367686e+00 8.6426209335165414e+00 3.0239449689865300e+01 
1015 617 2 1.0279982622246511e+00 -7.0816727501693167e+04 4.2000000000000000e+03 8.9444712330997653e+00 8.6430318303440590e+00 3.0242388765508601e+01 
1945 1547 2 1.0279949872708791e+00 6.7877658291594838e+04 4.2000000000000000e+03 1.0460411994334473e+01 6.9461502553919248e+00 3.0196452020569119e+01 
916 518 2 1.0280036273878639e+00 4.4177047570892501e+04 4.2000000000000000e+03 1.2999788917025842e+01 6.6885894224655509e+00 3.1682511572125954e+01 
1416 1018 2 1.0280040350915036e+00 2.5429129256371405e+04 4.2000000000000000e+03 1.2189053272424585e+01 7.7057809075637467e+00 3.0989715380432333e+01 
1669 1271 2 1.0279823967340163e+00 3.7008873124365520e+04 4.2000000000000000e+03 1.3555634212272970e+01 6.9755278618624823e+00 3.3090042129585569e+01 
1391 993 2 1.0280027591736443e+00 -1.2511214038298071e+05 4.2000000000000000e+03 1.2437751679015774e+01 1.0027543522534899e+01 3.3238049546389298e+01 
1663 1265 2 1.0280009949508226e+00 -1.1111165065962402e+05 4.2000000000000000e+03 1.3919418219508195e+01 1.0501396841010138e+01 3.2628531018031573e+01 
738 340 2 1.0279976652474887e+00 4.9738716739988231e+04 4.2000000000000000e+03 1.3918692856969637e+01 1.0443645241768825e+01 3.2298158545779089e+01 
1559 1161 2 1.0279974450797384e+00 -8.4747641814267103e+04 4.2000000000000000e+03 1.3911869639198516e+01 1.0427290818773850e+01 3.2264344529952680e+01 
1456 1058 2 1.0280015875191337e+00 -2.5848317357711028e+04 4.2000000000000000e+03 1.2464607456203801e+01 1.1382655671409894e+00 3.5650773321328380e+01 
1757 1359 2 1.0279977702221754e+00 6.4878988908841784e+04 4.2000000000000000e+03 1.2158572273439610e+01 1.4873423330649151e+00 3.5643223324887607e+01 
848 450 2 1.0279959993970105e+00 4.5426307481326861e+04 4.2000000000000000e+03 1.2044462787611380e+01 1.7082478932512848e+00 3.5637037440818034e+01 
569 171 2 1.0280067719567461e+00 8.2291181704885588e+04 4.2000000000000000e+03 1.3725845857584600e+01 2.7947346754430096e+00 3.3397985744558035e+01 
1990 1592 2 1.0279952352458706e+00 4.0871736459193715e+04 4.2000000000000000e+03 1.8953162337885118e+01 1.2106605059287642e-01 3.5068491333277109e+01 
2011 1613 2 1.0279943603343009e+00 6.0180005430597848e+04 4.2000000000000000e+03 1.8490402256897170e+01 2.8051609190800471e+00 3.3399508981504844e+01 
2015 1617 2 1.0279924665084696e+00 5.2029398127041371e+04 4.2000000000000000e+03 1.2467728072705997e+01 3.8278411210481207e+00 3.5213408572170103e+01 
829 431 2 1.0280046487262742e+00 3.5934253367194928e+04 4.2000000000000000e+03 1.3569112658796000e+01 4.5937269496443385e+00 3.5383527695683917e+01 
832 434 2 1.0280052744603456e+00 3.7267895454923666e+04 4.2000000000000000e+03 1.4195419509862500e+01 5.2160833867783110e+00 3.5060453221328842e+01 
1938 1540 2 1.0279859788272736e+00 -1.6681386833817800e+04 4.2000000000000000e+03 1.5319295313167741e+01 5.4827183263399704e+00 3.3931878285574641e+01 
1620 1222 2 1.0279972961373316e+00 1.1267287370085304e+05 4.2000000000000000e+03 1.7543384742988852e+01 5.1307344880545562e+00 3.3497179551555952e+01 
1091 693 2 1.0280006473199339e+00 -3.4636510923611670e+04 4.2000000000000000e+03 1.7462862624811216e+01 3.5473457910646724e+00 3.5776703876731332e+01 
748 350 2 1.0280011090440486e+00 3.9937595979022975e+04 4.2000000000000000e+03 1.7515580976963147e+01 3.4643616889353415e+00 3.5761723975822392e+01 
1263 865 2 1.0280011746005333e+00 -1.2492294641250788e+05 4.2000000000000000e+03 1.8583603325870460e+01 4.2228889131528868e+00 3.5331915143852449e+01 
491 93 2 1.0279983625396352e+00 2.8316582069452921e+04 4.2000000000000000e+03 1.7726754056817143e+01 4.9681925646983975e+00 3.3371079179715892e+01 
992 594 2 1.0280011745121009e+00 -4.0690003512567979e+04 4.2000000000000000e+03 9.5958424537643658e+00 8.8564453814615423e+00 3.3358570419356504e+01 
1865 1467 2 1.0280033376677931e+00 1.2945164671246843e+05 4.2000000000000000e+03 9.9914188876837748e+00 8.8438740503935005e+00 3.3633734839029032e+01 
808 410 2 1.0280057582733599e+00 9.6477183693156432e+04 4.2000000000000000e+03 1.0283633894007995e+01 8.6789060376940181e+00 3.3768834310522536e+01 
582 184 2 1.0279999997002787e+00 -1.1995739209858287e+05 4.2000000000000000e+03 2.6849013634925467e+00 1.5547648078691314e+01 5.4856672461731478e+01 
1992 1594 2 1.0280000029204115e+00 5.9393562341374505e+04 4.2000000000000000e+03 3.5765337098800880e+00 1.4677437339632746e+01 5.3969644435856651e+01 
1699 1301 2 1.0280000028218788e+00 -1.2349284439772984e+05 4.2000000000000000e+03 3.5763872339543772e+00 1.4712624834118778e+01 5.3906670129915312e+01 
1988 1590 2 1.0279999974803407e+00 5.8733284090088360e+04 4.2000000000000000e+03 3.7698044021262103e+00 1.6478501882110553e+01 5.4773193012614115e+01 
1964 1566 2 1.0279999972881384e+00 3.7924135916891435e+04 4.2000000000000000e+03 3.9392962577291497e+00 1.6462771958545002e+01 5.4556413583339577e+01 
432 34 2 1.0280007913018607e+00 5.5888828398318969e+04 4.2000000000000000e+03 3.4423487592533386e-01 3.8842693716223103e-01 6.5768629376212004e+01 
1109 711 2 1.0279972915684912e+00 1.5145774801491117e+05 4.2000000000000000e+03 1.4276691247480231e+00 1.9976237974461151e+00 6.9979399234826971e+01 
1434 1036 2 1.0279935969223499e+00 -1.0338941611942560e+05 4.2000000000000000e+03 8.8216788279319580e-01 9.2804884695881762e-01 6.7176378218029171e+01 
781 383 2 1.0279963869839175e+00 6.1574485598904052e+04 4.2000000000000000e+03 1.4325420889965046e+00 1.8853780061538383e+00 7.0110900612820089e+01 
416 18 2 1.0279943381254522e+00 3.5315395643421274e+04 4.2000000000000000e+03 1.4030370482729835e+00 1.9210226084852635e+00 7.0267995733989750e+01 
1549 1151 2 1.0280065909567315e+00 1.2268048563814987e+05 4.2000000000000000e+03 3.2351403531995082e-01 5.1491453360504194e+00 7.8059072592193857e+01 
761 363 2 1.0279987044896390e+00 9.8794822436102113e+04 4.2000000000000000e+03 4.1221931240537235e-01 6.7889507579146793e+00 7.7511670707638444e+01 
1241 843 2 1.0279978292412089e+00 -1.3492354695202997e+04 4.2000000000000000e+03 4.2653149870252055e-01 6.7992022763811795e+00 7.7582280133606844e+01 
1305 907 2 1.0279981203098594e+00 9.8464729635209558e+04 4.2000000000000000e+03 4.7392407813968307e-01 6.7886592555362206e+00 7.7575014993751594e+01 
724 326 2 1.0279996308648434e+00 7.3815556152265330e+04 4.2000000000000000e+03 5.4417514999437397e+00 1.5132918690468074e+01 8.2371352727065897e+01 
496 98 2 1.0279989828412854e+00 1.0821681657747078e+04 4.2000000000000000e+03 5.4278644977673496e+00 1.5447200361576940e+01 8.2201052713770167e+01 
1145 747 2 1.0279951644969150e+00 8.1044110395456359e+04 4.2000000000000000e+03 5.5314877566841387e+00 1.6531155317839694e+01 8.2446488954037207e+01 
1867 1469 2 1.0279973539572029e+00 -5.8919675079168112e+04 4.2000000000000000e+03 1.1106466993539028e+01 1.3518473978975365e+01 8.2795180088130735e+01 
981 583 2 1.0279981904070714e+00 -3.0310418991303024e+04 4.2000000000000000e+03 1.0669423037770228e+01 1.3969247047508309e+01 8.2290313621022307e+01 
667 269 2 1.0279959896589528e+00 -9.6770128952530315e+04 4.2000000000000000e+03 1.0287313741281595e+01 1.4904888213352006e+01 8.2505296159796714e+01 
766 368 2 1.0279982347709409e+00 -1.2747650729977591e+05 4.2000000000000000e+03 1.2245649084775852e+01 1.4507060908198419e+01 8.2902794953251600e+01 
1611 1213 2 1.0279923139801843e+00 -1.6025207832615991e+05 4.2000000000000000e+03 3.7444040950829316e+00 1.7001167001855606e+01 8.3170937441203179e+01 
1672 1274 2 1.0279881440204346e+00 3.5610138758933208e+04 4.2000000000000000e+03 1.5263303548190613e+01 1.4082147065264248e+00 8.5417432546538819e+01 
1138 740 2 1.0279985992924909e+00 -3.6821989783660822e+04 4.2000000000000000e+03 1.6506694941670059e+01 3.0129606489176193e+00 8.5524493807698391e+01 
867 469 2 1.0279924020406073e+00 -1.0068390521070512e+05 4.2000000000000000e+03 1.7484294601109770e+01 3.1735518293703655e+00 8.6289719140889943e+01 
547 149 2 1.0280011720513087e+00 7.6070584476280914e+04 4.2000000000000000e+03 1.8017615637298437e+01 2.3196144675221575e+00 8.6521876610609780e+01 
1928 1530 2 1.0280025063692246e+00 3.7343953877598891e+04 4.2000000000000000e+03 1.7003440678701494e+01 1.2932684319424927e+00 8.5982678252021472e+01 
625 227 2 1.0279971562083623e+00 1.0192070593455664e+05 4.2000000000000000e+03 1.2921018447905432e+01 8.3614579891043253e+00 8.5289737937584420e+01 
1363 965 2 1.0279977790276342e+00 -1.7366280191613248e+05 4.2000000000000000e+03 1.3608051178874877e+01 7.5642350255611328e+00 8.4717332413685966e+01 
2053 1655 2 1.0279992787668242e+00 2.0063062151514427e+04 4.2000000000000000e+03 1.4281914128111829e+01 7.6021814746604566e+00 8.4759395393150172e+01 
1425 1027 2 1.0280104404312576e+00 3.5717791705533405e+03 4.2000000000000000e+03 1.4933776679245465e+01 9.4153102279592744e+00 8.3998260000653985e+01 
1901 1503 2 1.0280017685014580e+00 9.5031621104418839e+04 4.2000000000000000e+03 4.6078190315504610e+00 1.0953235583968274e+01 8.5789715380026422e+01 
1906 1508 2 1.0279962780049678e+00 -8.2641681110000849e+04 4.2000000000000000e+03 5.1618964769199733e+00 1.2236981566293736e+01 8.5079683918470053e+01 
1056 658 2 1.0280044641974839e+00 6.7938191745869495e+04 4.2000000000000000e+03 5.7088990311693939e+00 1.1263806761207231e+01 8.5004231253869861e+01 
903 505 2 1.0280000585260360e+00 7.7889890151479340e+04 4.2000000000000000e+03 6.5789468962162614e+00 1.2958521174134660e+01 8.4138592582955638e+01 
2057 1659 2 1.0280042990440106e+00 4.8287548116965074e+04 4.2000000000000000e+03 1.5979270276423797e+01 1.0331079351391011e+01 8.5724155981696242e+01 
1049 651 2 1.0280009906509486e+00 4.2591221946511119e+04 4.2000000000000000e+03 1.6408561341859219e+01 1.0333671262240031e+01 8.5560486552376119e+01 
1075 677 2 1.0279958875344093e+00 1.8635012180517806e+05 4.2000000000000000e+03 1.4896447237739284e+01 1.2044927640381751e+01 8.3392624105099301e+01 
1803 1405 2 1.0279948455193191e+00 -8.2951713034640808e+04 4.2000000000000000e+03 1.4820696896774965e+01 1.2094862658884143e+01 8.3460260332186806e+01 