LAMMPS data file via write_data, version 30 Jul 2016, timestep = 1000000

2080 atoms
8 atom types

0.0000000000000000e+00 4.0000000000000000e+01 xlo xhi
0.0000000000000000e+00 4.0000000000000000e+01 ylo yhi
0.0000000000000000e+00 1.0000000000000000e+02 zlo zhi

Masses

1 3.896
2 16.08
3 1058.08
4 8.378
5 8.378
6 8.378
7 8.378
8 8.378

Atoms # meso-molecular

1 2 4 2.2559723595316457e+00 -5.1698901802819364e+02 4.2000000000000000e+03 0.0000000000000000e+00 0.0000000000000000e+00 2.5000000000000000e+00 
2 2 4 2.2559723595316457e+00 -2.1000115057214092e+02 4.2000000000000000e+03 0.0000000000000000e+00 2.0000000000000000e+00 2.5000000000000000e+00 
21 2 4 2.2559723595316457e+00 -3.0535498842298598e+01 4.2000000000000000e+03 2.0000000000000000e+00 0.0000000000000000e+00 2.5000000000000000e+00 
22 2 4 2.2559723595316457e+00 1.6626543976632524e+02 4.2000000000000000e+03 2.0000000000000000e+00 2.0000000000000000e+00 2.5000000000000000e+00 
41 2 4 2.2559723595316457e+00 9.7029420015478394e+00 4.2000000000000000e+03 4.0000000000000000e+00 0.0000000000000000e+00 2.5000000000000000e+00 
42 2 4 2.2559723595316457e+00 6.4131915635393938e+01 4.2000000000000000e+03 4.0000000000000000e+00 2.0000000000000000e+00 2.5000000000000000e+00 
61 2 4 2.2559723595316457e+00 -8.2209638680865771e-01 4.2000000000000000e+03 6.0000000000000000e+00 0.0000000000000000e+00 2.5000000000000000e+00 
62 2 4 2.2559723595316457e+00 1.1274412545255972e+00 4.2000000000000000e+03 6.0000000000000000e+00 2.0000000000000000e+00 2.5000000000000000e+00 
81 2 4 2.2559723595316457e+00 -2.6115522352646732e+00 4.2000000000000000e+03 8.0000000000000000e+00 0.0000000000000000e+00 2.5000000000000000e+00 
82 2 4 2.2559723595316457e+00 1.1064869579679200e+02 4.2000000000000000e+03 8.0000000000000000e+00 2.0000000000000000e+00 2.5000000000000000e+00 
101 2 4 2.2559723595316457e+00 -1.4663452220960285e+00 4.2000000000000000e+03 1.0000000000000000e+01 0.0000000000000000e+00 2.5000000000000000e+00 
102 2 4 2.2559723595316457e+00 5.7013845386405058e+02 4.2000000000000000e+03 1.0000000000000000e+01 2.0000000000000000e+00 2.5000000000000000e+00 
121 2 4 2.2559723595316457e+00 -2.8843804483177724e+00 4.2000000000000000e+03 1.2000000000000000e+01 0.0000000000000000e+00 2.5000000000000000e+00 
122 2 4 2.2559723595316457e+00 4.4831917805796058e+02 4.2000000000000000e+03 1.2000000000000000e+01 2.0000000000000000e+00 2.5000000000000000e+00 
141 2 4 2.2559723595316457e+00 3.1148263404428221e+01 4.2000000000000000e+03 1.4000000000000000e+01 0.0000000000000000e+00 2.5000000000000000e+00 
142 2 4 2.2559723595316457e+00 3.8681915379156055e+02 4.2000000000000000e+03 1.4000000000000000e+01 2.0000000000000000e+00 2.5000000000000000e+00 
161 2 4 2.2559723595316457e+00 -5.1984823333937278e+01 4.2000000000000000e+03 1.6000000000000000e+01 0.0000000000000000e+00 2.5000000000000000e+00 
162 2 4 2.2559723595316457e+00 -2.9190642896198017e+02 4.2000000000000000e+03 1.6000000000000000e+01 2.0000000000000000e+00 2.5000000000000000e+00 
181 2 4 2.2559723595316457e+00 -1.6625258235573308e+00 4.2000000000000000e+03 1.8000000000000000e+01 0.0000000000000000e+00 2.5000000000000000e+00 
182 2 4 2.2559723595316457e+00 -1.7398456981671927e+01 4.2000000000000000e+03 1.8000000000000000e+01 2.0000000000000000e+00 2.5000000000000000e+00 
3 2 4 2.2559723595316457e+00 -4.7852855696559317e+01 4.2000000000000000e+03 0.0000000000000000e+00 4.0000000000000000e+00 2.5000000000000000e+00 
4 2 4 2.2559723595316457e+00 2.6661215842792636e+01 4.2000000000000000e+03 0.0000000000000000e+00 6.0000000000000000e+00 2.5000000000000000e+00 
23 2 4 2.2559723595316457e+00 2.4023097518521560e+01 4.2000000000000000e+03 2.0000000000000000e+00 4.0000000000000000e+00 2.5000000000000000e+00 
24 2 4 2.2559723595316457e+00 -2.2039041729827738e+02 4.2000000000000000e+03 2.0000000000000000e+00 6.0000000000000000e+00 2.5000000000000000e+00 
43 2 4 2.2559723595316457e+00 -4.6513510793471298e+01 4.2000000000000000e+03 4.0000000000000000e+00 4.0000000000000000e+00 2.5000000000000000e+00 
44 2 4 2.2559723595316457e+00 -1.1899695082441940e+02 4.2000000000000000e+03 4.0000000000000000e+00 6.0000000000000000e+00 2.5000000000000000e+00 
63 2 4 2.2559723595316457e+00 5.2532126469471152e+01 4.2000000000000000e+03 6.0000000000000000e+00 4.0000000000000000e+00 2.5000000000000000e+00 
64 2 4 2.2559723595316457e+00 1.6971804280947529e+02 4.2000000000000000e+03 6.0000000000000000e+00 6.0000000000000000e+00 2.5000000000000000e+00 
83 2 4 2.2559723595316457e+00 8.3389221541861957e+02 4.2000000000000000e+03 8.0000000000000000e+00 4.0000000000000000e+00 2.5000000000000000e+00 
84 2 4 2.2559723595316457e+00 3.4520081850540538e+02 4.2000000000000000e+03 8.0000000000000000e+00 6.0000000000000000e+00 2.5000000000000000e+00 
103 2 4 2.2559723595316457e+00 1.0079404208434340e+03 4.2000000000000000e+03 1.0000000000000000e+01 4.0000000000000000e+00 2.5000000000000000e+00 
104 2 4 2.2559723595316457e+00 -1.0721835439322185e+03 4.2000000000000000e+03 1.0000000000000000e+01 6.0000000000000000e+00 2.5000000000000000e+00 
123 2 4 2.2559723595316457e+00 4.2198917815513596e+02 4.2000000000000000e+03 1.2000000000000000e+01 4.0000000000000000e+00 2.5000000000000000e+00 
124 2 4 2.2559723595316457e+00 -1.4205919182217897e+03 4.2000000000000000e+03 1.2000000000000000e+01 6.0000000000000000e+00 2.5000000000000000e+00 
143 2 4 2.2559723595316457e+00 3.5342588249296131e+02 4.2000000000000000e+03 1.4000000000000000e+01 4.0000000000000000e+00 2.5000000000000000e+00 
144 2 4 2.2559723595316457e+00 -4.1662716422935694e+02 4.2000000000000000e+03 1.4000000000000000e+01 6.0000000000000000e+00 2.5000000000000000e+00 
163 2 4 2.2559723595316457e+00 -1.4135023641254890e+02 4.2000000000000000e+03 1.6000000000000000e+01 4.0000000000000000e+00 2.5000000000000000e+00 
164 2 4 2.2559723595316457e+00 -3.0767585616686770e+01 4.2000000000000000e+03 1.6000000000000000e+01 6.0000000000000000e+00 2.5000000000000000e+00 
183 2 4 2.2559723596831960e+00 -1.1104120411388921e+02 4.2000000000000000e+03 1.8000000000000000e+01 4.0000000000000000e+00 2.5000000000000000e+00 
184 2 4 2.2559723595316457e+00 -3.0241978544723224e+02 4.2000000000000000e+03 1.8000000000000000e+01 6.0000000000000000e+00 2.5000000000000000e+00 
5 2 4 2.2559723595316457e+00 -5.0382370578724860e+01 4.2000000000000000e+03 0.0000000000000000e+00 8.0000000000000000e+00 2.5000000000000000e+00 
25 2 4 2.2559723595316457e+00 -1.6555371658653377e+02 4.2000000000000000e+03 2.0000000000000000e+00 8.0000000000000000e+00 2.5000000000000000e+00 
45 2 4 2.2559723595316457e+00 -6.9927357174728755e+01 4.2000000000000000e+03 4.0000000000000000e+00 8.0000000000000000e+00 2.5000000000000000e+00 
65 2 4 2.2559723595316457e+00 7.1709629049165002e+00 4.2000000000000000e+03 6.0000000000000000e+00 8.0000000000000000e+00 2.5000000000000000e+00 
85 2 4 2.2559723595316457e+00 -3.0874904707765850e+01 4.2000000000000000e+03 8.0000000000000000e+00 8.0000000000000000e+00 2.5000000000000000e+00 
105 2 4 2.2559723595316457e+00 -9.9041329770577227e+02 4.2000000000000000e+03 1.0000000000000000e+01 8.0000000000000000e+00 2.5000000000000000e+00 
125 2 4 2.2559723595316457e+00 -1.7884157269519701e+03 4.2000000000000000e+03 1.2000000000000000e+01 8.0000000000000000e+00 2.5000000000000000e+00 
145 2 4 2.2559723595316457e+00 -1.0265565971161543e+03 4.2000000000000000e+03 1.4000000000000000e+01 8.0000000000000000e+00 2.5000000000000000e+00 
165 2 4 2.2559723595316457e+00 2.4230019131917881e+01 4.2000000000000000e+03 1.6000000000000000e+01 8.0000000000000000e+00 2.5000000000000000e+00 
185 2 4 2.2559723595316457e+00 -1.0466522691295589e+02 4.2000000000000000e+03 1.8000000000000000e+01 8.0000000000000000e+00 2.5000000000000000e+00 
6 2 4 2.2559723595316457e+00 9.7072474852304737e+01 4.2000000000000000e+03 0.0000000000000000e+00 1.0000000000000000e+01 2.5000000000000000e+00 
7 2 4 2.2559723595316457e+00 1.0365272957268839e+03 4.2000000000000000e+03 0.0000000000000000e+00 1.2000000000000000e+01 2.5000000000000000e+00 
26 2 4 2.2559723595316457e+00 2.2809141619601741e+02 4.2000000000000000e+03 2.0000000000000000e+00 1.0000000000000000e+01 2.5000000000000000e+00 
27 2 4 2.2559723595316457e+00 7.1829232789634477e+02 4.2000000000000000e+03 2.0000000000000000e+00 1.2000000000000000e+01 2.5000000000000000e+00 
46 2 4 2.2559723595316457e+00 -2.6183011482420120e+01 4.2000000000000000e+03 4.0000000000000000e+00 1.0000000000000000e+01 2.5000000000000000e+00 
47 2 4 2.2559723595316457e+00 -4.6265206054516511e+01 4.2000000000000000e+03 4.0000000000000000e+00 1.2000000000000000e+01 2.5000000000000000e+00 
66 2 4 2.2559723595316457e+00 -3.5627752393899158e+01 4.2000000000000000e+03 6.0000000000000000e+00 1.0000000000000000e+01 2.5000000000000000e+00 
67 2 4 2.2559723595316457e+00 -8.4178507638677743e+01 4.2000000000000000e+03 6.0000000000000000e+00 1.2000000000000000e+01 2.5000000000000000e+00 
86 2 4 2.2559723595316457e+00 -3.6013430805874606e+01 4.2000000000000000e+03 8.0000000000000000e+00 1.0000000000000000e+01 2.5000000000000000e+00 
87 2 4 2.2559723595316457e+00 1.0799690330666749e+02 4.2000000000000000e+03 8.0000000000000000e+00 1.2000000000000000e+01 2.5000000000000000e+00 
106 2 4 2.2559723595316457e+00 -1.4485335890156983e+02 4.2000000000000000e+03 1.0000000000000000e+01 1.0000000000000000e+01 2.5000000000000000e+00 
107 2 4 2.2559723595316457e+00 1.0369756631970536e+02 4.2000000000000000e+03 1.0000000000000000e+01 1.2000000000000000e+01 2.5000000000000000e+00 
126 2 4 2.2559723595316457e+00 1.2995553260694652e+02 4.2000000000000000e+03 1.2000000000000000e+01 1.0000000000000000e+01 2.5000000000000000e+00 
127 2 4 2.2559723595316457e+00 1.0695138435821855e+03 4.2000000000000000e+03 1.2000000000000000e+01 1.2000000000000000e+01 2.5000000000000000e+00 
146 2 4 2.2559723595316457e+00 7.3457748577613211e+02 4.2000000000000000e+03 1.4000000000000000e+01 1.0000000000000000e+01 2.5000000000000000e+00 
147 2 4 2.2559723595316457e+00 1.6683723941257954e+03 4.2000000000000000e+03 1.4000000000000000e+01 1.2000000000000000e+01 2.5000000000000000e+00 
166 2 4 2.2559723595316457e+00 2.9371474966152411e-01 4.2000000000000000e+03 1.6000000000000000e+01 1.0000000000000000e+01 2.5000000000000000e+00 
167 2 4 2.2559723595316457e+00 2.4007264476786628e+02 4.2000000000000000e+03 1.6000000000000000e+01 1.2000000000000000e+01 2.5000000000000000e+00 
186 2 4 2.2559723595316457e+00 -1.6551327570609149e+02 4.2000000000000000e+03 1.8000000000000000e+01 1.0000000000000000e+01 2.5000000000000000e+00 
187 2 4 2.2559723595316457e+00 1.4285069617192045e+02 4.2000000000000000e+03 1.8000000000000000e+01 1.2000000000000000e+01 2.5000000000000000e+00 
8 2 4 2.2559723595316457e+00 1.8418545348470111e+03 4.2000000000000000e+03 0.0000000000000000e+00 1.4000000000000000e+01 2.5000000000000000e+00 
9 2 4 2.2559723595316457e+00 1.4064557915642081e+03 4.2000000000000000e+03 0.0000000000000000e+00 1.6000000000000000e+01 2.5000000000000000e+00 
28 2 4 2.2559723595316457e+00 9.6848635685028967e+02 4.2000000000000000e+03 2.0000000000000000e+00 1.4000000000000000e+01 2.5000000000000000e+00 
29 2 4 2.2559723595316457e+00 9.1934688096019340e+02 4.2000000000000000e+03 2.0000000000000000e+00 1.6000000000000000e+01 2.5000000000000000e+00 
48 2 4 2.2559723595316457e+00 1.7849731206665261e+01 4.2000000000000000e+03 4.0000000000000000e+00 1.4000000000000000e+01 2.5000000000000000e+00 
49 2 4 2.2559723595316457e+00 1.8837199579663867e+01 4.2000000000000000e+03 4.0000000000000000e+00 1.6000000000000000e+01 2.5000000000000000e+00 
68 2 4 2.2559723595316457e+00 -5.2314435950228251e+01 4.2000000000000000e+03 6.0000000000000000e+00 1.4000000000000000e+01 2.5000000000000000e+00 
69 2 4 2.2559723595316457e+00 -1.9364464762227183e+00 4.2000000000000000e+03 6.0000000000000000e+00 1.6000000000000000e+01 2.5000000000000000e+00 
88 2 4 2.2559723595316457e+00 1.3126367611948956e+02 4.2000000000000000e+03 8.0000000000000000e+00 1.4000000000000000e+01 2.5000000000000000e+00 
89 2 4 2.2559723595316457e+00 4.5172810936250762e+01 4.2000000000000000e+03 8.0000000000000000e+00 1.6000000000000000e+01 2.5000000000000000e+00 
108 2 4 2.2559723595316457e+00 1.7345978231210756e+02 4.2000000000000000e+03 1.0000000000000000e+01 1.4000000000000000e+01 2.5000000000000000e+00 
109 2 4 2.2559723595316457e+00 4.5378100732636568e+01 4.2000000000000000e+03 1.0000000000000000e+01 1.6000000000000000e+01 2.5000000000000000e+00 
128 2 4 2.2559723595316457e+00 9.6148670520350876e+01 4.2000000000000000e+03 1.2000000000000000e+01 1.4000000000000000e+01 2.5000000000000000e+00 
129 2 4 2.2559723595316457e+00 5.8951921460880833e+01 4.2000000000000000e+03 1.2000000000000000e+01 1.6000000000000000e+01 2.5000000000000000e+00 
148 2 4 2.2559723595316457e+00 3.8093043376996150e+02 4.2000000000000000e+03 1.4000000000000000e+01 1.4000000000000000e+01 2.5000000000000000e+00 
149 2 4 2.2559723595316457e+00 1.2361857897167081e+02 4.2000000000000000e+03 1.4000000000000000e+01 1.6000000000000000e+01 2.5000000000000000e+00 
168 2 4 2.2559723595316457e+00 7.4056120831143147e+01 4.2000000000000000e+03 1.6000000000000000e+01 1.4000000000000000e+01 2.5000000000000000e+00 
169 2 4 2.2559723595316457e+00 -1.0474825382617691e+02 4.2000000000000000e+03 1.6000000000000000e+01 1.6000000000000000e+01 2.5000000000000000e+00 
188 2 4 2.2559723595316457e+00 -3.1856922370341334e+01 4.2000000000000000e+03 1.8000000000000000e+01 1.4000000000000000e+01 2.5000000000000000e+00 
189 2 4 2.2559723595316457e+00 -1.8991185453134796e+02 4.2000000000000000e+03 1.8000000000000000e+01 1.6000000000000000e+01 2.5000000000000000e+00 
10 2 4 2.2559723595316457e+00 2.8021315106383292e+02 4.2000000000000000e+03 0.0000000000000000e+00 1.8000000000000000e+01 2.5000000000000000e+00 
30 2 4 2.2559723595316457e+00 5.0612964651426188e+02 4.2000000000000000e+03 2.0000000000000000e+00 1.8000000000000000e+01 2.5000000000000000e+00 
50 2 4 2.2559723595316457e+00 5.8892041546722294e+02 4.2000000000000000e+03 4.0000000000000000e+00 1.8000000000000000e+01 2.5000000000000000e+00 
70 2 4 2.2559723595316457e+00 1.0829539720990297e+02 4.2000000000000000e+03 6.0000000000000000e+00 1.8000000000000000e+01 2.5000000000000000e+00 
90 2 4 2.2559723595316457e+00 2.9117070252264807e+02 4.2000000000000000e+03 8.0000000000000000e+00 1.8000000000000000e+01 2.5000000000000000e+00 
110 2 4 2.2559723595316457e+00 1.4022294118854953e+02 4.2000000000000000e+03 1.0000000000000000e+01 1.8000000000000000e+01 2.5000000000000000e+00 
130 2 4 2.2559723595316457e+00 3.8100646967407818e+02 4.2000000000000000e+03 1.2000000000000000e+01 1.8000000000000000e+01 2.5000000000000000e+00 
150 2 4 2.2559723595316457e+00 6.7020849277855268e+02 4.2000000000000000e+03 1.4000000000000000e+01 1.8000000000000000e+01 2.5000000000000000e+00 
170 2 4 2.2559723595316457e+00 1.6309650668486120e+02 4.2000000000000000e+03 1.6000000000000000e+01 1.8000000000000000e+01 2.5000000000000000e+00 
190 2 4 2.2559723595316457e+00 3.9593313387237515e+02 4.2000000000000000e+03 1.8000000000000000e+01 1.8000000000000000e+01 2.5000000000000000e+00 
1621 1223 2 1.0279999869908454e+00 6.6773850829158240e+04 4.2000000000000000e+03 2.7853755531767996e+00 3.8142828284007608e+00 2.4810094662391020e+01 
1972 1574 2 1.0280000178925666e+00 6.7446135681856555e+04 4.2000000000000000e+03 2.3169753982932244e+00 4.1345887031082311e+00 2.5909938758854327e+01 
975 577 2 1.0280000212453695e+00 -1.8384603684516333e+05 4.2000000000000000e+03 2.8396387394674218e+00 4.3662734039378694e+00 2.6371180653381757e+01 
1259 861 2 1.0279999497417498e+00 -3.2818110737814473e+04 4.2000000000000000e+03 4.8562568549150749e+00 3.4705976334326234e+00 2.5075139589845332e+01 
1765 1367 2 1.0280000165151406e+00 1.0529746325569451e+05 4.2000000000000000e+03 4.5631471457451260e+00 3.6554897868909877e+00 2.6425772701451894e+01 
601 203 2 1.0279999501932646e+00 4.4703749403547452e+04 4.2000000000000000e+03 4.8552142698875063e+00 3.4774252643226213e+00 2.5069673474585326e+01 
1334 936 2 1.0280007925889028e+00 -1.3980049005586130e+05 4.2000000000000000e+03 1.3397444296433051e+01 2.0847512705090740e-01 4.2167268229899186e+01 
1185 787 2 1.0280020764164237e+00 8.9362516254557704e+04 4.2000000000000000e+03 1.5051953805608729e+01 1.7804318991849672e+00 4.2366304453950818e+01 
1202 804 2 1.0280020288989544e+00 -9.9149090740659012e+04 4.2000000000000000e+03 1.5065937701213970e+01 2.0000980461890330e+00 4.2403422797325788e+01 
1510 1112 2 1.0279865726141624e+00 -1.1411639591992971e+05 4.2000000000000000e+03 1.4165333704125201e+01 3.5983064570677632e+00 4.3245506512997153e+01 
1986 1588 2 1.0280136621713589e+00 1.6136628280763788e+05 4.2000000000000000e+03 1.2661683795492729e+01 4.4719350697363600e+00 4.3523647414093567e+01 
1879 1481 2 1.0279921769293106e+00 -1.1634871543161442e+05 4.2000000000000000e+03 1.1690978268757897e+01 5.7661637259813094e+00 4.4706101085183100e+01 
893 495 2 1.0279921485569969e+00 3.3378304924986900e+04 4.2000000000000000e+03 1.1697098687980521e+01 5.7693402870268207e+00 4.4705185309575590e+01 
1331 933 2 1.0279921493744140e+00 -6.8496627009253662e+03 4.2000000000000000e+03 1.1694470190864513e+01 5.7683383781863986e+00 4.4703720509235893e+01 
1403 1005 2 1.0279908102590023e+00 -7.5587027391543219e+04 4.2000000000000000e+03 1.4238016421890160e+01 3.4734193216315803e+00 4.3340935809733729e+01 
1895 1497 2 1.0279963968403503e+00 -6.2770646599514344e+04 4.2000000000000000e+03 9.4613997134049850e+00 5.7284872060820149e+00 4.9445312072739291e+01 
1499 1101 2 1.0279963620618762e+00 -1.2751094673686786e+05 4.2000000000000000e+03 9.4486607788221981e+00 5.7546038656989653e+00 4.9408897446894926e+01 
671 273 2 1.0280024193725719e+00 -3.9286488445216157e+04 4.2000000000000000e+03 1.0107623265807137e+01 4.7521497306890801e+00 4.7738630899010502e+01 
1381 983 2 1.0280025217627122e+00 1.4140855224028384e+05 4.2000000000000000e+03 1.0131046218601243e+01 4.7437004388597765e+00 4.7745811281813523e+01 
609 211 2 1.0280005875402927e+00 7.5659940603678537e+04 4.2000000000000000e+03 1.0317648582591417e+01 4.8044797855458166e+00 4.9485852436065883e+01 
754 356 2 1.0279983920119020e+00 -3.7238116957682229e+04 4.2000000000000000e+03 1.9436698850705735e+01 1.7764421636262185e+01 5.9170282620596339e+01 
1769 1371 2 1.0279994463381033e+00 1.0336656257833699e+05 4.2000000000000000e+03 1.4722574820838751e+01 1.3984976343372573e+01 6.0452338183787695e+01 
1291 893 2 1.0280008905366609e+00 -1.4148291166954424e+05 4.2000000000000000e+03 1.5325716378246291e+01 1.3617786036596504e+01 6.1048451884753256e+01 
1772 1374 2 1.0280007376700191e+00 1.0309813938023539e+05 4.2000000000000000e+03 1.5200855440416030e+01 1.3901657312838081e+01 6.1268410831347474e+01 
1205 807 2 1.0279987256190062e+00 7.8622913204827273e+04 4.2000000000000000e+03 1.4984033159543227e+01 1.4271965007627399e+01 6.0444872651147122e+01 
596 198 2 1.0280004820960678e+00 1.0325608586240270e+05 4.2000000000000000e+03 1.8626915431927426e+01 1.6998309372423737e+01 6.0152161053853462e+01 
1422 1024 2 1.0280006417556171e+00 -4.8710489239820141e+04 4.2000000000000000e+03 1.8670103838189064e+01 1.6974972038846143e+01 6.0156545575029909e+01 
1592 1194 2 1.0280003831272624e+00 6.8198732886482758e+04 4.2000000000000000e+03 1.8576868449731840e+01 1.7070941860406446e+01 6.0169843462300776e+01 
1425 1027 2 1.0279994159808641e+00 3.5718285239787556e+03 4.2000000000000000e+03 1.1161285325380513e+01 1.3718154482891626e+01 8.2636319193139499e+01 
1744 1346 2 1.0280016650168142e+00 3.8012896671606723e+04 4.2000000000000000e+03 1.0722118901231381e+01 1.6302352236881632e+01 8.2310948185999891e+01 
1803 1405 2 1.0280005782116239e+00 -8.2951663477079695e+04 4.2000000000000000e+03 1.1111774610563936e+01 1.6433691318957155e+01 8.2090452253156940e+01 
1075 677 2 1.0280002541872977e+00 1.8635016906434589e+05 4.2000000000000000e+03 1.1189810090306292e+01 1.6382472186955791e+01 8.2011885894522933e+01 
1858 1460 2 1.0280005055848946e+00 -6.0374279317485336e+04 4.2000000000000000e+03 1.4676153862981593e+01 1.5372547077889848e+01 8.1800593055344009e+01 
904 506 2 1.0280003213404052e+00 4.3142299506919815e+04 4.2000000000000000e+03 1.4293263379357590e+01 1.6389098222648386e+01 8.2367657414857717e+01 
508 110 2 1.0279995180752810e+00 4.7000606721248783e+04 4.2000000000000000e+03 1.6077971538612630e+01 1.4934016843412156e+01 8.1401022200913303e+01 
1538 1140 2 1.0279994143879514e+00 -6.1682171331473270e+04 4.2000000000000000e+03 1.6674114971736817e+01 1.4975064659655743e+01 8.1542473386041394e+01 
1736 1338 2 1.0279994710690499e+00 4.3572842269683337e+04 4.2000000000000000e+03 1.7846338289125477e+01 1.5392799642266358e+01 8.2248982872699500e+01 
496 98 2 1.0280001722077869e+00 1.0821763880241189e+04 4.2000000000000000e+03 1.4331296451118345e+00 1.9669842364509829e+01 8.3127763651137386e+01 
724 326 2 1.0280001008947268e+00 7.3815650411677110e+04 4.2000000000000000e+03 1.4657690229093183e+00 1.9349717818513003e+01 8.3256978613480825e+01 
667 269 2 1.0280008240871059e+00 -9.6770100015179603e+04 4.2000000000000000e+03 6.3303469533590571e+00 1.8814294570504206e+01 8.2371294819304225e+01 
1867 1469 2 1.0279997366726539e+00 -5.8919644652291507e+04 4.2000000000000000e+03 7.0984268738146996e+00 1.7499183658300115e+01 8.2524803641133232e+01 
981 583 2 1.0279995218276112e+00 -3.0310404075718758e+04 4.2000000000000000e+03 6.6785215305290793e+00 1.7901675788346886e+01 8.2135369030655994e+01 
766 368 2 1.0280022728700604e+00 -1.2747642794739871e+05 4.2000000000000000e+03 8.3779175176982328e+00 1.8446064633404948e+01 8.2397742478360314e+01 
2039 1641 2 1.0279995913779585e+00 5.6148279889159683e+04 4.2000000000000000e+03 1.6219346940421971e+01 1.8041750463244615e+01 8.3295498831882981e+01 
637 239 2 1.0280006265744690e+00 1.3164121303503198e+05 4.2000000000000000e+03 8.1678166887931580e-01 1.9485599468295010e+00 8.6537441054616139e+01 
1058 660 2 1.0279999804121456e+00 -6.7783715985205388e+04 4.2000000000000000e+03 6.2255241789428952e+00 1.5636023010672022e+00 8.6156068208951808e+01 
723 325 2 1.0280017541616224e+00 -1.0832819571542862e+05 4.2000000000000000e+03 4.3004036250046838e+00 3.5338183784528782e-01 8.5822625757934901e+01 
2004 1606 2 1.0280017684955516e+00 2.9037942663028658e+04 4.2000000000000000e+03 4.3048291847399991e+00 3.5053714050403317e-01 8.5826372086340044e+01 
1616 1218 2 1.0279996844349153e+00 5.9434036598784936e+04 4.2000000000000000e+03 6.7519849535083019e+00 2.9115581174413601e+00 8.3807317954410848e+01 
1108 710 2 1.0279996668468465e+00 9.9639523237991016e+04 4.2000000000000000e+03 6.7556598616545429e+00 2.8966603501475574e+00 8.3797239654005168e+01 
1758 1360 2 1.0279996434885128e+00 -1.3453455052496717e+05 4.2000000000000000e+03 6.7845832110056374e+00 2.8664585880112643e+00 8.3764529187789265e+01 
1975 1577 2 1.0280003462999783e+00 6.8598681265637671e+04 4.2000000000000000e+03 9.9183594951744851e+00 2.9949850958945534e+00 8.4551436704336837e+01 
1728 1330 2 1.0279996078679505e+00 1.0177761291004166e+05 4.2000000000000000e+03 1.0571503819365132e+01 1.1785377437385267e+00 8.5710409716683841e+01 
676 278 2 1.0279988669713316e+00 1.1117031939674847e+05 4.2000000000000000e+03 1.4902695214471606e+01 2.4166593942533718e+00 8.6301540923743616e+01 
1764 1366 2 1.0279989120335138e+00 9.0510377500581581e+03 4.2000000000000000e+03 1.4921209752462222e+01 2.4169054770236791e+00 8.6298319616730026e+01 
505 107 2 1.0280024901682574e+00 4.6856158435311525e+04 4.2000000000000000e+03 1.4651862796678822e+01 4.8328165432057740e-01 8.6005542938679170e+01 
734 336 2 1.0280000829295635e+00 1.3550462979578893e+04 4.2000000000000000e+03 8.5193935802986012e+00 3.7719987156681025e+00 8.5871423396975842e+01 
2012 1614 2 1.0280002535438624e+00 5.3806828927725706e+04 4.2000000000000000e+03 1.0266597472068971e+01 3.4518937211222851e+00 8.5207960139304348e+01 
1672 1274 2 1.0279990169152828e+00 3.5610387189483605e+04 4.2000000000000000e+03 1.0215855653796964e+01 5.6559433370941505e+00 8.5328107042411162e+01 
1928 1530 2 1.0279996116074799e+00 3.7344311730066394e+04 4.2000000000000000e+03 1.1725366234671355e+01 5.5458412949978397e+00 8.5958624614303332e+01 
1735 1337 2 1.0279958086269756e+00 -8.6895264597143003e+04 4.2000000000000000e+03 1.7852060045881732e+01 4.4090272208205290e+00 8.6558511834535096e+01 
595 197 2 1.0280001860142476e+00 -6.6686885575630222e+04 4.2000000000000000e+03 2.8732451586464651e+00 9.0658755861827593e+00 8.6452332209222803e+01 
1248 850 2 1.0280006891535873e+00 9.1291719999721812e+04 4.2000000000000000e+03 5.4782390116283226e+00 9.5998183415697280e+00 8.6638625903275781e+01 
1936 1538 2 1.0280034696458906e+00 5.8564611158405183e+04 4.2000000000000000e+03 9.2694614490869398e+00 9.4338052301914495e+00 8.6644060694270735e+01 
547 149 2 1.0280016409375501e+00 7.6071483317618258e+04 4.2000000000000000e+03 1.2729463797047652e+01 6.7712701834674824e+00 8.6368791300940202e+01 
1138 740 2 1.0279999376776217e+00 -3.6821705534574212e+04 4.2000000000000000e+03 1.1221271660095571e+01 7.7055737928988295e+00 8.5410960516901454e+01 
867 469 2 1.0280003830509821e+00 -1.0068331960973356e+05 4.2000000000000000e+03 1.2200499162221025e+01 7.9662151475864098e+00 8.6306396743157663e+01 
448 50 2 1.0279998218478865e+00 8.3562898090883536e+04 4.2000000000000000e+03 1.6361190162156099e+01 7.4185799197998463e+00 8.5627902811117835e+01 
842 444 2 1.0279996989104927e+00 -1.2779074663784626e+05 4.2000000000000000e+03 1.6366354557469503e+01 7.4614027597527510e+00 8.5636741516103328e+01 
1688 1290 2 1.0279997197117334e+00 4.8653221739164968e+04 4.2000000000000000e+03 1.6393983986153795e+01 7.3883209665242466e+00 8.5619985600030034e+01 
912 514 2 1.0280000382257748e+00 2.0550836673574828e+04 4.2000000000000000e+03 8.4711290763277205e+00 1.0504358266719368e+01 8.5748827722097346e+01 
1697 1299 2 1.0280012998563759e+00 4.0942836245354636e+04 4.2000000000000000e+03 7.5699117255116599e+00 1.1622199115031290e+01 8.6258559683450258e+01 
625 227 2 1.0280007483816769e+00 1.0192073163739372e+05 4.2000000000000000e+03 9.1351888015980016e+00 1.2849432380441064e+01 8.4039496437534240e+01 
1363 965 2 1.0280001681038002e+00 -1.7366276370931623e+05 4.2000000000000000e+03 9.8024101530822296e+00 1.2044543401042418e+01 8.3490561928916392e+01 
1514 1116 2 1.0279964409233904e+00 -1.6670806489014186e+05 4.2000000000000000e+03 1.0479212479874727e+01 1.1517361056179555e+01 8.5913413458253345e+01 
2053 1655 2 1.0280002440303233e+00 2.0063111951002276e+04 4.2000000000000000e+03 1.0486540947346707e+01 1.2026743706348475e+01 8.3557861891837987e+01 
1026 628 2 1.0280011180514681e+00 -1.4175418300043530e+05 4.2000000000000000e+03 1.5976865163858418e+01 1.3034090613895275e+01 8.4759527709208371e+01 
1846 1448 2 1.0280002279632059e+00 -4.6817091496369954e+04 4.2000000000000000e+03 1.6406434181583212e+01 1.2426165880850059e+01 8.4421458789986048e+01 
1874 1476 2 1.0279975353734114e+00 -7.8864077322814395e+04 4.2000000000000000e+03 1.7493455320324262e+01 1.1012114090708312e+01 8.5893979966679140e+01 
810 412 2 1.0280004237719360e+00 -1.2260290176112797e+05 4.2000000000000000e+03 1.8336648278280943e+01 1.2464136496974294e+01 8.4590737566853164e+01 
1901 1503 2 1.0279991780592201e+00 9.5031655891642571e+04 4.2000000000000000e+03 1.1054930673858756e+00 1.4525027010956606e+01 8.5629070310887926e+01 
1906 1508 2 1.0279994606213736e+00 -8.2641638561304615e+04 4.2000000000000000e+03 1.6279793862577789e+00 1.5950047757593437e+01 8.5062387066230713e+01 
1056 658 2 1.0279994873792824e+00 6.7938223920161021e+04 4.2000000000000000e+03 2.1396980954670983e+00 1.4912601437715185e+01 8.4830055135773733e+01 
629 231 2 1.0280014664651971e+00 1.2727682525353189e+05 4.2000000000000000e+03 6.2071509960830191e+00 1.4801541286104476e+01 8.6345370614582777e+01 
2070 1672 2 1.0280013857853050e+00 7.4718568708588253e+04 4.2000000000000000e+03 6.2285288873253535e+00 1.4843607578710611e+01 8.6335368470875892e+01 
1521 1123 2 1.0279997538455086e+00 2.6049364343291865e+04 4.2000000000000000e+03 8.2623215537478814e+00 1.4959954343398790e+01 8.5859406527016475e+01 
2057 1659 2 1.0279983531336701e+00 4.8287618293016516e+04 4.2000000000000000e+03 1.2266987573356010e+01 1.4595694195211404e+01 8.4359497651513848e+01 
1049 651 2 1.0279997527696576e+00 4.2591316646122432e+04 4.2000000000000000e+03 1.2712778876784629e+01 1.4533289531010450e+01 8.4204877656623751e+01 
1907 1509 2 1.0280008834050143e+00 -8.6669563422171763e+04 4.2000000000000000e+03 1.5637261579108635e+01 1.4692687865623588e+01 8.4449014621595325e+01 
2072 1674 2 1.0279964761143190e+00 8.8005147823947409e+04 4.2000000000000000e+03 1.8414009009049632e+01 1.3901683106256755e+01 8.4895939802489039e+01 
903 505 2 1.0280000610581190e+00 7.7889967343445955e+04 4.2000000000000000e+03 2.8661303074447555e+00 1.6840883788835999e+01 8.4296145610671772e+01 
1335 937 2 1.0279994035040982e+00 -1.4346690428624759e+05 4.2000000000000000e+03 2.9338527341560710e+00 1.9624133917641270e+01 8.6079320926060603e+01 
1037 639 2 1.0280001973072117e+00 -2.9914030871996613e+02 4.2000000000000000e+03 3.5233065676205273e+00 1.7694016207887653e+01 8.4019192698618838e+01 
1269 871 2 1.0280009154800815e+00 6.9137350842752916e+04 4.2000000000000000e+03 4.9602242498296665e+00 1.8259980119133182e+01 8.6017019539043488e+01 
1904 1506 2 1.0279987098174030e+00 1.0380259397185958e+05 4.2000000000000000e+03 8.2269133050238583e+00 1.9054507585716191e+01 8.3906600115363673e+01 
1174 776 2 1.0280007681395795e+00 -1.3920357073333565e+05 4.2000000000000000e+03 1.2725372286191554e+01 1.7304681890741289e+01 8.5764558469550138e+01 
1343 945 2 1.0279993243912409e+00 -1.3916224230501146e+05 4.2000000000000000e+03 1.3329727981821369e+01 1.7435227984075134e+01 8.6397662207529152e+01 
1864 1466 2 1.0279998996972313e+00 2.0469292660516556e+04 4.2000000000000000e+03 1.4057000297763826e+01 1.6775231561068491e+01 8.5287561815391044e+01 
1741 1343 2 1.0280006687333632e+00 4.3965740826642905e+04 4.2000000000000000e+03 1.6281171110225380e+01 1.9655140887159742e+01 8.5264634470776926e+01 