LAMMPS data file via write_data, version 30 Jul 2016, timestep = 50400000

180 atoms
2 atom types

0.0000000000000000e+00 2.0000000000000000e+01 xlo xhi
0.0000000000000000e+00 2.0000000000000000e+01 ylo yhi
0.0000000000000000e+00 2.0000000000000000e+01 zlo zhi

Masses

1 3.896
2 4.31

Atoms # meso-molecular

95 1 2 1.0279997174811919e+00 -3.3807474904198961e+02 1.0000000000000000e+00 1.2284714509150810e+01 1.6224966027206168e+01 2.0211360107916150e+00 
16 1 2 1.0279999060461062e+00 -3.4205157674168777e+02 1.0000000000000000e+00 1.2421293669216062e+01 1.6315849643230290e+01 2.1556245886087422e+00 
32 1 2 1.0279999172982666e+00 -5.5675330522023398e+02 1.0000000000000000e+00 1.2449335385738879e+01 1.6312696810270815e+01 2.1478888625804076e+00 
85 1 2 1.0279999288812340e+00 -3.4420982022084553e+02 1.0000000000000000e+00 1.2423457355589797e+01 1.6327206955208482e+01 2.1967479055863599e+00 
101 1 2 1.0279999409963536e+00 -3.3906738844807762e+02 1.0000000000000000e+00 1.2424621258553815e+01 1.6331727760865235e+01 2.2192819856108437e+00 
39 1 2 1.0279999285081847e+00 -4.0166507479447455e+02 1.0000000000000000e+00 1.2424001750160972e+01 1.6326951921635004e+01 2.1955338228051602e+00 
130 1 2 1.0279999386663985e+00 -3.6477981378468326e+02 1.0000000000000000e+00 1.2428968522010150e+01 1.6330350164675995e+01 2.2108440670082614e+00 
47 1 2 1.0279999462176983e+00 -4.0219130363896181e+02 1.0000000000000000e+00 1.2442232760973615e+01 1.6331231439247645e+01 2.2141542155084624e+00 
159 1 2 1.0279999610211121e+00 -4.6425045209065445e+02 1.0000000000000000e+00 1.2436718293588415e+01 1.6336594102889030e+01 2.2501145267850986e+00 
20 1 2 1.0279999266619799e+00 -3.5979819290324895e+02 1.0000000000000000e+00 1.2424398352541726e+01 1.6326056051784459e+01 2.1916252811571972e+00 
48 1 2 1.0279999370064392e+00 -3.7481741952145552e+02 1.0000000000000000e+00 1.2428752548152358e+01 1.6329732234308771e+01 2.2077584762860272e+00 
104 1 2 1.0279999225443153e+00 -4.5490499406419059e+02 1.0000000000000000e+00 1.2420718164715854e+01 1.6324857266079579e+01 2.1871975608831762e+00 
155 1 2 1.0280001706054649e+00 -4.2593472480590310e+02 1.0000000000000000e+00 1.2888666566917824e+01 1.5387345364450253e+01 3.2112344803117217e+00 
116 1 2 1.0280001436110646e+00 -2.9806761736770778e+02 1.0000000000000000e+00 1.2600606954834722e+01 1.5844022904165666e+01 3.0009482360848190e+00 
41 1 2 1.0280001397801699e+00 -4.3930255585313665e+02 1.0000000000000000e+00 1.2566676670283456e+01 1.5864851495875019e+01 2.9830412514790030e+00 
91 1 2 1.0280000628243715e+00 -4.0464943844215242e+02 1.0000000000000000e+00 1.2430077659236309e+01 1.6284578828500536e+01 2.5349097964772858e+00 
152 1 2 1.0279999368766655e+00 -2.9948342521892670e+02 1.0000000000000000e+00 1.2411896035865748e+01 1.6331409670321065e+01 2.2221421689543481e+00 
80 1 2 1.0279999398676325e+00 -2.3255253767605006e+02 1.0000000000000000e+00 1.2427197536672077e+01 1.6331036141004791e+01 2.2147941656480978e+00 
76 1 2 1.0279999092841947e+00 -4.1702195444846132e+02 1.0000000000000000e+00 1.2420727352595694e+01 1.6317946316294307e+01 2.1622601260407444e+00 
108 1 2 1.0279999233525965e+00 -4.1075442691102580e+02 1.0000000000000000e+00 1.2422181409314877e+01 1.6324952503340498e+01 2.1873687329903024e+00 
5 1 2 1.0279999148154855e+00 -4.3952135555175118e+02 1.0000000000000000e+00 1.2420146143014222e+01 1.6321150811022129e+01 2.1731903684449048e+00 
27 1 2 1.0279996537049394e+00 -4.6663275160878226e+02 1.0000000000000000e+00 1.2253483825598980e+01 1.6171891363144180e+01 1.9776107823527291e+00 
86 1 2 1.0279996528535500e+00 -2.8806971271278206e+02 1.0000000000000000e+00 1.2253172365086545e+01 1.6170864137777443e+01 1.9768218581576038e+00 
118 1 2 1.0279999735662884e+00 -2.6769747890232134e+02 1.0000000000000000e+00 1.1007062910321062e+01 1.6599438887648869e+01 1.2938317515231088e+01 
37 1 2 1.0279999698012765e+00 -3.8756919801012009e+02 1.0000000000000000e+00 1.0953111226130261e+01 1.6638210340242523e+01 1.3017164844505848e+01 
87 1 2 1.0279999702177545e+00 -2.3436252526065465e+02 1.0000000000000000e+00 1.0959952205842962e+01 1.6634011575460775e+01 1.3006491353620905e+01 
166 1 2 1.0279999699134739e+00 -3.5575173555511265e+02 1.0000000000000000e+00 1.0954840915608859e+01 1.6636840068472928e+01 1.3014334330143017e+01 
129 1 2 1.0279999698414537e+00 -3.6974507640659760e+02 1.0000000000000000e+00 1.0954273479228256e+01 1.6638542200687926e+01 1.3015686217189735e+01 
44 1 2 1.0279999704597482e+00 -3.1241823715412374e+02 1.0000000000000000e+00 1.0963442187902437e+01 1.6631053360583145e+01 1.3000889588545942e+01 
74 1 2 1.0279999699298497e+00 -3.8249354641586012e+02 1.0000000000000000e+00 1.0955701185580510e+01 1.6637579175766245e+01 1.3013413636247845e+01 
178 1 2 1.0279999700809943e+00 -4.9423488555696872e+02 1.0000000000000000e+00 1.0957907795024289e+01 1.6635635049934258e+01 1.3009774116555322e+01 
3 1 2 1.0279999701403952e+00 -5.4768110985694113e+02 1.0000000000000000e+00 1.0958959053410950e+01 1.6635179461664944e+01 1.3008209099214390e+01 
64 1 2 1.0279999700311451e+00 -3.7676429588106123e+02 1.0000000000000000e+00 1.0957009877460708e+01 1.6636004471281684e+01 1.3011109251664269e+01 
21 1 2 1.0279999701404978e+00 -3.7896118446253257e+02 1.0000000000000000e+00 1.0958829345798174e+01 1.6634972763605354e+01 1.3008314113992727e+01 
176 1 2 1.0279999699099558e+00 -4.3740475034942341e+02 1.0000000000000000e+00 1.0954965137246974e+01 1.6637155677283964e+01 1.3014271634939936e+01 
68 1 2 1.0279999698334521e+00 -5.3535388103584751e+02 1.0000000000000000e+00 1.0953943275030380e+01 1.6638324029030475e+01 1.3016063300317890e+01 
78 1 2 1.0279999697979512e+00 -3.1622762967557514e+02 1.0000000000000000e+00 1.0953185423791771e+01 1.6638441817579672e+01 1.3017141861457576e+01 
107 1 2 1.0279999697304816e+00 -4.1235943857506743e+02 1.0000000000000000e+00 1.0952826431896952e+01 1.6640324088467128e+01 1.3018280472623868e+01 
117 1 2 1.0279999697323066e+00 -2.8917019684130304e+02 1.0000000000000000e+00 1.0952231761675121e+01 1.6639357083822791e+01 1.3018766082723673e+01 
55 1 2 1.0279999697043551e+00 -3.2354418265092585e+02 1.0000000000000000e+00 1.0951785044365890e+01 1.6639690593607579e+01 1.3019496562018903e+01 
126 1 2 1.0279999696520496e+00 -4.5086589662135907e+02 1.0000000000000000e+00 1.0951056734355971e+01 1.6640487821957255e+01 1.3020777951851313e+01 
82 1 2 1.0279999702080675e+00 -3.1054617309046796e+02 1.0000000000000000e+00 1.0959984578699631e+01 1.6634404151219616e+01 1.3006578385988888e+01 
98 1 2 1.0279999653836573e+00 -4.5084669364486763e+02 1.0000000000000000e+00 1.0845280868339602e+01 1.6940900575606097e+01 1.3587939917374809e+01 
77 1 2 1.0279999659831192e+00 -3.7755234716039467e+02 1.0000000000000000e+00 1.0835931275152388e+01 1.6922524487182958e+01 1.3593253115859664e+01 
167 1 2 1.0280000341632858e+00 -3.1156037103018662e+02 1.0000000000000000e+00 1.0933608250108637e+01 1.6560651679883328e+01 1.4773555128133438e+01 
128 1 2 1.0280001549592950e+00 -4.7147176257617019e+02 1.0000000000000000e+00 1.3195575857219971e+01 1.7603513585015254e+01 1.6668023794550269e+01 
175 1 2 1.0280002116213052e+00 -6.1729914320373575e+02 1.0000000000000000e+00 1.0856683193445550e+01 1.6730938904206354e+01 1.5759191952725013e+01 
161 1 2 1.0280001315270320e+00 -4.1177266259095705e+02 1.0000000000000000e+00 9.6532418661172610e+00 1.6196840083899641e+01 1.7425125969421551e+01 
121 1 2 1.0279999852384338e+00 -3.3457134571284411e+02 1.0000000000000000e+00 9.0213697391300300e+00 1.5817907547371634e+01 1.8481372540013236e+01 
149 1 2 1.0279999847744803e+00 -3.6755124133981121e+02 1.0000000000000000e+00 9.0219275811270983e+00 1.5817644239519719e+01 1.8484499642730171e+01 
35 1 2 1.0279999845476686e+00 -4.2854195700666116e+02 1.0000000000000000e+00 9.0222434073130415e+00 1.5817494872066796e+01 1.8486014659007591e+01 
65 1 2 1.0279999844998640e+00 -4.5224567455363103e+02 1.0000000000000000e+00 9.0225044601369824e+00 1.5817349336297609e+01 1.8486300223633521e+01 
180 1 2 1.0279999844789329e+00 -4.5093074207368164e+02 1.0000000000000000e+00 9.0226604726588118e+00 1.5817261153569090e+01 1.8486417969101037e+01 
24 1 2 1.0279999843243584e+00 -5.4381688548608565e+02 1.0000000000000000e+00 9.0242277138839260e+00 1.5816368764471772e+01 1.8487214357358912e+01 
145 1 2 1.0279999842894436e+00 -3.6908614450252031e+02 1.0000000000000000e+00 9.0231365646162995e+00 1.5817014735048637e+01 1.8487642227931659e+01 
97 1 2 1.0279999842034246e+00 -3.4634699640972531e+02 1.0000000000000000e+00 9.0237636330612503e+00 1.5816662420280499e+01 1.8488125820260461e+01 
43 1 2 1.0279999841254537e+00 -4.4115352576470320e+02 1.0000000000000000e+00 9.0235979223752985e+00 1.5816774310930896e+01 1.8488691053120576e+01 
42 1 2 1.0279999839491254e+00 -3.5351886843331789e+02 1.0000000000000000e+00 9.0237650868282131e+00 1.5816710738336441e+01 1.8489874192739411e+01 
19 1 2 1.0279999838740883e+00 -4.2760439503341132e+02 1.0000000000000000e+00 9.0250572459921639e+00 1.5815968704082751e+01 1.8490163557214220e+01 
23 1 2 1.0279999836062292e+00 -5.2550644248759534e+02 1.0000000000000000e+00 9.0245976264842351e+00 1.5816294513290414e+01 1.8492081805757817e+01 
26 1 2 1.0279999834245077e+00 -2.5546609070132033e+02 1.0000000000000000e+00 9.0251514743245522e+00 1.5816010819467596e+01 1.8493228998658783e+01 
174 1 2 1.0279999834111655e+00 -4.8956939894578079e+02 1.0000000000000000e+00 9.0251834147937924e+00 1.5815995186746308e+01 1.8493314751194628e+01 
29 1 2 1.0279999826554518e+00 -6.3146853150664231e+02 1.0000000000000000e+00 9.0269666839104428e+00 1.5815142479554153e+01 1.8498165428813081e+01 
33 1 2 1.0279999826436921e+00 -5.0825808287169684e+02 1.0000000000000000e+00 9.0271471246802051e+00 1.5815040239731680e+01 1.8498212682098238e+01 
93 1 2 1.0279999821737986e+00 -3.1143914879094837e+02 1.0000000000000000e+00 9.0282643414578132e+00 1.5814522944956295e+01 1.8501217750864566e+01 
17 1 2 1.0279999819094203e+00 -4.5226915302983650e+02 1.0000000000000000e+00 9.0288230870618804e+00 1.5814278459928721e+01 1.8502919444624077e+01 
113 1 2 1.0279999780957381e+00 -3.9681526327173697e+02 1.0000000000000000e+00 9.0373319304679605e+00 1.5810950200321411e+01 1.8527299090104211e+01 
110 1 2 1.0279999763615435e+00 -3.0776885791278016e+02 1.0000000000000000e+00 9.0430537559008446e+00 1.5808651155869279e+01 1.8537957964906131e+01 
99 1 2 1.0280000627348251e+00 -3.6446645587903328e+02 1.0000000000000000e+00 9.8326473075155807e+00 1.8732265017529564e+01 1.9223864907777113e+01 
66 1 2 1.0280000317440090e+00 -4.1373716049967948e+02 1.0000000000000000e+00 1.0245562135881267e+01 1.9771075367804894e+01 1.8123446569817336e+01 
22 1 2 1.0280000302533305e+00 -3.5646106837113052e+02 1.0000000000000000e+00 1.0232554345646617e+01 1.9772385124266719e+01 1.8108857254465274e+01 
170 1 2 1.0280000291492342e+00 -5.8471996793029484e+02 1.0000000000000000e+00 1.0222192159069991e+01 1.9773032777672572e+01 1.8100976579337743e+01 
18 1 2 1.0280000291642104e+00 -4.9047047632283187e+02 1.0000000000000000e+00 1.0222223824927498e+01 1.9773031756094674e+01 1.8101462304685050e+01 
46 1 2 1.0280000291710121e+00 -3.2933373546394193e+02 1.0000000000000000e+00 1.0222311433465302e+01 1.9773027166583109e+01 1.8101426516733628e+01 
25 1 2 1.0280000291477687e+00 -4.2219226433520100e+02 1.0000000000000000e+00 1.0222145150165705e+01 1.9773035377137745e+01 1.8101082403798230e+01 
79 1 2 1.0280000291452598e+00 -3.4990284800707832e+02 1.0000000000000000e+00 1.0222155342193512e+01 1.9773034635896607e+01 1.8100947066608708e+01 
70 1 2 1.0280000291453217e+00 -3.8060011236549548e+02 1.0000000000000000e+00 1.0222155074892102e+01 1.9773034655085816e+01 1.8100950271576366e+01 
71 1 2 1.0280000291487865e+00 -4.8647332698459854e+02 1.0000000000000000e+00 1.0222186512635220e+01 1.9773033073698127e+01 1.8100978710675992e+01 
172 1 2 1.0280000291449785e+00 -4.2690174232684649e+02 1.0000000000000000e+00 1.0222147728857053e+01 1.9773035055521540e+01 1.8100962422589884e+01 
38 1 2 1.0280000291530649e+00 -3.9517746036932169e+02 1.0000000000000000e+00 1.0222208147977623e+01 1.9773032099068732e+01 1.8101073236093715e+01 
63 1 2 1.0280000291448914e+00 -4.1025815678578056e+02 1.0000000000000000e+00 1.0222154466865181e+01 1.9773034661098691e+01 1.8100935099456727e+01 
31 1 2 1.0280000291452229e+00 -5.4057669058778720e+02 1.0000000000000000e+00 1.0222150117292832e+01 1.9773034934140579e+01 1.8100963787369235e+01 
30 1 2 1.0280000291451892e+00 -4.7413103753743246e+02 1.0000000000000000e+00 1.0222152164232471e+01 1.9773034813724902e+01 1.8100955055568839e+01 
61 1 2 1.0280000291453490e+00 -2.7363108294402662e+02 1.0000000000000000e+00 1.0222158893995568e+01 1.9773034436477065e+01 1.8100937803315535e+01 
114 1 2 1.0280000291453906e+00 -3.6522911562292711e+02 1.0000000000000000e+00 1.0222153699402238e+01 1.9773034738405659e+01 1.8100957557501729e+01 
106 1 2 1.0280000291452560e+00 -3.8677844599772101e+02 1.0000000000000000e+00 1.0222152651974463e+01 1.9773034789981718e+01 1.8100955962038888e+01 
52 1 2 1.0280000291455571e+00 -3.2661285287147132e+02 1.0000000000000000e+00 1.0222154775868988e+01 1.9773034687049655e+01 1.8100960198031732e+01 
137 1 2 1.0280000291453348e+00 -4.5938471604181871e+02 1.0000000000000000e+00 1.0222153461834493e+01 1.9773034749218965e+01 1.8100956661864512e+01 
67 1 2 1.0280000291459492e+00 -4.0284546973642227e+02 1.0000000000000000e+00 1.0222163776605809e+01 1.9773034195959720e+01 1.8100945115843061e+01 
109 1 2 1.0280000291450657e+00 -3.7362867685337164e+02 1.0000000000000000e+00 1.0222150609918190e+01 1.9773034894883359e+01 1.8100955476646764e+01 
72 1 2 1.0279998769484171e+00 -3.8328755784991910e+02 1.0000000000000000e+00 9.9655398140924127e+00 1.6153423698653619e+01 1.9489489591560293e+01 
54 1 2 1.0280000022381002e+00 -4.4934367014968325e+02 1.0000000000000000e+00 1.6629769384106474e+01 9.3404224692440483e+00 2.3562297574294817e+00 
11 1 2 1.0279999930509334e+00 -3.8633116793700208e+02 1.0000000000000000e+00 1.6674987945738827e+01 9.3650491536262095e+00 2.3905795614378649e+00 
111 1 2 1.0279999930413217e+00 -2.5082947597680902e+02 1.0000000000000000e+00 1.6674978780016431e+01 9.3652211223160915e+00 2.3902255693902386e+00 
40 1 2 1.0279999930090917e+00 -3.8196165916684072e+02 1.0000000000000000e+00 1.6675183914434061e+01 9.3651697957515037e+00 2.3907533176829880e+00 
147 1 2 1.0279999930043886e+00 -2.7137957392130158e+02 1.0000000000000000e+00 1.6675180946208425e+01 9.3652500983052391e+00 2.3905905115770310e+00 
12 1 2 1.0279999930315462e+00 -3.9300374531636669e+02 1.0000000000000000e+00 1.6674927032809840e+01 9.3655096832056266e+00 2.3895583501469186e+00 
28 1 2 1.0279999929255581e+00 -4.8150742247479843e+02 1.0000000000000000e+00 1.6675536594627907e+01 9.3655138227559291e+00 2.3908196008277325e+00 
142 1 2 1.0279999928351968e+00 -4.3484827653036541e+02 1.0000000000000000e+00 1.6676069347990943e+01 9.3654815774129609e+00 2.3920024660673267e+00 
53 1 2 1.0279999928322439e+00 -4.1621796423574301e+02 1.0000000000000000e+00 1.6676091833360200e+01 9.3654667439950998e+00 2.3920791050398567e+00 
96 1 2 1.0279999928062160e+00 -3.1038203532847740e+02 1.0000000000000000e+00 1.6676245785795583e+01 9.3654561553904490e+00 2.3924255906137639e+00 
154 1 2 1.0279999929200798e+00 -3.0885225111174725e+02 1.0000000000000000e+00 1.6675537211180256e+01 9.3655958002383084e+00 2.3906611251284620e+00 
88 1 2 1.0279999929029755e+00 -2.8171851901921139e+02 1.0000000000000000e+00 1.6675624025026977e+01 9.3656276018259934e+00 2.3907807270557639e+00 
103 1 2 1.0279999928559311e+00 -4.1249197230054972e+02 1.0000000000000000e+00 1.6675905055747343e+01 9.3656011652636675e+00 2.3914218177737987e+00 
105 1 2 1.0279999926614987e+00 -4.2706807680539396e+02 1.0000000000000000e+00 1.6677007053674799e+01 9.3656511073572961e+00 2.3936606350716936e+00 
119 1 2 1.0279999929354775e+00 -4.3373849766776868e+02 1.0000000000000000e+00 1.6675403916394291e+01 9.3657150157651436e+00 2.3901512125403879e+00 
164 1 2 1.0279999928513470e+00 -5.2869792826633352e+02 1.0000000000000000e+00 1.6675897582980767e+01 9.3656916620276469e+00 2.3912291531058600e+00 
150 1 2 1.0279999927219190e+00 -5.1184214706188220e+02 1.0000000000000000e+00 1.6676636069458006e+01 9.3657113229914959e+00 2.3927505080025009e+00 
83 1 2 1.0279999928168839e+00 -3.3402050853358719e+02 1.0000000000000000e+00 1.6676055327034636e+01 9.3658008325958164e+00 2.3913472578853359e+00 
123 1 2 1.0279999927998826e+00 -3.2092634150433207e+02 1.0000000000000000e+00 1.6676174915875347e+01 9.3657428652034103e+00 2.3917124836447394e+00 
165 1 2 1.0279999931783370e+00 -4.0802981556850028e+02 1.0000000000000000e+00 1.6673931265257693e+01 9.3659038452756089e+00 2.3867599653004881e+00 
133 1 2 1.0279999928234202e+00 -4.3800358408375683e+02 1.0000000000000000e+00 1.6675947008935609e+01 9.3659890903537750e+00 2.3907527719973451e+00 
45 1 2 1.0279999927401526e+00 -3.6685010358184149e+02 1.0000000000000000e+00 1.6676414683645088e+01 9.3660221930344481e+00 2.3916710045672582e+00 
151 1 2 1.0280000320018556e+00 -6.0184566034013642e+02 1.0000000000000000e+00 1.4899624711140278e+01 1.0459231401590721e+01 2.4247519668166126e+00 
153 1 2 1.0279999795451118e+00 -3.9974739716045133e+02 1.0000000000000000e+00 1.3824607886388520e+01 1.2218737867927624e+01 3.8982600945454893e+00 
131 1 2 1.0280001379383359e+00 -3.4351304363255872e+02 1.0000000000000000e+00 1.3689634967022627e+01 1.3522690811344244e+01 3.3315930476749447e+00 
57 1 2 1.0279999713362979e+00 -3.4855711919261176e+02 1.0000000000000000e+00 1.3887182868791774e+01 1.2137027086811896e+01 3.9431581009226355e+00 
10 1 2 1.0279999693646913e+00 -3.7662812176236116e+02 1.0000000000000000e+00 1.3914602017732228e+01 1.2075423423763461e+01 3.9595048087981328e+00 
50 1 2 1.0279999688389989e+00 -3.0141834782922137e+02 1.0000000000000000e+00 1.3917855571834325e+01 1.2087170018087139e+01 3.9621432620972774e+00 
58 1 2 1.0279999697161342e+00 -3.5818251747942992e+02 1.0000000000000000e+00 1.3904635649854670e+01 1.2113988252493803e+01 3.9543228619846262e+00 
2 1 2 1.0279999690241486e+00 -5.4034399069325389e+02 1.0000000000000000e+00 1.3915178391967164e+01 1.2091365993594239e+01 3.9605487988012480e+00 
8 1 2 1.0279999690484842e+00 -4.2885132229660411e+02 1.0000000000000000e+00 1.3913002659530957e+01 1.2102135536287664e+01 3.9594644464563036e+00 
14 1 2 1.0279999698268725e+00 -3.6393261675844093e+02 1.0000000000000000e+00 1.3914654815281882e+01 1.2049884625463095e+01 3.9579753996293037e+00 
73 1 2 1.0279999691090214e+00 -4.2886923806273234e+02 1.0000000000000000e+00 1.3911262851638405e+01 1.2108683307871436e+01 3.9585058826511315e+00 
15 1 2 1.0279999690612132e+00 -3.9264523078027997e+02 1.0000000000000000e+00 1.3915638286919375e+01 1.2086781762074013e+01 3.9606856470712617e+00 
158 1 2 1.0279999690295036e+00 -4.6564174759234021e+02 1.0000000000000000e+00 1.3918291406278664e+01 1.2074572753432946e+01 3.9619251257397354e+00 
84 1 2 1.0279999690520061e+00 -3.2417211126573852e+02 1.0000000000000000e+00 1.3915729299998770e+01 1.2086799179233410e+01 3.9607459031051833e+00 
162 1 2 1.0279999692289854e+00 -5.9032769016927045e+02 1.0000000000000000e+00 1.3917713067772690e+01 1.2066763242163226e+01 3.9611527340526322e+00 
134 1 2 1.0279999692302553e+00 -4.4525213322327335e+02 1.0000000000000000e+00 1.3914714574448345e+01 1.2082356324213396e+01 3.9598990926103528e+00 
69 1 2 1.0279999691392554e+00 -5.5016843038154491e+02 1.0000000000000000e+00 1.3914914905880021e+01 1.2086374150835907e+01 3.9601951805887126e+00 
60 1 2 1.0279999691433985e+00 -4.5039766082455827e+02 1.0000000000000000e+00 1.3914932270248732e+01 1.2086044862455610e+01 3.9601938000050505e+00 
124 1 2 1.0279999683197039e+00 -3.9536976819045498e+02 1.0000000000000000e+00 1.3920777243154564e+01 1.2099878152813750e+01 3.9643382310602782e+00 
112 1 2 1.0279999685288650e+00 -2.5893214966309142e+02 1.0000000000000000e+00 1.3921081770803440e+01 1.2087292249316851e+01 3.9642175373951298e+00 
94 1 2 1.0279999686025925e+00 -3.1053923037294459e+02 1.0000000000000000e+00 1.3920077296918340e+01 1.2088440756922287e+01 3.9636123780455477e+00 
59 1 2 1.0280002124212362e+00 -4.0290040082001605e+02 1.0000000000000000e+00 1.3642356118227687e+01 1.3501138810482706e+01 3.5137574553467394e+00 
4 1 2 1.0280001630019531e+00 -3.8800438082880328e+02 1.0000000000000000e+00 1.3630200688435567e+01 1.3544540822076081e+01 3.1872928473668947e+00 
81 1 2 1.0280000369458600e+00 -3.0969308407468378e+02 1.0000000000000000e+00 1.4572801494481924e+01 1.4034512433820348e+01 1.2291943552995598e+01 
89 1 2 1.0280000384548302e+00 -2.8073226829278667e+02 1.0000000000000000e+00 1.4563521059560070e+01 1.4036548689790031e+01 1.2269535194690157e+01 
157 1 2 1.0280000392795083e+00 -5.4903821419321730e+02 1.0000000000000000e+00 1.4572899745868503e+01 1.4052577123416180e+01 1.2256803382291668e+01 
156 1 2 1.0280000393411246e+00 -5.5045415662082121e+02 1.0000000000000000e+00 1.4572354186283299e+01 1.4052704004348373e+01 1.2255666626147734e+01 
135 1 2 1.0280000394151712e+00 -5.0700446579276422e+02 1.0000000000000000e+00 1.4568330287963777e+01 1.4049555353304543e+01 1.2254227176367552e+01 
168 1 2 1.0280000390185167e+00 -4.4328836783096017e+02 1.0000000000000000e+00 1.4575010509041041e+01 1.4051994794377823e+01 1.2261448766486868e+01 
6 1 2 1.0280000390572830e+00 -4.8516679996120183e+02 1.0000000000000000e+00 1.4574727207376201e+01 1.4052097463464703e+01 1.2260773936206755e+01 
169 1 2 1.0280000389753239e+00 -4.9487712889530485e+02 1.0000000000000000e+00 1.4573197674212411e+01 1.4049719644047952e+01 1.2262239059496791e+01 
136 1 2 1.0280000386305517e+00 -4.3916727480014646e+02 1.0000000000000000e+00 1.4570915393333367e+01 1.4044386570952843e+01 1.2267845224752989e+01 
100 1 2 1.0280000389695969e+00 -2.9693456628424974e+02 1.0000000000000000e+00 1.4570731182724746e+01 1.4047262537224560e+01 1.2262271557671548e+01 
140 1 2 1.0280000396595113e+00 -4.8770038243461283e+02 1.0000000000000000e+00 1.4580352864834850e+01 1.4066260545527724e+01 1.2247540966698647e+01 
102 1 2 1.0280000392065527e+00 -4.3555242117807330e+02 1.0000000000000000e+00 1.4578139443336001e+01 1.4057431824519707e+01 1.2257701057964566e+01 
56 1 2 1.0280000393731537e+00 -2.6850655269059848e+02 1.0000000000000000e+00 1.4577361800714568e+01 1.4058532071858700e+01 1.2254565351604288e+01 
7 1 2 1.0280000399176508e+00 -4.4875744724401102e+02 1.0000000000000000e+00 1.4575778257033349e+01 1.4064472717116018e+01 1.2242803613550402e+01 
36 1 2 1.0280000392212580e+00 -5.1029872240229452e+02 1.0000000000000000e+00 1.4575133614040306e+01 1.4054276745913203e+01 1.2257766895827844e+01 
148 1 2 1.0280000392043913e+00 -2.5961722902196578e+02 1.0000000000000000e+00 1.4575025948863860e+01 1.4053975580854262e+01 1.2258088213253769e+01 
9 1 2 1.0280000391713850e+00 -3.8845289027233559e+02 1.0000000000000000e+00 1.4574626280792062e+01 1.4053193485008849e+01 1.2258721351547187e+01 
132 1 2 1.0280000392407782e+00 -4.7764163559679668e+02 1.0000000000000000e+00 1.4573858471340364e+01 1.4053144362703410e+01 1.2257483605299802e+01 
139 1 2 1.0280000393470514e+00 -4.5368243178861508e+02 1.0000000000000000e+00 1.4573687988468066e+01 1.4054160594092963e+01 1.2255494104332888e+01 
177 1 2 1.0280000395374220e+00 -5.4619763393631183e+02 1.0000000000000000e+00 1.4573413814463253e+01 1.4056160053270800e+01 1.2251769492167361e+01 
138 1 2 1.0280000395245696e+00 -5.0872812591132708e+02 1.0000000000000000e+00 1.4572207447552193e+01 1.4054710120635772e+01 1.2252118031164134e+01 
122 1 2 1.0280000400734768e+00 -3.1770465538375504e+02 1.0000000000000000e+00 1.4576936873241824e+01 1.4068957389196651e+01 1.2238164590520704e+01 
34 1 2 1.0280000400495573e+00 -4.4796913223612046e+02 1.0000000000000000e+00 1.4581013805871091e+01 1.4120271349976285e+01 1.2187430222504290e+01 
92 1 2 1.0279999773561577e+00 -3.6059281895316366e+02 1.0000000000000000e+00 1.4012659979792009e+01 1.7153258948008258e+01 1.6046186320975327e+01 
144 1 2 1.0279999832969005e+00 -3.9071416564747307e+02 1.0000000000000000e+00 1.3979908869066545e+01 1.7133755535456622e+01 1.6113279624385282e+01 
141 1 2 1.0279999839870484e+00 -4.7736865379222166e+02 1.0000000000000000e+00 1.3975407621892298e+01 1.7163752000870218e+01 1.6109673187754151e+01 
62 1 2 1.0279999845132641e+00 -2.2758507804196736e+02 1.0000000000000000e+00 1.3973874321598474e+01 1.7093242928510339e+01 1.6132974005578383e+01 
49 1 2 1.0279999860104625e+00 -3.6405829522891179e+02 1.0000000000000000e+00 1.3966249001652823e+01 1.7075007468251929e+01 1.6146936602510515e+01 
143 1 2 1.0279999862688005e+00 -4.5589303279369454e+02 1.0000000000000000e+00 1.3964920897278791e+01 1.7071592647426716e+01 1.6149221792871561e+01 
51 1 2 1.0279999867197989e+00 -3.2287931773186131e+02 1.0000000000000000e+00 1.3962875963255463e+01 1.7074798103731176e+01 1.6151751744001388e+01 
171 1 2 1.0279999872830778e+00 -3.8535305110075819e+02 1.0000000000000000e+00 1.3960540162361218e+01 1.7088886751995268e+01 1.6153214467392257e+01 
163 1 2 1.0279999873494976e+00 -4.7279185895164295e+02 1.0000000000000000e+00 1.3960109867347795e+01 1.7082623881541636e+01 1.6154694981551341e+01 
120 1 2 1.0279999875685160e+00 -4.1856038486113255e+02 1.0000000000000000e+00 1.3959358960517500e+01 1.7106147786317475e+01 1.6151984428951021e+01 
179 1 2 1.0279999874630388e+00 -5.3640229174610670e+02 1.0000000000000000e+00 1.3959264783603224e+01 1.7070774426056825e+01 1.6157235546262978e+01 
115 1 2 1.0279999875702834e+00 -3.7338346537576541e+02 1.0000000000000000e+00 1.3959158793024210e+01 1.7086638358968500e+01 1.6155496974685853e+01 
146 1 2 1.0279999881632764e+00 -2.4483808206196545e+02 1.0000000000000000e+00 1.3956577260442611e+01 1.7111503580686033e+01 1.6154960504758307e+01 
90 1 2 1.0279999885777384e+00 -3.1492912730231194e+02 1.0000000000000000e+00 1.3954227365427359e+01 1.7075544402157263e+01 1.6163701820143110e+01 
1 1 2 1.0279999887926821e+00 -3.9231857729891601e+02 1.0000000000000000e+00 1.3953243949941255e+01 1.7075829154630949e+01 1.6165019029145036e+01 
75 1 2 1.0279999888737574e+00 -3.5978884971950572e+02 1.0000000000000000e+00 1.3953125290953032e+01 1.7086778598981674e+01 1.6163917895388135e+01 
125 1 2 1.0279999892550988e+00 -4.1301287006676023e+02 1.0000000000000000e+00 1.3951404235937135e+01 1.7088502518265720e+01 1.6166071798219047e+01 
160 1 2 1.0279999891788820e+00 -5.0317050572536652e+02 1.0000000000000000e+00 1.3951294850695410e+01 1.7070306941428331e+01 1.6168182950385344e+01 
127 1 2 1.0279999900367154e+00 -4.8686601550047214e+02 1.0000000000000000e+00 1.3947959003150032e+01 1.7100059874533883e+01 1.6169179960642431e+01 
173 1 2 1.0279999902192694e+00 -4.0504067492386253e+02 1.0000000000000000e+00 1.3947048155105326e+01 1.7091663327977113e+01 1.6171631516001440e+01 
13 1 2 1.0279999903294605e+00 -4.8653488364696261e+02 1.0000000000000000e+00 1.3946598676745378e+01 1.7096211846994983e+01 1.6171622974496987e+01 

Velocities

95 1.0808526690061211e-01 -1.4105180044323931e-01 -3.3455106284803254e-01
16 1.0807761776347381e-01 -1.4103811980456540e-01 -3.3457893584222037e-01
32 1.0807635227068477e-01 -1.4103616549161282e-01 -3.3457888229330029e-01
85 1.0807925978826124e-01 -1.4103514912244591e-01 -3.3458313618169411e-01
101 1.0808012062943172e-01 -1.4103334004612189e-01 -3.3458510386605034e-01
39 1.0807919262779432e-01 -1.4103519703326853e-01 -3.3458303451207932e-01
130 1.0807965972601931e-01 -1.4103367407521061e-01 -3.3458446847674106e-01
47 1.0807945788184047e-01 -1.4103242208225952e-01 -3.3458495516717401e-01
159 1.0808102978408154e-01 -1.4102999493897586e-01 -3.3458754747085978e-01
20 1.0807902002854644e-01 -1.4103545164409972e-01 -3.3458267905240108e-01
48 1.0807954132991751e-01 -1.4103392472781362e-01 -3.3458420233593805e-01
104 1.0807896549434379e-01 -1.4103605512013956e-01 -3.3458218854556587e-01
155 1.0815413226609716e-01 -1.4096209147128938e-01 -3.3457729175769596e-01
116 1.0811530740043927e-01 -1.4097718160276299e-01 -3.3458366379428722e-01
41 1.0811241723617283e-01 -1.4097875120620879e-01 -3.3458448331089530e-01
91 1.0808999789391169e-01 -1.4100626988842765e-01 -3.3459449385036039e-01
152 1.0808063297142470e-01 -1.4103401766695225e-01 -3.3458516746347294e-01
80 1.0807986871569461e-01 -1.4103350196197936e-01 -3.3458477203856068e-01
76 1.0807792467897763e-01 -1.4103775042136862e-01 -3.3457964552983371e-01
108 1.0807892104353303e-01 -1.4103592959141686e-01 -3.3458223327749709e-01
5 1.0807840821734903e-01 -1.4103707758713921e-01 -3.3458078223984083e-01
27 1.0808993546749168e-01 -1.4104879021856187e-01 -3.3453805534792297e-01
86 1.0808998326914830e-01 -1.4104867698778967e-01 -3.3453782275392541e-01
118 1.0735725170715886e-01 -1.4132415139174082e-01 -3.3427331785268288e-01
37 1.0735991124170276e-01 -1.4132523485760129e-01 -3.3427455041773169e-01
87 1.0735957565433461e-01 -1.4132511458412275e-01 -3.3427435604809652e-01
166 1.0735982307255065e-01 -1.4132519638268506e-01 -3.3427449929467556e-01
129 1.0735986505157800e-01 -1.4132524192113657e-01 -3.3427451946112979e-01
44 1.0735939640943373e-01 -1.4132503192517659e-01 -3.3427425974208580e-01
74 1.0735979405655550e-01 -1.4132521451928212e-01 -3.3427447799524584e-01
178 1.0735967967122510e-01 -1.4132516021288197e-01 -3.3427441380807593e-01
3 1.0735963012236735e-01 -1.4132514666207374e-01 -3.3427438490206857e-01
64 1.0735972180787466e-01 -1.4132517125658281e-01 -3.3427443865293377e-01
21 1.0735963349503402e-01 -1.4132514145942587e-01 -3.3427438779906127e-01
176 1.0735982106122989e-01 -1.4132520448713043e-01 -3.3427449677509136e-01
68 1.0735987688140045e-01 -1.4132523666295599e-01 -3.3427452787854067e-01
78 1.0735991048602214e-01 -1.4132524084106476e-01 -3.3427454903027193e-01
107 1.0735994544819080e-01 -1.4132529089484369e-01 -3.3427456442853110e-01
117 1.0735996078767039e-01 -1.4132526626422057e-01 -3.3427457805013999e-01
55 1.0735998336278731e-01 -1.4132527566545450e-01 -3.3427459145907124e-01
126 1.0736002281839564e-01 -1.4132529767037069e-01 -3.3427461420704385e-01
82 1.0735957836610872e-01 -1.4132512478424894e-01 -3.3427435614936613e-01