LAMMPS data file via write_data, version 30 Jul 2016, timestep = 50000000

180 atoms
2 atom types

0.0000000000000000e+00 2.0000000000000000e+01 xlo xhi
0.0000000000000000e+00 2.0000000000000000e+01 ylo yhi
0.0000000000000000e+00 2.0000000000000000e+01 zlo zhi

Masses

1 3.896
2 4.31

Atoms # meso-molecular

175 1 2 1.0280002113854869e+00 -6.1729914329468522e+02 1.0000000000000000e+00 6.5613482825227454e+00 2.3848288413821375e+00 9.1301599286780064e+00 
167 1 2 1.0280000334593811e+00 -3.1156037107566135e+02 1.0000000000000000e+00 6.6386494763654307e+00 2.2136386364796041e+00 8.1447575044605163e+00 
87 1 2 1.0279999694820199e+00 -2.3436252526065465e+02 1.0000000000000000e+00 6.6657891868321100e+00 2.2870340561607927e+00 6.3774277080554187e+00 
82 1 2 1.0279999694721857e+00 -3.1054617309046796e+02 1.0000000000000000e+00 6.6658214515119782e+00 2.2874270467072129e+00 6.3775147443453939e+00 
3 1 2 1.0279999694040434e+00 -5.4768110985694113e+02 1.0000000000000000e+00 6.6647938446119896e+00 2.2882032559762875e+00 6.3791466191541142e+00 
21 1 2 1.0279999694042117e+00 -3.7896118446253257e+02 1.0000000000000000e+00 6.6646640007045868e+00 2.2879963473053953e+00 6.3792517510908660e+00 
178 1 2 1.0279999693443378e+00 -4.9423488555696872e+02 1.0000000000000000e+00 6.6637405926971871e+00 2.2886594045043607e+00 6.3807128043895265e+00 
64 1 2 1.0279999692942094e+00 -3.7676429588106123e+02 1.0000000000000000e+00 6.6628409798086246e+00 2.2890292828494494e+00 6.3820489433044409e+00 
74 1 2 1.0279999691921720e+00 -3.8249354641586012e+02 1.0000000000000000e+00 6.6615293834960170e+00 2.2906057589020534e+00 6.3843549169776095e+00 
176 1 2 1.0279999691723469e+00 -4.3740475034942341e+02 1.0000000000000000e+00 6.6607922470506384e+00 2.2901818585478906e+00 6.3852136747094166e+00 
166 1 2 1.0279999691759742e+00 -3.5575173555511265e+02 1.0000000000000000e+00 6.6606679436637739e+00 2.2898659210399765e+00 6.3852764718611930e+00 
129 1 2 1.0279999691032362e+00 -3.6974507640659760e+02 1.0000000000000000e+00 6.6600988217109034e+00 2.2915699111347130e+00 6.3866291730399034e+00 
68 1 2 1.0279999690952881e+00 -5.3535388103584751e+02 1.0000000000000000e+00 6.6597681407811811e+00 2.2913515283898405e+00 6.3870065963859810e+00 
78 1 2 1.0279999690596711e+00 -3.1622762967557514e+02 1.0000000000000000e+00 6.6590089371574868e+00 2.2914694935596644e+00 6.3880860121458500e+00 
37 1 2 1.0279999690630941e+00 -3.8756919801012009e+02 1.0000000000000000e+00 6.6589347085054085e+00 2.2912377734054230e+00 6.3881090513584144e+00 
107 1 2 1.0279999689914301e+00 -4.1235943857506743e+02 1.0000000000000000e+00 6.6586485426318864e+00 2.2933538042869803e+00 6.3892252446737805e+00 
117 1 2 1.0279999689935830e+00 -2.8917019684130304e+02 1.0000000000000000e+00 6.6580532525657743e+00 2.2923858026489574e+00 6.3897114055850297e+00 
55 1 2 1.0279999689654578e+00 -3.2354418265092585e+02 1.0000000000000000e+00 6.6576056274107325e+00 2.2927196989148992e+00 6.3904424265306377e+00 
126 1 2 1.0279999689128199e+00 -4.5086589662135907e+02 1.0000000000000000e+00 6.6568757312486815e+00 2.2935178291139309e+00 6.3917247351332867e+00 
98 1 2 1.0279999649051390e+00 -4.5084669364486763e+02 1.0000000000000000e+00 6.5506489150405347e+00 2.5941948951682816e+00 6.9592923928926620e+00 
77 1 2 1.0279999654927969e+00 -3.7755234716039467e+02 1.0000000000000000e+00 6.5412950275594968e+00 2.5757963823037238e+00 6.9646106950725839e+00 
161 1 2 1.0280001301312365e+00 -4.1177266263643179e+02 1.0000000000000000e+00 5.3527691223450740e+00 1.8498194711319278e+00 1.0794574318147433e+01 
121 1 2 1.0279999829973083e+00 -3.3457134580379358e+02 1.0000000000000000e+00 4.7183969861106849e+00 1.4688833079178383e+00 1.1849373983000442e+01 
149 1 2 1.0279999825257951e+00 -3.6755124143076068e+02 1.0000000000000000e+00 4.7189481270189644e+00 1.4686144606386038e+00 1.1852503432748563e+01 
35 1 2 1.0279999822951389e+00 -4.2854195709761063e+02 1.0000000000000000e+00 4.7192606924153333e+00 1.4684623669659005e+00 1.1854019615224757e+01 
65 1 2 1.0279999822457895e+00 -4.5224567464458050e+02 1.0000000000000000e+00 4.7195210644378669e+00 1.4683161434083771e+00 1.1854305445887418e+01 
180 1 2 1.0279999822240637e+00 -4.5093074216463111e+02 1.0000000000000000e+00 4.7196767804707402e+00 1.4682276353067605e+00 1.1854423311955250e+01 
24 1 2 1.0279999820622252e+00 -5.4381688557703512e+02 1.0000000000000000e+00 4.7212418535188778e+00 1.4673326030466098e+00 1.1855220632523054e+01 
145 1 2 1.0279999820306434e+00 -3.6908614459346978e+02 1.0000000000000000e+00 4.7201501661316101e+00 1.4679788187569685e+00 1.1855648574421725e+01 
97 1 2 1.0279999819414023e+00 -3.4634699650067478e+02 1.0000000000000000e+00 4.7207760234176517e+00 1.4676251756876368e+00 1.1856132663530603e+01 
43 1 2 1.0279999818630599e+00 -4.4115352585565267e+02 1.0000000000000000e+00 4.7206091886499451e+00 1.4677362911598275e+00 1.1856698278108507e+01 
42 1 2 1.0279999816840741e+00 -3.5351886852426736e+02 1.0000000000000000e+00 4.7207738335381944e+00 1.4676706506476769e+00 1.1857882337178047e+01 
19 1 2 1.0279999816036451e+00 -4.2760439512436079e+02 1.0000000000000000e+00 4.7220649747779238e+00 1.4669270196656905e+00 1.1858172208213681e+01 
23 1 2 1.0279999813341669e+00 -5.2550644257854481e+02 1.0000000000000000e+00 4.7216015039390378e+00 1.4672501074171318e+00 1.1860091803468563e+01 
26 1 2 1.0279999811483569e+00 -2.5546609076953243e+02 1.0000000000000000e+00 4.7221527832038950e+00 1.4669640589154664e+00 1.1861239997795179e+01 
174 1 2 1.0279999811347469e+00 -4.8956939903673026e+02 1.0000000000000000e+00 4.7221845347081768e+00 1.4669482584042648e+00 1.1861325823363483e+01 
33 1 2 1.0279999803513911e+00 -5.0825808296264631e+02 1.0000000000000000e+00 4.7241374084705567e+00 1.4659835812266471e+00 1.1866228027975207e+01 
29 1 2 1.0279999803639004e+00 -6.3146853159759178e+02 1.0000000000000000e+00 4.7239571226176356e+00 1.4660860601065635e+00 1.1866180695962477e+01 
93 1 2 1.0279999798721682e+00 -3.1143914888189784e+02 1.0000000000000000e+00 4.7252480046930572e+00 1.4654603739748535e+00 1.1869235767922122e+01 
17 1 2 1.0279999796027854e+00 -4.5226915312078597e+02 1.0000000000000000e+00 4.7258030235317392e+00 1.4652126019107310e+00 1.1870938980580187e+01 
113 1 2 1.0279999757176559e+00 -3.9681526336268644e+02 1.0000000000000000e+00 4.7342582494892911e+00 1.4618363974688418e+00 1.1895342354584955e+01 
110 1 2 1.0279999739460630e+00 -3.0776885800372963e+02 1.0000000000000000e+00 4.7399560552972471e+00 1.4595141635015600e+00 1.1906013197162007e+01 
72 1 2 1.0279998731752649e+00 -3.8328755816824224e+02 1.0000000000000000e+00 5.6595137148191901e+00 1.8022869720364108e+00 1.2860407400920513e+01 
99 1 2 1.0280000659531554e+00 -3.6446645601545748e+02 1.0000000000000000e+00 5.5315780333565483e+00 4.3828612432374312e+00 1.2590839726434433e+01 
66 1 2 1.0280000348845213e+00 -4.1373716049967948e+02 1.0000000000000000e+00 5.9464246315607170e+00 5.4211627775307649e+00 1.1491393030836791e+01 
22 1 2 1.0280000333546471e+00 -3.5646106837113052e+02 1.0000000000000000e+00 5.9334367419259362e+00 5.4224849553060714e+00 1.1476820805884609e+01 
170 1 2 1.0280000322174299e+00 -5.8471996793029484e+02 1.0000000000000000e+00 5.9230879878412939e+00 5.4231421134923066e+00 1.1468948851303530e+01 
63 1 2 1.0280000322129448e+00 -4.1025815678578056e+02 1.0000000000000000e+00 5.9230503488098947e+00 5.4231440352345590e+00 1.1468907417744402e+01 
79 1 2 1.0280000322133331e+00 -3.4990284800707832e+02 1.0000000000000000e+00 5.9230512182775747e+00 5.4231440064582497e+00 1.1468919370837851e+01 
31 1 2 1.0280000322132949e+00 -5.4057669058778720e+02 1.0000000000000000e+00 5.9230459913015494e+00 5.4231443045327863e+00 1.1468936071507153e+01 
30 1 2 1.0280000322132463e+00 -4.7413103753743246e+02 1.0000000000000000e+00 5.9230480399728735e+00 5.4231441847154489e+00 1.1468927350151423e+01 
70 1 2 1.0280000322133918e+00 -3.8060011236549548e+02 1.0000000000000000e+00 5.9230509498842281e+00 5.4231440250655760e+00 1.1468922572005637e+01 
172 1 2 1.0280000322130431e+00 -4.2690174232684649e+02 1.0000000000000000e+00 5.9230436057039411e+00 5.4231444280335772e+00 1.1468934708172124e+01 
71 1 2 1.0280000322169638e+00 -4.8647332698459854e+02 1.0000000000000000e+00 5.9230823458650228e+00 5.4231424132220898e+00 1.1468950979734711e+01 
106 1 2 1.0280000322133189e+00 -3.8677844599772101e+02 1.0000000000000000e+00 5.9230485268705806e+00 5.4231441603862596e+00 1.1468928255585794e+01 
52 1 2 1.0280000322136189e+00 -3.2661285287147132e+02 1.0000000000000000e+00 5.9230506469700419e+00 5.4231440548320720e+00 1.1468932486728377e+01 
61 1 2 1.0280000322134082e+00 -2.7363108294402662e+02 1.0000000000000000e+00 5.9230547706065222e+00 5.4231438066411881e+00 1.1468910118720805e+01 
114 1 2 1.0280000322134499e+00 -3.6522911562292711e+02 1.0000000000000000e+00 5.9230495726339987e+00 5.4231441076374791e+00 1.1468929849238934e+01 
109 1 2 1.0280000322131324e+00 -3.7362867685337164e+02 1.0000000000000000e+00 5.9230464869541413e+00 5.4231442669340497e+00 1.1468927770624180e+01 
67 1 2 1.0280000322140468e+00 -4.0284546973642227e+02 1.0000000000000000e+00 5.9230596455136917e+00 5.4231435606869809e+00 1.1468917422960066e+01 
137 1 2 1.0280000322134140e+00 -4.5938471604181871e+02 1.0000000000000000e+00 5.9230493356682299e+00 5.4231441188468397e+00 1.1468928954641907e+01 
38 1 2 1.0280000322213909e+00 -3.9517746036932169e+02 1.0000000000000000e+00 5.9231039209451080e+00 5.4231413993627466e+00 1.1469045395117417e+01 
25 1 2 1.0280000322158998e+00 -4.2219226433520100e+02 1.0000000000000000e+00 5.9230409790163323e+00 5.4231447223271703e+00 1.1469054547638043e+01 
18 1 2 1.0280000322328826e+00 -4.9047047632283187e+02 1.0000000000000000e+00 5.9231194193116021e+00 5.4231409499699073e+00 1.1469434005643246e+01 
46 1 2 1.0280000322398857e+00 -3.2933373546394193e+02 1.0000000000000000e+00 5.9232069597853423e+00 5.4231363036335267e+00 1.1469398265954750e+01 
92 1 2 1.0279999784311649e+00 -3.6059281895316366e+02 1.0000000000000000e+00 9.7180041686441783e+00 2.8062762559377421e+00 9.4173324500540190e+00 
141 1 2 1.0279999848414028e+00 -4.7736865379222166e+02 1.0000000000000000e+00 9.6806437714401756e+00 2.8167538977616156e+00 9.4808080884864996e+00 
144 1 2 1.0279999841687009e+00 -3.9071416564747307e+02 1.0000000000000000e+00 9.6851578387912145e+00 2.7867477447110320e+00 9.4844189175005180e+00 
62 1 2 1.0279999853396167e+00 -2.2758507804196736e+02 1.0000000000000000e+00 9.6791101379424145e+00 2.7462175745661335e+00 9.5041125509338311e+00 
49 1 2 1.0279999867874046e+00 -3.6405829522891179e+02 1.0000000000000000e+00 9.6714668708852489e+00 2.7279738261725823e+00 9.5180707664872788e+00 
143 1 2 1.0279999870372483e+00 -4.5589303279369454e+02 1.0000000000000000e+00 9.6701358195115752e+00 2.7245575969558229e+00 9.5203551146154748e+00 
51 1 2 1.0279999874757322e+00 -3.2287931773186131e+02 1.0000000000000000e+00 9.6680845580902002e+00 2.7277637035343152e+00 9.5228831692940847e+00 
120 1 2 1.0279999883069690e+00 -4.1856038486113255e+02 1.0000000000000000e+00 9.6645523267102185e+00 2.7591224745719982e+00 9.5231112320110505e+00 
171 1 2 1.0279999880259405e+00 -3.8535305110075819e+02 1.0000000000000000e+00 9.6657395475689576e+00 2.7418563414397759e+00 9.5243431029112067e+00 
163 1 2 1.0279999880889501e+00 -4.7279185895164295e+02 1.0000000000000000e+00 9.6653092374963183e+00 2.7355913969313757e+00 9.5258235937420732e+00 
146 1 2 1.0279999888858031e+00 -2.4483808206196545e+02 1.0000000000000000e+00 9.6617621709064547e+00 2.7644790447609626e+00 9.5260847317922153e+00 
115 1 2 1.0279999883043367e+00 -3.7338346537576541e+02 1.0000000000000000e+00 9.6643547691926894e+00 2.7396069115060189e+00 9.5266245464232036e+00 
179 1 2 1.0279999881963151e+00 -5.3640229174610670e+02 1.0000000000000000e+00 9.6644643183245620e+00 2.7237380651455112e+00 9.5283641164774782e+00 
90 1 2 1.0279999892802438e+00 -3.1492912730231194e+02 1.0000000000000000e+00 9.6594120304405831e+00 2.7285085765871786e+00 9.5348255325630369e+00 
75 1 2 1.0279999895706387e+00 -3.5978884971950572e+02 1.0000000000000000e+00 9.6583046141541917e+00 2.7397458134279060e+00 9.5350400169292513e+00 
1 1 2 1.0279999894891951e+00 -3.9231857729891601e+02 1.0000000000000000e+00 9.6584258609935425e+00 2.7287932325723308e+00 9.5361417996265860e+00 
125 1 2 1.0279999899416807e+00 -4.1301287006676023e+02 1.0000000000000000e+00 9.6565785000194975e+00 2.7414698388649201e+00 9.5371922145781269e+00 
160 1 2 1.0279999898631136e+00 -5.0317050572536652e+02 1.0000000000000000e+00 9.6564726968589554e+00 2.7232691111848184e+00 9.5393041392844751e+00 
127 1 2 1.0279999907042312e+00 -4.8686601550047214e+02 1.0000000000000000e+00 9.6531217332151247e+00 2.7530295403494423e+00 9.5402966164897389e+00 
173 1 2 1.0279999908797901e+00 -4.0504067492386253e+02 1.0000000000000000e+00 9.6522098747752274e+00 2.7446305265885291e+00 9.5427475453343522e+00 
13 1 2 1.0279999909880173e+00 -4.8653488364696261e+02 1.0000000000000000e+00 9.6517583322389982e+00 2.7491801428739233e+00 9.5427384012688172e+00 
118 1 2 1.0279999728580744e+00 -2.6769747890232134e+02 1.0000000000000000e+00 6.7129933849198418e+00 2.2524218160789662e+00 6.3092119187528644e+00 
44 1 2 1.0279999697257376e+00 -3.1241823715412374e+02 1.0000000000000000e+00 6.6692863775646876e+00 2.2840724488516400e+00 6.3718220523571434e+00 
128 1 2 1.0280001536480965e+00 -4.7147176262164493e+02 1.0000000000000000e+00 8.8988902302806903e+00 3.2555368714365311e+00 1.0037545726717608e+01 
16 1 2 1.0279999027625526e+00 -3.4205157686836225e+02 1.0000000000000000e+00 8.0980556984114447e+00 1.9573637455739656e+00 1.5538904923053042e+01 
39 1 2 1.0279999262972455e+00 -4.0166507489186580e+02 1.0000000000000000e+00 8.1006991537902344e+00 1.9683458237258009e+00 1.5578980803706026e+01 
32 1 2 1.0279999143152947e+00 -5.5675330531118345e+02 1.0000000000000000e+00 8.1261490174151714e+00 1.9541314199465993e+00 1.5531166641551202e+01 
104 1 2 1.0279999200727803e+00 -4.5490499416903356e+02 1.0000000000000000e+00 8.0974249196178683e+00 1.9662863567356250e+00 1.5570610205684435e+01 
101 1 2 1.0279999393746522e+00 -3.3906738853902709e+02 1.0000000000000000e+00 8.1012806298944504e+00 1.9730453870509272e+00 1.5602812962089022e+01 
76 1 2 1.0279999061658904e+00 -4.1702195457075226e+02 1.0000000000000000e+00 8.0974767955074807e+00 1.9594451798280719e+00 1.5545569351756027e+01 
85 1 2 1.0279999266925048e+00 -3.4420982031768017e+02 1.0000000000000000e+00 8.1001520129370714e+00 1.9685988727617840e+00 1.5580199022291866e+01 
152 1 2 1.0279999351516207e+00 -2.9948342530987617e+02 1.0000000000000000e+00 8.0885345723192668e+00 1.9727548197834079e+00 1.5605675850909744e+01 
95 1 2 1.0279997060709789e+00 -3.3807474917841381e+02 1.0000000000000000e+00 7.9611658945876025e+00 1.8670431943671779e+00 1.5403280237351426e+01 
47 1 2 1.0279999447182910e+00 -4.0219130372991128e+02 1.0000000000000000e+00 8.1189190960483675e+00 1.9725118058950126e+00 1.5597678981054987e+01 
27 1 2 1.0279996389509942e+00 -4.6663275177764490e+02 1.0000000000000000e+00 7.9297443771844280e+00 1.8138470656082895e+00 1.5359222100807603e+01 
91 1 2 1.0280000659168655e+00 -4.0464943853310189e+02 1.0000000000000000e+00 8.1063328927116363e+00 1.9247912467987804e+00 1.5918816564650001e+01 
20 1 2 1.0279999243590294e+00 -3.5979819300312914e+02 1.0000000000000000e+00 8.1011028265317204e+00 1.9674604327156908e+00 1.5575057816666170e+01 
86 1 2 1.0279996380488703e+00 -2.8806971288238560e+02 1.0000000000000000e+00 7.9294309608711169e+00 1.8128152276543585e+00 1.5358423630485861e+01 
130 1 2 1.0279999369030657e+00 -3.6477981387563273e+02 1.0000000000000000e+00 8.1056467264029379e+00 1.9716816169487796e+00 1.5594349219234806e+01 
80 1 2 1.0279999381742266e+00 -2.3255253778973690e+02 1.0000000000000000e+00 8.1038671985474942e+00 1.9723604792798530e+00 1.5598311654409938e+01 
48 1 2 1.0279999351656581e+00 -3.7481741961240499e+02 1.0000000000000000e+00 8.1054356061281077e+00 1.9710739779972903e+00 1.5591252828521098e+01 
5 1 2 1.0279999119736596e+00 -4.3952135566666510e+02 1.0000000000000000e+00 8.0968757575668882e+00 1.9626219513330141e+00 1.5556545845101398e+01 
116 1 2 1.0280001490774446e+00 -2.9806761744169489e+02 1.0000000000000000e+00 8.2758246115931584e+00 1.4830491687565204e+00 1.6384405634421181e+01 
41 1 2 1.0280001450822749e+00 -4.3930255592711774e+02 1.0000000000000000e+00 8.2420123880513536e+00 1.5039418429984959e+00 1.6366532739595367e+01 
155 1 2 1.0280001771048684e+00 -4.2593472489685257e+02 1.0000000000000000e+00 8.5622967858742864e+00 1.0257535520801297e+00 1.6594423004091130e+01 
159 1 2 1.0279999602543470e+00 -4.6425045218160392e+02 1.0000000000000000e+00 8.1133403114771987e+00 1.9777747313403684e+00 1.5633744405332548e+01 
108 1 2 1.0279999209080293e+00 -4.1075442701499213e+02 1.0000000000000000e+00 8.0988899684030731e+00 1.9663764741246277e+00 1.5570783179116278e+01 
81 1 2 1.0280000381034100e+00 -3.0969308407468378e+02 1.0000000000000000e+00 1.0279674012754674e+01 1.9688182461264866e+01 5.6637690079011440e+00 
89 1 2 1.0280000395131572e+00 -2.8073226829278667e+02 1.0000000000000000e+00 1.0270402758441820e+01 1.9690221367047901e+01 5.6413955787110153e+00 
136 1 2 1.0280000396525439e+00 -4.3916727480014646e+02 1.0000000000000000e+00 1.0277785504542083e+01 1.9698048338370008e+01 5.6397087224775726e+00 
100 1 2 1.0280000399565867e+00 -2.9693456628424974e+02 1.0000000000000000e+00 1.0277600544850236e+01 1.9700921181422682e+01 5.6341439271114995e+00 
135 1 2 1.0280000403581631e+00 -5.0700446579276422e+02 1.0000000000000000e+00 1.0275201935829934e+01 1.9703212012054284e+01 5.6261122695189103e+00 
169 1 2 1.0280000399525360e+00 -4.9487712889530485e+02 1.0000000000000000e+00 1.0280063316045771e+01 1.9703374656007590e+01 5.6341115750385073e+00 
168 1 2 1.0280000399833076e+00 -4.4328836783096017e+02 1.0000000000000000e+00 1.0281873298169513e+01 1.9705646558167896e+01 5.6333225953498767e+00 
6 1 2 1.0280000400187601e+00 -4.8516679996120183e+02 1.0000000000000000e+00 1.0281590302671136e+01 1.9705749198290512e+01 5.6326488297010089e+00 
157 1 2 1.0280000402218024e+00 -5.4903821419321730e+02 1.0000000000000000e+00 1.0279764911662761e+01 1.9706228844528027e+01 5.6286845362311366e+00 
156 1 2 1.0280000402779521e+00 -5.5045415662082121e+02 1.0000000000000000e+00 1.0279219987587140e+01 1.9706355727801377e+01 5.6275495717194346e+00 
9 1 2 1.0280000401195735e+00 -3.8845289027233559e+02 1.0000000000000000e+00 1.0281489178412007e+01 1.9706843945806206e+01 5.6305995044072521e+00 
132 1 2 1.0280000401837741e+00 -4.7764163559679668e+02 1.0000000000000000e+00 1.0280722311880535e+01 1.9706795114759824e+01 5.6293637048747920e+00 
148 1 2 1.0280000401466833e+00 -2.5961722902196578e+02 1.0000000000000000e+00 1.0281888144853825e+01 1.9707624976312818e+01 5.6299673819234988e+00 
139 1 2 1.0280000402772806e+00 -4.5368243178861508e+02 1.0000000000000000e+00 1.0280551762961602e+01 1.9707810156020642e+01 5.6273773609570306e+00 
36 1 2 1.0280000401609397e+00 -5.1029872240229452e+02 1.0000000000000000e+00 1.0281995596598827e+01 1.9707925743648762e+01 5.6296465773318181e+00 
138 1 2 1.0280000404377800e+00 -5.0872812591132708e+02 1.0000000000000000e+00 1.0279072918534032e+01 1.9708359401355025e+01 5.6240066128627442e+00 
177 1 2 1.0280000404432457e+00 -5.4619763393631183e+02 1.0000000000000000e+00 1.0280277426657060e+01 1.9709807196096179e+01 5.6236586556795096e+00 
102 1 2 1.0280000401331935e+00 -4.3555242117807330e+02 1.0000000000000000e+00 1.0284996955715968e+01 1.9711076052888842e+01 5.6295808977660737e+00 
56 1 2 1.0280000402816065e+00 -2.6850655269059848e+02 1.0000000000000000e+00 1.0284219966813382e+01 1.9712175157115830e+01 5.6264501478177298e+00 
7 1 2 1.0280000407499681e+00 -4.4875744724401102e+02 1.0000000000000000e+00 1.0282637153906149e+01 1.9718108411995242e+01 5.6147069628202440e+00 
140 1 2 1.0280000405052767e+00 -4.8770038243461283e+02 1.0000000000000000e+00 1.0287205649913323e+01 1.9719892813816049e+01 5.6194368394596559e+00 
122 1 2 1.0280000408666776e+00 -3.1770465538375504e+02 1.0000000000000000e+00 1.0283793554029087e+01 1.9722586689272703e+01 5.6100751938949944e+00 
34 1 2 1.0280000404035905e+00 -4.4796913223612046e+02 1.0000000000000000e+00 1.0287865193337867e+01 1.9773821074467779e+01 5.5594140886587056e+00 
54 1 2 1.0280000021582925e+00 -4.4934367014968325e+02 1.0000000000000000e+00 1.2289841147957921e+01 1.4973841775199620e+01 1.5739902096579767e+01 
165 1 2 1.0279999925397783e+00 -4.0802981556850028e+02 1.0000000000000000e+00 1.2334053488081475e+01 1.4999282316906047e+01 1.5770412781208250e+01 
12 1 2 1.0279999923777621e+00 -3.9300374531636669e+02 1.0000000000000000e+00 1.2335050382293732e+01 1.4998887279701952e+01 1.5773211633540425e+01 
111 1 2 1.0279999923862777e+00 -2.5082947597680902e+02 1.0000000000000000e+00 1.2335102118695506e+01 1.4998598654942352e+01 1.5773879073287850e+01 
119 1 2 1.0279999922750949e+00 -4.3373849766776868e+02 1.0000000000000000e+00 1.2335527913681879e+01 1.4999092220463943e+01 1.5773804443230235e+01 
11 1 2 1.0279999923953962e+00 -3.8633116793700208e+02 1.0000000000000000e+00 1.2335111251258004e+01 1.4998426666772403e+01 1.5774233192632366e+01 
147 1 2 1.0279999923463830e+00 -2.7137957392130158e+02 1.0000000000000000e+00 1.2335304544313994e+01 1.4998627460480460e+01 1.5774244035971442e+01 
40 1 2 1.0279999923508985e+00 -3.8196165916684072e+02 1.0000000000000000e+00 1.2335307495449232e+01 1.4998547149881656e+01 1.5774406901434110e+01 
154 1 2 1.0279999922575367e+00 -3.0885225111174725e+02 1.0000000000000000e+00 1.2335661344032312e+01 1.4998972883001423e+01 1.5774314471333357e+01 
88 1 2 1.0279999922392071e+00 -2.8171851901921139e+02 1.0000000000000000e+00 1.2335748274790465e+01 1.4999004612946399e+01 1.5774434068493568e+01 
133 1 2 1.0279999921555896e+00 -4.3800358408375683e+02 1.0000000000000000e+00 1.2336071757647579e+01 1.4999365852964440e+01 1.5774405917341484e+01 
28 1 2 1.0279999922628396e+00 -4.8150742247479843e+02 1.0000000000000000e+00 1.2335660705425571e+01 1.4998890900233453e+01 1.5774473007104142e+01 
164 1 2 1.0279999921836573e+00 -5.2869792826633352e+02 1.0000000000000000e+00 1.2336022192349002e+01 1.4999068444952155e+01 1.5774882507057294e+01 
103 1 2 1.0279999921879670e+00 -4.1249197230054972e+02 1.0000000000000000e+00 1.2336029651069964e+01 1.4998977935285929e+01 1.5775075240216980e+01 
83 1 2 1.0279999921470691e+00 -3.3402050853358719e+02 1.0000000000000000e+00 1.2336180162889928e+01 1.4999177489304891e+01 1.5775000566296677e+01 
123 1 2 1.0279999921282104e+00 -3.2092634150433207e+02 1.0000000000000000e+00 1.2336299887192046e+01 1.4999119415966977e+01 1.5775365862021459e+01 
45 1 2 1.0279999920654754e+00 -3.6685010358184149e+02 1.0000000000000000e+00 1.2336540029436147e+01 1.4999398560786327e+01 1.5775324230555469e+01 
142 1 2 1.0279999921645804e+00 -4.3484827653036541e+02 1.0000000000000000e+00 1.2336194119012628e+01 1.4998858198954625e+01 1.5775656014070796e+01 
53 1 2 1.0279999921612855e+00 -4.1621796423574301e+02 1.0000000000000000e+00 1.2336216628867845e+01 1.4998843345322426e+01 1.5775732669188116e+01 
96 1 2 1.0279999921329583e+00 -3.1038203532847740e+02 1.0000000000000000e+00 1.2336370772561738e+01 1.4998832624896577e+01 1.5776079198241044e+01 
150 1 2 1.0279999920434073e+00 -5.1184214706188220e+02 1.0000000000000000e+00 1.2336761614762350e+01 1.4999087479337616e+01 1.5776404017865692e+01 
105 1 2 1.0279999919773890e+00 -4.2706807680539396e+02 1.0000000000000000e+00 1.2337133054032972e+01 1.4999026943853275e+01 1.5777314281284440e+01 
151 1 2 1.0280000339897102e+00 -6.0184566034013642e+02 1.0000000000000000e+00 1.0561248192343427e+01 1.6094014459729145e+01 1.5809010893511232e+01 
153 1 2 1.0279999794557531e+00 -3.9974739720592606e+02 1.0000000000000000e+00 9.4886812787752817e+00 1.7855574779845597e+01 1.7282811799622980e+01 
57 1 2 1.0279999709205947e+00 -3.4855711923808650e+02 1.0000000000000000e+00 9.5510919869052842e+00 1.7773795581660515e+01 1.7327771914760625e+01 
58 1 2 1.0279999692356951e+00 -3.5818251752490465e+02 1.0000000000000000e+00 9.5685063565367301e+00 1.7750735471080141e+01 1.7338951977169540e+01 
14 1 2 1.0279999693846003e+00 -3.6393261680391566e+02 1.0000000000000000e+00 9.5784382196006437e+00 1.7686572215350949e+01 1.7342601714201908e+01 
73 1 2 1.0279999686013461e+00 -4.2886923810820707e+02 1.0000000000000000e+00 9.5751243178594212e+00 1.7745425435731661e+01 1.7343141218091652e+01 
8 1 2 1.0279999685418615e+00 -4.2885132234207884e+02 1.0000000000000000e+00 9.5768548954705377e+00 1.7738871550838738e+01 1.7344100356080926e+01 
10 1 2 1.0279999688889705e+00 -3.7662812180783590e+02 1.0000000000000000e+00 9.5784186679446659e+00 1.7712134604946382e+01 1.7344136886982984e+01 
134 1 2 1.0279999687442507e+00 -4.4525213326874808e+02 1.0000000000000000e+00 9.5785402600184089e+00 1.7719073924576080e+01 1.7344532775057413e+01 
60 1 2 1.0279999686510328e+00 -4.5039766087003301e+02 1.0000000000000000e+00 9.5787627297005375e+00 1.7722765872966278e+01 1.7344828490949602e+01 
69 1 2 1.0279999686464822e+00 -5.5016843038154491e+02 1.0000000000000000e+00 9.5787458021384211e+00 1.7723095467901274e+01 1.7344829921593249e+01 
2 1 2 1.0279999685227443e+00 -5.4034399069325389e+02 1.0000000000000000e+00 9.5790157758943693e+00 1.7728091931367942e+01 1.7345184857601812e+01 
15 1 2 1.0279999685642369e+00 -3.9264523082575471e+02 1.0000000000000000e+00 9.5794695191083612e+00 1.7723503419522608e+01 1.7345321249157603e+01 
84 1 2 1.0279999685545691e+00 -3.2417211131121326e+02 1.0000000000000000e+00 9.5795605302408848e+00 1.7723520848130605e+01 1.7345381606347900e+01 
162 1 2 1.0279999687502741e+00 -5.9032769016927045e+02 1.0000000000000000e+00 9.5815175677611979e+00 1.7703466186205304e+01 1.7345786220349865e+01 
158 1 2 1.0279999685371473e+00 -4.6564174763781494e+02 1.0000000000000000e+00 9.5821059460856670e+00 1.7711282912279255e+01 1.7346560954384493e+01 
50 1 2 1.0279999683305190e+00 -3.0141834787469611e+02 1.0000000000000000e+00 9.5816867231498613e+00 1.7723891924438124e+01 1.7346781313105897e+01 
94 1 2 1.0279999680813203e+00 -3.1053923041841932e+02 1.0000000000000000e+00 9.5839095542310098e+00 1.7725163743063689e+01 1.7348253049556394e+01 
112 1 2 1.0279999680044607e+00 -2.5893214970856616e+02 1.0000000000000000e+00 9.5849122730115308e+00 1.7724014117029675e+01 1.7348859028573511e+01 
124 1 2 1.0279999677772993e+00 -3.9536976823592971e+02 1.0000000000000000e+00 9.5846244240735938e+00 1.7736611793042542e+01 1.7348981992069255e+01 
59 1 2 1.0280002171970484e+00 -4.0290040091096552e+02 1.0000000000000000e+00 9.3094170330592263e+00 1.9137624528288477e+01 1.6897938001709516e+01 
131 1 2 1.0280001406540387e+00 -3.4351304372350819e+02 1.0000000000000000e+00 9.3568571429292948e+00 1.9159516756533492e+01 1.6716371185940655e+01 
4 1 2 1.0280001684305091e+00 -3.8800438091975275e+02 1.0000000000000000e+00 9.2977192889223659e+00 1.9181465159639348e+01 1.6572494355112482e+01 

Velocities

175 1.0737752160164181e-01 -1.4134979337821707e-01 -3.3427317294016679e-01
167 1.0736827579084600e-01 -1.4132607875345132e-01 -3.3427921527378496e-01
87 1.0734855429233832e-01 -1.4132595301138234e-01 -3.3427244447770393e-01
82 1.0734855698681092e-01 -1.4132596355232366e-01 -3.3427244457232097e-01
3 1.0734860929042213e-01 -1.4132598663264243e-01 -3.3427247389019282e-01
21 1.0734861273209856e-01 -1.4132598130521620e-01 -3.3427247685048617e-01
178 1.0734865939863979e-01 -1.4132600111024796e-01 -3.3427250337094450e-01
64 1.0734870201229552e-01 -1.4132601292969860e-01 -3.3427252870922314e-01
74 1.0734877495408762e-01 -1.4132605827043732e-01 -3.3427256880946232e-01
176 1.0734880234684220e-01 -1.4132604821597572e-01 -3.3427258797698584e-01
166 1.0734880442347873e-01 -1.4132603988547268e-01 -3.3427259055434660e-01
129 1.0734884670193255e-01 -1.4132608725743348e-01 -3.3427261108774109e-01
68 1.0734885870531692e-01 -1.4132608196427421e-01 -3.3427261967911531e-01
78 1.0734889270757769e-01 -1.4132608662752877e-01 -3.3427264125259287e-01
37 1.0734889350207029e-01 -1.4132608046986270e-01 -3.3427264267309853e-01
107 1.0734892785772376e-01 -1.4132613858061491e-01 -3.3427265691672770e-01
117 1.0734894350854415e-01 -1.4132611336396270e-01 -3.3427267083273643e-01
55 1.0734896631651764e-01 -1.4132612329440558e-01 -3.3427268450237535e-01
126 1.0734900615135994e-01 -1.4132614639572363e-01 -3.3427270768624340e-01
98 1.0736022684983682e-01 -1.4133304109300956e-01 -3.3428295826027543e-01
77 1.0736033851268836e-01 -1.4133247805123891e-01 -3.3428308495038178e-01
161 1.0750628082274184e-01 -1.4132875121430000e-01 -3.3423452815389681e-01
121 1.0756969383670952e-01 -1.4127868391621518e-01 -3.3419883810917661e-01
149 1.0756986323325113e-01 -1.4127854392671305e-01 -3.3419889965817734e-01
35 1.0756994564177884e-01 -1.4127847498871024e-01 -3.3419893020712355e-01
65 1.0756996275697508e-01 -1.4127845738876985e-01 -3.3419893711098142e-01
180 1.0756997019103118e-01 -1.4127844902539691e-01 -3.3419894022790575e-01
24 1.0757002435454827e-01 -1.4127838074492066e-01 -3.3419896420044115e-01
145 1.0757003848672819e-01 -1.4127838816182570e-01 -3.3419896643719788e-01
97 1.0757006885867741e-01 -1.4127835403256053e-01 -3.3419897927744757e-01
43 1.0757009739477473e-01 -1.4127833472586121e-01 -3.3419898935684017e-01
42 1.0757016110613038e-01 -1.4127828252412730e-01 -3.3419901344185121e-01
19 1.0757018627485411e-01 -1.4127824088252544e-01 -3.3419902631462978e-01
23 1.0757028399624853e-01 -1.4127817296756107e-01 -3.3419906180339132e-01
26 1.0757034876828955e-01 -1.4127811311526847e-01 -3.3419908789075387e-01
174 1.0757035353751397e-01 -1.4127810885909078e-01 -3.3419908979569907e-01
33 1.0757062696606640e-01 -1.4127786193175634e-01 -3.3419920116806673e-01
29 1.0757062312854215e-01 -1.4127786815016372e-01 -3.3419919916310631e-01
93 1.0757079406146620e-01 -1.4127771199400577e-01 -3.3419927074615863e-01
17 1.0757088815399564e-01 -1.4127762871429569e-01 -3.3419931031154149e-01
113 1.0757224167942797e-01 -1.4127641407941652e-01 -3.3419992670635440e-01
110 1.0757284713758537e-01 -1.4127582504263625e-01 -3.3420023620293193e-01