LAMMPS data file via write_data, version 30 Jul 2016, timestep = 50400000

1520 atoms
8 atom types

0.0000000000000000e+00 4.0000000000000000e+01 xlo xhi
0.0000000000000000e+00 4.0000000000000000e+01 ylo yhi
0.0000000000000000e+00 1.0000000000000000e+02 zlo zhi

Masses

1 3.896
2 5.36
3 20.064
4 8.378
5 8.378
6 8.378
7 8.378
8 8.378

Atoms # meso-molecular

323 324 2 1.0280000000000027e+00 -3.5919494284288703e+02 1.0000000000000000e+00 1.7274367036533775e+01 5.3025201042301358e-02 5.2559064946559122e+00 
1369 1370 2 1.0280000000000029e+00 3.2691448349584907e+03 1.0000000000000000e+00 1.8735077407390854e+01 1.2988392524722865e+00 5.3130509904535916e+00 
1372 1373 2 1.0279999999999980e+00 3.2691434824264497e+03 1.0000000000000000e+00 1.9869467114529321e+01 1.2987362403019920e+00 5.3129723423888597e+00 
1238 1239 2 1.0279999999999982e+00 4.3517762557520837e+02 1.0000000000000000e+00 1.7662382028343462e+01 1.0826625650819539e+00 6.4538665566875197e+00 
803 804 2 1.0279999999999978e+00 -1.0722537058079702e+03 1.0000000000000000e+00 1.9230247911943859e+01 2.2983167127064021e+00 6.4768265527187889e+00 
802 803 2 1.0279999999999978e+00 -1.0722544920215885e+03 1.0000000000000000e+00 1.9374291493582568e+01 2.2982708994562651e+00 6.4767731057778546e+00 
1418 1419 2 1.0279999999999960e+00 -1.2215851831237062e+03 1.0000000000000000e+00 1.9018611998255327e+01 2.9293420276193611e+00 7.2521662054318483e+00 
1419 1420 2 1.0280000000000000e+00 -1.2215859347408659e+03 1.0000000000000000e+00 1.9585982228194986e+01 2.9293490631456018e+00 7.2521774551649694e+00 
194 195 2 1.0279999999999987e+00 8.3539206261298386e+03 1.0000000000000000e+00 1.7825102125999251e+01 2.8279855099962853e-01 7.4099950118285252e+00 
1271 1272 2 1.0280000000000000e+00 6.6119773459146945e+03 1.0000000000000000e+00 1.9565706232605162e+01 5.9605007129134879e-01 8.3037132930282418e+00 
1270 1271 2 1.0280000000000000e+00 6.6119800398490488e+03 1.0000000000000000e+00 1.9038819223959315e+01 5.9613762311071439e-01 8.3037165857368542e+00 
1122 1123 2 1.0279999999999987e+00 1.5991698036381963e+03 1.0000000000000000e+00 1.9481799240368069e+01 3.4136134436705090e+00 8.2513511509010922e+00 
1123 1124 2 1.0279999999999978e+00 1.5991699326568969e+03 1.0000000000000000e+00 1.9122807763130680e+01 3.4136264686520472e+00 8.2514578230431344e+00 
347 348 2 1.0279999999999989e+00 -3.9388215435508555e+03 1.0000000000000000e+00 1.9910693205305236e+01 2.2457966255132327e+00 9.1598656296244645e+00 
346 347 2 1.0280000000000002e+00 -3.9388207558836011e+03 1.0000000000000000e+00 1.8693944511505393e+01 2.2458935459994080e+00 9.1599666427140605e+00 
1281 1282 2 1.0279999999999982e+00 3.8029854454257074e+03 1.0000000000000000e+00 1.8557976981767169e+01 2.7776208496561376e+00 1.0292490626025405e+01 
481 482 2 1.0279999999999965e+00 -4.6027013891169918e+03 1.0000000000000000e+00 1.7944890218688780e+01 2.9922685303296386e+00 1.1740856430794308e+01 
1133 1134 2 1.0280000000000038e+00 -7.4019597403318244e+02 1.0000000000000000e+00 1.9586467157086020e+01 3.4958643170021872e+00 9.1617515631285524e+00 
1136 1137 2 1.0280000000000036e+00 -7.4019563086774042e+02 1.0000000000000000e+00 1.9018195282946873e+01 3.4959063911200579e+00 9.1620831165106100e+00 
926 927 2 1.0279999999999996e+00 -4.6300520810518424e+02 1.0000000000000000e+00 1.7882066615521282e+01 4.6322335136961508e+00 1.1495239692955883e+01 
692 693 2 1.0279999999999998e+00 -7.0446913075054799e+03 1.0000000000000000e+00 1.7857187493288709e+01 4.7529850107082243e+00 1.1675565877200109e+01 
28 29 2 1.0280000000000000e+00 1.0551792261529492e+03 1.0000000000000000e+00 1.7893070672971213e+01 4.9223364062112882e+00 1.1868164604935579e+01 
944 945 2 1.0280000000000029e+00 -5.8833091695678813e+03 1.0000000000000000e+00 1.6197359438976349e+01 6.3995560385669470e-01 1.4847415667194628e+01 
801 802 2 1.0280000000000016e+00 -3.4365698759105453e+03 1.0000000000000000e+00 1.6645167350390246e+01 1.6821563178644405e+00 1.5062275967789990e+01 
1383 1384 2 1.0280000000000045e+00 -6.5500064653980389e+03 1.0000000000000000e+00 1.6100148195406248e+01 6.3438844480743561e-01 1.5134513599145588e+01 
783 784 2 1.0280000000000016e+00 4.2335479128965717e+03 1.0000000000000000e+00 1.8390735560408753e+01 2.3911204102224475e+00 1.2155350596012850e+01 
30 31 2 1.0280000000000071e+00 -1.6374762368054285e+03 1.0000000000000000e+00 1.8188427740761856e+01 2.5800462479933559e+00 1.2267521781545547e+01 
798 799 2 1.0280000000000027e+00 2.5570372167760725e+03 1.0000000000000000e+00 1.7980250861009196e+01 3.2808606170235626e+00 1.3267925527596656e+01 
209 210 2 1.0280000000000007e+00 1.4247421146726483e+03 1.0000000000000000e+00 1.9544135074698627e+01 5.1501230654648633e-01 1.3377745670761238e+01 
212 213 2 1.0280000000000025e+00 1.4247419624951985e+03 1.0000000000000000e+00 1.9060325995820996e+01 5.1462872781591951e-01 1.3378045366314645e+01 
547 548 2 1.0280000000000018e+00 6.2734664525278887e+01 1.0000000000000000e+00 1.7883562422336567e+01 4.2120861156269979e-01 1.3555201593585021e+01 
238 239 2 1.0280000000000018e+00 6.2029330939829269e+03 1.0000000000000000e+00 1.6844464423619037e+01 1.0618046692879202e+00 1.4208934215080710e+01 
372 373 2 1.0280000000000020e+00 -9.6501960342079701e+02 1.0000000000000000e+00 1.7933272253145571e+01 5.0651881351122654e+00 1.2152865599787225e+01 
223 224 2 1.0279999999999978e+00 8.6668225301691564e+03 1.0000000000000000e+00 1.8049536263234366e+01 5.1946782707138137e+00 1.2562544338500885e+01 
170 171 2 1.0279999999999991e+00 2.6082611281485656e+03 1.0000000000000000e+00 1.8200556903830211e+01 5.2155796785845752e+00 1.3020481966883164e+01 
1137 1138 2 1.0279999999999978e+00 -2.0782707138373212e+03 1.0000000000000000e+00 1.8912114634616859e+01 5.0678644245960518e+00 1.4940589433041550e+01 
1140 1141 2 1.0279999999999985e+00 -2.0782708430415496e+03 1.0000000000000000e+00 1.9692332515613675e+01 5.0680407818535365e+00 1.4941008320936042e+01 
1402 1403 2 1.0279999999999980e+00 -4.4854027725122353e+02 1.0000000000000000e+00 1.6586060429671971e+01 1.7512243976211870e+00 1.5408209853732027e+01 
161 162 2 1.0279999999999978e+00 3.4686318328466280e+02 1.0000000000000000e+00 1.8480781280747710e+01 1.9696767003401638e+00 1.5196892258822954e+01 
197 198 2 1.0280000000000027e+00 -6.2882335475261607e+02 1.0000000000000000e+00 1.8129320739766829e+01 1.1007850314471959e+00 1.6022318688225759e+01 
510 511 2 1.0279999999999971e+00 4.0034546252285672e+03 1.0000000000000000e+00 1.6919976129933559e+01 1.7585825473199719e+00 1.6576397379651549e+01 
816 817 2 1.0280000000000027e+00 -4.6883286624476459e+03 1.0000000000000000e+00 1.7005464786608034e+01 1.5277424296729945e+00 1.6845818606793880e+01 
215 216 2 1.0280000000000009e+00 5.9207971161822134e+03 1.0000000000000000e+00 1.7282436657708388e+01 1.0973765730269540e+00 1.7274941440488554e+01 
1072 1073 2 1.0280000000000029e+00 -1.9815460005349400e+03 1.0000000000000000e+00 1.8322386312669604e+01 3.5132099134321484e+00 1.5363542348095331e+01 
137 138 2 1.0279999999999989e+00 4.9203982380112939e+03 1.0000000000000000e+00 1.8366543714568881e+01 5.2663163961760304e+00 1.5389904288384495e+01 
1081 1082 2 1.0279999999999969e+00 6.6738192549764699e+03 1.0000000000000000e+00 1.7556702511401951e+01 5.5774726215382149e+00 1.6123286272880708e+01 
10 11 2 1.0280000000000011e+00 -5.5209893316269099e+03 1.0000000000000000e+00 1.7093851977432411e+01 4.5895233677552643e+00 1.6397981151289645e+01 
695 696 2 1.0280000000000042e+00 -1.0141679740219558e+03 1.0000000000000000e+00 1.7465214870982795e+01 4.0380611002487532e+00 1.6878191386165877e+01 
1172 1173 2 1.0280000000000025e+00 -3.3854964922612635e+03 1.0000000000000000e+00 1.7746128396435985e+01 4.0676134945799776e+00 1.7080185787723945e+01 
949 950 2 1.0279999999999989e+00 -4.3600801105112259e+03 1.0000000000000000e+00 1.7079743842179273e+01 5.6408480948096971e+00 1.7090815705288268e+01 
169 170 2 1.0279999999999982e+00 6.4030588284001581e+01 1.0000000000000000e+00 1.7108044948132310e+01 5.6904272779122982e+00 1.7133582360348612e+01 
663 664 2 1.0279999999999965e+00 2.2230089108603379e+03 1.0000000000000000e+00 1.7084065055736954e+01 5.6579376272543369e+00 1.7185631326826368e+01 
72 73 2 1.0279999999999985e+00 6.6299198455438545e+03 1.0000000000000000e+00 1.7128445680778182e+01 5.6108320561996603e+00 1.7734616066666700e+01 
640 641 2 1.0279999999999976e+00 -6.5518678225144440e+03 1.0000000000000000e+00 1.3962015763110103e-01 3.5682299869497808e-01 1.8960888473710252e+01 
327 328 2 1.0279999999999967e+00 -2.5837629236849830e+02 1.0000000000000000e+00 8.2539842791794549e-02 5.4344908544316084e-01 1.9041930966980459e+01 
492 493 2 1.0280000000000002e+00 -4.1460961801348367e+03 1.0000000000000000e+00 1.3240668157350251e+01 7.2453230102306077e-01 2.0041172894576587e+01 
763 764 2 1.0279999999999994e+00 -4.4280107539536584e+03 1.0000000000000000e+00 1.3221097271338804e+01 7.7451123897189822e-01 2.0101030078020052e+01 
177 178 2 1.0279999999999965e+00 2.4370083122393471e+03 1.0000000000000000e+00 1.1556354745119908e+01 3.0609349770037703e-01 2.1150335671880796e+01 
335 336 2 1.0280000000000000e+00 -2.4700553713972968e+03 1.0000000000000000e+00 1.6191949508773085e+01 5.9128746571871127e-01 1.8192788331523516e+01 
329 330 2 1.0280000000000020e+00 -2.3968819274457919e+03 1.0000000000000000e+00 1.5992747174503625e+01 6.1450268545068332e-01 1.8855178626322065e+01 
480 481 2 1.0280000000000036e+00 -5.7456818769110232e+03 1.0000000000000000e+00 1.5407994116858092e+01 4.4022628725085622e-01 1.9052515266672554e+01 
1412 1413 2 1.0280000000000011e+00 2.4549661018701854e+03 1.0000000000000000e+00 1.3400569875032117e+01 1.6640329487764280e-01 1.9612213579302939e+01 
499 500 2 1.0280000000000007e+00 7.0494543167565769e+02 1.0000000000000000e+00 1.6479987382703040e+01 2.9323742281879350e-01 2.0613188241927574e+01 
54 55 2 1.0279999999999960e+00 2.5122976028097395e+02 1.0000000000000000e+00 1.4099525421412087e+01 1.3928600096927410e+00 2.0891415744952280e+01 
74 75 2 1.0280000000000034e+00 1.7480088266798880e+03 1.0000000000000000e+00 1.7850867234745536e+01 6.8086398906200651e-01 1.8763069713761247e+01 
66 67 2 1.0279999999999998e+00 7.3906747753917429e+01 1.0000000000000000e+00 1.8866734256110142e+01 6.5657110005132047e-01 1.9325894690603217e+01 
67 68 2 1.0280000000000042e+00 7.3905139924707129e+01 1.0000000000000000e+00 1.9737628798773102e+01 6.5653143568949712e-01 1.9325910724323300e+01 
1163 1164 2 1.0279999999999967e+00 -1.6503866994877114e+03 1.0000000000000000e+00 1.8119123782154915e+01 8.4641011919894671e-01 2.0651929985403154e+01 
788 789 2 1.0279999999999980e+00 -6.7476925055043303e+03 1.0000000000000000e+00 1.7559233147555116e+01 3.2823570485275559e+00 2.1014777684042297e+01 
984 985 2 1.0279999999999974e+00 -5.0553692181952974e+03 1.0000000000000000e+00 1.9278996532017590e+01 6.3708545468695403e+00 1.8483601932222189e+01 
981 982 2 1.0280000000000000e+00 -5.0553692846475096e+03 1.0000000000000000e+00 1.9325390104458442e+01 6.3708570580461794e+00 1.8483630587981729e+01 
1227 1228 2 1.0280000000000009e+00 -7.8891682778630502e+02 1.0000000000000000e+00 1.9296072958396500e+01 6.3796651227226073e+00 1.8532320619957812e+01 
1226 1227 2 1.0279999999999998e+00 -7.8891684227457222e+02 1.0000000000000000e+00 1.9308297032267358e+01 6.3796655080015654e+00 1.8532325854746759e+01 
1071 1072 2 1.0279999999999896e+00 -4.0183199673060017e+03 1.0000000000000000e+00 1.7686605686537565e+01 5.2362690985150113e+00 1.9592873390878207e+01 
1250 1251 2 1.0280000000000116e+00 7.4955424814235921e+03 1.0000000000000000e+00 1.7695421706101950e+01 5.1005468373214127e+00 1.9840957943504332e+01 
339 340 2 1.0279999999999929e+00 -2.2334630467310403e+03 1.0000000000000000e+00 1.7577848074362237e+01 4.6488931527111816e+00 2.0502308211833871e+01 
181 182 2 1.0279999999999998e+00 5.4103419662495457e+02 1.0000000000000000e+00 1.7631430810144995e+01 4.2058403945177139e+00 2.0610446515765020e+01 
68 69 2 1.0279999999999967e+00 3.8670520262411164e+03 1.0000000000000000e+00 1.8698232793925111e+01 3.5291162959011859e+00 2.0843707041186281e+01 
65 66 2 1.0279999999999994e+00 3.8670521068566877e+03 1.0000000000000000e+00 1.9906114280032298e+01 3.5289050933527966e+00 2.0843835700713981e+01 
183 184 2 1.0279999999999971e+00 3.4441998866850008e+03 1.0000000000000000e+00 1.7297726658867262e+01 4.2703654273727505e+00 2.0882881150840095e+01 
366 367 2 1.0279999999999985e+00 -1.0998555823848988e+03 1.0000000000000000e+00 1.7714194771674173e+01 9.9995489379720883e+00 1.9511864426751686e+01 
764 765 2 1.0279999999999969e+00 2.8930611724795926e+03 1.0000000000000000e+00 1.8516830654270681e+01 7.1552116071323688e+00 2.0529310082773218e+01 
1368 1369 2 1.0279999999999929e+00 1.3926161962474175e+03 1.0000000000000000e+00 1.8454514849109920e+01 8.4969268923784576e+00 2.1144822953883860e+01 
980 981 2 1.0279999999999987e+00 -4.5002045942907953e+03 1.0000000000000000e+00 1.9303098591673592e+01 8.7747143758558561e+00 2.1185001805948360e+01 
977 978 2 1.0279999999999958e+00 -4.5002044328161155e+03 1.0000000000000000e+00 1.9301217108865533e+01 8.7747146086722925e+00 2.1185003667426493e+01 
1268 1269 2 1.0279999999999947e+00 3.1522231470862544e+03 1.0000000000000000e+00 1.6493262252975565e+01 1.1463673687833499e+01 1.9994828890465627e+01 
1377 1378 2 1.0280000000000034e+00 4.4051811050178439e+03 1.0000000000000000e+00 1.7701249779076193e+01 1.0525726737096559e+01 1.9142211905519186e+01 
227 228 2 1.0279999999999980e+00 7.4364120587192119e+03 1.0000000000000000e+00 1.7650327158688782e+01 1.0288902947280908e+01 1.9243273407973394e+01 
32 33 2 1.0279999999999985e+00 -2.4028335348301712e+02 1.0000000000000000e+00 1.7640242674239573e+01 1.0262326369795250e+01 1.9259965431885174e+01 
970 971 2 1.0279999999999963e+00 6.3269258981098346e+02 1.0000000000000000e+00 1.7416421840132472e+01 1.1415218334631838e+01 1.9303661468984952e+01 
687 688 2 1.0279999999999978e+00 8.2074784266353299e+02 1.0000000000000000e+00 1.6711704419867146e+01 1.0541838885410410e+01 1.9497793240723404e+01 
20 21 2 1.0280000000000000e+00 2.6454858508954367e+03 1.0000000000000000e+00 1.7107387308910329e+01 1.1715990685822014e+01 1.9781786696373672e+01 
38 39 2 1.0280000000000007e+00 1.8197646838827332e+03 1.0000000000000000e+00 1.6800347034991596e+01 1.1758460770544573e+01 2.0414078571173839e+01 
1108 1109 2 1.0279999999999978e+00 3.5426532010694655e+03 1.0000000000000000e+00 1.6669175793822461e+01 1.1728102085861776e+01 2.0428056948212880e+01 
190 191 2 1.0280000000000005e+00 5.8336665343461682e+03 1.0000000000000000e+00 1.9174909391597128e-01 9.1333150677669273e-01 2.1519344531583133e+01 
775 776 2 1.0279999999999991e+00 1.6834810474141186e+03 1.0000000000000000e+00 7.5149519771545353e-02 3.2639873268781394e+00 2.1803739005146518e+01 
800 801 2 1.0279999999999991e+00 -4.9155567781410409e+03 1.0000000000000000e+00 1.0555496893591743e+00 2.2657074106600046e+00 2.2150077636812593e+01 
619 620 2 1.0280000000000040e+00 -1.8036499084875923e+03 1.0000000000000000e+00 1.1866040987668833e+00 2.1281951770591427e+00 2.2201373099616998e+01 
1224 1225 2 1.0279999999999978e+00 1.9311057344927435e+03 1.0000000000000000e+00 9.7225942198924231e-01 3.1439537130717161e+00 2.2484254628615066e+01 
1364 1365 2 1.0279999999999982e+00 1.9311058193257265e+03 1.0000000000000000e+00 9.7231549167237630e-01 3.1440616461513797e+00 2.3860403699015254e+01 
751 752 2 1.0280000000000022e+00 -1.8036495923038251e+03 1.0000000000000000e+00 1.1865813809863068e+00 2.1284382265206925e+00 2.4143401564108945e+01 
876 877 2 1.0280000000000011e+00 -4.9155563848547827e+03 1.0000000000000000e+00 1.0554863821475253e+00 2.2659210335394300e+00 2.4194723438724136e+01 
314 315 2 1.0280000000000091e+00 -2.8721244225591058e+03 1.0000000000000000e+00 1.1370019741681071e+01 1.7167486841797312e-03 2.1556608092016997e+01 
667 668 2 1.0279999999999978e+00 -4.9173262381036614e+02 1.0000000000000000e+00 1.3241388717650464e+01 1.2761132391591383e+00 2.2633366904286980e+01 
703 704 2 1.0279999999999971e+00 -4.9173253599152685e+02 1.0000000000000000e+00 1.3241467838361183e+01 1.2759698987087347e+00 2.3283035555978348e+01 
1088 1089 2 1.0279999999999916e+00 -1.0871640504521210e+03 1.0000000000000000e+00 1.5643705077763400e+01 1.5848295971995143e+00 2.1532246123932651e+01 
319 320 2 1.0279999999999971e+00 -3.2588717953969326e+03 1.0000000000000000e+00 1.5776000734678723e+01 2.9661717050459022e+00 2.1641332535541217e+01 
596 597 2 1.0279999999999985e+00 -8.4039706790555374e+02 1.0000000000000000e+00 1.4141535959725854e+01 3.0496632693706962e+00 2.1655991125524533e+01 
57 58 2 1.0279999999999982e+00 1.7074902308673657e+03 1.0000000000000000e+00 1.5341730623730543e+01 2.9859415920473626e+00 2.1656692713482027e+01 
715 716 2 1.0279999999999980e+00 2.5392325561616525e+02 1.0000000000000000e+00 1.3971107879478378e+01 3.0559495236755376e+00 2.1692995328314773e+01 
956 957 2 1.0280000000000036e+00 -2.0119860560215125e+03 1.0000000000000000e+00 1.5153404352193862e+01 1.3036840846687861e-01 2.2483273792484876e+01 
1024 1025 2 1.0280000000000036e+00 -2.0119859628805539e+03 1.0000000000000000e+00 1.5153021936712275e+01 1.3047346519743314e-01 2.3432888800846243e+01 
655 656 2 1.0279999999999980e+00 2.5392321120748369e+02 1.0000000000000000e+00 1.3970917240506648e+01 3.0559577098823145e+00 2.4224305592058982e+01 
523 524 2 1.0279999999999974e+00 1.7063400709214156e+03 1.0000000000000000e+00 1.9544175259615994e+01 4.1810940343225456e-01 2.1499275220649068e+01 
522 523 2 1.0279999999999998e+00 1.7063414901787771e+03 1.0000000000000000e+00 1.9060247600837716e+01 4.1807374241492451e-01 2.1499347678520596e+01 
848 849 2 1.0280000000000054e+00 -6.4938037049647010e+03 1.0000000000000000e+00 1.7068753154521136e+01 2.0186821756128013e+00 2.2698880577774815e+01 
64 65 2 1.0279999999999982e+00 2.7341090284021648e+03 1.0000000000000000e+00 1.8207361319987236e+01 2.7264318927401128e+00 2.2858139909545098e+01 
92 93 2 1.0279999999999971e+00 2.7341088012530663e+03 1.0000000000000000e+00 1.8207341430114703e+01 2.7264435297837712e+00 2.3057884156926985e+01 
828 829 2 1.0280000000000049e+00 -6.4938038338238875e+03 1.0000000000000000e+00 1.7068839783513980e+01 2.0185496659408613e+00 2.3216719227052028e+01 
617 618 2 1.0279999999999980e+00 2.4254249481085708e+03 1.0000000000000000e+00 3.3415915369664601e-01 3.4204987932759847e+00 2.1962588296101107e+01 
526 527 2 1.0279999999999994e+00 7.6435525431918290e+02 1.0000000000000000e+00 1.3094553947696053e+01 4.4803639030093709e+00 2.2153827360468014e+01 
382 383 2 1.0280000000000007e+00 -1.9865225451878814e+03 1.0000000000000000e+00 1.2796438993891769e+01 4.0266605107201983e+00 2.2522673256050179e+01 
1067 1068 2 1.0279999999999998e+00 -3.3761167022433156e+03 1.0000000000000000e+00 1.1261757146538105e+01 6.2754020657758502e+00 2.2763105482221111e+01 
458 459 2 1.0280000000000002e+00 -3.7016104145072427e+03 1.0000000000000000e+00 1.1253521381676167e+01 6.2586914180005593e+00 2.2783733077405902e+01 
375 376 2 1.0279999999999991e+00 -4.0415846576780073e+03 1.0000000000000000e+00 1.1272489686752852e+01 6.4639964919774799e+00 2.2895735245812471e+01 
387 388 2 1.0280000000000049e+00 -4.0415841223717057e+03 1.0000000000000000e+00 1.1272477987906598e+01 6.4639656765253468e+00 2.3021933319663223e+01 
606 607 2 1.0279999999999974e+00 -3.7016110885066519e+03 1.0000000000000000e+00 1.1253520496675826e+01 6.2586911221414532e+00 2.3133938172474455e+01 
1215 1216 2 1.0280000000000005e+00 -3.3761175124016318e+03 1.0000000000000000e+00 1.1261755517742685e+01 6.2754009580327903e+00 2.3154564561297505e+01 
378 379 2 1.0279999999999978e+00 -1.9865228211570738e+03 1.0000000000000000e+00 1.2796311316592410e+01 4.0266229525540673e+00 2.3394667695693517e+01 
538 539 2 1.0280000000000007e+00 7.6435524460324086e+02 1.0000000000000000e+00 1.3094342962669121e+01 4.4803008179068433e+00 2.3763715804379956e+01 
852 853 2 1.0279999999999987e+00 -5.9984720851549773e+03 1.0000000000000000e+00 1.3548003227588419e+01 4.2672340822222123e+00 2.2022224969659160e+01 
236 237 2 1.0279999999999989e+00 -1.5822946831341396e+03 1.0000000000000000e+00 1.5296367531459037e+01 6.3521863153844480e+00 2.2358934475221329e+01 
865 866 2 1.0279999999999976e+00 -1.8987502239450635e+02 1.0000000000000000e+00 1.5264844040191640e+01 6.1645687567927316e+00 2.2365037796624158e+01 
805 806 2 1.0279999999999967e+00 -1.8987496057364763e+02 1.0000000000000000e+00 1.5264868200525607e+01 6.1643073722561432e+00 2.3553558141963791e+01 
224 225 2 1.0280000000000002e+00 -1.5822940511509742e+03 1.0000000000000000e+00 1.5296357105212342e+01 6.3520804065823766e+00 2.3559642666884244e+01 
824 825 2 1.0279999999999958e+00 -5.9984714483739572e+03 1.0000000000000000e+00 1.3547781798648261e+01 4.2671618664225281e+00 2.3895366772320944e+01 
688 689 2 1.0280000000000014e+00 -7.0582192532627441e+03 1.0000000000000000e+00 1.8908240056934126e+01 6.2534624711943243e+00 2.2018144604052459e+01 
685 686 2 1.0280000000000036e+00 -7.0582190103053454e+03 1.0000000000000000e+00 1.9696067098946326e+01 6.2535528758396151e+00 2.2018265739036952e+01 
229 230 2 1.0280000000000020e+00 -8.4030818845734052e+02 1.0000000000000000e+00 1.7121677432449907e+01 5.0714220150365614e+00 2.2778135737003304e+01 
225 226 2 1.0280000000000018e+00 -8.4030857656952833e+02 1.0000000000000000e+00 1.7121972118375620e+01 5.0723898693048151e+00 2.3144560798722825e+01 
684 685 2 1.0280000000000036e+00 -7.0582190246124146e+03 1.0000000000000000e+00 1.8908313651207813e+01 6.2537283967150517e+00 2.3899965439228922e+01 
681 682 2 1.0280000000000031e+00 -7.0582187952119621e+03 1.0000000000000000e+00 1.9696106824577669e+01 6.2536350142848613e+00 2.3900092606822501e+01 
281 282 2 1.0279999999999987e+00 6.8477286768596673e+02 1.0000000000000000e+00 1.2407235759956103e+01 7.1610300683086923e+00 2.2861666509846373e+01 
173 174 2 1.0280000000000062e+00 6.8477305932110494e+02 1.0000000000000000e+00 1.2407207618289437e+01 7.1610380558864559e+00 2.3056044043923759e+01 
1077 1078 2 1.0280000000000029e+00 7.5272817277031845e+03 1.0000000000000000e+00 1.5257715141540718e+01 6.7143909417536802e+00 2.2338317372590254e+01 
1305 1306 2 1.0279999999999978e+00 8.9878076262063610e+02 1.0000000000000000e+00 1.4000251783548444e+01 7.7176683296313620e+00 2.2932767034017079e+01 
1277 1278 2 1.0279999999999994e+00 8.9878115925726979e+02 1.0000000000000000e+00 1.4000226115278268e+01 7.7176896658737997e+00 2.2985069688642547e+01 
1201 1202 2 1.0280000000000018e+00 7.5272817469808369e+03 1.0000000000000000e+00 1.5257638608217395e+01 6.7145204541518124e+00 2.3580197607924656e+01 
604 605 2 1.0279999999999969e+00 -4.0824592581078532e+03 1.0000000000000000e+00 1.7774109350905796e+01 7.4387976985993092e+00 2.1592251952342551e+01 
1499 1500 2 1.0279999999999998e+00 2.9403697160763431e+03 1.0000000000000000e+00 1.7184884802094381e+01 8.5416318059226235e+00 2.2696295786997847e+01 
1514 1515 2 1.0280000000000025e+00 5.3923855227744434e+02 1.0000000000000000e+00 1.7154543296963553e+01 8.5573835721136629e+00 2.2750622433160370e+01 
1374 1375 2 1.0280000000000027e+00 5.3923910769315637e+02 1.0000000000000000e+00 1.7154592728792984e+01 8.5572739053818818e+00 2.3167444484588632e+01 
1391 1392 2 1.0280000000000002e+00 2.9403707020086090e+03 1.0000000000000000e+00 1.7184918513975237e+01 8.5415131264497379e+00 2.3221726271875866e+01 
691 692 2 1.0280000000000020e+00 2.4379361094370288e+03 1.0000000000000000e+00 1.5518464088315845e+01 1.2596549769624222e+01 2.2853262333663402e+01 
986 987 2 1.0279999999999980e+00 8.1760482903880461e+02 1.0000000000000000e+00 1.5848088457875779e+01 1.2654020903482609e+01 2.2934838413386625e+01 
621 622 2 1.0279999999999982e+00 -2.4259574172583862e+03 1.0000000000000000e+00 1.4554535522553794e+01 1.0020604585783786e+01 2.2943502038959132e+01 
608 609 2 1.0279999999999936e+00 6.8061157809002987e+02 1.0000000000000000e+00 1.5828929431057203e+01 1.2654825473214451e+01 2.2956468482867880e+01 
973 974 2 1.0280000000000049e+00 -5.5579045397020327e+03 1.0000000000000000e+00 1.4549081132313855e+01 1.0060506429599029e+01 2.2957110882435554e+01 
536 537 2 1.0280000000000005e+00 -6.5824010594560277e+03 1.0000000000000000e+00 1.4547716716769051e+01 1.0070923571706027e+01 2.2957341309764580e+01 
532 533 2 1.0280000000000014e+00 -6.5824010311547863e+03 1.0000000000000000e+00 1.4547716927074495e+01 1.0070924134610090e+01 2.2961226938459021e+01 
1001 1002 2 1.0280000000000009e+00 -5.5579051136091639e+03 1.0000000000000000e+00 1.4549081497736108e+01 1.0060506116246067e+01 2.2961456562457936e+01 
460 461 2 1.0279999999999980e+00 6.8061123643192320e+02 1.0000000000000000e+00 1.5828929182675475e+01 1.2654825756981008e+01 2.2962266973328251e+01 
745 746 2 1.0280000000000020e+00 -2.4259577611542909e+03 1.0000000000000000e+00 1.4554537959564955e+01 1.0020605342259898e+01 2.2975061801707973e+01 
990 991 2 1.0279999999999989e+00 8.1760546960224747e+02 1.0000000000000000e+00 1.5848083996151443e+01 1.2654023647279748e+01 2.2983885495051414e+01 
679 680 2 1.0280000000000029e+00 2.4379358914257464e+03 1.0000000000000000e+00 1.5518436296967495e+01 1.2596546610108582e+01 2.3065506750384049e+01 
129 130 2 1.0280000000000105e+00 3.8022111543281051e+02 1.0000000000000000e+00 1.6741169889532948e+01 1.1276691021904147e+01 2.1758553656959705e+01 
21 22 2 1.0280000000000125e+00 3.8022151618811353e+02 1.0000000000000000e+00 1.6741034644273270e+01 1.1276783356540452e+01 2.4160386543854891e+01 
899 900 2 1.0279999999999978e+00 1.6834810691993241e+03 1.0000000000000000e+00 7.5080849147156750e-02 3.2639793152645602e+00 2.4541034177314206e+01 
266 267 2 1.0280000000000016e+00 5.8336634024081104e+03 1.0000000000000000e+00 1.9366659824228263e-01 9.1328572167773103e-01 2.4824812457143274e+01 
446 447 2 1.0279999999999978e+00 -2.8721251560702640e+03 1.0000000000000000e+00 1.1370281961644551e+01 1.8280758416552841e-03 2.4360276639303940e+01 
277 278 2 1.0280000000000031e+00 2.4370074270493678e+03 1.0000000000000000e+00 1.1556628347416826e+01 3.0615665575779855e-01 2.4766519318423157e+01 
911 912 2 1.0280000000000051e+00 -4.4280116217863724e+03 1.0000000000000000e+00 1.3221202611047220e+01 7.7466205184842007e-01 2.5815853901451675e+01 
576 577 2 1.0280000000000031e+00 -4.1460970398022746e+03 1.0000000000000000e+00 1.3240805789059731e+01 7.2468223643712559e-01 2.5875724867628424e+01 
93 94 2 1.0279999999999996e+00 1.7074901368481599e+03 1.0000000000000000e+00 1.5341825842407188e+01 2.9858365767643797e+00 2.4260655797160446e+01 
472 473 2 1.0279999999999980e+00 -8.4039676469534913e+02 1.0000000000000000e+00 1.4141396579816908e+01 3.0496769043221139e+00 2.4261329302449504e+01 
443 444 2 1.0279999999999991e+00 -3.2588719620066495e+03 1.0000000000000000e+00 1.5776138372957540e+01 2.9660013251086736e+00 2.4276021742076455e+01 
1196 1197 2 1.0279999999999936e+00 -1.0871643130911966e+03 1.0000000000000000e+00 1.5644145351967765e+01 1.5852146510608400e+00 2.4385036890207100e+01 
98 99 2 1.0279999999999971e+00 2.5122975034091530e+02 1.0000000000000000e+00 1.4099242463795802e+01 1.3931491410362087e+00 2.5025577198217359e+01 
567 568 2 1.0280000000000007e+00 7.0494474995598057e+02 1.0000000000000000e+00 1.6479808883149591e+01 2.9350316557247574e-01 2.5301847930868767e+01 
1480 1481 2 1.0280000000000025e+00 2.4549650147697457e+03 1.0000000000000000e+00 1.3400826791782128e+01 1.6647759101642351e-01 2.6304763255476534e+01 
588 589 2 1.0280000000000056e+00 -5.7456820948801233e+03 1.0000000000000000e+00 1.5408094705966443e+01 4.4039302437182615e-01 2.6863647759192673e+01 
429 430 2 1.0280000000000045e+00 -2.3968821177219652e+03 1.0000000000000000e+00 1.5992870820072593e+01 6.1474220070548180e-01 2.7059907934640293e+01 
542 543 2 1.0280000000000016e+00 1.7063454910130106e+03 1.0000000000000000e+00 1.9059333061909211e+01 4.2030622891046365e-01 2.4418624120226465e+01 
543 544 2 1.0280000000000000e+00 1.7063446203712751e+03 1.0000000000000000e+00 1.9545069256470722e+01 4.2045114282475532e-01 2.4418639864100996e+01 
888 889 2 1.0280000000000007e+00 -6.7476932226292356e+03 1.0000000000000000e+00 1.7559218943304774e+01 3.2821538073148084e+00 2.4903076275115659e+01 
1119 1120 2 1.0279999999999996e+00 -1.6503883133346385e+03 1.0000000000000000e+00 1.8119201621666221e+01 8.4580932291213984e-01 2.5262370793311895e+01 
87 88 2 1.0280000000000018e+00 7.3916469544701130e+01 1.0000000000000000e+00 1.9737451194048877e+01 6.5704452289143189e-01 2.6592998542947026e+01 
86 87 2 1.0280000000000034e+00 7.3915785379373730e+01 1.0000000000000000e+00 1.8866864487996441e+01 6.5677898922510758e-01 2.6593542921362392e+01 
78 79 2 1.0280000000000067e+00 1.7480070187849019e+03 1.0000000000000000e+00 1.7852358184332434e+01 6.8280407998522685e-01 2.7152193199822801e+01 
749 750 2 1.0280000000000007e+00 2.4254249242554215e+03 1.0000000000000000e+00 3.3412907425681510e-01 3.4205615935747535e+00 2.4382173674607120e+01 
275 276 2 1.0279999999999982e+00 3.4441994549179744e+03 1.0000000000000000e+00 1.7297876671979736e+01 4.2698558513168647e+00 2.5035927573463315e+01 
85 86 2 1.0279999999999989e+00 3.8670548474670504e+03 1.0000000000000000e+00 1.9905492051276905e+01 3.5287670534075644e+00 2.5073468074534254e+01 
88 89 2 1.0279999999999980e+00 3.8670548948328433e+03 1.0000000000000000e+00 1.8698949022124356e+01 3.5289132042203870e+00 2.5073614301697443e+01 
273 274 2 1.0279999999999989e+00 5.4103731566491444e+02 1.0000000000000000e+00 1.7631624065474519e+01 4.2050687764697585e+00 2.5307869208584890e+01 
423 424 2 1.0279999999999943e+00 -2.2334620655914291e+03 1.0000000000000000e+00 1.7577653163717027e+01 4.6482645236999556e+00 2.5416181141107597e+01 
1334 1335 2 1.0280000000000105e+00 7.4955422906851190e+03 1.0000000000000000e+00 1.7695509189343049e+01 5.1001530231157322e+00 2.6078609128912952e+01 
1211 1212 2 1.0279999999999885e+00 -4.0183196390581279e+03 1.0000000000000000e+00 1.7686630717732069e+01 5.2357687165531885e+00 2.6326401394900632e+01 