LAMMPS data file via write_data, version 30 Jul 2016, timestep = 50000000

1520 atoms
8 atom types

0.0000000000000000e+00 4.0000000000000000e+01 xlo xhi
0.0000000000000000e+00 4.0000000000000000e+01 ylo yhi
0.0000000000000000e+00 1.0000000000000000e+02 zlo zhi

Masses

1 3.896
2 5.36
3 20.064
4 8.378
5 8.378
6 8.378
7 8.378
8 8.378

Atoms # meso-molecular

323 324 2 1.0280000000000027e+00 -3.5919494284288703e+02 1.0000000000000000e+00 1.7274349362493766e+01 5.3870264144700968e-02 7.2266289149642766e+00 
1369 1370 2 1.0280000000000027e+00 3.2691448349584907e+03 1.0000000000000000e+00 1.8735059733350845e+01 1.2996843153953013e+00 7.2837734106583767e+00 
1372 1373 2 1.0280000000000034e+00 3.2691434824264497e+03 1.0000000000000000e+00 1.9869449440489312e+01 1.2995813032474079e+00 7.2836947626039334e+00 
1238 1239 2 1.0279999999999998e+00 4.3517762557520837e+02 1.0000000000000000e+00 1.7662364354303453e+01 1.0835076279556688e+00 8.4245889767368975e+00 
803 804 2 1.0279999999999994e+00 -1.0722537058079702e+03 1.0000000000000000e+00 1.9230230237903850e+01 2.2991617756430984e+00 8.4475489726733208e+00 
802 803 2 1.0279999999999969e+00 -1.0722544920215885e+03 1.0000000000000000e+00 1.9374273819542559e+01 2.2991159623961348e+00 8.4474955257334301e+00 
1418 1419 2 1.0279999999999978e+00 -1.2215851831237062e+03 1.0000000000000000e+00 1.9018594324215318e+01 2.9301870905430700e+00 9.2228886253989550e+00 
1419 1420 2 1.0279999999999989e+00 -1.2215859347408659e+03 1.0000000000000000e+00 1.9585964554154977e+01 2.9301941260755440e+00 9.2228998751314073e+00 
194 195 2 1.0279999999999989e+00 8.3539206261298386e+03 1.0000000000000000e+00 1.7825084451959242e+01 2.8364361401918964e-01 9.3807174318650599e+00 
1271 1272 2 1.0279999999999991e+00 6.6119773459146945e+03 1.0000000000000000e+00 1.9565688558565153e+01 5.9689513419988760e-01 1.0274435712985975e+01 
1270 1271 2 1.0279999999999989e+00 6.6119800398490488e+03 1.0000000000000000e+00 1.9038801549919306e+01 5.9698268601925319e-01 1.0274439005696292e+01 
347 348 2 1.0279999999999978e+00 -3.9388215435508555e+03 1.0000000000000000e+00 1.9910675531265227e+01 2.2466416883773626e+00 1.1130588049666985e+01 
346 347 2 1.0280000000000000e+00 -3.9388207558836011e+03 1.0000000000000000e+00 1.8693926837465384e+01 2.2467386088635379e+00 1.1130689062747241e+01 
1122 1123 2 1.0279999999999996e+00 1.5991698036381963e+03 1.0000000000000000e+00 1.9481781566328060e+01 3.4144585065392188e+00 1.0222073570924474e+01 
1123 1124 2 1.0279999999999998e+00 1.5991699326568969e+03 1.0000000000000000e+00 1.9122790089090671e+01 3.4144715315192640e+00 1.0222180243068852e+01 
1133 1134 2 1.0280000000000036e+00 -7.4019597403318244e+02 1.0000000000000000e+00 1.9586449483046010e+01 3.4967093798635993e+00 1.1132473983167845e+01 
1136 1137 2 1.0280000000000025e+00 -7.4019563086774042e+02 1.0000000000000000e+00 1.9018177608906864e+01 3.4967514539816023e+00 1.1132805536555633e+01 
1281 1282 2 1.0279999999999987e+00 3.8029854454257074e+03 1.0000000000000000e+00 1.8557959307727160e+01 2.7784659123426318e+00 1.2263213046048042e+01 
481 482 2 1.0279999999999958e+00 -4.6027013891169918e+03 1.0000000000000000e+00 1.7944872544648771e+01 2.9931135930075556e+00 1.3711578850813067e+01 
783 784 2 1.0280000000000016e+00 4.2335479128965717e+03 1.0000000000000000e+00 1.8390717886368744e+01 2.3919654729089417e+00 1.4126073016089556e+01 
30 31 2 1.0280000000000056e+00 -1.6374762368054285e+03 1.0000000000000000e+00 1.8188410066721847e+01 2.5808913106810016e+00 1.4238244201618345e+01 
926 927 2 1.0279999999999994e+00 -4.6300520810518424e+02 1.0000000000000000e+00 1.7882048941481273e+01 4.6330785763826450e+00 1.3465962112905313e+01 
692 693 2 1.0280000000000000e+00 -7.0446913075054799e+03 1.0000000000000000e+00 1.7857169819248700e+01 4.7538300733947185e+00 1.3646288297158597e+01 
28 29 2 1.0280000000000007e+00 1.0551792261529492e+03 1.0000000000000000e+00 1.7893052998931203e+01 4.9231814688977824e+00 1.3838887024903345e+01 
372 373 2 1.0280000000000020e+00 -9.6501960342079701e+02 1.0000000000000000e+00 1.7933254579105562e+01 5.0660331977987596e+00 1.4123588019767130e+01 
223 224 2 1.0279999999999980e+00 8.6668225301691564e+03 1.0000000000000000e+00 1.8049518589194356e+01 5.1955233334003230e+00 1.4533266758485178e+01 
170 171 2 1.0279999999999991e+00 2.6082611281485656e+03 1.0000000000000000e+00 1.8200539229790202e+01 5.2164247412710694e+00 1.4991204386884913e+01 
944 945 2 1.0280000000000038e+00 -5.8833091695678813e+03 1.0000000000000000e+00 1.6197341764936340e+01 6.4080066658759782e-01 1.6818138087320449e+01 
801 802 2 1.0279999999999998e+00 -3.4365698759105453e+03 1.0000000000000000e+00 1.6645149676350236e+01 1.6830013805502082e+00 1.7032998387812235e+01 
1383 1384 2 1.0280000000000045e+00 -6.5500064653980389e+03 1.0000000000000000e+00 1.6100130521366239e+01 6.3523350749661800e-01 1.7105236019250793e+01 
1402 1403 2 1.0279999999999985e+00 -4.4854027725122353e+02 1.0000000000000000e+00 1.6586042755631961e+01 1.7520694603262985e+00 1.7378932273747846e+01 
798 799 2 1.0279999999999996e+00 2.5570372167760725e+03 1.0000000000000000e+00 1.7980233186969187e+01 3.2817056797100568e+00 1.5238647947573240e+01 
209 210 2 1.0280000000000020e+00 1.4247421146726483e+03 1.0000000000000000e+00 1.9544117400658617e+01 5.1585736927738945e-01 1.5348468090820424e+01 
212 213 2 1.0280000000000027e+00 1.4247419624951985e+03 1.0000000000000000e+00 1.9060308321780987e+01 5.1547379050606779e-01 1.5348767786380840e+01 
547 548 2 1.0280000000000027e+00 6.2734664525278887e+01 1.0000000000000000e+00 1.7883544748296558e+01 4.2205367429619334e-01 1.5525924013662896e+01 
238 239 2 1.0280000000000005e+00 6.2029330939829269e+03 1.0000000000000000e+00 1.6844446749579028e+01 1.0626497319744144e+00 1.6179656635151542e+01 
161 162 2 1.0279999999999943e+00 3.4686318328466280e+02 1.0000000000000000e+00 1.8480763606707701e+01 1.9705217630266580e+00 1.7167614678855120e+01 
197 198 2 1.0280000000000018e+00 -6.2882335475261607e+02 1.0000000000000000e+00 1.8129303065726820e+01 1.1016300942225079e+00 1.7993041108247322e+01 
1137 1138 2 1.0279999999999963e+00 -2.0782707138373212e+03 1.0000000000000000e+00 1.8912096960576850e+01 5.0687094873557674e+00 1.6911311853009387e+01 
1140 1141 2 1.0279999999999980e+00 -2.0782708430415496e+03 1.0000000000000000e+00 1.9692314841573666e+01 5.0688858446284266e+00 1.6911730740912123e+01 
1072 1073 2 1.0280000000000005e+00 -1.9815460005349400e+03 1.0000000000000000e+00 1.8322368638629595e+01 3.5140549761873578e+00 1.7334264768123131e+01 
137 138 2 1.0279999999999994e+00 4.9203982380112939e+03 1.0000000000000000e+00 1.8366526040528871e+01 5.2671614589250275e+00 1.7360626708348768e+01 
1081 1082 2 1.0280000000000002e+00 6.6738192549764699e+03 1.0000000000000000e+00 1.7556684837361942e+01 5.5783176842376943e+00 1.8094008692820314e+01 
640 641 2 1.0279999999999960e+00 -6.5518678225144440e+03 1.0000000000000000e+00 1.3961989882592504e-01 3.5679728275690109e-01 2.0929903677451847e+01 
327 328 2 1.0279999999999967e+00 -2.5837629236849830e+02 1.0000000000000000e+00 8.2539583956032406e-02 5.4342336956459725e-01 2.1010946170751225e+01 
335 336 2 1.0279999999999982e+00 -2.4700553713972968e+03 1.0000000000000000e+00 1.6191931834733076e+01 5.9213252849429432e-01 2.0163510751587324e+01 
329 330 2 1.0280000000000002e+00 -2.3968819274457919e+03 1.0000000000000000e+00 1.5992729500463616e+01 6.1534774822233607e-01 2.0825901046326102e+01 
480 481 2 1.0280000000000009e+00 -5.7456818769110232e+03 1.0000000000000000e+00 1.5407976442818082e+01 4.4107135001694997e-01 2.1023237686689271e+01 
510 511 2 1.0279999999999951e+00 4.0034546252285672e+03 1.0000000000000000e+00 1.6919958455893550e+01 1.7594276100525184e+00 1.8547119799748945e+01 
816 817 2 1.0279999999999963e+00 -4.6883286624476459e+03 1.0000000000000000e+00 1.7005447112568024e+01 1.5285874924012428e+00 1.8816541026896711e+01 
215 216 2 1.0280000000000038e+00 5.9207971161822134e+03 1.0000000000000000e+00 1.7282418983668379e+01 1.0982216357802859e+00 1.9245663860566964e+01 
74 75 2 1.0280000000000016e+00 1.7480088266798880e+03 1.0000000000000000e+00 1.7850849560705527e+01 6.8170905185486985e-01 2.0733792133804641e+01 
10 11 2 1.0279999999999998e+00 -5.5209893316269099e+03 1.0000000000000000e+00 1.7093834303392402e+01 4.5903684304417585e+00 1.8368703571282037e+01 
695 696 2 1.0280000000000016e+00 -1.0141679740219558e+03 1.0000000000000000e+00 1.7465197196942785e+01 4.0389061629498189e+00 1.8848913806140345e+01 
1172 1173 2 1.0280000000000038e+00 -3.3854964922612635e+03 1.0000000000000000e+00 1.7746110722395976e+01 4.0684585572847549e+00 1.9050908207686152e+01 
949 950 2 1.0279999999999985e+00 -4.3600801105112259e+03 1.0000000000000000e+00 1.7079726168139263e+01 5.6416931575226412e+00 1.9061538125252376e+01 
169 170 2 1.0279999999999989e+00 6.4030588284001581e+01 1.0000000000000000e+00 1.7108027274092301e+01 5.6912723406279806e+00 1.9104304780316891e+01 
663 664 2 1.0279999999999974e+00 2.2230089108603379e+03 1.0000000000000000e+00 1.7084047381696944e+01 5.6587826899695761e+00 1.9156353746798427e+01 
72 73 2 1.0279999999999969e+00 6.6299198455438545e+03 1.0000000000000000e+00 1.7128428006738172e+01 5.6116771189008228e+00 1.9705338486675398e+01 
984 985 2 1.0280000000000018e+00 -5.0553692181952974e+03 1.0000000000000000e+00 1.9278978857977581e+01 6.3716996096676821e+00 2.0454324352161894e+01 
981 982 2 1.0280000000000009e+00 -5.0553692846475096e+03 1.0000000000000000e+00 1.9325372430418433e+01 6.3717021208451357e+00 2.0454353007921146e+01 
1227 1228 2 1.0280000000000038e+00 -7.8891682778630502e+02 1.0000000000000000e+00 1.9296055284356491e+01 6.3805101855236988e+00 2.0503043039896021e+01 
1226 1227 2 1.0279999999999978e+00 -7.8891684227457222e+02 1.0000000000000000e+00 1.9308279358227349e+01 6.3805105708028877e+00 2.0503048274684897e+01 
1377 1378 2 1.0280000000000062e+00 4.4051811050178439e+03 1.0000000000000000e+00 1.7701232105036183e+01 1.0526571800011750e+01 2.1112934325541787e+01 
190 191 2 1.0280000000000018e+00 5.8336665343461682e+03 1.0000000000000000e+00 1.9174883500994605e-01 9.1330579081400010e-01 2.3488359735576221e+01 
775 776 2 1.0279999999999963e+00 1.6834810474141186e+03 1.0000000000000000e+00 7.5149260879473462e-02 3.2639616109154468e+00 2.3772754209007140e+01 
800 801 2 1.0280000000000022e+00 -4.9155567781410409e+03 1.0000000000000000e+00 1.0555494305098967e+00 2.2656816946973120e+00 2.4119092840809749e+01 
619 620 2 1.0280000000000002e+00 -1.8036499084875923e+03 1.0000000000000000e+00 1.1866038399054499e+00 2.1281694610964501e+00 2.4170388303625806e+01 
492 493 2 1.0280000000000002e+00 -4.1460961801348367e+03 1.0000000000000000e+00 1.3240650483310242e+01 7.2537736383720564e-01 2.2011895314575572e+01 
763 764 2 1.0280000000000002e+00 -4.4280107539536584e+03 1.0000000000000000e+00 1.3221079597298795e+01 7.7535630177864945e-01 2.2071752498010127e+01 
177 178 2 1.0280000000000049e+00 2.4370083122393471e+03 1.0000000000000000e+00 1.1556337071123133e+01 3.0693856054252627e-01 2.3121058091832143e+01 
314 315 2 1.0280000000000016e+00 -2.8721244225591058e+03 1.0000000000000000e+00 1.1370002067688391e+01 2.5618116117068312e-03 2.3527330511921821e+01 
1412 1413 2 1.0280000000000014e+00 2.4549661018701854e+03 1.0000000000000000e+00 1.3400552200992108e+01 1.6724835778446340e-01 2.1582935999336534e+01 
499 500 2 1.0280000000000007e+00 7.0494543167565769e+02 1.0000000000000000e+00 1.6479969708663031e+01 2.9408248567084400e-01 2.2583910661919479e+01 
54 55 2 1.0279999999999996e+00 2.5122976028097395e+02 1.0000000000000000e+00 1.4099507747372078e+01 1.3937050724684372e+00 2.2862138164867684e+01 
1088 1089 2 1.0279999999999931e+00 -1.0871640504521210e+03 1.0000000000000000e+00 1.5643687403723391e+01 1.5856746598860085e+00 2.3502968543863755e+01 
319 320 2 1.0279999999999978e+00 -3.2588717953969326e+03 1.0000000000000000e+00 1.5775983060638714e+01 2.9670167679100321e+00 2.3612054955500817e+01 
596 597 2 1.0279999999999978e+00 -8.4039706790555374e+02 1.0000000000000000e+00 1.4141518285685844e+01 3.0505083322348261e+00 2.3626713545442410e+01 
57 58 2 1.0279999999999978e+00 1.7074902308673657e+03 1.0000000000000000e+00 1.5341712949690534e+01 2.9867866549114925e+00 2.3627415133430333e+01 
715 716 2 1.0279999999999991e+00 2.5392325561616525e+02 1.0000000000000000e+00 1.3971090205438369e+01 3.0567945865396675e+00 2.3663717748228343e+01 
66 67 2 1.0279999999999985e+00 7.3906747753917429e+01 1.0000000000000000e+00 1.8866716582070133e+01 6.5741616287252136e-01 2.1296617110644455e+01 
67 68 2 1.0279999999999987e+00 7.3905139924707129e+01 1.0000000000000000e+00 1.9737611124733093e+01 6.5737649852231927e-01 2.1296633144368268e+01 
1163 1164 2 1.0279999999999989e+00 -1.6503866994877114e+03 1.0000000000000000e+00 1.8119106108114906e+01 8.4725518198439276e-01 2.2622652405345420e+01 
788 789 2 1.0279999999999985e+00 -6.7476925055043303e+03 1.0000000000000000e+00 1.7559215473515106e+01 3.2832021113916858e+00 2.2985500103976744e+01 
523 524 2 1.0279999999999976e+00 1.7063400709214156e+03 1.0000000000000000e+00 1.9544157585575984e+01 4.1895446627417998e-01 2.3469997640581443e+01 
522 523 2 1.0279999999999982e+00 1.7063414901787771e+03 1.0000000000000000e+00 1.9060229926797707e+01 4.1891880523682684e-01 2.3470070098427339e+01 
617 618 2 1.0279999999999980e+00 2.4254249481085708e+03 1.0000000000000000e+00 3.3415889483704964e-01 3.4204730773132921e+00 2.3931603499981758e+01 
526 527 2 1.0279999999999960e+00 7.6435525431918290e+02 1.0000000000000000e+00 1.3094536273656043e+01 4.4812089656958651e+00 2.4124549780354467e+01 
852 853 2 1.0279999999999958e+00 -5.9984720851549773e+03 1.0000000000000000e+00 1.3547985553548409e+01 4.2680791451978948e+00 2.3992947389529579e+01 
1071 1072 2 1.0279999999999923e+00 -4.0183199673060017e+03 1.0000000000000000e+00 1.7686588012493353e+01 5.2371141615459260e+00 2.1563595810820857e+01 
1250 1251 2 1.0280000000000089e+00 7.4955424814235921e+03 1.0000000000000000e+00 1.7695404032061941e+01 5.1013919000215289e+00 2.1811680363507971e+01 
339 340 2 1.0279999999999945e+00 -2.2334630467310403e+03 1.0000000000000000e+00 1.7577830400322227e+01 4.6497382156013387e+00 2.2473030631771369e+01 
181 182 2 1.0279999999999987e+00 5.4103419662495457e+02 1.0000000000000000e+00 1.7631413136104985e+01 4.2066854572987022e+00 2.2581168935728144e+01 
68 69 2 1.0279999999999989e+00 3.8670520262411164e+03 1.0000000000000000e+00 1.8698215119885102e+01 3.5299613587653158e+00 2.2814429461069796e+01 
65 66 2 1.0280000000000038e+00 3.8670521068566877e+03 1.0000000000000000e+00 1.9906096605992289e+01 3.5297501562169264e+00 2.2814558120621047e+01 
183 184 2 1.0279999999999954e+00 3.4441998866850008e+03 1.0000000000000000e+00 1.7297708984827253e+01 4.2712104901402732e+00 2.2853603570795745e+01 
688 689 2 1.0280000000000011e+00 -7.0582192532627441e+03 1.0000000000000000e+00 1.8908222382894117e+01 6.2543075339193868e+00 2.3988867023992121e+01 
685 686 2 1.0279999999999974e+00 -7.0582190103053454e+03 1.0000000000000000e+00 1.9696049424906317e+01 6.2543979386150292e+00 2.3988988158967928e+01 
764 765 2 1.0280000000000002e+00 2.8930611724795926e+03 1.0000000000000000e+00 1.8516812980230672e+01 7.1560566701741344e+00 2.2500032502670841e+01 
1368 1369 2 1.0279999999999934e+00 1.3926161962474175e+03 1.0000000000000000e+00 1.8454497175069910e+01 8.4977719550649518e+00 2.3115545373720664e+01 
980 981 2 1.0280000000000005e+00 -4.5002045942907953e+03 1.0000000000000000e+00 1.9303080917633583e+01 8.7755594386484468e+00 2.3155724225800952e+01 
977 978 2 1.0279999999999965e+00 -4.5002044328161155e+03 1.0000000000000000e+00 1.9301199434825524e+01 8.7755596714649080e+00 2.3155726087279131e+01 
604 605 2 1.0280000000000000e+00 -4.0824592581078532e+03 1.0000000000000000e+00 1.7774091676865787e+01 7.4396427616410747e+00 2.3562974372230148e+01 
1268 1269 2 1.0279999999999949e+00 3.1522231470862544e+03 1.0000000000000000e+00 1.6493244578935556e+01 1.1464518750939698e+01 2.1965551310398293e+01 
227 228 2 1.0279999999999974e+00 7.4364120587192119e+03 1.0000000000000000e+00 1.7650309484648773e+01 1.0289748010386528e+01 2.1213995827926187e+01 
32 33 2 1.0280000000000014e+00 -2.4028335348301712e+02 1.0000000000000000e+00 1.7640225000199564e+01 1.0263171432902862e+01 2.1230687851835071e+01 
970 971 2 1.0279999999999998e+00 6.3269258981098346e+02 1.0000000000000000e+00 1.7416404166092462e+01 1.1416063397642404e+01 2.1274383888915271e+01 
687 688 2 1.0279999999999985e+00 8.2074784266353299e+02 1.0000000000000000e+00 1.6711686745827137e+01 1.0542683948432321e+01 2.1468515660730187e+01 
366 367 2 1.0279999999999987e+00 -1.0998555823848988e+03 1.0000000000000000e+00 1.7714177097634163e+01 1.0000394001103089e+01 2.1482586846677087e+01 
20 21 2 1.0280000000000011e+00 2.6454858508954367e+03 1.0000000000000000e+00 1.7107369634870320e+01 1.1716835748880007e+01 2.1752509116336498e+01 
38 39 2 1.0279999999999976e+00 1.8197646838827332e+03 1.0000000000000000e+00 1.6800329360951586e+01 1.1759305833637891e+01 2.2384800991168074e+01 
1108 1109 2 1.0279999999999969e+00 3.5426532010694655e+03 1.0000000000000000e+00 1.6669158119782452e+01 1.1728947148970075e+01 2.2398779368199857e+01 
129 130 2 1.0280000000000094e+00 3.8022111543281051e+02 1.0000000000000000e+00 1.6741152215486366e+01 1.1277536084590642e+01 2.3729276076883266e+01 
1224 1225 2 1.0279999999999989e+00 1.9311057344927435e+03 1.0000000000000000e+00 9.7225916315750549e-01 3.1439279971090235e+00 2.4453269832587150e+01 
1364 1365 2 1.0279999999999987e+00 1.9311058193257265e+03 1.0000000000000000e+00 9.7231523284069121e-01 3.1440359301886871e+00 2.5829418903074792e+01 
751 752 2 1.0280000000000005e+00 -1.8036495923038251e+03 1.0000000000000000e+00 1.1865811221249500e+00 2.1284125105579998e+00 2.6112416768131766e+01 
876 877 2 1.0279999999999998e+00 -4.9155563848547827e+03 1.0000000000000000e+00 1.0554861232985073e+00 2.2658953175767373e+00 2.6163738642758503e+01 
899 900 2 1.0280000000000007e+00 1.6834810691993241e+03 1.0000000000000000e+00 7.5080590255109630e-02 3.2639535993018676e+00 2.6510049381485292e+01 
266 267 2 1.0279999999999998e+00 5.8336634024081104e+03 1.0000000000000000e+00 1.9366633933658914e-01 9.1326000571503840e-01 2.6793827661181432e+01 
667 668 2 1.0279999999999989e+00 -4.9173262381036614e+02 1.0000000000000000e+00 1.3241371043610455e+01 1.2769583019344504e+00 2.4604089324200547e+01 
703 704 2 1.0279999999999987e+00 -4.9173253599152685e+02 1.0000000000000000e+00 1.3241450164321174e+01 1.2768149614840467e+00 2.5253757975871071e+01 
446 447 2 1.0280000000000034e+00 -2.8721251560702640e+03 1.0000000000000000e+00 1.1370264287651938e+01 2.6731387694649460e-03 2.6330999059205297e+01 
277 278 2 1.0279999999999998e+00 2.4370074270493678e+03 1.0000000000000000e+00 1.1556610673419895e+01 3.0700171859995196e-01 2.6737241738277870e+01 
956 957 2 1.0280000000000062e+00 -2.0119860560215125e+03 1.0000000000000000e+00 1.5153386678153852e+01 1.3121347131206634e-01 2.4453996212461629e+01 
1024 1025 2 1.0280000000000051e+00 -2.0119859628805539e+03 1.0000000000000000e+00 1.5153004262672265e+01 1.3131852804224203e-01 2.5403611220675984e+01 
655 656 2 1.0279999999999982e+00 2.5392321120748369e+02 1.0000000000000000e+00 1.3970899566466638e+01 3.0568027727464444e+00 2.6195028011952193e+01 
93 94 2 1.0279999999999989e+00 1.7074901368481599e+03 1.0000000000000000e+00 1.5341808168367178e+01 2.9866816396285096e+00 2.6231378217018960e+01 
472 473 2 1.0280000000000007e+00 -8.4039676469534913e+02 1.0000000000000000e+00 1.4141378905776898e+01 3.0505219671862438e+00 2.6232051722338415e+01 
443 444 2 1.0280000000000007e+00 -3.2588719620066495e+03 1.0000000000000000e+00 1.5776120698917531e+01 2.9668463879728035e+00 2.6246744161923630e+01 
1196 1197 2 1.0279999999999927e+00 -1.0871643130911966e+03 1.0000000000000000e+00 1.5644127677927756e+01 1.5860597137473342e+00 2.6355759310083489e+01 
98 99 2 1.0279999999999967e+00 2.5122975034091530e+02 1.0000000000000000e+00 1.4099224789755793e+01 1.3939942038120661e+00 2.6996299618109038e+01 
567 568 2 1.0280000000000009e+00 7.0494474995598057e+02 1.0000000000000000e+00 1.6479791209109582e+01 2.9434822842663205e-01 2.7272570350683718e+01 
848 849 2 1.0280000000000022e+00 -6.4938037049647010e+03 1.0000000000000000e+00 1.7068735480481127e+01 2.0195272384530782e+00 2.4669602997712747e+01 
64 65 2 1.0279999999999971e+00 2.7341090284021648e+03 1.0000000000000000e+00 1.8207343645947226e+01 2.7272769555914289e+00 2.4828862329447158e+01 
92 93 2 1.0279999999999974e+00 2.7341088012530663e+03 1.0000000000000000e+00 1.8207323756074693e+01 2.7272885926352561e+00 2.5028606576832257e+01 
828 829 2 1.0280000000000058e+00 -6.4938038338238875e+03 1.0000000000000000e+00 1.7068822109473970e+01 2.0193947287813327e+00 2.5187441646921130e+01 
542 543 2 1.0279999999999991e+00 1.7063454910130106e+03 1.0000000000000000e+00 1.9059315387869201e+01 4.2115129173313887e-01 2.6389346540126816e+01 
543 544 2 1.0279999999999982e+00 1.7063446203712751e+03 1.0000000000000000e+00 1.9545051582430713e+01 4.2129620566668075e-01 2.6389362283975533e+01 
888 889 2 1.0279999999999976e+00 -6.7476932226292356e+03 1.0000000000000000e+00 1.7559201269264765e+01 3.2829988701789383e+00 2.6873798694988423e+01 
1119 1120 2 1.0280000000000002e+00 -1.6503883133346385e+03 1.0000000000000000e+00 1.8119183947626212e+01 8.4665438569966855e-01 2.7233093213177391e+01 
749 750 2 1.0279999999999991e+00 2.4254249242554215e+03 1.0000000000000000e+00 3.3412881539721467e-01 3.4205358776120609e+00 2.6351188878758197e+01 
382 383 2 1.0279999999999994e+00 -1.9865225451878814e+03 1.0000000000000000e+00 1.2796421319851760e+01 4.0275055734681606e+00 2.4493395675960176e+01 
1067 1068 2 1.0279999999999963e+00 -3.3761167022433156e+03 1.0000000000000000e+00 1.1261739472411975e+01 6.2762471285167818e+00 2.4733827902123512e+01 
458 459 2 1.0280000000000011e+00 -3.7016104145072427e+03 1.0000000000000000e+00 1.1253503707551261e+01 6.2595364807264859e+00 2.4754455497308427e+01 
375 376 2 1.0280000000000018e+00 -4.0415846576780073e+03 1.0000000000000000e+00 1.1272472012617678e+01 6.4648415547728160e+00 2.4866457665715565e+01 
387 388 2 1.0279999999999978e+00 -4.0415841223717057e+03 1.0000000000000000e+00 1.1272460313771292e+01 6.4648107393204679e+00 2.4992655739566668e+01 
606 607 2 1.0280000000000042e+00 -3.7016110885066519e+03 1.0000000000000000e+00 1.1253502822550901e+01 6.2595361848675255e+00 2.5104660592378480e+01 
1215 1216 2 1.0279999999999978e+00 -3.3761175124016318e+03 1.0000000000000000e+00 1.1261737843616578e+01 6.2762460207746784e+00 2.5125286981201594e+01 
378 379 2 1.0280000000000007e+00 -1.9865228211570738e+03 1.0000000000000000e+00 1.2796293642552401e+01 4.0274680153018991e+00 2.5365390115590220e+01 
538 539 2 1.0279999999999991e+00 7.6435524460324086e+02 1.0000000000000000e+00 1.3094325288629111e+01 4.4811458805933375e+00 2.5734438224300455e+01 
236 237 2 1.0280000000000011e+00 -1.5822946831341396e+03 1.0000000000000000e+00 1.5296349857419028e+01 6.3530313781105505e+00 2.4329656895137212e+01 
865 866 2 1.0280000000000007e+00 -1.8987502239450635e+02 1.0000000000000000e+00 1.5264826366151631e+01 6.1654138197102331e+00 2.4335760216518349e+01 
805 806 2 1.0279999999999987e+00 -1.8987496057364763e+02 1.0000000000000000e+00 1.5264850526485597e+01 6.1651524351615441e+00 2.5524280561877138e+01 
224 225 2 1.0279999999999989e+00 -1.5822940511509742e+03 1.0000000000000000e+00 1.5296339431172333e+01 6.3529254693122743e+00 2.5530365086776133e+01 
824 825 2 1.0279999999999987e+00 -5.9984714483739572e+03 1.0000000000000000e+00 1.3547764124608252e+01 4.2680069294017962e+00 2.5866089192257387e+01 
229 230 2 1.0280000000000009e+00 -8.4030818845734052e+02 1.0000000000000000e+00 1.7121659758409898e+01 5.0722670780774353e+00 2.4748858156928989e+01 
225 226 2 1.0280000000000020e+00 -8.4030857656952833e+02 1.0000000000000000e+00 1.7121954444335611e+01 5.0732349323461303e+00 2.5115283218604119e+01 
684 685 2 1.0280000000000060e+00 -7.0582190246124146e+03 1.0000000000000000e+00 1.8908295977167803e+01 6.2545734594397215e+00 2.5870687859096829e+01 
681 682 2 1.0280000000000071e+00 -7.0582187952119621e+03 1.0000000000000000e+00 1.9696089150537659e+01 6.2544800770599345e+00 2.5870815026699102e+01 
275 276 2 1.0279999999999978e+00 3.4441994549179744e+03 1.0000000000000000e+00 1.7297858997939727e+01 4.2707009140879144e+00 2.7006649993315115e+01 
85 86 2 1.0280000000000009e+00 3.8670548474670504e+03 1.0000000000000000e+00 1.9905474377236896e+01 3.5296121162716942e+00 2.7044190494434755e+01 
88 89 2 1.0279999999999967e+00 3.8670548948328433e+03 1.0000000000000000e+00 1.8698931348084347e+01 3.5297582670845169e+00 2.7044336721621452e+01 
281 282 2 1.0280000000000060e+00 6.8477286768596673e+02 1.0000000000000000e+00 1.2407218085754064e+01 7.1618751312175002e+00 2.4832388929748699e+01 
173 174 2 1.0280000000000018e+00 6.8477305932110494e+02 1.0000000000000000e+00 1.2407189944079963e+01 7.1618831187938401e+00 2.5026766463828011e+01 
1077 1078 2 1.0280000000000034e+00 7.5272817277031845e+03 1.0000000000000000e+00 1.5257697467021114e+01 6.7152360044401744e+00 2.4309039792575373e+01 
1305 1306 2 1.0280000000000016e+00 8.9878076262063610e+02 1.0000000000000000e+00 1.4000234109102077e+01 7.7185133924330733e+00 2.4903489453919075e+01 
1277 1278 2 1.0279999999999985e+00 8.9878115925726979e+02 1.0000000000000000e+00 1.4000208440832225e+01 7.7185347286759862e+00 2.4955792108547136e+01 
1201 1202 2 1.0280000000000034e+00 7.5272817469808369e+03 1.0000000000000000e+00 1.5257620933701169e+01 6.7153655168383066e+00 2.5550920027747189e+01 
1499 1500 2 1.0280000000000018e+00 2.9403697160763431e+03 1.0000000000000000e+00 1.7184867128054371e+01 8.5424768686091177e+00 2.4667018206905915e+01 
1514 1515 2 1.0280000000000042e+00 5.3923855227744434e+02 1.0000000000000000e+00 1.7154525622923543e+01 8.5582286348001571e+00 2.4721344853079099e+01 
1374 1375 2 1.0280000000000034e+00 5.3923910769315637e+02 1.0000000000000000e+00 1.7154575054752975e+01 8.5581189680683760e+00 2.5138166904477217e+01 
1391 1392 2 1.0280000000000009e+00 2.9403707020086090e+03 1.0000000000000000e+00 1.7184900839935228e+01 8.5423581891362321e+00 2.5192448691775095e+01 
464 465 2 1.0279999999999963e+00 -4.0824568955942273e+03 1.0000000000000000e+00 1.7774287254578322e+01 7.4396611667327699e+00 2.6296855279317523e+01 
1000 1001 2 1.0279999999999985e+00 -4.5002066375764807e+03 1.0000000000000000e+00 1.9303113493923306e+01 8.7749298114958574e+00 2.6707066932203912e+01 
997 998 2 1.0280000000000016e+00 -4.5002065080307348e+03 1.0000000000000000e+00 1.9301230396434075e+01 8.7749281568966495e+00 2.6707077285555044e+01 
1220 1221 2 1.0279999999999969e+00 1.3926164429060591e+03 1.0000000000000000e+00 1.8454729339354234e+01 8.4979673549272086e+00 2.6744083329798670e+01 
691 692 2 1.0279999999999971e+00 2.4379361094370288e+03 1.0000000000000000e+00 1.5518446414001909e+01 1.2597394832310716e+01 2.4823984753560037e+01 
986 987 2 1.0279999999999956e+00 8.1760482903880461e+02 1.0000000000000000e+00 1.5848070783835770e+01 1.2654865966266756e+01 2.4905560833286646e+01 
621 622 2 1.0279999999999958e+00 -2.4259574172583862e+03 1.0000000000000000e+00 1.4554517848509228e+01 1.0021449648470281e+01 2.4914224458861536e+01 
608 609 2 1.0279999999999963e+00 6.8061157809002987e+02 1.0000000000000000e+00 1.5828911757017194e+01 1.2655670535998834e+01 2.4927190902771013e+01 
973 974 2 1.0279999999999996e+00 -5.5579045397020327e+03 1.0000000000000000e+00 1.4549063458271354e+01 1.0061351492285523e+01 2.4927833302338886e+01 
536 537 2 1.0279999999999982e+00 -6.5824010594560277e+03 1.0000000000000000e+00 1.4547699042727078e+01 1.0071768634392521e+01 2.4928063729667922e+01 
532 533 2 1.0279999999999985e+00 -6.5824010311547863e+03 1.0000000000000000e+00 1.4547699253032521e+01 1.0071769197296584e+01 2.4931949358362630e+01 
1001 1002 2 1.0280000000000000e+00 -5.5579051136091639e+03 1.0000000000000000e+00 1.4549063823693627e+01 1.0061351178932561e+01 2.4932178982361535e+01 
460 461 2 1.0279999999999900e+00 6.8061123643192320e+02 1.0000000000000000e+00 1.5828911508635466e+01 1.2655670819765426e+01 2.4932989393232219e+01 
745 746 2 1.0279999999999985e+00 -2.4259577611542909e+03 1.0000000000000000e+00 1.4554520285520384e+01 1.0021450404946393e+01 2.4945784221612577e+01 
990 991 2 1.0280000000000014e+00 8.1760546960224747e+02 1.0000000000000000e+00 1.5848066322111434e+01 1.2654868710063871e+01 2.4954607914958576e+01 
679 680 2 1.0280000000000018e+00 2.4379358914257464e+03 1.0000000000000000e+00 1.5518418622653721e+01 1.2597391672795077e+01 2.5036229170294579e+01 
21 22 2 1.0280000000000142e+00 3.8022151618811353e+02 1.0000000000000000e+00 1.6741016970226116e+01 1.1277628419226946e+01 2.6131108963738473e+01 
435 436 2 1.0279999999999971e+00 -2.5837634833955542e+02 1.0000000000000000e+00 8.2524212430423821e-02 5.4341738983740062e-01 2.9271087463387431e+01 
732 733 2 1.0279999999999958e+00 -6.5518678631803086e+03 1.0000000000000000e+00 1.3960374033884926e-01 3.5679615269042747e-01 2.9352131429724569e+01 
911 912 2 1.0280000000000029e+00 -4.4280116217863724e+03 1.0000000000000000e+00 1.3221184937007211e+01 7.7550711465538047e-01 2.7786576321267923e+01 
576 577 2 1.0280000000000016e+00 -4.1460970398022746e+03 1.0000000000000000e+00 1.3240788115019722e+01 7.2552729925146253e-01 2.7846447287435758e+01 
1480 1481 2 1.0280000000000022e+00 2.4549650147697457e+03 1.0000000000000000e+00 1.3400809117742119e+01 1.6732265392353390e-01 2.8275485675249008e+01 
588 589 2 1.0280000000000007e+00 -5.7456820948801233e+03 1.0000000000000000e+00 1.5408077031926434e+01 4.4123808713869450e-01 2.8834370178981914e+01 
429 430 2 1.0280000000000027e+00 -2.3968821177219652e+03 1.0000000000000000e+00 1.5992853146032584e+01 6.1558726347756054e-01 2.9030630354443737e+01 
427 428 2 1.0280000000000011e+00 -2.4700551834529542e+03 1.0000000000000000e+00 1.6192526210851756e+01 5.9203694260563688e-01 2.9692596777694405e+01 