LAMMPS data file via write_data, version 30 Jul 2016, timestep = 600000

2080 atoms
8 atom types

0.0000000000000000e+00 4.0000000000000000e+01 xlo xhi
0.0000000000000000e+00 4.0000000000000000e+01 ylo yhi
0.0000000000000000e+00 1.0000000000000000e+02 zlo zhi

Masses

1 3.896
2 4.306
3 20.064
4 8.378
5 8.378
6 8.378
7 8.378
8 8.378

Atoms # meso-molecular

1 2 4 2.2559723595316457e+00 0.0000000000000000e+00 1.0000000000000000e+00 0.0000000000000000e+00 0.0000000000000000e+00 2.5000000000000000e+00 
2 2 4 2.2559723595316457e+00 0.0000000000000000e+00 1.0000000000000000e+00 0.0000000000000000e+00 2.0000000000000000e+00 2.5000000000000000e+00 
3 2 4 2.2559723595316457e+00 0.0000000000000000e+00 1.0000000000000000e+00 0.0000000000000000e+00 4.0000000000000000e+00 2.5000000000000000e+00 
21 2 4 2.2559723595316457e+00 0.0000000000000000e+00 1.0000000000000000e+00 2.0000000000000000e+00 0.0000000000000000e+00 2.5000000000000000e+00 
22 2 4 2.2559723595316457e+00 0.0000000000000000e+00 1.0000000000000000e+00 2.0000000000000000e+00 2.0000000000000000e+00 2.5000000000000000e+00 
23 2 4 2.2559723595316457e+00 0.0000000000000000e+00 1.0000000000000000e+00 2.0000000000000000e+00 4.0000000000000000e+00 2.5000000000000000e+00 
41 2 4 2.2559723595316457e+00 0.0000000000000000e+00 1.0000000000000000e+00 4.0000000000000000e+00 0.0000000000000000e+00 2.5000000000000000e+00 
42 2 4 2.2559723595316457e+00 0.0000000000000000e+00 1.0000000000000000e+00 4.0000000000000000e+00 2.0000000000000000e+00 2.5000000000000000e+00 
43 2 4 2.2559723595316457e+00 0.0000000000000000e+00 1.0000000000000000e+00 4.0000000000000000e+00 4.0000000000000000e+00 2.5000000000000000e+00 
61 2 4 2.2559723595316457e+00 0.0000000000000000e+00 1.0000000000000000e+00 6.0000000000000000e+00 0.0000000000000000e+00 2.5000000000000000e+00 
62 2 4 2.2559723595316457e+00 0.0000000000000000e+00 1.0000000000000000e+00 6.0000000000000000e+00 2.0000000000000000e+00 2.5000000000000000e+00 
63 2 4 2.2559723595316457e+00 0.0000000000000000e+00 1.0000000000000000e+00 6.0000000000000000e+00 4.0000000000000000e+00 2.5000000000000000e+00 
81 2 4 2.2559723595316457e+00 0.0000000000000000e+00 1.0000000000000000e+00 8.0000000000000000e+00 0.0000000000000000e+00 2.5000000000000000e+00 
82 2 4 2.2559723595316457e+00 0.0000000000000000e+00 1.0000000000000000e+00 8.0000000000000000e+00 2.0000000000000000e+00 2.5000000000000000e+00 
83 2 4 2.2559723595316457e+00 0.0000000000000000e+00 1.0000000000000000e+00 8.0000000000000000e+00 4.0000000000000000e+00 2.5000000000000000e+00 
101 2 4 2.2559723595316457e+00 0.0000000000000000e+00 1.0000000000000000e+00 1.0000000000000000e+01 0.0000000000000000e+00 2.5000000000000000e+00 
102 2 4 2.2559723595316457e+00 0.0000000000000000e+00 1.0000000000000000e+00 1.0000000000000000e+01 2.0000000000000000e+00 2.5000000000000000e+00 
103 2 4 2.2559723595316457e+00 0.0000000000000000e+00 1.0000000000000000e+00 1.0000000000000000e+01 4.0000000000000000e+00 2.5000000000000000e+00 
121 2 4 2.2559723595316457e+00 0.0000000000000000e+00 1.0000000000000000e+00 1.2000000000000000e+01 0.0000000000000000e+00 2.5000000000000000e+00 
122 2 4 2.2559723595316457e+00 0.0000000000000000e+00 1.0000000000000000e+00 1.2000000000000000e+01 2.0000000000000000e+00 2.5000000000000000e+00 
123 2 4 2.2559723595316457e+00 0.0000000000000000e+00 1.0000000000000000e+00 1.2000000000000000e+01 4.0000000000000000e+00 2.5000000000000000e+00 
141 2 4 2.2559723595316457e+00 0.0000000000000000e+00 1.0000000000000000e+00 1.4000000000000000e+01 0.0000000000000000e+00 2.5000000000000000e+00 
142 2 4 2.2559723595316457e+00 0.0000000000000000e+00 1.0000000000000000e+00 1.4000000000000000e+01 2.0000000000000000e+00 2.5000000000000000e+00 
143 2 4 2.2559723595316457e+00 0.0000000000000000e+00 1.0000000000000000e+00 1.4000000000000000e+01 4.0000000000000000e+00 2.5000000000000000e+00 
161 2 4 2.2559723595316457e+00 0.0000000000000000e+00 1.0000000000000000e+00 1.6000000000000000e+01 0.0000000000000000e+00 2.5000000000000000e+00 
162 2 4 2.2559723595316457e+00 0.0000000000000000e+00 1.0000000000000000e+00 1.6000000000000000e+01 2.0000000000000000e+00 2.5000000000000000e+00 
163 2 4 2.2559723595316457e+00 0.0000000000000000e+00 1.0000000000000000e+00 1.6000000000000000e+01 4.0000000000000000e+00 2.5000000000000000e+00 
181 2 4 2.2559723595316457e+00 0.0000000000000000e+00 1.0000000000000000e+00 1.8000000000000000e+01 0.0000000000000000e+00 2.5000000000000000e+00 
182 2 4 2.2559723595316457e+00 0.0000000000000000e+00 1.0000000000000000e+00 1.8000000000000000e+01 2.0000000000000000e+00 2.5000000000000000e+00 
183 2 4 2.2559723595316457e+00 0.0000000000000000e+00 1.0000000000000000e+00 1.8000000000000000e+01 4.0000000000000000e+00 2.5000000000000000e+00 
4 2 4 2.2559723595316457e+00 0.0000000000000000e+00 1.0000000000000000e+00 0.0000000000000000e+00 6.0000000000000000e+00 2.5000000000000000e+00 
5 2 4 2.2559723595316457e+00 0.0000000000000000e+00 1.0000000000000000e+00 0.0000000000000000e+00 8.0000000000000000e+00 2.5000000000000000e+00 
24 2 4 2.2559723595316457e+00 0.0000000000000000e+00 1.0000000000000000e+00 2.0000000000000000e+00 6.0000000000000000e+00 2.5000000000000000e+00 
25 2 4 2.2559723595316457e+00 0.0000000000000000e+00 1.0000000000000000e+00 2.0000000000000000e+00 8.0000000000000000e+00 2.5000000000000000e+00 
44 2 4 2.2559723595316457e+00 0.0000000000000000e+00 1.0000000000000000e+00 4.0000000000000000e+00 6.0000000000000000e+00 2.5000000000000000e+00 
45 2 4 2.2559723595316457e+00 0.0000000000000000e+00 1.0000000000000000e+00 4.0000000000000000e+00 8.0000000000000000e+00 2.5000000000000000e+00 
64 2 4 2.2559723595316457e+00 0.0000000000000000e+00 1.0000000000000000e+00 6.0000000000000000e+00 6.0000000000000000e+00 2.5000000000000000e+00 
65 2 4 2.2559723595316457e+00 0.0000000000000000e+00 1.0000000000000000e+00 6.0000000000000000e+00 8.0000000000000000e+00 2.5000000000000000e+00 
84 2 4 2.2559723595358445e+00 2.0970426201171379e-04 1.0000000000000000e+00 8.0000000000000000e+00 6.0000000000000000e+00 2.5000000000000000e+00 
85 2 4 2.2559723595380055e+00 2.3226572680712151e-04 1.0000000000000000e+00 8.0000000000000000e+00 8.0000000000000000e+00 2.5000000000000000e+00 
104 2 4 2.2559723595323002e+00 4.4984180512151059e-05 1.0000000000000000e+00 1.0000000000000000e+01 6.0000000000000000e+00 2.5000000000000000e+00 
105 2 4 2.2559723595316457e+00 2.0024288778682557e-05 1.0000000000000000e+00 1.0000000000000000e+01 8.0000000000000000e+00 2.5000000000000000e+00 
124 2 4 2.2559723595316457e+00 0.0000000000000000e+00 1.0000000000000000e+00 1.2000000000000000e+01 6.0000000000000000e+00 2.5000000000000000e+00 
125 2 4 2.2559723595316457e+00 -1.2793269538964628e+01 1.0000000000000000e+00 1.2000000000000000e+01 8.0000000000000000e+00 2.5000000000000000e+00 
144 2 4 2.2559723595316457e+00 -1.2795704278649065e+01 1.0000000000000000e+00 1.4000000000000000e+01 6.0000000000000000e+00 2.5000000000000000e+00 
145 2 4 2.2559723595316457e+00 -2.4748117593203690e+02 1.0000000000000000e+00 1.4000000000000000e+01 8.0000000000000000e+00 2.5000000000000000e+00 
164 2 4 2.2559723595316457e+00 -6.0354038103929526e+01 1.0000000000000000e+00 1.6000000000000000e+01 6.0000000000000000e+00 2.5000000000000000e+00 
165 2 4 2.2559723595316457e+00 -7.7014699907373938e+02 1.0000000000000000e+00 1.6000000000000000e+01 8.0000000000000000e+00 2.5000000000000000e+00 
184 2 4 2.2559723595316457e+00 -8.7598457850480969e+01 1.0000000000000000e+00 1.8000000000000000e+01 6.0000000000000000e+00 2.5000000000000000e+00 
185 2 4 2.2559723595794394e+00 -1.1187773249973820e+03 1.0000000000000000e+00 1.8000000000000000e+01 8.0000000000000000e+00 2.5000000000000000e+00 
6 2 4 2.2559723595316457e+00 0.0000000000000000e+00 1.0000000000000000e+00 0.0000000000000000e+00 1.0000000000000000e+01 2.5000000000000000e+00 
7 2 4 2.2559723595316457e+00 0.0000000000000000e+00 1.0000000000000000e+00 0.0000000000000000e+00 1.2000000000000000e+01 2.5000000000000000e+00 
8 2 4 2.2559723595316457e+00 0.0000000000000000e+00 1.0000000000000000e+00 0.0000000000000000e+00 1.4000000000000000e+01 2.5000000000000000e+00 
26 2 4 2.2559723595316457e+00 0.0000000000000000e+00 1.0000000000000000e+00 2.0000000000000000e+00 1.0000000000000000e+01 2.5000000000000000e+00 
27 2 4 2.2559723595316457e+00 0.0000000000000000e+00 1.0000000000000000e+00 2.0000000000000000e+00 1.2000000000000000e+01 2.5000000000000000e+00 
28 2 4 2.2559723595316457e+00 0.0000000000000000e+00 1.0000000000000000e+00 2.0000000000000000e+00 1.4000000000000000e+01 2.5000000000000000e+00 
46 2 4 2.2559723595316457e+00 0.0000000000000000e+00 1.0000000000000000e+00 4.0000000000000000e+00 1.0000000000000000e+01 2.5000000000000000e+00 
47 2 4 2.2559723595316457e+00 0.0000000000000000e+00 1.0000000000000000e+00 4.0000000000000000e+00 1.2000000000000000e+01 2.5000000000000000e+00 
48 2 4 2.2559723595316457e+00 0.0000000000000000e+00 1.0000000000000000e+00 4.0000000000000000e+00 1.4000000000000000e+01 2.5000000000000000e+00 
66 2 4 2.2559723595316457e+00 0.0000000000000000e+00 1.0000000000000000e+00 6.0000000000000000e+00 1.0000000000000000e+01 2.5000000000000000e+00 
67 2 4 2.2559723595316457e+00 0.0000000000000000e+00 1.0000000000000000e+00 6.0000000000000000e+00 1.2000000000000000e+01 2.5000000000000000e+00 
68 2 4 2.2559723595316457e+00 2.2024098943118896e-04 1.0000000000000000e+00 6.0000000000000000e+00 1.4000000000000000e+01 2.5000000000000000e+00 
86 2 4 2.2559723595316457e+00 0.0000000000000000e+00 1.0000000000000000e+00 8.0000000000000000e+00 1.0000000000000000e+01 2.5000000000000000e+00 
87 2 4 2.2559723595316457e+00 0.0000000000000000e+00 1.0000000000000000e+00 8.0000000000000000e+00 1.2000000000000000e+01 2.5000000000000000e+00 
88 2 4 2.2559723595316457e+00 -1.8986525669815530e-04 1.0000000000000000e+00 8.0000000000000000e+00 1.4000000000000000e+01 2.5000000000000000e+00 
106 2 4 2.2559723595316457e+00 1.0303008457928323e-07 1.0000000000000000e+00 1.0000000000000000e+01 1.0000000000000000e+01 2.5000000000000000e+00 
107 2 4 2.2559723595316457e+00 0.0000000000000000e+00 1.0000000000000000e+00 1.0000000000000000e+01 1.2000000000000000e+01 2.5000000000000000e+00 
108 2 4 2.2559723595316457e+00 0.0000000000000000e+00 1.0000000000000000e+00 1.0000000000000000e+01 1.4000000000000000e+01 2.5000000000000000e+00 
126 2 4 2.2559723595510386e+00 -6.0266760894462955e+01 1.0000000000000000e+00 1.2000000000000000e+01 1.0000000000000000e+01 2.5000000000000000e+00 
127 2 4 2.2559723595316457e+00 -8.7840260722214339e+01 1.0000000000000000e+00 1.2000000000000000e+01 1.2000000000000000e+01 2.5000000000000000e+00 
128 2 4 2.2559723595316457e+00 -9.3996993824396156e+01 1.0000000000000000e+00 1.2000000000000000e+01 1.4000000000000000e+01 2.5000000000000000e+00 
146 2 4 2.2559723595316457e+00 -7.6890476488976583e+02 1.0000000000000000e+00 1.4000000000000000e+01 1.0000000000000000e+01 2.5000000000000000e+00 
147 2 4 2.2559723595316457e+00 -1.1242671946855830e+03 1.0000000000000000e+00 1.4000000000000000e+01 1.2000000000000000e+01 2.5000000000000000e+00 
148 2 4 2.2559723595317300e+00 -1.2012484082809876e+03 1.0000000000000000e+00 1.4000000000000000e+01 1.4000000000000000e+01 2.5000000000000000e+00 
166 2 4 2.2559723595316457e+00 -2.1876683977286089e+03 1.0000000000000000e+00 1.6000000000000000e+01 1.0000000000000000e+01 2.5000000000000000e+00 
167 2 4 2.2559723595316457e+00 -3.1503164660255002e+03 1.0000000000000000e+00 1.6000000000000000e+01 1.2000000000000000e+01 2.5000000000000000e+00 
168 2 4 2.2559723595327354e+00 -3.3391461175662516e+03 1.0000000000000000e+00 1.6000000000000000e+01 1.4000000000000000e+01 2.5000000000000000e+00 
186 2 4 2.2559723595344092e+00 -3.1346074700585036e+03 1.0000000000000000e+00 1.8000000000000000e+01 1.0000000000000000e+01 2.5000000000000000e+00 
187 2 4 2.2559723595316457e+00 -4.4678068073248769e+03 1.0000000000000000e+00 1.8000000000000000e+01 1.2000000000000000e+01 2.5000000000000000e+00 
188 2 4 2.2559723595316457e+00 -4.6942082347921714e+03 1.0000000000000000e+00 1.8000000000000000e+01 1.4000000000000000e+01 2.5000000000000000e+00 
9 2 4 2.2559723595316457e+00 0.0000000000000000e+00 1.0000000000000000e+00 0.0000000000000000e+00 1.6000000000000000e+01 2.5000000000000000e+00 
10 2 4 2.2559723595316457e+00 0.0000000000000000e+00 1.0000000000000000e+00 0.0000000000000000e+00 1.8000000000000000e+01 2.5000000000000000e+00 
29 2 4 2.2559723595316457e+00 0.0000000000000000e+00 1.0000000000000000e+00 2.0000000000000000e+00 1.6000000000000000e+01 2.5000000000000000e+00 
30 2 4 2.2559723595316457e+00 0.0000000000000000e+00 1.0000000000000000e+00 2.0000000000000000e+00 1.8000000000000000e+01 2.5000000000000000e+00 
49 2 4 2.2559723595316457e+00 0.0000000000000000e+00 1.0000000000000000e+00 4.0000000000000000e+00 1.6000000000000000e+01 2.5000000000000000e+00 
50 2 4 2.2559723595316457e+00 0.0000000000000000e+00 1.0000000000000000e+00 4.0000000000000000e+00 1.8000000000000000e+01 2.5000000000000000e+00 
69 2 4 2.2559723595316457e+00 6.3885797781720963e-05 1.0000000000000000e+00 6.0000000000000000e+00 1.6000000000000000e+01 2.5000000000000000e+00 
70 2 4 2.2559723595316457e+00 0.0000000000000000e+00 1.0000000000000000e+00 6.0000000000000000e+00 1.8000000000000000e+01 2.5000000000000000e+00 
89 2 4 2.2559723595316457e+00 8.1955694507575999e-05 1.0000000000000000e+00 8.0000000000000000e+00 1.6000000000000000e+01 2.5000000000000000e+00 
90 2 4 2.2559723595316457e+00 9.6065877786206375e-05 1.0000000000000000e+00 8.0000000000000000e+00 1.8000000000000000e+01 2.5000000000000000e+00 
109 2 4 2.2559723595316457e+00 -1.2031094326264722e-05 1.0000000000000000e+00 1.0000000000000000e+01 1.6000000000000000e+01 2.5000000000000000e+00 
110 2 4 2.2559723595316457e+00 -5.8869870063698682e-06 1.0000000000000000e+00 1.0000000000000000e+01 1.8000000000000000e+01 2.5000000000000000e+00 
129 2 4 2.2559723595316457e+00 -9.4312874761963272e+01 1.0000000000000000e+00 1.2000000000000000e+01 1.6000000000000000e+01 2.5000000000000000e+00 
130 2 4 2.2559723595316457e+00 -9.4217798818212032e+01 1.0000000000000000e+00 1.2000000000000000e+01 1.8000000000000000e+01 2.5000000000000000e+00 
149 2 4 2.2559723595399426e+00 -1.2073985957530119e+03 1.0000000000000000e+00 1.4000000000000000e+01 1.6000000000000000e+01 2.5000000000000000e+00 
150 2 4 2.2559723595316457e+00 -1.2052568615450316e+03 1.0000000000000000e+00 1.4000000000000000e+01 1.8000000000000000e+01 2.5000000000000000e+00 
169 2 4 2.2559723595316652e+00 -3.3519951357712075e+03 1.0000000000000000e+00 1.6000000000000000e+01 1.6000000000000000e+01 2.5000000000000000e+00 
170 2 4 2.2559723595474330e+00 -3.3464377200316490e+03 1.0000000000000000e+00 1.6000000000000000e+01 1.8000000000000000e+01 2.5000000000000000e+00 
189 2 4 2.2559723595316457e+00 -4.7057861678698819e+03 1.0000000000000000e+00 1.8000000000000000e+01 1.6000000000000000e+01 2.5000000000000000e+00 
190 2 4 2.2559723595316457e+00 -4.6990258541883732e+03 1.0000000000000000e+00 1.8000000000000000e+01 1.8000000000000000e+01 2.5000000000000000e+00 
1659 1261 2 1.0280018980288095e+00 1.3699563797856804e+03 1.0000000000000000e+00 1.8711457564817373e+01 9.8698137692740264e+00 9.0443799698491262e+01 
1658 1260 2 1.0280002939897281e+00 1.3699287390588363e+03 1.0000000000000000e+00 1.9253040520248238e+01 9.8753168232026827e+00 9.0442472517209865e+01 
1521 1123 2 1.0279991763547223e+00 7.3513801646689117e+03 1.0000000000000000e+00 1.4007808075278870e+01 1.1759748826543621e+01 9.0095102785479966e+01 
1326 928 2 1.0279985479812623e+00 -5.9194697343312955e+03 1.0000000000000000e+00 1.4126061753100934e+01 1.2300465896388074e+01 8.9836797125357521e+01 
1800 1402 2 1.0279962392942368e+00 -3.8292342862797959e+03 1.0000000000000000e+00 1.4179734644203755e+01 1.2809726969485684e+01 8.9676000001087672e+01 
928 530 2 1.0279990734776121e+00 2.3944740479280817e+03 1.0000000000000000e+00 1.3491478340849593e+01 1.1459873783725136e+01 9.0390750195476414e+01 
2023 1625 2 1.0280007727900142e+00 -1.0669364349157633e+04 1.0000000000000000e+00 1.3477671186643272e+01 1.1892521593515946e+01 9.0151309773253018e+01 
1916 1518 2 1.0279987971581162e+00 -1.4691790473101275e+04 1.0000000000000000e+00 1.3075964849383572e+01 1.1826459878063496e+01 9.0372358406648047e+01 
1793 1395 2 1.0279981170300880e+00 -5.6559417148404955e+03 1.0000000000000000e+00 1.3608250943420122e+01 1.3127684562177958e+01 8.9618954700657284e+01 
563 165 2 1.0279975683692306e+00 1.7789106706305140e+03 1.0000000000000000e+00 1.3968827448259043e+01 1.3254444660351052e+01 8.9576988990428490e+01 
1321 923 2 1.0279998287645165e+00 -2.5026881046361968e+03 1.0000000000000000e+00 1.3458237040977892e+01 1.3974298755149761e+01 8.9460324087611752e+01 
1805 1407 2 1.0280010182470078e+00 -3.0708956388223319e+03 1.0000000000000000e+00 1.2907211163601669e+01 1.4029848932210635e+01 8.9521634286525781e+01 
641 243 2 1.0280018427060373e+00 -2.9464228130664369e+03 1.0000000000000000e+00 1.3525150051022223e+01 1.4145179176739530e+01 8.9432430500641658e+01 
919 521 2 1.0280028712083040e+00 9.2931395027112339e+03 1.0000000000000000e+00 1.2673786480444381e+01 1.4307484173014712e+01 8.9499341030850815e+01 
1601 1203 2 1.0280020196172195e+00 3.9176667428788382e+03 1.0000000000000000e+00 1.3000616608622293e+01 1.4378919264656362e+01 8.9413652776174303e+01 
1419 1021 2 1.0280004383617487e+00 -3.2479645469383167e+03 1.0000000000000000e+00 1.2218906462551924e+01 1.4438495179062825e+01 8.9619500460789425e+01 
1681 1283 2 1.0280059557453147e+00 -3.8631052556779382e+03 1.0000000000000000e+00 1.1239856324402890e+01 1.4761761313329893e+01 9.0121973348331181e+01 
1635 1237 2 1.0279968771145527e+00 9.7535781511774458e+03 1.0000000000000000e+00 1.0914797656766089e+01 1.4915554380952983e+01 9.0325724870318723e+01 
1647 1249 2 1.0279977361854371e+00 4.5487615418455835e+03 1.0000000000000000e+00 1.0803420642178269e+01 1.4986309745993045e+01 9.0368260869500645e+01 
2049 1651 2 1.0279958822140165e+00 -9.0148295494420217e+03 1.0000000000000000e+00 1.4017219349534344e+01 1.3840444392206940e+01 8.9503488667214754e+01 
450 52 2 1.0279961376150719e+00 -5.2412581920588873e+03 1.0000000000000000e+00 1.3974980873349718e+01 1.3934934182535294e+01 8.9489545000474692e+01 
1087 689 2 1.0279919102792530e+00 -6.6770823200782588e+03 1.0000000000000000e+00 1.4360291455278535e+01 1.3586676525057314e+01 8.9572371769603151e+01 
1575 1177 2 1.0279867236844809e+00 -2.6918749781475058e+03 1.0000000000000000e+00 1.4449053411302010e+01 1.3885635843108181e+01 8.9570551542206772e+01 
763 365 2 1.0280003527402484e+00 8.9086305606886763e+03 1.0000000000000000e+00 1.4632496636304243e+01 1.4784596321502104e+01 8.9606143124490330e+01 
1135 737 2 1.0279940915641506e+00 -2.6803051072833108e+02 1.0000000000000000e+00 1.5169758331392028e+01 1.1172605175410844e+01 9.0405007895001759e+01 
1566 1168 2 1.0279936947743356e+00 3.8851192049181591e+03 1.0000000000000000e+00 1.6489012228197954e+01 1.1327401550894526e+01 9.0451595280935223e+01 
1585 1187 2 1.0279905862846896e+00 2.4347641693946366e+03 1.0000000000000000e+00 1.6338046865874723e+01 1.1547413139709855e+01 9.0358073782410997e+01 
1348 950 2 1.0279852938561007e+00 -1.6166054583834900e+03 1.0000000000000000e+00 1.5385708451804954e+01 1.2633882087727843e+01 8.9866329951226348e+01 
911 513 2 1.0279908830745108e+00 -5.1490414536359658e+03 1.0000000000000000e+00 1.8516436035541293e+01 1.1495550206201347e+01 9.0229168576039754e+01 
910 512 2 1.0279865578627359e+00 -5.1491425373194033e+03 1.0000000000000000e+00 1.9498699570668180e+01 1.1491697536089436e+01 9.0200224030475212e+01 
1388 990 2 1.0279812551050305e+00 -2.3154216701380969e+03 1.0000000000000000e+00 1.9784363488914035e+01 1.2543698333796701e+01 8.9639017004418875e+01 
1385 987 2 1.0279953075020525e+00 -2.3153721868242706e+03 1.0000000000000000e+00 1.8264702447637468e+01 1.2563207477823060e+01 8.9712564929909462e+01 
1421 1023 2 1.0280035176114035e+00 7.6825479982466732e+01 1.0000000000000000e+00 1.8706679895191360e+01 1.0936642820929537e+01 9.0363984186324117e+01 
1424 1026 2 1.0279998740445502e+00 7.6778889037406998e+01 1.0000000000000000e+00 1.9283192276141243e+01 1.0933588737131771e+01 9.0356387774060579e+01 
2071 1673 2 1.0280015208444804e+00 2.8906022583743916e+03 1.0000000000000000e+00 1.9633400313786865e+01 1.0522395661487362e+01 9.0430146121522370e+01 
2070 1672 2 1.0280033170707010e+00 2.8906793977212787e+03 1.0000000000000000e+00 1.8352779780748005e+01 1.0521654296719644e+01 9.0437402833109090e+01 
638 240 2 1.0279939245280700e+00 1.2637111556380519e+03 1.0000000000000000e+00 1.8806892139384541e+01 1.3663363640783533e+01 8.9152774438051168e+01 
639 241 2 1.0279939965682314e+00 1.2637170431836353e+03 1.0000000000000000e+00 1.9292074927076875e+01 1.3653919356113217e+01 8.9127444328353079e+01 
1698 1300 2 1.0279956844313396e+00 8.7205242648740441e+03 1.0000000000000000e+00 1.9751924428479690e+01 1.0273607978970471e+01 9.0465222313662778e+01 
1699 1301 2 1.0280004817538044e+00 8.7205960679936852e+03 1.0000000000000000e+00 1.8226495506203918e+01 1.0268232536288370e+01 9.0470285708650252e+01 
772 374 2 1.0279942706734413e+00 1.2452107611402297e+02 1.0000000000000000e+00 1.7914787450837419e+01 1.3493499464694040e+01 8.9384354802485390e+01 
471 73 2 1.0279989432685621e+00 -5.7185887969208143e+03 1.0000000000000000e+00 1.8455748853406156e+01 1.0237832384511812e+01 9.0445964273201781e+01 
470 72 2 1.0279971689133744e+00 -5.7186438931226703e+03 1.0000000000000000e+00 1.9523528414487483e+01 1.0242470952402089e+01 9.0442566693552905e+01 
1003 605 2 1.0279796052722079e+00 6.4273547873512080e+03 1.0000000000000000e+00 1.6033139041141332e+01 1.3236526073296423e+01 8.9847627681990090e+01 
1468 1070 2 1.0279969866748611e+00 5.6195225657109904e+03 1.0000000000000000e+00 1.9089014416653377e+01 1.4476280980460707e+01 8.8869810962246831e+01 
1465 1067 2 1.0279969880320894e+00 5.6195252115752337e+03 1.0000000000000000e+00 1.9065353161128733e+01 1.4476819655968381e+01 8.8870967716138679e+01 
640 242 2 1.0279977008989254e+00 -7.4920993015531603e+03 1.0000000000000000e+00 1.8640483749946487e+01 1.4560218079334499e+01 8.8896528989236288e+01 
1370 972 2 1.0279931887903277e+00 3.1833847765525053e+02 1.0000000000000000e+00 1.7863491269184859e+01 1.4652438716262964e+01 8.9082808371600393e+01 
637 239 2 1.0279972048122945e+00 -7.4920736708547893e+03 1.0000000000000000e+00 1.9538726524176408e+01 1.4548149385944646e+01 8.8853460636110228e+01 
1697 1299 2 1.0279970502606364e+00 1.5002029488657893e+03 1.0000000000000000e+00 1.9133120933807064e+01 1.4608175096195989e+01 8.8831445742275150e+01 
1700 1302 2 1.0279970046108333e+00 1.5002000059606121e+03 1.0000000000000000e+00 1.9031929750935753e+01 1.4609650827364421e+01 8.8836482807493311e+01 
1666 1268 2 1.0279976033378626e+00 2.5572284387648017e+02 1.0000000000000000e+00 1.9027037545438475e+01 1.4992359391528923e+01 8.8739577173772602e+01 
1667 1269 2 1.0279974954858904e+00 2.5573152630697015e+02 1.0000000000000000e+00 1.9164654066562978e+01 1.4992343843848220e+01 8.8732935589132182e+01 
1409 1011 2 1.0280001551618696e+00 -1.0762894138329764e+04 1.0000000000000000e+00 7.7885128694620951e+00 1.9378818894238442e+01 8.9831444518180518e+01 
905 507 2 1.0279998648413111e+00 -1.0763014517200278e+04 1.0000000000000000e+00 7.7804800188777534e+00 1.8857032973342463e+01 8.9827109820805518e+01 
1464 1066 2 1.0280004544819652e+00 2.3366251268954325e+03 1.0000000000000000e+00 7.9039306134759739e+00 1.9987351000034376e+01 8.9783022088888274e+01 
960 562 2 1.0280001329664963e+00 2.3363564124257723e+03 1.0000000000000000e+00 7.8816841849805535e+00 1.8280296065385262e+01 8.9744346490049253e+01 
2005 1607 2 1.0280000914477458e+00 -4.9201605607885813e+03 1.0000000000000000e+00 7.8925243829955214e+00 1.8143105423557586e+01 8.9795464037602287e+01 
1674 1276 2 1.0280001563989321e+00 3.0363151262002589e+03 1.0000000000000000e+00 7.9348696132904157e+00 1.8040545919914809e+01 8.9761224747747917e+01 
1004 606 2 1.0280002411334845e+00 2.3290415602146418e+03 1.0000000000000000e+00 7.9401898017892432e+00 1.8019214282709058e+01 8.9763385054486093e+01 
760 362 2 1.0279994049895531e+00 5.2341380516212994e+03 1.0000000000000000e+00 8.0544530505938656e+00 1.7730000997182778e+01 8.9742213245423486e+01 
1706 1308 2 1.0279994991917991e+00 8.6806637685027708e+03 1.0000000000000000e+00 8.0017842235240018e+00 1.8165612254542541e+01 8.9556912161196607e+01 
821 423 2 1.0279991919099500e+00 -4.2516721832206003e+03 1.0000000000000000e+00 8.1812407648350973e+00 1.7495629579734040e+01 8.9720025052564665e+01 
1232 834 2 1.0279991987775654e+00 -5.2951135016342232e+03 1.0000000000000000e+00 8.1823497249989003e+00 1.7578251012523850e+01 8.9650310106615308e+01 
1768 1370 2 1.0280005366348084e+00 5.1643222848446612e+02 1.0000000000000000e+00 8.0564739278294528e+00 1.9730291296979733e+01 8.9354118446312398e+01 
592 194 2 1.0279993729924295e+00 5.1634180941739169e+02 1.0000000000000000e+00 8.0616685178129526e+00 1.8540534114555371e+01 8.9319860428599554e+01 
741 343 2 1.0279998391649434e+00 -2.8276622127389273e+03 1.0000000000000000e+00 8.3164743168901527e+00 1.7258616606503676e+01 8.9736871812246889e+01 
2040 1642 2 1.0279995281269629e+00 -9.5223551572071447e+03 1.0000000000000000e+00 8.3838842910375533e+00 1.7164209099090137e+01 8.9738502115783248e+01 
1991 1593 2 1.0279992223742951e+00 -8.2504533314500750e+03 1.0000000000000000e+00 8.4965423187297002e+00 1.6995547667327052e+01 8.9770517799054176e+01 
1037 639 2 1.0280003672596845e+00 4.1794366978010485e+03 1.0000000000000000e+00 8.3398684821007709e+00 1.8620296213119953e+01 8.9010936965354077e+01 
1541 1143 2 1.0280003549906307e+00 4.1794965239889571e+03 1.0000000000000000e+00 8.3310451753734220e+00 1.9630646311818733e+01 8.9027303513056381e+01 
1522 1124 2 1.0279985632540147e+00 1.2443320049030968e+04 1.0000000000000000e+00 8.6415583770416919e+00 1.7121017624008733e+01 8.9496505563929261e+01 
1334 936 2 1.0280003284501127e+00 -2.1731943199965635e+03 1.0000000000000000e+00 8.8131811943366518e+00 1.6666535975799494e+01 8.9796510641876836e+01 
557 159 2 1.0279994011136337e+00 -5.4292845551206783e+03 1.0000000000000000e+00 8.9529217095217994e+00 1.6521683642543493e+01 8.9838733090578543e+01 
1992 1594 2 1.0279993678035897e+00 -9.7918157656452549e+03 1.0000000000000000e+00 9.0082095516738274e+00 1.6470478504657457e+01 8.9852135243297752e+01 
777 379 2 1.0279989408844890e+00 -2.0109429357518420e+03 1.0000000000000000e+00 9.1162641524338781e+00 1.6582459640742091e+01 8.9625833682630130e+01 
551 153 2 1.0279978535121046e+00 -6.4260671267481011e+03 1.0000000000000000e+00 9.2769301302484148e+00 1.6243621398448752e+01 8.9913688391821367e+01 
970 572 2 1.0280000937465572e+00 1.3183330539282506e+04 1.0000000000000000e+00 9.4520508923176791e+00 1.6085077981388032e+01 8.9987658071890664e+01 
1122 724 2 1.0279982761178357e+00 -3.8746286304812388e+03 1.0000000000000000e+00 9.5585156422100024e+00 1.5986428250884583e+01 9.0042454207856750e+01 
1046 648 2 1.0279983894052342e+00 3.6794821654529765e+03 1.0000000000000000e+00 9.5091369164056854e+00 1.7511224536883631e+01 8.8838515279678788e+01 
433 35 2 1.0279979110540085e+00 -2.8783969640819673e+03 1.0000000000000000e+00 9.6144393183852532e+00 1.5978152696463516e+01 9.0003188278893063e+01 
1832 1434 2 1.0279988552215344e+00 -7.5964325745899605e+03 1.0000000000000000e+00 9.7008564378780111e+00 1.8659187708682072e+01 8.8566072433594400e+01 
656 258 2 1.0279995050724908e+00 -7.5963533916217275e+03 1.0000000000000000e+00 9.7394202573031929e+00 1.9550530871125183e+01 8.8565216841104686e+01 
1532 1134 2 1.0279959845967330e+00 3.5647007304743411e+03 1.0000000000000000e+00 9.8026571105723352e+00 1.5808066121108149e+01 9.0099511442836203e+01 
1869 1471 2 1.0280024950275124e+00 -4.2257113096122812e+03 1.0000000000000000e+00 1.0680878477377195e+01 1.5174667094027818e+01 9.0208939284277463e+01 
561 163 2 1.0280022869011656e+00 -1.2926141102786030e+04 1.0000000000000000e+00 1.1224643822838116e+01 1.5178456516571224e+01 8.9709711649653713e+01 
608 210 2 1.0280034477309672e+00 -5.7287605293238712e+03 1.0000000000000000e+00 1.1139199061254109e+01 1.5248708533548179e+01 8.9704296658932606e+01 
2033 1635 2 1.0280015536972211e+00 -8.4809412145554361e+03 1.0000000000000000e+00 1.1668791988165665e+01 1.5297733225662174e+01 8.9403438085330777e+01 
446 48 2 1.0280030433919110e+00 -8.5833251595513757e+03 1.0000000000000000e+00 1.3890364721252523e+01 1.5816694962008686e+01 8.9288162365631081e+01 
1936 1538 2 1.0280016236181249e+00 -8.0979733361376238e+03 1.0000000000000000e+00 1.1481982484199230e+01 1.5394390323434866e+01 8.9420485761111863e+01 
717 319 2 1.0280053040941242e+00 -1.7412628614266355e+03 1.0000000000000000e+00 1.0147234113859918e+01 1.5464568157393252e+01 9.0352121993413249e+01 
1479 1081 2 1.0279998125680121e+00 1.7666842871138353e+04 1.0000000000000000e+00 1.2163484935354068e+01 1.6595502060268750e+01 8.8922265258121442e+01 
1178 780 2 1.0279992621121607e+00 3.4951756942619381e+03 1.0000000000000000e+00 1.2510247871808833e+01 1.9709927916929757e+01 8.8955402087639357e+01 
1346 948 2 1.0279979258029854e+00 3.4950653791011159e+03 1.0000000000000000e+00 1.2452500984243885e+01 1.8784506864671961e+01 8.8922252302629232e+01 
1305 907 2 1.0280000446875677e+00 8.8631195885351201e+02 1.0000000000000000e+00 1.2735555940417983e+01 1.9038285411566861e+01 8.9004550392674034e+01 
1137 739 2 1.0279981490386687e+00 8.8633947698183545e+02 1.0000000000000000e+00 1.2736222897097250e+01 1.9439317572001162e+01 8.9012624853209473e+01 
1894 1496 2 1.0279994868993998e+00 3.7080454301820073e+03 1.0000000000000000e+00 1.2729628158434034e+01 1.9314581129397624e+01 8.9009213061533814e+01 
1096 698 2 1.0280003014058317e+00 -1.1292733398308271e+03 1.0000000000000000e+00 1.2791884114696257e+01 1.9366205911126677e+01 8.9027464337249370e+01 
1264 866 2 1.0280002468592759e+00 -1.1291444654068457e+03 1.0000000000000000e+00 1.2800573206518672e+01 1.9071763728243869e+01 8.9023830372505728e+01 