LAMMPS data file via write_data, version 30 Jul 2016, timestep = 50400000

4620 atoms
8 atom types

0.0000000000000000e+00 1.0000000000000000e+02 xlo xhi
0.0000000000000000e+00 4.0000000000000000e+01 ylo yhi
0.0000000000000000e+00 4.0000000000000000e+01 zlo zhi

Masses

1 3.896
2 5.36
3 20.064
4 8.378
5 8.378
6 8.378
7 8.378
8 8.378

Atoms # meso-molecular

3027 3028 2 1.0280000000000022e+00 -4.9640603223376803e+02 1.0000000000000000e+00 1.7257708141646280e-04 1.5126443529550373e+01 1.3239312613374439e+00 
3596 3597 2 1.0279999993802791e+00 1.0246355344759218e+02 1.0000000000000000e+00 3.3243317587960263e+01 1.2848648346896665e+01 2.4565244830140971e+00 
578 579 2 1.0279999999999996e+00 2.5280077674058521e+02 1.0000000000000000e+00 2.3199344351656841e+01 1.9692967471158944e+01 4.6890023364116464e+00 
1038 1039 2 1.0279999999999996e+00 4.0814550689304284e+01 1.0000000000000000e+00 2.4478056850806507e+01 1.9366523618196290e+01 4.8504369920149841e+00 
1787 1788 2 1.0280000000000005e+00 -2.9178745144386494e+02 1.0000000000000000e+00 3.1699412554345955e+01 1.3569069173825575e+01 5.2973404341753758e+00 
1788 1789 2 1.0280000000000005e+00 -1.5981352871593737e+02 1.0000000000000000e+00 3.1003545263123222e+01 1.4226901310444443e+01 6.2197058637564293e+00 
2955 2956 2 1.0279999999999994e+00 2.5977809375906895e+02 1.0000000000000000e+00 1.6366098370932541e+01 1.0138610493419257e+01 7.3352285325205617e+00 
1569 1570 2 1.0279999999999994e+00 2.5942939021668013e+02 1.0000000000000000e+00 1.6334017579019928e+01 1.1358498276244774e+01 6.8074245795685560e+00 
2561 2562 2 1.0280000000000002e+00 -1.6705503813793774e+02 1.0000000000000000e+00 1.4028987695570953e+01 1.9463363345863890e+01 7.3977362378095251e+00 
3900 3901 2 1.0280000000000000e+00 2.6628620753651211e+02 1.0000000000000000e+00 4.8968163397573461e+00 7.7869559002880639e-01 9.5347211884068521e+00 
4363 4364 2 1.0280000000000000e+00 5.2108577737738256e+02 1.0000000000000000e+00 4.4721977829023292e+00 1.9669609720716459e+00 9.9535968927170924e+00 
3829 3830 2 1.0280000000000007e+00 7.6482303768159369e+01 1.0000000000000000e+00 1.6431130583606732e+00 1.8227796344878239e+01 8.5024174400283989e+00 
3784 3785 2 1.0280000000000007e+00 4.2522069117318188e+02 1.0000000000000000e+00 2.8168882500142587e+00 1.8693826626894065e+01 8.9181095957774428e+00 
289 290 2 1.0280000000000005e+00 5.0850549419223330e+02 1.0000000000000000e+00 3.0012685116751289e+01 1.9713128510467082e+00 1.0564822620626998e+01 
750 751 2 1.0280000000000005e+00 2.5217815836846017e+02 1.0000000000000000e+00 2.8835512342238459e+01 2.0426597208935910e+00 1.1178749550934887e+01 
959 960 2 1.0280000000000002e+00 1.2575544780293222e+02 1.0000000000000000e+00 4.2427173612610183e+00 1.0357902407862193e+01 1.2938416185730659e+01 
1874 1875 2 1.0280000000000002e+00 -2.6560508547646884e+02 1.0000000000000000e+00 5.1862943032023239e+00 1.0745503660934402e+01 1.3791153082963328e+01 
4493 4494 2 1.0279999999999998e+00 4.3871806955627306e+01 1.0000000000000000e+00 3.0948334136871782e+01 1.8513160363521340e+01 1.4069677856765734e+01 
2687 2688 2 1.0279999999999998e+00 1.4564902711352143e+01 1.0000000000000000e+00 3.2028326921468043e+01 1.9217274753038183e+01 1.3744761091510703e+01 
3068 3069 2 1.0280000000000000e+00 -3.9388813007006502e+02 1.0000000000000000e+00 1.1219876983325573e+01 4.9547729062000263e+00 1.9463442785238900e+01 
3109 3110 2 1.0280000000000000e+00 -1.9738519872972711e+02 1.0000000000000000e+00 1.0934448498677860e+01 6.1622612654801934e+00 1.9941182081302195e+01 
2365 2366 2 1.0280000000000009e+00 2.5353190368086899e+02 1.0000000000000000e+00 3.1714701332978002e+01 7.7136932386248374e+00 2.0149878168389773e+01 
2323 2324 2 1.0280000000000009e+00 -2.8900536890023398e+02 1.0000000000000000e+00 3.2714425056281755e+01 7.4407841182532861e+00 2.0982828035866895e+01 
2401 2402 2 1.0280000000000002e+00 1.2466223580025865e+01 1.0000000000000000e+00 4.3081916170788910e+00 1.8184732300920309e+01 2.2904110938680834e+01 
206 207 2 1.0279999999999994e+00 -2.3383622643947979e+02 1.0000000000000000e+00 1.2942013757967832e+01 8.6324211262067472e+00 2.4345296625863615e+01 
124 125 2 1.0279999999999994e+00 -4.5571209924374426e+02 1.0000000000000000e+00 1.2811167684042170e+01 9.7855485932765518e+00 2.4994071426758250e+01 
972 973 2 1.0280000000000002e+00 4.8958310702010948e+01 1.0000000000000000e+00 2.2955462635177568e+01 8.6316176403411635e+00 2.4293505184724328e+01 
2271 2272 2 1.0280000000000005e+00 -2.3214354633615875e+02 1.0000000000000000e+00 3.3121412928661321e+01 1.1044570525796669e+01 2.3539140953574968e+01 
1846 1847 2 1.0279999999999998e+00 -2.5343378676894937e+02 1.0000000000000000e+00 1.0894068490842537e+01 1.4888845059558083e+01 2.4588692624255675e+01 
2306 2307 2 1.0279999999999998e+00 -1.1864160765163916e+02 1.0000000000000000e+00 9.6013694816473780e+00 1.5167811470932353e+01 2.4725949338478582e+01 
4333 4334 2 1.0280000000000002e+00 2.3352800032947401e+00 1.0000000000000000e+00 5.3516119531040056e+00 1.7596872001656102e+01 2.3481542028566619e+01 
4070 4071 2 1.0280000000000014e+00 4.1970988817351349e+02 1.0000000000000000e+00 2.8384718725416366e+01 1.6713060426944434e+01 2.3456970528225916e+01 
3857 3858 2 1.0280000000000014e+00 -2.5784407746477757e+02 1.0000000000000000e+00 2.8741517538268770e+01 1.6725972718233951e+01 2.4737696991030997e+01 
1475 1476 2 1.0280000000000002e+00 -3.6046066520261650e+02 1.0000000000000000e+00 2.2849353707900157e+01 7.9880605124674569e+00 2.5452085139394455e+01 
2144 2145 2 1.0279999999999978e+00 -3.4668651434507115e+02 1.0000000000000000e+00 3.1429462895598174e+01 1.8751016770638127e+01 2.5072386747794845e+01 
1219 1220 2 1.0279999999999978e+00 -2.0829258473063018e+02 1.0000000000000000e+00 3.2758469799611099e+01 1.8769453678650677e+01 2.5038724867909963e+01 
1471 1472 2 1.0280000000000002e+00 -1.9959735175600497e+02 1.0000000000000000e+00 3.0541636786641573e+00 1.0840150604302082e+01 2.6982644648271812e+01 
1514 1515 2 1.0280000000000002e+00 -3.9464293525445402e+02 1.0000000000000000e+00 3.4582861134330507e+00 1.1735029528127134e+01 2.7879087151759141e+01 
2363 2364 2 1.0280000000000000e+00 3.5108788406012843e+02 1.0000000000000000e+00 2.2675744496807493e+01 1.2245079253048171e+01 2.8303237243508935e+01 
3709 3710 2 1.0280000000000000e+00 -1.1816128960923368e+02 1.0000000000000000e+00 2.2449200452764892e+01 1.3336553874149375e+01 2.7578603998170813e+01 
550 551 2 1.0280000000000009e+00 4.2478457343914943e+02 1.0000000000000000e+00 2.9073856975224246e+01 1.6389518450551680e+01 2.9638690789975019e+01 
4412 4413 2 1.0280000000000011e+00 -3.0706568159994117e+02 1.0000000000000000e+00 2.3449596466215592e+01 1.8037017874034163e+01 2.9834194839655058e+01 
595 596 2 1.0280000000000009e+00 7.5313335834639844e+01 1.0000000000000000e+00 2.8190098917230923e+01 1.7380662394618906e+01 2.9704552536984821e+01 
3950 3951 2 1.0280000000000011e+00 8.7628474178568126e+01 1.0000000000000000e+00 2.3430581618539293e+01 1.8583066192779537e+01 3.1046301296123154e+01 
380 381 2 1.0280000000000000e+00 -3.5674184999094484e+02 1.0000000000000000e+00 1.1891036469559029e+00 1.0873680976979674e+01 3.2888956474967564e+01 
381 382 2 1.0280000000000000e+00 -2.2462873909133071e+02 1.0000000000000000e+00 2.2396034436765282e+00 1.0443256572857464e+01 3.2196917890729360e+01 
418 419 2 1.0280000000000000e+00 -2.1641559362416677e+02 1.0000000000000000e+00 2.2005004661994871e+01 5.9474201369719495e+00 3.5536776555030315e+01 
419 420 2 1.0280000000000000e+00 -3.5015956296159959e+02 1.0000000000000000e+00 2.1257493882988868e+01 7.0464375761510620e+00 3.5503299752637062e+01 
1885 1886 2 1.0280000000000000e+00 -1.2170575642297803e+02 1.0000000000000000e+00 2.1407272702642256e+01 1.2983400687421744e+01 3.8079269045127269e+01 
1425 1426 2 1.0280000000000000e+00 3.0618248692836181e+02 1.0000000000000000e+00 2.2009334767626605e+01 1.3816156690424398e+01 3.7235603766703250e+01 
3780 3781 2 1.0280002575315352e+00 -2.3753768668056034e+02 1.0000000000000000e+00 1.1065695884917409e+01 1.8205664232487070e+01 3.7807673906249072e+01 
4026 4027 2 1.0279997419365208e+00 7.8218620752658182e+01 1.0000000000000000e+00 1.0621611084204213e+01 1.6440835874049551e+01 3.8604514388945148e+01 
4071 4072 2 1.0280002575315474e+00 4.2882845854662150e+02 1.0000000000000000e+00 9.8873065221210599e+00 1.7087750184639425e+01 3.9528201059438572e+01 
3318 3319 2 1.0279997419365003e+00 -3.3082957294968276e+02 1.0000000000000000e+00 1.0530017502337662e+01 1.8845977217367373e+01 3.8863110466265752e+01 
294 295 2 1.0280000000000000e+00 4.2982623704417222e+02 1.0000000000000000e+00 2.1105833507832884e+01 2.8755492792896021e+01 1.4240903970057437e+00 
255 256 2 1.0280000000000002e+00 -3.9825209127469250e+01 1.0000000000000000e+00 5.1298991994523622e+00 3.8825221754880566e+01 1.0676917974862559e+00 
798 799 2 1.0280000000000000e+00 -1.4844355173499945e+01 1.0000000000000000e+00 2.0483754154942844e+01 2.9806359766836454e+01 1.9498548636993744e+00 
1222 1223 2 1.0280000000000002e+00 -8.1137762699921063e+02 1.0000000000000000e+00 5.2575428351261735e+00 3.9830257334458025e+01 1.9287045608665809e+00 
2724 2725 2 1.0279999999999994e+00 -2.5534246585319920e+01 1.0000000000000000e+00 6.6347364671531723e+00 2.9853127130044619e+01 4.6723447324345768e+00 
1087 1088 2 1.0280000000000000e+00 1.5610263049952016e+02 1.0000000000000000e+00 3.2637519607820195e+01 3.8072616394451238e+01 3.5715401546538463e+00 
2766 2767 2 1.0279999999999994e+00 6.1671593610175734e+01 1.0000000000000000e+00 7.5728610739482365e+00 3.0605882493924593e+01 5.2389256859831344e+00 
3023 3024 2 1.0280000000000002e+00 -2.8967925431036008e+02 1.0000000000000000e+00 1.4612796942538413e+01 2.0614341590064374e+01 7.7173426163142551e+00 
1878 1879 2 1.0279999999999996e+00 -2.8680839666584177e+02 1.0000000000000000e+00 1.9692297924559124e+01 2.3294051768839694e+01 7.1386288107311744e+00 
1422 1423 2 1.0280000000000002e+00 1.4129016278579154e+01 1.0000000000000000e+00 2.9032373201803360e+01 2.3122870765072928e+01 7.6877655817330934e+00 
1420 1421 2 1.0280000000000002e+00 -2.7589846916541342e+02 1.0000000000000000e+00 3.0250120076379112e+01 2.3235000519197175e+01 7.1659879850987860e+00 
1920 1921 2 1.0279999999999996e+00 2.6353528716633525e+02 1.0000000000000000e+00 2.0354124561575720e+01 2.4424965363094746e+01 7.3639116052647982e+00 
1765 1766 2 1.0280000000000000e+00 1.7083875827703568e+02 1.0000000000000000e+00 1.1198907527343021e+01 2.8827742219144923e+01 6.7259417444673719e+00 
2227 2228 2 1.0280000000000000e+00 -4.4342250741947873e+02 1.0000000000000000e+00 1.1272485381208700e+01 2.9270473032999298e+01 7.9774640648967026e+00 
4492 4493 2 1.0280000149829032e+00 -2.1552933603529485e+02 1.0000000000000000e+00 3.3074036149236882e+01 3.6515554376297636e+01 9.2323615445374489e+00 
3817 3818 2 1.0279999931884722e+00 2.5454819083694574e+01 1.0000000000000000e+00 3.3313425100023800e+01 3.8585966326289366e+01 9.9003243169397681e+00 
1515 1516 2 1.0279999999999996e+00 -7.9477403258440495e+02 1.0000000000000000e+00 2.5276522251346730e+01 2.0955950242239279e+01 1.1338391783842022e+01 
1557 1558 2 1.0279999999999996e+00 -4.9497763381641613e+02 1.0000000000000000e+00 2.6295080149042615e+01 2.0148553857061565e+01 1.1618361923127900e+01 
2775 2776 2 1.0279999999999996e+00 -2.5347511651926129e+02 1.0000000000000000e+00 1.0332246536677497e+01 2.2097000200358650e+01 1.1420380578153168e+01 
2315 2316 2 1.0279999999999996e+00 -1.1779547067706383e+02 1.0000000000000000e+00 1.1589511864652978e+01 2.1673484670292893e+01 1.1507849907133561e+01 
1979 1980 2 1.0280000000000009e+00 5.4669011717069589e+00 1.0000000000000000e+00 3.4755770321242672e+00 2.0292236816845673e+01 1.3069554417304156e+01 
127 128 2 1.0280000000000009e+00 7.1279511081123317e+01 1.0000000000000000e+00 3.4412592576866219e+00 2.0035469253328120e+01 1.1765474242878000e+01 
505 506 2 1.0280000000000005e+00 -2.4079023278152860e+02 1.0000000000000000e+00 2.0455493529397547e+01 3.1433408953257874e+01 1.3123382897707522e+01 
4243 4244 2 1.0280000000000031e+00 -2.7228162037882237e+02 1.0000000000000000e+00 1.8696940919497113e+01 3.6777717002885630e+01 1.3056018823365756e+01 
2774 2775 2 1.0280000000000031e+00 1.4495058686182657e+02 1.0000000000000000e+00 1.9824318596566386e+01 3.7284321499318466e+01 1.2566014894719913e+01 
4067 4068 2 1.0279999999999996e+00 -8.8401051535462045e+01 1.0000000000000000e+00 2.3277876001409084e+01 2.3317334663512376e+01 1.4741541654125921e+01 
4068 4069 2 1.0279999999999996e+00 3.3426264352054460e+02 1.0000000000000000e+00 2.3074221283454978e+01 2.4032293777529862e+01 1.3639230167391423e+01 
967 968 2 1.0280000000000005e+00 -3.3357573013981164e+02 1.0000000000000000e+00 1.9756229085485131e+01 3.0724729670908609e+01 1.4004595303939549e+01 
1010 1011 2 1.0279999999999996e+00 3.9469274541477080e+02 1.0000000000000000e+00 2.7049097662738593e+01 3.4448343914001228e+01 1.3887973134689613e+01 
1052 1053 2 1.0279999999999996e+00 5.2953677805188522e+02 1.0000000000000000e+00 2.7287047062691325e+01 3.3898009552297715e+01 1.5074667942143904e+01 
1734 1735 2 1.0280000000000002e+00 -1.3257551908914837e+02 1.0000000000000000e+00 2.5054107349547611e+01 2.2918842928434529e+01 1.7749597646571967e+01 
299 300 2 1.0280000000000002e+00 -3.0673438141101440e+02 1.0000000000000000e+00 2.6097118540739700e+01 2.2180259624888546e+01 1.7383053308981530e+01 
1865 1866 2 1.0279999999999967e+00 -2.5240494925750423e+02 1.0000000000000000e+00 1.9405282262558611e+01 2.4138531589938150e+01 1.8689052593850537e+01 
2285 2286 2 1.0279999999999967e+00 -2.7146854381587707e+02 1.0000000000000000e+00 2.0181779709785371e+01 2.5131117864715709e+01 1.9112793781631485e+01 
1600 1601 2 1.0280000000000016e+00 -3.9390026235096013e+02 1.0000000000000000e+00 2.8061305247017685e+01 2.6926033877487640e+01 1.9845981760078786e+01 
1137 1138 2 1.0280000000000016e+00 3.7804561414035072e+02 1.0000000000000000e+00 2.8927692006309162e+01 2.6981917001434351e+01 1.8839014306567595e+01 
339 340 2 1.0279999999999991e+00 -4.5545803839044561e+02 1.0000000000000000e+00 3.4810635645394541e+00 3.4350667968110244e+01 2.1319347287693905e+01 
999 1000 2 1.0280000000000000e+00 3.3745268643191542e+02 1.0000000000000000e+00 4.6528477313613426e+00 3.8026359285972141e+01 2.0028429067421250e+01 
537 538 2 1.0280000000000000e+00 2.6861351841007757e+02 1.0000000000000000e+00 4.7059727450887072e+00 3.9233340117394071e+01 2.0583503295020538e+01 
3227 3228 2 1.0279999999999991e+00 -2.7953742723373250e+02 1.0000000000000000e+00 2.6432810300330900e+01 3.0569686036272049e+01 2.2698454709507885e+01 
257 258 2 1.0279999999999991e+00 -2.3802082445820994e+02 1.0000000000000000e+00 3.6959362134648339e+00 3.4601480783068588e+01 2.2607235120249566e+01 
1262 1263 2 1.0280000000000005e+00 4.0919150179279848e+02 1.0000000000000000e+00 1.0012658185821747e+01 2.5673273303214231e+01 2.3952985015020953e+01 
1220 1221 2 1.0280000000000005e+00 5.4144011100961234e+02 1.0000000000000000e+00 1.0665985991094445e+01 2.5115449670325354e+01 2.4967740141195080e+01 
4151 4152 2 1.0279999999999991e+00 -2.5539104503474391e+02 1.0000000000000000e+00 2.7186812910286854e+01 3.0563063306292957e+01 2.3793520276620509e+01 
3325 3326 2 1.0280000000000005e+00 -4.7748004515790603e+02 1.0000000000000000e+00 2.3823773243354207e+01 3.5734336407733558e+01 2.4660867992876476e+01 
4616 4617 2 1.0280000000000005e+00 6.8492835004161952e+02 1.0000000000000000e+00 2.1248887472134957e+01 2.2851849991434683e+01 2.5056948326500724e+01 
4527 4528 2 1.0280000000000005e+00 4.6043436476992611e+02 1.0000000000000000e+00 2.0792816858660789e+01 2.3340504179723400e+01 2.6206273812358251e+01 
598 599 2 1.0280000000000000e+00 -3.6822093915634025e+02 1.0000000000000000e+00 2.1125667089171287e+01 3.0529400752081546e+01 2.6101120166182753e+01 
1056 1057 2 1.0280000000000000e+00 1.5790458983723948e+02 1.0000000000000000e+00 2.2289644673001835e+01 3.1162552618986446e+01 2.6210697948708656e+01 
3745 3746 2 1.0280000000000005e+00 -2.8541105409149043e+02 1.0000000000000000e+00 2.4783169206484839e+01 3.6030973939885719e+01 2.5532245037040351e+01 
1903 1904 2 1.0280000000000000e+00 2.5096666688990888e+02 1.0000000000000000e+00 1.0613477236454607e+01 3.7739063997050017e+01 2.5529185164085845e+01 
1861 1862 2 1.0280000000000000e+00 -2.8567681971073409e+02 1.0000000000000000e+00 1.1889572114781812e+01 3.7996909719638040e+01 2.5799055202249750e+01 
2764 2765 2 1.0279999999999987e+00 -2.4896596661698078e+02 1.0000000000000000e+00 2.5985102421976670e+01 2.5086072206871979e+01 2.7956821011047452e+01 
3908 3909 2 1.0280000000000020e+00 -1.2167932564703160e+03 1.0000000000000000e+00 2.2130174373117367e+01 3.7116231334486507e+01 2.8033248964033852e+01 
2603 2604 2 1.0280000000000027e+00 6.9434948999385355e+01 1.0000000000000000e+00 2.6016165140008194e+01 2.0441998761008488e+01 2.9599141255981575e+01 
3065 3066 2 1.0280000000000027e+00 -3.9071072313109369e+02 1.0000000000000000e+00 2.6147944699400671e+01 2.1693113411034282e+01 2.9168933547001838e+01 
2765 2766 2 1.0279999999999987e+00 1.5937412626636865e+02 1.0000000000000000e+00 2.5484538879970486e+01 2.4247324879535302e+01 2.8858858401596351e+01 
3240 3241 2 1.0279999999999998e+00 -1.1128639910424053e+02 1.0000000000000000e+00 1.4179007625367932e+01 3.0372448828263039e+01 2.9503391455781845e+01 
3707 3708 2 1.0279999999999998e+00 -2.9687643963901189e+02 1.0000000000000000e+00 1.4948221105996357e+01 3.0121807111557246e+01 2.8448298216435326e+01 
1395 1396 2 1.0279999999999978e+00 -2.7354202538163986e+02 1.0000000000000000e+00 1.9748104321908155e+01 3.1267528453932790e+01 2.9954553858563315e+01 
1393 1394 2 1.0279999999999978e+00 1.5899488204454542e+01 1.0000000000000000e+00 2.1000623078359091e+01 3.0943643643415701e+01 2.9647914352133736e+01 
4035 4036 2 1.0280000000000020e+00 2.3149262374823547e+02 1.0000000000000000e+00 2.3084030876378943e+01 3.7894961708686509e+01 2.8534715980030281e+01 
2438 2439 2 1.0279999999999998e+00 -3.3919101100308421e+02 1.0000000000000000e+00 1.6741503106995179e+01 2.1504648896852157e+01 3.1236168239723927e+01 
3361 3362 2 1.0279999999999998e+00 -1.9696366015589126e+02 1.0000000000000000e+00 1.6329268434792318e+01 2.2062238972563339e+01 3.0101757258134516e+01 
2452 2453 2 1.0279999999999987e+00 3.9406446820886906e+01 1.0000000000000000e+00 3.2764312191258931e+01 2.4966938698611219e+01 3.2769763210596139e+01 
756 757 2 1.0280000000000002e+00 5.2953418832939590e+01 1.0000000000000000e+00 4.4035534771637170e+00 3.1641719644480958e+01 3.2888747418525853e+01 
842 843 2 1.0279999999999994e+00 1.4510089256766767e+03 1.0000000000000000e+00 9.2768712827933104e+00 2.0993754947167304e+01 3.4205077527895895e+01 
1305 1306 2 1.0279999999999994e+00 3.2249132859768395e+02 1.0000000000000000e+00 8.9673094075445583e+00 2.2276007961426203e+01 3.4038551117183054e+01 
956 957 2 1.0280000000000005e+00 5.5998123773162467e+02 1.0000000000000000e+00 3.2553444834961496e+01 3.0454692066047194e+01 3.3721763392035740e+01 
715 716 2 1.0280000000000002e+00 5.6984573792036414e+01 1.0000000000000000e+00 5.0459296696358669e+00 3.2420734284716460e+01 3.3753745343547749e+01 
3955 3956 2 1.0279999999999996e+00 2.5742838016558994e+02 1.0000000000000000e+00 1.1384692370884359e+01 3.8180381935614911e+01 3.5673727430564483e+01 
3120 3121 2 1.0279999999999996e+00 -1.3162326465642701e+02 1.0000000000000000e+00 1.2681323692852564e+01 3.8080881630251092e+01 3.5396997784931877e+01 
2348 2349 2 1.0279999999999989e+00 -1.1816666936693352e+02 1.0000000000000000e+00 2.6107374176178546e+01 3.7611940849811084e+01 3.5323836588832783e+01 
2812 2813 2 1.0279999999999989e+00 -2.5382338501468973e+02 1.0000000000000000e+00 2.7387123883694933e+01 3.7551517815779775e+01 3.5679254843454899e+01 
3159 3160 2 1.0279999999999949e+00 -1.3772610364313999e+02 1.0000000000000000e+00 3.2731585988073839e+01 3.8811398614282346e+01 3.5947924491228576e+01 
3241 3242 2 1.0279981542430718e+00 1.1473483441635756e+02 1.0000000000000000e+00 1.1810393954583551e+00 2.5748999328024336e+01 3.8702900689786397e+01 
931 932 2 1.0280018627063137e+00 1.0761309725319221e+02 1.0000000000000000e+00 8.2162464195932294e-01 2.6723326276066842e+01 3.9533111495884476e+01 
3570 3571 2 1.0279999913095561e+00 -1.9774840211264677e+02 1.0000000000000000e+00 3.7712473575711442e+01 4.3171614698697536e-01 7.8499734152464640e-01 
552 553 2 1.0280000310741602e+00 2.5848243874221520e+01 1.0000000000000000e+00 4.0511764649037602e+01 1.4989348358446390e+00 1.5019331637160345e+00 
4038 4039 2 1.0279999812993967e+00 2.0809985393971015e+01 1.0000000000000000e+00 4.1871328425379119e+01 1.3792401735735995e+00 6.2556919334942673e-01 
1976 1977 2 1.0280000003202681e+00 -3.3993634588181408e+02 1.0000000000000000e+00 4.5716937538953381e+01 9.2012605002142323e-01 1.2661242253797746e+00 
2497 2498 2 1.0280000001669838e+00 4.7335150591498314e+02 1.0000000000000000e+00 5.1523597458756740e+01 1.0011107370198753e+00 2.4323351693950720e-01 
1127 1128 2 1.0280000001514686e+00 -3.9789546615966429e+01 1.0000000000000000e+00 5.5027209567724114e+01 1.5940609612754411e+00 9.1609314633205685e-01 
2055 2056 2 1.0280000001603082e+00 2.0621016091950131e+02 1.0000000000000000e+00 5.5506767221653682e+01 1.4547763600640473e-01 9.7324086858075698e-01 
540 541 2 1.0279999963838660e+00 -2.9210130436914324e+02 1.0000000000000000e+00 5.8000361206588096e+01 3.7472957121771244e-01 4.9393757737584182e-01 
2645 2646 2 1.0280000098808846e+00 -3.3988607315487656e+02 1.0000000000000000e+00 3.7460888715276546e+01 2.1393285634064982e+00 7.6559902333430951e-01 
214 215 2 1.0280000019034941e+00 3.3385822227643956e+01 1.0000000000000000e+00 3.8729965675331073e+01 3.3320857598554907e+00 5.3447084617608742e-01 
135 136 2 1.0279999949028624e+00 -6.2678060628519191e+01 1.0000000000000000e+00 4.5387763331151632e+01 3.3057895911047463e+00 7.2666269410104056e-01 
1100 1101 2 1.0279999962312703e+00 -3.0037258077736563e+01 1.0000000000000000e+00 4.6556841679336067e+01 1.9512958635150326e+00 2.8325155601280549e-01 
1106 1107 2 1.0279999992840696e+00 6.4893901496366055e+01 1.0000000000000000e+00 4.9579206971845871e+01 2.5627350564064555e+00 1.0741472869496045e+00 
658 659 2 1.0280000002138512e+00 2.4890304938345189e+01 1.0000000000000000e+00 5.2707091786655965e+01 1.8950455022247727e+00 1.2299610734052402e+00 
1121 1122 2 1.0279999987750459e+00 6.3193284440305469e+01 1.0000000000000000e+00 5.2828049157517782e+01 3.2053167505518534e+00 3.4870846834212688e-01 
1588 1589 2 1.0280000000706147e+00 5.3652279688309545e+02 1.0000000000000000e+00 5.4034571822934581e+01 2.8267938901291370e+00 1.4317894011113372e+00 
249 250 2 1.0279999996953177e+00 3.3106522482980836e+01 1.0000000000000000e+00 3.8525266335333320e+01 4.7448395649903023e+00 1.3503838570520625e+00 
497 498 2 1.0279999869923993e+00 -2.4743974614875796e+02 1.0000000000000000e+00 4.3036406898824104e+01 4.3109720810717755e+00 4.2099592558400500e-01 
1562 1563 2 1.0280000057117096e+00 3.6818131903629580e+02 1.0000000000000000e+00 4.6838545715531879e+01 3.7820702152949250e+00 6.4662972065804725e-01 
645 646 2 1.0279999976077392e+00 1.8208119290666939e+01 1.0000000000000000e+00 4.8448069896412484e+01 4.2818663971478639e+00 9.4036722414496321e-01 
2019 2020 2 1.0280000013747086e+00 5.2918044067704557e+02 1.0000000000000000e+00 4.1735848814006729e+01 5.5343524511816975e+00 1.6458263565222650e-01 
641 642 2 1.0280000018786233e+00 6.5492574990569312e+02 1.0000000000000000e+00 4.8162483369920231e+01 6.6204492504026016e+00 3.4212641141309247e-01 
662 663 2 1.0279999978499370e+00 6.5005330391317921e+02 1.0000000000000000e+00 5.4776205417388333e+01 6.2772579274040368e+00 1.1135372649444379e+00 
663 664 2 1.0280000019885738e+00 4.4342014129891783e+02 1.0000000000000000e+00 5.6269695169802254e+01 6.4649454442466627e+00 1.6943736953959834e-01 
2035 2036 2 1.0280000070992690e+00 4.7887635504174938e+02 1.0000000000000000e+00 4.9850047272415047e+01 7.1501426363026628e+00 3.5386044698036856e-01 
69 70 2 1.0280000051809071e+00 1.3972149703784299e+02 1.0000000000000000e+00 5.1689639802635114e+01 7.3175145369966108e+00 4.8397059967969414e-01 
1538 1539 2 1.0280000020646720e+00 5.5352378530270364e+01 1.0000000000000000e+00 5.3183853865404174e+01 7.1610075205777504e+00 1.3653529838502902e+00 
26 27 2 1.0280000081940937e+00 -2.1486926556135879e+02 1.0000000000000000e+00 6.6571432132376344e+01 8.0581933921587741e+00 6.4290072787850228e-01 
1101 1102 2 1.0280000005062120e+00 1.3649094670756867e+02 1.0000000000000000e+00 4.3412259176752933e+01 8.6167556529751987e+00 9.4997826599091850e-01 
181 182 2 1.0279999997216471e+00 1.1828031836255701e+02 1.0000000000000000e+00 4.4585128405558841e+01 8.8308739897033082e+00 1.1722626753527892e-03 
56 57 2 1.0280000005868106e+00 1.4201280520970409e+01 1.0000000000000000e+00 4.6135141656790019e+01 8.5420882649807801e+00 8.6357809459654067e-01 
564 565 2 1.0280000006113965e+00 -2.3587649619713446e+02 1.0000000000000000e+00 4.8600590622723821e+01 9.8470843020122167e+00 8.9617343907648128e-01 
1537 1538 2 1.0279999978136505e+00 1.5240081594305730e+02 1.0000000000000000e+00 5.3413918020528399e+01 9.0677246287612068e+00 1.5262631755295117e+00 
1129 1130 2 1.0279999952243575e+00 8.0397337552749252e+02 1.0000000000000000e+00 5.8440677445571417e+01 9.8214658183419399e+00 1.0527168125558084e-01 
174 175 2 1.0280000000874241e+00 5.3256452967103235e+02 1.0000000000000000e+00 6.1319650320609092e+01 9.1314528127367165e+00 1.3325274443963029e+00 
106 107 2 1.0279999950719165e+00 3.4363300560984987e+02 1.0000000000000000e+00 6.5790267704088009e+01 8.8583747192425104e+00 1.5232814677934072e+00 
2021 2022 2 1.0280000010691825e+00 1.3147403814256637e+02 1.0000000000000000e+00 4.0876252423258904e+01 1.0392785625870177e+01 1.2832370382556677e+00 
474 475 2 1.0280000007823640e+00 3.0254252127069532e+02 1.0000000000000000e+00 4.3300034258302823e+01 1.0684484139858334e+01 5.3167985498176362e-01 
1063 1064 2 1.0279999992387991e+00 9.9861186804703586e+00 1.0000000000000000e+00 4.4957552865619157e+01 1.0560949482099435e+01 5.2341307817533578e-01 
1530 1531 2 1.0280000002749319e+00 1.1962029200278909e+02 1.0000000000000000e+00 4.6840302910761523e+01 1.0033694725413506e+01 1.2833080983809595e+00 
608 609 2 1.0280000001398726e+00 -1.9855569691445510e+02 1.0000000000000000e+00 4.9201485776115135e+01 1.1396821448293659e+01 9.9412868682796374e-01 
1575 1576 2 1.0280000001845335e+00 3.9708364727048217e+02 1.0000000000000000e+00 5.0574355745793625e+01 1.1527718364900227e+01 4.0561579625913791e-01 
108 109 2 1.0280000014471575e+00 1.1170646993415001e+02 1.0000000000000000e+00 5.2262543027807901e+01 1.0364130900512427e+01 1.5448917178510209e+00 
570 571 2 1.0279999981864583e+00 9.7273557521476232e+02 1.0000000000000000e+00 5.2898492000641873e+01 1.1191209801843065e+01 5.4033735429857628e-02 
574 575 2 1.0280000020579962e+00 6.0919574317973206e+02 1.0000000000000000e+00 5.4104627134729675e+01 1.0038794512706726e+01 5.3022895430712047e-01 
198 199 2 1.0280000012992978e+00 1.1398472744635954e+02 1.0000000000000000e+00 5.7705342994673927e+01 1.0518916750209678e+01 1.3933521261124839e+00 
4278 4279 2 1.0280000111138035e+00 5.1372698333802681e+01 1.0000000000000000e+00 6.0604702492062835e+01 1.1165367021686281e+01 2.8852788115862904e-01 
91 92 2 1.0280000000858580e+00 4.9716803598399494e+01 1.0000000000000000e+00 4.1891158775495285e+01 1.2308195290724926e+01 1.1290765836695056e+00 
944 945 2 1.0280000000717202e+00 2.5946909004367035e+02 1.0000000000000000e+00 4.6656420322773158e+01 1.1787529796106897e+01 9.6071885481768082e-01 
611 612 2 1.0280000026746821e+00 -9.3744828255102561e+01 1.0000000000000000e+00 5.2213370465677947e+01 1.2358144938658128e+01 9.8731731821293978e-01 
615 616 2 1.0280000003750716e+00 -4.6256024677906828e+02 1.0000000000000000e+00 5.3979446594645566e+01 1.2523071205143003e+01 5.0865137466996868e-01 
618 619 2 1.0280000052471048e+00 -3.2149235899192865e+02 1.0000000000000000e+00 5.6132201314430802e+01 1.2552555571775203e+01 5.3192079764820421e-01 
1546 1547 2 1.0280000129315687e+00 -6.5955735641327658e+02 1.0000000000000000e+00 5.7723335279437393e+01 1.2483945965225322e+01 4.3696576453215985e-01 
177 178 2 1.0279999997298404e+00 2.3980307886721454e+02 1.0000000000000000e+00 4.2560261528850965e+01 1.3514137861444855e+01 6.9441204698735359e-01 
653 654 2 1.0279999992318507e+00 2.9942733186846584e+02 1.0000000000000000e+00 5.1689316635972276e+01 1.4196206355504094e+01 9.9530133962610157e-01 
991 992 2 1.0279999979843788e+00 1.3709320636747083e+02 1.0000000000000000e+00 5.4507053132899372e+01 1.4646153277930416e+01 1.2757477436807660e+00 
1083 1084 2 1.0280000039418720e+00 1.1928199966722811e+02 1.0000000000000000e+00 5.5601409936081858e+01 1.4144154629914114e+01 1.6258146777284785e-01 
577 578 2 1.0279999981301247e+00 2.3898787269041821e+02 1.0000000000000000e+00 5.7154462898770319e+01 1.4458393187237672e+01 1.3957912420613647e+00 
215 216 2 1.0279998357769846e+00 -2.2609847808314584e+02 1.0000000000000000e+00 4.0585188075842389e+01 1.6343914181018100e+01 1.4548521685021907e+00 
1392 1393 2 1.0279999999336085e+00 -3.3406671521401120e+02 1.0000000000000000e+00 4.2920236096026287e+01 1.5896448688349198e+01 5.3678043408143172e-01 
52 53 2 1.0280000030398164e+00 2.2279330697490019e+02 1.0000000000000000e+00 4.4616414968852872e+01 1.5787185297015705e+01 9.9933526700766037e-02 
982 983 2 1.0279999998712472e+00 1.4833890510567929e+02 1.0000000000000000e+00 4.8397514857211128e+01 1.5501693787248538e+01 7.6706474520439238e-01 
527 528 2 1.0279999994009414e+00 1.4269405437470741e+02 1.0000000000000000e+00 5.1695667224935313e+01 1.6181557165486211e+01 9.2578872902011766e-01 
1078 1079 2 1.0280000068684390e+00 3.6649259049072191e+02 1.0000000000000000e+00 5.3153847747959780e+01 1.5287323520460259e+01 7.1124358441902913e-01 
119 120 2 1.0279999961111839e+00 3.3009724871441961e+02 1.0000000000000000e+00 5.8427169724625557e+01 1.5689633006928574e+01 1.2700772800557947e+00 