LAMMPS data file via write_data, version 30 Jul 2016, timestep = 9000000

1368 atoms
8 atom types

0.0000000000000000e+00 2.0000000000000000e+01 xlo xhi
0.0000000000000000e+00 2.0000000000000000e+01 ylo yhi
0.0000000000000000e+00 8.0000000000000000e+01 zlo zhi

Masses

1 3.72
2 3.72
3 3.72
4 3.72
5 3.72
6 3.72
7 3.72
8 3.72

Atoms # meso-molecular

1 1 4 1.0016972313706909e+00 5.5414243058959819e+01 1.0000000000000000e+00 0.0000000000000000e+00 0.0000000000000000e+00 2.0000000000000000e+00 
11 1 4 1.0016971721798944e+00 8.4242298018264194e+01 1.0000000000000000e+00 2.0000000000000000e+00 0.0000000000000000e+00 2.0000000000000000e+00 
21 1 4 1.0016972301367428e+00 8.4938651337660602e+01 1.0000000000000000e+00 4.0000000000000000e+00 0.0000000000000000e+00 2.0000000000000000e+00 
31 1 4 1.0016969748751361e+00 9.4319199257998264e+01 1.0000000000000000e+00 6.0000000000000000e+00 0.0000000000000000e+00 2.0000000000000000e+00 
41 1 4 1.0016969655955623e+00 5.9345734841756723e+01 1.0000000000000000e+00 8.0000000000000000e+00 0.0000000000000000e+00 2.0000000000000000e+00 
51 1 4 1.0016970201635356e+00 7.2291286533387975e+01 1.0000000000000000e+00 1.0000000000000000e+01 0.0000000000000000e+00 2.0000000000000000e+00 
61 1 4 1.0016972021224833e+00 6.4869802586182800e+01 1.0000000000000000e+00 1.2000000000000000e+01 0.0000000000000000e+00 2.0000000000000000e+00 
71 1 4 1.0016970168960810e+00 6.8870632466229537e+01 1.0000000000000000e+00 1.4000000000000000e+01 0.0000000000000000e+00 2.0000000000000000e+00 
81 1 4 1.0016973033024525e+00 1.0561575767659991e+02 1.0000000000000000e+00 1.6000000000000000e+01 0.0000000000000000e+00 2.0000000000000000e+00 
91 1 4 1.0016971543143001e+00 1.6679261182773377e+02 1.0000000000000000e+00 1.8000000000000000e+01 0.0000000000000000e+00 2.0000000000000000e+00 
2 1 4 1.0016970110932217e+00 5.9115965140936787e+01 1.0000000000000000e+00 0.0000000000000000e+00 2.0000000000000000e+00 2.0000000000000000e+00 
12 1 4 1.0016972080701390e+00 6.3460784534230271e+01 1.0000000000000000e+00 2.0000000000000000e+00 2.0000000000000000e+00 2.0000000000000000e+00 
22 1 4 1.0016972169460301e+00 7.5984502155102248e+01 1.0000000000000000e+00 4.0000000000000000e+00 2.0000000000000000e+00 2.0000000000000000e+00 
32 1 4 1.0016969748248239e+00 7.3600033081805307e+01 1.0000000000000000e+00 6.0000000000000000e+00 2.0000000000000000e+00 2.0000000000000000e+00 
42 1 4 1.0016969787329415e+00 6.8525059641595277e+01 1.0000000000000000e+00 8.0000000000000000e+00 2.0000000000000000e+00 2.0000000000000000e+00 
52 1 4 1.0016970915015762e+00 6.1583154628087371e+01 1.0000000000000000e+00 1.0000000000000000e+01 2.0000000000000000e+00 2.0000000000000000e+00 
62 1 4 1.0016971092178562e+00 7.2906561472126896e+01 1.0000000000000000e+00 1.2000000000000000e+01 2.0000000000000000e+00 2.0000000000000000e+00 
72 1 4 1.0016973689684927e+00 7.6931477914077007e+01 1.0000000000000000e+00 1.4000000000000000e+01 2.0000000000000000e+00 2.0000000000000000e+00 
82 1 4 1.0016972779616700e+00 1.8004507879318908e+02 1.0000000000000000e+00 1.6000000000000000e+01 2.0000000000000000e+00 2.0000000000000000e+00 
92 1 4 1.0016971577295852e+00 1.0817989396999492e+02 1.0000000000000000e+00 1.8000000000000000e+01 2.0000000000000000e+00 2.0000000000000000e+00 
3 1 4 1.0016970256859650e+00 8.8312294171717923e+01 1.0000000000000000e+00 0.0000000000000000e+00 4.0000000000000000e+00 2.0000000000000000e+00 
13 1 4 1.0016970397511318e+00 5.6692386017740340e+01 1.0000000000000000e+00 2.0000000000000000e+00 4.0000000000000000e+00 2.0000000000000000e+00 
23 1 4 1.0016971833636796e+00 9.7701538600634890e+01 1.0000000000000000e+00 4.0000000000000000e+00 4.0000000000000000e+00 2.0000000000000000e+00 
33 1 4 1.0016972910649884e+00 8.6083604285507619e+01 1.0000000000000000e+00 6.0000000000000000e+00 4.0000000000000000e+00 2.0000000000000000e+00 
43 1 4 1.0016970419877504e+00 6.3056922201434858e+01 1.0000000000000000e+00 8.0000000000000000e+00 4.0000000000000000e+00 2.0000000000000000e+00 
53 1 4 1.0016973867271697e+00 5.9419270864932642e+01 1.0000000000000000e+00 1.0000000000000000e+01 4.0000000000000000e+00 2.0000000000000000e+00 
63 1 4 1.0016971464377464e+00 7.3391534808609052e+01 1.0000000000000000e+00 1.2000000000000000e+01 4.0000000000000000e+00 2.0000000000000000e+00 
73 1 4 1.0016973675502681e+00 8.2014681659749755e+01 1.0000000000000000e+00 1.4000000000000000e+01 4.0000000000000000e+00 2.0000000000000000e+00 
83 1 4 1.0016971204619780e+00 1.8339364193321322e+02 1.0000000000000000e+00 1.6000000000000000e+01 4.0000000000000000e+00 2.0000000000000000e+00 
93 1 4 1.0016971975093669e+00 8.1210575742054431e+01 1.0000000000000000e+00 1.8000000000000000e+01 4.0000000000000000e+00 2.0000000000000000e+00 
4 1 4 1.0016972060329630e+00 9.3266832761135461e+01 1.0000000000000000e+00 0.0000000000000000e+00 6.0000000000000000e+00 2.0000000000000000e+00 
14 1 4 1.0016970437215880e+00 6.9649201350222654e+01 1.0000000000000000e+00 2.0000000000000000e+00 6.0000000000000000e+00 2.0000000000000000e+00 
24 1 4 1.0016978508732479e+00 8.4285281687271620e+01 1.0000000000000000e+00 4.0000000000000000e+00 6.0000000000000000e+00 2.0000000000000000e+00 
34 1 4 1.0016970571052415e+00 7.6432386282956273e+01 1.0000000000000000e+00 6.0000000000000000e+00 6.0000000000000000e+00 2.0000000000000000e+00 
44 1 4 1.0016970529581644e+00 6.3397755891955903e+01 1.0000000000000000e+00 8.0000000000000000e+00 6.0000000000000000e+00 2.0000000000000000e+00 
54 1 4 1.0016971541816742e+00 4.9185939202713747e+01 1.0000000000000000e+00 1.0000000000000000e+01 6.0000000000000000e+00 2.0000000000000000e+00 
64 1 4 1.0016971448555176e+00 6.1232427069345903e+01 1.0000000000000000e+00 1.2000000000000000e+01 6.0000000000000000e+00 2.0000000000000000e+00 
74 1 4 1.0016973884698308e+00 9.1044328307728435e+01 1.0000000000000000e+00 1.4000000000000000e+01 6.0000000000000000e+00 2.0000000000000000e+00 
84 1 4 1.0016973781678662e+00 1.5293496344505979e+02 1.0000000000000000e+00 1.6000000000000000e+01 6.0000000000000000e+00 2.0000000000000000e+00 
94 1 4 1.0016969837619840e+00 9.5634956177247304e+01 1.0000000000000000e+00 1.8000000000000000e+01 6.0000000000000000e+00 2.0000000000000000e+00 
5 1 4 1.0016972226697483e+00 9.5909190852092010e+01 1.0000000000000000e+00 0.0000000000000000e+00 8.0000000000000000e+00 2.0000000000000000e+00 
15 1 4 1.0016969820926789e+00 8.3014939375146042e+01 1.0000000000000000e+00 2.0000000000000000e+00 8.0000000000000000e+00 2.0000000000000000e+00 
25 1 4 1.0016972939330311e+00 9.1208691417211526e+01 1.0000000000000000e+00 4.0000000000000000e+00 8.0000000000000000e+00 2.0000000000000000e+00 
35 1 4 1.0016971752799035e+00 7.2075088264596147e+01 1.0000000000000000e+00 6.0000000000000000e+00 8.0000000000000000e+00 2.0000000000000000e+00 
45 1 4 1.0016971247126911e+00 7.5342098830703506e+01 1.0000000000000000e+00 8.0000000000000000e+00 8.0000000000000000e+00 2.0000000000000000e+00 
55 1 4 1.0016972413552865e+00 5.4708504425599969e+01 1.0000000000000000e+00 1.0000000000000000e+01 8.0000000000000000e+00 2.0000000000000000e+00 
65 1 4 1.0016974953388635e+00 6.5452976059412151e+01 1.0000000000000000e+00 1.2000000000000000e+01 8.0000000000000000e+00 2.0000000000000000e+00 
75 1 4 1.0016979583015366e+00 9.4805371661317679e+01 1.0000000000000000e+00 1.4000000000000000e+01 8.0000000000000000e+00 2.0000000000000000e+00 
85 1 4 1.0016979260357113e+00 1.1064432473998754e+02 1.0000000000000000e+00 1.6000000000000000e+01 8.0000000000000000e+00 2.0000000000000000e+00 
95 1 4 1.0016969775507230e+00 7.2725408239177995e+01 1.0000000000000000e+00 1.8000000000000000e+01 8.0000000000000000e+00 2.0000000000000000e+00 
593 47 2 1.0016976919436449e+00 2.9545522427437925e+02 1.0000000000000000e+00 1.0085247613124126e+00 1.0143439131627785e+00 3.4052756627782026e+00 
613 47 2 1.0016973323722751e+00 3.0496258713563878e+02 1.0000000000000000e+00 2.9997935574163055e+00 1.0084635876655419e+00 3.3932945611703156e+00 
633 47 2 1.0016975183668546e+00 3.0076182264992389e+02 1.0000000000000000e+00 4.9849724351759557e+00 1.0058377935313700e+00 3.4027644500627163e+00 
653 47 2 1.0016973842904489e+00 2.7999490814011847e+02 1.0000000000000000e+00 6.9679878290431319e+00 1.0096209203329423e+00 3.4290950625005556e+00 
473 47 1 1.0016971739735268e+00 1.5618486041727348e+02 1.0000000000000000e+00 8.9969489466394794e+00 1.0077732624283031e+00 3.4068730407265213e+00 
493 47 2 1.0016976126442161e+00 2.6665583037551102e+02 1.0000000000000000e+00 1.1010398128860080e+01 9.9317933191906449e-01 3.3970683278224563e+00 
513 47 2 1.0016974048516538e+00 2.9759039178724134e+02 1.0000000000000000e+00 1.2997610192220957e+01 1.0153936610703149e+00 3.4105098144648283e+00 
533 47 2 1.0016977060102821e+00 5.5009776606833964e+02 1.0000000000000000e+00 1.4981599554880109e+01 1.0401415722928335e+00 3.4195005056258818e+00 
553 47 1 1.0016974835216081e+00 3.1805776564378579e+02 1.0000000000000000e+00 1.6984790099144210e+01 1.0049361162141286e+00 3.3965290794464460e+00 
573 47 1 1.0016973416374610e+00 1.7675292916033879e+02 1.0000000000000000e+00 1.8995445480376667e+01 1.0030132704352408e+00 3.3932304758516136e+00 
595 47 1 1.0016972101815025e+00 1.5147592395143360e+02 1.0000000000000000e+00 1.0009881499121667e+00 3.0018342831503184e+00 3.4038414956327268e+00 
615 47 1 1.0016971695144121e+00 1.5155234639237935e+02 1.0000000000000000e+00 3.0000352489113062e+00 3.0044223460378712e+00 3.3955536495075798e+00 
635 47 2 1.0016978584108074e+00 3.0189774295062745e+02 1.0000000000000000e+00 5.0105364273528323e+00 2.9949632371368402e+00 3.4263847206766793e+00 
655 47 2 1.0016972300055185e+00 2.7975542288590344e+02 1.0000000000000000e+00 7.0147931246589064e+00 2.9866496980631747e+00 3.4298200894944681e+00 
475 47 2 1.0016978018478524e+00 2.5842381647738966e+02 1.0000000000000000e+00 9.0113851370336810e+00 3.0075928264580778e+00 3.3924060148564421e+00 
495 47 2 1.0016973581555582e+00 2.6201469556787850e+02 1.0000000000000000e+00 1.0989907325210279e+01 2.9950467909219975e+00 3.4048110801860765e+00 
515 47 2 1.0016975607465626e+00 2.7712449390646105e+02 1.0000000000000000e+00 1.2984012369055517e+01 3.0023118225242924e+00 3.3993846677134152e+00 
535 47 2 1.0016979777440254e+00 5.1844748240906154e+02 1.0000000000000000e+00 1.4971734196755056e+01 3.0214292081531076e+00 3.4139598482476448e+00 
555 47 2 1.0016977085722889e+00 3.1413748462983591e+02 1.0000000000000000e+00 1.7000854321291794e+01 3.0023787363351189e+00 3.3900187190257474e+00 
575 47 2 1.0016979119892369e+00 3.1987820214235620e+02 1.0000000000000000e+00 1.8998001170121967e+01 3.0145711376191402e+00 3.4016892815919948e+00 
597 47 2 1.0016972941725972e+00 2.8565020469185544e+02 1.0000000000000000e+00 9.8957652406005303e-01 5.0119360340187997e+00 3.4011288286331767e+00 
617 47 2 1.0016976578942915e+00 2.7792170422108688e+02 1.0000000000000000e+00 3.0090506199163936e+00 5.0039579681007043e+00 3.3892274787387655e+00 
637 47 2 1.0016976890831235e+00 3.7873328151383282e+02 1.0000000000000000e+00 4.9953730909733345e+00 5.0112937217732876e+00 3.4026005832602313e+00 
657 47 2 1.0016980134090818e+00 2.5939171557317650e+02 1.0000000000000000e+00 6.9884767474278355e+00 4.9762500266217717e+00 3.4050891112326291e+00 
477 47 1 1.0016971675437745e+00 1.2405988193121873e+02 1.0000000000000000e+00 9.0021712242450054e+00 4.9977258433580038e+00 3.3968373628819606e+00 
497 47 2 1.0016979153584464e+00 2.5529625242051662e+02 1.0000000000000000e+00 1.1009470818888104e+01 5.0003067978028488e+00 3.4012428286111129e+00 
517 47 2 1.0016977959708839e+00 2.6500421082436230e+02 1.0000000000000000e+00 1.3002764521053747e+01 5.0103598326978265e+00 3.3969237465632034e+00 
537 47 2 1.0016973901768844e+00 4.4405379510356977e+02 1.0000000000000000e+00 1.4996382019636309e+01 5.0046259217792137e+00 3.3967574642984770e+00 
557 47 2 1.0016973991802094e+00 3.1854152780501249e+02 1.0000000000000000e+00 1.6988582328889439e+01 5.0046578927439400e+00 3.3972982021679963e+00 
577 47 2 1.0016976280310173e+00 3.2726907222827600e+02 1.0000000000000000e+00 1.8991357664813094e+01 4.9960555911050637e+00 3.4046688826841289e+00 
599 47 2 1.0016972282446193e+00 2.9240735125063560e+02 1.0000000000000000e+00 9.9165739471551761e-01 7.0069868404501481e+00 3.4044806480779028e+00 
619 47 2 1.0016973439370700e+00 2.6732265374460496e+02 1.0000000000000000e+00 3.0059300239475579e+00 6.9954710311916291e+00 3.3964765467580409e+00 
639 47 2 1.0016979914663426e+00 2.8015082961138705e+02 1.0000000000000000e+00 4.9875396467526700e+00 6.9863620743906427e+00 3.3972992522074708e+00 
659 47 2 1.0016972871878980e+00 2.7113459941392455e+02 1.0000000000000000e+00 7.0014896209620678e+00 6.9832080898459505e+00 3.4040973420283183e+00 
479 47 2 1.0016971608489098e+00 2.6210349991115436e+02 1.0000000000000000e+00 8.9976208882089868e+00 6.9975021328665585e+00 3.4038778388336395e+00 
499 47 1 1.0016974401804113e+00 1.5559023828331220e+02 1.0000000000000000e+00 1.0991812393954650e+01 6.9968927683071831e+00 3.3935113769240086e+00 
519 47 2 1.0016983485093931e+00 3.0106046686816848e+02 1.0000000000000000e+00 1.3001520713990489e+01 7.0106994372407181e+00 3.3837440423677112e+00 
539 47 2 1.0016974139591188e+00 3.8284948785746474e+02 1.0000000000000000e+00 1.4998164965878637e+01 6.9967336148636559e+00 3.3898277239564383e+00 
559 47 2 1.0016973210406364e+00 2.9246623310618213e+02 1.0000000000000000e+00 1.6986532127723791e+01 6.9920069164263010e+00 3.4025161141403575e+00 
579 47 2 1.0016974926200870e+00 3.2102582280266557e+02 1.0000000000000000e+00 1.9008076766779805e+01 6.9996371708940011e+00 3.3971956611660090e+00 
581 47 2 1.0016972023094524e+00 2.9796335955241642e+02 1.0000000000000000e+00 9.9681042514693108e-01 8.9999376452555495e+00 3.4137489432669441e+00 
601 47 2 1.0016973455187748e+00 2.6902866864468149e+02 1.0000000000000000e+00 3.0004731334959165e+00 9.0087572872379997e+00 3.3926991863538469e+00 
621 47 2 1.0016988255694508e+00 2.7619351467047233e+02 1.0000000000000000e+00 4.9986900615825576e+00 8.9907679598599426e+00 3.3892912473712062e+00 
641 47 2 1.0016975825255214e+00 2.5528724235119890e+02 1.0000000000000000e+00 7.0078203362966525e+00 9.0022485051104884e+00 3.4029039393780933e+00 
461 47 1 1.0016976886440143e+00 1.3445812240565533e+02 1.0000000000000000e+00 8.9979656899420632e+00 8.9931170784654224e+00 3.3927773992501153e+00 
481 47 2 1.0016975574680922e+00 2.7681675033853310e+02 1.0000000000000000e+00 1.0996755293146757e+01 9.0000746950957371e+00 3.3909916128759954e+00 
501 47 2 1.0016977711845585e+00 2.9026092680007037e+02 1.0000000000000000e+00 1.2998047965791836e+01 8.9909251267544938e+00 3.4047652571232434e+00 
521 47 2 1.0016985472929882e+00 4.4727052462640540e+02 1.0000000000000000e+00 1.5006256892530651e+01 8.9853286171828355e+00 3.3855741674759150e+00 
541 47 1 1.0016973624682284e+00 1.5242072662818580e+02 1.0000000000000000e+00 1.6994900658144342e+01 8.9985470677905610e+00 3.3995659307722184e+00 
561 47 2 1.0016971989205607e+00 2.8062344929444163e+02 1.0000000000000000e+00 1.9012347654463198e+01 8.9891322563177614e+00 3.4025901390972044e+00 
594 47 2 1.0016976277541145e+00 3.6419396330667621e+02 1.0000000000000000e+00 8.3217211652931444e-03 1.8558279669564453e-02 4.7835360272501655e+00 
614 47 2 1.0016972588346973e+00 3.6227612353595691e+02 1.0000000000000000e+00 2.0138406706512879e+00 1.4742007210936268e-02 4.8032571042423289e+00 
634 47 2 1.0016974240313796e+00 4.1759714661613788e+02 1.0000000000000000e+00 4.0064018959150607e+00 8.8107634712010965e-03 4.8027975669631360e+00 
494 47 2 1.0016974248377946e+00 2.7447110679604896e+02 1.0000000000000000e+00 1.0000075994202867e+01 1.1709540608589543e-03 4.8186971008483823e+00 
514 47 2 1.0016981050968581e+00 3.3359866420737961e+02 1.0000000000000000e+00 1.1994552135570752e+01 1.6737698449006012e-02 4.8036629939130728e+00 
534 47 2 1.0016974922036941e+00 6.0544586639938655e+02 1.0000000000000000e+00 1.3983379709204559e+01 4.9832676858921369e-03 4.7969368886556056e+00 
554 47 2 1.0016974941376799e+00 4.8916393740658538e+02 1.0000000000000000e+00 1.5982787151086049e+01 2.7808744748069866e-02 4.8117888730349749e+00 
551 47 2 1.0016974414271838e+00 4.9279941806279027e+02 1.0000000000000000e+00 1.7985227173730379e+01 1.2137564017102923e-02 4.7905872268049787e+00 
616 47 2 1.0016973600410737e+00 3.1633874911533496e+02 1.0000000000000000e+00 2.0073267719511700e+00 2.0159721542550990e+00 4.8084908225068057e+00 
636 47 2 1.0016973613199285e+00 3.3969780835946034e+02 1.0000000000000000e+00 3.9911611565167959e+00 2.0019287537619461e+00 4.8054637666277262e+00 
656 47 2 1.0016976299864786e+00 4.8671559119851815e+02 1.0000000000000000e+00 5.9767265668007825e+00 1.9368300952392095e+00 4.8760199159541830e+00 
476 47 2 1.0016969686230175e+00 1.8172517146561810e+02 1.0000000000000000e+00 7.9720692146244412e+00 1.9631367543927283e+00 4.8724907599600824e+00 
496 47 2 1.0016972585169399e+00 2.9817977702817899e+02 1.0000000000000000e+00 9.9634906317291971e+00 2.0092222613016979e+00 4.8158735868559432e+00 
516 47 1 1.0016974464548571e+00 2.6874553483459050e+02 1.0000000000000000e+00 1.2003174839555504e+01 2.0085561049356651e+00 4.8115941733372916e+00 
536 47 2 1.0016973364979997e+00 5.5985175325947876e+02 1.0000000000000000e+00 1.3982046897060075e+01 2.0009274650468920e+00 4.8339267609242480e+00 
558 47 1 1.0016972319727551e+00 2.6202143494568799e+02 1.0000000000000000e+00 1.5994433094441804e+01 2.0364073377269056e+00 4.8098823219750670e+00 
576 47 2 1.0016983864814160e+00 4.0595730929410826e+02 1.0000000000000000e+00 1.7986032834928579e+01 2.0076395104210194e+00 4.7859286276476656e+00 
596 47 2 1.0016974848974869e+00 3.2749919191054681e+02 1.0000000000000000e+00 1.9989987150727508e+01 2.0122687015222112e+00 4.7877511749437032e+00 
618 47 2 1.0016971260908685e+00 3.0010900097786475e+02 1.0000000000000000e+00 2.0055315136011371e+00 4.0208041294237367e+00 4.7971233314458699e+00 
638 47 2 1.0016982545984809e+00 4.1803364809543865e+02 1.0000000000000000e+00 4.0015864597818940e+00 4.0056936051093670e+00 4.7859856216532437e+00 
658 47 2 1.0016979884326023e+00 2.7977542755616781e+02 1.0000000000000000e+00 6.0025251604098333e+00 4.0061833211855618e+00 4.8092818341031922e+00 
478 47 1 1.0016970948484454e+00 2.2880627190845152e+02 1.0000000000000000e+00 8.0198197546733052e+00 3.9974363834140321e+00 4.8238488191296183e+00 
498 47 2 1.0016983381313218e+00 3.0826201273972691e+02 1.0000000000000000e+00 1.0003462307419126e+01 4.0045869122664035e+00 4.7943965914308002e+00 
518 47 1 1.0016977311183626e+00 1.9633936950267665e+02 1.0000000000000000e+00 1.2003478042218603e+01 4.0041375256401404e+00 4.7934264394429844e+00 
538 47 2 1.0016976636335659e+00 3.6491239211294908e+02 1.0000000000000000e+00 1.3981672435833728e+01 3.9857845259422668e+00 4.8267695009898768e+00 
993 48 2 1.0016979789657854e+00 6.4321890904352898e+04 1.0000000000000000e+00 1.5983978160537564e+01 4.0158112691739696e+00 4.7969440764800879e+00 
578 47 2 1.0016977728173866e+00 4.4979654887542597e+02 1.0000000000000000e+00 1.7979988021567372e+01 4.0030027463361169e+00 4.7918725772394239e+00 
598 47 2 1.0016975571248732e+00 3.4409555140348778e+02 1.0000000000000000e+00 1.9968625509825738e+01 4.0018617558682932e+00 4.8098992467877615e+00 
620 47 2 1.0016977423372588e+00 3.8650255113835402e+02 1.0000000000000000e+00 2.0168453170813416e+00 6.0328013072699251e+00 4.8184734441566528e+00 
640 47 2 1.0016981090139503e+00 3.8350166070710748e+02 1.0000000000000000e+00 3.9924229855081719e+00 5.9957777917349278e+00 4.8119565586685846e+00 
660 47 2 1.0016975742292924e+00 3.7236845847736021e+02 1.0000000000000000e+00 5.9724710486498997e+00 6.0097191875377005e+00 4.8248119501390319e+00 
480 47 2 1.0016972354067610e+00 3.6117486615270531e+02 1.0000000000000000e+00 7.9867354538999367e+00 5.9939207280913820e+00 4.8271980446470391e+00 
500 47 2 1.0016981398061287e+00 3.2946017286090625e+02 1.0000000000000000e+00 9.9836607888297859e+00 5.9749252949868588e+00 4.8186595498639671e+00 
520 47 2 1.0016988871363044e+00 3.2719096735914866e+02 1.0000000000000000e+00 1.2003553307979246e+01 5.9994356682567496e+00 4.7793603830427189e+00 
540 47 2 1.0016974828398688e+00 3.1506853449190618e+02 1.0000000000000000e+00 1.3993815216478893e+01 5.9877186886750309e+00 4.8218239401955021e+00 
560 47 1 1.0016970675932031e+00 2.2565722361268450e+02 1.0000000000000000e+00 1.5994097725724313e+01 5.9982995307225107e+00 4.8273773719628341e+00 
580 47 2 1.0016973928227169e+00 2.8221671651189922e+02 1.0000000000000000e+00 1.7995596684752574e+01 5.9946083604753353e+00 4.7910860192397227e+00 
600 47 2 1.0016979151212917e+00 3.8428449637396244e+02 1.0000000000000000e+00 1.9997534401995566e+01 6.0076091456230802e+00 4.7966374764018580e+00 
582 47 2 1.0016972811093678e+00 3.3585008037130967e+02 1.0000000000000000e+00 3.1078456174827473e-02 7.9966688267442061e+00 4.8357408744311883e+00 
602 47 2 1.0016973119053627e+00 3.4686971239473183e+02 1.0000000000000000e+00 2.0217766844089113e+00 8.0281603067809755e+00 4.8367107281270210e+00 
622 47 2 1.0016973090355643e+00 2.6430709894173737e+02 1.0000000000000000e+00 3.9981833814738796e+00 8.0090529903256851e+00 4.8059479453800442e+00 
642 47 1 1.0017005896432076e+00 3.6356859090972102e+02 1.0000000000000000e+00 5.9867978578703038e+00 8.0044046327588276e+00 4.7731914831819431e+00 
661 48 2 1.0016975500308771e+00 6.9189126819769750e+04 1.0000000000000000e+00 7.9889781321179356e+00 7.9901296595506413e+00 4.7929810993808992e+00 
482 47 2 1.0016974382397170e+00 3.3107276440520502e+02 1.0000000000000000e+00 9.9837500780943387e+00 8.0075316486416117e+00 4.7958402342237259e+00 
502 47 2 1.0016983493534319e+00 4.3675905911356949e+02 1.0000000000000000e+00 1.1987969308069447e+01 7.9993127603251590e+00 4.7810054367672929e+00 
522 47 2 1.0016972766111703e+00 4.3014844590824350e+02 1.0000000000000000e+00 1.4000051396283045e+01 7.9903455924735596e+00 4.7904166750380464e+00 
542 47 1 1.0016971520717317e+00 2.0914406966084081e+02 1.0000000000000000e+00 1.5999001541206093e+01 7.9921190221136822e+00 4.7998283840482925e+00 
562 47 2 1.0016973255225510e+00 3.9078488514271771e+02 1.0000000000000000e+00 1.8005743482858179e+01 7.9796578622919565e+00 4.7953542953218511e+00 
624 47 1 1.0016970979453876e+00 1.9159175692709744e+02 1.0000000000000000e+00 4.0004500816702864e+00 9.9953759185604394e+00 4.8037208274591015e+00 
464 47 2 1.0016976208120392e+00 3.7056860775782775e+02 1.0000000000000000e+00 8.0094995307551002e+00 9.9934952386277178e+00 4.7918698874167767e+00 
484 47 1 1.0016984792365611e+00 2.9406916364237628e+02 1.0000000000000000e+00 9.9862741963126069e+00 9.9883913097067101e+00 4.7915169522484398e+00 
524 47 2 1.0016990819252598e+00 5.9112320947906505e+02 1.0000000000000000e+00 1.4030225641567302e+01 9.9729209144011719e+00 4.7931485849281872e+00 
544 47 2 1.0016980070873096e+00 3.9605359634479953e+02 1.0000000000000000e+00 1.6003186077507273e+01 9.9965197344258474e+00 4.7912814882713466e+00 
453 46 3 1.0016972161999083e+00 1.0035781936339142e+05 1.0000000000000000e+00 1.0375509431975054e+00 1.0041335167854966e+00 6.2123250235282654e+00 
709 48 2 1.0016976085233835e+00 3.9389334669846830e+04 1.0000000000000000e+00 4.7402356907143082e+00 9.8379012220290518e-01 6.4272092738522906e+00 
217 16 3 1.0016999215215241e+00 1.1436714094543777e+05 1.0000000000000000e+00 8.0505357983790979e+00 6.3232213215378619e-01 6.6062870332494992e+00 
766 48 2 1.0016973490049799e+00 5.7777433297115356e+04 1.0000000000000000e+00 1.0974761082613758e+01 1.0143837800664293e+00 6.2066137001622126e+00 
886 48 2 1.0016969796387725e+00 6.0586595919015293e+04 1.0000000000000000e+00 1.2988426611732098e+01 1.0327033289749650e+00 6.2784772011073118e+00 
556 47 2 1.0016976518675180e+00 3.4486229969614260e+02 1.0000000000000000e+00 1.5025061506993234e+01 1.0024050772088751e+00 6.2353177472763495e+00 
574 47 2 1.0016985077808609e+00 4.2368160312992865e+02 1.0000000000000000e+00 1.7007010567671511e+01 1.0407020859341249e+00 6.2008761147098328e+00 
1096 48 2 1.0016971058667361e+00 3.9343971887779146e+04 1.0000000000000000e+00 1.8987567581909850e+01 1.0094337690524422e+00 6.2095707061453567e+00 
1247 48 2 1.0016979629143101e+00 1.2635802604826599e+05 1.0000000000000000e+00 2.9858560198056883e+00 3.0244343554024087e+00 6.2005402124535189e+00 
708 48 2 1.0016978664878666e+00 4.0929278678614952e+04 1.0000000000000000e+00 4.9767035497318490e+00 3.0021790125742562e+00 6.2010982757153164e+00 
887 48 2 1.0016988307798529e+00 1.0955307997323606e+05 1.0000000000000000e+00 1.0995831279344854e+01 3.0132214751269966e+00 6.1872127907393155e+00 
902 48 2 1.0016972555526205e+00 5.6812445925190565e+04 1.0000000000000000e+00 1.2980950559482267e+01 3.0245871606351979e+00 6.2418396235662534e+00 
901 48 1 1.0016970859141214e+00 2.9244262300733146e+04 1.0000000000000000e+00 1.4968697383230099e+01 2.9885862699684473e+00 6.2832711353133845e+00 
1010 48 2 1.0016976177943153e+00 5.8842434285326599e+04 1.0000000000000000e+00 1.6953497945119945e+01 3.0495641425053650e+00 6.2239652736221682e+00 
1127 48 2 1.0017017207559291e+00 1.3115233126044658e+05 1.0000000000000000e+00 1.8934704901754522e+01 3.0002657400317285e+00 6.2013789507261485e+00 
1111 48 2 1.0016976453552524e+00 2.9539285106139334e+04 1.0000000000000000e+00 9.9095449505119837e-01 5.0254435189332165e+00 6.1918618104013330e+00 
1203 48 2 1.0016976855240127e+00 4.0902110073637639e+04 1.0000000000000000e+00 2.9764233371999866e+00 4.9958987688384795e+00 6.2382012268015883e+00 
1246 48 2 1.0017000380274110e+00 7.1246513390740569e+04 1.0000000000000000e+00 4.9752316699708796e+00 4.9869272020815067e+00 6.1982563335758138e+00 
707 48 2 1.0016980466058492e+00 7.0646092238464233e+04 1.0000000000000000e+00 6.9920430277958792e+00 4.9937422740057134e+00 6.2126497863591617e+00 
706 48 2 1.0016975840243472e+00 3.9394783060455236e+04 1.0000000000000000e+00 8.9813694592909936e+00 4.9955421605167141e+00 6.2440158674034496e+00 
799 48 1 1.0016978354026986e+00 2.9760352527737406e+04 1.0000000000000000e+00 1.0989514741195295e+01 4.9950865124166732e+00 6.2071807314729588e+00 
917 48 1 1.0016987335556466e+00 1.0875264897392974e+05 1.0000000000000000e+00 1.2969284328555334e+01 5.0170217787218201e+00 6.2016049560592990e+00 
916 48 2 1.0016975199565685e+00 5.9097681812792165e+04 1.0000000000000000e+00 1.4994274620940832e+01 4.9818002127453678e+00 6.2151756204689352e+00 
1008 48 2 1.0016974929483315e+00 3.1628803890479987e+04 1.0000000000000000e+00 1.6963983967857661e+01 5.0214055216762654e+00 6.3810575747867979e+00 
1126 48 2 1.0016990566955062e+00 7.2702640475254826e+04 1.0000000000000000e+00 1.8942764995796029e+01 4.9805512981065370e+00 6.2208518272679871e+00 
991 48 1 1.0016972898597760e+00 6.1879959533246576e+04 1.0000000000000000e+00 9.9886074910195066e-01 7.0053504006010456e+00 6.2627827488305456e+00 
373 36 3 1.0016976264479065e+00 1.0260751196596269e+05 1.0000000000000000e+00 3.0277110621455345e+00 6.9940544656606081e+00 6.2179679667736032e+00 
462 47 2 1.0016995691671373e+00 4.3166278381943357e+02 1.0000000000000000e+00 6.9552723679246533e+00 7.0441840818242305e+00 6.1914833383294319e+00 
783 48 2 1.0016970189695216e+00 7.4520417161627178e+04 1.0000000000000000e+00 1.0785020475295138e+01 6.9691062754846200e+00 6.3687429895690064e+00 
781 48 1 1.0016985677214174e+00 7.2183319823069512e+04 1.0000000000000000e+00 1.2962667778083693e+01 7.0011617525121856e+00 6.1847660084849645e+00 
254 21 3 1.0016970086242081e+00 9.3157851212539259e+04 1.0000000000000000e+00 1.5040485063078087e+01 7.0342830847219773e+00 6.6296636930660497e+00 
258 21 3 1.0016969656678321e+00 1.1193483933741793e+05 1.0000000000000000e+00 1.7040205866522516e+01 7.0467604335569964e+00 6.5986633053648251e+00 
992 48 2 1.0016991000205187e+00 1.1448578313495038e+05 1.0000000000000000e+00 1.8999836991214384e+01 6.9442015902078618e+00 6.2301052428276282e+00 
375 36 3 1.0016986590969361e+00 1.1420945121548745e+05 1.0000000000000000e+00 2.4435316822171029e+00 8.8578491593799118e+00 6.6480886378999609e+00 
1201 48 2 1.0017020383575250e+00 3.9383271654247306e+04 1.0000000000000000e+00 6.1424155284165884e+00 8.9988841318149824e+00 6.4654931477232234e+00 
133 6 3 1.0016969655595276e+00 9.1355642631275259e+04 1.0000000000000000e+00 9.0462092611010299e+00 8.8538384412605780e+00 6.4615920750612226e+00 
797 48 2 1.0016983131901098e+00 5.4904808918545314e+04 1.0000000000000000e+00 1.1846954100770947e+01 8.6230315869372767e+00 6.6491496206820688e+00 
796 48 2 1.0016988961030653e+00 3.0004412921282088e+04 1.0000000000000000e+00 1.3351542090815760e+01 9.9757460003394876e+00 6.6407122033709172e+00 
253 21 3 1.0016970766026940e+00 9.0127927392789410e+04 1.0000000000000000e+00 1.5021768089773595e+01 8.9895095104254601e+00 6.2092599595656175e+00 
257 21 3 1.0016981266690212e+00 1.1225419827484644e+05 1.0000000000000000e+00 1.7021488893218020e+01 9.0019868592604801e+00 6.1782595718643911e+00 
1007 48 2 1.0016982742074501e+00 5.8951901694175707e+04 1.0000000000000000e+00 1.8993548848745554e+01 9.0018324671972181e+00 6.1860029286495726e+00 
457 46 3 1.0016970788312634e+00 1.2523125627973583e+05 1.0000000000000000e+00 2.8298379766790132e+00 9.5761302739680065e-01 7.0986336795173024e+00 
921 48 2 1.0016983147702074e+00 6.1309089402162048e+04 1.0000000000000000e+00 6.0821666828142806e+00 7.6077442663353936e-02 7.5505372254694789e+00 
888 48 2 1.0016981150683211e+00 6.2182954682492265e+04 1.0000000000000000e+00 9.7953579091951042e+00 1.9611366659736151e-01 7.6107265380116038e+00 
872 48 1 1.0016976016637484e+00 1.3134522949349866e+05 1.0000000000000000e+00 1.1945309137994144e+01 1.4029660711406799e-02 7.6404290411772848e+00 
337 31 3 1.0016977884581693e+00 1.0741323105054085e+05 1.0000000000000000e+00 1.6354764219603524e+01 7.0361722108331914e-02 7.7872183100316406e+00 
455 46 3 1.0017006976007097e+00 1.2528247481491577e+05 1.0000000000000000e+00 6.0481983596880839e-01 2.7020983446446736e+00 7.1765134035608096e+00 