LAMMPS data file via write_data, version 30 Jul 2016, timestep = 600000

2080 atoms
8 atom types

0.0000000000000000e+00 4.0000000000000000e+01 xlo xhi
0.0000000000000000e+00 4.0000000000000000e+01 ylo yhi
0.0000000000000000e+00 1.0000000000000000e+02 zlo zhi

Masses

1 3.896
2 4.306
3 20.064
4 8.378
5 8.378
6 8.378
7 8.378
8 8.378

Atoms # meso-molecular

1 2 4 2.2559723595316457e+00 0.0000000000000000e+00 1.0000000000000000e+00 0.0000000000000000e+00 0.0000000000000000e+00 2.5000000000000000e+00 
2 2 4 2.2559723595316457e+00 0.0000000000000000e+00 1.0000000000000000e+00 0.0000000000000000e+00 2.0000000000000000e+00 2.5000000000000000e+00 
3 2 4 2.2559723595316457e+00 0.0000000000000000e+00 1.0000000000000000e+00 0.0000000000000000e+00 4.0000000000000000e+00 2.5000000000000000e+00 
4 2 4 2.2559723595316457e+00 0.0000000000000000e+00 1.0000000000000000e+00 0.0000000000000000e+00 6.0000000000000000e+00 2.5000000000000000e+00 
5 2 4 2.2559723595316457e+00 0.0000000000000000e+00 1.0000000000000000e+00 0.0000000000000000e+00 8.0000000000000000e+00 2.5000000000000000e+00 
21 2 4 2.2559723595316457e+00 0.0000000000000000e+00 1.0000000000000000e+00 2.0000000000000000e+00 0.0000000000000000e+00 2.5000000000000000e+00 
22 2 4 2.2559723595316457e+00 0.0000000000000000e+00 1.0000000000000000e+00 2.0000000000000000e+00 2.0000000000000000e+00 2.5000000000000000e+00 
23 2 4 2.2559723595316457e+00 0.0000000000000000e+00 1.0000000000000000e+00 2.0000000000000000e+00 4.0000000000000000e+00 2.5000000000000000e+00 
24 2 4 2.2559723595316457e+00 0.0000000000000000e+00 1.0000000000000000e+00 2.0000000000000000e+00 6.0000000000000000e+00 2.5000000000000000e+00 
25 2 4 2.2559723595316457e+00 0.0000000000000000e+00 1.0000000000000000e+00 2.0000000000000000e+00 8.0000000000000000e+00 2.5000000000000000e+00 
41 2 4 2.2559723595316457e+00 0.0000000000000000e+00 1.0000000000000000e+00 4.0000000000000000e+00 0.0000000000000000e+00 2.5000000000000000e+00 
42 2 4 2.2559723595316457e+00 0.0000000000000000e+00 1.0000000000000000e+00 4.0000000000000000e+00 2.0000000000000000e+00 2.5000000000000000e+00 
43 2 4 2.2559723595316457e+00 0.0000000000000000e+00 1.0000000000000000e+00 4.0000000000000000e+00 4.0000000000000000e+00 2.5000000000000000e+00 
44 2 4 2.2559723595316457e+00 0.0000000000000000e+00 1.0000000000000000e+00 4.0000000000000000e+00 6.0000000000000000e+00 2.5000000000000000e+00 
45 2 4 2.2559723595316457e+00 0.0000000000000000e+00 1.0000000000000000e+00 4.0000000000000000e+00 8.0000000000000000e+00 2.5000000000000000e+00 
61 2 4 2.2559723595316457e+00 0.0000000000000000e+00 1.0000000000000000e+00 6.0000000000000000e+00 0.0000000000000000e+00 2.5000000000000000e+00 
62 2 4 2.2559723595316457e+00 0.0000000000000000e+00 1.0000000000000000e+00 6.0000000000000000e+00 2.0000000000000000e+00 2.5000000000000000e+00 
63 2 4 2.2559723595316457e+00 0.0000000000000000e+00 1.0000000000000000e+00 6.0000000000000000e+00 4.0000000000000000e+00 2.5000000000000000e+00 
64 2 4 2.2559723595316457e+00 0.0000000000000000e+00 1.0000000000000000e+00 6.0000000000000000e+00 6.0000000000000000e+00 2.5000000000000000e+00 
65 2 4 2.2559723595316457e+00 0.0000000000000000e+00 1.0000000000000000e+00 6.0000000000000000e+00 8.0000000000000000e+00 2.5000000000000000e+00 
81 2 4 2.2559723595316457e+00 0.0000000000000000e+00 1.0000000000000000e+00 8.0000000000000000e+00 0.0000000000000000e+00 2.5000000000000000e+00 
82 2 4 2.2559723595316457e+00 0.0000000000000000e+00 1.0000000000000000e+00 8.0000000000000000e+00 2.0000000000000000e+00 2.5000000000000000e+00 
83 2 4 2.2559723595316457e+00 -1.4506058670263929e-04 1.0000000000000000e+00 8.0000000000000000e+00 4.0000000000000000e+00 2.5000000000000000e+00 
84 2 4 2.2559723595316457e+00 -3.2332952653331488e+00 1.0000000000000000e+00 8.0000000000000000e+00 6.0000000000000000e+00 2.5000000000000000e+00 
85 2 4 2.2559723595316457e+00 -1.7524098654973649e+01 1.0000000000000000e+00 8.0000000000000000e+00 8.0000000000000000e+00 2.5000000000000000e+00 
101 2 4 2.2559723595316457e+00 0.0000000000000000e+00 1.0000000000000000e+00 1.0000000000000000e+01 0.0000000000000000e+00 2.5000000000000000e+00 
102 2 4 2.2559723595316457e+00 -1.4506034681399657e-04 1.0000000000000000e+00 1.0000000000000000e+01 2.0000000000000000e+00 2.5000000000000000e+00 
103 2 4 2.2559723595316457e+00 -8.9288116775306854e+00 1.0000000000000000e+00 1.0000000000000000e+01 4.0000000000000000e+00 2.5000000000000000e+00 
104 2 4 2.2559723595316457e+00 -6.8063808074147545e+01 1.0000000000000000e+00 1.0000000000000000e+01 6.0000000000000000e+00 2.5000000000000000e+00 
105 2 4 2.2559723595316457e+00 -2.1696135391944017e+02 1.0000000000000000e+00 1.0000000000000000e+01 8.0000000000000000e+00 2.5000000000000000e+00 
121 2 4 2.2559723595316457e+00 0.0000000000000000e+00 1.0000000000000000e+00 1.2000000000000000e+01 0.0000000000000000e+00 2.5000000000000000e+00 
122 2 4 2.2559723595316457e+00 -3.2332306880783630e+00 1.0000000000000000e+00 1.2000000000000000e+01 2.0000000000000000e+00 2.5000000000000000e+00 
123 2 4 2.2559723595316457e+00 -6.7845906087814598e+01 1.0000000000000000e+00 1.2000000000000000e+01 4.0000000000000000e+00 2.5000000000000000e+00 
124 2 4 2.2559723595316457e+00 -3.3971442222850567e+02 1.0000000000000000e+00 1.2000000000000000e+01 6.0000000000000000e+00 2.5000000000000000e+00 
125 2 4 2.2559723595316457e+00 -9.1871299443588805e+02 1.0000000000000000e+00 1.2000000000000000e+01 8.0000000000000000e+00 2.5000000000000000e+00 
141 2 4 2.2559723595316457e+00 0.0000000000000000e+00 1.0000000000000000e+00 1.4000000000000000e+01 0.0000000000000000e+00 2.5000000000000000e+00 
142 2 4 2.2559723595316457e+00 -1.7409091107487246e+01 1.0000000000000000e+00 1.4000000000000000e+01 2.0000000000000000e+00 2.5000000000000000e+00 
143 2 4 2.2559723595316457e+00 -2.1421449225824023e+02 1.0000000000000000e+00 1.4000000000000000e+01 4.0000000000000000e+00 2.5000000000000000e+00 
144 2 4 2.2559723595316457e+00 -9.0953964544399196e+02 1.0000000000000000e+00 1.4000000000000000e+01 6.0000000000000000e+00 2.5000000000000000e+00 
145 2 4 2.2559723595316457e+00 -2.2871913828745051e+03 1.0000000000000000e+00 1.4000000000000000e+01 8.0000000000000000e+00 2.5000000000000000e+00 
161 2 4 2.2559723595316457e+00 -1.4503936474978505e-04 1.0000000000000000e+00 1.6000000000000000e+01 0.0000000000000000e+00 2.5000000000000000e+00 
162 2 4 2.2559723595316457e+00 -3.9846775089374319e+01 1.0000000000000000e+00 1.6000000000000000e+01 2.0000000000000000e+00 2.5000000000000000e+00 
163 2 4 2.2559723595316457e+00 -4.1380533197188754e+02 1.0000000000000000e+00 1.6000000000000000e+01 4.0000000000000000e+00 2.5000000000000000e+00 
164 2 4 2.2559723595316457e+00 -1.6417851171413427e+03 1.0000000000000000e+00 1.6000000000000000e+01 6.0000000000000000e+00 2.5000000000000000e+00 
165 2 4 2.2559723595316457e+00 -4.0031317272963292e+03 1.0000000000000000e+00 1.6000000000000000e+01 8.0000000000000000e+00 2.5000000000000000e+00 
181 2 4 2.2559723595316457e+00 -1.6717925820259854e-04 1.0000000000000000e+00 1.8000000000000000e+01 0.0000000000000000e+00 2.5000000000000000e+00 
182 2 4 2.2559723595316457e+00 -5.6476872109590062e+01 1.0000000000000000e+00 1.8000000000000000e+01 2.0000000000000000e+00 2.5000000000000000e+00 
183 2 4 2.2559723595316457e+00 -5.6300838615871339e+02 1.0000000000000000e+00 1.8000000000000000e+01 4.0000000000000000e+00 2.5000000000000000e+00 
184 2 4 2.2559723595316457e+00 -2.1781863154150292e+03 1.0000000000000000e+00 1.8000000000000000e+01 6.0000000000000000e+00 2.5000000000000000e+00 
185 2 4 2.2559723595316457e+00 -5.2474043342894765e+03 1.0000000000000000e+00 1.8000000000000000e+01 8.0000000000000000e+00 2.5000000000000000e+00 
6 2 4 2.2559723595316457e+00 0.0000000000000000e+00 1.0000000000000000e+00 0.0000000000000000e+00 1.0000000000000000e+01 2.5000000000000000e+00 
7 2 4 2.2559723595316457e+00 0.0000000000000000e+00 1.0000000000000000e+00 0.0000000000000000e+00 1.2000000000000000e+01 2.5000000000000000e+00 
8 2 4 2.2559723595316457e+00 0.0000000000000000e+00 1.0000000000000000e+00 0.0000000000000000e+00 1.4000000000000000e+01 2.5000000000000000e+00 
9 2 4 2.2559723595316457e+00 0.0000000000000000e+00 1.0000000000000000e+00 0.0000000000000000e+00 1.6000000000000000e+01 2.5000000000000000e+00 
10 2 4 2.2559723595316457e+00 0.0000000000000000e+00 1.0000000000000000e+00 0.0000000000000000e+00 1.8000000000000000e+01 2.5000000000000000e+00 
26 2 4 2.2559723595316457e+00 0.0000000000000000e+00 1.0000000000000000e+00 2.0000000000000000e+00 1.0000000000000000e+01 2.5000000000000000e+00 
27 2 4 2.2559723595316457e+00 0.0000000000000000e+00 1.0000000000000000e+00 2.0000000000000000e+00 1.2000000000000000e+01 2.5000000000000000e+00 
28 2 4 2.2559723595316457e+00 0.0000000000000000e+00 1.0000000000000000e+00 2.0000000000000000e+00 1.4000000000000000e+01 2.5000000000000000e+00 
29 2 4 2.2559723595316457e+00 0.0000000000000000e+00 1.0000000000000000e+00 2.0000000000000000e+00 1.6000000000000000e+01 2.5000000000000000e+00 
30 2 4 2.2559723595316457e+00 0.0000000000000000e+00 1.0000000000000000e+00 2.0000000000000000e+00 1.8000000000000000e+01 2.5000000000000000e+00 
46 2 4 2.2559723595316457e+00 0.0000000000000000e+00 1.0000000000000000e+00 4.0000000000000000e+00 1.0000000000000000e+01 2.5000000000000000e+00 
47 2 4 2.2559723595316457e+00 0.0000000000000000e+00 1.0000000000000000e+00 4.0000000000000000e+00 1.2000000000000000e+01 2.5000000000000000e+00 
48 2 4 2.2559723595316457e+00 0.0000000000000000e+00 1.0000000000000000e+00 4.0000000000000000e+00 1.4000000000000000e+01 2.5000000000000000e+00 
49 2 4 2.2559723595316457e+00 0.0000000000000000e+00 1.0000000000000000e+00 4.0000000000000000e+00 1.6000000000000000e+01 2.5000000000000000e+00 
50 2 4 2.2559723595316457e+00 0.0000000000000000e+00 1.0000000000000000e+00 4.0000000000000000e+00 1.8000000000000000e+01 2.5000000000000000e+00 
66 2 4 2.2559723595316457e+00 -1.4504102396789768e-04 1.0000000000000000e+00 6.0000000000000000e+00 1.0000000000000000e+01 2.5000000000000000e+00 
67 2 4 2.2559723595316457e+00 -1.7165525980631659e-04 1.0000000000000000e+00 6.0000000000000000e+00 1.2000000000000000e+01 2.5000000000000000e+00 
68 2 4 2.2559723595316457e+00 -1.8244631288525433e-04 1.0000000000000000e+00 6.0000000000000000e+00 1.4000000000000000e+01 2.5000000000000000e+00 
69 2 4 2.2559723595316457e+00 -1.8573237979552045e-04 1.0000000000000000e+00 6.0000000000000000e+00 1.6000000000000000e+01 2.5000000000000000e+00 
70 2 4 2.2559723595316457e+00 -1.8618803916735781e-04 1.0000000000000000e+00 6.0000000000000000e+00 1.8000000000000000e+01 2.5000000000000000e+00 
86 2 4 2.2559723595316457e+00 -4.0745726860659730e+01 1.0000000000000000e+00 8.0000000000000000e+00 1.0000000000000000e+01 2.5000000000000000e+00 
87 2 4 2.2559723595316457e+00 -5.9909856943392029e+01 1.0000000000000000e+00 8.0000000000000000e+00 1.2000000000000000e+01 2.5000000000000000e+00 
88 2 4 2.2559723595316457e+00 -6.7990196225256611e+01 1.0000000000000000e+00 8.0000000000000000e+00 1.4000000000000000e+01 2.5000000000000000e+00 
89 2 4 2.2559723595316457e+00 -7.0231320733333092e+01 1.0000000000000000e+00 8.0000000000000000e+00 1.6000000000000000e+01 2.5000000000000000e+00 
90 2 4 2.2559723595316457e+00 -7.0794733531456870e+01 1.0000000000000000e+00 8.0000000000000000e+00 1.8000000000000000e+01 2.5000000000000000e+00 
106 2 4 2.2559723595316457e+00 -4.2759677631397631e+02 1.0000000000000000e+00 1.0000000000000000e+01 1.0000000000000000e+01 2.5000000000000000e+00 
107 2 4 2.2559723595316457e+00 -6.1337247957247507e+02 1.0000000000000000e+00 1.0000000000000000e+01 1.2000000000000000e+01 2.5000000000000000e+00 
108 2 4 2.2559723595316457e+00 -7.1528739971039704e+02 1.0000000000000000e+00 1.0000000000000000e+01 1.4000000000000000e+01 2.5000000000000000e+00 
109 2 4 2.2559723595316457e+00 -7.4950182815332357e+02 1.0000000000000000e+00 1.0000000000000000e+01 1.6000000000000000e+01 2.5000000000000000e+00 
110 2 4 2.2559723595316457e+00 -7.5813129007256771e+02 1.0000000000000000e+00 1.0000000000000000e+01 1.8000000000000000e+01 2.5000000000000000e+00 
126 2 4 2.2559723595316457e+00 -1.6939174400569277e+03 1.0000000000000000e+00 1.2000000000000000e+01 1.0000000000000000e+01 2.5000000000000000e+00 
127 2 4 2.2559723595316457e+00 -2.3884641509125800e+03 1.0000000000000000e+00 1.2000000000000000e+01 1.2000000000000000e+01 2.5000000000000000e+00 
128 2 4 2.2559723595316457e+00 -2.8001715877271586e+03 1.0000000000000000e+00 1.2000000000000000e+01 1.4000000000000000e+01 2.5000000000000000e+00 
129 2 4 2.2559723595316457e+00 -2.9536951765865242e+03 1.0000000000000000e+00 1.2000000000000000e+01 1.6000000000000000e+01 2.5000000000000000e+00 
130 2 4 2.2559723595316457e+00 -2.9914524302133136e+03 1.0000000000000000e+00 1.2000000000000000e+01 1.8000000000000000e+01 2.5000000000000000e+00 
146 2 4 2.2559723595316457e+00 -4.0920205584105970e+03 1.0000000000000000e+00 1.4000000000000000e+01 1.0000000000000000e+01 2.5000000000000000e+00 
147 2 4 2.2559723595316457e+00 -5.7246919245735189e+03 1.0000000000000000e+00 1.4000000000000000e+01 1.2000000000000000e+01 2.5000000000000000e+00 
148 2 4 2.2559723595316457e+00 -6.7258241518565173e+03 1.0000000000000000e+00 1.4000000000000000e+01 1.4000000000000000e+01 2.5000000000000000e+00 
149 2 4 2.2559723595316457e+00 -7.1154895896959524e+03 1.0000000000000000e+00 1.4000000000000000e+01 1.6000000000000000e+01 2.5000000000000000e+00 
150 2 4 2.2559723595316457e+00 -7.2073827689703403e+03 1.0000000000000000e+00 1.4000000000000000e+01 1.8000000000000000e+01 2.5000000000000000e+00 
166 2 4 2.2559723595316457e+00 -7.0797355938096107e+03 1.0000000000000000e+00 1.6000000000000000e+01 1.0000000000000000e+01 2.5000000000000000e+00 
167 2 4 2.2559723595316457e+00 -9.8875123441806172e+03 1.0000000000000000e+00 1.6000000000000000e+01 1.2000000000000000e+01 2.5000000000000000e+00 
168 2 4 2.2559723595316457e+00 -1.1637304810125952e+04 1.0000000000000000e+00 1.6000000000000000e+01 1.4000000000000000e+01 2.5000000000000000e+00 
169 2 4 2.2559723595316457e+00 -1.2324014738996120e+04 1.0000000000000000e+00 1.6000000000000000e+01 1.6000000000000000e+01 2.5000000000000000e+00 
170 2 4 2.2559723595316457e+00 -1.2478343900653335e+04 1.0000000000000000e+00 1.6000000000000000e+01 1.8000000000000000e+01 2.5000000000000000e+00 
186 2 4 2.2559723595316457e+00 -9.2436204715464210e+03 1.0000000000000000e+00 1.8000000000000000e+01 1.0000000000000000e+01 2.5000000000000000e+00 
187 2 4 2.2559723595316457e+00 -1.2912928293345674e+04 1.0000000000000000e+00 1.8000000000000000e+01 1.2000000000000000e+01 2.5000000000000000e+00 
188 2 4 2.2559723595316457e+00 -1.5219891623635533e+04 1.0000000000000000e+00 1.8000000000000000e+01 1.4000000000000000e+01 2.5000000000000000e+00 
189 2 4 2.2559723595316457e+00 -1.6125932424630862e+04 1.0000000000000000e+00 1.8000000000000000e+01 1.6000000000000000e+01 2.5000000000000000e+00 
190 2 4 2.2559723595316457e+00 -1.6319127819373443e+04 1.0000000000000000e+00 1.8000000000000000e+01 1.8000000000000000e+01 2.5000000000000000e+00 
1214 816 2 1.0279148856797413e+00 5.5723329879292223e+03 1.0000000000000000e+00 1.9441896437138244e+01 4.4363157511082498e+00 6.8753065189868337e+01 
1738 1340 2 1.0280261201906804e+00 -5.1928035626797589e+02 1.0000000000000000e+00 1.9261139542634368e+01 3.5922001749286885e+00 6.7816836452693053e+01 
1622 1224 2 1.0280664428809911e+00 7.2383714005819445e+02 1.0000000000000000e+00 1.9464492369855115e+01 4.1125331762786237e+00 6.8346388530687463e+01 
1797 1399 2 1.0281018967177236e+00 3.0426010214730519e+02 1.0000000000000000e+00 1.9433533343045635e+01 4.8026610742148250e+00 6.9300397127291703e+01 
1454 1056 2 1.0281197483454918e+00 7.0541763933347772e+02 1.0000000000000000e+00 1.9439244583067207e+01 4.0148755844470774e+00 6.8233409732457361e+01 
1215 817 2 1.0280610284101763e+00 5.5795272442866853e+03 1.0000000000000000e+00 1.9506779404075299e+01 5.2612230718243573e+00 7.0089508506955696e+01 
1835 1437 2 1.0280327971581544e+00 -2.9832444965349628e+03 1.0000000000000000e+00 1.9520824670136079e+01 4.0572560480999229e+00 6.8290319947984813e+01 
1834 1436 2 1.0280485690824803e+00 -2.9862135573972528e+03 1.0000000000000000e+00 1.9354857539176770e+01 3.6910884816236198e+00 6.7900151994200982e+01 
661 263 2 1.0279955201750171e+00 -8.4674494817768209e+03 1.0000000000000000e+00 1.9343601553604969e+01 3.5479865140955700e+00 6.7771957404981237e+01 
898 500 2 1.0279261324899873e+00 -4.6793945204216055e+02 1.0000000000000000e+00 1.9563689900808718e+01 5.0629444812290973e+00 6.9756718663705016e+01 
658 260 2 1.0279976723287219e+00 -2.9428002201109157e+03 1.0000000000000000e+00 1.9441745547378002e+01 4.3206959500975151e+00 6.8600075388508870e+01 
1623 1225 2 1.0280486736229810e+00 7.2290613446128907e+02 1.0000000000000000e+00 1.9534217653515249e+01 4.1565692123396021e+00 6.8409444283003694e+01 
1919 1521 2 1.0280230276289311e+00 -3.7043196471648307e+03 1.0000000000000000e+00 1.9216659967319696e+01 2.3537893959524245e+00 6.7057507235792002e+01 
795 397 2 1.0281382140919140e+00 5.7006950965084297e+03 1.0000000000000000e+00 1.9330785593073870e+01 3.7079200571399142e+00 6.7918001190415680e+01 
2011 1613 2 1.0280196911952919e+00 -1.4458165107506642e+04 1.0000000000000000e+00 1.9229491796659133e+01 4.2599569049767014e+00 6.8535826360051388e+01 
659 261 2 1.0280275531768901e+00 -2.9447821111166913e+03 1.0000000000000000e+00 1.9455311368469651e+01 3.9296217338942125e+00 6.8140694448990232e+01 
1126 728 2 1.0279365035323438e+00 6.2663224877385373e+03 1.0000000000000000e+00 1.9403617369784136e+01 5.7698809595619807e+00 7.0969562281042244e+01 
794 396 2 1.0281154305332634e+00 5.6981527850528673e+03 1.0000000000000000e+00 1.9591987359629460e+01 3.7064216713816887e+00 6.7942737515665058e+01 
663 265 2 1.0280316974395716e+00 -5.9697873724150595e+03 1.0000000000000000e+00 1.9460424741631392e+01 2.5925452914258562e+00 6.7159031349792627e+01 
1503 1105 2 1.0279993090443289e+00 6.0526972919182945e+03 1.0000000000000000e+00 1.9248062020712347e+01 4.0504885791277481e+00 6.8279693388361764e+01 
1610 1212 2 1.0279318703413112e+00 2.5340503073839855e+03 1.0000000000000000e+00 1.9496209525848673e+01 3.4049244961437375e+00 6.7662056941701863e+01 
1510 1112 2 1.0280380656758128e+00 5.0359039995219337e+03 1.0000000000000000e+00 1.9307409800265788e+01 3.8425453741795494e+00 6.8049420706201602e+01 
1602 1204 2 1.0280108601345883e+00 1.2777375008130573e+03 1.0000000000000000e+00 1.9502122043042224e+01 4.2597496494136164e+00 6.8529913397116474e+01 
558 160 2 1.0280431577592746e+00 -6.0019648392176150e+03 1.0000000000000000e+00 1.9341820799136869e+01 1.8413354457548650e+00 6.6884616044064799e+01 
665 267 2 1.0279814147427306e+00 -1.6094945635108667e+02 1.0000000000000000e+00 1.9315539829561782e+01 4.1210607250730114e+00 6.8352726466660627e+01 
1534 1136 2 1.0279299766693613e+00 4.6836270651386949e+03 1.0000000000000000e+00 1.9452814964747173e+01 4.4292927189549625e+00 6.8744787762352146e+01 
2066 1668 2 1.0281694853287171e+00 -8.0288837965644943e+03 1.0000000000000000e+00 1.9104012068682817e+01 5.0125227066966254e+00 6.9721785909789403e+01 
899 501 2 1.0280354451307965e+00 -4.6754925007953710e+02 1.0000000000000000e+00 1.9382535774780525e+01 6.1235438458564060e+00 7.1564046822829340e+01 
1701 1303 2 1.0281162856029018e+00 4.7282256686150558e+03 1.0000000000000000e+00 1.9591072896381529e+01 1.3760492532562552e+00 6.6817460549230191e+01 
1800 1402 2 1.0280453097889539e+00 3.0089554489486130e+02 1.0000000000000000e+00 1.9587480457596392e+01 4.5179813509224678e+00 6.8899831461522737e+01 
1476 1078 2 1.0281031545543926e+00 6.6486228473583037e+02 1.0000000000000000e+00 1.9167428923800529e+01 2.9616467399705542e+00 6.7367192046963183e+01 
1473 1075 2 1.0281041005448424e+00 6.6129167645595544e+02 1.0000000000000000e+00 1.9616210212710239e+01 2.9924309736957242e+00 6.7400423823161177e+01 
1502 1104 2 1.0280779336147896e+00 6.0529062798500972e+03 1.0000000000000000e+00 1.9572217497658734e+01 3.3382824154341093e+00 6.7625837139388722e+01 
522 124 2 1.0281966531395004e+00 5.2255315086883393e+03 1.0000000000000000e+00 1.9268529964702516e+01 4.7941713299532589e+00 6.9298528225424008e+01 
2008 1610 2 1.0280327382092447e+00 -1.4089625106000069e+04 1.0000000000000000e+00 1.9715012117536798e+01 3.5975637612369158e+00 6.7881135670852856e+01 
406 8 2 1.0281016410972439e+00 -3.6457255749118326e+03 1.0000000000000000e+00 1.9611063800060887e+01 3.8389230684895890e+00 6.8077390184914165e+01 
1338 940 2 1.0280705730165836e+00 1.1187177839059987e+03 1.0000000000000000e+00 1.9446815196333525e+01 3.5227928051327795e+00 6.7754497897288232e+01 
1057 659 2 1.0281009323935624e+00 4.7420180766925210e+02 1.0000000000000000e+00 1.9256755466712193e+01 3.0147378623107111e+00 6.7387444186267430e+01 
2021 1623 2 1.0279821406612013e+00 -1.3809820950701538e+04 1.0000000000000000e+00 1.9696935728765158e+01 4.8348676324022595e+00 6.9436546182006325e+01 
662 264 2 1.0280857249843871e+00 -5.9695542602957148e+03 1.0000000000000000e+00 1.9223879836093886e+01 2.2589705849372987e+00 6.7021073179879153e+01 
1458 1060 2 1.0279730937748464e+00 2.3654530207156231e+03 1.0000000000000000e+00 1.9543066747353905e+01 2.3684026431763177e+00 6.7073065808990179e+01 
719 321 2 1.0280617448425029e+00 4.0107941690776884e+03 1.0000000000000000e+00 1.9667477718484470e+01 2.8663713676241649e+00 6.7339719328636093e+01 
806 408 2 1.0280762393912135e+00 -6.8161968852274379e+02 1.0000000000000000e+00 1.9564137905276066e+01 2.3897081988053359e+00 6.7086530048874664e+01 
573 175 2 1.0279275869651412e+00 6.6331898698986406e+03 1.0000000000000000e+00 1.9374629663674874e+01 1.3698606238125515e+00 6.6785696781398570e+01 
524 126 2 1.0280602634718428e+00 1.2721577489145749e+02 1.0000000000000000e+00 1.9770798394727077e+01 3.0845893866907845e+00 6.7508669995509607e+01 
1974 1576 2 1.0280640750599070e+00 -2.9288343664586814e+03 1.0000000000000000e+00 1.9807583919817439e+01 2.0453566739440903e+00 6.7036928155581151e+01 
1060 662 2 1.0280747148166998e+00 4.7467867074880678e+02 1.0000000000000000e+00 1.9338678595842605e+01 3.9083771233877358e+00 6.8115998133332198e+01 
1299 901 2 1.0280581493362813e+00 -1.1192655113123308e+03 1.0000000000000000e+00 1.9675616883029736e+01 4.0560886915736365e+00 6.8333841162811837e+01 
695 297 2 1.0279960739218865e+00 5.5243651087050139e+03 1.0000000000000000e+00 1.9448782575879356e+01 3.3295505583005420e+00 6.7599865694063652e+01 
1511 1113 2 1.0279777729374353e+00 5.0336087642956118e+03 1.0000000000000000e+00 1.9638015815384147e+01 3.8814154887532570e+00 6.8127370045111761e+01 
2010 1612 2 1.0280462477032961e+00 -1.4465053314401524e+04 1.0000000000000000e+00 1.9324985898362083e+01 3.6635288430589394e+00 6.7875752853336763e+01 
1028 630 2 1.0280845287102456e+00 4.8848338920198876e+03 1.0000000000000000e+00 1.9253936288980793e+01 1.5053734289700778e+00 6.6811380041230777e+01 
1079 681 2 1.0280953837762286e+00 4.9135049561646395e+02 1.0000000000000000e+00 1.9476619480801300e+01 5.4129473620968298e+00 7.0353463694588157e+01 
523 125 2 1.0280507846247422e+00 5.2178309194735593e+03 1.0000000000000000e+00 1.9096442529276054e+01 3.0762993564056615e+00 6.7454196892588811e+01 
1034 636 2 1.0280342701172542e+00 7.2524224753453882e+03 1.0000000000000000e+00 1.9023706594036454e+01 3.8862843571524195e+00 6.8167240226133998e+01 
916 518 2 1.0280586037353248e+00 -5.8612725716423911e+03 1.0000000000000000e+00 1.9394278758188374e+01 4.6993805781846145e+00 6.9135943998454451e+01 
1645 1247 2 1.0280579755613717e+00 -3.7752594178262149e+02 1.0000000000000000e+00 1.9290625205138447e+01 3.6486076584707181e+00 6.7864734187549246e+01 
1058 660 2 1.0279829833794647e+00 9.3594484246297361e+02 1.0000000000000000e+00 1.8838558812531446e+01 2.4178942611598746e+00 6.7188857189310070e+01 
1611 1213 2 1.0280084593980221e+00 2.5343417561214937e+03 1.0000000000000000e+00 1.9064698296332264e+01 2.9817420056489690e+00 6.7401883655101926e+01 
1704 1306 2 1.0279860768368720e+00 4.7262031981384571e+03 1.0000000000000000e+00 1.9143176359167633e+01 1.7500664990136334e+00 6.6874512152123401e+01 
1455 1057 2 1.0280632774223599e+00 7.0336470175718625e+02 1.0000000000000000e+00 1.9130157791549930e+01 3.5133830902415228e+00 6.7773838346575147e+01 
1723 1325 2 1.0280726782110683e+00 3.2602806596006553e+03 1.0000000000000000e+00 1.9929072513002655e+01 2.6747395172852091e+00 6.7347941879645347e+01 
2067 1669 2 1.0280683132411130e+00 -8.0339411920137572e+03 1.0000000000000000e+00 1.9083661344706702e+01 3.8206878488567342e+00 6.8075449487593730e+01 
770 372 2 1.0279903090600553e+00 2.5934562143627700e+03 1.0000000000000000e+00 1.9385431275528713e+01 2.4765353179971186e+00 6.7101696364506125e+01 
1648 1250 2 1.0280113144351068e+00 -3.7541214726592477e+02 1.0000000000000000e+00 1.9307992239718086e+01 4.4621110673046056e+00 6.8792021644485601e+01 
548 150 2 1.0280414551960648e+00 1.0899492164460773e+03 1.0000000000000000e+00 1.8990426346965283e+01 3.6903840668059740e+00 6.7983039230051645e+01 
1739 1341 2 1.0280481975037503e+00 -5.2534888835017455e+02 1.0000000000000000e+00 1.8844975138133634e+01 1.7832868994399347e+00 6.6965695571215690e+01 
1469 1071 2 1.0281371729506039e+00 5.9860283199382284e+03 1.0000000000000000e+00 1.9690358403799539e+01 5.1409549194268980e+00 6.9963311585438362e+01 
709 311 2 1.0280304499553612e+00 7.6201184664618886e+03 1.0000000000000000e+00 1.8534125418546235e+01 1.4733390746490016e+00 6.7064775089203465e+01 
679 281 2 1.0280303462352922e+00 1.6918904803238804e+03 1.0000000000000000e+00 1.9115758195852933e+01 3.0755819847799071e+00 6.7448701032797786e+01 
1072 674 2 1.0281125614897528e+00 2.0724074450596900e+03 1.0000000000000000e+00 1.9867828915630103e+01 2.4292886071124165e+00 6.7203186990498978e+01 
559 161 2 1.0281257275774602e+00 -6.0063372689332873e+03 1.0000000000000000e+00 1.9173178079432990e+01 3.3766519707995810e+00 6.7653172885790923e+01 
807 409 2 1.0281201885373625e+00 -6.6863258641477057e+02 1.0000000000000000e+00 1.9438507733680950e+01 4.1600602579439352e+00 6.8401171174820348e+01 
1603 1205 2 1.0280996346391618e+00 1.2706190904783282e+03 1.0000000000000000e+00 1.9115392538893325e+01 3.8812903857732595e+00 6.8128230736974089e+01 
1459 1061 2 1.0280506643401484e+00 2.3686905053563796e+03 1.0000000000000000e+00 1.9080320895083641e+01 2.7022455632944036e+00 6.7239981656800197e+01 
1381 983 2 1.0280133509978502e+00 9.5762633194185673e+03 1.0000000000000000e+00 1.9177653447946728e+01 4.0488615007614381e+00 6.8292984443512808e+01 
2024 1626 2 1.0280215274535338e+00 -1.3802544857455385e+04 1.0000000000000000e+00 1.9312127269878360e+01 4.9575948508989924e+00 6.9553890532577412e+01 
1722 1324 2 1.0280047727946440e+00 3.2655690079935453e+03 1.0000000000000000e+00 1.8654647622923331e+01 3.2924219428242960e+00 6.7843051337550804e+01 
698 300 2 1.0280695913093862e+00 -3.2396279204682251e+03 1.0000000000000000e+00 1.9542747643138640e+01 4.1488139904437302e+00 6.8402322819151067e+01 
726 328 2 1.0281395017245927e+00 -2.3792912538187120e+03 1.0000000000000000e+00 1.9286653188544967e+01 1.6204604309404822e+00 6.6833876579562357e+01 
521 123 2 1.0280773431533932e+00 1.2490662669395434e+02 1.0000000000000000e+00 1.9085558170135851e+01 2.8148977019657138e+00 6.7299274258226433e+01 
962 564 2 1.0280733319917759e+00 -6.5284520313377470e+02 1.0000000000000000e+00 1.9760289616545027e+01 4.0638641168135790e+00 6.8381641118791364e+01 
632 234 2 1.0280196196505065e+00 -5.3038064953489657e+03 1.0000000000000000e+00 1.9445757172145004e+01 2.0534127242108586e+00 6.6950050778880239e+01 
1201 803 2 1.0279803809386350e+00 5.4897367888146709e+03 1.0000000000000000e+00 1.9213028104828119e+01 4.5500522107829342e+00 6.8934542164383515e+01 
1006 608 2 1.0279619942651290e+00 5.0499020205633205e+03 1.0000000000000000e+00 1.9432396699793944e+01 1.5765986044610318e+00 6.6827355509508820e+01 
1031 633 2 1.0280444714087940e+00 4.6143774059174038e+03 1.0000000000000000e+00 1.8935545938904333e+01 1.2133918506808832e+00 6.6817892587452334e+01 
407 9 2 1.0280243846220645e+00 -3.6462066978941780e+03 1.0000000000000000e+00 1.9213244392441016e+01 2.5366532601519891e+00 6.7135645050866231e+01 
1918 1520 2 1.0280904516950935e+00 -3.7040415029908459e+03 1.0000000000000000e+00 1.9220264630214977e+01 1.2007489616419040e+00 6.6764061369542461e+01 
712 314 2 1.0280566367523951e+00 7.6155452450372568e+03 1.0000000000000000e+00 1.9012893521811769e+01 2.2740269991050179e+00 6.7066233863849646e+01 
1361 963 2 1.0280649087649503e+00 8.8081118978361610e+03 1.0000000000000000e+00 1.9203846705856293e+01 5.0683403248114169e+00 6.9769381175173223e+01 
1975 1577 2 1.0280395948003047e+00 -2.9326816829776171e+03 1.0000000000000000e+00 1.8921766154641475e+01 1.1461514185640704e+00 6.6812640855433159e+01 
751 353 2 1.0279488216890691e+00 -3.3512839943083759e+03 1.0000000000000000e+00 1.9736807431733197e+01 4.5972294088712049e+00 6.9083030161789026e+01 
2005 1607 2 1.0278741105091782e+00 -1.4082593581540390e+04 1.0000000000000000e+00 1.8988765691733594e+01 2.2653946743763393e+00 6.7067922200044805e+01 
1146 748 2 1.0281799848688726e+00 4.3570104944530594e+03 1.0000000000000000e+00 1.9390328734481741e+01 5.7532460965707957e+00 7.0947591388265479e+01 
1358 960 2 1.0279745676013485e+00 4.4352839189883962e+03 1.0000000000000000e+00 1.8709434589756647e+01 2.0651734123492256e+00 6.7116654904606918e+01 
432 34 2 1.0280613821035238e+00 -5.9881113018059905e+03 1.0000000000000000e+00 1.8845414797472575e+01 4.1330749492380914e+00 6.8563898807205476e+01 
963 565 2 1.0280942217935030e+00 -6.5733987191903987e+02 1.0000000000000000e+00 1.9277510009423150e+01 3.2479724896837063e+00 6.7541485527407204e+01 
1921 1523 2 1.0280212439075862e+00 -1.3573976102725514e+04 1.0000000000000000e+00 1.9399122204594466e+01 5.2245796851352164e+00 7.0007666334864552e+01 
842 444 2 1.0280791550890089e+00 -3.2890131068775222e+03 1.0000000000000000e+00 1.9635891969244241e+01 3.8923545679689249e+00 6.8139761136803145e+01 