LAMMPS data file via write_data, version 30 Jul 2016, timestep = 30300000

1920 atoms
8 atom types

0.0000000000000000e+00 4.0000000000000000e+01 xlo xhi
0.0000000000000000e+00 4.0000000000000000e+01 ylo yhi
0.0000000000000000e+00 1.0000000000000000e+02 zlo zhi

Masses

1 3.896
2 5.36
3 20.064
4 8.378
5 8.378
6 8.378
7 8.378
8 8.378

Atoms # meso-molecular

1 2 4 2.2559723595316457e+00 7.3187639774913049e-02 1.0000000000000000e+00 0.0000000000000000e+00 0.0000000000000000e+00 2.5000000000000000e+00 
21 2 4 2.2559723595316457e+00 1.6236311357431369e-09 1.0000000000000000e+00 2.0000000000000000e+00 0.0000000000000000e+00 2.5000000000000000e+00 
41 2 4 2.2559723595316457e+00 -9.0911968992389648e-05 1.0000000000000000e+00 4.0000000000000000e+00 0.0000000000000000e+00 2.5000000000000000e+00 
61 2 4 2.2559723595316457e+00 9.0987771333672853e-07 1.0000000000000000e+00 6.0000000000000000e+00 0.0000000000000000e+00 2.5000000000000000e+00 
81 2 4 2.2559723595316457e+00 -6.0254514367099932e-01 1.0000000000000000e+00 8.0000000000000000e+00 0.0000000000000000e+00 2.5000000000000000e+00 
101 2 4 2.2559723595316457e+00 -9.4569124444407993e-01 1.0000000000000000e+00 1.0000000000000000e+01 0.0000000000000000e+00 2.5000000000000000e+00 
121 2 4 2.2559723595316457e+00 1.2805843098440004e+00 1.0000000000000000e+00 1.2000000000000000e+01 0.0000000000000000e+00 2.5000000000000000e+00 
141 2 4 2.2559723595316457e+00 -3.0763498131707384e-01 1.0000000000000000e+00 1.4000000000000000e+01 0.0000000000000000e+00 2.5000000000000000e+00 
161 2 4 2.2559723595316457e+00 1.0240031930917977e+00 1.0000000000000000e+00 1.6000000000000000e+01 0.0000000000000000e+00 2.5000000000000000e+00 
181 2 4 2.2559723595316457e+00 -1.3583579678598964e-02 1.0000000000000000e+00 1.8000000000000000e+01 0.0000000000000000e+00 2.5000000000000000e+00 
2 2 4 2.2559723595316457e+00 -9.1810640663127803e+00 1.0000000000000000e+00 0.0000000000000000e+00 2.0000000000000000e+00 2.5000000000000000e+00 
22 2 4 2.2559723595316457e+00 4.1712878643168022e-10 1.0000000000000000e+00 2.0000000000000000e+00 2.0000000000000000e+00 2.5000000000000000e+00 
42 2 4 2.2559723595316457e+00 -5.9929342042100564e-06 1.0000000000000000e+00 4.0000000000000000e+00 2.0000000000000000e+00 2.5000000000000000e+00 
62 2 4 2.2559723595316457e+00 -1.6672332056384090e-04 1.0000000000000000e+00 6.0000000000000000e+00 2.0000000000000000e+00 2.5000000000000000e+00 
82 2 4 2.2559723595316457e+00 -4.8590452707564152e-02 1.0000000000000000e+00 8.0000000000000000e+00 2.0000000000000000e+00 2.5000000000000000e+00 
102 2 4 2.2559723595316457e+00 1.4628268665473748e-07 1.0000000000000000e+00 1.0000000000000000e+01 2.0000000000000000e+00 2.5000000000000000e+00 
122 2 4 2.2559723595316457e+00 2.5609097415516264e+00 1.0000000000000000e+00 1.2000000000000000e+01 2.0000000000000000e+00 2.5000000000000000e+00 
142 2 4 2.2559723595316457e+00 -2.4882552497021766e-02 1.0000000000000000e+00 1.4000000000000000e+01 2.0000000000000000e+00 2.5000000000000000e+00 
162 2 4 2.2559723595316457e+00 -1.2192554478322433e-05 1.0000000000000000e+00 1.6000000000000000e+01 2.0000000000000000e+00 2.5000000000000000e+00 
182 2 4 2.2559723595316457e+00 9.7526476024737199e-03 1.0000000000000000e+00 1.8000000000000000e+01 2.0000000000000000e+00 2.5000000000000000e+00 
3 2 4 2.2559723595316457e+00 2.4361806870609974e-06 1.0000000000000000e+00 0.0000000000000000e+00 4.0000000000000000e+00 2.5000000000000000e+00 
23 2 4 2.2559723595316457e+00 6.2100382255747431e-10 1.0000000000000000e+00 2.0000000000000000e+00 4.0000000000000000e+00 2.5000000000000000e+00 
43 2 4 2.2559723595316457e+00 5.6114151172079042e-09 1.0000000000000000e+00 4.0000000000000000e+00 4.0000000000000000e+00 2.5000000000000000e+00 
63 2 4 2.2559723595316457e+00 4.5317458921053458e-09 1.0000000000000000e+00 6.0000000000000000e+00 4.0000000000000000e+00 2.5000000000000000e+00 
83 2 4 2.2559723595316457e+00 3.8565398742922062e-10 1.0000000000000000e+00 8.0000000000000000e+00 4.0000000000000000e+00 2.5000000000000000e+00 
103 2 4 2.2559723595316457e+00 -6.3640199252389816e-06 1.0000000000000000e+00 1.0000000000000000e+01 4.0000000000000000e+00 2.5000000000000000e+00 
123 2 4 2.2559723595316457e+00 -4.2233522710583529e-08 1.0000000000000000e+00 1.2000000000000000e+01 4.0000000000000000e+00 2.5000000000000000e+00 
143 2 4 2.2559723595316457e+00 -1.2864703993026199e-04 1.0000000000000000e+00 1.4000000000000000e+01 4.0000000000000000e+00 2.5000000000000000e+00 
163 2 4 2.2559723595316457e+00 7.1347039596734929e-08 1.0000000000000000e+00 1.6000000000000000e+01 4.0000000000000000e+00 2.5000000000000000e+00 
183 2 4 2.2559723595316457e+00 5.6617863448161374e-02 1.0000000000000000e+00 1.8000000000000000e+01 4.0000000000000000e+00 2.5000000000000000e+00 
4 2 4 2.2559723595316457e+00 6.8319755251357013e-04 1.0000000000000000e+00 0.0000000000000000e+00 6.0000000000000000e+00 2.5000000000000000e+00 
24 2 4 2.2559723595316457e+00 -2.3359040902784987e-02 1.0000000000000000e+00 2.0000000000000000e+00 6.0000000000000000e+00 2.5000000000000000e+00 
44 2 4 2.2559723595316457e+00 2.0449105185081313e-09 1.0000000000000000e+00 4.0000000000000000e+00 6.0000000000000000e+00 2.5000000000000000e+00 
64 2 4 2.2559723595316457e+00 4.5477399338700825e-05 1.0000000000000000e+00 6.0000000000000000e+00 6.0000000000000000e+00 2.5000000000000000e+00 
84 2 4 2.2559723595316457e+00 2.7673684990851171e-03 1.0000000000000000e+00 8.0000000000000000e+00 6.0000000000000000e+00 2.5000000000000000e+00 
104 2 4 2.2559723595316457e+00 -6.2556479407568774e-03 1.0000000000000000e+00 1.0000000000000000e+01 6.0000000000000000e+00 2.5000000000000000e+00 
124 2 4 2.2559723595316457e+00 7.5503210917305040e-07 1.0000000000000000e+00 1.2000000000000000e+01 6.0000000000000000e+00 2.5000000000000000e+00 
144 2 4 2.2559723595316457e+00 1.3801856747399504e-07 1.0000000000000000e+00 1.4000000000000000e+01 6.0000000000000000e+00 2.5000000000000000e+00 
164 2 4 2.2559723595316457e+00 1.1683810094937308e-07 1.0000000000000000e+00 1.6000000000000000e+01 6.0000000000000000e+00 2.5000000000000000e+00 
184 2 4 2.2559723595316457e+00 -2.0883991125842383e-01 1.0000000000000000e+00 1.8000000000000000e+01 6.0000000000000000e+00 2.5000000000000000e+00 
5 2 4 2.2559723595316457e+00 3.8942627360367799e-10 1.0000000000000000e+00 0.0000000000000000e+00 8.0000000000000000e+00 2.5000000000000000e+00 
25 2 4 2.2559723595316457e+00 -3.2388556782572235e-02 1.0000000000000000e+00 2.0000000000000000e+00 8.0000000000000000e+00 2.5000000000000000e+00 
45 2 4 2.2559723595316457e+00 1.2381393139770433e-09 1.0000000000000000e+00 4.0000000000000000e+00 8.0000000000000000e+00 2.5000000000000000e+00 
65 2 4 2.2559723595316457e+00 6.1036897337525625e-07 1.0000000000000000e+00 6.0000000000000000e+00 8.0000000000000000e+00 2.5000000000000000e+00 
85 2 4 2.2559723595316457e+00 1.6076427523027189e-09 1.0000000000000000e+00 8.0000000000000000e+00 8.0000000000000000e+00 2.5000000000000000e+00 
105 2 4 2.2559723595316457e+00 -2.5150886761218776e-02 1.0000000000000000e+00 1.0000000000000000e+01 8.0000000000000000e+00 2.5000000000000000e+00 
125 2 4 2.2559723595316457e+00 2.8132209682887019e-07 1.0000000000000000e+00 1.2000000000000000e+01 8.0000000000000000e+00 2.5000000000000000e+00 
145 2 4 2.2559723595316457e+00 2.2149222504956958e+00 1.0000000000000000e+00 1.4000000000000000e+01 8.0000000000000000e+00 2.5000000000000000e+00 
165 2 4 2.2559723595316457e+00 3.1018024405515869e+00 1.0000000000000000e+00 1.6000000000000000e+01 8.0000000000000000e+00 2.5000000000000000e+00 
185 2 4 2.2559723595316457e+00 -7.5882245085051836e-01 1.0000000000000000e+00 1.8000000000000000e+01 8.0000000000000000e+00 2.5000000000000000e+00 
6 2 4 2.2559723595316457e+00 -1.0018197826399203e-01 1.0000000000000000e+00 0.0000000000000000e+00 1.0000000000000000e+01 2.5000000000000000e+00 
26 2 4 2.2559723595316457e+00 5.0033661808629407e-10 1.0000000000000000e+00 2.0000000000000000e+00 1.0000000000000000e+01 2.5000000000000000e+00 
46 2 4 2.2559723595316457e+00 3.5123376307837492e-08 1.0000000000000000e+00 4.0000000000000000e+00 1.0000000000000000e+01 2.5000000000000000e+00 
66 2 4 2.2559723595316457e+00 8.4465954606338267e-08 1.0000000000000000e+00 6.0000000000000000e+00 1.0000000000000000e+01 2.5000000000000000e+00 
86 2 4 2.2559723595316457e+00 -7.3775817757019819e-05 1.0000000000000000e+00 8.0000000000000000e+00 1.0000000000000000e+01 2.5000000000000000e+00 
106 2 4 2.2559723595316457e+00 8.4087013778826286e-04 1.0000000000000000e+00 1.0000000000000000e+01 1.0000000000000000e+01 2.5000000000000000e+00 
126 2 4 2.2559723595316457e+00 2.2193899872742433e-07 1.0000000000000000e+00 1.2000000000000000e+01 1.0000000000000000e+01 2.5000000000000000e+00 
146 2 4 2.2559723595316457e+00 4.0663136166082256e-04 1.0000000000000000e+00 1.4000000000000000e+01 1.0000000000000000e+01 2.5000000000000000e+00 
166 2 4 2.2559723595316457e+00 3.8608008305188353e-03 1.0000000000000000e+00 1.6000000000000000e+01 1.0000000000000000e+01 2.5000000000000000e+00 
186 2 4 2.2559723595316457e+00 -9.7050566485222400e-01 1.0000000000000000e+00 1.8000000000000000e+01 1.0000000000000000e+01 2.5000000000000000e+00 
7 2 4 2.2559723595316457e+00 2.7188809806774261e-01 1.0000000000000000e+00 0.0000000000000000e+00 1.2000000000000000e+01 2.5000000000000000e+00 
27 2 4 2.2559723595316457e+00 -1.2304547138767180e-01 1.0000000000000000e+00 2.0000000000000000e+00 1.2000000000000000e+01 2.5000000000000000e+00 
47 2 4 2.2559723595316457e+00 2.7615498194528854e-02 1.0000000000000000e+00 4.0000000000000000e+00 1.2000000000000000e+01 2.5000000000000000e+00 
67 2 4 2.2559723595316457e+00 6.0121186350292097e-09 1.0000000000000000e+00 6.0000000000000000e+00 1.2000000000000000e+01 2.5000000000000000e+00 
87 2 4 2.2559723595316457e+00 1.0123176261928603e-06 1.0000000000000000e+00 8.0000000000000000e+00 1.2000000000000000e+01 2.5000000000000000e+00 
107 2 4 2.2559723595316457e+00 -1.1667412454482331e-02 1.0000000000000000e+00 1.0000000000000000e+01 1.2000000000000000e+01 2.5000000000000000e+00 
127 2 4 2.2559723595316457e+00 4.7563049891575754e-02 1.0000000000000000e+00 1.2000000000000000e+01 1.2000000000000000e+01 2.5000000000000000e+00 
147 2 4 2.2559723595316457e+00 5.5002037285975134e-04 1.0000000000000000e+00 1.4000000000000000e+01 1.2000000000000000e+01 2.5000000000000000e+00 
167 2 4 2.2559723595316457e+00 3.8720000098467247e+00 1.0000000000000000e+00 1.6000000000000000e+01 1.2000000000000000e+01 2.5000000000000000e+00 
187 2 4 2.2559723595316457e+00 -2.8521722620942526e-03 1.0000000000000000e+00 1.8000000000000000e+01 1.2000000000000000e+01 2.5000000000000000e+00 
8 2 4 2.2559723595316457e+00 -7.9612877293528755e-02 1.0000000000000000e+00 0.0000000000000000e+00 1.4000000000000000e+01 2.5000000000000000e+00 
28 2 4 2.2559723595316457e+00 -2.5893271470791152e-01 1.0000000000000000e+00 2.0000000000000000e+00 1.4000000000000000e+01 2.5000000000000000e+00 
48 2 4 2.2559723595316457e+00 1.7985419032907049e-09 1.0000000000000000e+00 4.0000000000000000e+00 1.4000000000000000e+01 2.5000000000000000e+00 
68 2 4 2.2559723595316457e+00 -6.7994494342960636e-05 1.0000000000000000e+00 6.0000000000000000e+00 1.4000000000000000e+01 2.5000000000000000e+00 
88 2 4 2.2559723595316457e+00 -2.3083186395182509e-04 1.0000000000000000e+00 8.0000000000000000e+00 1.4000000000000000e+01 2.5000000000000000e+00 
108 2 4 2.2559723595316457e+00 4.3835877001536499e-03 1.0000000000000000e+00 1.0000000000000000e+01 1.4000000000000000e+01 2.5000000000000000e+00 
128 2 4 2.2559723595316457e+00 -4.0289160889504074e-03 1.0000000000000000e+00 1.2000000000000000e+01 1.4000000000000000e+01 2.5000000000000000e+00 
148 2 4 2.2559723595316457e+00 -3.8052664501065866e-04 1.0000000000000000e+00 1.4000000000000000e+01 1.4000000000000000e+01 2.5000000000000000e+00 
168 2 4 2.2559723595316457e+00 -3.7603861376391712e-01 1.0000000000000000e+00 1.6000000000000000e+01 1.4000000000000000e+01 2.5000000000000000e+00 
188 2 4 2.2559723595316457e+00 1.0751126703119557e-03 1.0000000000000000e+00 1.8000000000000000e+01 1.4000000000000000e+01 2.5000000000000000e+00 
9 2 4 2.2559723595316457e+00 3.7250973566186114e+00 1.0000000000000000e+00 0.0000000000000000e+00 1.6000000000000000e+01 2.5000000000000000e+00 
29 2 4 2.2559723595316457e+00 1.1363497902344890e-09 1.0000000000000000e+00 2.0000000000000000e+00 1.6000000000000000e+01 2.5000000000000000e+00 
49 2 4 2.2559723595316457e+00 6.5484326932456823e-09 1.0000000000000000e+00 4.0000000000000000e+00 1.6000000000000000e+01 2.5000000000000000e+00 
69 2 4 2.2559723595316457e+00 -5.9558561864412975e-06 1.0000000000000000e+00 6.0000000000000000e+00 1.6000000000000000e+01 2.5000000000000000e+00 
89 2 4 2.2559723595316457e+00 -5.3742396044602000e-03 1.0000000000000000e+00 8.0000000000000000e+00 1.6000000000000000e+01 2.5000000000000000e+00 
109 2 4 2.2559723595316457e+00 -3.1925736917728760e-05 1.0000000000000000e+00 1.0000000000000000e+01 1.6000000000000000e+01 2.5000000000000000e+00 
129 2 4 2.2559723595316457e+00 -1.5509952143112992e-02 1.0000000000000000e+00 1.2000000000000000e+01 1.6000000000000000e+01 2.5000000000000000e+00 
149 2 4 2.2559723595316457e+00 -9.2548701759485597e-03 1.0000000000000000e+00 1.4000000000000000e+01 1.6000000000000000e+01 2.5000000000000000e+00 
169 2 4 2.2559723595316457e+00 -2.6070594538321014e-03 1.0000000000000000e+00 1.6000000000000000e+01 1.6000000000000000e+01 2.5000000000000000e+00 
189 2 4 2.2559723595316457e+00 -5.3201121690748740e-05 1.0000000000000000e+00 1.8000000000000000e+01 1.6000000000000000e+01 2.5000000000000000e+00 
10 2 4 2.2559723595316457e+00 8.1549107307308135e-08 1.0000000000000000e+00 0.0000000000000000e+00 1.8000000000000000e+01 2.5000000000000000e+00 
30 2 4 2.2559723595316457e+00 1.3280024813646115e-09 1.0000000000000000e+00 2.0000000000000000e+00 1.8000000000000000e+01 2.5000000000000000e+00 
50 2 4 2.2559723595316457e+00 5.5204030051717232e-10 1.0000000000000000e+00 4.0000000000000000e+00 1.8000000000000000e+01 2.5000000000000000e+00 
70 2 4 2.2559723595316457e+00 3.9917141516451062e+00 1.0000000000000000e+00 6.0000000000000000e+00 1.8000000000000000e+01 2.5000000000000000e+00 
90 2 4 2.2559723595316457e+00 1.6396873553495750e+00 1.0000000000000000e+00 8.0000000000000000e+00 1.8000000000000000e+01 2.5000000000000000e+00 
110 2 4 2.2559723595316457e+00 9.8774689775830111e-10 1.0000000000000000e+00 1.0000000000000000e+01 1.8000000000000000e+01 2.5000000000000000e+00 
130 2 4 2.2559723595316457e+00 -1.7581924077096957e-05 1.0000000000000000e+00 1.2000000000000000e+01 1.8000000000000000e+01 2.5000000000000000e+00 
150 2 4 2.2559723595316457e+00 5.2960240517184681e-05 1.0000000000000000e+00 1.4000000000000000e+01 1.8000000000000000e+01 2.5000000000000000e+00 
170 2 4 2.2559723595316457e+00 9.2261490045999095e-04 1.0000000000000000e+00 1.6000000000000000e+01 1.8000000000000000e+01 2.5000000000000000e+00 
190 2 4 2.2559723595316457e+00 -3.4901890459229073e-03 1.0000000000000000e+00 1.8000000000000000e+01 1.8000000000000000e+01 2.5000000000000000e+00 
531 133 2 1.0279999991369841e+00 -5.1487401561140350e+03 1.0000000000000000e+00 8.1985419574463609e+00 8.8176213984546568e+00 5.4510404105634720e+00 
1529 1131 2 1.0279999731865284e+00 -2.0559313223341642e+03 1.0000000000000000e+00 4.6811577932543397e-01 1.0036320971368591e+01 5.6131713048295193e+00 
478 80 2 1.0280000027543290e+00 -5.2311592032926483e+03 1.0000000000000000e+00 8.4813568866579159e-01 1.1349979286910548e+01 5.5499954958938851e+00 
776 378 2 1.0279999411977128e+00 -1.1448540529598715e+03 1.0000000000000000e+00 2.2121045988400265e+00 1.1702651425420688e+01 5.8351116625184885e+00 
1008 610 2 1.0280000339698196e+00 1.8097539566337450e+03 1.0000000000000000e+00 4.5288369299195539e+00 1.0259051053499402e+01 5.4419972206501672e+00 
1614 1216 2 1.0280000343819378e+00 -1.5094941878447321e+03 1.0000000000000000e+00 4.5287059881200342e+00 1.0259287286806142e+01 5.4420039668563502e+00 
1039 641 2 1.0280000471123099e+00 1.0992596406996047e+03 1.0000000000000000e+00 6.6749264427040780e+00 1.0783674687361140e+01 5.7012677877548699e+00 
584 186 2 1.0280000296420542e+00 -1.7099789615723114e+03 1.0000000000000000e+00 7.0873759991174001e+00 1.1173604672836371e+01 5.4915901028574803e+00 
580 182 2 1.0279999385212051e+00 2.2831271440144205e+03 1.0000000000000000e+00 5.9630771829225635e+00 1.2078908498980121e+01 5.5324300979986409e+00 
616 218 2 1.0280000053767044e+00 -7.7971868881493072e+02 1.0000000000000000e+00 9.9642279413242445e+00 1.3218644405579546e+01 5.6706424625752385e+00 
631 233 2 1.0279999979952978e+00 1.9789066808779612e+03 1.0000000000000000e+00 1.0305765850710809e+01 1.2817619584892174e+01 5.4262404152563501e+00 
1074 676 2 1.0279999945214904e+00 5.9832554780064402e+03 1.0000000000000000e+00 2.6513308933859298e-01 1.4011557007779414e+01 5.4969078147907142e+00 
489 91 2 1.0279999819463537e+00 2.8256601633081550e+03 1.0000000000000000e+00 1.2316078288679240e+00 1.4407352848100716e+01 5.4947857417219561e+00 
893 495 2 1.0279999761991112e+00 5.1344500266978794e+03 1.0000000000000000e+00 2.7123071105464365e+00 1.4156232537919664e+01 5.4437235605276495e+00 
740 342 2 1.0279999889980151e+00 -7.5578866318453350e+01 1.0000000000000000e+00 4.2061101534536816e+00 1.4751719685015656e+01 5.4268931160022467e+00 
774 376 2 1.0279999989311703e+00 -5.9804046017529290e+03 1.0000000000000000e+00 2.1586082774967008e-01 1.6797075976928010e+01 5.6990626171528129e+00 
474 76 2 1.0280000072830582e+00 -4.9121748113287467e+03 1.0000000000000000e+00 2.2528205199105242e-01 1.9568040599117122e+01 5.5242896184953354e+00 
1885 1487 2 1.0280000134050298e+00 2.5271041072137373e+03 1.0000000000000000e+00 8.1024512203786543e+00 1.8799825236787530e+01 5.6175256952337405e+00 
517 119 2 1.0280000153315898e+00 2.5247517843076953e+03 1.0000000000000000e+00 8.0452578485409543e+00 1.8822204583404066e+01 5.6221166528227036e+00 
511 113 2 1.0279999879529542e+00 -8.2560668841426213e+03 1.0000000000000000e+00 9.7883528907298221e+00 1.9154960117038371e+01 5.5593046567959181e+00 
1895 1497 2 1.0280000058951098e+00 -9.3291169397593421e+03 1.0000000000000000e+00 1.1180602292183726e+01 1.8604792059213455e+01 5.6118740133059966e+00 
527 129 2 1.0280000125807167e+00 -9.2985968591707206e+03 1.0000000000000000e+00 1.1303136676648512e+01 1.8721138283110331e+01 5.5779592087388039e+00 
1070 672 2 1.0279999884198470e+00 3.7596854676285848e+03 1.0000000000000000e+00 1.3120834275763190e+01 1.9885544258098847e+01 5.8005378561168373e+00 
1743 1345 2 1.0280000049397644e+00 1.7157022885787326e+03 1.0000000000000000e+00 1.3831458072489188e+01 1.9264054075224600e+01 5.5148920165656294e+00 
1738 1340 2 1.0280000115496244e+00 2.1700588684182158e+03 1.0000000000000000e+00 1.4046237633257377e+01 1.9995021239360096e+01 5.5028841301961311e+00 
1139 741 2 1.0279999999516740e+00 1.2541972692319000e+03 1.0000000000000000e+00 1.6146140829877436e+00 6.5225203777583529e-01 7.5442395618313736e+00 
1254 856 2 1.0279999994947604e+00 4.2549018988933558e+03 1.0000000000000000e+00 1.6948470669707469e+00 4.8246074567401209e-01 7.3341588877268773e+00 
488 90 2 1.0280000137791563e+00 3.8894056128347593e+03 1.0000000000000000e+00 1.6297520196099555e+00 9.5084161042233184e+00 6.9387066186816968e+00 
435 37 2 1.0279999472564467e+00 -6.1341716473170773e+03 1.0000000000000000e+00 2.5567200066153508e+00 9.1150285996719269e+00 6.6017040427125195e+00 
1797 1399 2 1.0280000115583066e+00 3.2874547703765893e+03 1.0000000000000000e+00 3.5918311226496806e+00 9.0925058573313944e+00 6.0937906156774435e+00 
1887 1489 2 1.0280001358027735e+00 -6.1074595295637910e+03 1.0000000000000000e+00 4.2539083574720342e+00 8.9969358445508369e+00 7.6182424264171811e+00 
413 15 2 1.0279999533250113e+00 -1.4410736938490661e+03 1.0000000000000000e+00 6.9298314259245366e+00 9.9651417393200976e+00 7.8208433761528067e+00 
1620 1222 2 1.0279999943422387e+00 3.4606186616492087e+03 1.0000000000000000e+00 7.8647603802804635e+00 8.6438272888295007e+00 6.0048099766180449e+00 
1808 1410 2 1.0279999852079706e+00 3.7593222475828452e+03 1.0000000000000000e+00 8.1227356299788607e+00 8.7321893966770823e+00 7.6381830022104920e+00 
1682 1284 2 1.0279999936476574e+00 1.5726148041949075e+03 1.0000000000000000e+00 9.4976432359852136e+00 9.5393319755722938e+00 5.9073795941894520e+00 
1193 795 2 1.0280000174669677e+00 -1.0760740152250717e+03 1.0000000000000000e+00 9.5755462092999171e+00 8.8795186515295672e+00 6.3368496055132564e+00 
1562 1164 2 1.0280000026787255e+00 -4.8321193765357984e+03 1.0000000000000000e+00 5.2716666048294891e-02 1.0346611599580477e+01 7.1280030235970804e+00 
913 515 2 1.0280000202781863e+00 7.9836606466126123e+03 1.0000000000000000e+00 3.1180437976618443e+00 1.0900104782584503e+01 6.8220309496017579e+00 
416 18 2 1.0279999818715622e+00 -1.4594613260861668e+03 1.0000000000000000e+00 8.4011436471821561e+00 1.1307303179790445e+01 7.1159721437331394e+00 
1544 1146 2 1.0280000369490310e+00 -2.3216531543838246e+03 1.0000000000000000e+00 8.2176591293799319e+00 1.1471860898430064e+01 7.1471902096778770e+00 
1451 1053 2 1.0280000052387372e+00 -2.1809920417014864e+03 1.0000000000000000e+00 1.0781807429620502e+01 1.0305418539976328e+01 6.8503632735137865e+00 
1441 1043 2 1.0279999964360196e+00 3.2570725431800743e+03 1.0000000000000000e+00 1.1088698867804613e+01 1.0734401499464767e+01 7.6054100585677009e+00 
822 424 2 1.0279999958368373e+00 -5.0939421198100408e+03 1.0000000000000000e+00 1.1739037367803386e+01 1.1529817733070955e+01 6.7916967202704024e+00 
854 456 2 1.0280000461696699e+00 -1.2721489234489900e+03 1.0000000000000000e+00 3.6833952981222617e-01 1.3141849234347523e+01 7.2037059818667482e+00 
989 591 2 1.0279999861533260e+00 4.3668894167955077e+03 1.0000000000000000e+00 1.6661311106490020e-01 1.3271846437419253e+01 7.2204058284722379e+00 
1485 1087 2 1.0279999733479299e+00 -7.2547857867417497e+02 1.0000000000000000e+00 2.5037114902153497e+00 1.2140038012070882e+01 6.4828689733773572e+00 
1915 1517 2 1.0279999845306886e+00 2.0639198083639582e+02 1.0000000000000000e+00 4.4364861372556748e+00 1.2062875974869934e+01 7.3603459421172710e+00 
1687 1289 2 1.0279999692576287e+00 1.0762758144394786e+03 1.0000000000000000e+00 4.1578487688144090e+00 1.2481834702500320e+01 7.4263321475039739e+00 
892 494 2 1.0279999788904235e+00 6.8780472469184660e+03 1.0000000000000000e+00 4.4793642730498551e+00 1.3361404177659757e+01 5.8921757650557582e+00 
642 244 2 1.0280000157061138e+00 2.2637808398153488e+03 1.0000000000000000e+00 5.7226492994074292e+00 1.2796859327164793e+01 6.3312084564328579e+00 
1695 1297 2 1.0280000034636967e+00 1.9257853109329860e+03 1.0000000000000000e+00 9.2151390538178379e+00 1.2294444880665790e+01 6.0911898165140430e+00 
995 597 2 1.0280000056806351e+00 -2.1859206722327781e+03 1.0000000000000000e+00 1.1068593625455645e+01 1.2143638863023604e+01 6.9991660358640457e+00 
959 561 2 1.0280000162751914e+00 3.0446039676991049e+03 1.0000000000000000e+00 2.5982218131702886e+00 1.4906118644805067e+01 5.9826436299791412e+00 
786 388 2 1.0280000059156253e+00 -4.9357404383949361e+03 1.0000000000000000e+00 3.9520563514433373e+00 1.5125088543786685e+01 7.4859256303156858e+00 
1530 1132 2 1.0280000466245958e+00 -2.7165695125006982e+03 1.0000000000000000e+00 5.3839574322868726e+00 1.4593204989827795e+01 6.6533672635433838e+00 
1073 675 2 1.0279999745548136e+00 -4.5778402044366485e+03 1.0000000000000000e+00 4.1845699307748108e+00 1.5941619419728228e+01 6.3617293623280542e+00 
629 231 2 1.0279999969755915e+00 -8.7045423527786750e+02 1.0000000000000000e+00 6.0441168765123896e+00 1.5908343182363886e+01 6.1653412992947247e+00 
471 73 2 1.0280000070679625e+00 -3.5084075794575620e+03 1.0000000000000000e+00 1.1916132606900445e+00 1.7811673703389939e+01 7.2917285686037845e+00 
540 142 2 1.0279999858708107e+00 -7.9750523359107808e+02 1.0000000000000000e+00 1.2964450930795979e+00 1.7408915940531813e+01 7.1383997767653922e+00 
1283 885 2 1.0279999935165407e+00 1.4635120568412242e+03 1.0000000000000000e+00 3.3931962685094876e+00 1.7374397165762645e+01 7.6945669305445330e+00 
1685 1287 2 1.0280000174189374e+00 -1.1126303339644367e+03 1.0000000000000000e+00 5.7068133801947409e+00 1.7064203857912709e+01 5.9594293669878224e+00 
795 397 2 1.0279999942299898e+00 -5.8990624006792023e+03 1.0000000000000000e+00 6.1168880793414591e+00 1.6020403487036017e+01 7.8127276752621100e+00 
806 408 2 1.0279999961856787e+00 -4.3406604928438028e+03 1.0000000000000000e+00 6.2728888032895103e-01 1.9010721361687256e+01 6.1350947431746166e+00 
530 132 2 1.0279999962359876e+00 -5.2495888574919918e+03 1.0000000000000000e+00 3.3853334571265994e+00 1.9450951816765134e+01 6.9747424741940325e+00 
1433 1035 2 1.0280000049118323e+00 2.9671766965943352e+03 1.0000000000000000e+00 3.5179091634748589e+00 1.8940645443326503e+01 7.3095425411221271e+00 
1048 650 2 1.0279999787186893e+00 -2.5723237289497952e+03 1.0000000000000000e+00 5.5463168211801968e+00 1.8254398257881672e+01 6.2996650083483701e+00 
744 346 2 1.0280000118478847e+00 1.3767248983123488e+03 1.0000000000000000e+00 5.0370437056582373e+00 1.8583111679416653e+01 6.2468313492222656e+00 
815 417 2 1.0279999993496594e+00 -5.3198664669320233e+03 1.0000000000000000e+00 7.3247538983866534e+00 1.9959186249378050e+01 6.6928572991871427e+00 
1873 1475 2 1.0279999712498564e+00 4.1265444254329386e+03 1.0000000000000000e+00 4.7316545024001728e+00 7.8832082747420200e+00 7.9921781820183346e+00 
1452 1054 2 1.0279999846960866e+00 5.0558178642987541e+03 1.0000000000000000e+00 3.8817261310993882e+00 8.2010888293621651e+00 8.5042279551425999e+00 
1164 766 2 1.0280000708684678e+00 -2.0498916978781767e+03 1.0000000000000000e+00 5.1110455335202643e+00 8.2162748161710599e+00 9.6221898801952150e+00 
674 276 2 1.0279999347281250e+00 2.2924634176247464e+03 1.0000000000000000e+00 5.6197747918713379e+00 9.0406739411742070e+00 9.2128820608548896e+00 
1185 787 2 1.0280000383997552e+00 -1.7075169967364507e+03 1.0000000000000000e+00 7.2579501998796347e+00 8.2879384701245922e+00 9.0262665161639042e+00 
578 180 2 1.0279999905752877e+00 1.7087487190512984e+03 1.0000000000000000e+00 6.4222080454562835e+00 9.7961815250621456e+00 8.1319227324522387e+00 
1372 974 2 1.0280000108616540e+00 7.5315258345264065e+03 1.0000000000000000e+00 7.8386570782333544e+00 8.1710192549822711e+00 8.6626869582124453e+00 
1556 1158 2 1.0280001019894331e+00 1.1276034780060311e+02 1.0000000000000000e+00 1.6954895628593960e+00 1.0132970456925916e+01 8.5550429950595905e+00 
944 546 2 1.0280000043756412e+00 6.3756163489525570e+03 1.0000000000000000e+00 1.5777064152547906e+00 1.0242189326461673e+01 8.7237431767191165e+00 
655 257 2 1.0279999968833406e+00 2.2420828489581986e+03 1.0000000000000000e+00 1.2439829807801548e+00 1.4524506388235123e+01 8.4943014785983451e+00 
908 510 2 1.0280000057303051e+00 9.4073327846585307e+03 1.0000000000000000e+00 5.8510520352384265e-01 1.5397103936102864e+01 9.3864564410980194e+00 
1415 1017 2 1.0279999969857803e+00 2.8885714908021109e+03 1.0000000000000000e+00 1.5825614337856875e+00 1.5482445411477164e+01 8.3218300881977854e+00 
1511 1113 2 1.0280000053702054e+00 -4.0605397101411436e+03 1.0000000000000000e+00 3.3252770033988388e+00 1.5680628762057019e+01 8.3189462856996084e+00 
496 98 2 1.0280000038701211e+00 2.8366846539861313e+03 1.0000000000000000e+00 3.2738980551944019e+00 1.6938197576869989e+01 8.3325441469254233e+00 
1156 758 2 1.0279999921882585e+00 1.0842272139881781e+02 1.0000000000000000e+00 5.9219228158689798e+00 1.6114772451876444e+01 7.8631466827337455e+00 
1780 1382 2 1.0280000037482180e+00 -6.4918356737798167e+03 1.0000000000000000e+00 9.1871569590570035e-01 1.8524660586518468e+01 9.7712230631337107e+00 
1314 916 2 1.0279999807791576e+00 -8.9437079628870606e+02 1.0000000000000000e+00 3.5847505281077732e+00 6.8576487515771225e+00 1.1231787499692281e+01 
1776 1378 2 1.0280000139862202e+00 2.4888338445946288e+03 1.0000000000000000e+00 3.7896957670123430e+00 7.1638381150664250e+00 1.1685477020016343e+01 
1318 920 2 1.0280000168792667e+00 -6.5857045020782084e+02 1.0000000000000000e+00 4.3501956597936982e+00 7.5616234798237896e+00 1.0794615512297668e+01 
1249 851 2 1.0280000070960194e+00 -2.7238124479614544e+03 1.0000000000000000e+00 1.6826369330474794e-01 9.7945467648767242e+00 1.0270350545357445e+01 
1006 608 2 1.0280000211143570e+00 -1.0500452716503598e+03 1.0000000000000000e+00 5.0209432119336450e-01 9.8464516321458611e+00 1.0087156910252645e+01 
1617 1219 2 1.0279999971899580e+00 2.9115465820815839e+03 1.0000000000000000e+00 1.4057320044319050e+00 1.2622244776244399e+01 1.0854597988036220e+01 
1465 1067 2 1.0279999961675874e+00 -3.4113391733497024e+03 1.0000000000000000e+00 1.4319033960031649e+00 1.2504498122779392e+01 1.0708797536349154e+01 
811 413 2 1.0280000023390516e+00 -3.7069261938390582e+03 1.0000000000000000e+00 7.7413201557778377e-01 1.4017743363425842e+01 1.0234389477194229e+01 
1119 721 2 1.0280000023968323e+00 2.8196331061797428e+03 1.0000000000000000e+00 5.4899805398093682e-01 1.8213906242628084e+01 1.0162686095095928e+01 
1621 1223 2 1.0280000000008114e+00 1.2367747617511113e+03 1.0000000000000000e+00 1.6333508896410315e+01 8.6911438051120342e+00 6.3801986263379810e+01 
1624 1226 2 1.0279999999954641e+00 1.7241342754431316e+03 1.0000000000000000e+00 1.6561425754944750e+01 8.4762999708157523e+00 6.3911150081786239e+01 
1600 1202 2 1.0280000000095786e+00 -1.0542324557935441e+02 1.0000000000000000e+00 7.9110936092119521e-01 1.1902019650566366e+01 6.3981250134416598e+01 
1756 1358 2 1.0280000000052090e+00 2.1185546223791562e+03 1.0000000000000000e+00 7.4679639084115268e-01 1.1915844749046208e+01 6.3993650962717219e+01 
593 195 2 1.0280000000213834e+00 6.1321978523200823e+02 1.0000000000000000e+00 4.9167056912870892e+00 1.1194168257959772e+01 6.4543754838698305e+01 
1203 805 2 1.0280000000059339e+00 2.7473773638663115e+03 1.0000000000000000e+00 4.3940586910695751e+00 1.0335537253822093e+01 6.4634790352143185e+01 