LAMMPS data file via write_data, version 30 Jul 2016, timestep = 50000000

384 atoms
2 atom types

0.0000000000000000e+00 2.0000000000000000e+01 xlo xhi
0.0000000000000000e+00 2.0000000000000000e+01 ylo yhi
0.0000000000000000e+00 2.0000000000000000e+01 zlo zhi

Masses

1 3.896
2 4.31

Atoms # meso-molecular

232 1 2 1.1605682584842913e+00 -9.1087820258303765e+01 1.0000000000000000e+00 5.8521709628337408e+00 8.7029334185214791e-01 1.6708860515059900e-02 
153 1 2 1.1605682584842913e+00 1.1656838843220612e+01 1.0000000000000000e+00 5.3597852640619159e+00 2.6882294105988351e+00 8.1507726295855809e-01 
177 1 2 1.1605682584842913e+00 1.1034413049644616e+01 1.0000000000000000e+00 3.0958746920885609e+00 4.7980126460315775e+00 4.4281379582541003e-01 
130 1 2 1.1605682584842913e+00 2.8546435079003132e+00 1.0000000000000000e+00 9.3715900659336571e-01 7.8403322440426582e+00 6.0607581572576430e-01 
123 1 2 1.1605682584842913e+00 1.3471639257409890e+01 1.0000000000000000e+00 6.6211111468897803e+00 7.7347364637994511e+00 3.9794071619515992e-01 
257 1 2 1.1605682584842913e+00 2.1085779951045950e+01 1.0000000000000000e+00 2.7669578741833827e+00 2.7828942127711915e+00 2.2615366474781902e+00 
260 1 2 1.1605682584842913e+00 1.0689381002229286e+01 1.0000000000000000e+00 2.6319194982676062e+00 6.1480382882298326e+00 2.2519143351674349e+00 
330 1 2 1.1605682584842913e+00 1.1870419199249657e+01 1.0000000000000000e+00 5.2622852560820652e+00 8.6740268444629844e+00 2.4582227110381623e+00 
43 1 2 1.1605682584842913e+00 4.7169974847995775e+00 1.0000000000000000e+00 8.9590930631207588e-01 7.0978609575492269e-01 3.1420578452540204e+00 
120 1 2 1.1605682584842913e+00 1.6542665400184411e+01 1.0000000000000000e+00 3.8287086760662743e+00 2.4536592006738633e+00 5.0476385168425555e+00 
1 1 2 1.1605682584842913e+00 1.4705276165888510e+01 1.0000000000000000e+00 3.2216607021976351e+00 5.5396306219487981e+00 5.5567363620620318e+00 
317 1 2 1.1605682584842913e+00 8.7357830909925518e+00 1.0000000000000000e+00 6.4441694401651803e+00 5.1253792837163035e+00 4.7509417829491909e+00 
63 1 2 1.1605682584842913e+00 -5.0009856643096526e+01 1.0000000000000000e+00 2.0229615944825787e+00 8.1652715375207290e+00 5.5626615145038691e+00 
164 1 2 1.1605682584842913e+00 9.2999237460195303e+00 1.0000000000000000e+00 4.1591170419275798e+00 9.1770106781878251e+00 4.7991794048383714e+00 
231 1 2 1.1605682584842913e+00 1.4864881617539915e+01 1.0000000000000000e+00 2.0983453253576414e+00 9.6910847147568713e-01 6.6642966468603042e+00 
277 1 2 1.1605682584842913e+00 1.3377819594157810e+01 1.0000000000000000e+00 9.7429402607979998e-01 2.6760437143530114e+00 6.6806345411081374e+00 
293 1 2 1.1605682584842913e+00 1.2437430093608423e+01 1.0000000000000000e+00 5.0473768748036267e+00 4.3006947454357789e+00 6.5764981637206583e+00 
72 1 2 1.1605682584842913e+00 1.3043238657425043e+01 1.0000000000000000e+00 5.7107934791591406e+00 6.3770461281834985e+00 6.2971037992880596e+00 
259 1 2 1.1605682584842913e+00 1.1362280235695508e+01 1.0000000000000000e+00 3.9567961806869110e+00 7.4429576188130220e+00 6.4589896358515375e+00 
187 1 2 1.1605682584842913e+00 1.0089221369273197e+01 1.0000000000000000e+00 6.2529601962853461e+00 1.3412774707570851e+00 8.5260822433299648e+00 
254 1 2 1.1605682584842913e+00 1.4968812816694658e+01 1.0000000000000000e+00 6.4850472256778036e-01 1.4795790374932503e+00 8.3557039369856998e+00 
96 1 2 1.1605682584842913e+00 1.0977655043382509e+01 1.0000000000000000e+00 6.2940198439639685e+00 5.2182493514305488e+00 8.4657704496067172e+00 
55 1 2 1.1605682584842913e+00 1.2245585044174785e+01 1.0000000000000000e+00 4.2049461949083931e+00 9.1546588693679070e+00 8.5152332598281308e+00 
358 1 2 1.1605682584842913e+00 1.2918252123183152e+01 1.0000000000000000e+00 3.5668814007640264e+00 1.6370040419849583e+00 8.7032849419697982e+00 
230 1 2 1.1605682584842913e+00 5.3744455915773486e+00 1.0000000000000000e+00 9.5029360822556952e-01 4.3838538571733761e+00 9.8313751842099357e+00 
344 1 2 1.1605682584842913e+00 -6.3182948772867945e+01 1.0000000000000000e+00 1.7330093945585521e+00 7.0251033137704741e+00 8.8651363545720336e+00 
239 1 2 1.1605682584842913e+00 1.0575767726825870e+01 1.0000000000000000e+00 1.2883548764411725e+00 9.0487520186007036e+00 9.6320773401342006e+00 
7 1 2 1.1605682584842913e+00 1.7769218947064985e+01 1.0000000000000000e+00 2.9462881477457472e+00 5.2649405555308770e-01 1.0779631770656032e+01 
76 1 2 1.1605682584842913e+00 1.3223092783398901e+01 1.0000000000000000e+00 1.0508325313266866e+00 1.7458525376779694e+00 1.0968824759617494e+01 
64 1 2 1.1605682584842913e+00 9.4380452516757032e+00 1.0000000000000000e+00 5.0803986221960615e+00 2.4055452140092504e+00 1.0245327282323297e+01 
39 1 2 1.1605682584842913e+00 3.9101129812742998e+00 1.0000000000000000e+00 3.4922871991903417e+00 4.5104683264162331e+00 1.1323365391355528e+01 
45 1 2 1.1605682584842913e+00 1.0360313470608443e+01 1.0000000000000000e+00 5.5153611212929183e+00 6.0025066855550469e+00 1.0563122239759029e+01 
54 1 2 1.1605682584842913e+00 -2.9863502088018993e+02 1.0000000000000000e+00 6.2513809360778270e+00 9.0051591870479459e+00 1.0295122872040208e+01 
328 1 2 1.1605748005760845e+00 9.4120260824504456e+00 1.0000000000000000e+00 5.7909691685968880e+00 1.0256122115044644e+00 1.1538848823906733e+01 
294 1 2 1.1605682584842913e+00 9.4092748966376440e+00 1.0000000000000000e+00 1.2838074584921386e+00 2.8353113794524210e+00 1.2726927569231838e+01 
133 1 2 1.1605748005760845e+00 1.5544409484362379e+01 1.0000000000000000e+00 6.6271403670896696e+00 2.6219095771516754e+00 1.2285661380300645e+01 
226 1 2 1.1605682584842913e+00 1.1628856492250147e+01 1.0000000000000000e+00 4.0902320141684161e+00 1.8322193859637139e+00 1.3120754169588853e+01 
142 1 2 1.1605682584842913e+00 1.3231182280235281e+01 1.0000000000000000e+00 2.2312981950564055e+00 5.9824840246280226e+00 1.3816985420089500e+01 
212 1 2 1.1605682584842913e+00 1.5144371318183200e+01 1.0000000000000000e+00 4.2728126957040509e+00 7.1211820485761299e+00 1.3093338472440148e+01 
185 1 2 1.1605682584842913e+00 7.8670918583571918e+00 1.0000000000000000e+00 4.9321225101641675e-01 9.0880544830378671e+00 1.3056370774619992e+01 
234 1 2 1.1605682584842913e+00 8.9900772254022705e+00 1.0000000000000000e+00 3.5791910580209141e+00 1.9711036184386213e+00 1.5709989469380584e+01 
378 1 2 1.1605682584842913e+00 1.0126849489673930e+01 1.0000000000000000e+00 2.2163947541178546e+00 4.2940430895654682e+00 1.4986403788977245e+01 
78 1 2 1.1605682584842913e+00 7.7098614311784974e+00 1.0000000000000000e+00 4.4177600674490245e+00 5.4050629992181349e+00 1.4675554868957970e+01 
124 1 2 1.1605682584842913e+00 1.1898833421203484e+01 1.0000000000000000e+00 6.4077982559487046e+00 5.8511635880459796e+00 1.4967951217100424e+01 
198 1 2 1.1605682584842913e+00 -1.8061794192494560e+01 1.0000000000000000e+00 6.1867740429394989e-02 8.2285613158675357e+00 1.4964068838930606e+01 
4 1 2 1.1605682584842913e+00 1.2188807901985044e+01 1.0000000000000000e+00 2.7790524608211142e+00 8.4073593337232726e+00 1.4699375387792619e+01 
253 1 2 1.1605682584842913e+00 8.7629818251561602e+00 1.0000000000000000e+00 1.6120529732868749e+00 6.1610911837204678e-02 1.5720284076394201e+01 
382 1 2 1.1605682584842913e+00 1.1651192031510668e+01 1.0000000000000000e+00 2.5084932560385189e+00 3.2600179061087888e+00 1.6936083222395663e+01 
108 1 2 1.1605682584842913e+00 -1.4079299242749846e+02 1.0000000000000000e+00 5.8569392931842257e-01 5.0457307237885241e+00 1.6855383547114272e+01 
273 1 2 1.1605682584842913e+00 9.0340120430016597e+00 1.0000000000000000e+00 3.4705704304731819e+00 5.3341645438876499e+00 1.6567354290968453e+01 
341 1 2 1.1605682584842913e+00 4.8235585478536827e+00 1.0000000000000000e+00 3.5126857814009721e-01 9.2992503178078021e+00 1.7118452746300221e+01 
193 1 2 1.1605682584842913e+00 8.6453951444739410e+00 1.0000000000000000e+00 5.5639459993946669e+00 7.1887090185245750e-01 1.7705402416231490e+01 
272 1 2 1.1605682584842913e+00 1.3499063630670612e+01 1.0000000000000000e+00 8.1596708609080271e-01 1.9283484611515884e+00 1.7610859489618758e+01 
99 1 2 1.1605682584842913e+00 -2.0191445787514581e+01 1.0000000000000000e+00 4.8252926788707482e+00 3.1389217262196043e+00 1.7275159479922376e+01 
288 1 2 1.1605682584842913e+00 8.8929852526654365e+00 1.0000000000000000e+00 5.6959122997920772e+00 7.5065150580654523e+00 1.7861641115353237e+01 
102 1 2 1.1605682584842913e+00 -8.4740346889120133e+01 1.0000000000000000e+00 3.3024550539218813e+00 9.2062924944652842e+00 1.7702760162511083e+01 
268 1 2 1.1605682584842913e+00 -4.6719608730553190e+00 1.0000000000000000e+00 7.9904945961100504e-01 2.2873524416038258e+00 1.9609663824271554e+01 
321 1 2 1.1605682584842913e+00 5.5229404083909213e+00 1.0000000000000000e+00 3.9156746521281147e+00 1.9087652292830026e+00 1.8938363908581049e+01 
203 1 2 1.1605682584842913e+00 9.8909834211910024e+00 1.0000000000000000e+00 1.4036502592841043e+00 5.7064428866143055e+00 1.9138636432224651e+01 
355 1 2 1.1605682584842913e+00 1.6523208834811388e+01 1.0000000000000000e+00 3.7476427280695201e+00 6.3665051835783224e+00 1.9270965313972091e+01 
60 1 2 1.1605682584842913e+00 2.4818357548089068e+01 1.0000000000000000e+00 5.0037468104709495e+00 9.9434980664929924e+00 1.9617726115815220e+01 
167 1 2 1.1605682584842913e+00 6.6611974908093430e+00 1.0000000000000000e+00 4.4121856105338149e-02 1.1828998338414308e+01 1.1057037434770032e+00 
143 1 2 1.1605682584842913e+00 1.2851575751628374e+01 1.0000000000000000e+00 3.9806325000314908e+00 1.2134778231156867e+01 9.5567447811575135e-01 
349 1 2 1.1605682584842913e+00 8.8780554169479657e+00 1.0000000000000000e+00 2.9266500417043275e+00 1.4695382353275592e+01 1.3385278173674657e+00 
370 1 2 1.1605682584842913e+00 1.6646699061696353e+01 1.0000000000000000e+00 6.0469900889974735e+00 1.4678838495804849e+01 1.4819095122200643e-01 
48 1 2 1.1605682584842913e+00 1.2833283816603604e+01 1.0000000000000000e+00 4.1393035865793637e+00 1.7093401165651553e+01 1.1311840595372575e+00 
65 1 2 1.1605682584842913e+00 9.8711907899876330e+00 1.0000000000000000e+00 2.2624983224995199e+00 1.9210214856042885e+01 7.2814746722569257e-01 
263 1 2 1.1605682584842913e+00 1.2227434740336591e+01 1.0000000000000000e+00 1.5053262261537672e+00 1.0369019958538454e+01 2.1811417072184036e+00 
151 1 2 1.1605682584842913e+00 -1.3803708339659689e+01 1.0000000000000000e+00 1.7345590193297511e+00 1.7365692372472701e+01 2.5659162741486758e+00 
136 1 2 1.1605682584842913e+00 1.4573796166196708e+01 1.0000000000000000e+00 5.9124671570437295e+00 1.7669884639293617e+01 2.1055079400093524e+00 
27 1 2 1.1605682584842913e+00 -3.3232334544193165e+01 1.0000000000000000e+00 5.1346107989360830e+00 1.2666976673412668e+01 3.6738065427637263e+00 
67 1 2 1.1605682584842913e+00 9.1920965418100060e+00 1.0000000000000000e+00 2.7182214358749239e+00 1.4706198256205813e+01 3.3559860337952636e+00 
195 1 2 1.1605682584842913e+00 1.0541818822088644e+01 1.0000000000000000e+00 4.6003415050445868e+00 1.6148672068288480e+01 3.1086576058663238e+00 
376 1 2 1.1605682584842913e+00 9.6047219152284029e+00 1.0000000000000000e+00 4.6359703498681633e+00 1.8708306166334253e+01 3.3874166841659128e+00 
314 1 2 1.1605682585677708e+00 5.8019383498196317e+00 1.0000000000000000e+00 8.1144040373514234e-02 1.3949973680270585e+01 5.0948029323495652e+00 
369 1 2 1.1605682585677708e+00 -4.9735429392956776e-01 1.0000000000000000e+00 1.7634374068795566e+00 1.5005244969460598e+01 5.3091842062896113e+00 
141 1 2 1.1605682584842913e+00 9.1155108636219886e+00 1.0000000000000000e+00 1.0458409508997011e+00 1.7186777575368705e+01 5.2681043575303903e+00 
88 1 2 1.1605682584842913e+00 1.1674802803497517e+01 1.0000000000000000e+00 3.5742001303316612e-01 1.9852417494621776e+01 4.9555397131666350e+00 
302 1 2 1.1605682584842913e+00 1.3208486074831310e+01 1.0000000000000000e+00 3.2882062022535080e-01 1.1790870596136781e+01 6.0683231474235191e+00 
57 1 2 1.1605690674149769e+00 9.1286241309855338e+00 1.0000000000000000e+00 3.5352582826458931e+00 1.4585076777514644e+01 6.6383564297394546e+00 
204 1 2 1.1605682584842913e+00 1.9670710351112220e+01 1.0000000000000000e+00 4.0200527677887559e+00 1.7450134937024639e+01 6.1323061356282906e+00 
261 1 2 1.1605682584842913e+00 -4.6304883773954884e+01 1.0000000000000000e+00 5.8891238214426309e+00 1.8116859429663304e+01 6.5585943716449373e+00 
93 1 2 1.1605682584842913e+00 -1.0071386681610321e+01 1.0000000000000000e+00 3.7191457986913528e+00 1.9583671698006892e+01 5.7420098616377260e+00 
12 1 2 1.1605682584842913e+00 1.2998971058321139e+01 1.0000000000000000e+00 2.1140963157563601e+00 1.0335657500449358e+01 7.2793028172254912e+00 
283 1 2 1.1605682584842913e+00 2.0177966135675812e-01 1.0000000000000000e+00 5.3542730089582546e+00 1.1338474509962470e+01 8.1258344376493739e+00 
112 1 2 1.1605690674149769e+00 1.1179027704751201e+01 1.0000000000000000e+00 2.4022655303362961e+00 1.3959826364728947e+01 8.1248681153925730e+00 
269 1 2 1.1605682584842913e+00 -4.7265504969309347e+01 1.0000000000000000e+00 5.3966639283140960e+00 1.4093149900980658e+01 7.5231486840372650e+00 
233 1 2 1.1605682584842913e+00 1.0908591246910817e+01 1.0000000000000000e+00 2.2967162534217329e+00 1.8679476033241684e+01 7.4989624527076462e+00 
149 1 2 1.1605682584842913e+00 1.1912056523072081e+01 1.0000000000000000e+00 2.7352132244980285e+00 1.2223763586060166e+01 9.9437743567743055e+00 
30 1 2 1.1605682584842913e+00 1.0642081900508007e+01 1.0000000000000000e+00 4.5483938067695560e+00 1.5938243840320943e+01 9.7664227654753688e+00 
161 1 2 1.1605682584842913e+00 4.2104775040017586e+00 1.0000000000000000e+00 6.2842557919837940e+00 1.8690949842597433e+01 9.3150149064309851e+00 
305 1 2 1.1605682584842913e+00 -1.8649726356100489e+00 1.0000000000000000e+00 5.6894211531861920e+00 1.0943403199181480e+01 1.0264609304078936e+01 
347 1 2 1.1605682584842913e+00 1.0626280520399810e+01 1.0000000000000000e+00 5.9590597325341665e+00 1.6585372317257903e+01 1.1180744865156154e+01 
132 1 2 1.1605682584842913e+00 -6.5720604269439974e+01 1.0000000000000000e+00 2.1245152011781419e+00 1.7909613641502215e+01 1.1134567166171061e+01 
242 1 2 1.1605682584842913e+00 1.8616372972173522e+01 1.0000000000000000e+00 4.5895120423902389e+00 1.9274943018684006e+01 1.1001396892964774e+01 
224 1 2 1.1605682584842913e+00 1.0128773694046409e+01 1.0000000000000000e+00 3.8614115400811331e+00 1.0547019016449525e+01 1.1564977101351875e+01 
174 1 2 1.1605682584842913e+00 1.3031289278382054e+01 1.0000000000000000e+00 2.9372661078553575e-01 1.4748687112941234e+01 1.2302334888354158e+01 
326 1 2 1.1605684991807981e+00 1.0427247222136959e+01 1.0000000000000000e+00 4.5272026372919631e+00 1.4620407269102181e+01 1.2086267045186283e+01 
46 1 2 1.1605691757127554e+00 1.2456702631473531e+01 1.0000000000000000e+00 2.0518549572118925e+00 1.5782875993614056e+01 1.2563738306732652e+01 
117 1 2 1.1605682584842913e+00 1.9306998721329869e+01 1.0000000000000000e+00 4.4273341446879471e+00 1.1465227145769369e+01 1.3846612224847705e+01 
103 1 2 1.1605684991807981e+00 3.0756350308015561e+00 1.0000000000000000e+00 5.7793166620853205e+00 1.4613362331405945e+01 1.3618181356374594e+01 
150 1 2 1.1605682584842913e+00 -2.7267930258209518e+01 1.0000000000000000e+00 6.4918139617619230e+00 1.7090034925854109e+01 1.3063115996518960e+01 
309 1 2 1.1605682584842913e+00 1.3525893130377582e+01 1.0000000000000000e+00 4.0990877811055819e+00 1.8378165098330971e+01 1.3547996704082836e+01 
148 1 2 1.1605682584842913e+00 9.4395341021617156e+00 1.0000000000000000e+00 3.6394205384742689e-01 1.1033492858212437e+01 1.4335663979641739e+01 
159 1 2 1.1605682584842913e+00 1.6155234991436142e+01 1.0000000000000000e+00 1.8851868396083848e+00 1.2333182617479260e+01 1.4293182063460145e+01 
77 1 2 1.1605732026368414e+00 -9.3211672028981898e+00 1.0000000000000000e+00 3.6297435384734462e+00 1.3668961447172149e+01 1.4362873388835693e+01 
287 1 2 1.1605741198653055e+00 8.4998359937594010e+00 1.0000000000000000e+00 2.2072925527935121e+00 1.5008710859402589e+01 1.4368471468236114e+01 
81 1 2 1.1605682584842913e+00 1.3198389367161447e+01 1.0000000000000000e+00 2.8161339868726007e+00 1.6972955201291398e+01 1.4946881086504252e+01 
297 1 2 1.1605682584842913e+00 2.1756991103075954e+01 1.0000000000000000e+00 4.9840561728571258e+00 1.7112698869485055e+01 1.5372511605119284e+01 
186 1 2 1.1605682584842913e+00 1.2564441645081619e+01 1.0000000000000000e+00 3.8215686505448789e+00 1.0394987513366798e+01 1.5823236744965397e+01 
322 1 2 1.1605682584842913e+00 8.6069524734650749e+00 1.0000000000000000e+00 1.6424554298709417e+00 1.2817538168873947e+01 1.6734549439898416e+01 
332 1 2 1.1605682584842913e+00 -2.2608662474396182e+00 1.0000000000000000e+00 6.0858040796763406e+00 1.3391525647681398e+01 1.6075755356087758e+01 
74 1 2 1.1605682584842913e+00 1.0835321528713390e+01 1.0000000000000000e+00 2.1349444088697398e+00 1.5612701948838129e+01 1.6545573896031151e+01 
221 1 2 1.1605682584842913e+00 1.8125393442009411e+01 1.0000000000000000e+00 4.3456920893597211e+00 1.8587785617840467e+01 1.6668206096839874e+01 
13 1 2 1.1605682584842913e+00 1.4894112853304943e+01 1.0000000000000000e+00 5.3934368456987567e+00 1.5117678066699320e+01 1.7562623937865787e+01 
375 1 2 1.1605688738031901e+00 6.1874026385602274e+00 1.0000000000000000e+00 2.1294352996542965e+00 1.9236021071950514e+01 1.7865342232654971e+01 
181 1 2 1.1605682584842913e+00 1.9493613829265719e+01 1.0000000000000000e+00 2.9015506703187945e+00 1.1040403979051023e+01 1.9357735392714961e+01 
180 1 2 1.1605682584842913e+00 7.6179272299073570e+00 1.0000000000000000e+00 5.6018683238985272e+00 1.2335337634578378e+01 1.9354919283315965e+01 
66 1 2 1.1605682584842913e+00 1.1855605964448856e+01 1.0000000000000000e+00 3.0773966627063594e+00 1.4061789076738481e+01 1.9349759108918775e+01 
49 1 2 1.1605682584842913e+00 1.3897694312701933e+01 1.0000000000000000e+00 1.9977799333423987e-01 1.4496491914547819e+01 1.9732370752876260e+01 
16 1 2 1.1605682584842913e+00 9.0557134224635583e+00 1.0000000000000000e+00 1.4503617318810003e+00 1.6448479105182770e+01 1.9925829213971436e+01 
109 1 2 1.1605682584842913e+00 1.4009954779465819e+01 1.0000000000000000e+00 4.5136144588846996e+00 1.6092955971886699e+01 1.9188173379255709e+01 
15 1 2 1.1605688738031901e+00 1.0940254975408489e+01 1.0000000000000000e+00 3.7772717986368716e+00 1.9151431793456023e+01 1.8946843273621042e+01 
298 1 2 1.1605690199569183e+00 1.1353824024280794e+01 1.0000000000000000e+00 1.0636346084633448e+01 1.6347406246679330e+00 1.2864611252814736e-02 
286 1 2 1.1605682584842913e+00 1.0256661987716644e+01 1.0000000000000000e+00 7.1508642699437726e+00 4.0448936890263330e+00 1.3569366376545882e+00 
10 1 2 1.1605682584842913e+00 1.5228483707693300e+01 1.0000000000000000e+00 1.3104026795664842e+01 3.2577146536106865e+00 5.2361990002767034e-02 
213 1 2 1.1605682584842913e+00 1.3411976114791450e+01 1.0000000000000000e+00 1.1576315877530634e+01 4.8041902485298404e+00 5.3046329730708086e-01 
128 1 2 1.1605682584842913e+00 1.3650225878120807e+01 1.0000000000000000e+00 1.2910216140524875e+01 6.3172311118882796e+00 9.0185920889128673e-03 
83 1 2 1.1605682584842913e+00 7.5633019106751380e+00 1.0000000000000000e+00 1.1999774795537206e+01 4.7431116613554025e-01 1.6669853240858787e+00 
248 1 2 1.1605682584842913e+00 -7.9670914314569842e+01 1.0000000000000000e+00 1.2924388833028585e+01 2.1636932897762766e+00 2.8375741900100633e+00 
244 1 2 1.1605682584842913e+00 9.9846376597097510e+00 1.0000000000000000e+00 1.0436081946396941e+01 3.7510458490172103e+00 1.8461943148514481e+00 
119 1 2 1.1605682584842913e+00 1.4769904858568843e+01 1.0000000000000000e+00 8.3438722280817430e+00 6.9794937392301302e+00 2.0592714362582401e+00 
56 1 2 1.1605682584842913e+00 1.9901059205161516e+01 1.0000000000000000e+00 1.0743239935092832e+01 6.9221112201504855e+00 1.4447690674271030e+00 
222 1 2 1.1605682584842913e+00 7.0242348354677073e+00 1.0000000000000000e+00 1.2972284578822380e+01 5.9957884321077444e+00 2.2708562249525301e+00 
31 1 2 1.1605682584842913e+00 9.8982403172734692e+00 1.0000000000000000e+00 8.9593812273223925e+00 8.7800838419351788e+00 2.7238602106761354e+00 
265 1 2 1.1605682584842913e+00 1.2607350268755660e+01 1.0000000000000000e+00 9.3553642659497438e+00 1.1541430697345449e+00 3.1995074405866220e+00 
383 1 2 1.1605682584842913e+00 2.4851161889175089e+01 1.0000000000000000e+00 7.0102213560845223e+00 3.5460368713104398e+00 3.6224242866261340e+00 
163 1 2 1.1605682584842913e+00 1.2123389229846346e+01 1.0000000000000000e+00 8.6891063124081551e+00 5.0846238026914445e+00 2.8751338410417451e+00 
69 1 2 1.1605682584842913e+00 -4.9506388768946934e+00 1.0000000000000000e+00 1.2614957664493188e+01 4.5100464665022200e+00 3.7846096575279509e+00 
202 1 2 1.1605682584842913e+00 9.0593251678061684e+00 1.0000000000000000e+00 8.9155165713984239e+00 2.0558972228972094e+00 5.1796363971401203e+00 
337 1 2 1.1605682584842913e+00 6.5326263353796943e+00 1.0000000000000000e+00 9.8982287030542793e+00 4.5946398981913319e+00 5.2789696713425327e+00 
194 1 2 1.1605682584842913e+00 1.0854233913568915e+01 1.0000000000000000e+00 9.3270834840678738e+00 6.5675704411288303e+00 4.3045199021500524e+00 
34 1 2 1.1605682584842913e+00 1.5143861592160100e+01 1.0000000000000000e+00 1.2152678457036307e+01 6.9303600356100272e+00 4.8549134971311663e+00 
172 1 2 1.1605682584842913e+00 1.7037771962830320e+01 1.0000000000000000e+00 1.0038588083658814e+01 9.0839513660192388e+00 4.6828005982937455e+00 
11 1 2 1.1605682584842913e+00 1.1418106959969840e+01 1.0000000000000000e+00 7.4752091116794199e+00 7.4982319010327303e-01 7.0328847236199561e+00 
380 1 2 1.1605892919661334e+00 5.4225989128006864e+00 1.0000000000000000e+00 1.3090278392856550e+01 2.9380649292508623e+00 6.5923527488988585e+00 
116 1 2 1.1605682584842913e+00 1.3466357243285522e+01 1.0000000000000000e+00 1.2510390675596486e+01 7.7805688799382864e+00 6.7258762144221418e+00 
92 1 2 1.1605682584842913e+00 1.2665924921561960e+01 1.0000000000000000e+00 1.1252009728497054e+01 1.1141952003957940e+00 7.2440830864804848e+00 
62 1 2 1.1605682584842913e+00 -3.3649824091216385e+02 1.0000000000000000e+00 1.3004403090566930e+01 1.5750730170890965e+00 8.4635292155164361e+00 
53 1 2 1.1605682584842913e+00 1.3665702376318229e+01 1.0000000000000000e+00 1.1876046222103691e+01 5.4721730043327224e+00 7.9526218458603477e+00 
256 1 2 1.1605682584842913e+00 8.7313496808567681e+00 1.0000000000000000e+00 8.7993801779680947e+00 8.0084494489728133e+00 8.5266587740570490e+00 
182 1 2 1.1605682584842913e+00 1.1025750595570489e+01 1.0000000000000000e+00 1.1055820137388698e+01 8.9963345856622059e+00 7.5745676488975020e+00 
211 1 2 1.1605682584842913e+00 1.0698976713124214e+01 1.0000000000000000e+00 8.0062225190568412e+00 9.2367072393297181e-02 8.9460744657805193e+00 
223 1 2 1.1605682584842913e+00 4.2053090152973969e+00 1.0000000000000000e+00 8.9214329529863114e+00 2.0663102731229683e+00 9.5518666047743466e+00 
363 1 2 1.1605682584842913e+00 2.0201416141905078e+01 1.0000000000000000e+00 1.1041298699764830e+01 3.2297041823977906e+00 8.6287642149607375e+00 
32 1 2 1.1605694153181096e+00 1.0703715989160667e+01 1.0000000000000000e+00 1.2241665660999731e+01 3.7321457255578574e+00 1.0742449094564742e+01 
146 1 2 1.1605682584842913e+00 1.3846731984379048e+01 1.0000000000000000e+00 9.9909614760041343e+00 4.9595704489715438e+00 1.0294163126435741e+01 
356 1 2 1.1605682584842913e+00 -4.5000975078015113e+00 1.0000000000000000e+00 8.2241433747576309e+00 6.4504201996258246e+00 1.0348258675401903e+01 
216 1 2 1.1605684634600846e+00 1.7926242561992019e+01 1.0000000000000000e+00 1.3030315070528291e+01 6.9447167765243059e+00 1.0518742959137898e+01 
361 1 2 1.1605682584842913e+00 1.6295799731745312e+01 1.0000000000000000e+00 7.3373354964840010e+00 3.8450503110936324e-01 1.2819941980971549e+01 
372 1 2 1.1605683254108528e+00 1.1952357614209237e+01 1.0000000000000000e+00 1.1577449321296566e+01 1.3705511723890995e+00 1.1663531279114670e+01 
310 1 2 1.1605682584842913e+00 1.2313551791880805e+01 1.0000000000000000e+00 8.4160805922557298e+00 4.0746813878169252e+00 1.2328737123440185e+01 
312 1 2 1.1605682584842913e+00 1.6329118023412029e+01 1.0000000000000000e+00 9.3821182507594560e+00 7.5812716715022619e+00 1.1569929411951884e+01 
145 1 2 1.1605682584842913e+00 1.7691604045233447e+01 1.0000000000000000e+00 1.1386649462573752e+01 8.0530473733853096e+00 1.1477196802842528e+01 
209 1 2 1.1605682584842913e+00 4.2732196714100468e+00 1.0000000000000000e+00 6.9242770334400836e+00 8.9625250843868347e+00 1.2688214611614574e+01 
307 1 2 1.1605682584842913e+00 8.9898103077372262e+00 1.0000000000000000e+00 9.1651778652118452e+00 7.2403398088240367e-01 1.3736105389064354e+01 
359 1 2 1.1605682584842913e+00 6.3598623518748010e+00 1.0000000000000000e+00 1.1337879636889554e+01 4.4800238428367434e-01 1.3897635560952157e+01 
345 1 2 1.1605682584842913e+00 5.3458938530441706e+00 1.0000000000000000e+00 1.0165532871494200e+01 3.2230386904569821e+00 1.4192694185851806e+01 
353 1 2 1.1605682584842913e+00 1.4239732279971811e+01 1.0000000000000000e+00 7.5199986839022488e+00 6.8271330626301570e+00 1.3310417957796300e+01 
279 1 2 1.1605682584842913e+00 1.1699372707435153e+01 1.0000000000000000e+00 1.0366847422813121e+01 6.0921234625593748e+00 1.4206295382382461e+01 
377 1 2 1.1605682584842913e+00 1.0417550440593821e+01 1.0000000000000000e+00 1.2826316199659281e+01 6.1619022653065532e+00 1.3908721600425373e+01 
371 1 2 1.1605682584842913e+00 1.0646355111341578e+01 1.0000000000000000e+00 1.2700038696802022e+01 8.3855702856183516e+00 1.4216835522650289e+01 
346 1 2 1.1605684789604180e+00 1.4919359312684792e+01 1.0000000000000000e+00 1.2973692719787476e+01 2.8094211854444984e+00 1.5269027378740837e+01 
113 1 2 1.1605684789604180e+00 1.0228198458005808e+01 1.0000000000000000e+00 1.2150013326789153e+01 4.5991539820386951e+00 1.5456264466086521e+01 
131 1 2 1.1605808106167632e+00 1.7225524013882303e+01 1.0000000000000000e+00 9.1614166829757089e+00 4.1185934702654659e-01 1.6387591137137591e+01 
246 1 2 1.1605682584842913e+00 8.1233762129131151e+00 1.0000000000000000e+00 1.1616927255561670e+01 5.2412496975708833e-01 1.6426738711182569e+01 
107 1 2 1.1605682584842913e+00 1.5999392462025190e+01 1.0000000000000000e+00 9.5563022837782068e+00 5.2095283208026784e+00 1.7100320586983617e+01 
20 1 2 1.1605682584842913e+00 1.8051071813736804e+01 1.0000000000000000e+00 7.1346548737100806e+00 6.1864148585520002e+00 1.7091675573065761e+01 
240 1 2 1.1605682584842913e+00 -1.4860879719632175e+02 1.0000000000000000e+00 8.8828704069510600e+00 8.5353042231312770e+00 1.6300632400573484e+01 
225 1 2 1.1605682584842913e+00 1.2190215128183794e+01 1.0000000000000000e+00 1.2748840072454154e+01 9.1195888048114941e+00 1.6945409677160612e+01 
258 1 2 1.1605682584842913e+00 1.1990982973338259e+01 1.0000000000000000e+00 1.1639150509289239e+01 2.0540891156308732e+00 1.7794760857609941e+01 
354 1 2 1.1605682584842913e+00 -9.6988724450501991e+01 1.0000000000000000e+00 7.7454285038612669e+00 4.5914966368783121e+00 1.8233522123272767e+01 
291 1 2 1.1605682584842913e+00 1.3757265217119937e+01 1.0000000000000000e+00 1.1447995601465726e+01 4.3888138865745319e+00 1.8269412147907300e+01 
206 1 2 1.1605738967954975e+00 1.2084848453546847e+01 1.0000000000000000e+00 9.6853970809318284e+00 6.7668424866673522e+00 1.8421869014814622e+01 
379 1 2 1.1605682584842913e+00 1.6485731492837886e+01 1.0000000000000000e+00 7.0556622063969865e+00 9.7425041558574215e+00 1.7645111927845228e+01 
162 1 2 1.1605682584842913e+00 8.0438563772191749e+00 1.0000000000000000e+00 7.4651904736792902e+00 2.3564236738306636e+00 1.8770991945711188e+01 
308 1 2 1.1605690199569183e+00 1.3975965337077614e+01 1.0000000000000000e+00 9.9582830479913298e+00 3.4486733660482933e+00 1.9644543282401315e+01 
140 1 2 1.1605738967954975e+00 -6.2518580287388190e+01 1.0000000000000000e+00 8.8071632950788992e+00 7.9898596104214521e+00 1.9664913329946209e+01 
139 1 2 1.1605682584842913e+00 9.7152279818319229e+00 1.0000000000000000e+00 1.1769887819802641e+01 8.6753372913689137e+00 1.9978263607086728e+01 
255 1 2 1.1605682584842913e+00 8.7161459034456925e+00 1.0000000000000000e+00 7.4203754635339436e+00 1.0933830764592873e+01 9.4486540855725099e-01 
366 1 2 1.1605682584842913e+00 1.1972616514535250e+01 1.0000000000000000e+00 7.8620626966759346e+00 1.4050240875287967e+01 8.9411632333538615e-01 
59 1 2 1.1605682584842913e+00 1.0930526761000880e+01 1.0000000000000000e+00 1.0561394880531582e+01 1.3235954791058457e+01 1.2547049466877895e+00 
338 1 2 1.1605682584842913e+00 1.3038599965920035e+01 1.0000000000000000e+00 1.1125447864695575e+01 1.5033302400955685e+01 3.1361501430421351e-01 
90 1 2 1.1605682584842913e+00 6.3482243991304426e+00 1.0000000000000000e+00 9.6468241734184446e+00 1.6572423074577049e+01 9.2498929115708295e-01 
247 1 2 1.1605682584842913e+00 -8.2172720238961460e+01 1.0000000000000000e+00 6.7852381559073658e+00 1.9019292781694869e+01 3.5060229696334644e-01 
22 1 2 1.1605682584842913e+00 1.0580291586530144e+01 1.0000000000000000e+00 1.0684859062641101e+01 1.0158387441219956e+01 2.1273236941366465e+00 
26 1 2 1.1605682584842913e+00 1.2251767582250043e+01 1.0000000000000000e+00 8.9596375343485821e+00 1.1803903486918427e+01 1.9775646880545819e+00 
189 1 2 1.1605682584842913e+00 1.6009063815178074e+01 1.0000000000000000e+00 1.2092906125937626e+01 1.1652942797634072e+01 1.8673354747966986e+00 
250 1 2 1.1605682584842913e+00 1.5318870232470722e+01 1.0000000000000000e+00 1.2114843440274640e+01 1.4706176283696282e+01 2.1266772651822823e+00 
201 1 2 1.1605682584842913e+00 1.5121330690807810e+01 1.0000000000000000e+00 1.1313777225081751e+01 1.7063137887253319e+01 2.7856560472116816e+00 
40 1 2 1.1605682584842913e+00 1.2261426425465114e+01 1.0000000000000000e+00 1.3243303810737080e+01 1.7483978929416981e+01 1.7871945769356821e+00 
351 1 2 1.1605682584842913e+00 8.1047991355389932e+00 1.0000000000000000e+00 8.2030418662401203e+00 1.0463952561658340e+01 3.8575731172216932e+00 