LAMMPS data file via write_data, version 30 Jul 2016, timestep = 50400000

644 atoms
2 atom types

0.0000000000000000e+00 2.0000000000000000e+01 xlo xhi
0.0000000000000000e+00 2.0000000000000000e+01 ylo yhi
0.0000000000000000e+00 2.0000000000000000e+01 zlo zhi

Masses

1 4.31
2 3.896

Atoms # meso-molecular

492 0 1 1.0279999999999065e+00 7.2179557243762851e+00 1.0000000000000000e+00 3.1313132136830197e+00 7.5546225605830344e+00 3.0428352309187288e+00 
252 0 1 1.0279999999999352e+00 2.6907562897553565e+00 1.0000000000000000e+00 1.4816295495756555e+00 9.1248147810992606e+00 2.9440381762198977e+00 
556 0 1 1.0279999999999343e+00 9.9942146928230766e+00 1.0000000000000000e+00 1.4816295515801401e+00 9.1248147336016086e+00 2.9440382592112968e+00 
306 0 1 1.0280000000000094e+00 2.2889670012550162e+01 1.0000000000000000e+00 1.4816300253405346e+00 9.1248035113902173e+00 2.9440578648122040e+00 
70 0 1 1.0280000000000680e+00 -3.3121079324006629e+01 1.0000000000000000e+00 2.3903515882997342e+00 8.0218530510354746e+00 2.8754019232041670e+00 
228 0 1 1.0280000000001184e+00 1.4158087216613696e+01 1.0000000000000000e+00 2.3908863419723039e+00 8.0213497068987767e+00 2.8750923006049529e+00 
606 0 1 1.0280000000002081e+00 -6.9551995396839761e+00 1.0000000000000000e+00 2.4050826525401670e+00 8.0081003408825424e+00 2.8654636938152294e+00 
526 0 1 1.0279999999999556e+00 -2.7591112988563758e+01 1.0000000000000000e+00 2.2426478640093688e+00 8.7278306732681372e+00 3.7602394889642698e-01 
527 0 1 1.0279999999999851e+00 -1.1719709082374543e+01 1.0000000000000000e+00 2.2334484157450119e+00 8.7236334371297755e+00 3.7270505090664630e-01 
566 0 1 1.0279999999999170e+00 -4.2487879133964981e+00 1.0000000000000000e+00 3.2722740850629477e+00 9.6661659005594984e+00 2.6737657375984908e-01 
121 0 1 1.0280000000000016e+00 -5.5008736732354402e+00 1.0000000000000000e+00 5.5367859370498473e-01 8.9283068168136399e+00 7.1519937386975551e-03 
45 0 1 1.0280000000000107e+00 -9.6101381300602711e+00 1.0000000000000000e+00 5.5363444850365362e-01 8.9282992632128799e+00 7.2072402376270476e-03 
211 0 1 1.0280000000000016e+00 -2.2646472839257399e+00 1.0000000000000000e+00 5.5360700203017998e-01 8.9282946094608331e+00 7.2415931285144458e-03 
520 0 1 1.0279999999998810e+00 1.3442650282411583e+01 1.0000000000000000e+00 3.5351334647423620e+00 7.4051341324668325e+00 2.8878980914702335e+00 
596 0 1 1.0280000000000693e+00 -3.7865326624798541e+01 1.0000000000000000e+00 5.5678917150829319e+00 8.1253002119079376e+00 2.6264369526728646e+00 
538 0 1 1.0280000000000165e+00 -4.9495822461962904e+00 1.0000000000000000e+00 5.6186587531820891e+00 8.2665369908354354e+00 2.4902248766545076e+00 
139 0 1 1.0279999999999261e+00 -2.4690633594877216e+00 1.0000000000000000e+00 5.3496966417258420e+00 9.8819573432843217e+00 1.1084196051035120e+00 
488 0 1 1.0279999999999745e+00 5.4970811739700549e+00 1.0000000000000000e+00 5.8670274101518309e+00 8.0335279757258977e+00 1.6551543479737424e-01 
449 0 1 1.0280000000000089e+00 -1.8551987371608725e+01 1.0000000000000000e+00 5.8566134373871064e+00 8.0388839519522115e+00 1.6014520136257404e-01 
106 0 1 1.0279999999998999e+00 -9.7276931640654922e+00 1.0000000000000000e+00 3.4927002242824630e+00 9.6184703924314547e+00 1.3059885559693352e-01 
16 0 1 1.0279999999999472e+00 -6.9808393641106221e+00 1.0000000000000000e+00 4.7621084911918095e+00 7.4142496437861842e+00 3.4429491863505128e+00 
35 0 1 1.0279999999999421e+00 -1.0744194169024109e+01 1.0000000000000000e+00 4.7623454826309022e+00 7.4143529904339767e+00 3.4429561445455596e+00 
100 0 1 1.0279999999999654e+00 -4.4529123699852145e-02 1.0000000000000000e+00 4.7575483154548186e+00 7.4122708461512010e+00 3.4428098976868777e+00 
443 0 1 1.0279999999999101e+00 8.0564866304729517e+00 1.0000000000000000e+00 5.2146339396016934e+00 8.4969322883002167e+00 3.5113889841816164e+00 
63 0 1 1.0279999999999159e+00 -1.7402829634793427e+01 1.0000000000000000e+00 5.1868711866454964e+00 8.4589700863739967e+00 3.5347359286375308e+00 
531 0 1 1.0280000000000697e+00 -2.2228419871307139e+00 1.0000000000000000e+00 4.6900623929976932e+00 9.5390743226730628e+00 9.6308001969300694e+00 
387 0 1 1.0280000000000311e+00 8.3757417177583307e+00 1.0000000000000000e+00 6.6412714021338246e+00 9.6725629854513446e+00 9.1763214304427496e+00 
209 0 1 1.0280000000000382e+00 2.5798092573579052e+00 1.0000000000000000e+00 4.2742662432150524e+00 9.2529555194573145e+00 9.6953027848392512e+00 
382 0 1 1.0280000000000078e+00 8.8381650996248098e+00 1.0000000000000000e+00 4.2171608939290621e+00 9.2388325813454717e+00 9.7238146312447675e+00 
263 0 1 1.0279999999999074e+00 7.0752651527636941e+00 1.0000000000000000e+00 1.5358300728214804e+00 9.8544795957661684e+00 1.3130928432226096e+01 
464 0 1 1.0279999999998923e+00 -6.7066076182395165e+00 1.0000000000000000e+00 1.6063213559957374e+00 9.9268217285599203e+00 1.3099107441323062e+01 
107 0 1 1.0280000000003355e+00 -2.8155976211335974e+00 1.0000000000000000e+00 5.6577377515392580e-01 7.1561794237942218e+00 1.2373295399663279e+01 
163 0 1 1.0280000000005574e+00 -2.8074940605263699e+00 1.0000000000000000e+00 4.3352244751165536e-01 7.0049019978961669e+00 1.2342192219552205e+01 
494 0 1 1.0279999999998317e+00 -5.6697803526984258e-01 1.0000000000000000e+00 3.2850685606190853e+00 7.8808188631838485e+00 1.2036648115325892e+01 
615 0 1 1.0279999999998346e+00 -1.0682218475152094e+01 1.0000000000000000e+00 3.2819201321406024e+00 7.8821867364258731e+00 1.2031902265820998e+01 
295 0 1 1.0279999999998055e+00 -1.8647944200563402e+00 1.0000000000000000e+00 3.2772031085893962e+00 7.8842943908481935e+00 1.2024657580732832e+01 
334 0 1 1.0280000000000400e+00 2.5209501138560640e+01 1.0000000000000000e+00 2.1054054800678065e-01 7.1582412068030452e+00 1.2264235600155647e+01 
283 0 1 1.0279999999998950e+00 8.5989151342293138e+00 1.0000000000000000e+00 3.1703198564248289e+00 8.3811456253725201e+00 1.1359928715439002e+01 
76 0 1 1.0280000000001017e+00 -1.1417895897164719e+01 1.0000000000000000e+00 6.2055709551702556e+00 9.7923598125180948e+00 1.2513058914644056e+01 
69 0 1 1.0280000000000906e+00 -1.6159601065293558e+01 1.0000000000000000e+00 6.2855495522300799e+00 9.7386250208134317e+00 1.2430871562199339e+01 
250 0 1 1.0280000000001102e+00 7.5724051810167472e+00 1.0000000000000000e+00 6.2932516362637072e+00 9.7511401121278407e+00 1.2407355284471423e+01 
542 0 1 1.0280000000002043e+00 -2.3785286230046732e-01 1.0000000000000000e+00 5.2473666518676474e+00 7.6097798936957224e+00 1.2033776084433034e+01 
308 0 1 1.0279999999999276e+00 2.7353742714774376e+00 1.0000000000000000e+00 4.0945974170168311e+00 7.0974811444031696e+00 1.1881151237869757e+01 
394 0 1 1.0280000000001726e+00 3.2114829313093812e-01 1.0000000000000000e+00 5.4183955901905199e+00 7.6347162817155327e+00 1.1779615229373261e+01 
451 0 1 1.0280000000000948e+00 5.2771489677537371e+00 1.0000000000000000e+00 5.3275247244217159e+00 7.4447307500104323e+00 1.1358457872430250e+01 
612 0 1 1.0280000000001159e+00 -1.1192481689896614e+01 1.0000000000000000e+00 5.3762391796596329e+00 7.5145569838570836e+00 1.1332748961793053e+01 
178 0 1 1.0279999999999292e+00 9.2394094478704467e+00 1.0000000000000000e+00 4.9659761226023136e+00 7.2574202184470336e+00 1.1030542926548506e+01 
146 0 1 1.0279999999997904e+00 6.3159305923948574e+00 1.0000000000000000e+00 3.6958571401177363e+00 8.8454249792267472e+00 1.0168141305532295e+01 
307 0 1 1.0279999999999971e+00 1.7376859265192955e+01 1.0000000000000000e+00 3.7221446768377260e+00 8.8676163801272274e+00 1.0138779330987413e+01 
565 0 1 1.0279999999999463e+00 1.0374857141472322e+01 1.0000000000000000e+00 9.7716662990636383e-01 7.0195064115523245e+00 1.3379408134253524e+01 
191 0 1 1.0279999999998872e+00 8.9149904934521351e-01 1.0000000000000000e+00 1.0537308840778248e+00 7.1536131643206717e+00 1.3623011000900158e+01 
229 0 1 1.0279999999999652e+00 2.3167391461096468e+01 1.0000000000000000e+00 1.0756691547202244e+00 7.2894966478343193e+00 1.3826255155576154e+01 
472 0 1 1.0280000000000751e+00 7.5937586653329063e+00 1.0000000000000000e+00 1.0993516519138340e+00 9.7125620326452093e+00 1.4633704157614204e+01 
591 0 1 1.0280000000000624e+00 -1.2252164624898089e+01 1.0000000000000000e+00 2.9243165507165250e+00 7.4385602341515167e+00 1.4862404664486521e+01 
628 0 1 1.0279999999999569e+00 -9.1501401959483069e+00 1.0000000000000000e+00 2.5840730472564175e+00 9.6904961271929810e+00 1.4982285584755472e+01 
302 0 1 1.0280000000000966e+00 -2.1338643908637536e+01 1.0000000000000000e+00 2.0020242282413174e+00 9.2033868338710434e+00 1.4953442893301219e+01 
386 0 1 1.0280000000000145e+00 -4.7718482201399262e+00 1.0000000000000000e+00 1.9941580824384688e+00 9.1997864648860848e+00 1.4950949160434940e+01 
197 0 1 1.0279999999999443e+00 -5.9697934616335520e+00 1.0000000000000000e+00 3.3224120794291250e+00 8.3011420326171894e+00 1.6512031072364174e+01 
129 0 1 1.0279999999999361e+00 6.8697756934392484e-01 1.0000000000000000e+00 3.1972339850015512e+00 7.1112643145220460e+00 1.6644375274096955e+01 
189 0 1 1.0280000000000340e+00 -1.5486224244817283e+01 1.0000000000000000e+00 3.3580217018782483e+00 9.7984863779517593e+00 1.4658022129309515e+01 
2 0 1 1.0279999999999676e+00 -6.1727319787122328e+00 1.0000000000000000e+00 3.5669807810773908e+00 6.8584912369864615e+00 1.5102148862405679e+01 
438 0 1 1.0279999999999478e+00 8.6666882495537028e+00 1.0000000000000000e+00 3.5668902554567121e+00 6.8587071882036241e+00 1.5102008786976445e+01 
115 0 1 1.0279999999999756e+00 -4.1763542695256177e+00 1.0000000000000000e+00 3.6316653813577515e+00 8.6209460853432063e+00 1.5269708053157609e+01 
29 0 1 1.0279999999999510e+00 -3.7500386733382626e+01 1.0000000000000000e+00 4.3204194123486657e+00 6.9548883977132405e+00 1.5314206870175447e+01 
471 0 1 1.0279999999999505e+00 1.9731487161753991e+00 1.0000000000000000e+00 4.5729460045315840e+00 7.0514475677430317e+00 1.5566418536600493e+01 
153 0 1 1.0279999999999574e+00 -1.0216018593303263e+01 1.0000000000000000e+00 4.4489431125928238e+00 8.1511395280644638e+00 1.6497696245647358e+01 
589 0 1 1.0280000000000313e+00 -1.0625021012423865e+01 1.0000000000000000e+00 4.1862522681544032e+00 5.4461337796769742e+00 1.6906962505118393e+01 
421 0 1 1.0280000000000071e+00 -8.3705903046422137e+00 1.0000000000000000e+00 4.1862768910158277e+00 5.4461276833837937e+00 1.6906940451800430e+01 
513 0 1 1.0280000000000269e+00 -1.2967324141002159e+00 1.0000000000000000e+00 4.1862780490137297e+00 5.4461273967064887e+00 1.6906939414712653e+01 
429 0 1 1.0280000000000082e+00 1.1837282154727752e+01 1.0000000000000000e+00 4.1863566851196277e+00 5.4461079351491950e+00 1.6906869002980962e+01 
506 0 1 1.0280000000000398e+00 1.0028123846579270e+01 1.0000000000000000e+00 5.5055025424258703e+00 5.1131522729039851e+00 1.8578357591600838e+01 
79 0 1 1.0280000000000402e+00 6.2282239617358001e-02 1.0000000000000000e+00 5.5053871762938504e+00 5.1130394066589284e+00 1.8578189101007592e+01 
196 0 1 1.0280000000000140e+00 3.7017880051529106e+00 1.0000000000000000e+00 5.5050450921234235e+00 5.1127046857247143e+00 1.8577689008808818e+01 
516 0 1 1.0280000000000149e+00 5.0331577708578426e+00 1.0000000000000000e+00 5.5048908404345536e+00 5.1125540172158495e+00 1.8577463819494447e+01 
113 0 1 1.0280000000000102e+00 -1.8021652043840000e+01 1.0000000000000000e+00 5.5047954040876359e+00 5.1124609349733294e+00 1.8577324696156261e+01 
60 0 1 1.0279999999999030e+00 -8.1088292554265813e+00 1.0000000000000000e+00 3.0987268353098960e+00 9.1084733822405255e+00 1.8691507195626180e+01 
144 0 1 1.0279999999998912e+00 2.2238705871779327e+00 1.0000000000000000e+00 2.8236166455062341e+00 9.1776158045022758e+00 1.8829622932803879e+01 
411 0 1 1.0280000000000744e+00 8.8083543897106473e+00 1.0000000000000000e+00 1.4885396889820657e+00 9.7760400787912012e+00 1.9411782305790950e+01 
379 0 1 1.0279999999997256e+00 -2.4734599950191370e+01 1.0000000000000000e+00 5.7865896272705406e+00 6.9788333143673098e+00 1.9655573028340282e+01 
338 0 1 1.0280000000000877e+00 1.6639428802200276e+00 1.0000000000000000e+00 5.6223396350081334e+00 7.0299278031592474e+00 1.7649458594900704e+01 
572 0 1 1.0279999999999545e+00 -1.4265494739708668e+01 1.0000000000000000e+00 3.9927213836126296e+00 7.6005362812578605e+00 1.7587117628871137e+01 
256 0 1 1.0280000000001870e+00 4.6344008781890977e+00 1.0000000000000000e+00 4.9422901629814913e+00 7.7162973303718410e+00 1.8711749611205903e+01 
427 0 1 1.0279999999998353e+00 -2.5656111595811018e+00 1.0000000000000000e+00 5.6817006792056448e+00 7.8199936976817668e+00 1.8296008569214308e+01 
323 0 1 1.0280000000000247e+00 -1.7330342916374370e+01 1.0000000000000000e+00 1.7096180121406173e+00 1.0610844792608781e+01 2.3375379991749295e-01 
469 0 1 1.0279999999999809e+00 2.9143341306299906e+00 1.0000000000000000e+00 3.3474844752438999e+00 1.2176905497204071e+01 2.8817175105704812e-01 
305 0 1 1.0279999999999516e+00 6.4430397514985334e+00 1.0000000000000000e+00 5.7183729510865673e+00 1.0329755030409405e+01 3.2234632247494028e+00 
535 0 1 1.0280000000000447e+00 1.3636966595296331e+00 1.0000000000000000e+00 5.3167723019736073e+00 1.0732724821453221e+01 1.7562088243997154e+00 
149 0 1 1.0280000000000056e+00 -3.2815930873639632e+00 1.0000000000000000e+00 6.4926064914817454e+00 1.2005884495657783e+01 1.6948946204826267e+00 
226 0 1 1.0280000000000113e+00 2.3405369511485969e+00 1.0000000000000000e+00 6.4811598678603426e+00 1.2003042820986362e+01 1.6864135593520140e+00 
148 0 1 1.0279999999999689e+00 -1.9710757280053466e+00 1.0000000000000000e+00 6.3768826771243932e+00 1.1977213682433486e+01 1.6031381723598777e+00 
618 0 1 1.0280000000001039e+00 -1.4718983934141056e+01 1.0000000000000000e+00 5.2791002328234367e+00 1.0214842470446648e+01 1.3576578242897397e+00 
625 0 1 1.0279999999999143e+00 -1.9235143845144648e+01 1.0000000000000000e+00 5.2804790149281402e+00 1.1848580626304621e+01 6.1068783320696240e-01 
459 0 1 1.0280000000010774e+00 5.3998986512743716e+00 1.0000000000000000e+00 3.4382350872991294e+00 1.2132657958175413e+01 2.6566842431998106e-01 
207 0 1 1.0279999999989367e+00 1.0061842854524135e+01 1.0000000000000000e+00 3.4391102199153591e+00 1.2131500467028483e+01 2.6542692469401219e-01 
499 0 1 1.0280000000000113e+00 -1.1045507814730543e+01 1.0000000000000000e+00 5.5523914623137838e+00 1.2240663216152122e+01 1.3244796481724033e-01 
109 0 1 1.0280000000001306e+00 1.1550322837027736e+00 1.0000000000000000e+00 8.3209762232829421e-01 1.1288833581685786e+01 4.1010573734400531e+00 
7 0 1 1.0280000000001137e+00 -1.9561978516360515e+01 1.0000000000000000e+00 8.4900081985063969e-01 1.1280664255519532e+01 4.1341211666872528e+00 
184 0 1 1.0280000000001064e+00 7.5862938415111270e-01 1.0000000000000000e+00 8.5244263839753021e-01 1.1278841124716314e+01 4.1413269481694650e+00 
624 0 1 1.0280000000000156e+00 -3.9292206914375470e+01 1.0000000000000000e+00 9.5416359249455285e-01 1.1163921483690149e+01 4.4585002910310214e+00 
142 0 1 1.0279999999999829e+00 -4.7678383203925350e+00 1.0000000000000000e+00 3.1631778743382660e-01 1.0530463776390731e+01 4.6370504015067082e+00 
93 0 1 1.0279999999999649e+00 -1.0289696322241824e+00 1.0000000000000000e+00 3.0416485276446797e-01 1.1372807645034820e+01 6.4042476860825692e+00 
511 0 1 1.0279999999999068e+00 -2.1003064967592444e+01 1.0000000000000000e+00 2.9706439964297815e-01 1.1372159352536165e+01 6.4072974218211769e+00 
333 0 1 1.0279999999998999e+00 1.2847311152042369e+01 1.0000000000000000e+00 2.8698372730240612e-01 1.1371230669035455e+01 6.4160956623475052e+00 
390 0 1 1.0280000000000316e+00 6.5998549803992486e+00 1.0000000000000000e+00 6.1362112108576072e+00 1.0530421777089341e+01 3.6725602361732563e+00 
64 0 1 1.0279999999999103e+00 -1.7504884095206940e+01 1.0000000000000000e+00 6.6255782032632924e+00 1.1656931495444784e+01 4.4381043824595992e+00 
400 0 1 1.0279999999998968e+00 -3.8967546465336458e+00 1.0000000000000000e+00 6.6260330025621208e+00 1.1655654046317213e+01 4.4381084551358514e+00 
544 0 1 1.0279999999998515e+00 -1.1462778700896901e+00 1.0000000000000000e+00 6.6551844734453445e+00 1.1596354143075015e+01 4.4279425337206613e+00 
219 0 1 1.0280000000000338e+00 4.6437980281522739e-01 1.0000000000000000e+00 5.1171537872823167e+00 1.2910393174166899e+01 4.4864001951820063e+00 
216 0 1 1.0279999999999585e+00 2.0502544622428953e+00 1.0000000000000000e+00 4.8446123444778104e+00 1.2523518163779219e+01 4.5060557440767965e+00 
217 0 1 1.0279999999999319e+00 -1.3909675775646415e+01 1.0000000000000000e+00 4.8445781168648221e+00 1.2523577748219376e+01 4.5060618991095005e+00 
303 0 1 1.0279999999999359e+00 2.3284025015147631e+00 1.0000000000000000e+00 4.8557611883957712e+00 1.2507794580445131e+01 4.5027990883873459e+00 
592 0 1 1.0280000000000240e+00 -5.5143809735399127e+00 1.0000000000000000e+00 4.7049286710643319e+00 1.3290891989420441e+01 6.0713182851412171e+00 
541 0 1 1.0280000000000022e+00 -1.0413826837974021e+01 1.0000000000000000e+00 3.1091449737139580e+00 1.4643261570119074e+01 4.8615065179640631e+00 
393 0 1 1.0280000000000029e+00 -1.3003711983012249e+01 1.0000000000000000e+00 3.1230449868907115e+00 1.4675016787258812e+01 5.0228861065409500e+00 
212 0 1 1.0279999999999920e+00 5.1670449981570181e+00 1.0000000000000000e+00 3.1665808051237034e+00 1.4710776361735158e+01 5.1427438963513108e+00 
122 0 1 1.0280000000000025e+00 2.4603464496095664e+00 1.0000000000000000e+00 3.7096155611767383e+00 1.5124643447610820e+01 4.6155911974546244e+00 
600 0 1 1.0279999999999960e+00 -5.7900284363682371e+00 1.0000000000000000e+00 3.7096853112841499e+00 1.5124636907321454e+01 4.6155936988712885e+00 
179 0 1 1.0280000000000120e+00 1.7199837880227374e+01 1.0000000000000000e+00 3.7096041692058361e+00 1.5124644067820752e+01 4.6155898893445215e+00 
168 0 1 1.0280000000000331e+00 1.7983898272515750e+00 1.0000000000000000e+00 3.7096043428686283e+00 1.5124644020365563e+01 4.6155898328335443e+00 
463 0 1 1.0280000000000091e+00 -1.5333178378243900e+01 1.0000000000000000e+00 4.6322931377578218e+00 1.3422196636552156e+01 6.0460639931797271e+00 
428 0 1 1.0279999999999720e+00 5.3996738487120686e+00 1.0000000000000000e+00 2.5936649439748494e+00 1.1168399681530769e+01 7.0791439185805443e+00 
126 0 1 1.0279999999999918e+00 -2.6054327104169101e+01 1.0000000000000000e+00 2.9916907963145807e+00 1.0982240319257292e+01 7.0716844967891292e+00 
358 0 1 1.0280000000003133e+00 1.8455626073723237e+00 1.0000000000000000e+00 1.0517777605184768e+00 1.0834440007933814e+01 7.2115137906877660e+00 
8 0 1 1.0279999999999410e+00 -1.9501398949096888e+01 1.0000000000000000e+00 2.3642439646308535e+00 1.0704998961727961e+01 7.8671434460779430e+00 
119 0 1 1.0279999999999543e+00 -1.2680859671054488e+01 1.0000000000000000e+00 2.4502668856993868e+00 1.0638864296118083e+01 7.9174738955743935e+00 
110 0 1 1.0279999999999414e+00 -3.4653620968955057e+00 1.0000000000000000e+00 2.5342818775036244e+00 1.0595752164935693e+01 7.9971550569948606e+00 
124 0 1 1.0279999999999698e+00 -9.3473714442006872e-01 1.0000000000000000e+00 3.2186305542340059e+00 1.0326540293593087e+01 8.7832859744846239e+00 
420 0 1 1.0280000000000993e+00 -1.2880534579707991e+01 1.0000000000000000e+00 4.1970140007847405e+00 1.2498618585659548e+01 6.7768949702185450e+00 
480 0 1 1.0280000000000715e+00 1.3228091930922605e+00 1.0000000000000000e+00 4.2018284242449200e+00 1.2403085955430953e+01 7.0470484847310901e+00 
588 0 1 1.0280000000000977e+00 -1.8382413440184990e+01 1.0000000000000000e+00 4.2093037445742327e+00 1.2395193414570883e+01 7.0747233405626657e+00 
524 0 1 1.0279999999999914e+00 1.0847527596990636e+00 1.0000000000000000e+00 4.6286158601998650e+00 1.0995075167999396e+01 8.6861924541291113e+00 
147 0 1 1.0279999999996756e+00 -4.9356936400383624e+00 1.0000000000000000e+00 4.8495258751564609e+00 1.1687016699105696e+01 7.5544908181489419e+00 
47 0 1 1.0280000000000786e+00 -7.7501799913671388e+00 1.0000000000000000e+00 5.8655936955986308e+00 1.1092191131957167e+01 8.1547732248810902e+00 
441 0 1 1.0280000000000213e+00 5.6113638814569997e+00 1.0000000000000000e+00 4.4229368753257168e+00 1.1158646694321609e+01 8.6337071256762581e+00 
255 0 1 1.0280000000005531e+00 1.7660846501174071e+01 1.0000000000000000e+00 9.1126795706638519e-01 1.1052304827197089e+01 1.3284877088470719e+01 
380 0 1 1.0280000000000431e+00 -4.0184813211519677e+00 1.0000000000000000e+00 3.4219595206877131e+00 1.1017807360041180e+01 1.2996996076649022e+01 
357 0 1 1.0280000000000213e+00 1.2037171662931437e-01 1.0000000000000000e+00 3.4952429328584644e+00 1.1011358678799407e+01 1.3014251619371599e+01 
268 0 1 1.0280000000000260e+00 1.1116270383068549e+00 1.0000000000000000e+00 3.4952352705182617e+00 1.1009617823311457e+01 1.3013089347907494e+01 
105 0 1 1.0280000000000153e+00 -1.1361165048073190e+01 1.0000000000000000e+00 3.4950822992635651e+00 1.1009313011755692e+01 1.3012840097408040e+01 
77 0 1 1.0280000000000487e+00 -1.0331742050474602e+00 1.0000000000000000e+00 6.5229278306015201e+00 1.2609559415233441e+01 1.2831955324695443e+01 
14 0 1 1.0280000000000460e+00 -2.8057527151923175e+01 1.0000000000000000e+00 6.5229278445890113e+00 1.2609559423504493e+01 1.2831955324383680e+01 
84 0 1 1.0280000000000584e+00 -2.9320526960728699e+01 1.0000000000000000e+00 6.5229278450003454e+00 1.2609559423747855e+01 1.2831955324399683e+01 
458 0 1 1.0280000000000433e+00 2.1161573089283337e+01 1.0000000000000000e+00 6.5229277033921846e+00 1.2609559340138894e+01 1.2831955346385016e+01 
450 0 1 1.0280000000001790e+00 3.8861147269923979e+00 1.0000000000000000e+00 6.5429965484054318e+00 1.2621227948683234e+01 1.2823632889073920e+01 
132 0 1 1.0279999999998974e+00 4.2743106215114990e-01 1.0000000000000000e+00 8.6251480389584323e-01 1.1489827883741331e+01 1.3886314350939486e+01 
215 0 1 1.0279999999999310e+00 1.3677766490555001e+01 1.0000000000000000e+00 8.0220211003974340e-01 1.1494092304899850e+01 1.4001570762641260e+01 
54 0 1 1.0279999999998977e+00 -3.8586707881728657e+00 1.0000000000000000e+00 7.4265079441934956e-01 1.1466951339731967e+01 1.4132340818360136e+01 
557 0 1 1.0280000000000598e+00 8.2494401856944535e+00 1.0000000000000000e+00 1.0855841663448036e+00 1.2805290325497555e+01 1.5660254839650518e+01 
418 0 1 1.0280000000000284e+00 1.9518058981502346e+01 1.0000000000000000e+00 1.0856455296961622e+00 1.2805452450062452e+01 1.5658585726049061e+01 
317 0 1 1.0280000000000205e+00 5.3145630723995838e+00 1.0000000000000000e+00 1.0852278273153664e+00 1.2804755072528248e+01 1.5668009867064701e+01 
102 0 1 1.0280000000000244e+00 7.8855456932462671e+00 1.0000000000000000e+00 1.0852465141289376e+00 1.2804771301032666e+01 1.5667661734553617e+01 
233 0 1 1.0280000000000540e+00 -2.1905251878412217e+00 1.0000000000000000e+00 5.6476311508511525e+00 1.0290222552708927e+01 1.3545624722459424e+01 
609 0 1 1.0279999999999887e+00 -3.7932819943365899e+01 1.0000000000000000e+00 4.1210921413614443e+00 1.1260052489983780e+01 1.3788930501200181e+01 
81 0 1 1.0279999999999667e+00 4.0729692307466578e+00 1.0000000000000000e+00 3.8741302231478949e+00 1.1247557481455383e+01 1.4009506962174763e+01 
633 0 1 1.0279999999996450e+00 -1.1120816944523040e+00 1.0000000000000000e+00 4.9772173800940340e+00 1.1801219168668304e+01 1.6117610312129681e+01 
361 0 1 1.0280000000000054e+00 1.4513523516760776e+01 1.0000000000000000e+00 4.9674327140672476e+00 1.2011387908946080e+01 1.6194939000829027e+01 
200 0 1 1.0279999999999756e+00 1.4016881126339579e+01 1.0000000000000000e+00 4.9649446222150369e+00 1.2009182376869594e+01 1.6194184360675422e+01 
362 0 1 1.0279999999999940e+00 1.8763283880987991e+01 1.0000000000000000e+00 4.9633545560319501e+00 1.2007808345026477e+01 1.6193727527235826e+01 
199 0 1 1.0279999999999756e+00 1.6571489229857644e+01 1.0000000000000000e+00 4.9514619494271299e+00 1.1998295843779422e+01 1.6190876483702528e+01 
605 0 1 1.0279999999999507e+00 1.2589202039192831e+01 1.0000000000000000e+00 1.9515901780315730e+00 1.4047031430449058e+01 1.6372277892991452e+01 
536 0 1 1.0279999999999958e+00 1.2677757013162381e+01 1.0000000000000000e+00 1.9478330616357984e+00 1.4048470198976601e+01 1.6371943546136254e+01 
375 0 1 1.0279999999999938e+00 2.0831250704196172e+01 1.0000000000000000e+00 1.9478503158427987e+00 1.4048464964729225e+01 1.6371968970249732e+01 
172 0 1 1.0279999999999612e+00 1.9467047175676566e+01 1.0000000000000000e+00 1.9510989054533199e+00 1.4046875359133793e+01 1.6366469239539256e+01 
28 0 1 1.0280000000000271e+00 -3.6943124266689622e+01 1.0000000000000000e+00 1.5787498482996531e+00 1.2866012861861410e+01 1.9376021859462028e+01 
417 0 1 1.0279999999999538e+00 2.1647418733493327e+00 1.0000000000000000e+00 1.4446758233217936e+00 1.2705681159858317e+01 1.9781794397062257e+01 
457 0 1 1.0279999999999845e+00 2.2302661835228914e+00 1.0000000000000000e+00 1.4826250321206849e+00 1.2779154464938717e+01 1.9828051395343973e+01 
575 0 1 1.0279999999999792e+00 -1.8074702515747639e+01 1.0000000000000000e+00 1.4807599994117335e+00 1.2750101785432220e+01 1.9876508326232969e+01 
4 0 1 1.0280000000000395e+00 -4.1701823988210727e+00 1.0000000000000000e+00 1.8769344665571079e+00 1.3133493239627473e+01 1.9943405712952259e+01 
562 0 1 1.0279999999999971e+00 4.9751697958601027e-01 1.0000000000000000e+00 1.4657970617337781e+00 1.0453641329352539e+01 1.9952245093913817e+01 
114 0 1 1.0280000000000908e+00 -8.9005690377500954e+00 1.0000000000000000e+00 5.1471111455485188e+00 1.0816019939476710e+01 1.7223127573370299e+01 
505 0 1 1.0279999999999729e+00 -1.0513281885831017e+01 1.0000000000000000e+00 5.8924175472415934e+00 1.2686056908901874e+01 1.7828533894217792e+01 
399 0 1 1.0279999999999943e+00 -3.2136409073945229e+00 1.0000000000000000e+00 5.9010615527648804e+00 1.2675304269669189e+01 1.7837976453213379e+01 
519 0 1 1.0280000000006126e+00 -7.0086221311385595e+00 1.0000000000000000e+00 4.2981128921680716e+00 1.0080260624027030e+01 1.8049336405762574e+01 
528 0 1 1.0279999999999729e+00 1.5294592584121403e+00 1.0000000000000000e+00 6.0327903002079406e+00 1.2497021716681434e+01 1.8867957389937558e+01 
244 0 1 1.0280000000000145e+00 4.2100689522131735e-01 1.0000000000000000e+00 5.8258207626354572e+00 1.2723521946592328e+01 1.9113783261804191e+01 
260 0 1 1.0280000000017002e+00 -1.6091627321242321e+01 1.0000000000000000e+00 4.5042834951323405e+00 1.0080522402931841e+01 1.8181307250340026e+01 
604 0 1 1.0279999999991982e+00 -6.6992042829372096e+00 1.0000000000000000e+00 4.4934721022933672e+00 1.0074070733553121e+01 1.8156467051526217e+01 
141 0 1 1.0279999999987608e+00 -2.1896877899146414e+01 1.0000000000000000e+00 4.4706779269575323e+00 1.0066778499587912e+01 1.8116020294749074e+01 
368 0 1 1.0279999999999752e+00 1.1112636750865150e+01 1.0000000000000000e+00 1.9248208599483609e+00 1.3906145875606088e+01 1.6900651507679488e+01 
621 0 1 1.0280000000000318e+00 -3.9293840346400040e+00 1.0000000000000000e+00 2.3648167861050586e+00 1.3454061686333745e+01 1.8644869241318485e+01 
370 0 1 1.0279999999999969e+00 1.5777513167313564e+00 1.0000000000000000e+00 4.7923143834797610e+00 1.3395271983854597e+01 1.8416119159964243e+01 
388 0 1 1.0280000000000298e+00 1.0468642506369319e+01 1.0000000000000000e+00 3.9078300611561017e+00 1.3409242020740010e+01 1.8552593580394610e+01 
643 0 1 1.0280000000000005e+00 -1.4664671769964663e+01 1.0000000000000000e+00 3.9421955415363974e+00 1.3409077779179976e+01 1.8546907451690263e+01 
85 0 1 1.0280000000000122e+00 -2.3927674171280138e+01 1.0000000000000000e+00 3.9107705830995854e+00 1.3409092186303820e+01 1.8551524161048182e+01 
351 0 1 1.0279999999999720e+00 -1.8767924617898132e+01 1.0000000000000000e+00 1.3086294370034647e+01 5.9104630589637148e+00 3.2634175341057530e+00 
59 0 1 1.0279999999999594e+00 -3.5455559795296718e+00 1.0000000000000000e+00 1.2989607232452915e+01 5.8232161584610589e+00 3.1667296455120901e+00 
630 0 1 1.0280000000000404e+00 -1.5070056771642994e+01 1.0000000000000000e+00 1.2070424592162299e+01 5.9229880462401248e+00 1.7631905562779011e+00 
318 0 1 1.0280000000000120e+00 1.1717623810828913e+01 1.0000000000000000e+00 1.2283602437085381e+01 6.0017338806212432e+00 1.5554814880934154e+00 
31 0 1 1.0280000000000180e+00 -6.6688986865877986e+00 1.0000000000000000e+00 1.2186399314369375e+01 6.0595745757272148e+00 1.4410782828968371e+00 
192 0 1 1.0280000000000171e+00 1.0199133920317969e+01 1.0000000000000000e+00 1.2186233093717837e+01 6.0596473270017919e+00 1.4409318395254835e+00 
120 0 1 1.0279999999999763e+00 -5.6043329799496311e+00 1.0000000000000000e+00 9.6043054717142251e+00 9.2643940301028032e+00 2.1226971522278100e+00 
55 0 1 1.0280000000000176e+00 -3.4524932631878351e+00 1.0000000000000000e+00 9.6820078958042899e+00 9.0944661746036903e+00 2.0363946842942098e+00 
455 0 1 1.0280000000000100e+00 -5.3516211740826733e+00 1.0000000000000000e+00 7.2283993587890247e+00 9.9734677967487926e+00 2.0421741948447671e+00 
402 0 1 1.0280000000000178e+00 1.6708604196467146e+01 1.0000000000000000e+00 9.3795293379445006e+00 9.7745890899662040e+00 2.0230692795863101e+00 
569 0 1 1.0279999999999891e+00 -2.4635799569762732e+01 1.0000000000000000e+00 7.1698345521449856e+00 9.8974705230575761e+00 1.9566670080417909e+00 
597 0 1 1.0280000000000138e+00 -1.2540254564473084e+01 1.0000000000000000e+00 9.9837697720616756e+00 8.5519285110280148e+00 1.8613374841595953e+00 
36 0 1 1.0280000000000535e+00 -2.2427235655468237e+01 1.0000000000000000e+00 1.0740230156973315e+01 8.9638859505392823e+00 3.0008691537050285e+00 
322 0 1 1.0279999999999818e+00 -3.8306753063676133e+00 1.0000000000000000e+00 1.0844507685081723e+01 7.7643495065807553e+00 2.4759510264326048e+00 
481 0 1 1.0280000000000218e+00 6.9814040029351325e+00 1.0000000000000000e+00 1.0807532273171338e+01 7.3434751163447203e+00 2.1760710300449007e+00 
631 0 1 1.0279999999999998e+00 -1.6282267839126096e+01 1.0000000000000000e+00 1.0526760126622129e+01 7.6843329121842450e+00 1.3068056001487838e+00 
154 0 1 1.0280000000000211e+00 -1.7823817808892723e+01 1.0000000000000000e+00 1.0566337370722206e+01 7.6341726466296240e+00 1.2447569616496958e+00 