LAMMPS data file via write_data, version 30 Jul 2016, timestep = 50000000

644 atoms
2 atom types

0.0000000000000000e+00 2.0000000000000000e+01 xlo xhi
0.0000000000000000e+00 2.0000000000000000e+01 ylo yhi
0.0000000000000000e+00 2.0000000000000000e+01 zlo zhi

Masses

1 4.31
2 3.896

Atoms # meso-molecular

589 0 1 1.0280000000000127e+00 -1.0625021012423865e+01 1.0000000000000000e+00 2.1706317277078688e+00 4.5799738049209209e+00 1.8912642523020020e+00 
421 0 1 1.0280000000000482e+00 -8.3705903046422137e+00 1.0000000000000000e+00 2.1706563505691698e+00 4.5799677086281267e+00 1.8912421989836201e+00 
513 0 1 1.0280000000000056e+00 -1.2967324141002159e+00 1.0000000000000000e+00 2.1706575085671291e+00 4.5799674219506592e+00 1.8912411618956295e+00 
429 0 1 1.0279999999998870e+00 1.1837282154727752e+01 1.0000000000000000e+00 2.1707361446714417e+00 4.5799479603937288e+00 1.8911707501644206e+00 
129 0 1 1.0280000000001406e+00 6.8697756934392484e-01 1.0000000000000000e+00 1.1816134445464535e+00 6.2451043397841186e+00 1.6286770212733903e+00 
471 0 1 1.0279999999999638e+00 1.9731487161753991e+00 1.0000000000000000e+00 2.5573254640821199e+00 6.1852875930012630e+00 5.5072028377415094e-01 
29 0 1 1.0280000000002192e+00 -3.7500386733382626e+01 1.0000000000000000e+00 2.3047988718966614e+00 6.0887284229692478e+00 2.9850861734379425e-01 
2 0 1 1.0280000000000833e+00 -6.1727319787122328e+00 1.0000000000000000e+00 1.5513602406393614e+00 5.9923312622559495e+00 8.6450609578304499e-02 
438 0 1 1.0280000000000880e+00 8.6666882495537028e+00 1.0000000000000000e+00 1.5512697150197474e+00 5.9925472134730997e+00 8.6310534149003748e-02 
338 0 1 1.0279999999999694e+00 1.6639428802200276e+00 1.0000000000000000e+00 3.6067190944895096e+00 6.1637678284477557e+00 2.6337603420948574e+00 
475 0 1 1.0279999999999760e+00 -5.0936703293936656e+00 1.0000000000000000e+00 5.9112429105840842e+00 4.0130064283245863e+00 1.1245339907820788e+00 
476 0 1 1.0279999999998923e+00 -2.0625655375840239e+01 1.0000000000000000e+00 5.6265688114637067e+00 4.5358242356815062e+00 5.6285018223421335e-01 
405 0 1 1.0279999999999656e+00 -1.2404077693979976e+00 1.0000000000000000e+00 5.6264765957737852e+00 4.5297077530507410e+00 5.3607226345233883e-01 
312 0 1 1.0280000000000646e+00 9.3548090147854328e+00 1.0000000000000000e+00 5.6974868997170702e+00 4.6890346146663076e+00 5.3057612481324579e-01 
140 0 1 1.0280000000000589e+00 -2.2825604031333576e+01 1.0000000000000000e+00 5.6600929530085073e+00 4.6077994701318730e+00 5.0183206717646178e-01 
572 0 1 1.0280000000000411e+00 -1.4265494739708668e+01 1.0000000000000000e+00 1.9771008431422985e+00 6.7343763065805442e+00 2.5714193760524826e+00 
260 0 1 1.0280000000006306e+00 -1.6091627321242321e+01 1.0000000000000000e+00 2.4886629545021188e+00 9.2143624286008414e+00 3.1656089975457027e+00 
604 0 1 1.0280000000003280e+00 -6.6992042829372096e+00 1.0000000000000000e+00 2.4778515618761001e+00 9.2079107585762223e+00 3.1407687987207642e+00 
141 0 1 1.0279999999992802e+00 -2.1896877899146414e+01 1.0000000000000000e+00 2.4550573865034404e+00 9.2006185246868011e+00 3.1003220419185107e+00 
519 0 1 1.0279999999997149e+00 -7.0086221311385595e+00 1.0000000000000000e+00 2.2824923516635525e+00 9.2141006492590432e+00 3.0336381529665482e+00 
114 0 1 1.0279999999999900e+00 -8.9005690377500954e+00 1.0000000000000000e+00 3.1314906050392168e+00 9.9498599647490256e+00 2.2074293205618782e+00 
197 0 1 1.0280000000000111e+00 -5.9697934616335520e+00 1.0000000000000000e+00 1.3067915389294569e+00 7.4349820578277086e+00 1.4963328195462489e+00 
153 0 1 1.0280000000000702e+00 -1.0216018593303263e+01 1.0000000000000000e+00 2.4333225721287088e+00 7.2849795533356883e+00 1.4819979928275928e+00 
115 0 1 1.0279999999998763e+00 -4.1763542695256177e+00 1.0000000000000000e+00 1.6160448409840933e+00 7.7547861105521267e+00 2.5400980025252490e-01 
427 0 1 1.0280000000000140e+00 -2.5656111595811018e+00 1.0000000000000000e+00 3.6660801386870192e+00 6.9538337229999287e+00 3.2803103164078276e+00 
195 0 1 1.0279999999999658e+00 2.6036645443949458e+00 1.0000000000000000e+00 6.5919647810248811e+00 9.7668990043565191e+00 3.2415136893875953e+00 
34 0 1 1.0279999999999714e+00 -1.1327420878379860e+01 1.0000000000000000e+00 6.6191892609638829e+00 9.7538472819853563e+00 3.2203460274471722e+00 
466 0 1 1.0280000000000742e+00 3.6111962237349471e+00 1.0000000000000000e+00 6.4779509971175901e+00 8.9843368534948986e+00 2.8612474061796105e+00 
196 0 1 1.0279999999999865e+00 3.7017880051529106e+00 1.0000000000000000e+00 3.4894245516047979e+00 4.2465447109883749e+00 3.5619907560033384e+00 
516 0 1 1.0279999999999863e+00 5.0331577708578426e+00 1.0000000000000000e+00 3.4892702999159284e+00 4.2463940424796895e+00 3.5617655666893429e+00 
113 0 1 1.0279999999999907e+00 -1.8021652043840000e+01 1.0000000000000000e+00 3.4891748635691968e+00 4.2463009602371997e+00 3.5616264433510940e+00 
506 0 1 1.0279999999999836e+00 1.0028123846579270e+01 1.0000000000000000e+00 3.4898820019076218e+00 4.2469922981676698e+00 3.5626593387953580e+00 
79 0 1 1.0279999999999752e+00 6.2282239617358001e-02 1.0000000000000000e+00 3.4897666357752244e+00 4.2468794319225038e+00 3.5624908482021320e+00 
74 0 1 1.0280000000000169e+00 -9.1290604909651663e+00 1.0000000000000000e+00 5.0527295977020676e+00 6.0930099641261402e+00 4.0159129735031032e+00 
174 0 1 1.0280000000000120e+00 -3.2318311886992870e+00 1.0000000000000000e+00 5.0535353722441494e+00 6.0957027227733818e+00 4.0154861918438440e+00 
379 0 1 1.0279999999999987e+00 -2.4734599950191370e+01 1.0000000000000000e+00 3.7709690868184116e+00 6.1126733395644264e+00 4.6398747755362821e+00 
256 0 1 1.0279999999998877e+00 4.6344008781890977e+00 1.0000000000000000e+00 2.9266696224404716e+00 6.8501373556945246e+00 3.6960513584098722e+00 
60 0 1 1.0280000000000655e+00 -8.1088292554265813e+00 1.0000000000000000e+00 1.0831062947892720e+00 8.2423134074854634e+00 3.6758089428301517e+00 
144 0 1 1.0280000000000640e+00 2.2238705871779327e+00 1.0000000000000000e+00 8.0799610499480035e-01 8.3114558297698000e+00 3.8139246800078501e+00 
106 0 1 1.0280000000000975e+00 -9.7276931640654922e+00 1.0000000000000000e+00 1.4770796837625995e+00 8.7523104175496069e+00 5.1149006028000041e+00 
566 0 1 1.0280000000001275e+00 -4.2487879133964981e+00 1.0000000000000000e+00 1.2566535445349594e+00 8.8000059256163787e+00 5.2516783209568425e+00 
618 0 1 1.0279999999998848e+00 -1.4718983934141056e+01 1.0000000000000000e+00 3.2634796923140814e+00 9.3486824956513104e+00 6.3419595714927688e+00 
526 0 1 1.0280000000000211e+00 -2.7591112988563758e+01 1.0000000000000000e+00 2.2702732354261287e-01 7.8616706984789655e+00 5.3603256960995322e+00 
527 0 1 1.0280000000000389e+00 -1.1719709082374543e+01 1.0000000000000000e+00 2.1782787527894618e-01 7.8574734623405824e+00 5.3570067981097553e+00 
139 0 1 1.0279999999999698e+00 -2.4690633594877216e+00 1.0000000000000000e+00 3.3340761012071196e+00 9.0157973685995731e+00 6.0927213523046433e+00 
512 0 1 1.0280000000000054e+00 -1.7057057580179737e+01 1.0000000000000000e+00 5.1394282327173437e+00 6.6725363883727136e+00 4.4870739104667461e+00 
344 0 1 1.0279999999999994e+00 7.1187294478639773e-01 1.0000000000000000e+00 5.3249921775745523e+00 8.4781696026954965e+00 4.6596567404368265e+00 
58 0 1 1.0279999999999918e+00 -1.3968434072004168e+01 1.0000000000000000e+00 5.2591042226997544e+00 8.5406488368057243e+00 4.8709622469955400e+00 
500 0 1 1.0279999999999532e+00 3.4694982218330024e+00 1.0000000000000000e+00 5.2355909652312080e+00 8.5679636950490359e+00 4.9345365226168667e+00 
507 0 1 1.0279999999999876e+00 4.9653230363034826e+00 1.0000000000000000e+00 5.2291653851759001e+00 8.5759985283178786e+00 4.9521301949142309e+00 
449 0 1 1.0279999999999956e+00 -1.8551987371608725e+01 1.0000000000000000e+00 3.8409928968684808e+00 7.1727239771819660e+00 5.1444469485663307e+00 
488 0 1 1.0279999999999858e+00 5.4970811739700549e+00 1.0000000000000000e+00 3.8514068696332053e+00 7.1673680009577554e+00 5.1498171820019261e+00 
520 0 1 1.0280000000000218e+00 1.3442650282411583e+01 1.0000000000000000e+00 1.5195129242481993e+00 6.5389741577844758e+00 7.8721998386667007e+00 
16 0 1 1.0279999999999627e+00 -6.9808393641106221e+00 1.0000000000000000e+00 2.7464879507417463e+00 6.5480896691016603e+00 8.4272509335742551e+00 
35 0 1 1.0279999999999707e+00 -1.0744194169024109e+01 1.0000000000000000e+00 2.7467249421818107e+00 6.5481930157500337e+00 8.4272578917694929e+00 
100 0 1 1.0279999999999718e+00 -4.4529123699852145e-02 1.0000000000000000e+00 2.7419277750023130e+00 6.5461108714658423e+00 8.4271116449111414e+00 
535 0 1 1.0280000000001184e+00 1.3636966595296331e+00 1.0000000000000000e+00 3.3011517614392867e+00 9.8665648465927518e+00 6.7405105716039095e+00 
492 0 1 1.0280000000000680e+00 7.2179557243762851e+00 1.0000000000000000e+00 1.1156926731943888e+00 6.6884625859053299e+00 8.0271369781203337e+00 
606 0 1 1.0280000000000560e+00 -6.9551995396839761e+00 1.0000000000000000e+00 3.8946211206496995e-01 7.1419403662019034e+00 7.8497654410110043e+00 
228 0 1 1.0280000000000802e+00 1.4158087216613696e+01 1.0000000000000000e+00 3.7526580150043598e-01 7.1551897322192080e+00 7.8593940478019118e+00 
70 0 1 1.0280000000000820e+00 -3.3121079324006629e+01 1.0000000000000000e+00 3.7473104782794386e-01 7.1556930763567124e+00 7.8597036704021148e+00 
443 0 1 1.0279999999999880e+00 8.0564866304729517e+00 1.0000000000000000e+00 3.1990133990923888e+00 7.6307723136044299e+00 8.4956907313999395e+00 
63 0 1 1.0279999999999707e+00 -1.7402829634793427e+01 1.0000000000000000e+00 3.1712506461363263e+00 7.5928101116701798e+00 8.5190376758598774e+00 
538 0 1 1.0279999999999652e+00 -4.9495822461962904e+00 1.0000000000000000e+00 3.6030382126662106e+00 7.4003770161193279e+00 7.4745266238673409e+00 
390 0 1 1.0280000000000133e+00 6.5998549803992486e+00 1.0000000000000000e+00 4.1205906703389816e+00 9.6642618024765632e+00 8.6568619833800131e+00 
596 0 1 1.0279999999999727e+00 -3.7865326624798541e+01 1.0000000000000000e+00 3.5522711745749591e+00 7.2591402371959797e+00 7.6107386998849567e+00 
305 0 1 1.0280000000000042e+00 6.4430397514985334e+00 1.0000000000000000e+00 3.7027524105679421e+00 9.4635950558177342e+00 8.2077649719556032e+00 
569 0 1 1.0279999999999325e+00 -2.4635799569762732e+01 1.0000000000000000e+00 5.1542140116263599e+00 9.0313105484790874e+00 6.9409687552449206e+00 
455 0 1 1.0279999999999876e+00 -5.3516211740826733e+00 1.0000000000000000e+00 5.2127788182703991e+00 9.1073078221638397e+00 7.0264759420476439e+00 
627 0 1 1.0279999999999740e+00 -7.7412008036046132e+00 1.0000000000000000e+00 6.1464237635239272e+00 6.4081881919135091e+00 1.0256561108571113e+01 
620 0 1 1.0279999999999534e+00 -5.4963994689480948e+00 1.0000000000000000e+00 6.1398149549421959e+00 6.3896649621108779e+00 1.0260448539651678e+01 
638 0 1 1.0279999999999538e+00 -3.3911585659473531e+01 1.0000000000000000e+00 6.1463303253883295e+00 6.4079621049153390e+00 1.0256624114541561e+01 
440 0 1 1.0279999999999376e+00 4.5578049707771058e+00 1.0000000000000000e+00 6.1464222656620784e+00 6.4081845811661795e+00 1.0256562123846196e+01 
110 0 1 1.0280000000000109e+00 -3.4653620968955057e+00 1.0000000000000000e+00 5.1866133701001771e-01 9.7295921903498570e+00 1.2981456804182871e+01 
119 0 1 1.0280000000000307e+00 -1.2680859671054488e+01 1.0000000000000000e+00 4.3464634520652562e-01 9.7727043215415001e+00 1.2901775642758393e+01 
8 0 1 1.0279999999999152e+00 -1.9501398949096888e+01 1.0000000000000000e+00 3.4862342413430852e-01 9.8388389871779527e+00 1.2851445193262942e+01 
590 0 1 1.0280000000000069e+00 -1.3063488467211557e+00 1.0000000000000000e+00 6.1988481048404589e+00 9.6913692703527605e+00 1.1875653966663968e+01 
437 0 1 1.0280000000000247e+00 1.3521794224451309e+01 1.0000000000000000e+00 6.1711247181128943e+00 9.7808408638182041e+00 1.1784416198443747e+01 
224 0 1 1.0279999999999934e+00 -3.0861229009827986e+00 1.0000000000000000e+00 6.3818127255035462e+00 9.7672944826004731e+00 1.1646966073257170e+01 
178 0 1 1.0279999999998026e+00 9.2394094478704467e+00 1.0000000000000000e+00 2.9503555820834224e+00 6.3912602437689436e+00 1.6014844673740058e+01 
451 0 1 1.0279999999999985e+00 5.2771489677537371e+00 1.0000000000000000e+00 3.3119041839004053e+00 6.5785707753331160e+00 1.6342759619634634e+01 
612 0 1 1.0280000000000598e+00 -1.1192481689896614e+01 1.0000000000000000e+00 3.3606186391356205e+00 6.6483970091797673e+00 1.6317050708997506e+01 
124 0 1 1.0280000000002874e+00 -9.3473714442006872e-01 1.0000000000000000e+00 1.2030100137534476e+00 9.4603803189175135e+00 1.3767587721679581e+01 
531 0 1 1.0279999999996934e+00 -2.2228419871307139e+00 1.0000000000000000e+00 2.6744418524790676e+00 8.6729143480948796e+00 1.4615101944134183e+01 
209 0 1 1.0280000000002194e+00 2.5798092573579052e+00 1.0000000000000000e+00 2.2586457026964268e+00 8.3867955445718927e+00 1.4679604532059850e+01 
382 0 1 1.0280000000002014e+00 8.8381650996248098e+00 1.0000000000000000e+00 2.2015403534107030e+00 8.3726726063891377e+00 1.4708116378455298e+01 
307 0 1 1.0280000000000811e+00 1.7376859265192955e+01 1.0000000000000000e+00 1.7065241363141561e+00 8.0014564056154835e+00 1.5123081078181100e+01 
146 0 1 1.0280000000000180e+00 6.3159305923948574e+00 1.0000000000000000e+00 1.6802365995947863e+00 7.9792650047581652e+00 1.5152443052737731e+01 
283 0 1 1.0280000000000451e+00 8.5989151342293138e+00 1.0000000000000000e+00 1.1546993158663719e+00 7.5149856505949710e+00 1.6344230462619500e+01 
508 0 1 1.0280000000000331e+00 2.4712728636033190e+00 1.0000000000000000e+00 4.6982389202392518e+00 8.8033419659569567e+00 1.4104532913618987e+01 
397 0 1 1.0280000000000018e+00 4.0902796680363132e+00 1.0000000000000000e+00 4.7431152106360006e+00 8.7915240392472516e+00 1.4138293907336916e+01 
387 0 1 1.0280000000000267e+00 8.3757417177583307e+00 1.0000000000000000e+00 4.6256508616151990e+00 8.8064030109224731e+00 1.4160623177645991e+01 
328 0 1 1.0279999999999871e+00 8.4894101397323301e+00 1.0000000000000000e+00 5.6977406932223218e+00 8.8757364159266796e+00 1.4374657219090700e+01 
300 0 1 1.0280000000000082e+00 -1.8815103515651486e+00 1.0000000000000000e+00 5.5801390970658602e+00 8.8356700919477333e+00 1.4354896648753408e+01 
484 0 1 1.0280000000000229e+00 -1.5000049651511045e+01 1.0000000000000000e+00 5.6185914920862192e+00 8.8495889140891357e+00 1.4418628750400606e+01 
308 0 1 1.0279999999997500e+00 2.7353742714774376e+00 1.0000000000000000e+00 2.0789768764897949e+00 6.2313211697260451e+00 1.6865452985072785e+01 
591 0 1 1.0279999999997131e+00 -1.2252164624898089e+01 1.0000000000000000e+00 9.0869601025724966e-01 6.5724002594389201e+00 1.9846706411639346e+01 
542 0 1 1.0279999999999132e+00 -2.3785286230046732e-01 1.0000000000000000e+00 3.2317461113474470e+00 6.7436199190184061e+00 1.7018077831634436e+01 
295 0 1 1.0280000000000911e+00 -1.8647944200563402e+00 1.0000000000000000e+00 1.2615825680878607e+00 7.0181344161708772e+00 1.7008959327927748e+01 
494 0 1 1.0280000000001515e+00 -5.6697803526984258e-01 1.0000000000000000e+00 1.2694480201156633e+00 7.0146588885065322e+00 1.7020949862518677e+01 
615 0 1 1.0280000000001506e+00 -1.0682218475152094e+01 1.0000000000000000e+00 1.2662995916383428e+00 7.0160267617485568e+00 1.7016204013015216e+01 
189 0 1 1.0279999999999549e+00 -1.5486224244817283e+01 1.0000000000000000e+00 1.3424011614325420e+00 8.9323264032519614e+00 1.9642323876468520e+01 
628 0 1 1.0279999999997231e+00 -9.1501401959483069e+00 1.0000000000000000e+00 5.6845250679961978e-01 8.8243361523219761e+00 1.9966587331899770e+01 
510 0 1 1.0279999999999923e+00 -2.6918597169412819e+00 1.0000000000000000e+00 5.0860233954459728e+00 9.6513660856590011e+00 1.9262287042930026e+01 
394 0 1 1.0280000000000016e+00 3.2114829313093812e-01 1.0000000000000000e+00 3.4027750496639841e+00 6.7685563070358459e+00 1.6763916976572339e+01 
205 0 1 1.0280000000000107e+00 -2.4460631955391774e+00 1.0000000000000000e+00 5.3281184616578638e+00 9.8135963192360034e+00 1.9240081834311592e+01 
587 0 1 1.0279999999999561e+00 -1.0874305353283113e+01 1.0000000000000000e+00 6.0568881799079213e+00 8.5773295493303152e+00 1.7265483358560726e+01 
69 0 1 1.0279999999999720e+00 -1.6159601065293558e+01 1.0000000000000000e+00 4.2699290117114543e+00 8.8724650461617713e+00 1.7415173309400021e+01 
71 0 1 1.0280000000000091e+00 -3.4853432232521499e+01 1.0000000000000000e+00 5.9812679036904788e+00 8.5753251367428245e+00 1.7468756402916668e+01 
250 0 1 1.0279999999999261e+00 7.5724051810167472e+00 1.0000000000000000e+00 4.2776310957450816e+00 8.8849801374779620e+00 1.7391657031671532e+01 
644 0 1 1.0279999999999903e+00 -2.7314627182956695e+01 1.0000000000000000e+00 6.0352220784158783e+00 8.5487269513647242e+00 1.7103580659591074e+01 
76 0 1 1.0279999999999452e+00 -1.1417895897164719e+01 1.0000000000000000e+00 4.1899504146516300e+00 8.9261998378412404e+00 1.7497360661843420e+01 
233 0 1 1.0279999999999996e+00 -2.1905251878412217e+00 1.0000000000000000e+00 3.6320106103545755e+00 9.4240625779337162e+00 1.8529926469651844e+01 
206 0 1 1.0279999999999276e+00 6.4447546926558612e+00 1.0000000000000000e+00 5.3726845418606270e+00 9.7749481186680320e+00 1.9218927208411319e+01 
315 0 1 1.0279999999999883e+00 -1.5201099591431980e+01 1.0000000000000000e+00 6.1285241364182186e+00 9.0133666820387468e+00 1.8252436442977736e+01 
361 0 1 1.0279999999999985e+00 1.4513523516760776e+01 1.0000000000000000e+00 2.9518121735486220e+00 1.1145227934236122e+01 1.1792407479983893e+00 
200 0 1 1.0280000000000240e+00 1.4016881126339579e+01 1.0000000000000000e+00 2.9493240816964117e+00 1.1143022402157992e+01 1.1784861078443150e+00 
362 0 1 1.0280000000000056e+00 1.8763283880987991e+01 1.0000000000000000e+00 2.9477340155133245e+00 1.1141648370313604e+01 1.1780292744039744e+00 
199 0 1 1.0280000000000085e+00 1.6571489229857644e+01 1.0000000000000000e+00 2.9358414089085048e+00 1.1132135869076528e+01 1.1751782308755980e+00 
633 0 1 1.0280000000001008e+00 -1.1120816944523040e+00 1.0000000000000000e+00 2.9615968395754084e+00 1.0935059193967678e+01 1.1019120593050455e+00 
399 0 1 1.0279999999999856e+00 -3.2136409073945229e+00 1.0000000000000000e+00 3.8854410122511887e+00 1.1809144294886293e+01 2.8222782004034173e+00 
505 0 1 1.0280000000000227e+00 -1.0513281885831017e+01 1.0000000000000000e+00 3.8767970067264579e+00 1.1819896934122200e+01 2.8128356414074829e+00 
370 0 1 1.0279999999999851e+00 1.5777513167313564e+00 1.0000000000000000e+00 2.7766938429672483e+00 1.2529112009070593e+01 3.4004209071637912e+00 
388 0 1 1.0279999999999496e+00 1.0468642506369319e+01 1.0000000000000000e+00 1.8922095206386342e+00 1.2543082045933774e+01 3.5368953275971675e+00 
85 0 1 1.0279999999999183e+00 -2.3927674171280138e+01 1.0000000000000000e+00 1.8951500425825007e+00 1.2542932211497817e+01 3.5358259082505570e+00 
643 0 1 1.0280000000000056e+00 -1.4664671769964663e+01 1.0000000000000000e+00 1.9265750010221059e+00 1.2542917804375193e+01 3.5312091988927330e+00 
621 0 1 1.0280000000000569e+00 -3.9293840346400040e+00 1.0000000000000000e+00 3.4919624560943419e-01 1.2587901711425339e+01 3.6291709885220667e+00 
469 0 1 1.0279999999999432e+00 2.9143341306299906e+00 1.0000000000000000e+00 1.3318639347149304e+00 1.1310745522200623e+01 5.2724734982441692e+00 
459 0 1 1.0280000000000766e+00 5.3998986512743716e+00 1.0000000000000000e+00 1.4226145467899858e+00 1.1266497983545641e+01 5.2499701715212153e+00 
207 0 1 1.0279999999999341e+00 1.0061842854524135e+01 1.0000000000000000e+00 1.4234896793853682e+00 1.1265340491997559e+01 5.2497286718763156e+00 
625 0 1 1.0279999999999698e+00 -1.9235143845144648e+01 1.0000000000000000e+00 3.2648584744148614e+00 1.0982420651581037e+01 5.5949895804106538e+00 
145 0 1 1.0280000000000029e+00 2.7960760008621750e+00 1.0000000000000000e+00 6.2426206738569174e+00 1.0947525822578113e+01 3.6961612705716522e+00 
151 0 1 1.0280000000000187e+00 -1.6749278365384690e+00 1.0000000000000000e+00 6.2402502207809531e+00 1.0949131031524381e+01 3.6959594819090187e+00 
528 0 1 1.0279999999998948e+00 1.5294592584121403e+00 1.0000000000000000e+00 4.0171697596893150e+00 1.1630861741837029e+01 3.8522591371415289e+00 
244 0 1 1.0279999999999843e+00 4.2100689522131735e-01 1.0000000000000000e+00 3.8102002221175284e+00 1.1857361971791970e+01 4.0980850090081606e+00 
499 0 1 1.0279999999999350e+00 -1.1045507814730543e+01 1.0000000000000000e+00 3.5367709218222125e+00 1.1374503241414157e+01 5.1167497120209733e+00 
166 0 1 1.0279999999999998e+00 1.4709170798714865e+01 1.0000000000000000e+00 5.7475668486193046e+00 1.2264068494786853e+01 5.4964366834886711e+00 
148 0 1 1.0280000000000038e+00 -1.9710757280053466e+00 1.0000000000000000e+00 4.3612621366356876e+00 1.1111053707737920e+01 6.5874399195614419e+00 
219 0 1 1.0280000000000438e+00 4.6437980281522739e-01 1.0000000000000000e+00 3.1015332467636911e+00 1.2044233199506099e+01 9.4707019423874126e+00 
303 0 1 1.0279999999999767e+00 2.3284025015147631e+00 1.0000000000000000e+00 2.8401406478778912e+00 1.1641634605799013e+01 9.4871008355886115e+00 
216 0 1 1.0279999999999681e+00 2.0502544622428953e+00 1.0000000000000000e+00 2.8289918039591853e+00 1.1657358189144944e+01 9.4903574912754323e+00 
217 0 1 1.0279999999999851e+00 -1.3909675775646415e+01 1.0000000000000000e+00 2.8289575763461969e+00 1.1657417773585873e+01 9.4903636463081256e+00 
226 0 1 1.0280000000000515e+00 2.3405369511485969e+00 1.0000000000000000e+00 4.4655393273417170e+00 1.1136882846277146e+01 6.6707153065535518e+00 
149 0 1 1.0280000000000369e+00 -3.2815930873639632e+00 1.0000000000000000e+00 4.4769859509631198e+00 1.1139724520948123e+01 6.6791963676841615e+00 
65 0 1 1.0280000000001470e+00 -5.9552875635917966e+00 1.0000000000000000e+00 4.7239951412236607e+00 1.0567996918142081e+01 9.3530292356181466e+00 
544 0 1 1.0279999999999403e+00 -1.1462778700896901e+00 1.0000000000000000e+00 4.6395639329314351e+00 1.0730194168282342e+01 9.4122442809250959e+00 
64 0 1 1.0279999999999914e+00 -1.7504884095206940e+01 1.0000000000000000e+00 4.6099576627458099e+00 1.0790771520732219e+01 9.4224061296637984e+00 
400 0 1 1.0279999999999920e+00 -3.8967546465336458e+00 1.0000000000000000e+00 4.6104124620443905e+00 1.0789494071604373e+01 9.4224102023400338e+00 
600 0 1 1.0279999999999971e+00 -5.7900284363682371e+00 1.0000000000000000e+00 1.6940647707790053e+00 1.4258476932684522e+01 9.5998954460751111e+00 
179 0 1 1.0280000000000049e+00 1.7199837880227374e+01 1.0000000000000000e+00 1.6939836287006949e+00 1.4258484093183904e+01 9.5998916365484472e+00 
541 0 1 1.0280000000000458e+00 -1.0413826837974021e+01 1.0000000000000000e+00 1.0935244332204359e+00 1.3777101595561740e+01 9.8458082651678609e+00 
122 0 1 1.0279999999999712e+00 2.4603464496095664e+00 1.0000000000000000e+00 1.6939950206715968e+00 1.4258483472974069e+01 9.5998929446585493e+00 
168 0 1 1.0280000000000005e+00 1.7983898272515750e+00 1.0000000000000000e+00 1.6939838023634870e+00 1.4258484045728817e+01 9.5998915800374700e+00 
147 0 1 1.0280000000000287e+00 -4.9356936400383624e+00 1.0000000000000000e+00 2.8339053346425560e+00 1.0820856724515984e+01 1.2538792565352088e+01 
428 0 1 1.0280000000000726e+00 5.3996738487120686e+00 1.0000000000000000e+00 5.7804440350883435e-01 1.0302239706619089e+01 1.2063445665771845e+01 
588 0 1 1.0279999999999865e+00 -1.8382413440184990e+01 1.0000000000000000e+00 2.1936832040556071e+00 1.1529033439911457e+01 1.2059025087766708e+01 
480 0 1 1.0279999999998934e+00 1.3228091930922605e+00 1.0000000000000000e+00 2.1862078837262944e+00 1.1536925980771393e+01 1.2031350231935225e+01 
126 0 1 1.0280000000000440e+00 -2.6054327104169101e+01 1.0000000000000000e+00 9.7607025579135542e-01 1.0116080344588481e+01 1.2055986243987476e+01 
420 0 1 1.0279999999999301e+00 -1.2880534579707991e+01 1.0000000000000000e+00 2.1813934602661145e+00 1.1632458610988008e+01 1.1761196717423068e+01 
592 0 1 1.0280000000000324e+00 -5.5143809735399127e+00 1.0000000000000000e+00 2.6893081305457063e+00 1.2424732014741441e+01 1.1055620032344999e+01 
463 0 1 1.0280000000000422e+00 -1.5333178378243900e+01 1.0000000000000000e+00 2.6166725972391962e+00 1.2556036661873492e+01 1.1030365740383123e+01 
47 0 1 1.0279999999999612e+00 -7.7501799913671388e+00 1.0000000000000000e+00 3.8499731550932266e+00 1.0226031157251532e+01 1.3139074972080170e+01 
286 0 1 1.0280000000000029e+00 -2.8276645392203523e+00 1.0000000000000000e+00 6.3936260986467905e+00 1.0291175765327459e+01 1.1481924778179312e+01 
626 0 1 1.0279999999997727e+00 -1.4964518014378790e+01 1.0000000000000000e+00 6.1434360844740459e+00 1.0075515384780029e+01 1.1602603931303500e+01 
212 0 1 1.0280000000000022e+00 5.1670449981570181e+00 1.0000000000000000e+00 1.1509602646246795e+00 1.3844616387097814e+01 1.0127045643554551e+01 
393 0 1 1.0280000000000151e+00 -1.3003711983012249e+01 1.0000000000000000e+00 1.1074244463858611e+00 1.3808856812593632e+01 1.0007187853744329e+01 
441 0 1 1.0279999999998959e+00 5.6113638814569997e+00 1.0000000000000000e+00 2.4073163348070907e+00 1.0292486719620216e+01 1.3618008872881001e+01 
524 0 1 1.0279999999998553e+00 1.0847527596990636e+00 1.0000000000000000e+00 2.6129953196812394e+00 1.0128915193292212e+01 1.3670494201335464e+01 
454 0 1 1.0279999999999923e+00 3.9473691782924916e+00 1.0000000000000000e+00 5.0183168845264827e+00 1.1761382424644214e+01 1.3660543447233303e+01 
442 0 1 1.0280000000000082e+00 -3.1529832945774485e+00 1.0000000000000000e+00 5.1130513392930252e+00 1.1761874122615318e+01 1.3700233241015088e+01 
395 0 1 1.0279999999999996e+00 8.7929469161015437e+00 1.0000000000000000e+00 5.1143824335624872e+00 1.1761806862020771e+01 1.3701762263897278e+01 
248 0 1 1.0280000000000484e+00 1.5124267659583978e+01 1.0000000000000000e+00 5.1256138047033373e+00 1.1761143817791600e+01 1.3714718768827314e+01 
432 0 1 1.0280000000000298e+00 9.8904004971750368e+00 1.0000000000000000e+00 5.1256138942684828e+00 1.1761143811784976e+01 1.3714718873500599e+01 
279 0 1 1.0280000000000162e+00 6.9111046435741059e+00 1.0000000000000000e+00 5.1256138913302864e+00 1.1761143811981803e+01 1.3714718870074426e+01 
95 0 1 1.0280000000000178e+00 1.6098130984131112e+00 1.0000000000000000e+00 6.2964085174048110e+00 1.1136119201755534e+01 1.6325296675636686e+01 
22 0 1 1.0280000000000367e+00 -1.6107950975984203e+01 1.0000000000000000e+00 6.3466110006052139e+00 1.1056071002637960e+01 1.6311333871150620e+01 
125 0 1 1.0280000000000116e+00 -3.2700099629153314e+00 1.0000000000000000e+00 6.3474836182546186e+00 1.1094908441751420e+01 1.6373989928094566e+01 
87 0 1 1.0280000000000173e+00 1.0510341491624047e+00 1.0000000000000000e+00 6.3336292452075194e+00 1.1105262648656993e+01 1.6358074599197952e+01 
171 0 1 1.0280000000000700e+00 1.9389700856089323e+01 1.0000000000000000e+00 6.3943046959869694e+00 1.0999822439738510e+01 1.6342616824074664e+01 
380 0 1 1.0279999999999125e+00 -4.0184813211519677e+00 1.0000000000000000e+00 1.4063389801978272e+00 1.0151647385212408e+01 1.7981297823838442e+01 
357 0 1 1.0279999999999352e+00 1.2037171662931437e-01 1.0000000000000000e+00 1.4796223923688234e+00 1.0145198703983594e+01 1.7998553366561904e+01 
268 0 1 1.0279999999999394e+00 1.1116270383068549e+00 1.0000000000000000e+00 1.4796147300286191e+00 1.0143457848494705e+01 1.7997391095096937e+01 
105 0 1 1.0279999999999636e+00 -1.1361165048073190e+01 1.0000000000000000e+00 1.4794617587738959e+00 1.0143153036941504e+01 1.7997141844599298e+01 
609 0 1 1.0280000000000460e+00 -3.7932819943365899e+01 1.0000000000000000e+00 2.1054716008691039e+00 1.0393892515229611e+01 1.8773232248376342e+01 
81 0 1 1.0280000000000507e+00 4.0729692307466578e+00 1.0000000000000000e+00 1.8585096826637852e+00 1.0381397506658047e+01 1.8993808709330501e+01 
634 0 1 1.0279999999998548e+00 -1.1531958803839583e+01 1.0000000000000000e+00 4.8874142151600148e+00 1.0307471024807102e+01 1.9372831577719150e+01 
14 0 1 1.0280000000000287e+00 -2.8057527151923175e+01 1.0000000000000000e+00 4.5073073040703857e+00 1.1743399448828505e+01 1.7816257071584147e+01 
77 0 1 1.0280000000000182e+00 -1.0331742050474602e+00 1.0000000000000000e+00 4.5073072900828945e+00 1.1743399440557491e+01 1.7816257071895901e+01 
458 0 1 1.0279999999999867e+00 2.1161573089283337e+01 1.0000000000000000e+00 4.5073071628735590e+00 1.1743399365463018e+01 1.7816257093585474e+01 
84 0 1 1.0280000000000122e+00 -2.9320526960728699e+01 1.0000000000000000e+00 4.5073073044817198e+00 1.1743399449071950e+01 1.7816257071600148e+01 
450 0 1 1.0280000000000400e+00 3.8861147269923979e+00 1.0000000000000000e+00 4.5273760078868062e+00 1.1755067974007746e+01 1.7807934636274339e+01 
11 0 1 1.0280000000000631e+00 1.3568836489304257e+00 1.0000000000000000e+00 6.2141363490054955e+00 1.0863898466046010e+01 1.8287408278719141e+01 
304 0 1 1.0279999999999576e+00 1.4735765569830999e+01 1.0000000000000000e+00 7.8520873374184008e+00 2.9950393107483841e+00 3.1809562116362158e+00 
478 0 1 1.0280000000000014e+00 -1.4504019970058919e+00 1.0000000000000000e+00 8.7410901136393218e+00 2.8852027186250249e+00 2.7465444397864300e+00 
378 0 1 1.0280000000000244e+00 -2.2418451336973479e+01 1.0000000000000000e+00 9.0378406268209019e+00 3.1911866397110003e+00 1.5507698761407525e+00 
377 0 1 1.0280000000001288e+00 -4.8358594083995765e+00 1.0000000000000000e+00 9.2009597277377768e+00 2.7873809831847138e+00 6.6914791981686061e-01 
555 0 1 1.0279999999998999e+00 -3.7792304911460546e+00 1.0000000000000000e+00 9.3493363729139034e+00 2.8716415484091691e+00 6.2179258903850310e-01 
186 0 1 1.0280000000000167e+00 1.2113867712414635e+01 1.0000000000000000e+00 9.4085288853113713e+00 4.0682480677292299e+00 2.3946416078488273e+00 
20 0 1 1.0279999999997822e+00 -1.5260553604126333e+01 1.0000000000000000e+00 7.4162262346432266e+00 6.5081418896574492e+00 1.9763422659155789e+00 
262 0 1 1.0280000000000107e+00 9.7902551025069329e+00 1.0000000000000000e+00 9.2457563508014609e+00 3.5419468101970391e+00 1.9658646996645075e+00 
320 0 1 1.0280000000001783e+00 1.0000430146269954e+01 1.0000000000000000e+00 8.6105251388899262e+00 5.9072205827837250e+00 9.3945416375381507e-01 