LAMMPS data file via write_data, version 30 Jul 2016, timestep = 50400000

504 atoms
2 atom types

0.0000000000000000e+00 2.0000000000000000e+01 xlo xhi
0.0000000000000000e+00 2.0000000000000000e+01 ylo yhi
0.0000000000000000e+00 2.0000000000000000e+01 zlo zhi

Masses

1 3.89
2 4.3

Atoms # meso-molecular

401 1 2 1.1578757394786670e+00 3.6344335094998527e+01 1.0000000000000000e+00 2.2473744557863062e+00 9.0005326085724513e-01 2.0000746678109557e-01 
184 1 2 1.1578875287522277e+00 -1.5375791006130362e+02 1.0000000000000000e+00 4.4040126752244033e+00 6.9576620479318807e-01 6.9383686031544201e-01 
503 1 2 1.1578755247059056e+00 5.9910434456198573e+01 1.0000000000000000e+00 7.8384854586922237e-01 2.4728325713219732e+00 7.1821695964947352e-01 
198 1 2 1.1578755247059056e+00 2.8680862581495859e+01 1.0000000000000000e+00 6.7511257489777143e-01 5.2537993035321353e+00 5.5250522993921647e-01 
263 1 2 1.1578755451330520e+00 6.9014619855664861e+01 1.0000000000000000e+00 5.0952895567956515e+00 4.8335809177978648e+00 3.8540351011292523e-01 
133 1 2 1.1578755451330520e+00 3.1645006676390210e+01 1.0000000000000000e+00 4.9210194487015535e+00 6.7140134521427051e+00 1.0073575098445884e+00 
55 1 2 1.1578755247059056e+00 -4.9565673234797643e+01 1.0000000000000000e+00 6.6364104578033851e+00 8.1729069390430986e+00 3.5874748313504229e-01 
502 1 2 1.1578755247059056e+00 3.0218895097336201e+01 1.0000000000000000e+00 4.5546550272497903e+00 9.2656291033878588e+00 7.5454511467348795e-01 
294 1 2 1.1578757395994419e+00 3.2267583506163021e+01 1.0000000000000000e+00 2.4827740645020477e+00 1.5624654109754518e-01 2.0188319484152468e+00 
472 1 2 1.1578767285662526e+00 3.6788245824553258e+01 1.0000000000000000e+00 6.4864993182888391e+00 3.3302016063439210e-01 1.6583666878327845e+00 
186 1 2 1.1578755248266805e+00 3.5698451890677214e+00 1.0000000000000000e+00 3.3109196429587189e+00 1.9468329710398784e+00 2.3241899833308013e+00 
465 1 2 1.1578755247059056e+00 1.8268070524881477e+01 1.0000000000000000e+00 1.0771478922704418e+00 4.1310544224847146e+00 2.8264203948350621e+00 
245 1 2 1.1578755247059056e+00 -8.3187703032304796e+00 1.0000000000000000e+00 3.3140761500560578e+00 4.6837084304482612e+00 1.9481822303537568e+00 
75 1 2 1.1578755247059056e+00 -5.1148683651342608e+01 1.0000000000000000e+00 6.1063491358457558e+00 5.2068188437861220e+00 2.0986167160693228e+00 
348 1 2 1.1578755247059056e+00 5.9699456979523305e+01 1.0000000000000000e+00 2.2640789580791956e+00 7.4342038466582272e+00 2.5072267359017997e+00 
158 1 2 1.1578755247073400e+00 4.0693987314466824e+01 1.0000000000000000e+00 4.9023737506757907e+00 8.8471303736734630e-01 3.3822239760024946e+00 
360 1 2 1.1578755247073400e+00 3.5792352646645014e+01 1.0000000000000000e+00 4.6161973807378853e+00 2.8278702657378969e+00 3.7548913315922867e+00 
218 1 2 1.1578755247059056e+00 3.8479465104793505e+01 1.0000000000000000e+00 6.5037155898950925e+00 3.7547780061736553e+00 3.7841671853117345e+00 
190 1 2 1.1578755247059056e+00 9.4316678314937370e+00 1.0000000000000000e+00 3.2603880014639870e+00 5.5754794647380779e+00 3.7587427973082863e+00 
224 1 2 1.1578755247059056e+00 3.8898480109098259e+01 1.0000000000000000e+00 1.0322425441939094e+00 9.3771711987889930e+00 3.4026281960825702e+00 
379 1 2 1.1578778529000950e+00 1.8549736817970096e+01 1.0000000000000000e+00 2.8648110494376602e+00 1.5372537252031726e+00 5.0266660172980924e+00 
492 1 2 1.1578755247059056e+00 1.6302370337821110e+01 1.0000000000000000e+00 6.0277416226810239e+00 1.8552156817796241e+00 4.9270194238203846e+00 
105 1 2 1.1578755247059056e+00 -5.3867212829173326e+01 1.0000000000000000e+00 1.4506384544688622e+00 2.9711763428214248e+00 5.4691328681978613e+00 
146 1 2 1.1578755247059056e+00 4.2010210211943203e+01 1.0000000000000000e+00 5.1193525951423577e+00 5.8726399192795835e+00 4.5728830792054680e+00 
275 1 2 1.1578755247059056e+00 1.1084429771492101e+01 1.0000000000000000e+00 3.4485160127596508e+00 8.5933098515052677e+00 4.2964875340413737e+00 
468 1 2 1.1578755247059056e+00 1.9222934241846538e+01 1.0000000000000000e+00 6.5127739846383692e+00 8.6906739402515711e+00 4.7699681980478914e+00 
259 1 2 1.1578755247059056e+00 2.9073227689856012e+01 1.0000000000000000e+00 3.8394861585743643e+00 3.8491552037551102e+00 5.7830198504549699e+00 
340 1 2 1.1578755247059056e+00 1.8555278219472079e+01 1.0000000000000000e+00 1.5691555560078307e+00 7.2324838153300224e+00 6.1772003213115427e+00 
173 1 2 1.1578755247059056e+00 6.4149142825699187e+01 1.0000000000000000e+00 4.0139418371978293e+00 7.2679101062233986e+00 6.0596427351938340e+00 
96 1 2 1.1578755247059056e+00 -5.3087671842569557e+02 1.0000000000000000e+00 6.5142249399323882e-01 9.5204196920212389e+00 5.9620757996052909e+00 
165 1 2 1.1578755247059056e+00 6.9249179248284669e+00 1.0000000000000000e+00 3.4174663411297418e-01 1.5766070430401574e-01 7.6543109993144478e+00 
67 1 2 1.1578755247059056e+00 3.0861311894730054e+01 1.0000000000000000e+00 4.6426418931200377e+00 2.4363514010804419e+00 8.4309171454726570e+00 
314 1 2 1.1578755247059056e+00 -2.0971378674091278e+02 1.0000000000000000e+00 1.1281506475294438e-01 2.8788968884631396e+00 8.1932189824425024e+00 
126 1 2 1.1578755247059056e+00 2.2128323678883696e+01 1.0000000000000000e+00 3.3560074240241766e-02 4.7130141013545259e+00 7.2472326800635356e+00 
44 1 2 1.1578755247059056e+00 -3.2224929552178264e+02 1.0000000000000000e+00 3.1894505579460888e+00 5.4195178221348010e+00 7.5173567756235640e+00 
109 1 2 1.1578755247059056e+00 3.8016842938092921e+01 1.0000000000000000e+00 6.4019600327030082e+00 4.5714476683921044e+00 7.2615571937911776e+00 
18 1 2 1.1578755247059056e+00 3.2103081865951125e+01 1.0000000000000000e+00 1.6759670861041287e-01 7.5983231839879526e+00 8.0164914180293234e+00 
12 1 2 1.1578762119395722e+00 3.0095966345377420e+01 1.0000000000000000e+00 6.6237165528490936e+00 3.6099776192719455e+00 9.9784588463934689e+00 
385 1 2 1.1578951430634576e+00 2.3451883808275447e+01 1.0000000000000000e+00 4.8922172804129893e-01 4.7290448883120764e+00 9.5645400962325269e+00 
399 1 2 1.1578760019694421e+00 4.6852371990271038e+01 1.0000000000000000e+00 5.3122373078793972e+00 4.9442933630275503e+00 9.3476244305596499e+00 
254 1 2 1.1578755247059056e+00 2.1104311899887321e+01 1.0000000000000000e+00 3.3252743468662915e+00 6.3003420954162550e+00 9.5151406818479867e+00 
378 1 2 1.1578755247059056e+00 4.0796517906458263e+01 1.0000000000000000e+00 5.8839784789192509e+00 7.3022992559008300e+00 9.6628948771006762e+00 
415 1 2 1.1578755247059056e+00 3.2794876962917783e+01 1.0000000000000000e+00 1.8922912828585741e+00 9.8894723726907241e+00 9.4863283854952218e+00 
419 1 2 1.1578755247059056e+00 2.7357425803187848e+01 1.0000000000000000e+00 2.1946936157709303e+00 6.9008882370117985e-01 1.0448377772361463e+01 
483 1 2 1.1578761238633082e+00 9.2685665560632824e+00 1.0000000000000000e+00 4.4626536345698575e+00 1.3101788007598367e+00 1.0512407347343265e+01 
420 1 2 1.1578755247059056e+00 3.2289248896863050e+01 1.0000000000000000e+00 8.9347440078643992e-01 2.5048185897213964e+00 1.0465110794686638e+01 
368 1 2 1.1578763338334384e+00 2.8441113215991244e+01 1.0000000000000000e+00 4.8416307635893681e+00 3.2315152054319896e+00 1.0752044609541382e+01 
183 1 2 1.1578951430634576e+00 -3.2562591885651693e+02 1.0000000000000000e+00 3.5500322453993011e-01 6.6045304554985327e+00 1.0020580149503857e+01 
227 1 2 1.1578755247059056e+00 -3.8636989980554563e+02 1.0000000000000000e+00 3.7659828540384210e+00 8.7690109910333263e+00 1.0332556979062685e+01 
491 1 2 1.1578755871674871e+00 3.6924773642620032e+01 1.0000000000000000e+00 5.7165305033483040e+00 9.3490037093475227e+00 1.1062017024981495e+01 
160 1 2 1.1578755247059056e+00 3.8835475598410525e+01 1.0000000000000000e+00 2.4553932480199316e+00 3.7658486904033617e+00 1.2199038533654486e+01 
39 1 2 1.1578755247059056e+00 3.7353565588378842e+01 1.0000000000000000e+00 6.6102336050558836e+00 5.1251107169974688e+00 1.2369081745315798e+01 
409 1 2 1.1578755247059056e+00 3.4103721290809048e+01 1.0000000000000000e+00 1.1132933956548596e+00 5.9337484496673607e+00 1.1796076902878909e+01 
233 1 2 1.1578755247059056e+00 -1.6026737237265980e+01 1.0000000000000000e+00 3.8747707790814596e+00 6.2119237433921581e+00 1.1606890827744602e+01 
432 1 2 1.1578755247059056e+00 2.8105054826529155e+01 1.0000000000000000e+00 6.6194416783004391e+00 7.0238902526956943e+00 1.1506333501438652e+01 
287 1 2 1.1578755247059056e+00 2.4087110946532448e+01 1.0000000000000000e+00 1.0653800915924858e+00 9.5611485573749597e+00 1.2845680911136180e+01 
91 1 2 1.1578755247059056e+00 -1.5185453114061044e+01 1.0000000000000000e+00 1.3609789090533444e+00 4.1307556570423182e-01 1.3243054160573529e+01 
8 1 2 1.1578755247059056e+00 2.3885385688409798e+01 1.0000000000000000e+00 5.8434250949888611e+00 5.2089851440293589e-01 1.3652406445248598e+01 
449 1 2 1.1578755247059056e+00 -8.3727420462173200e+02 1.0000000000000000e+00 2.5676451027384353e+00 2.0472776910650268e+00 1.3957607852901877e+01 
226 1 2 1.1578755247059056e+00 -3.8626593499262833e+02 1.0000000000000000e+00 3.7038108428195282e+00 4.1873492016986056e+00 1.3962119238097886e+01 
36 1 2 1.1578755247059056e+00 6.2864601500581585e+01 1.0000000000000000e+00 1.6876474502267176e+00 5.4726320605193912e+00 1.4067318919069114e+01 
343 1 2 1.1578755247059056e+00 3.8856276429056962e+01 1.0000000000000000e+00 4.6457042839873495e+00 6.4814511786073998e+00 1.4175185516863012e+01 
69 1 2 1.1578765918725149e+00 4.5773775559749424e+01 1.0000000000000000e+00 3.2275964691707459e+00 7.8962451581264492e+00 1.4159245472856783e+01 
220 1 2 1.1578755247059056e+00 3.0474064215156332e+01 1.0000000000000000e+00 6.6501971469127694e+00 8.6974535029283118e+00 1.3618705553359463e+01 
93 1 2 1.1578755247059056e+00 9.7165933259719250e-01 1.0000000000000000e+00 9.5376919826389783e-01 1.6354415272832192e+00 1.5192205512512194e+01 
24 1 2 1.1578755247059056e+00 3.4888952671221638e+01 1.0000000000000000e+00 5.7554354134273433e+00 6.4576064489451923e-01 1.6492780526006012e+01 
479 1 2 1.1578755247059056e+00 5.8768715757027636e+01 1.0000000000000000e+00 1.0967119443215809e+00 3.3063731459097569e+00 1.6387178886277308e+01 
285 1 2 1.1578755247059056e+00 1.5381159334569556e+01 1.0000000000000000e+00 5.7429480722352801e+00 2.9402718519873243e+00 1.6258291118286937e+01 
307 1 2 1.1578755247059056e+00 3.5077768229461789e+01 1.0000000000000000e+00 2.0437825778784271e+00 5.1322290620391238e+00 1.6345986952818961e+01 
7 1 2 1.1578755247059056e+00 2.7216934271272891e+01 1.0000000000000000e+00 6.5391622626744139e+00 5.4928220594813828e+00 1.6628420015918802e+01 
274 1 2 1.1578765918725149e+00 6.7463676653076149e+01 1.0000000000000000e+00 3.2408786443070623e+00 7.4299820050648906e+00 1.6071937768098479e+01 
495 1 2 1.1578755247059056e+00 3.9817369180738531e+01 1.0000000000000000e+00 1.8581837318149179e+00 9.2256498785685928e+00 1.6261912809622604e+01 
203 1 2 1.1578755247059056e+00 2.0240071651384222e+00 1.0000000000000000e+00 4.4248627633522920e-02 2.0307637298108552e+00 1.7974467554594622e+01 
211 1 2 1.1578755247059056e+00 3.2894747763356207e+01 1.0000000000000000e+00 3.0946573959523676e+00 1.5302499813823598e+00 1.7355196044168078e+01 
86 1 2 1.1578755247059056e+00 -1.5425358333287352e+02 1.0000000000000000e+00 7.5115409355084817e-01 5.9567082941053453e+00 1.8017538821230485e+01 
150 1 2 1.1578758700758287e+00 4.3117510172464897e+01 1.0000000000000000e+00 2.0646316333231325e+00 8.1358148823238370e+00 1.8010939008901754e+01 
347 1 2 1.1578755247059056e+00 2.5044111266425901e+01 1.0000000000000000e+00 5.0047433210765320e+00 7.4747558424542095e+00 1.8344074313923837e+01 
152 1 2 1.1579055983115127e+00 3.0192762729915835e+01 1.0000000000000000e+00 5.5009488490172567e+00 1.5595265668793287e-01 1.9184434463850604e+01 
2 1 2 1.1578755247059056e+00 3.7267879388454446e+01 1.0000000000000000e+00 5.4274976991511652e+00 2.4515620353617131e+00 1.8936261691442066e+01 
467 1 2 1.1578755247059056e+00 -1.4464544262099395e+01 1.0000000000000000e+00 2.4868647648016426e+00 3.5781994296233472e+00 1.9787310047717018e+01 
429 1 2 1.1578755247059056e+00 2.9285340644669482e+01 1.0000000000000000e+00 3.2846779538461006e+00 6.3254125667104173e+00 1.9695328157915853e+01 
354 1 2 1.1578758700758287e+00 8.9759055655395201e+01 1.0000000000000000e+00 1.7298920657641119e+00 7.6288471230568220e+00 1.9891854993743802e+01 
422 1 2 1.1578755247059056e+00 4.3600464073071109e+01 1.0000000000000000e+00 7.7541585353436104e-01 1.0284010209334490e+01 4.6513624547355559e-01 
453 1 2 1.1578857734650689e+00 3.5339574146437400e+01 1.0000000000000000e+00 6.6540471642831145e+00 1.1121998465545042e+01 1.3464581068697348e+00 
443 1 2 1.1578858140826251e+00 3.3387099777984027e+01 1.0000000000000000e+00 4.8654397470177155e+00 1.1792911052378576e+01 9.8231301727420561e-01 
237 1 2 1.1578756141779554e+00 7.2486865078366201e+00 1.0000000000000000e+00 5.7952007661701597e+00 1.4051864519288568e+01 1.3396422248406477e+00 
293 1 2 1.1578755247059056e+00 4.1266823203992828e+01 1.0000000000000000e+00 1.9119969973944953e-01 1.7630801897322726e+01 4.0809300203403759e-01 
212 1 2 1.1578770426665732e+00 -8.6139239590713768e+00 1.0000000000000000e+00 5.8834488720111100e+00 1.8765824972545367e+01 6.3233920713709457e-01 
101 1 2 1.1578755247059056e+00 1.2518917417249988e+01 1.0000000000000000e+00 3.6710452842297627e+00 1.0113744292633074e+01 2.8115108631184822e+00 
487 1 2 1.1578755247059056e+00 -2.3980726432383657e+00 1.0000000000000000e+00 1.0793865175867783e+00 1.2843726814401096e+01 1.7086295003951677e+00 
317 1 2 1.1578755247010248e+00 1.4087727718924206e+01 1.0000000000000000e+00 2.9581052883657151e+00 1.1550151334392416e+01 1.5300030686529320e+00 
60 1 2 1.1578755247059056e+00 3.3742191430071173e+01 1.0000000000000000e+00 5.9089970267868708e-01 1.5135862233996367e+01 2.6619532048081722e+00 
371 1 2 1.1578755247059056e+00 4.1993030427920331e+01 1.0000000000000000e+00 2.5275558781270266e+00 1.4937599876993719e+01 1.6135827434049668e+00 
372 1 2 1.1578911601532906e+00 1.8821917207883065e+01 1.0000000000000000e+00 4.2353778039629013e+00 1.5367528984469011e+01 2.8148815919460910e+00 
149 1 2 1.1578755247059056e+00 4.5882539747443715e+01 1.0000000000000000e+00 5.0004805314191791e-01 1.7494013830202526e+01 2.5353269378956886e+00 
411 1 2 1.1578755247059056e+00 2.6408806938520300e+01 1.0000000000000000e+00 3.3214234379397767e+00 1.8270030968049678e+01 1.5069836053181114e+00 
41 1 2 1.1578757507241759e+00 3.4014957532838714e+01 1.0000000000000000e+00 5.2622882887584010e+00 1.8153270694160650e+01 2.7213765186074639e+00 
83 1 2 1.1578755247059056e+00 -5.4865840403622585e+01 1.0000000000000000e+00 3.0042418015748926e+00 1.3396405094049218e+01 3.9883750692121369e+00 
357 1 2 1.1578755466177246e+00 2.7379532011054813e+01 1.0000000000000000e+00 5.0659903674758242e+00 1.3662827974377130e+01 3.4124838418075321e+00 
408 1 2 1.1578911382414716e+00 5.5994462161620014e+01 1.0000000000000000e+00 5.8096692198637072e+00 1.6245831396043084e+01 3.5274092381985680e+00 
43 1 2 1.1578755247059056e+00 -3.2092276978608913e+02 1.0000000000000000e+00 2.7005589960326564e+00 1.1039283174484128e+01 5.0072018308095476e+00 
486 1 2 1.1578755247059056e+00 1.4396841019540172e+01 1.0000000000000000e+00 6.2425651359571050e+00 1.1358675227975450e+01 5.3938857335175143e+00 
236 1 2 1.1578755247059056e+00 6.4022470880312127e+01 1.0000000000000000e+00 5.9546696107122066e-01 1.4147175221473695e+01 5.4560178609457326e+00 
6 1 2 1.1578755247059056e+00 2.6844011626582237e+01 1.0000000000000000e+00 5.0041065758339913e+00 1.3049156313248849e+01 5.3490043219840473e+00 
72 1 2 1.1578755247059056e+00 -2.3607312146096852e+01 1.0000000000000000e+00 1.4533935076117510e+00 1.6094064116232552e+01 4.4629397570743174e+00 
402 1 2 1.1578755273563524e+00 5.4865807052246893e+01 1.0000000000000000e+00 4.0126839192099819e+00 1.6333018931912164e+01 4.8606452018839352e+00 
276 1 2 1.1578757533746225e+00 2.4710576872443827e+01 1.0000000000000000e+00 4.2664489119761120e+00 1.8261687636737491e+01 4.4279725430658941e+00 
54 1 2 1.1578778529000950e+00 3.1626211670970900e+01 1.0000000000000000e+00 2.0417845963923464e+00 1.9851248161754388e+01 5.6006175169747481e+00 
82 1 2 1.1578755247059056e+00 2.3333705516103493e+01 1.0000000000000000e+00 2.4890384082334367e+00 1.3215817904298772e+01 6.5153392295762114e+00 
155 1 2 1.1578755247059056e+00 -3.1422997889787325e+02 1.0000000000000000e+00 5.9569559292956908e-01 1.6340930843065141e+01 6.4492028069563814e+00 
207 1 2 1.1579035882293693e+00 3.0241112098827770e+01 1.0000000000000000e+00 6.3616045150622558e+00 1.8145546564062219e+01 7.1373930476809173e+00 
161 1 2 1.1578755247059056e+00 -4.5979092553148637e-01 1.0000000000000000e+00 2.5575875375294022e+00 1.0405098357301465e+01 7.4622106951530656e+00 
397 1 2 1.1578755247059056e+00 4.0662569127018337e+01 1.0000000000000000e+00 5.4486723158081221e+00 1.1365365297097146e+01 7.4283839467796922e+00 
382 1 2 1.1578755247059056e+00 2.7455018983111692e+01 1.0000000000000000e+00 3.3683264800791677e+00 1.5320820941331323e+01 7.6231409629474243e+00 
292 1 2 1.1578755247059056e+00 3.4052982727221575e+01 1.0000000000000000e+00 6.0487974030678577e+00 1.4656342442223460e+01 7.6400346052745292e+00 
222 1 2 1.1578755247059056e+00 3.9748866618241735e+01 1.0000000000000000e+00 2.1802291416430726e+00 1.7635189604713165e+01 7.2917005817035365e+00 
206 1 2 1.1578755247059056e+00 2.0697550602425252e+01 1.0000000000000000e+00 3.5292567311108418e+00 1.9272661064987417e+01 7.5243403178157351e+00 
266 1 2 1.1578859367207972e+00 2.4043182858406016e+01 1.0000000000000000e+00 2.1170005574955178e-01 1.1555896139395601e+01 8.8285320759431105e+00 
375 1 2 1.1578755247059056e+00 7.8168112169875332e+00 1.0000000000000000e+00 5.3521650655399995e+00 1.2909642546410023e+01 8.7103210662382349e+00 
328 1 2 1.1578755247059056e+00 3.8518425957718065e+01 1.0000000000000000e+00 1.6073775978605707e+00 1.4377703898768106e+01 8.8771979921285400e+00 
304 1 2 1.1578755247059056e+00 2.0463513856820253e+01 1.0000000000000000e+00 2.5745183155729441e+00 1.6498864159795016e+01 9.3682186370020641e+00 
466 1 2 1.1578755247059056e+00 4.1803593879362868e+00 1.0000000000000000e+00 4.5414523554638153e+00 1.6907975278259741e+01 8.8675061313554604e+00 
78 1 2 1.1578755247059056e+00 3.3230993417396263e+01 1.0000000000000000e+00 5.9966127073096831e-01 1.7144350773170306e+01 9.2021426192075921e+00 
437 1 2 1.1578755247059056e+00 2.1218827977444569e+01 1.0000000000000000e+00 2.0914141647916495e+00 1.8759347768669947e+01 9.2366941823376969e+00 
412 1 2 1.1578755247059056e+00 2.9558051574591126e+01 1.0000000000000000e+00 4.0725412170624162e+00 1.9042338178544021e+01 9.5727851675112525e+00 
34 1 2 1.1578755247059056e+00 6.0156971666613828e+01 1.0000000000000000e+00 3.9673103448407989e+00 1.1034574145175551e+01 1.0957540512509135e+01 
316 1 2 1.1578859367207972e+00 1.7509469509328337e+01 1.0000000000000000e+00 9.8652620654539180e-01 1.1536065044378498e+01 1.0611883301569096e+01 
407 1 2 1.1578755247059056e+00 2.2573085828697458e+01 1.0000000000000000e+00 3.8348651638944520e-01 1.3549652567405101e+01 1.0242953108922222e+01 
37 1 2 1.1578755247059056e+00 5.9962910002285426e+01 1.0000000000000000e+00 1.8579353950717890e+00 1.4755477507549292e+01 1.1221092716904106e+01 
170 1 2 1.1578755247059056e+00 6.9898224137563602e+01 1.0000000000000000e+00 5.0612355033838377e+00 1.4449706182994294e+01 1.1043162067094558e+01 
450 1 2 1.1578755247059056e+00 3.8801212597418072e+01 1.0000000000000000e+00 5.2524124845886782e+00 1.7657649489855704e+01 1.0790009359798811e+01 
20 1 2 1.1578782113638459e+00 3.6809393099211434e+01 1.0000000000000000e+00 3.0867634128971622e+00 1.2056328181006558e+01 1.2514947512394921e+01 
215 1 2 1.1578755247059056e+00 2.8926493674923503e+01 1.0000000000000000e+00 6.4050332398996206e+00 1.2720089467306885e+01 1.2223781456857013e+01 
370 1 2 1.1578808220789827e+00 4.3920729128713504e+01 1.0000000000000000e+00 6.5609845453720272e-01 1.8052500890291640e+01 1.2413771333985450e+01 
473 1 2 1.1578755247059056e+00 -8.4892750490191098e+00 1.0000000000000000e+00 4.4503440697830250e+00 1.0186653607677675e+01 1.2949673579749543e+01 
174 1 2 1.1578782113638459e+00 4.1843397813520653e+01 1.0000000000000000e+00 2.4515772294141223e+00 1.3310243192029452e+01 1.3881792857450195e+01 
434 1 2 1.1578764162275219e+00 4.6481388097513353e+01 1.0000000000000000e+00 1.4908561025396236e+00 1.6311773234073559e+01 1.4136096877416490e+01 
414 1 2 1.1578757280630447e+00 4.5074757170477731e+01 1.0000000000000000e+00 3.9690601658910309e+00 1.6605755307729066e+01 1.3902076776968103e+01 
446 1 2 1.1578757280630447e+00 -1.4306828890954478e+03 1.0000000000000000e+00 5.7948866968540855e+00 1.7300538459544896e+01 1.3583373017874125e+01 
9 1 2 1.1578755247059056e+00 3.0036409711095061e+01 1.0000000000000000e+00 4.2380738430923577e+00 1.8897798649381123e+01 1.4142639013503358e+01 
238 1 2 1.1578755247059056e+00 2.1488613087794167e+01 1.0000000000000000e+00 2.8552120149163933e+00 1.1370456858416064e+01 1.4694289763574611e+01 
494 1 2 1.1578755247059056e+00 2.6625162000251230e+01 1.0000000000000000e+00 9.2331510452427812e-01 1.1865649500662929e+01 1.4474048037674757e+01 
84 1 2 1.1578755247059056e+00 1.7748719440800592e+01 1.0000000000000000e+00 9.8623512552660095e-02 1.4280827066616062e+01 1.4832765989844741e+01 
16 1 2 1.1578755247059056e+00 2.7608222130659847e+01 1.0000000000000000e+00 4.1034875872427499e+00 1.4509903088403494e+01 1.4600980221310584e+01 
217 1 2 1.1578755247059056e+00 2.5988245117478954e+01 1.0000000000000000e+00 1.6297350604360556e+00 1.8014023910686930e+01 1.5499535808566396e+01 
470 1 2 1.1578755247059056e+00 5.7865093748465313e+01 1.0000000000000000e+00 5.9833889537186273e+00 1.8756682309016448e+01 1.5384799017963608e+01 
202 1 2 1.1578755247059056e+00 2.9957462254181635e+01 1.0000000000000000e+00 1.8224899029818656e-01 1.0512725665395863e+01 1.6392925335695676e+01 
490 1 2 1.1578755347314365e+00 8.0898498661724005e+01 1.0000000000000000e+00 4.7719714003919096e+00 1.4273466333827555e+01 1.6948676420685093e+01 
77 1 2 1.1578755347314365e+00 4.8339475980115814e+01 1.0000000000000000e+00 3.0758426766245432e+00 1.5277531400747261e+01 1.6672584296337490e+01 
496 1 2 1.1578755247059056e+00 8.6649304566747638e+00 1.0000000000000000e+00 3.8455539913448300e+00 1.7733162880787170e+01 1.5917317824069020e+01 
52 1 2 1.1578755247059056e+00 1.4869301572465904e+01 1.0000000000000000e+00 5.9971139831022660e+00 1.7493806329322474e+01 1.6982424742204635e+01 
424 1 2 1.1578755247059056e+00 4.4099472937443309e+01 1.0000000000000000e+00 1.5743844768959669e+00 1.9942727050325647e+01 1.6100252554564751e+01 
132 1 2 1.1578755247059056e+00 2.6064980116082552e+01 1.0000000000000000e+00 2.5670951524918491e+00 1.0016433480432722e+01 1.8491801149556757e+01 
210 1 2 1.1578755247059056e+00 2.5324191562396614e+01 1.0000000000000000e+00 5.9839907167595232e+00 1.0433770365005378e+01 1.7610838266843590e+01 
45 1 2 1.1578755247059056e+00 4.9824971993417762e+01 1.0000000000000000e+00 1.1690079530155404e+00 1.2250691421906195e+01 1.7588399324187172e+01 
440 1 2 1.1578755247059056e+00 -1.0094914889248954e+03 1.0000000000000000e+00 3.3730713769535869e+00 1.2558337687138824e+01 1.7628704641043928e+01 
462 1 2 1.1578755247059056e+00 4.2432883670983585e+01 1.0000000000000000e+00 1.4333852202224084e+00 1.6252045704719155e+01 1.7436903234093602e+01 
29 1 2 1.1578755247059056e+00 4.1997165441612282e+01 1.0000000000000000e+00 3.7887520530863608e+00 1.6955579465820417e+01 1.8427299486018651e+01 
319 1 2 1.1578755247059056e+00 2.6812498289999958e+01 1.0000000000000000e+00 4.5658234605602983e+00 1.9000945835821877e+01 1.7671836979986384e+01 
175 1 2 1.1578755653283426e+00 4.3523950075394033e+01 1.0000000000000000e+00 4.5797609405515196e+00 1.0786970302710500e+01 1.9293879357567498e+01 
169 1 2 1.1578755247059056e+00 3.9658050664621825e+01 1.0000000000000000e+00 2.2558848755397642e+00 1.3692387819540933e+01 1.9428717463058135e+01 
228 1 2 1.1578756141779554e+00 4.9235744474157613e+01 1.0000000000000000e+00 6.1929274713934737e+00 1.3705130746103723e+01 1.9427958220604424e+01 
417 1 2 1.1578755247059056e+00 -3.5814515981234990e+01 1.0000000000000000e+00 1.5406175021864696e+00 1.5612522034991127e+01 1.9380745791156251e+01 
302 1 2 1.1578866836312944e+00 -2.0163252610254901e+02 1.0000000000000000e+00 6.1610722322901781e+00 1.6646468343375620e+01 1.8993102367971030e+01 
387 1 2 1.1578755247059056e+00 2.7354434742579556e+01 1.0000000000000000e+00 1.9473237952769213e+00 1.8460011480747273e+01 1.9372660274362516e+01 
49 1 2 1.1579050672909001e+00 -7.1013566055770411e+01 1.0000000000000000e+00 6.4936908870881487e+00 1.8547597427326693e+01 1.8764701814275440e+01 
129 1 2 1.1578755247059056e+00 -6.4393116819977564e+01 1.0000000000000000e+00 7.9523367416858921e+00 1.2236197258842609e+00 2.8719251998048345e-01 
497 1 2 1.1578755247059056e+00 3.4409018779314792e+01 1.0000000000000000e+00 1.0388778568970858e+01 7.9420923176578284e-01 8.0523800571886939e-01 
191 1 2 1.1578755247059056e+00 -1.2088196182974269e+01 1.0000000000000000e+00 1.3082901022135047e+01 5.4818238206081489e+00 1.0083778235293552e+00 
143 1 2 1.1578755247059056e+00 3.3242437701187470e+01 1.0000000000000000e+00 9.1995042233770405e+00 6.1933250336917469e+00 1.1079300529506015e+00 
140 1 2 1.1578755247148420e+00 3.1050890675406265e+01 1.0000000000000000e+00 1.1384975615022942e+01 9.2749601035849167e+00 1.5591304098885950e-01 
383 1 2 1.1578755247059056e+00 3.6577928552067775e+01 1.0000000000000000e+00 8.7190890904694580e+00 3.5452426459789171e-01 2.1642215578304653e+00 
331 1 2 1.1578755247059056e+00 8.5257068580289328e+00 1.0000000000000000e+00 9.4201531383919708e+00 2.3502381323196917e+00 1.6355590003915503e+00 
441 1 2 1.1578755247059056e+00 -2.7426949125705812e+02 1.0000000000000000e+00 7.4700808104434939e+00 3.0654677066259821e+00 1.4358219389880251e+00 
26 1 2 1.1578755247059056e+00 5.2163270733122431e+01 1.0000000000000000e+00 1.2294741289338553e+01 3.5021982104030203e+00 1.7048849055174815e+00 
131 1 2 1.1578755247059056e+00 3.5558936633512943e+01 1.0000000000000000e+00 7.2652048942650262e+00 6.9452789470508502e+00 2.1011596847608929e+00 
46 1 2 1.1578755247059056e+00 4.9640117430176304e+01 1.0000000000000000e+00 1.1212428477631626e+01 7.2270973593396350e+00 2.5197632740692808e+00 
111 1 2 1.1578755247059056e+00 -3.6902115988291200e+02 1.0000000000000000e+00 1.0174424870006346e+01 9.8327038175973520e+00 2.5234425239947238e+00 
392 1 2 1.1578755247059056e+00 5.7900000079830207e+01 1.0000000000000000e+00 8.1814847509537056e+00 2.4159634437793085e+00 3.3292665890124797e+00 
104 1 2 1.1578755247059056e+00 -7.0444189456083365e+01 1.0000000000000000e+00 1.1587963781470613e+01 2.0464577624620661e+00 3.0173554181078694e+00 
282 1 2 1.1578755247059056e+00 3.6413416303612806e+01 1.0000000000000000e+00 1.0632868275932925e+01 3.9429911721914763e+00 3.8352377833784592e+00 
141 1 2 1.1578755247059056e+00 4.1111846879132202e+01 1.0000000000000000e+00 1.2968057209995187e+01 3.8427421813351632e+00 3.6994429139682610e+00 
11 1 2 1.1578755247059056e+00 3.3032915883748721e+01 1.0000000000000000e+00 7.4201051113702139e+00 5.5601048828684050e+00 4.1643597086637314e+00 
70 1 2 1.1578755247059056e+00 2.3297271177084195e+01 1.0000000000000000e+00 1.3071404033788477e+01 6.7924057975237568e+00 3.2191070040746808e+00 
189 1 2 1.1578755247059056e+00 3.4019134201245642e+01 1.0000000000000000e+00 9.0707721658080782e+00 7.2871383433117263e+00 2.9886743734985424e+00 
444 1 2 1.1578755247059056e+00 2.2495160676422557e+01 1.0000000000000000e+00 8.4738616770120103e+00 8.0617350571365842e-01 4.5473060505636740e+00 
476 1 2 1.1578905458521900e+00 4.2674509681733275e+00 1.0000000000000000e+00 1.2061649866779476e+01 2.1379595728015213e+00 5.2370744553648079e+00 
272 1 2 1.1578768120572926e+00 7.3917472743555237e+00 1.0000000000000000e+00 1.0218805403788597e+01 5.9551567159187968e+00 4.4404250777338001e+00 
199 1 2 1.1578768120572926e+00 2.8953815819518944e+01 1.0000000000000000e+00 1.1687100292251692e+01 6.6307660282287273e+00 5.5618772881387359e+00 
168 1 2 1.1578759826052554e+00 2.6137668267981145e+01 1.0000000000000000e+00 8.0227367769586468e+00 9.9712993198158557e+00 4.3587441856535492e+00 
61 1 2 1.1578755247059056e+00 4.0075288927543212e+01 1.0000000000000000e+00 1.0702222709775079e+01 8.6789752560581395e+00 4.6344258670038805e+00 
87 1 2 1.1578905458521900e+00 3.4967632961784410e+01 1.0000000000000000e+00 1.1298823904239773e+01 8.3084667290534886e-01 6.4493158402192856e+00 
426 1 2 1.1578755247059056e+00 -1.8610981366940848e+01 1.0000000000000000e+00 8.8493707325120763e+00 1.7164940833885027e+00 6.3022626513836926e+00 
286 1 2 1.1578755247059056e+00 1.7345556713410595e+01 1.0000000000000000e+00 1.1343255347904988e+01 4.3671850953856302e+00 6.0550811707060284e+00 
439 1 2 1.1578755648492858e+00 2.6336538299243614e+01 1.0000000000000000e+00 8.8163833738371125e+00 9.3514133621993345e+00 6.8995407317924080e+00 
256 1 2 1.1578780501736512e+00 -1.6111567554019146e+02 1.0000000000000000e+00 1.1865613381629549e+01 9.1799086514249978e-02 8.5598325182395989e+00 
181 1 2 1.1578755247059056e+00 -2.7125826776213039e+01 1.0000000000000000e+00 8.5123861096621436e+00 4.9011615628777081e+00 8.1480489359092889e+00 
471 1 2 1.1578755247059056e+00 4.4061048442777157e+01 1.0000000000000000e+00 1.2670521630660513e+01 4.7340157553247142e+00 7.7554051352769893e+00 
308 1 2 1.1578755247059056e+00 1.9510613358536116e+01 1.0000000000000000e+00 7.7481949837619091e+00 7.5794667851998820e+00 7.2578039021222818e+00 
159 1 2 1.1578755247059056e+00 4.4290480394977607e+01 1.0000000000000000e+00 1.2073743261382301e+01 8.6184534596464406e+00 7.4920007268228925e+00 
127 1 2 1.1578755247059056e+00 -4.5874389126932996e+01 1.0000000000000000e+00 1.0513763822941302e+01 9.8687365888780376e-01 9.8339183778874997e+00 
280 1 2 1.1578755247059056e+00 2.7463833498218975e+01 1.0000000000000000e+00 8.5312749097694951e+00 2.6210600031563902e+00 9.9545280816771431e+00 