LAMMPS data file via write_data, version 30 Jul 2016, timestep = 50000000

504 atoms
2 atom types

0.0000000000000000e+00 2.0000000000000000e+01 xlo xhi
0.0000000000000000e+00 2.0000000000000000e+01 ylo yhi
0.0000000000000000e+00 2.0000000000000000e+01 zlo zhi

Masses

1 3.89
2 4.3

Atoms # meso-molecular

401 1 2 1.1578755247059056e+00 3.6343912451466309e+01 1.0000000000000000e+00 3.2154854368373575e+00 1.4581693870910342e-02 1.1093074256406477e+00 
503 1 2 1.1578755247059056e+00 5.9910396693435615e+01 1.0000000000000000e+00 1.2870384526612553e+00 2.1447747978509457e+00 6.0815661246436126e-01 
133 1 2 1.1578755247059056e+00 3.1644819627286225e+01 1.0000000000000000e+00 3.3084713110402850e+00 7.4701444271623894e+00 1.2434996255214310e+00 
186 1 2 1.1578755247059056e+00 3.5698214442898877e+00 1.0000000000000000e+00 1.3408313305993669e+00 1.1195656602318698e+00 2.5099872705911150e+00 
465 1 2 1.1578768452553696e+00 1.8269273249013832e+01 1.0000000000000000e+00 1.9633896211905896e-01 3.1190064554238890e+00 2.1155973593069888e+00 
245 1 2 1.1578755247059056e+00 -8.3187781919050074e+00 1.0000000000000000e+00 2.1838806465173644e+00 3.8078125959071554e+00 1.5698584737415566e+00 
190 1 2 1.1578755247059056e+00 9.4316521270934608e+00 1.0000000000000000e+00 4.0259891957312934e+00 5.4067321261113950e+00 2.2487089590621760e+00 
429 1 2 1.1578755247059056e+00 2.9285203644571418e+01 1.0000000000000000e+00 9.1327957377364277e-01 6.4781009719001341e+00 2.0008218335061509e+00 
458 1 2 1.1578755247059056e+00 1.2381635153426981e+01 1.0000000000000000e+00 6.4830217735045856e+00 6.0229750335950856e+00 1.7781642901589056e+00 
360 1 2 1.1578755247059056e+00 3.5792305272957805e+01 1.0000000000000000e+00 3.8054697401395710e+00 3.6270402292050514e+00 3.2085879350907884e+00 
218 1 2 1.1578755247059056e+00 3.8479328528095891e+01 1.0000000000000000e+00 5.4275508048907293e+00 4.7322144323436826e+00 3.8133759620063179e+00 
348 1 2 1.1578755247059056e+00 5.9699384498808868e+01 1.0000000000000000e+00 2.2500383170122635e+00 7.5879823325668792e+00 3.2582148110534406e+00 
146 1 2 1.1578755247059056e+00 4.2010117198428375e+01 1.0000000000000000e+00 6.0884470589027355e+00 8.9344492959309267e+00 3.9410496784545064e+00 
158 1 2 1.1578755247059056e+00 4.0693819342519973e+01 1.0000000000000000e+00 6.0969207651508457e+00 5.9679563522709123e-01 5.0944324624949342e+00 
105 1 2 1.1578755247059056e+00 -5.3867218972967791e+01 1.0000000000000000e+00 1.4106710582615087e+00 2.2584422835986082e+00 4.5383461825521341e+00 
379 1 2 1.1578755247059056e+00 1.8547717046190613e+01 1.0000000000000000e+00 3.6113818336769183e+00 1.6681434929808612e+00 4.3535796336972066e+00 
259 1 2 1.1578755247059056e+00 2.9073120029023251e+01 1.0000000000000000e+00 3.4960745656997188e+00 3.7272297207568661e+00 5.2661255094714257e+00 
340 1 2 1.1578755247059056e+00 1.8555152284710509e+01 1.0000000000000000e+00 2.4287593055438972e+00 6.0939611673741769e+00 4.7077702551171834e+00 
224 1 2 1.1578755247059056e+00 3.8898380527943885e+01 1.0000000000000000e+00 8.2723426840994296e-01 7.9519278901090393e+00 5.6761360448889029e+00 
275 1 2 1.1578755247059056e+00 1.1084317264795665e+01 1.0000000000000000e+00 4.1932462872569447e+00 7.3263248831108365e+00 5.5297075569448904e+00 
486 1 2 1.1578755247059056e+00 1.4396786814570021e+01 1.0000000000000000e+00 4.7479060781397875e+00 9.9873175182459928e+00 5.1992775397030027e+00 
337 1 2 1.1578755247059056e+00 7.4525310185619077e+01 1.0000000000000000e+00 8.9790985698237169e-01 2.6860831876775439e-02 5.9738887155365559e+00 
67 1 2 1.1578841621667331e+00 3.0866252757059307e+01 1.0000000000000000e+00 2.8287254815328096e+00 2.4735312892493790e+00 6.9831536619270382e+00 
492 1 2 1.1578755247059056e+00 1.6302346101358580e+01 1.0000000000000000e+00 6.4048649076842850e+00 2.4817701180052318e+00 6.9256683996062138e+00 
117 1 2 1.1578755247059056e+00 -1.9933226161244011e+02 1.0000000000000000e+00 3.9432940917542858e-01 5.9444633686421673e+00 6.4511129808751102e+00 
44 1 2 1.1578755247059056e+00 -3.2224939052089042e+02 1.0000000000000000e+00 3.0341586674429593e+00 6.1666435691968022e+00 6.7442462430973471e+00 
96 1 2 1.1578755247059056e+00 -5.3087691332665031e+02 1.0000000000000000e+00 2.7247440055322607e+00 8.3560877334153787e+00 7.0634778523247688e+00 
437 1 2 1.1578755247059056e+00 2.1218580009159908e+01 1.0000000000000000e+00 1.8831865984926526e+00 1.5800464287813887e-02 8.5470237076525777e+00 
314 1 2 1.1578755247059056e+00 -2.0971385811635719e+02 1.0000000000000000e+00 3.3093824010297046e-01 1.6276694497315587e+00 8.4064571391147584e+00 
412 1 2 1.1578898003633895e+00 2.9566618038701836e+01 1.0000000000000000e+00 3.5872665595860078e+00 1.5864654613577240e+00 8.5415609236364283e+00 
126 1 2 1.1578755247059056e+00 2.2128289613106801e+01 1.0000000000000000e+00 2.1380503349160977e+00 4.3358899713675543e+00 7.2932897037864741e+00 
109 1 2 1.1578755275082782e+00 3.8016763581491119e+01 1.0000000000000000e+00 5.2804782874405385e+00 5.3480805287629352e+00 7.6230448982186596e+00 
18 1 2 1.1578755247059056e+00 3.2102962405607897e+01 1.0000000000000000e+00 2.4766452568994887e-01 7.6003906913890082e+00 7.8713593813605822e+00 
161 1 2 1.1578755247059056e+00 -4.5984949564400956e-01 1.0000000000000000e+00 4.6249199446021327e+00 9.3858254680900064e+00 8.1840977710806815e+00 
468 1 2 1.1578755247059056e+00 1.9222818646512316e+01 1.0000000000000000e+00 6.3973948841426020e+00 8.8971827268703425e+00 7.2077294664211031e+00 
420 1 2 1.1578811629025620e+00 3.2292669919981655e+01 1.0000000000000000e+00 2.0122048047881216e+00 1.8115752486649388e+00 9.6731688101817674e+00 
368 1 2 1.1578755247059056e+00 2.8440023265454862e+01 1.0000000000000000e+00 5.3677385151628929e+00 2.1984852354046711e+00 9.4691630802508602e+00 
254 1 2 1.1578755247059056e+00 2.1104207575892886e+01 1.0000000000000000e+00 3.6751461739748610e+00 6.2180810432339024e+00 8.7627126396226984e+00 
378 1 2 1.1578755247059056e+00 4.0796407919313566e+01 1.0000000000000000e+00 6.0049598743974419e+00 7.7556024989469599e+00 8.9404995077045708e+00 
415 1 2 1.1578763816574409e+00 3.2795665674127726e+01 1.0000000000000000e+00 2.1636814555875805e+00 8.7467574455917649e+00 9.7028571286338678e+00 
97 1 2 1.1578755247059056e+00 -4.1475073722087939e+02 1.0000000000000000e+00 6.3525328031630268e+00 9.6893557736074580e+00 9.8112316263041723e+00 
483 1 2 1.1578757604878775e+00 9.2681632439799806e+00 1.0000000000000000e+00 3.6544656995893940e+00 1.4239962461989819e+00 1.0854393693256627e+01 
346 1 2 1.1578755247059056e+00 3.2904617856745922e+01 1.0000000000000000e+00 6.2858530064259073e+00 2.0148632114180622e+00 1.1360715312991815e+01 
385 1 2 1.1578766100134426e+00 2.3443490875941421e+01 1.0000000000000000e+00 6.8463265714272403e-01 3.8572256684626889e+00 1.0574021493540013e+01 
399 1 2 1.1578755247059056e+00 4.6851554593607602e+01 1.0000000000000000e+00 3.9843730115570084e+00 3.6268161359149307e+00 1.0488980990251022e+01 
432 1 2 1.1578755247059056e+00 2.8104908152335177e+01 1.0000000000000000e+00 5.6450582151829787e+00 5.5046339573749163e+00 1.0562266390091818e+01 
183 1 2 1.1578897681525402e+00 -3.2562811876124357e+02 1.0000000000000000e+00 1.1428324929576057e+00 6.7599269876773036e+00 1.0694459332154816e+01 
233 1 2 1.1578755247059056e+00 -1.6026819133531266e+01 1.0000000000000000e+00 3.4778590928895974e+00 6.2680634065186611e+00 1.0951543309162385e+01 
227 1 2 1.1578763816574409e+00 -3.8636920846215207e+02 1.0000000000000000e+00 2.6656385700402794e+00 9.6678645912795282e+00 1.1370895634505096e+01 
91 1 2 1.1578757911117139e+00 -1.5185249984665774e+01 1.0000000000000000e+00 1.8466021208811279e+00 5.4156464728461917e-01 1.2810410281289673e+01 
449 1 2 1.1578760268936859e+00 -8.3727381375219852e+02 1.0000000000000000e+00 3.6545138406459232e+00 1.3433912839974735e+00 1.2831399378629747e+01 
160 1 2 1.1578757079517219e+00 3.8835607334134266e+01 1.0000000000000000e+00 3.7853613204491694e+00 3.9238866979274176e+00 1.2823720535709633e+01 
435 1 2 1.1578766100134426e+00 5.6124630498973019e+01 1.0000000000000000e+00 1.6371702994255208e+00 4.4060811057191591e+00 1.2207164808481581e+01 
409 1 2 1.1578897681525402e+00 3.4110817724836771e+01 1.0000000000000000e+00 3.0687841178141700e-01 5.9799217504077902e+00 1.2261643755483053e+01 
39 1 2 1.1578757079517219e+00 3.7353786259942126e+01 1.0000000000000000e+00 5.6828962813534298e+00 4.0979589927336777e+00 1.3361489142312989e+01 
69 1 2 1.1578755247059056e+00 4.5772655107793611e+01 1.0000000000000000e+00 3.3635328856335480e+00 8.6419456126942347e+00 1.3176740203494504e+01 
479 1 2 1.1578755247059056e+00 5.8768689880110330e+01 1.0000000000000000e+00 8.7922341028154738e-01 2.8376924789192657e+00 1.4333412688751427e+01 
211 1 2 1.1578755247059056e+00 3.2894622783805147e+01 1.0000000000000000e+00 3.6580106999067619e+00 1.4476285378583127e+00 1.4831294128839298e+01 
213 1 2 1.1578755247059056e+00 2.5659767447162174e+01 1.0000000000000000e+00 6.3000604867280101e+00 1.6969477544162015e+00 1.4429333900746318e+01 
307 1 2 1.1578763110700880e+00 3.5078431190794667e+01 1.0000000000000000e+00 3.4007276673401070e+00 3.4562579753708653e+00 1.5684881165645704e+01 
80 1 2 1.1578755247365287e+00 2.0855425548460687e+01 1.0000000000000000e+00 5.9034049605099641e+00 3.4502767358184885e+00 1.5483828270873119e+01 
406 1 2 1.1578778226527489e+00 5.2581497753362619e+01 1.0000000000000000e+00 3.8225825890281562e-01 5.1166363723240496e+00 1.5316768752142627e+01 
226 1 2 1.1578755247059056e+00 -3.8626602442475121e+02 1.0000000000000000e+00 3.9377971330861561e+00 5.1368318330277560e+00 1.4416204959712561e+01 
36 1 2 1.1578755247059056e+00 6.2864528803942207e+01 1.0000000000000000e+00 2.2107664334200048e+00 7.1029447793106728e+00 1.4802159530513325e+01 
343 1 2 1.1578755247059056e+00 3.8856207538193658e+01 1.0000000000000000e+00 4.3328042692866928e+00 7.1471374763697835e+00 1.4950571095009456e+01 
365 1 2 1.1578755247059056e+00 2.6032089966771956e+01 1.0000000000000000e+00 6.4900858275695219e+00 7.1712291039523812e+00 1.5536522030749003e+01 
473 1 2 1.1578755247059056e+00 -8.4893605565511834e+00 1.0000000000000000e+00 6.1577302718373312e+00 9.4589259598650397e+00 1.5145182346984605e+01 
93 1 2 1.1578755247059056e+00 9.7151587517820737e-01 1.0000000000000000e+00 1.2803260860259705e-01 9.4340933044313613e-01 1.6184932797351511e+01 
217 1 2 1.1578755247059056e+00 2.5988155241159149e+01 1.0000000000000000e+00 2.1394711383713689e+00 7.8232580671966145e-01 1.6329558640418270e+01 
24 1 2 1.1578758694913789e+00 3.4889246119951750e+01 1.0000000000000000e+00 5.9494951682792481e+00 6.3907571851685885e-01 1.6125053710007087e+01 
285 1 2 1.1578763111007109e+00 1.5381865737060426e+01 1.0000000000000000e+00 4.7464755822609277e+00 4.0197583453096435e+00 1.7010301924256265e+01 
305 1 2 1.1578755247059056e+00 3.4961238333132044e+01 1.0000000000000000e+00 3.4667130570653248e-01 7.1038202030285422e+00 1.6088947092411470e+01 
274 1 2 1.1578755247059056e+00 6.7462584594043619e+01 1.0000000000000000e+00 3.4321551630234080e+00 6.1601805924391622e+00 1.6897823810858398e+01 
347 1 2 1.1578755247059056e+00 2.5043991941668125e+01 1.0000000000000000e+00 5.1157168024722619e+00 8.1143760472501150e+00 1.6778170473951182e+01 
112 1 2 1.1578782240773211e+00 3.4052498412773410e+01 1.0000000000000000e+00 6.7347954358632045e-01 9.9835307357551208e+00 1.6816038620526111e+01 
495 1 2 1.1578764524000633e+00 3.9818129195465893e+01 1.0000000000000000e+00 2.1369652779129287e+00 9.0980748511085743e+00 1.5838872422929324e+01 
467 1 2 1.1578755247059056e+00 -1.4464584357466535e+01 1.0000000000000000e+00 3.0097082075598158e+00 2.1673121053604443e+00 1.7768704350302706e+01 
184 1 2 1.1578765236800397e+00 -1.5376369189157845e+02 1.0000000000000000e+00 5.5582066477441039e+00 1.6206736827576367e+00 1.8517384283037970e+01 
132 1 2 1.1578755247059056e+00 2.6064909720088977e+01 1.0000000000000000e+00 9.1209978555860205e-01 7.1140739202643593e+00 1.8048390070020403e+01 
7 1 2 1.1578755247059056e+00 2.7216868677858827e+01 1.0000000000000000e+00 5.9148866831829023e+00 6.2520732884888233e+00 1.7803665471710154e+01 
502 1 2 1.1578755247059056e+00 3.0218763944603467e+01 1.0000000000000000e+00 3.4366303710529293e+00 8.9259329806974073e+00 1.8417072296568097e+01 
198 1 2 1.1578755247059056e+00 2.8680781364070860e+01 1.0000000000000000e+00 9.1784483294167440e-02 3.5879906931764038e+00 1.8894438480199334e+01 
150 1 2 1.1578755247059056e+00 4.3117031854178649e+01 1.0000000000000000e+00 3.1976278537779637e+00 3.9227911874168182e+00 1.9574009398262330e+01 
166 1 2 1.1578755247059056e+00 -9.3347893118548675e-01 1.0000000000000000e+00 8.3861088722139543e-01 5.9157004761068004e+00 1.9656113503986070e+01 
263 1 2 1.1578755247059056e+00 6.9014223975938563e+01 1.0000000000000000e+00 4.0074937520711993e+00 7.2186796424859887e+00 1.9302971165560180e+01 
55 1 2 1.1578781464494308e+00 -4.9563722277952522e+01 1.0000000000000000e+00 6.3273183571162832e+00 8.1023445537176872e+00 1.9187169162577494e+01 
453 1 2 1.1578858140997648e+00 3.5339510928379845e+01 1.0000000000000000e+00 6.3888184341512622e+00 1.2032948474149693e+01 1.2428940048954440e+00 
372 1 2 1.1578891709215995e+00 1.8821412441996959e+01 1.0000000000000000e+00 3.3840959414103060e+00 1.4109865390075802e+01 3.7654931769282957e-01 
237 1 2 1.1578884568735128e+00 7.2559237120120672e+00 1.0000000000000000e+00 5.4784227436954964e+00 1.3486812788989132e+01 3.2684430485966021e-01 
371 1 2 1.1578755276332167e+00 4.1992946014580902e+01 1.0000000000000000e+00 9.6908908807464877e-01 1.5550674054863062e+01 8.2813488851007588e-01 
411 1 2 1.1578755247059056e+00 2.6408745926194712e+01 1.0000000000000000e+00 2.3069167824600467e+00 1.6998434387246231e+01 1.9912761282982555e-01 
29 1 2 1.1578755247059056e+00 4.1997085342974856e+01 1.0000000000000000e+00 5.0589383208638452e+00 1.6564183001189313e+01 3.7953820610632721e-01 
149 1 2 1.1578755247059056e+00 4.5882280373146230e+01 1.0000000000000000e+00 5.6282269581286748e-01 1.8306345224456120e+01 1.1076888403168939e+00 
317 1 2 1.1578755247059056e+00 1.4087549068804734e+01 1.0000000000000000e+00 2.8384992381134011e+00 1.0914024709133153e+01 1.8038015154687892e+00 
487 1 2 1.1578755247059056e+00 -2.3981485639317279e+00 1.0000000000000000e+00 2.4230975304939051e+00 1.2863128974672200e+01 2.6149558258910575e+00 
357 1 2 1.1578781674796537e+00 2.7381346387644875e+01 1.0000000000000000e+00 4.5166568261513129e+00 1.3402533835499327e+01 2.0334781127514847e+00 
72 1 2 1.1578755247059056e+00 -2.3607434662021738e+01 1.0000000000000000e+00 2.0467608924748171e+00 1.6567037857922529e+01 2.2910775249204276e+00 
212 1 2 1.1578755247059056e+00 -8.6155763961782945e+00 1.0000000000000000e+00 4.6875227670491926e+00 1.8092250034624861e+01 1.8913761689406610e+00 
153 1 2 1.1578755247059056e+00 3.4465436564311275e+01 1.0000000000000000e+00 2.2736780593517891e+00 1.0393175185387111e+01 3.9405319575076811e+00 
101 1 2 1.1578755247059056e+00 1.2518766655439858e+01 1.0000000000000000e+00 4.7714261103103945e+00 1.0317444016386476e+01 2.9619956027967573e+00 
83 1 2 1.1578755247059056e+00 -5.4865895502993979e+01 1.0000000000000000e+00 3.7489079970454102e+00 1.1945550175682881e+01 4.2508141528261314e+00 
443 1 2 1.1578755247059056e+00 3.3381120117755216e+01 1.0000000000000000e+00 5.9860929975861543e+00 1.2168036914878051e+01 3.5288046319697211e+00 
236 1 2 1.1578755247059056e+00 6.4022430401355777e+01 1.0000000000000000e+00 1.1828992786732611e+00 1.5205590855033890e+01 4.0217659056757400e+00 
298 1 2 1.1578755247059056e+00 4.1150319356588625e+01 1.0000000000000000e+00 5.7733213478083885e+00 1.4432824033428533e+01 4.1843361929474883e+00 
54 1 2 1.1578755247059056e+00 3.1624155570812846e+01 1.0000000000000000e+00 1.8368544453322569e-01 1.7529178046278933e+01 4.0313367446091357e+00 
294 1 2 1.1578761080637581e+00 3.2267776860335289e+01 1.0000000000000000e+00 5.3338604578934623e-01 1.9245301983038150e+01 3.0209732215513037e+00 
41 1 2 1.1578755247059056e+00 3.4014602170305935e+01 1.0000000000000000e+00 4.6695468358478225e+00 1.8737487962757317e+01 4.0112579626620581e+00 
6 1 2 1.1578755247059056e+00 2.6843896616161828e+01 1.0000000000000000e+00 5.2258530658423714e+00 1.2718694801231432e+01 5.5764353512499198e+00 
382 1 2 1.1578755247059056e+00 2.7454750329909317e+01 1.0000000000000000e+00 3.5704559542016723e+00 1.4418087698539736e+01 5.3592459555474763e+00 
402 1 2 1.1578755247059056e+00 5.4865607222522939e+01 1.0000000000000000e+00 3.1382785895193570e+00 1.6670478737382499e+01 5.4791122424216798e+00 
276 1 2 1.1578755247059056e+00 2.4710088085417006e+01 1.0000000000000000e+00 2.0605215596447573e+00 1.9154867011586877e+01 4.3378272157691953e+00 
114 1 2 1.1578757192963498e+00 3.4379050439698531e+01 1.0000000000000000e+00 9.3627989897012709e-01 1.0778565331991441e+01 6.4076154359250301e+00 
43 1 2 1.1578755247059056e+00 -3.2092280740312390e+02 1.0000000000000000e+00 2.9844468122709031e+00 1.0809457940062599e+01 5.7632155609789084e+00 
397 1 2 1.1578785627130379e+00 4.0664672387182151e+01 1.0000000000000000e+00 5.8106209219026823e+00 1.1109626957129800e+01 6.6206241599722961e+00 
222 1 2 1.1578755247059056e+00 3.9748514669612348e+01 1.0000000000000000e+00 6.1439439421373820e-01 1.6022809789439460e+01 6.1855847320440622e+00 
262 1 2 1.1578755247059056e+00 -7.8156986165159054e+01 1.0000000000000000e+00 4.8895816305269459e+00 1.6611080911618849e+01 6.6229947059768630e+00 
447 1 2 1.1578785627130379e+00 2.8969209112349002e+01 1.0000000000000000e+00 6.5405744770316971e+00 1.1344328574967657e+01 8.4236912687552081e+00 
34 1 2 1.1578755247059056e+00 6.0156913498779303e+01 1.0000000000000000e+00 4.0863773715692746e+00 1.1749232202368180e+01 8.1147041178006649e+00 
292 1 2 1.1578755247059056e+00 3.4052910652854933e+01 1.0000000000000000e+00 5.3951957440151208e+00 1.4038379557523012e+01 7.5183269086895566e+00 
328 1 2 1.1578755247059056e+00 3.8518195720687757e+01 1.0000000000000000e+00 1.7168403789308049e+00 1.4925362386378129e+01 7.5719787493890856e+00 
207 1 2 1.1578755247059056e+00 3.0228822477858934e+01 1.0000000000000000e+00 3.1252602239068907e+00 1.6952176133841334e+01 7.5057895609003165e+00 
165 1 2 1.1578755247059056e+00 6.9248364748942617e+00 1.0000000000000000e+00 1.2273404270650635e-01 1.9310537317547436e+01 7.8813206701660903e+00 
82 1 2 1.1578755247059056e+00 2.3333466238298016e+01 1.0000000000000000e+00 6.8439714519677633e-02 1.1662812089220107e+01 9.6035121808926647e+00 
304 1 2 1.1578778257034539e+00 2.0465295423432366e+01 1.0000000000000000e+00 3.2392188084698952e+00 1.3639739389356501e+01 9.7814598809994120e+00 
375 1 2 1.1578755247059056e+00 7.8168031023102174e+00 1.0000000000000000e+00 5.1895776961513995e+00 1.3081820673459505e+01 9.6746158032751861e+00 
155 1 2 1.1578755247059056e+00 -3.1423022154271212e+02 1.0000000000000000e+00 7.1292790387412863e-01 1.6401374186275987e+01 9.0929041693121313e+00 
450 1 2 1.1578755351822343e+00 3.8801148462407852e+01 1.0000000000000000e+00 3.4735424169182063e+00 1.5902958463106559e+01 9.5630201202740608e+00 
78 1 2 1.1578755247059056e+00 3.3230840065542594e+01 1.0000000000000000e+00 2.6139173553052819e+00 1.7887575852591130e+01 9.7303254693409311e+00 
466 1 2 1.1578755247059056e+00 4.1802361360860854e+00 1.0000000000000000e+00 5.3313852008047204e+00 1.7584325755314669e+01 8.6962087599785853e+00 
287 1 2 1.1578755247059056e+00 2.4086939373265587e+01 1.0000000000000000e+00 6.7303628269875937e-01 1.0010504160530443e+01 1.1080366923107615e+01 
491 1 2 1.1578755247059056e+00 3.6924622921470245e+01 1.0000000000000000e+00 4.3568348451537737e+00 1.0127584584625186e+01 1.0403922870589200e+01 
215 1 2 1.1578781761514734e+00 2.8928447014739181e+01 1.0000000000000000e+00 6.0304374254706863e+00 1.1201109209353882e+01 1.1328633705498248e+01 
316 1 2 1.1578778257034539e+00 1.7505324453366381e+01 1.0000000000000000e+00 2.2518923698646045e+00 1.2339515903193321e+01 1.0869680409880548e+01 
170 1 2 1.1578755583701479e+00 6.9898238308607318e+01 1.0000000000000000e+00 4.8324116305434375e+00 1.5271328698901252e+01 1.0872895821020020e+01 
407 1 2 1.1578755247059056e+00 2.2572879741293427e+01 1.0000000000000000e+00 1.7114974746525311e+00 1.6044863693932729e+01 1.0899731366737038e+01 
419 1 2 1.1578814138605795e+00 2.7360999726272777e+01 1.0000000000000000e+00 1.2352867763209612e+00 1.9026992359091359e+01 1.1111826912030891e+01 
433 1 2 1.1578755247059056e+00 3.6929199006196924e+01 1.0000000000000000e+00 5.0362503239959091e+00 1.9551294796507296e+01 1.0029023242561802e+01 
494 1 2 1.1578755247059056e+00 2.6625140807492130e+01 1.0000000000000000e+00 1.6208033002080509e+00 1.1190504741117888e+01 1.2612841593731268e+01 
258 1 2 1.1578755247059056e+00 -1.4556691796635103e+01 1.0000000000000000e+00 1.3537716400069775e+00 1.4381000191568761e+01 1.2369168238042549e+01 
446 1 2 1.1578755247059056e+00 -1.4306833893080168e+03 1.0000000000000000e+00 5.2238462511912758e+00 1.7310498473250341e+01 1.2748462074444443e+01 
37 1 2 1.1578755247059056e+00 5.9962746045404174e+01 1.0000000000000000e+00 3.7193903259926397e+00 1.8877714854303232e+01 1.2238655110796159e+01 
501 1 2 1.1578755247059056e+00 2.6578378946990320e+00 1.0000000000000000e+00 6.0661976642780475e+00 1.4710147560737706e+01 1.4220504797598929e+01 
145 1 2 1.1578760746807601e+00 2.9403321134650017e+01 1.0000000000000000e+00 5.5209447361033637e-01 1.5731900060826149e+01 1.4090634145919832e+01 
414 1 2 1.1578760746807601e+00 4.5074938216711793e+01 1.0000000000000000e+00 2.3695305526029533e+00 1.5920037161623293e+01 1.3344603653092655e+01 
9 1 2 1.1578755247059056e+00 3.0036349933425171e+01 1.0000000000000000e+00 2.4659419120089354e+00 1.7939996467683002e+01 1.3967863598454755e+01 
370 1 2 1.1578755247059056e+00 4.3917025186962675e+01 1.0000000000000000e+00 8.0961951854329961e-01 1.9308105645235322e+01 1.4031719949276621e+01 
8 1 2 1.1578755247059056e+00 2.3885318660983827e+01 1.0000000000000000e+00 5.7014924328062877e+00 1.9432699440636178e+01 1.3583889883900218e+01 
238 1 2 1.1578804907089728e+00 2.1491874352550500e+01 1.0000000000000000e+00 4.3912301987800610e+00 1.0336521756785466e+01 1.5562909525099219e+01 
45 1 2 1.1578755247059056e+00 4.9824949943009713e+01 1.0000000000000000e+00 1.1972822538408225e+00 1.1525326313902623e+01 1.4842910647018417e+01 
20 1 2 1.1578755247059056e+00 3.6807203914554350e+01 1.0000000000000000e+00 5.0200377949232520e+00 1.2317396759761445e+01 1.4438238548209281e+01 
56 1 2 1.1578755248971933e+00 3.2478099171581590e+01 1.0000000000000000e+00 1.0866338144261745e+00 1.7941594670933618e+01 1.5479056836061645e+01 
16 1 2 1.1578755247059056e+00 2.7608047996783171e+01 1.0000000000000000e+00 4.2273370362261113e+00 1.2520477365552262e+01 1.6275027224482496e+01 
84 1 2 1.1578843865310873e+00 1.7754449163471872e+01 1.0000000000000000e+00 1.5687509913055989e-01 1.3355600255344493e+01 1.6317637799407215e+01 
174 1 2 1.1578755247059056e+00 4.1841236877846953e+01 1.0000000000000000e+00 2.2854565728764769e+00 1.3603793521744988e+01 1.6371911000497136e+01 
462 1 2 1.1578755247059056e+00 4.2432627092491657e+01 1.0000000000000000e+00 3.6949793496386046e-01 1.6253747473769621e+01 1.6298292925053900e+01 
434 1 2 1.1578755247059056e+00 4.6480404385242153e+01 1.0000000000000000e+00 2.4646344491792882e+00 1.6014410300210372e+01 1.6113034656433573e+01 
470 1 2 1.1578755247059056e+00 5.7864961621377702e+01 1.0000000000000000e+00 5.9914176399183141e+00 1.6979075533020538e+01 1.6661811104883139e+01 
496 1 2 1.1578755248971933e+00 8.6648293817227575e+00 1.0000000000000000e+00 2.5496738624451911e+00 1.8617761826511796e+01 1.6656118105220013e+01 
175 1 2 1.1578804907089728e+00 4.3526999435237322e+01 1.0000000000000000e+00 4.4344683976454951e+00 1.0829002734797927e+01 1.7453284765442405e+01 
210 1 2 1.1578755247059056e+00 2.5324135977006634e+01 1.0000000000000000e+00 6.4318826024393596e+00 1.1195844864515552e+01 1.7826249946901349e+01 
169 1 2 1.1578792198931755e+00 3.9661098125088060e+01 1.0000000000000000e+00 1.1323144208543270e+00 1.1865171944268342e+01 1.7144420583916457e+01 
228 1 2 1.1578755247059056e+00 4.9235246552138690e+01 1.0000000000000000e+00 5.9170107715406841e+00 1.3223062589139495e+01 1.8136506080472216e+01 
490 1 2 1.1578755247065016e+00 8.0898404469267675e+01 1.0000000000000000e+00 5.0001629334062008e+00 1.5907061701839467e+01 1.8479597067290875e+01 
424 1 2 1.1578755247059056e+00 4.4099397375776334e+01 1.0000000000000000e+00 1.1847185263587350e-01 1.9464230681057483e+01 1.8252059984608984e+01 
319 1 2 1.1578755247059056e+00 2.6812389956019850e+01 1.0000000000000000e+00 3.4978919318154325e+00 1.9708089679751271e+01 1.8209840026512992e+01 
354 1 2 1.1578755247059056e+00 8.9758258814624241e+01 1.0000000000000000e+00 2.0793117455058456e+00 1.0700387098282199e+01 1.9057169938192672e+01 
440 1 2 1.1578884461612080e+00 -1.0094849976047739e+03 1.0000000000000000e+00 3.4391455196204817e+00 1.2536751378901879e+01 1.9240394171980011e+01 
77 1 2 1.1578762494662971e+00 4.8340108040460834e+01 1.0000000000000000e+00 2.3552967887573324e+00 1.4266461832220587e+01 1.8701951709788016e+01 
63 1 2 1.1578755276332167e+00 4.1665571499547617e+01 1.0000000000000000e+00 2.5823688863833399e-01 1.4728136625693741e+01 1.9157904505874139e+01 
417 1 2 1.1578755247059056e+00 -3.5814653606290634e+01 1.0000000000000000e+00 1.9962262510372972e-01 1.6826944578678130e+01 1.8824127793628158e+01 
387 1 2 1.1578755247059056e+00 2.7354305316942046e+01 1.0000000000000000e+00 1.7273466832076745e+00 1.9098379636758644e+01 1.9443148702876165e+01 
49 1 2 1.1578755247059056e+00 -7.1029067253499704e+01 1.0000000000000000e+00 5.3370600061267668e+00 1.8722611522796871e+01 1.9794619488619681e+01 
129 1 2 1.1578755247059056e+00 -6.4393257536374790e+01 1.0000000000000000e+00 9.0455392078156205e+00 2.6971280579487639e-01 3.6577042045094849e-02 
331 1 2 1.1578755266739176e+00 8.5256173583171062e+00 1.0000000000000000e+00 9.7049581803824250e+00 2.7919345888017300e+00 1.1239111366829169e+00 
191 1 2 1.1578786427348184e+00 -1.2085931117352191e+01 1.0000000000000000e+00 1.2671241112963841e+01 6.5095448102603894e+00 1.0602888513160134e+00 
75 1 2 1.1578755247059056e+00 -5.1148916644415735e+01 1.0000000000000000e+00 9.0354919320241063e+00 8.3932635931384905e+00 4.1389378639551533e-01 
472 1 2 1.1578755247059056e+00 3.6786948289497161e+01 1.0000000000000000e+00 8.1781400645917657e+00 8.0427694348955769e-01 1.9868430642799746e+00 
441 1 2 1.1578755247059056e+00 -2.7426974085659003e+02 1.0000000000000000e+00 6.7126447309471766e+00 2.3548241729233470e+00 1.8994279201339173e+00 
104 1 2 1.1578755247059056e+00 -7.0444353574580362e+01 1.0000000000000000e+00 1.1627962999025900e+01 3.0538427357562310e+00 1.9479104327080192e+00 
141 1 2 1.1578755317512470e+00 4.1111490700933864e+01 1.0000000000000000e+00 1.1119363004472204e+01 5.2215138742803058e+00 2.2578467074229125e+00 
143 1 2 1.1578755247059056e+00 3.3242307840640009e+01 1.0000000000000000e+00 8.5189907358307906e+00 5.7411139231027351e+00 2.7994939160201309e+00 
140 1 2 1.1578755247059056e+00 3.1050753429435936e+01 1.0000000000000000e+00 1.2108022738683507e+01 8.3581372220971559e+00 1.8914122117707941e+00 
131 1 2 1.1578755247059056e+00 3.5558853707438189e+01 1.0000000000000000e+00 6.9006086328609362e+00 9.5771164804113020e+00 1.9654675441006724e+00 
111 1 2 1.1578755247059056e+00 -3.6902130552731887e+02 1.0000000000000000e+00 8.8518677492557494e+00 9.5785501930847818e+00 2.4792335106103764e+00 
392 1 2 1.1578755247059056e+00 5.7899973531521866e+01 1.0000000000000000e+00 7.7144207551590185e+00 1.8900737882725229e+00 4.0121529976746793e+00 
33 1 2 1.1578755247059056e+00 5.2895896893584933e+01 1.0000000000000000e+00 1.3206000754903119e+01 4.3269022529658994e+00 3.3683725607414856e+00 
70 1 2 1.1578786497801601e+00 2.3299402029752233e+01 1.0000000000000000e+00 1.2307248946110775e+01 6.6469024337035458e+00 2.9803266704098714e+00 
189 1 2 1.1578781005803191e+00 3.4021441125547668e+01 1.0000000000000000e+00 8.5958618092472854e+00 7.8134504643819813e+00 4.2201278378784375e+00 
46 1 2 1.1578766715434612e+00 4.9641121333458202e+01 1.0000000000000000e+00 1.0471913022411872e+01 7.4274100378197003e+00 3.7670673557149619e+00 
61 1 2 1.1578755247059056e+00 4.0075138815338647e+01 1.0000000000000000e+00 1.1085686212419999e+01 9.5809622227981954e+00 3.9718248458148762e+00 
323 1 2 1.1578755247059056e+00 4.3280189793939627e+01 1.0000000000000000e+00 1.1137828227187409e+01 3.0569153313692110e-01 5.2485150870988839e+00 
476 1 2 1.1578755247059056e+00 4.2595043597592372e+00 1.0000000000000000e+00 1.1873102690919705e+01 2.4710096223375286e+00 5.3615393037761825e+00 
282 1 2 1.1578755247059056e+00 3.6413310157694397e+01 1.0000000000000000e+00 7.7101367971075865e+00 4.4165931711011481e+00 4.8990923865747593e+00 
11 1 2 1.1578769537427633e+00 3.3034026715261867e+01 1.0000000000000000e+00 7.1085174629957857e+00 6.5311976286182878e+00 4.3222181267298359e+00 
40 1 2 1.1578755247059056e+00 7.4342776314210653e+01 1.0000000000000000e+00 8.5480978349311432e+00 1.0558252816660985e+00 5.9550141579865361e+00 
426 1 2 1.1578755247059056e+00 -1.8611031845047080e+01 1.0000000000000000e+00 8.7352981662868618e+00 3.2401947208265667e+00 6.8466682144125057e+00 
173 1 2 1.1578755275082782e+00 6.4149005735786247e+01 1.0000000000000000e+00 6.8115910429332196e+00 6.3723459839489740e+00 6.8621573373962157e+00 
272 1 2 1.1578755247059056e+00 7.3904644008740430e+00 1.0000000000000000e+00 8.7588252160844799e+00 6.1297453344009796e+00 6.0189743230433272e+00 
87 1 2 1.1578755247738939e+00 3.4959968948827871e+01 1.0000000000000000e+00 9.9233847235155235e+00 5.1183828423666244e-01 7.3687459033521323e+00 
269 1 2 1.1578755247059056e+00 2.9542178797380281e+01 1.0000000000000000e+00 1.1911413294195333e+01 1.3871431798369089e+00 8.0453986658160179e+00 
286 1 2 1.1578755247059056e+00 1.7345432683634279e+01 1.0000000000000000e+00 1.0981802282988600e+01 3.3993938184781003e+00 7.3064470463317219e+00 
159 1 2 1.1578755247059056e+00 4.4290441337188824e+01 1.0000000000000000e+00 1.1704725271745447e+01 9.4987171460429121e+00 7.9326163759147050e+00 