LAMMPS data file via write_data, version 30 Jul 2016, timestep = 50400000

644 atoms
2 atom types

0.0000000000000000e+00 2.0000000000000000e+01 xlo xhi
0.0000000000000000e+00 2.0000000000000000e+01 ylo yhi
0.0000000000000000e+00 2.0000000000000000e+01 zlo zhi

Masses

1 4.31
2 3.896

Atoms # meso-molecular

69 0 1 1.0279999999986709e+00 -5.1992586593840127e+00 1.0000000000000000e+00 1.5013346388867943e-01 3.2586464787412961e+00 1.4458437580920784e+00 
68 0 1 1.0279999999993628e+00 1.2910958192814233e+00 1.0000000000000000e+00 2.1201096210315937e-01 5.7309591100252477e-01 6.4351872914273064e-02 
147 0 1 1.0279999999986940e+00 -2.4282899249597922e+00 1.0000000000000000e+00 2.4576276223716684e-01 3.7105145650480589e+00 2.0250165950189869e+00 
491 0 1 1.0279999999997698e+00 -9.9480706952585862e+00 1.0000000000000000e+00 6.3166921517047498e+00 5.2375367355594982e+00 2.5486734861601876e+00 
484 0 1 1.0279999999999312e+00 -1.8634178288162637e+01 1.0000000000000000e+00 6.2175932145075485e+00 3.7798172436168596e+00 2.8029704675687070e+00 
568 0 1 1.0279999999994796e+00 -3.3138659128627722e+01 1.0000000000000000e+00 6.3839132728809016e+00 5.1533909399902296e+00 3.4413509833032481e+00 
216 0 1 1.0279999999999432e+00 2.0278500919642950e-01 1.0000000000000000e+00 1.0572965099922056e+00 1.6344386957610617e+01 9.3233502805848545e-01 
217 0 1 1.0280000000001064e+00 -1.2770419135921294e+01 1.0000000000000000e+00 1.4704659339288331e+00 1.6006034698635279e+01 6.9174922354463675e-01 
210 0 1 1.0279999999998188e+00 -5.8572015327377192e-01 1.0000000000000000e+00 8.8164258684510621e-01 1.4668838328964107e+01 5.8710087677643386e-01 
203 0 1 1.0279999999996592e+00 -1.0476777835540325e+01 1.0000000000000000e+00 2.8497459854670132e-01 1.4042133163838916e+01 6.0731324637183060e-01 
140 0 1 1.0280000000001770e+00 -1.7969687648828838e+01 1.0000000000000000e+00 1.6551194603893287e+00 1.6409614138412362e+01 2.1343341714873415e-01 
63 0 1 1.0280000000000635e+00 -1.2526047024080405e+01 1.0000000000000000e+00 1.4208558303518792e+00 1.6733293600180275e+01 3.1754936530628448e-02 
56 0 1 1.0279999999999412e+00 -2.9052429544542786e+01 1.0000000000000000e+00 1.4143517536155688e+00 1.5386376487828709e+01 1.8906795882207472e+01 
139 0 1 1.0279999999997964e+00 -6.6064697661925500e+00 1.0000000000000000e+00 1.7734479584555607e+00 1.6204064986683377e+01 1.9613754322882947e+01 
133 0 1 1.0279999999999618e+00 -8.6043670043853737e+00 1.0000000000000000e+00 1.3315577120570181e+00 1.5073620767077983e+01 1.8957283354107261e+01 
55 0 1 1.0279999999999456e+00 -1.2201793264345255e+01 1.0000000000000000e+00 6.9485377737577747e-01 1.5667239698714999e+01 1.8310242692328991e+01 
126 0 1 1.0279999999999343e+00 -1.9479293748901519e+01 1.0000000000000000e+00 1.4316061330693708e-01 1.4118433952937279e+01 1.8261793088412880e+01 
146 0 1 1.0280000000030114e+00 2.2379809330355891e+00 1.0000000000000000e+00 1.8711213760639914e-01 1.9832705161137138e+01 1.9959884367813132e+01 
62 0 1 1.0279999999999179e+00 -7.7178601439634846e+00 1.0000000000000000e+00 9.8055126338975962e-01 1.6808126088934269e+01 1.9315356167148725e+01 
416 0 1 1.0279999999925857e+00 1.2684733754969653e+01 1.0000000000000000e+00 9.9428468133073533e+00 1.1890850389177157e+00 3.2497800170050648e+00 
591 0 1 1.0279999999971343e+00 1.3044145956105723e+01 1.0000000000000000e+00 9.5592105526207760e+00 1.6904384564695696e+00 2.6794151721832544e+00 
408 0 1 1.0280000000033356e+00 3.5469546492272794e+00 1.0000000000000000e+00 7.6001064028554115e+00 2.7270879111094555e+00 2.2294380503196303e+00 
590 0 1 1.0280000000012439e+00 7.4764460371425461e+00 1.0000000000000000e+00 8.9113451871571421e+00 8.8539805312606801e-01 1.2995430496060889e+00 
415 0 1 1.0280000000022684e+00 9.7216454721079852e+00 1.0000000000000000e+00 8.5290551259320395e+00 2.0108869926064732e-01 1.2521512706921951e+00 
505 0 1 1.0280000000020404e+00 5.8528520954172585e+00 1.0000000000000000e+00 8.9072361123747541e+00 2.5538872148292907e-01 1.0923040462665565e+00 
477 0 1 1.0280000000002301e+00 -7.2162874841833338e+00 1.0000000000000000e+00 7.3027556961379343e+00 5.7080292137751876e-01 2.2364021205093829e+00 
554 0 1 1.0279999999996698e+00 -1.6144101019676974e+01 1.0000000000000000e+00 7.1161582999354973e+00 4.8664676663020229e-01 2.7081348482183460e+00 
638 0 1 1.0280000000015908e+00 -2.9765212487226201e+01 1.0000000000000000e+00 7.1044390515187450e+00 2.2065010115032386e+00 3.1916697717030269e+00 
561 0 1 1.0279999999987157e+00 -9.4160278437811868e+00 1.0000000000000000e+00 6.6726769833982438e+00 2.9445509298001094e+00 2.9458022819833989e+00 
515 0 1 1.0279999999909517e+00 1.7564669109999016e+01 1.0000000000000000e+00 1.0174291761398905e+01 9.7408642298341419e-01 2.9658505569606994e+00 
541 0 1 1.0279999999306868e+00 4.2722991470000613e+00 1.0000000000000000e+00 1.1178373708935634e+01 2.1021784853784791e+00 2.2690875692119010e+00 
242 0 1 1.0280000035486716e+00 1.8541966895904174e+01 1.0000000000000000e+00 1.3086869088272987e+01 2.5658267554194301e+00 2.7951313009697452e+00 
312 0 1 1.0279999962455546e+00 2.2125186633099389e+01 1.0000000000000000e+00 1.3030647458850854e+01 2.4698983991674206e+00 2.7607578117019793e+00 
542 0 1 1.0280000003481695e+00 1.3515213286301726e+01 1.0000000000000000e+00 1.1763237162343250e+01 2.0316376264505376e+00 2.5689537748469711e+00 
463 0 1 1.0279999999809704e+00 -1.8679072075858694e-01 1.0000000000000000e+00 1.1029026008698370e+01 1.6777653750798662e+00 1.2105510384412428e+00 
540 0 1 1.0279999999923770e+00 -4.0070458727883365e+00 1.0000000000000000e+00 1.0745590707470573e+01 9.3139282605121099e-01 7.1229257827853376e-01 
254 0 1 1.0280000000728438e+00 1.3307748742663030e+01 1.0000000000000000e+00 1.2271291149424520e+01 2.1306415994535288e+00 4.3493511455333839e-01 
584 0 1 1.0280000000008245e+00 5.6668515043098706e+00 1.0000000000000000e+00 8.7720498233317592e+00 5.0595112340242885e+00 3.1961369366370387e+00 
506 0 1 1.0279999999994305e+00 9.2108741045126585e+00 1.0000000000000000e+00 8.4296337786892490e+00 4.2722613047131119e+00 1.5918545896264702e+00 
583 0 1 1.0280000000000755e+00 -6.0331556843660161e+00 1.0000000000000000e+00 7.6061640087345879e+00 5.1794878088857939e+00 1.6125520484213787e+00 
582 0 1 1.0279999999998561e+00 -1.9662276482616711e+01 1.0000000000000000e+00 7.7259116260185792e+00 4.1181736386322099e+00 1.4306346425653951e+00 
498 0 1 1.0279999999999094e+00 -1.4769507107469220e+01 1.0000000000000000e+00 7.2739744452350550e+00 4.6709430944858550e+00 1.4158853420317477e+00 
499 0 1 1.0280000000000955e+00 -5.0092581804800815e+00 1.0000000000000000e+00 7.0903741841984198e+00 5.7279461106906480e+00 2.3399133779575831e+00 
407 0 1 1.0280000000001321e+00 -1.1063482108811066e+01 1.0000000000000000e+00 7.0773362850222608e+00 3.3489783694566921e+00 1.8588997013410207e+00 
575 0 1 1.0280000000000566e+00 -1.5552197671421279e+01 1.0000000000000000e+00 6.9511176826480368e+00 5.7871651853182628e+00 2.8191607795387630e+00 
246 0 1 1.0280000000010592e+00 -1.5524056870829059e-01 1.0000000000000000e+00 1.0366233253022768e+01 4.5331065313862418e+00 1.1834972281130944e+00 
247 0 1 1.0279999999984928e+00 9.7996678321241895e+00 1.0000000000000000e+00 1.0384928247333562e+01 4.4000873686036348e+00 1.0370470467807689e+00 
393 0 1 1.0280000000061149e+00 2.3649582368331208e+00 1.0000000000000000e+00 1.0717730574577233e+01 4.5061653425839001e+00 1.5144960326944479e+00 
394 0 1 1.0280000000062679e+00 1.2528449458035507e+01 1.0000000000000000e+00 1.0728557656059650e+01 4.4933657181870919e+00 1.5169992534238270e+00 
172 0 1 1.0279999998866935e+00 1.7023172792134424e+01 1.0000000000000000e+00 1.2901848809206811e+01 5.0754894643401718e+00 2.6390536698380145e+00 
318 0 1 1.0279999999464984e+00 1.6099123353770896e+01 1.0000000000000000e+00 1.1344717027270592e+01 3.5023049185594641e+00 1.8783628665231320e+00 
255 0 1 1.0280000000424170e+00 1.9697603237053990e+01 1.0000000000000000e+00 1.1999010073722253e+01 5.7097859162266751e+00 1.6286555380890344e+00 
263 0 1 1.0279999999875360e+00 2.0290446749419417e+01 1.0000000000000000e+00 1.3300989758688472e+01 3.5117281495799690e+00 1.3871332041697786e+00 
437 0 1 1.0279999999847516e+00 1.1134058108736415e+01 1.0000000000000000e+00 1.2679699370703840e+01 6.0602250478609685e+00 2.8359192106018316e-01 
625 0 1 1.0279999999982818e+00 -2.1848303980776658e+00 1.0000000000000000e+00 9.7407784797619712e+00 8.8791214175865409e+00 2.9363906663005297e+00 
470 0 1 1.0279999999978156e+00 7.2160392722422939e+00 1.0000000000000000e+00 9.7699871890705605e+00 9.8348125933098327e+00 2.8669205767837820e+00 
547 0 1 1.0280000000032754e+00 2.8137310239192388e+00 1.0000000000000000e+00 9.8225525843484345e+00 8.4907392023920192e+00 2.7219644686994884e+00 
620 0 1 1.0279999999984040e+00 8.1891902025110888e+00 1.0000000000000000e+00 1.0115447743174682e+01 9.2668084892788372e+00 3.3239070096204966e+00 
624 0 1 1.0280000000020433e+00 -1.4368189492358869e+01 1.0000000000000000e+00 1.0196744082641356e+01 7.9972578409294748e+00 2.5746177193891957e+00 
611 0 1 1.0280000000037202e+00 3.0644282375743281e+00 1.0000000000000000e+00 1.3086401962861935e+01 9.5754841899745244e+00 5.0586274575041512e-01 
466 0 1 1.0280000000022107e+00 1.8398536945949914e+01 1.0000000000000000e+00 1.0352120606296621e+01 7.9607580692363555e+00 3.0988183110360659e+00 
395 0 1 1.0280000000025677e+00 1.6658075925537133e+01 1.0000000000000000e+00 1.0357360303253577e+01 8.1566356772891897e+00 2.0333856234790049e+00 
347 0 1 1.0280000000115377e+00 2.5524116371246670e+01 1.0000000000000000e+00 1.3094824800426720e+01 8.6908645147851047e+00 2.5641123712917806e+00 
430 0 1 1.0280000000025551e+00 2.2805715485301526e+01 1.0000000000000000e+00 1.2383478198198148e+01 9.9507226727526259e+00 2.2183931203775469e+00 
346 0 1 1.0279999999838827e+00 2.0111640090085078e+01 1.0000000000000000e+00 1.1802529641011500e+01 7.4636393979217157e+00 1.3709485424589247e+00 
248 0 1 1.0279999999925065e+00 1.7653492855994340e+01 1.0000000000000000e+00 1.1194762416925681e+01 6.7253499119337583e+00 1.0406626287731524e+00 
533 0 1 1.0280000000060494e+00 4.1934944524713824e+00 1.0000000000000000e+00 1.3102109934588402e+01 8.6947349849533175e+00 3.0661799775908266e-01 
429 0 1 1.0280000000009246e+00 1.2215505106243121e+01 1.0000000000000000e+00 1.1224601260004990e+01 7.3221865472045637e+00 2.1578990134069795e-01 
610 0 1 1.0280000000046070e+00 -1.6434432813925334e+01 1.0000000000000000e+00 1.2731861380667516e+01 8.7864916966113267e+00 1.3351507457378595e-01 
526 0 1 1.0279999999946867e+00 -1.0673751278365643e+01 1.0000000000000000e+00 1.1716969532550921e+01 9.6295994969439374e+00 8.3552493622152280e-02 
555 0 1 1.0280000000003742e+00 -5.3639783016006666e+00 1.0000000000000000e+00 7.1199984088503863e+00 5.3012552483521480e-01 3.4069228074543001e+00 
639 0 1 1.0280000000020890e+00 -1.3872039033608495e+01 1.0000000000000000e+00 7.4558334974122777e+00 1.3182512587750390e+00 3.9921324256490376e+00 
409 0 1 1.0280000000032905e+00 4.8832035623819952e+00 1.0000000000000000e+00 8.3170589787029900e+00 2.4753929512336890e+00 4.5478277528627196e+00 
562 0 1 1.0279999999983516e+00 9.0101083547488621e+00 1.0000000000000000e+00 8.5034569040520633e+00 3.4549018141555710e-01 5.1510821280819563e+00 
570 0 1 1.0280000000025238e+00 2.7873328951086833e+00 1.0000000000000000e+00 8.8924290727340392e+00 2.0667655878199600e+00 5.7109644170647336e+00 
486 0 1 1.0279999999972216e+00 1.4232049263297903e+01 1.0000000000000000e+00 8.9344302661002466e+00 1.9554213538185808e-01 5.7904348429398445e+00 
577 0 1 1.0280000000006886e+00 1.2692130596241162e+00 1.0000000000000000e+00 9.6021559142857349e+00 2.4273246367574202e+00 6.1773086612375456e+00 
493 0 1 1.0279999999971066e+00 1.4220615179230315e+01 1.0000000000000000e+00 9.3721282397752042e+00 4.2657392302474845e-01 6.4227708436568713e+00 
410 0 1 1.0279999999973346e+00 8.0595158833718532e+00 1.0000000000000000e+00 9.4145178796658300e+00 6.7114726898627408e-01 6.5126815787072614e+00 
508 0 1 1.0280000000049938e+00 4.6601755988573492e+00 1.0000000000000000e+00 1.0006938620502956e+01 3.2261737802989536e+00 5.2968842400633509e+00 
501 0 1 1.0280000000013785e+00 4.4269599382772604e+00 1.0000000000000000e+00 1.0032191604832766e+01 2.4241932195850042e+00 6.3510048236682248e+00 
592 0 1 1.0279999999747174e+00 4.7559100891977426e+00 1.0000000000000000e+00 1.0188529624088467e+01 3.0955505120742877e+00 4.2126063548655264e+00 
615 0 1 1.0280000000143690e+00 6.7502916148223200e+00 1.0000000000000000e+00 1.3290747474473545e+01 1.0352005850929171e+00 4.2574241709269867e+00 
516 0 1 1.0280000000005813e+00 1.3338669620481520e+01 1.0000000000000000e+00 1.1122244135546621e+01 1.4429676708514834e+00 4.5398958431997087e+00 
417 0 1 1.0279999999941309e+00 9.3218929795598111e+00 1.0000000000000000e+00 1.0786315051160729e+01 3.3398368327407868e-01 6.6416821649386257e+00 
616 0 1 1.0279999999886897e+00 -1.9512794736465167e+00 1.0000000000000000e+00 1.2648957167817759e+01 2.6578241484975620e+00 4.9975629790833960e+00 
425 0 1 1.0280000000051674e+00 1.6699765278952562e+01 1.0000000000000000e+00 1.1310567684807715e+01 7.9083133396641270e-01 5.1810543520302934e+00 
509 0 1 1.0280000000040099e+00 5.3219402470525949e+00 1.0000000000000000e+00 1.1511335775663907e+01 1.4786678573926819e+00 6.6348699097108543e+00 
593 0 1 1.0280000000032490e+00 5.3669910765343074e+00 1.0000000000000000e+00 1.1531364607525266e+01 2.1588811665883356e+00 6.2306827721348110e+00 
517 0 1 1.0279999999961760e+00 8.1131030584964865e+00 1.0000000000000000e+00 1.2825482410896541e+01 8.0451534710380546e-01 6.0555379851069340e+00 
518 0 1 1.0279999999870228e+00 3.0924654387263777e+00 1.0000000000000000e+00 1.3226402392885948e+01 1.4663918567828313e-01 6.2774011587861880e+00 
507 0 1 1.0279999999996072e+00 9.4567799613511188e+00 1.0000000000000000e+00 9.1305111624024775e+00 4.3045217229873485e+00 3.5695671388323449e+00 
576 0 1 1.0279999999997589e+00 -5.6005235511238709e+00 1.0000000000000000e+00 7.8871185424916064e+00 5.3210212807451702e+00 4.0016709377678117e+00 
500 0 1 1.0280000000005487e+00 3.4086903531626085e+00 1.0000000000000000e+00 8.5832691209995193e+00 4.6727912738587136e+00 4.1730784877068405e+00 
492 0 1 1.0280000000014129e+00 5.3231283915966667e+00 1.0000000000000000e+00 8.1179075424374219e+00 4.0156437567017873e+00 4.6134695222444071e+00 
585 0 1 1.0280000000059506e+00 -1.9796950366324789e-01 1.0000000000000000e+00 9.6652794418842927e+00 3.3701346140011710e+00 4.9388788696988062e+00 
569 0 1 1.0279999999997358e+00 -1.5811572091430005e+01 1.0000000000000000e+00 7.0531326918551294e+00 4.9393959495546289e+00 4.1867634422682807e+00 
485 0 1 1.0279999999994149e+00 -6.0771603390277651e+00 1.0000000000000000e+00 6.7790223956219933e+00 3.8678588561827407e+00 4.0452345811035668e+00 
389 0 1 1.0280000000119056e+00 1.9910806997432559e+01 1.0000000000000000e+00 1.2036243121189671e+01 5.2808670350726761e+00 3.8162791257389341e+00 
390 0 1 1.0280000000082961e+00 1.4640128686653949e+01 1.0000000000000000e+00 1.2216024986228039e+01 6.2509875720672445e+00 4.4782867915152078e+00 
538 0 1 1.0280000000009584e+00 5.7062038722960509e+00 1.0000000000000000e+00 1.2043998756291415e+01 4.4341921038807515e+00 4.5281702587399320e+00 
313 0 1 1.0280000000104903e+00 1.4035854406679581e+01 1.0000000000000000e+00 1.2366423421881274e+01 6.2000093801985026e+00 4.6283824977862862e+00 
539 0 1 1.0279999999926221e+00 -8.9368708955579610e+00 1.0000000000000000e+00 1.2079187591750463e+01 4.0417846737771228e+00 4.7116517528070121e+00 
462 0 1 1.0280000000025753e+00 -4.0663527594506839e+00 1.0000000000000000e+00 1.2162601749606743e+01 4.4156525615764473e+00 4.6976585151951245e+00 
319 0 1 1.0279999999940916e+00 2.0832704473467437e+01 1.0000000000000000e+00 1.1522018564716848e+01 7.1336659085521692e+00 3.4543870404183652e+00 
173 0 1 1.0279999999993759e+00 1.2292126724541284e+01 1.0000000000000000e+00 1.2620147885445832e+01 8.7094265649060425e+00 4.1628859830431688e+00 
243 0 1 1.0279999999964791e+00 1.3595579230130044e+01 1.0000000000000000e+00 1.2255205257781153e+01 7.9022782727467966e+00 4.5539292987277955e+00 
238 0 1 1.0279999999967950e+00 4.8599200442086863e+00 1.0000000000000000e+00 1.3140077785544658e+01 7.3200439568353080e+00 5.0845776704736627e+00 
166 0 1 1.0279999999972333e+00 1.6489626646442701e+01 1.0000000000000000e+00 1.1962239802553368e+01 8.2335804963500099e+00 4.0113007420021383e+00 
586 0 1 1.0280000000028353e+00 1.6368442851208493e+00 1.0000000000000000e+00 1.1157702403633486e+01 1.5757288419578988e+00 6.7063218444532460e+00 
594 0 1 1.0280000000078087e+00 -5.3372674571873731e+00 1.0000000000000000e+00 1.3290842453277042e+01 4.0244156349894439e-01 6.9561137680164080e+00 
488 0 1 1.0279999999995839e+00 1.8043858925670865e+01 1.0000000000000000e+00 1.3245474801573172e+01 9.1542618234200557e+00 1.3243014966271947e+01 
476 0 1 1.0279999999987894e+00 -6.1212327890145879e+00 1.0000000000000000e+00 1.2582228527251367e+01 3.2722850853125678e+00 1.3785635638841338e+01 
107 0 1 1.0280000000001075e+00 1.3450877876556412e+01 1.0000000000000000e+00 1.0405959239460788e+01 3.1336534949993049e+00 1.5634117346140989e+01 
553 0 1 1.0280000000006175e+00 -1.2060156301096050e+01 1.0000000000000000e+00 1.2666972001507098e+01 2.2016464451953239e+00 1.4233483243896119e+01 
635 0 1 1.0280000000005616e+00 3.9009342476371112e+00 1.0000000000000000e+00 1.2276069304240156e+01 2.2239438182009210e+00 1.4249591169048600e+01 
552 0 1 1.0280000000005423e+00 3.0349373531331941e-01 1.0000000000000000e+00 1.2637064508464883e+01 2.1510596562234929e+00 1.4303575955421604e+01 
483 0 1 1.0280000000024023e+00 6.4121070083111205e+00 1.0000000000000000e+00 1.2901847337345563e+01 1.9139596198849012e+00 1.4851348722612979e+01 
117 0 1 1.0280000000007810e+00 8.9004519729319256e+00 1.0000000000000000e+00 1.3030635317181723e+01 5.4414076908471931e-01 1.6250760566113023e+01 
32 0 1 1.0279999999990510e+00 4.4423323514910784e+00 1.0000000000000000e+00 1.2484048556085197e+01 2.4040531117242872e-01 1.6324609082913632e+01 
190 0 1 1.0279999999993767e+00 -7.4804308591467272e+00 1.0000000000000000e+00 9.9787506553829033e+00 4.0993030544978692e+00 1.5265757740299490e+01 
275 0 1 1.0279999999999001e+00 -4.4692905691528617e-01 1.0000000000000000e+00 1.0033789759229339e+01 3.7270968115117844e+00 1.6260685720696170e+01 
274 0 1 1.0280000000026377e+00 -1.1567490237881966e+01 1.0000000000000000e+00 1.0064089136072788e+01 3.6380213715115612e+00 1.6371316747808628e+01 
191 0 1 1.0280000000001084e+00 2.9395837123183228e+00 1.0000000000000000e+00 1.0147472388460802e+01 3.3855688439290783e+00 1.5797285284069918e+01 
31 0 1 1.0279999999993485e+00 1.0534767850394594e+01 1.0000000000000000e+00 1.0241722019302363e+01 4.2853449012925529e+00 1.4693796029441845e+01 
630 0 1 1.0279999999993437e+00 -3.3373939745041508e+00 1.0000000000000000e+00 1.2250914045993502e+01 3.4806353197603115e+00 1.3758018344467766e+01 
558 0 1 1.0279999999996106e+00 1.2733046286647586e+01 1.0000000000000000e+00 1.1733202123925803e+01 3.7721710492485250e+00 1.3824678224224600e+01 
642 0 1 1.0280000000006997e+00 5.4192380477207243e+00 1.0000000000000000e+00 1.1327551115904061e+01 4.0075103545403454e+00 1.3950049164521221e+01 
106 0 1 1.0279999999994354e+00 2.6891469727169275e+00 1.0000000000000000e+00 1.0576534541966423e+01 5.3271068035784426e+00 1.4829765192896403e+01 
198 0 1 1.0279999999996199e+00 7.4839901934688893e+00 1.0000000000000000e+00 1.0870511469470030e+01 5.8673079695323951e+00 1.4912459778846729e+01 
282 0 1 1.0280000000003002e+00 3.7124214206849642e+00 1.0000000000000000e+00 1.0879198327528242e+01 6.4787032385582561e+00 1.5386913334403022e+01 
39 0 1 1.0280000000025926e+00 3.8110041592111630e+00 1.0000000000000000e+00 1.2546868732285336e+01 5.0836174348428127e+00 1.4831141977277564e+01 
199 0 1 1.0279999999995109e+00 8.0067472305162184e+00 1.0000000000000000e+00 1.1826874697906014e+01 4.0889885240377515e+00 1.6389803625688156e+01 
475 0 1 1.0280000000000209e+00 1.3263305100462201e+01 1.0000000000000000e+00 1.3027780415102566e+01 7.2773183042726570e+00 1.4052928076777423e+01 
206 0 1 1.0280000000000167e+00 1.1106542680010152e+01 1.0000000000000000e+00 1.2466136575548664e+01 9.3092511250364307e+00 1.4314524523166661e+01 
116 0 1 1.0280000000001459e+00 1.0857905651112080e+01 1.0000000000000000e+00 1.2061225087215579e+01 6.6804687139099901e+00 1.4380537207870038e+01 
212 0 1 1.0279999999999410e+00 5.1973193081840803e+00 1.0000000000000000e+00 1.2739306228195600e+01 9.5383608918418030e+00 1.4798506197144786e+01 
281 0 1 1.0280000000001208e+00 1.2676546911275879e+00 1.0000000000000000e+00 1.1061789069975593e+01 6.8602677174426416e+00 1.5182582693543008e+01 
289 0 1 1.0279999999995655e+00 4.2565835051042539e-01 1.0000000000000000e+00 1.1809312293199380e+01 8.0518813989419904e+00 1.5468302735967708e+01 
288 0 1 1.0279999999998612e+00 -1.1000058836654912e+01 1.0000000000000000e+00 1.1738987494575490e+01 7.9843323823329246e+00 1.5540927425518531e+01 
276 0 1 1.0280000000003786e+00 4.5343639217310177e+00 1.0000000000000000e+00 1.1834588015086831e+01 1.7648581752288754e+00 1.7187612496273729e+01 
283 0 1 1.0280000000113489e+00 8.4217536783747580e+00 1.0000000000000000e+00 1.3256246834644992e+01 2.4784706137923047e+00 1.7356618746801907e+01 
351 0 1 1.0280000000026603e+00 -1.1666716183036719e+01 1.0000000000000000e+00 1.0533438996363587e+01 2.9864055143544199e+00 1.8308543729430927e+01 
352 0 1 1.0280000000021354e+00 -4.4199663572606107e-01 1.0000000000000000e+00 1.0542072888680423e+01 3.0704128720879775e+00 1.8402103509315413e+01 
267 0 1 1.0279999999974279e+00 1.3414905640387000e+00 1.0000000000000000e+00 1.1356450782059312e+01 1.8587688144429111e+00 1.7626147040189483e+01 
367 0 1 1.0280000000156742e+00 6.5337075075372963e+00 1.0000000000000000e+00 1.3305399154155701e+01 3.1457483322463466e+00 1.7666251989272364e+01 
344 0 1 1.0279999999950451e+00 6.6189397373804715e+00 1.0000000000000000e+00 1.0831227077692427e+01 2.8351345672689874e+00 1.8975100963172892e+01 
253 0 1 1.0279999999885074e+00 1.0555234834448088e+01 1.0000000000000000e+00 1.1198165753772923e+01 1.6673953178553385e+00 1.9175563342599176e+01 
316 0 1 1.0279999999968676e+00 5.4432672676110609e+00 1.0000000000000000e+00 1.1453246820041349e+01 8.6513415837483354e-01 1.9728428828712456e+01 
353 0 1 1.0279999999794691e+00 9.4534249376769957e+00 1.0000000000000000e+00 1.2929791875565920e+01 2.2394095111301642e+00 1.9200061604383485e+01 
345 0 1 1.0279999999977916e+00 1.1660887774161518e+01 1.0000000000000000e+00 1.0364112962403494e+01 5.3070978936460778e+00 1.9737468996430852e+01 
358 0 1 1.0280000000007872e+00 -2.6969138260247965e+00 1.0000000000000000e+00 1.0447260176772183e+01 3.9617461567223615e+00 1.7809855019935519e+01 
428 0 1 1.0280000000003349e+00 7.0331330773876521e+00 1.0000000000000000e+00 1.0593937991672073e+01 6.1684852204841594e+00 1.9596378839446050e+01 
435 0 1 1.0280000000041416e+00 -9.2974087286362490e+00 1.0000000000000000e+00 1.0654043174627921e+01 5.5824723396369107e+00 1.9119201495803818e+01 
436 0 1 1.0279999999908775e+00 -2.4893257736735283e-01 1.0000000000000000e+00 1.0828313652039693e+01 4.9289842600620775e+00 1.8942870265071978e+01 
359 0 1 1.0280000000010232e+00 5.8874434173635048e-01 1.0000000000000000e+00 1.1769324277994832e+01 4.1018642937630005e+00 1.8391085374053070e+01 
442 0 1 1.0280000000007179e+00 -8.3189456782767568e-01 1.0000000000000000e+00 1.1233762099123936e+01 7.1233496173997057e+00 1.8137553951595120e+01 
295 0 1 1.0279999999995175e+00 6.3214034544335140e+00 1.0000000000000000e+00 1.2805360848978300e+01 7.0529495666446298e+00 1.7047314094931647e+01 
365 0 1 1.0279999999983591e+00 -1.2890557777140796e+01 1.0000000000000000e+00 1.1151976958595348e+01 6.9492831924136000e+00 1.6713847236428808e+01 
449 0 1 1.0280000000022074e+00 -7.5981597675302304e+00 1.0000000000000000e+00 1.2264021141209422e+01 7.7540327971411607e+00 1.8987088224073329e+01 
450 0 1 1.0280000000008649e+00 2.3571282933847928e+00 1.0000000000000000e+00 1.2424532413067315e+01 7.4594618938060302e+00 1.8406744954921123e+01 
366 0 1 1.0279999999963352e+00 -1.8802239443579332e+00 1.0000000000000000e+00 1.1149701494434312e+01 6.8225126227447088e+00 1.6819727578046948e+01 
372 0 1 1.0279999999993550e+00 2.0036731304161663e+00 1.0000000000000000e+00 1.2568545814660244e+01 7.2625310810500041e+00 1.7201602209077777e+01 
443 0 1 1.0280000000013756e+00 3.0224605140094845e+00 1.0000000000000000e+00 1.1110305260543104e+01 7.1308040231980057e+00 1.8837563433139529e+01 
400 0 1 1.0280000000007670e+00 4.8050749337585019e+00 1.0000000000000000e+00 9.6096689656579652e+00 1.0655510145093276e+01 2.3267225778828236e+00 
323 0 1 1.0280000000002445e+00 -5.1784036259170705e+00 1.0000000000000000e+00 9.4370329331120555e+00 1.1861632648061805e+01 2.1389927450697126e+00 
330 0 1 1.0279999999999820e+00 5.9000635039076474e+00 1.0000000000000000e+00 9.7031159684345489e+00 1.2463496213388648e+01 1.5230005814547327e+00 
338 0 1 1.0280000000001834e+00 9.6178066625533400e+00 1.0000000000000000e+00 1.0096453822595780e+01 1.0728216980961141e+01 7.1117602002576741e-01 
543 0 1 1.0279999999978200e+00 8.4933812752862998e+00 1.0000000000000000e+00 1.0125657254921096e+01 1.0730449460259862e+01 3.1903006185948022e+00 
337 0 1 1.0280000000002787e+00 1.0656852734085358e+00 1.0000000000000000e+00 1.0305283840016932e+01 1.0212283155581051e+01 7.6058480599578926e-01 
256 0 1 1.0280000000006950e+00 2.4983514383654274e+01 1.0000000000000000e+00 1.2340693614379770e+01 1.1779167438707168e+01 3.0428237094028221e+00 
249 0 1 1.0280000000032699e+00 2.0483451872238756e+01 1.0000000000000000e+00 1.2042879445955476e+01 1.2393845933769963e+01 2.9530315166767340e+00 
339 0 1 1.0280000000002305e+00 1.8116470934694668e+01 1.0000000000000000e+00 1.1825892198636804e+01 1.1148184013311338e+01 2.8684786584733724e+00 
528 0 1 1.0279999999973892e+00 2.1096073735840761e+01 1.0000000000000000e+00 1.3173639747272851e+01 1.0941595906415261e+01 2.0162503227144040e+00 
604 0 1 1.0279999999989751e+00 8.3252861569716963e+00 1.0000000000000000e+00 1.1309317812632797e+01 1.2180338587580215e+01 8.7784904823248311e-01 
512 0 1 1.0280000000003100e+00 -8.5131415003110735e+00 1.0000000000000000e+00 1.0537324411336602e+01 1.2327602443316879e+01 8.1253667744973312e-01 
596 0 1 1.0280000000005804e+00 -1.8070119577356735e+01 1.0000000000000000e+00 1.0655263995307749e+01 1.2225903761856202e+01 7.1799244860476863e-01 
519 0 1 1.0280000000004372e+00 2.5650721796064282e+00 1.0000000000000000e+00 1.1098854127950622e+01 1.0383031012292461e+01 1.0393094412108440e-01 
603 0 1 1.0280000000006293e+00 -4.5442920406770355e+00 1.0000000000000000e+00 1.1357952850261430e+01 1.0966990581745913e+01 7.4099663986814557e-02 
527 0 1 1.0280000000007081e+00 4.5734177136568253e+00 1.0000000000000000e+00 1.1656793157883989e+01 1.0298402903654278e+01 5.3270658123480884e-02 
402 0 1 1.0279999999996927e+00 1.0110225742293823e+01 1.0000000000000000e+00 9.4752929517902125e+00 1.6185054632868841e+01 3.2299589570346345e+00 
401 0 1 1.0280000000006750e+00 9.6510388539020440e+00 1.0000000000000000e+00 9.2468975379883513e+00 1.4957868866247885e+01 2.8668208882442987e+00 
324 0 1 1.0279999999989322e+00 4.6532730975522281e+00 1.0000000000000000e+00 9.4737722034207330e+00 1.3368901090952592e+01 2.3032067803762408e+00 
331 0 1 1.0279999999999205e+00 1.1193446130235207e+01 1.0000000000000000e+00 9.4106777632533234e+00 1.5406500645451308e+01 1.9227285132377232e+00 
421 0 1 1.0279999999994829e+00 -3.9278808662124615e-01 1.0000000000000000e+00 9.9244883428998971e+00 1.6304205742815679e+01 1.3969731773154515e+00 
422 0 1 1.0279999999992244e+00 9.0648357708765506e+00 1.0000000000000000e+00 1.0181704304350621e+01 1.3741732952953985e+01 1.5605446111432331e+00 
597 0 1 1.0279999999994724e+00 -2.4581284597380948e-01 1.0000000000000000e+00 1.0531323808845602e+01 1.5057644821363558e+01 1.2462626493253408e+00 
340 0 1 1.0280000000012040e+00 2.2391300595461608e+01 1.0000000000000000e+00 1.1735737534812332e+01 1.4951136658845229e+01 2.6724746543879276e+00 
431 0 1 1.0280000000006766e+00 2.5309428629242049e+01 1.0000000000000000e+00 1.2123685490362405e+01 1.5617994751052731e+01 2.6417552082787155e+00 
521 0 1 1.0279999999999814e+00 2.2603820795842061e+01 1.0000000000000000e+00 1.2072362425603833e+01 1.5364445395692249e+01 2.2012178925853050e+00 
598 0 1 1.0279999999998692e+00 1.4932323081728352e+01 1.0000000000000000e+00 1.1327724469296765e+01 1.5746837926728432e+01 1.3841257249016383e+00 
520 0 1 1.0280000000004499e+00 1.3083291575941606e+01 1.0000000000000000e+00 1.1018175997343288e+01 1.4952289050627298e+01 1.3504857027273991e+00 
478 0 1 1.0279999999939677e+00 1.0958652955889580e+01 1.0000000000000000e+00 8.4273964957616521e+00 1.9301960597646083e+01 2.8828794227354835e+00 
325 0 1 1.0279999999958436e+00 1.2160414197786508e+01 1.0000000000000000e+00 9.4900918907935932e+00 1.6749141261579013e+01 2.4742337580711928e+00 
589 0 1 1.0280000000018374e+00 4.7892209459702206e-01 1.0000000000000000e+00 9.5884783896587713e+00 1.8944400963478177e+01 1.4515417523023255e+00 
631 0 1 1.0280000000010228e+00 -1.2123924848642883e+01 1.0000000000000000e+00 7.4404679877713980e+00 1.9853657151467619e+01 3.1045452093130290e+00 
414 0 1 1.0280000000020513e+00 9.7277482268656641e+00 1.0000000000000000e+00 8.8489782452340027e+00 1.9893881954357656e+01 1.1533447754459938e+00 
513 0 1 1.0280000000004870e+00 7.6914815574555675e+00 1.0000000000000000e+00 1.0129820174235434e+01 1.7035954049851657e+01 1.5147651899811063e+00 
514 0 1 1.0280000000088074e+00 1.7207033463721274e+01 1.0000000000000000e+00 1.0269454010806388e+01 1.9072529462084887e+01 1.2427943671594464e+00 
423 0 1 1.0280000000005762e+00 1.6946464115987293e+01 1.0000000000000000e+00 1.0380584914435200e+01 1.7895214790324111e+01 1.7587519776329723e+00 
424 0 1 1.0280000000031422e+00 2.0134759677233045e+01 1.0000000000000000e+00 1.0580862213090414e+01 1.9276645601728635e+01 2.3428621234161366e+00 