LAMMPS data file via write_data, version 30 Jul 2016, timestep = 50000000

644 atoms
2 atom types

0.0000000000000000e+00 2.0000000000000000e+01 xlo xhi
0.0000000000000000e+00 2.0000000000000000e+01 ylo yhi
0.0000000000000000e+00 2.0000000000000000e+01 zlo zhi

Masses

1 4.31
2 3.896

Atoms # meso-molecular

117 0 1 1.0279999999990415e+00 8.9004519729319256e+00 1.0000000000000000e+00 5.1336179155781876e+00 8.5659081504272272e-01 3.2960840052329159e+00 
483 0 1 1.0280000000014131e+00 6.4121070083111205e+00 1.0000000000000000e+00 5.0048299352977761e+00 2.2264096659282075e+00 1.8966721612888988e+00 
565 0 1 1.0280000000000469e+00 1.2295013994918738e+01 1.0000000000000000e+00 5.5850228414984402e+00 2.6379405736812078e+00 1.7029944754308401e+00 
552 0 1 1.0280000000008609e+00 3.0349373531331941e-01 1.0000000000000000e+00 4.7400471065862204e+00 2.4635097021714385e+00 1.3488993940761826e+00 
635 0 1 1.0279999999998111e+00 3.9009342476371112e+00 1.0000000000000000e+00 4.3790519025120256e+00 2.5363938641099235e+00 1.2949146076988576e+00 
553 0 1 1.0280000000004452e+00 -1.2060156301096050e+01 1.0000000000000000e+00 4.7699545997228494e+00 2.5140964911296790e+00 1.2788066825543876e+00 
275 0 1 1.0280000000011207e+00 -4.4692905691528617e-01 1.0000000000000000e+00 2.1367723575292996e+00 4.0395468573583972e+00 3.3060091593321288e+00 
191 0 1 1.0280000000008134e+00 2.9395837123183228e+00 1.0000000000000000e+00 2.2504549867438963e+00 3.6980188898186239e+00 2.8426087227201751e+00 
107 0 1 1.0279999999998473e+00 1.3450877876556412e+01 1.0000000000000000e+00 2.5089418377241124e+00 3.4461035409013099e+00 2.6794407847912458e+00 
190 0 1 1.0279999999996230e+00 -7.4804308591467272e+00 1.0000000000000000e+00 2.0817332535555102e+00 4.4117531003879860e+00 2.3110811789497472e+00 
198 0 1 1.0280000000006173e+00 7.4839901934688893e+00 1.0000000000000000e+00 2.9734940674509955e+00 6.1797580154574563e+00 1.9577832173542833e+00 
106 0 1 1.0280000000003788e+00 2.6891469727169275e+00 1.0000000000000000e+00 2.6795171399877602e+00 5.6395568494947561e+00 1.8750886314883060e+00 
31 0 1 1.0279999999997722e+00 1.0534767850394594e+01 1.0000000000000000e+00 2.3447046174452812e+00 4.5977949472176141e+00 1.7391194680909947e+00 
642 0 1 1.0279999999998002e+00 5.4192380477207243e+00 1.0000000000000000e+00 3.4305337140940493e+00 4.3199604004654066e+00 9.9537260315944565e-01 
558 0 1 1.0279999999999219e+00 1.2733046286647586e+01 1.0000000000000000e+00 3.8361847221461045e+00 4.0846210951564190e+00 8.7000166286299374e-01 
413 0 1 1.0280000000001608e+00 1.0275879684456850e+01 1.0000000000000000e+00 6.3959431283138324e+00 5.9081530222793557e+00 2.0792934586848562e+00 
504 0 1 1.0280000000000837e+00 7.1403652964371549e+00 1.0000000000000000e+00 6.3565880324416000e+00 6.0058888257194232e+00 2.0686734563659437e+00 
47 0 1 1.0280000000004359e+00 5.0175435384484652e+00 1.0000000000000000e+00 6.3943811869776113e+00 5.7792057974756617e+00 2.0383700580572759e+00 
39 0 1 1.0279999999980427e+00 3.8110041592111630e+00 1.0000000000000000e+00 4.6498513302823481e+00 5.3960674807678739e+00 1.8764654158830600e+00 
476 0 1 1.0279999999997733e+00 -6.1212327890145879e+00 1.0000000000000000e+00 4.6852111255761759e+00 3.5847351311813287e+00 8.3095907748320075e-01 
630 0 1 1.0279999999995901e+00 -3.3373939745041508e+00 1.0000000000000000e+00 4.3538966443006597e+00 3.7930853656251253e+00 8.0334178309731363e-01 
282 0 1 1.0280000000007328e+00 3.7124214206849642e+00 1.0000000000000000e+00 2.9821809255210558e+00 6.7911532844833173e+00 2.4322367728241785e+00 
281 0 1 1.0280000000007583e+00 1.2676546911275879e+00 1.0000000000000000e+00 3.1647716680279583e+00 7.1727177633677028e+00 2.2279061318359865e+00 
288 0 1 1.0280000000007072e+00 -1.1000058836654912e+01 1.0000000000000000e+00 3.8419700924863580e+00 8.2967824282579858e+00 2.5862508637205406e+00 
289 0 1 1.0280000000010996e+00 4.2565835051042539e-01 1.0000000000000000e+00 3.9122948911193749e+00 8.3643314448670516e+00 2.5136261742018355e+00 
123 0 1 1.0280000000011897e+00 1.0102313019740103e+01 1.0000000000000000e+00 5.9482596476324794e+00 7.9682369017499735e+00 1.3872410228328673e+00 
116 0 1 1.0280000000000176e+00 1.0857905651112080e+01 1.0000000000000000e+00 4.1642076852997425e+00 6.9929187597833566e+00 1.4258606462809651e+00 
65 0 1 1.0279999999995493e+00 6.3828553720840695e+00 1.0000000000000000e+00 5.6897517239566504e+00 9.0181950204526480e+00 2.1629489467864662e+00 
53 0 1 1.0279999999989955e+00 8.5598708036229727e+00 1.0000000000000000e+00 6.0722627886288105e+00 7.3841173894392593e+00 1.8706099104791736e+00 
212 0 1 1.0279999999992868e+00 5.1973193081840803e+00 1.0000000000000000e+00 4.8422888261060644e+00 9.8508109377521862e+00 1.8438296357792008e+00 
495 0 1 1.0280000000011735e+00 1.8989113953006228e+01 1.0000000000000000e+00 5.9936843268430655e+00 7.7062735544658842e+00 1.5711584669127614e+00 
206 0 1 1.0279999999986791e+00 1.1106542680010152e+01 1.0000000000000000e+00 4.5691191733819512e+00 9.6217011709614919e+00 1.3598479617779338e+00 
475 0 1 1.0280000000004477e+00 1.3263305100462201e+01 1.0000000000000000e+00 5.1307630130908812e+00 7.5897683498599546e+00 1.0982515153028678e+00 
488 0 1 1.0279999999997922e+00 1.8043858925670865e+01 1.0000000000000000e+00 5.3484573994095808e+00 9.4667118690786989e+00 2.8833840478491624e-01 
482 0 1 1.0280000000003251e+00 1.0541245647996050e+01 1.0000000000000000e+00 5.6865108924576395e+00 9.9318381234169379e+00 8.1018689334342531e-02 
344 0 1 1.0279999999952598e+00 6.6189397373804715e+00 1.0000000000000000e+00 2.9342096760163208e+00 3.1475846130262117e+00 6.0204244022820248e+00 
253 0 1 1.0279999999914211e+00 1.0555234834448088e+01 1.0000000000000000e+00 3.3011483522180880e+00 1.9798453639033051e+00 6.2208867823765948e+00 
351 0 1 1.0280000000003726e+00 -1.1666716183036719e+01 1.0000000000000000e+00 2.6364215947600518e+00 3.2988555602455154e+00 5.3538671681973602e+00 
32 0 1 1.0279999999958487e+00 4.4423323514910784e+00 1.0000000000000000e+00 4.5870311543651914e+00 5.5285535716923861e-01 3.3699325219542682e+00 
267 0 1 1.0280000000002216e+00 1.3414905640387000e+00 1.0000000000000000e+00 3.4594333804685484e+00 2.1712188603864613e+00 4.6714704791612931e+00 
207 0 1 1.0279999999811111e+00 7.5310848699859534e+00 1.0000000000000000e+00 5.4778272154789613e+00 3.2611024061249787e+00 4.0166347869155290e+00 
276 0 1 1.0279999999994749e+00 4.5343639217310177e+00 1.0000000000000000e+00 3.9375706134832971e+00 2.0773082211556977e+00 4.2329359350757150e+00 
200 0 1 1.0280000000058622e+00 8.2205422714923131e+00 1.0000000000000000e+00 5.8444893428710012e+00 5.2916396181531522e-01 4.2127666118069103e+00 
283 0 1 1.0280000000153495e+00 8.4217536783747580e+00 1.0000000000000000e+00 5.3592294326480516e+00 2.7909206597790743e+00 4.4019421857799248e+00 
260 0 1 1.0280000000060969e+00 -2.6731056687670254e+00 1.0000000000000000e+00 4.0141582410202874e+00 2.9663064936418326e-01 5.5864966397610276e+00 
261 0 1 1.0280000000054845e+00 7.9650512346685360e+00 1.0000000000000000e+00 4.0552345971368204e+00 2.1614018869148008e-01 5.5689154289764460e+00 
360 0 1 1.0279999999818452e+00 1.1390881763141923e+01 1.0000000000000000e+00 5.5674474986376516e+00 2.0741331442726931e+00 5.9305722215939820e+00 
353 0 1 1.0279999999840255e+00 9.4534249376769957e+00 1.0000000000000000e+00 5.0327744739623856e+00 2.5518595573437119e+00 6.2453850438730765e+00 
274 0 1 1.0280000000012182e+00 -1.1567490237881966e+01 1.0000000000000000e+00 2.1670717343864592e+00 3.9504714173790259e+00 3.4166401864305191e+00 
358 0 1 1.0280000000009490e+00 -2.6969138260247965e+00 1.0000000000000000e+00 2.5502427749574195e+00 4.2741962025963272e+00 4.8551784584132571e+00 
352 0 1 1.0280000000001417e+00 -4.4199663572606107e-01 1.0000000000000000e+00 2.6450554870556822e+00 3.3828629179514498e+00 5.4474269481455915e+00 
436 0 1 1.0279999999942442e+00 -2.4893257736735283e-01 1.0000000000000000e+00 2.9312962497044670e+00 5.2414343059871387e+00 5.9881937033790269e+00 
435 0 1 1.0280000000007870e+00 -9.2974087286362490e+00 1.0000000000000000e+00 2.7570257723132752e+00 5.8949223855936497e+00 6.1645249341508039e+00 
428 0 1 1.0280000000005798e+00 7.0331330773876521e+00 1.0000000000000000e+00 2.6969205893034172e+00 6.4809352664261031e+00 6.6417022777927475e+00 
199 0 1 1.0279999999996707e+00 8.0067472305162184e+00 1.0000000000000000e+00 3.9298572961111873e+00 4.4014385699464604e+00 3.4351270643170362e+00 
213 0 1 1.0279999999978984e+00 1.0369246875887804e+01 1.0000000000000000e+00 5.9453361182991777e+00 5.7944255978822117e+00 3.8574294444551045e+00 
359 0 1 1.0279999999980054e+00 5.8874434173635048e-01 1.0000000000000000e+00 3.8723068762846253e+00 4.4143143393570226e+00 5.4364088128195469e+00 
367 0 1 1.0280000000215885e+00 6.5337075075372963e+00 1.0000000000000000e+00 5.4083817519717758e+00 3.4581983779839258e+00 4.7115754280024111e+00 
290 0 1 1.0279999999907248e+00 7.1254921722856182e+00 1.0000000000000000e+00 5.4546185259491651e+00 4.7208653621964407e+00 4.7310835127044273e+00 
296 0 1 1.0280000000081961e+00 9.0215854134902322e+00 1.0000000000000000e+00 5.4785289449583079e+00 6.1780711784777749e+00 4.8155393533069963e+00 
373 0 1 1.0280000000064069e+00 7.7093146124548682e+00 1.0000000000000000e+00 5.8324256662437532e+00 6.0483681437923318e+00 5.1838579752134297e+00 
365 0 1 1.0279999999983773e+00 -1.2890557777140796e+01 1.0000000000000000e+00 3.2549595564419573e+00 7.2617332383386612e+00 3.7591706749102043e+00 
366 0 1 1.0279999999983407e+00 -1.8802239443579332e+00 1.0000000000000000e+00 3.2526840922963878e+00 7.1349626686697700e+00 3.8650510165828980e+00 
443 0 1 1.0280000000020260e+00 3.0224605140094845e+00 1.0000000000000000e+00 3.2132878584914430e+00 7.4432540692515969e+00 5.8828868710792435e+00 
442 0 1 1.0280000000009872e+00 -8.3189456782767568e-01 1.0000000000000000e+00 3.3367446970726564e+00 7.4357996635764287e+00 5.1828773896120914e+00 
295 0 1 1.0279999999985028e+00 6.3214034544335140e+00 1.0000000000000000e+00 4.9083434472459624e+00 7.3653996125696910e+00 4.0926375334529865e+00 
372 0 1 1.0279999999975398e+00 2.0036731304161663e+00 1.0000000000000000e+00 4.6715284129273389e+00 7.5749811270907141e+00 4.2469256475804302e+00 
449 0 1 1.0280000000012062e+00 -7.5981597675302304e+00 1.0000000000000000e+00 4.3670037389582950e+00 8.0664828433022109e+00 6.0324116620130432e+00 
450 0 1 1.0280000000020257e+00 2.3571282933847928e+00 1.0000000000000000e+00 4.5275150108569671e+00 7.7719119400598800e+00 5.4520683928608360e+00 
540 0 1 1.0279999999949083e+00 -4.0070458727883365e+00 1.0000000000000000e+00 2.8485733056266693e+00 1.2438428719397805e+00 7.7576160176391760e+00 
505 0 1 1.0280000000021743e+00 5.8528520954172585e+00 1.0000000000000000e+00 1.0102187099355153e+00 5.6783876627304097e-01 8.1376274855173563e+00 
414 0 1 1.0280000000020879e+00 9.7277482268656641e+00 1.0000000000000000e+00 9.5196084285874560e-01 2.0633199934866439e-01 8.1986682146415912e+00 
463 0 1 1.0279999999793878e+00 -1.8679072075858694e-01 1.0000000000000000e+00 3.1320086061913242e+00 1.9902154212463212e+00 8.2558744773521795e+00 
541 0 1 1.0279999999167035e+00 4.2722991470000613e+00 1.0000000000000000e+00 3.2813563060636906e+00 2.4146285315234715e+00 9.3144110092854024e+00 
591 0 1 1.0279999999969986e+00 1.3044145956105723e+01 1.0000000000000000e+00 1.6621931517902817e+00 2.0028885019145362e+00 9.7247386106614080e+00 
590 0 1 1.0280000000004612e+00 7.4764460371425461e+00 1.0000000000000000e+00 1.0143277848631880e+00 1.1978480981794191e+00 8.3448664888248025e+00 
415 0 1 1.0280000000023668e+00 9.7216454721079852e+00 1.0000000000000000e+00 6.3203772355727139e-01 5.1353874411161204e-01 8.2974747098493022e+00 
316 0 1 1.0279999999920266e+00 5.4432672676110609e+00 1.0000000000000000e+00 3.5562294185595920e+00 1.1775842046798299e+00 6.7737522685793010e+00 
361 0 1 1.0280000000202008e+00 1.6534661765141315e+01 1.0000000000000000e+00 6.4878329967868549e+00 2.4135344858828485e+00 7.3848526560455188e+00 
254 0 1 1.0280000000795906e+00 1.3307748742663030e+01 1.0000000000000000e+00 4.3742737473588305e+00 2.4430916441351402e+00 7.4802585531509953e+00 
270 0 1 1.0280000000150529e+00 1.9280754280147839e+01 1.0000000000000000e+00 6.4764435978281973e+00 1.5259880361204736e+00 7.5346318609301965e+00 
542 0 1 1.0280000003860204e+00 1.3515213286301726e+01 1.0000000000000000e+00 3.8662197606059041e+00 2.3440876745240953e+00 9.6142772100170841e+00 
465 0 1 1.0280000001274812e+00 1.7585118573666378e+01 1.0000000000000000e+00 5.9534763554013903e+00 1.6494841116180017e-01 8.6751383750558855e+00 
180 0 1 1.0280000000872407e+00 1.5436558794042613e+01 1.0000000000000000e+00 6.1477187190821576e+00 2.8610096684063508e+00 9.3951513396686686e+00 
312 0 1 1.0279999958190644e+00 2.2125186633099389e+01 1.0000000000000000e+00 5.1336300594159452e+00 2.7823484331344770e+00 9.8060812624695224e+00 
242 0 1 1.0280000039547355e+00 1.8541966895904174e+01 1.0000000000000000e+00 5.1898516871767164e+00 2.8782768185131711e+00 9.8404547319122830e+00 
345 0 1 1.0279999999998555e+00 1.1660887774161518e+01 1.0000000000000000e+00 2.4670955598325932e+00 5.6195479398035451e+00 6.7827924348436470e+00 
506 0 1 1.0279999999999412e+00 9.2108741045126585e+00 1.0000000000000000e+00 5.3261637578232623e-01 4.5847113503185328e+00 8.6371780277910695e+00 
247 0 1 1.0280000000018954e+00 9.7996678321241895e+00 1.0000000000000000e+00 2.4879108446491545e+00 4.7125374145404288e+00 8.0823704847356925e+00 
246 0 1 1.0279999999993368e+00 -1.5524056870829059e-01 1.0000000000000000e+00 2.4692158502496278e+00 4.8455565774954801e+00 8.2288206660660101e+00 
394 0 1 1.0280000000053453e+00 1.2528449458035507e+01 1.0000000000000000e+00 2.8315402533585630e+00 4.8058157641380008e+00 8.5623226913482320e+00 
393 0 1 1.0280000000052101e+00 2.3649582368331208e+00 1.0000000000000000e+00 2.8207131718716871e+00 4.8186153885388574e+00 8.5598194706190469e+00 
379 0 1 1.0279999999939962e+00 -4.1523698252980878e+00 1.0000000000000000e+00 6.4621353988057137e+00 6.4094906234544693e+00 6.7848643875941876e+00 
318 0 1 1.0279999999445195e+00 1.6099123353770896e+01 1.0000000000000000e+00 3.4476996245518485e+00 3.8147549640079590e+00 8.9236863054486104e+00 
380 0 1 1.0279999999944829e+00 6.9557559262064839e+00 1.0000000000000000e+00 6.4114990218998722e+00 6.4453410299146272e+00 6.8658180472500305e+00 
437 0 1 1.0279999999760863e+00 1.1134058108736415e+01 1.0000000000000000e+00 4.7826819689303139e+00 6.3726750941413011e+00 7.3289153590027052e+00 
444 0 1 1.0279999999876908e+00 1.2666358798838424e+01 1.0000000000000000e+00 6.2922977109205673e+00 4.7236812534409509e+00 7.8596424935090843e+00 
255 0 1 1.0280000000454503e+00 1.9697603237053990e+01 1.0000000000000000e+00 4.1019926706976335e+00 6.0222359632180291e+00 8.6739789746444309e+00 
354 0 1 1.0279999999999661e+00 1.7803081939407011e+01 1.0000000000000000e+00 5.9175514970657686e+00 3.3365199965967514e+00 7.9731224424944411e+00 
263 0 1 1.0279999999848917e+00 2.0290446749419417e+01 1.0000000000000000e+00 5.4039723570062170e+00 3.8241781959280736e+00 8.4324566427301608e+00 
438 0 1 1.0280000000695249e+00 1.6001854361358653e+01 1.0000000000000000e+00 5.7349404871388643e+00 6.4509081923009850e+00 8.5766976189996491e+00 
172 0 1 1.0279999998778040e+00 1.7023172792134424e+01 1.0000000000000000e+00 5.0048314061821921e+00 5.3879395102481871e+00 9.6843771061449235e+00 
355 0 1 1.0279999999177201e+00 1.9028177613903217e+01 1.0000000000000000e+00 6.2354444635337156e+00 5.6328676997631888e+00 9.6090796458053678e+00 
429 0 1 1.0279999999996963e+00 1.2215505106243121e+01 1.0000000000000000e+00 3.3275838578103283e+00 7.6346365931296249e+00 7.2611133393665366e+00 
248 0 1 1.0279999999929208e+00 1.7653492855994340e+01 1.0000000000000000e+00 3.2977450145555314e+00 7.0377999578588195e+00 8.0859860672913655e+00 
395 0 1 1.0280000000027285e+00 1.6658075925537133e+01 1.0000000000000000e+00 2.4603429008877504e+00 8.4690857232142509e+00 9.0787090622289597e+00 
624 0 1 1.0280000000004021e+00 -1.4368189492358869e+01 1.0000000000000000e+00 2.2997266801906040e+00 8.3097078868494219e+00 9.6199411582041048e+00 
547 0 1 1.0280000000007929e+00 2.8137310239192388e+00 1.0000000000000000e+00 1.9255351818945909e+00 8.8031892483170804e+00 9.7672879072364012e+00 
625 0 1 1.0280000000002549e+00 -2.1848303980776658e+00 1.0000000000000000e+00 1.8437610772594224e+00 9.1915714634914210e+00 9.9817141047212274e+00 
526 0 1 1.0279999999970675e+00 -1.0673751278365643e+01 1.0000000000000000e+00 3.8199521304985731e+00 9.9420495428689986e+00 7.1288759316708656e+00 
533 0 1 1.0280000000090401e+00 4.1934944524713824e+00 1.0000000000000000e+00 5.2050925322743256e+00 9.0071850308783787e+00 7.3519414362290219e+00 
346 0 1 1.0279999999816523e+00 2.0111640090085078e+01 1.0000000000000000e+00 3.9055122386974230e+00 7.7760894436858514e+00 8.4162719808825344e+00 
264 0 1 1.0280000000582039e+00 1.9903116480614308e+01 1.0000000000000000e+00 5.8017151540990568e+00 6.7255912438990864e+00 9.9020619758659016e+00 
610 0 1 1.0280000000055036e+00 -1.6434432813925334e+01 1.0000000000000000e+00 4.8348439783534394e+00 9.0989417425797239e+00 7.1788385127706347e+00 
456 0 1 1.0279999999694840e+00 8.5830994263755951e+00 1.0000000000000000e+00 6.2446524204442406e+00 8.1001629037029943e+00 7.9373176918831572e+00 
347 0 1 1.0280000000104703e+00 2.5524116371246670e+01 1.0000000000000000e+00 5.1978073982297373e+00 9.0033145600546156e+00 9.6094358094593471e+00 
611 0 1 1.0280000000061922e+00 3.0644282375743281e+00 1.0000000000000000e+00 5.1893845605478583e+00 9.8879342358995856e+00 7.5511861840707972e+00 
577 0 1 1.0279999999998461e+00 1.2692130596241162e+00 1.0000000000000000e+00 1.7051385119759812e+00 2.7397746818296551e+00 1.3222632099228699e+01 
486 0 1 1.0279999999977547e+00 1.4232049263297903e+01 1.0000000000000000e+00 1.0374128636065179e+00 5.0799218048620476e-01 1.2835758281151673e+01 
570 0 1 1.0279999999984497e+00 2.7873328951086833e+00 1.0000000000000000e+00 9.9541167035344624e-01 2.3792156330816163e+00 1.2756287855154639e+01 
516 0 1 1.0279999999997860e+00 1.3338669620481520e+01 1.0000000000000000e+00 3.2252267334060929e+00 1.7554177157540432e+00 1.1585219280502761e+01 
479 0 1 1.0280000000031286e+00 4.4362241219108336e+00 1.0000000000000000e+00 8.5456637619935516e-01 1.4515034318522052e-01 1.1223952101975495e+01 
562 0 1 1.0280000000009850e+00 9.0101083547488621e+00 1.0000000000000000e+00 6.0643950153766468e-01 6.5794022660386753e-01 1.2196405566389709e+01 
409 0 1 1.0280000000035039e+00 4.8832035623819952e+00 1.0000000000000000e+00 4.2004157626365790e-01 2.7878429965091840e+00 1.1593151191008340e+01 
416 0 1 1.0279999999925507e+00 1.2684733754969653e+01 1.0000000000000000e+00 2.0458294127019969e+00 1.5015350844506350e+00 1.0295103455388295e+01 
632 0 1 1.0280000000015073e+00 -3.4073576746694791e+00 1.0000000000000000e+00 1.5778530104600380e-01 1.7850279578298667e-01 1.1118222739243741e+01 
515 0 1 1.0279999999889782e+00 1.7564669109999016e+01 1.0000000000000000e+00 2.2772743605920640e+00 1.2865364685778440e+00 1.0011173995805732e+01 
425 0 1 1.0280000000095122e+00 1.6699765278952562e+01 1.0000000000000000e+00 3.4135502826664346e+00 1.1032813790811526e+00 1.2226377789619145e+01 
593 0 1 1.0280000000040033e+00 5.3669910765343074e+00 1.0000000000000000e+00 3.6343472044110587e+00 2.4713312108262326e+00 1.3276006209941650e+01 
517 0 1 1.0279999999924998e+00 8.1131030584964865e+00 1.0000000000000000e+00 4.9284650085824637e+00 1.1169653916771971e+00 1.3100861422869071e+01 
518 0 1 1.0279999999891456e+00 3.0924654387263777e+00 1.0000000000000000e+00 5.3293849907740549e+00 4.5908923109672539e-01 1.3322724596351517e+01 
616 0 1 1.0279999999887395e+00 -1.9512794736465167e+00 1.0000000000000000e+00 4.7519397655036828e+00 2.9702741940002024e+00 1.2042886415640172e+01 
461 0 1 1.0279999999513674e+00 7.2761149772854914e+00 1.0000000000000000e+00 5.5333419487812172e+00 3.0145755745983949e+00 1.2010241210542432e+01 
615 0 1 1.0280000000162393e+00 6.7502916148223200e+00 1.0000000000000000e+00 5.3937300727431268e+00 1.3476506298148172e+00 1.1302747609789176e+01 
537 0 1 1.0280000001015310e+00 1.5490952772081524e+01 1.0000000000000000e+00 5.6346627417765056e+00 8.5539826774744543e-01 1.0923766561541195e+01 
308 0 1 1.0280000000015412e+00 1.4360034828320371e+01 1.0000000000000000e+00 6.3501884133868707e+00 6.4872987030729579e-01 1.0774258294836249e+01 
385 0 1 1.0279999999427414e+00 1.4607718310843916e+01 1.0000000000000000e+00 6.3469127177780047e+00 1.8886348041698753e-01 1.0761370937945692e+01 
619 0 1 1.0280000000120735e+00 1.0708727889466378e+01 1.0000000000000000e+00 5.2050117454795313e+00 5.0686424853284145e-02 1.0193751721489717e+01 
508 0 1 1.0280000000055081e+00 4.6601755988573492e+00 1.0000000000000000e+00 2.1099212181655518e+00 3.5386238247977073e+00 1.2342207677928194e+01 
585 0 1 1.0280000000100775e+00 -1.9796950366324789e-01 1.0000000000000000e+00 1.7682620396010609e+00 3.6825846584810984e+00 1.1984202307634128e+01 
592 0 1 1.0279999999739255e+00 4.7559100891977426e+00 1.0000000000000000e+00 2.2915122225348030e+00 3.4080005575156433e+00 1.1257929791671176e+01 
500 0 1 1.0280000000005902e+00 3.4086903531626085e+00 1.0000000000000000e+00 6.8625171835953880e-01 4.9852413191095994e+00 1.1218401925867017e+01 
507 0 1 1.0280000000022811e+00 9.4567799613511188e+00 1.0000000000000000e+00 1.2334937596216238e+00 4.6169717685627720e+00 1.0614890577116480e+01 
492 0 1 1.0280000000000773e+00 5.3231283915966667e+00 1.0000000000000000e+00 2.2089013993685702e-01 4.3280938019163058e+00 1.1658792960411439e+01 
584 0 1 1.0280000000011440e+00 5.6668515043098706e+00 1.0000000000000000e+00 8.7503242064020648e-01 5.3719612795390050e+00 1.0241460374781134e+01 
538 0 1 1.0280000000020053e+00 5.7062038722960509e+00 1.0000000000000000e+00 4.1469813541206522e+00 4.7466421492000084e+00 1.1573493695750491e+01 
539 0 1 1.0279999999904792e+00 -8.9368708955579610e+00 1.0000000000000000e+00 4.1821701894076861e+00 4.3542347193417363e+00 1.1756975189687006e+01 
462 0 1 1.0279999999991205e+00 -4.0663527594506839e+00 1.0000000000000000e+00 4.2655843473440429e+00 4.7281026070829206e+00 1.1742981951831910e+01 
237 0 1 1.0279999999941547e+00 1.1677766129119860e+01 1.0000000000000000e+00 5.7120195631158124e+00 4.6479754003673657e+00 1.2163384819602182e+01 
161 0 1 1.0279999999969729e+00 -3.5464101398943750e+00 1.0000000000000000e+00 6.3040535074560307e+00 4.8908700918947199e+00 1.1996689473655541e+01 
313 0 1 1.0280000000132612e+00 1.4035854406679581e+01 1.0000000000000000e+00 4.4694060200435448e+00 6.5124594271099632e+00 1.1673705935619944e+01 
390 0 1 1.0280000000075220e+00 1.4640128686653949e+01 1.0000000000000000e+00 4.3190075843378137e+00 6.5634376188178107e+00 1.1523610229500099e+01 
389 0 1 1.0280000000132103e+00 1.9910806997432559e+01 1.0000000000000000e+00 4.1392257194979578e+00 5.5933170806492010e+00 1.0861602563732255e+01 
620 0 1 1.0279999999980289e+00 8.1891902025110888e+00 1.0000000000000000e+00 2.2184303406839789e+00 9.5792585352038984e+00 1.0369230448129475e+01 
466 0 1 1.0280000000017671e+00 1.8398536945949914e+01 1.0000000000000000e+00 2.4551032038950273e+00 8.2732081150721815e+00 1.0144141749490885e+01 
319 0 1 1.0279999999962606e+00 2.0832704473467437e+01 1.0000000000000000e+00 3.6250011622937066e+00 7.4461159542758182e+00 1.0499710478761259e+01 
168 0 1 1.0280000000015668e+00 9.4581981972217544e-01 1.0000000000000000e+00 5.8174559831788164e+00 9.0781926804529576e+00 1.2804004651048773e+01 
245 0 1 1.0280000000010914e+00 -1.2003617074938068e+01 1.0000000000000000e+00 5.5956932223587357e+00 8.6667333163669902e+00 1.2601356483431264e+01 
238 0 1 1.0279999999990519e+00 4.8599200442086863e+00 1.0000000000000000e+00 5.2430603833097056e+00 7.6324940024050978e+00 1.2129901108984500e+01 
243 0 1 1.0279999999904366e+00 1.3595579230130044e+01 1.0000000000000000e+00 4.3581878553507485e+00 8.2147283180724298e+00 1.1599252737514176e+01 
181 0 1 1.0280000000052099e+00 1.1522385956439861e+01 1.0000000000000000e+00 6.3713188248988066e+00 7.0729351451039362e+00 1.1419661463638482e+01 
173 0 1 1.0280000000004701e+00 1.2292126724541284e+01 1.0000000000000000e+00 4.7231304834238150e+00 9.0218766107566974e+00 1.1208209421191459e+01 
265 0 1 1.0280000000070912e+00 1.5641384044152662e+01 1.0000000000000000e+00 6.3714759482671397e+00 9.7899229825567762e+00 1.1087265873948338e+01 
166 0 1 1.0279999999953857e+00 1.6489626646442701e+01 1.0000000000000000e+00 4.0652224002392900e+00 8.5460305422275322e+00 1.1056624180522228e+01 
439 0 1 1.0279999999703862e+00 1.9840606122427388e+01 1.0000000000000000e+00 6.1053030368951653e+00 7.9096005874534221e+00 1.0038030346935214e+01 
501 0 1 1.0280000000015952e+00 4.4269599382772604e+00 1.0000000000000000e+00 2.1351742024760854e+00 2.7366432645369825e+00 1.3396328261608819e+01 
493 0 1 1.0279999999980185e+00 1.4220615179230315e+01 1.0000000000000000e+00 1.4751108372975827e+00 7.3902396817620530e-01 1.3468094281978674e+01 
410 0 1 1.0279999999980347e+00 8.0595158833718532e+00 1.0000000000000000e+00 1.5175004772495686e+00 9.8359731422128782e-01 1.3558005017081127e+01 
417 0 1 1.0279999999948457e+00 9.3218929795598111e+00 1.0000000000000000e+00 2.8892976489272604e+00 6.4643372833447621e-01 1.3687005603281303e+01 
586 0 1 1.0280000000019465e+00 1.6368442851208493e+00 1.0000000000000000e+00 3.2606850011024102e+00 1.8881788867761111e+00 1.3751645282295247e+01 
509 0 1 1.0280000000037151e+00 5.3219402470525949e+00 1.0000000000000000e+00 3.6143183729323614e+00 1.7911179020379229e+00 1.3680193347470089e+01 
594 0 1 1.0280000000084071e+00 -5.3372674571873731e+00 1.0000000000000000e+00 5.3938250509620502e+00 7.1489160808729757e-01 1.4001437205989426e+01 
595 0 1 1.0280000000058844e+00 -2.1201109757945162e+01 1.0000000000000000e+00 5.6072784078856550e+00 6.5036707776733282e-01 1.4040571992663867e+01 
502 0 1 1.0280000000005558e+00 8.4876532147875334e+00 1.0000000000000000e+00 5.6435679271025547e+00 9.2198163097013980e-02 1.5828576582481171e+01 
219 0 1 1.0279999999992597e+00 3.5435147382654950e+00 1.0000000000000000e+00 5.5971900410993305e+00 1.0389411573766209e+01 1.9751339265876271e+00 
136 0 1 1.0279999999991640e+00 1.0397015556001183e+01 1.0000000000000000e+00 6.3478058307468519e+00 1.0658905441820558e+01 1.5388333976355717e+00 
218 0 1 1.0279999999998335e+00 -8.0639229458635047e+00 1.0000000000000000e+00 5.6258042867655371e+00 1.1825231575196440e+01 1.4539776364928010e+00 
59 0 1 1.0279999999992968e+00 4.9542872955618513e+00 1.0000000000000000e+00 6.3053468450682617e+00 1.1795291022505920e+01 1.1801161641185860e+00 
64 0 1 1.0279999999995586e+00 -5.9718562399938806e+00 1.0000000000000000e+00 5.9951614154038042e+00 1.2212564500232880e+01 1.0993030357652633e+00 
141 0 1 1.0279999999994083e+00 -1.0590234309604224e+01 1.0000000000000000e+00 5.8729184191050603e+00 1.2621937181046782e+01 8.0643603090931559e-01 
142 0 1 1.0279999999990168e+00 5.0584740225462461e+00 1.0000000000000000e+00 5.9619182693701189e+00 1.3055378029807471e+01 4.5213689393701417e-01 
572 0 1 1.0280000000010199e+00 8.4407398857683109e+00 1.0000000000000000e+00 6.2232915771206248e+00 1.0737412126324621e+01 5.1389798335170232e-02 
108 0 1 1.0279999999988214e+00 8.8386572706149256e+00 1.0000000000000000e+00 4.2009365551399123e+00 1.9242771188186495e+01 3.2877298128117713e+00 
559 0 1 1.0279999999996345e+00 6.1799698158489145e+00 1.0000000000000000e+00 5.4159855560146086e+00 1.9176780437818675e+01 2.5274796741880645e+00 
636 0 1 1.0280000000011400e+00 -1.0283652187570858e+01 1.0000000000000000e+00 6.0056943029628060e+00 1.8515235422759723e+01 2.2706374100532529e+00 
637 0 1 1.0280000000004781e+00 -2.8111604776647496e+01 1.0000000000000000e+00 6.2483457118689767e+00 1.8515996242756671e+01 2.1973138789586697e+00 
92 0 1 1.0280000000001837e+00 -4.1630507429481725e+00 1.0000000000000000e+00 5.6409187021656013e+00 1.3262634815873536e+01 4.9133520061753675e+00 
176 0 1 1.0280000000002507e+00 -9.9614391955311490e+00 1.0000000000000000e+00 5.4914915610563879e+00 1.3006368965134929e+01 5.5509198056902518e+00 
169 0 1 1.0280000000005367e+00 2.2996223200669053e+00 1.0000000000000000e+00 6.0651999856180883e+00 1.2399849635975471e+01 6.4221408798637460e+00 
109 0 1 1.0279999999978306e+00 5.7870678591740461e+00 1.0000000000000000e+00 6.4531131580610541e+00 1.6328061732976934e+01 4.0217200553930370e+00 
24 0 1 1.0279999999978240e+00 -3.5318155224710862e-01 1.0000000000000000e+00 5.8517497410464623e+00 1.4949765824482977e+01 4.1681026298338102e+00 
15 0 1 1.0280000000007168e+00 -2.4689281802728285e+01 1.0000000000000000e+00 5.0470835829053948e+00 1.5440266270502452e+01 4.3549059727398811e+00 
16 0 1 1.0279999999987650e+00 -8.6748803136495702e+00 1.0000000000000000e+00 5.1930692598590618e+00 1.5136317574196037e+01 4.4259107873738497e+00 
101 0 1 1.0279999999993090e+00 2.6109815828799188e+00 1.0000000000000000e+00 5.8504803212414682e+00 1.4079838487392633e+01 4.4186451529993169e+00 
184 0 1 1.0280000000013008e+00 2.4616573538859008e+00 1.0000000000000000e+00 4.7976667936747983e+00 1.6288323265993409e+01 4.6949842310170720e+00 
185 0 1 1.0280000000044269e+00 6.9726880184898112e+00 1.0000000000000000e+00 6.6375478269964150e+00 1.5721441579278324e+01 5.7155018804789304e+00 
177 0 1 1.0279999999997864e+00 2.2587656967629264e+00 1.0000000000000000e+00 5.3220469657386165e+00 1.3373634641910130e+01 5.9067647879405811e+00 
192 0 1 1.0279999999991254e+00 5.6965759312221129e+00 1.0000000000000000e+00 4.1405434540622332e+00 1.9839623163058736e+01 3.5403064938862738e+00 
22 0 1 1.0279999999993976e+00 -4.4067044163251534e+00 1.0000000000000000e+00 3.9551297795740483e+00 1.8969124665682259e+01 3.7227802142087669e+00 
23 0 1 1.0280000000005900e+00 -1.4289571620678960e+00 1.0000000000000000e+00 4.2854258965374195e+00 1.7302295009689189e+01 3.8135255038961535e+00 
100 0 1 1.0280000000009482e+00 -1.3931202379239171e+00 1.0000000000000000e+00 4.2056829565723737e+00 1.7532819936067796e+01 3.8579153027065556e+00 