LAMMPS data file via write_data, version 30 Jul 2016, timestep = 50000000

384 atoms
2 atom types

0.0000000000000000e+00 2.0000000000000000e+01 xlo xhi
0.0000000000000000e+00 2.0000000000000000e+01 ylo yhi
0.0000000000000000e+00 2.0000000000000000e+01 zlo zhi

Masses

1 3.89
2 0.042

Atoms # meso-molecular

4 1 2 1.0000000000009031e-02 -2.1852722895648692e-02 1.0000000000000000e+00 6.4874024684739151e+00 2.8874164394266183e-01 7.4907705998097658e+00 
37 1 2 9.9999999999770776e-03 8.6462024179225702e-02 1.0000000000000000e+00 6.5861564331899531e+00 9.8930257006248574e+00 1.1645540487235687e+01 
38 1 2 9.9999999999959149e-03 5.0844229179090338e-02 1.0000000000000000e+00 6.5078930487927558e+00 9.8384114550859483e+00 1.1788554232292233e+01 
29 1 2 9.9999999999238025e-03 3.2326655748586695e-02 1.0000000000000000e+00 6.5827650040343704e+00 9.0074565998292986e+00 1.0794036486914216e+01 
59 1 2 1.0000000000027407e-02 -7.1881738454863207e-03 1.0000000000000000e+00 6.6391059150911405e+00 1.6256835915917804e+01 5.7225954943276474e+00 
53 1 2 1.0000000000022024e-02 -8.9400213784613190e-03 1.0000000000000000e+00 6.2866676510176083e+00 1.3419821615711708e+01 1.1848483141607367e+01 
54 1 2 1.0000000000009310e-02 3.0237614571001561e-02 1.0000000000000000e+00 6.0360811774659302e+00 1.4064536078648548e+01 1.2559317318432917e+01 
62 1 2 9.9999999999737851e-03 3.0501883343926183e-03 1.0000000000000000e+00 6.2735209054159453e+00 1.4257370827262921e+01 1.3031680077153638e+01 
39 1 2 9.9999999999995943e-03 -8.6164854849648753e-02 1.0000000000000000e+00 6.5284849640182836e+00 1.0661372133551451e+01 1.4828682383880453e+01 
55 1 2 1.0000000000001270e-02 -2.5160706545667912e-02 1.0000000000000000e+00 6.1924051344651687e+00 1.3899839665779638e+01 1.4816178816539708e+01 
63 1 2 1.0000000000001742e-02 1.9811477543963521e-02 1.0000000000000000e+00 6.1447841397897101e+00 1.4932737971536936e+01 1.4524266877068744e+01 
64 1 2 1.0000000000005093e-02 -2.5662800116506724e-03 1.0000000000000000e+00 6.3670249475676446e+00 1.4984266320573557e+01 1.5160057969180121e+01 
200 1 2 9.9999999999997348e-03 -6.0659600829993374e-02 1.0000000000000000e+00 1.1915743190485841e+01 2.0981716238664339e+00 1.1231111612863653e+00 
208 1 2 9.9999999999985933e-03 -2.0455543683461266e-02 1.0000000000000000e+00 1.2722966091730131e+01 3.1377936501782351e+00 1.1137907531835602e+00 
272 1 2 9.9999999999998909e-03 -2.0997890828928691e-03 1.0000000000000000e+00 1.3068882352172947e+01 2.6560368222112332e+00 5.0003574648926341e-01 
264 1 2 9.9999999999909259e-03 2.3804040445453513e-02 1.0000000000000000e+00 1.3138857903085119e+01 2.2544561143780841e+00 7.7203023015830907e-01 
1 1 2 9.9999999999961214e-03 2.0536998142759909e-02 1.0000000000000000e+00 7.6176121503442271e+00 4.0826667459870318e+00 1.3875831523288982e+00 
73 1 2 9.9999999999991970e-03 -1.8491229848503682e-02 1.0000000000000000e+00 8.2465397219848526e+00 4.1993071304935006e+00 1.3309635162173552e+00 
81 1 2 9.9999999999881607e-03 -7.0421813234965991e-02 1.0000000000000000e+00 8.3714282949247636e+00 5.4514204244417810e+00 1.5209009059188583e+00 
9 1 2 9.9999999999993688e-03 -1.5752004068745509e-02 1.0000000000000000e+00 7.2438698164115145e+00 5.3407182944361544e+00 1.2710981952235834e-01 
17 1 2 1.0000000000004110e-02 -9.5565911946570770e-02 1.0000000000000000e+00 7.1822894105994912e+00 5.9121879524238157e+00 8.6305623153702415e-01 
89 1 2 9.9999999999913665e-03 -1.4909861966539064e-02 1.0000000000000000e+00 8.2247617962008412e+00 7.3892607834053070e+00 1.7088374558634574e+00 
25 1 2 1.0000000000000328e-02 -3.0853716293591772e-02 1.0000000000000000e+00 7.2042669850800243e+00 7.4095606353855388e+00 1.7290866509359957e+00 
193 1 2 1.0000000000000562e-02 4.6437963764107616e-02 1.0000000000000000e+00 1.2658623250449089e+01 1.0407430024397839e+00 2.9135213979057801e+00 
257 1 2 9.9999999999993879e-03 -1.7094322798731687e-02 1.0000000000000000e+00 1.2743929446498061e+01 1.3150508961739324e+00 3.2953973761039941e+00 
249 1 2 9.9999999999941594e-03 9.2217410979833351e-05 1.0000000000000000e+00 1.1926956090583854e+01 9.1783758532400006e-01 2.8341516740075035e+00 
129 1 2 1.0000000000013864e-02 -1.6626859653298701e-02 1.0000000000000000e+00 1.1225714668728568e+01 2.0631066473817463e+00 3.8508137906966713e+00 
201 1 2 9.9999999999959115e-03 3.8296724246457470e-02 1.0000000000000000e+00 1.1479241096787565e+01 2.7491316604364044e+00 2.3850126107670926e+00 
137 1 2 9.9999999999967580e-03 3.5819340205001708e-02 1.0000000000000000e+00 1.1263018689628584e+01 2.5556365640231884e+00 2.4310415390973996e+00 
74 1 2 9.9999999999940622e-03 -7.5490835667271217e-02 1.0000000000000000e+00 8.2417037968388378e+00 4.2281821675398135e+00 2.7848105583030272e+00 
10 1 2 1.0000000000013937e-02 -6.7442719544588206e-02 1.0000000000000000e+00 7.1899994758752355e+00 4.7182398047499507e+00 2.6943801019326523e+00 
11 1 2 9.9999999999961370e-03 -7.2681503714267182e-02 1.0000000000000000e+00 7.0979600574893551e+00 4.7758916880596081e+00 3.9734373213361849e+00 
82 1 2 1.0000000000005865e-02 1.2811042303455689e-01 1.0000000000000000e+00 8.6078183990216548e+00 5.6404749314994111e+00 3.5306460355305109e+00 
90 1 2 9.9999999999974068e-03 1.7203209412909225e-02 1.0000000000000000e+00 8.3322099323155392e+00 7.3638759217581899e+00 2.2320056326255986e+00 
18 1 2 1.0000000000012162e-02 5.9908653728198598e-03 1.0000000000000000e+00 6.9589653567620831e+00 6.6161680559262699e+00 2.5097762803492056e+00 
26 1 2 1.0000000000002627e-02 -6.9109801287763936e-02 1.0000000000000000e+00 7.3003077271514387e+00 7.1315575434031713e+00 3.6041995860919394e+00 
209 1 2 9.9999999999587207e-03 -1.7450763874660477e-02 1.0000000000000000e+00 1.2363699499581889e+01 7.9687123497107564e+00 3.2576262621024275e+00 
217 1 2 9.9999999999234156e-03 -9.3324835703506762e-02 1.0000000000000000e+00 1.1824700781771028e+01 8.3106261830560939e+00 3.4696521455439382e+00 
130 1 2 1.0000000000000290e-02 1.1331965780235012e-01 1.0000000000000000e+00 1.0695989991700211e+01 2.6317664421285198e+00 5.0742726480657643e+00 
131 1 2 9.9999999999814369e-03 -6.2487851261042907e-02 1.0000000000000000e+00 1.0976938746227908e+01 2.8165869747607477e+00 5.9639239109178508e+00 
258 1 2 1.0000000000017285e-02 -8.0118115564686954e-02 1.0000000000000000e+00 1.2877907478824650e+01 2.5367504099792426e+00 5.9057622916003343e+00 
194 1 2 9.9999999999853713e-03 -1.2464746925988165e-01 1.0000000000000000e+00 1.2078750432253299e+01 2.4299408150589197e+00 4.5920190601640414e+00 
75 1 2 9.9999999999821187e-03 1.4920898551024834e-02 1.0000000000000000e+00 8.1965757810664748e+00 4.5796047688934944e+00 4.5780661294430374e+00 
12 1 2 9.9999999999991086e-03 7.8695827536016269e-02 1.0000000000000000e+00 7.2502876371334803e+00 5.1405260646322244e+00 5.4250306955136338e+00 
20 1 2 1.0000000000001362e-02 -2.3293187918093324e-02 1.0000000000000000e+00 7.0915573429303018e+00 5.6300577059265873e+00 5.5325751949548172e+00 
83 1 2 1.0000000000003369e-02 7.6738984801952431e-02 1.0000000000000000e+00 8.6728377532990457e+00 5.7151122424841967e+00 4.3395690875704771e+00 
202 1 2 9.9999999999818220e-03 -8.8808871587973664e-03 1.0000000000000000e+00 1.1087190482445310e+01 4.2678426172356323e+00 5.2929632320629816e+00 
138 1 2 1.0000000000044822e-02 2.9863123129305037e-02 1.0000000000000000e+00 1.0626940285014181e+01 4.7036876539264485e+00 5.3115639654645834e+00 
210 1 2 9.9999999999767584e-03 -3.1812332892985726e-02 1.0000000000000000e+00 1.1383929329196802e+01 5.9751120525807782e+00 4.9453543117532224e+00 
19 1 2 9.9999999999908946e-03 -2.7779942450384940e-02 1.0000000000000000e+00 7.0441594051720333e+00 6.8714399401196893e+00 4.9822588079729551e+00 
27 1 2 9.9999999999834735e-03 3.2325130308710308e-03 1.0000000000000000e+00 7.0064976215054084e+00 7.0162170330419444e+00 4.6393745035636051e+00 
145 1 2 9.9999999999650941e-03 8.7865477573109890e-02 1.0000000000000000e+00 1.0687338341214286e+01 6.7066743238908124e+00 4.1611131522300129e+00 
146 1 2 9.9999999999776518e-03 1.8335053341975396e-01 1.0000000000000000e+00 1.0307328698475073e+01 6.8877107023695521e+00 4.1710765891698518e+00 
154 1 2 9.9999999998982500e-03 3.9682113327294925e-02 1.0000000000000000e+00 9.7676164973174853e+00 7.8775457504064148e+00 5.1349903326275070e+00 
274 1 2 9.9999999999747253e-03 1.3532996227613797e-01 1.0000000000000000e+00 1.3238989632646144e+01 6.0194718289903077e+00 5.8384187436607595e+00 
155 1 2 1.0000000000058771e-02 1.0474557894867967e-01 1.0000000000000000e+00 9.8069538498092292e+00 8.0979662419663061e+00 5.6695509057270597e+00 
98 1 2 1.0000000000036275e-02 1.9217059824779420e-02 1.0000000000000000e+00 9.9147266621469665e+00 9.8071279598814947e+00 4.9412999777607514e+00 
226 1 2 1.0000000000034150e-02 -8.9303024808920495e-02 1.0000000000000000e+00 1.1334249401978948e+01 9.6821433039752183e+00 4.4630602470115610e+00 
218 1 2 1.0000000000122430e-02 -1.2546164437282629e-02 1.0000000000000000e+00 1.1951386278020921e+01 8.4216617701843202e+00 4.6526037303541372e+00 
68 1 2 1.0000000000005985e-02 6.6845317747116301e-02 1.0000000000000000e+00 8.3945472378918744e+00 5.7596951412848008e-01 6.8914725749023997e+00 
76 1 2 9.9999999999979081e-03 9.8276381403277130e-02 1.0000000000000000e+00 7.9527205580533016e+00 1.0684265348183488e+00 7.2284481452797875e+00 
67 1 2 9.9999999999921211e-03 1.6461265904664901e-02 1.0000000000000000e+00 7.8332099646562181e+00 2.9777059421180675e-02 6.3130118946621687e+00 
3 1 2 9.9999999999935470e-03 -1.4010874882136766e-04 1.0000000000000000e+00 6.9447619164455761e+00 4.8087871559726082e-03 6.5009885319988694e+00 
195 1 2 1.0000000000012523e-02 1.4514606330188726e-01 1.0000000000000000e+00 1.1719281968447627e+01 2.1896950412236484e+00 6.0015107254790090e+00 
139 1 2 9.9999999999840286e-03 1.1868622963554008e-01 1.0000000000000000e+00 1.0765443120916757e+01 5.4651815266031143e+00 6.0287519892612789e+00 
203 1 2 9.9999999999930509e-03 -2.6951326994562354e-02 1.0000000000000000e+00 1.1358750113245868e+01 4.6849914213902322e+00 7.6848778563443441e+00 
267 1 2 1.0000000000123296e-02 -5.6582841876476705e-02 1.0000000000000000e+00 1.2520029598103674e+01 5.1772009646707460e+00 6.7778677932640523e+00 
147 1 2 1.0000000000029772e-02 1.2402367922220020e-01 1.0000000000000000e+00 1.0575873814797356e+01 6.9839819184247842e+00 6.0405814726918976e+00 
275 1 2 9.9999999999031731e-03 -4.1374510363427368e-02 1.0000000000000000e+00 1.3161663568032518e+01 6.0562895495405495e+00 7.4029943733764982e+00 
211 1 2 1.0000000000252066e-02 7.6835693956777154e-02 1.0000000000000000e+00 1.1776307114275870e+01 7.6528936293166838e+00 6.5311798700838830e+00 
212 1 2 9.9999999999377635e-03 -7.2231129324517016e-02 1.0000000000000000e+00 1.2132464028119781e+01 7.8285203609697440e+00 7.1894775062973277e+00 
91 1 2 9.9999999999948741e-03 4.1830237591857750e-02 1.0000000000000000e+00 9.2148707349100825e+00 9.7079971557654154e+00 6.4972389573544165e+00 
219 1 2 9.9999999996863171e-03 -1.1057478126893783e-02 1.0000000000000000e+00 1.1189850805811814e+01 8.8899749781682704e+00 6.3271702605725606e+00 
220 1 2 9.9999999999960346e-03 -5.9495583712103617e-02 1.0000000000000000e+00 1.2055893087809883e+01 9.0174532700007575e+00 7.8415123775761222e+00 
284 1 2 9.9999999999461787e-03 -1.5910804456471273e-01 1.0000000000000000e+00 1.3144075971100799e+01 8.7841342921269412e+00 7.7255003849317863e+00 
5 1 2 9.9999999999639787e-03 -4.0779741577792468e-02 1.0000000000000000e+00 6.9112233556672722e+00 1.1887485358153397e-02 8.3216268728809855e+00 
140 1 2 1.0000000000001301e-02 9.2913829649392231e-03 1.0000000000000000e+00 1.0435911051602975e+01 5.1960378853474785e+00 8.4151099648610295e+00 
148 1 2 9.9999999999984147e-03 5.2862482538724227e-02 1.0000000000000000e+00 1.0493006225613984e+01 5.3089772043296577e+00 8.5278873902874643e+00 
204 1 2 9.9999999999947874e-03 -2.6601171597143050e-02 1.0000000000000000e+00 1.1649937650020707e+01 4.4027280232703614e+00 8.8487182242284224e+00 
205 1 2 1.0000000000031397e-02 -8.2133329693814458e-04 1.0000000000000000e+00 1.1781875289723976e+01 5.0198903475324341e+00 9.3950139786220319e+00 
276 1 2 9.9999999999418297e-03 -4.5671693710761380e-02 1.0000000000000000e+00 1.3062319255243523e+01 5.8697259657244105e+00 8.8044462999254698e+00 
277 1 2 1.0000000000030339e-02 -1.8463741558113603e-02 1.0000000000000000e+00 1.2972509394466060e+01 5.8478179766277281e+00 9.8043759888320139e+00 
84 1 2 9.9999999999886256e-03 -1.1963382841560878e-02 1.0000000000000000e+00 8.2250475426500529e+00 6.9915587049140839e+00 9.2195551482251084e+00 
21 1 2 9.9999999999972489e-03 -4.6798715163384630e-02 1.0000000000000000e+00 6.9223228645726183e+00 7.4668056837113577e+00 9.8350440354399424e+00 
156 1 2 1.0000000000025135e-02 -2.6116580364076549e-03 1.0000000000000000e+00 9.1873189173540055e+00 7.8250268967593577e+00 9.6326908497419836e+00 
28 1 2 1.0000000000005683e-02 -3.8468016423656199e-03 1.0000000000000000e+00 6.9138152712328758e+00 8.1002703402265652e+00 9.5351768555571219e+00 
92 1 2 1.0000000000036060e-02 -2.6748571847241429e-02 1.0000000000000000e+00 7.9924810018129486e+00 8.0577137123179856e+00 9.0100001816192190e+00 
270 1 2 1.0000000000011770e-02 1.9780666185373153e-02 1.0000000000000000e+00 1.3145840188928208e+01 4.9151426599218686e+00 1.1930948489993458e+01 
85 1 2 9.9999999999792703e-03 9.0989761480172147e-03 1.0000000000000000e+00 8.5918575122830738e+00 6.8737796304539067e+00 1.0412592070371140e+01 
141 1 2 1.0000000000036634e-02 2.7515773177807526e-02 1.0000000000000000e+00 9.8387400237926190e+00 6.5334619717577747e+00 1.1474719611175972e+01 
149 1 2 1.0000000000014813e-02 3.6299235191937875e-03 1.0000000000000000e+00 1.0092126269404744e+01 7.8245851451184576e+00 1.0577237365310010e+01 
213 1 2 1.0000000000007826e-02 1.3193179154305651e-01 1.0000000000000000e+00 1.0895355285079480e+01 6.7520658778721856e+00 1.1590122562737516e+01 
278 1 2 1.0000000000013566e-02 5.6140245143953341e-02 1.0000000000000000e+00 1.3164273685823975e+01 6.8016729224616261e+00 1.1547718701794224e+01 
221 1 2 9.9999999999891582e-03 2.9269847969913162e-02 1.0000000000000000e+00 1.2871598978345487e+01 7.4760510638566036e+00 1.0897082641068579e+01 
285 1 2 9.9999999999929347e-03 3.2362173844508624e-02 1.0000000000000000e+00 1.3019831191884460e+01 7.5871983631619653e+00 1.0949922124485600e+01 
93 1 2 9.9999999999966747e-03 -3.9867355738811817e-02 1.0000000000000000e+00 7.9733479755803467e+00 8.1620846032220040e+00 1.1074845183890856e+01 
30 1 2 1.0000000000107112e-02 2.0552285760657863e-03 1.0000000000000000e+00 7.0493665059096111e+00 8.2493113254368726e+00 1.1883054538597321e+01 
157 1 2 9.9999999999795409e-03 -2.4674024063383974e-02 1.0000000000000000e+00 9.9113581380331670e+00 8.2177232683419437e+00 1.1286028890820733e+01 
134 1 2 9.9999999999755146e-03 1.2330933096787238e-02 1.0000000000000000e+00 1.0376160381357003e+01 3.8296846245818430e+00 1.2720704905288244e+01 
198 1 2 9.9999999999811177e-03 -1.5818817214439240e-02 1.0000000000000000e+00 1.0897446646399011e+01 3.6975370950550404e+00 1.2352916953277644e+01 
199 1 2 9.9999999999750167e-03 -2.9536770551979306e-02 1.0000000000000000e+00 1.1255356243282924e+01 3.8512867479585227e+00 1.3611831477791473e+01 
263 1 2 9.9999999999838898e-03 -3.3038511889008276e-02 1.0000000000000000e+00 1.2646366761102101e+01 3.9995186556778584e+00 1.3200916822667487e+01 
262 1 2 1.0000000000008016e-02 -2.3902257973825156e-02 1.0000000000000000e+00 1.3224973890558308e+01 3.6899876385068917e+00 1.2480287257642420e+01 
77 1 2 1.0000000000005418e-02 6.5502621276148790e-03 1.0000000000000000e+00 7.2872662243761530e+00 5.1551052934610695e+00 1.2414297103751087e+01 
13 1 2 1.0000000000005234e-02 -1.3437362508259486e-02 1.0000000000000000e+00 7.0966582281515169e+00 5.2182385800858118e+00 1.2446171757399597e+01 
142 1 2 9.9999999999847433e-03 1.9858339534561420e-01 1.0000000000000000e+00 1.0306412299937529e+01 5.5737642472549531e+00 1.2522851464537407e+01 
206 1 2 1.0000000000051161e-02 9.7317659375075957e-02 1.0000000000000000e+00 1.1088151669073284e+01 5.2345561535900762e+00 1.2028284684384934e+01 
207 1 2 1.0000000000010632e-02 2.4003889171584088e-02 1.0000000000000000e+00 1.1268505887685780e+01 4.8531712813038173e+00 1.3500454086631391e+01 
78 1 2 9.9999999999490254e-03 -2.3494547850143530e-03 1.0000000000000000e+00 7.7830671007779113e+00 6.0189834065658694e+00 1.2165813037772075e+01 
86 1 2 1.0000000000031609e-02 2.5144530312385970e-02 1.0000000000000000e+00 7.8858881934237584e+00 6.8386034510564437e+00 1.2874407192257300e+01 
22 1 2 1.0000000000005345e-02 -6.1994367038730985e-02 1.0000000000000000e+00 6.8615500861327838e+00 6.9268271323830684e+00 1.3842611714566306e+01 
150 1 2 9.9999999999261218e-03 -3.1246183422412956e-02 1.0000000000000000e+00 9.8911251005992700e+00 7.3227971424083087e+00 1.3301196649642385e+01 
215 1 2 1.0000000000020425e-02 -4.8637013975410939e-02 1.0000000000000000e+00 1.0994156036614729e+01 7.3059492617270489e+00 1.3958263195225022e+01 
214 1 2 1.0000000000011527e-02 -4.6186776507305807e-02 1.0000000000000000e+00 1.1397026740122293e+01 7.5534954081001597e+00 1.3047660387300928e+01 
94 1 2 9.9999999995498499e-03 7.8806604231197841e-02 1.0000000000000000e+00 7.8626769191089521e+00 9.1547140168223642e+00 1.2990510460570961e+01 
102 1 2 1.0000000000218858e-02 5.0294797743199941e-02 1.0000000000000000e+00 7.9690547487014598e+00 9.4122169725459113e+00 1.2610047503275901e+01 
103 1 2 1.0000000000266893e-02 6.5786768205103444e-02 1.0000000000000000e+00 8.5997760738767983e+00 9.7085051865509886e+00 1.3994568396942993e+01 
158 1 2 1.0000000000120938e-02 7.9302328685202633e-03 1.0000000000000000e+00 1.0281532659687690e+01 8.3864752790089980e+00 1.2460016947203975e+01 
230 1 2 1.0000000000141600e-02 4.1462477116348768e-02 1.0000000000000000e+00 1.1027346560130663e+01 9.7819412449519767e+00 1.3531917582663512e+01 
222 1 2 9.9999999998817198e-03 -5.2017690091218913e-02 1.0000000000000000e+00 1.1552149349619873e+01 8.9072396270786669e+00 1.3236414498340578e+01 
70 1 2 9.9999999999852429e-03 -2.8730187513520453e-02 1.0000000000000000e+00 7.8943016666762515e+00 3.4698282394918163e+00 1.5000575115499812e+01 
7 1 2 9.9999999999918227e-03 -1.0665975409991095e-01 1.0000000000000000e+00 7.1363723812660069e+00 3.7049948657311131e+00 1.5577094316516494e+01 
6 1 2 1.0000000000008946e-02 -3.8442877114134542e-02 1.0000000000000000e+00 6.8349539631103262e+00 3.9233768302984271e+00 1.4656276545377766e+01 
135 1 2 9.9999999999758563e-03 3.3778920245186840e-02 1.0000000000000000e+00 8.9816632116847508e+00 3.6139897363839060e+00 1.5885597726813057e+01 
79 1 2 1.0000000000016012e-02 -1.0163917307976736e-01 1.0000000000000000e+00 7.7702779270751883e+00 4.9774364950207213e+00 1.5714160724631430e+01 
14 1 2 1.0000000000008415e-02 1.1115105967151817e-02 1.0000000000000000e+00 6.9140722738583467e+00 4.9574584900321099e+00 1.4058196460912040e+01 
15 1 2 9.9999999999699236e-03 2.4873378500668585e-02 1.0000000000000000e+00 6.8718981721847081e+00 5.7050428446814525e+00 1.5046782922591147e+01 
71 1 2 1.0000000000020591e-02 2.0096967785032038e-03 1.0000000000000000e+00 9.3477080627644646e+00 4.0964140077303872e+00 1.5931572590002043e+01 
23 1 2 9.9999999999852707e-03 -2.7925996935580837e-02 1.0000000000000000e+00 6.9676907778406596e+00 6.8161248638566816e+00 1.4933632858148901e+01 
87 1 2 9.9999999998568716e-03 -4.0156362104805658e-02 1.0000000000000000e+00 8.3569867188159552e+00 7.0260085664048173e+00 1.4408554742092180e+01 
95 1 2 1.0000000000073948e-02 -3.1327919502173521e-02 1.0000000000000000e+00 7.9694299155568213e+00 7.6529298805918087e+00 1.4480055428216467e+01 
151 1 2 1.0000000000230873e-02 -1.6933902710127513e-01 1.0000000000000000e+00 1.0279943725192348e+01 7.7634113733950407e+00 1.4852631569297683e+01 
31 1 2 9.9999999999238892e-03 3.1510867073484584e-02 1.0000000000000000e+00 6.8918152471984868e+00 9.7798135292704806e+00 1.4962964566927317e+01 
32 1 2 1.0000000000030037e-02 9.8522360956459248e-02 1.0000000000000000e+00 7.2696712494822426e+00 9.4481499196262497e+00 1.5965774628373142e+01 
159 1 2 9.9999999998944145e-03 -5.2946080801111163e-02 1.0000000000000000e+00 9.7039962200861343e+00 9.0260297573143600e+00 1.4539078356917823e+01 
223 1 2 9.9999999998169713e-03 1.7634816591021570e-02 1.0000000000000000e+00 1.1841128627002195e+01 8.9410866373212645e+00 1.4931359944075661e+01 
287 1 2 1.0000000000096652e-02 9.4987686792265741e-02 1.0000000000000000e+00 1.3295222894446244e+01 9.0872540704064022e+00 1.4418935299640298e+01 
224 1 2 9.9999999998440069e-03 -9.5054368611617451e-02 1.0000000000000000e+00 1.1223299070081762e+01 8.5241280327180657e+00 1.5946893630668260e+01 
72 1 2 9.9999999999906032e-03 -6.3870634459764819e-02 1.0000000000000000e+00 8.4580841904927233e+00 4.1755024970515686e+00 1.7770210967979157e+01 
8 1 2 9.9999999999925149e-03 -2.9925631217343093e-02 1.0000000000000000e+00 7.5126341003206329e+00 4.6353001280147863e+00 1.7818950972513040e+01 
80 1 2 9.9999999999685601e-03 -1.6731410013471219e-02 1.0000000000000000e+00 8.2379332767166620e+00 5.5666817854186137e+00 1.7647612529262201e+01 
136 1 2 1.0000000000012563e-02 1.4161331520880255e-02 1.0000000000000000e+00 9.1329244754877266e+00 4.0818545608953860e+00 1.7265786695433150e+01 
143 1 2 1.0000000000059416e-02 4.8564652135535558e-03 1.0000000000000000e+00 9.6251895621979635e+00 5.7186040949919290e+00 1.6253459467713171e+01 
144 1 2 1.0000000000022055e-02 1.5500136663125824e-01 1.0000000000000000e+00 9.9143455123355970e+00 6.0175041254978296e+00 1.6471175440697735e+01 
88 1 2 9.9999999999238545e-03 -3.2485881110328870e-03 1.0000000000000000e+00 9.0670308255193213e+00 7.0999547550754913e+00 1.6446749877723725e+01 
152 1 2 1.0000000000009401e-02 -8.7623416910698124e-03 1.0000000000000000e+00 1.0586388597638262e+01 7.1572883759215982e+00 1.6640167416456912e+01 
216 1 2 1.0000000000098602e-02 -3.7838397977173971e-03 1.0000000000000000e+00 1.2002707320195789e+01 7.5084128225274647e+00 1.6201656866404644e+01 
280 1 2 1.0000000000138403e-02 -8.7327379196479468e-02 1.0000000000000000e+00 1.2561698415945086e+01 7.6495172199556505e+00 1.6154031550139166e+01 
96 1 2 1.0000000000000266e-02 1.7973605162651149e-01 1.0000000000000000e+00 8.0947501747234085e+00 9.5305405369541472e+00 1.6164230764544424e+01 
160 1 2 1.0000000000029197e-02 -7.7036616074408842e-02 1.0000000000000000e+00 9.2018233083953920e+00 8.0325389172135768e+00 1.6465818267449535e+01 
153 1 2 1.0000000000063288e-02 5.5015471657918084e-02 1.0000000000000000e+00 9.6222833839821149e+00 8.5093362482783217e+00 1.7755078084896088e+01 
161 1 2 9.9999999999694882e-03 4.1528310053149900e-02 1.0000000000000000e+00 9.7707543323886750e+00 9.3488581043686310e+00 1.7683929927591656e+01 
225 1 2 9.9999999999865891e-03 1.2640242351988695e-02 1.0000000000000000e+00 1.0134871472091051e+01 9.2252751792636527e+00 1.7640493390901419e+01 
16 1 2 9.9999999999848630e-03 2.2941800669989271e-01 1.0000000000000000e+00 7.3279949087588969e+00 5.7362713101249776e+00 1.8455169092410351e+01 
24 1 2 1.0000000000012494e-02 7.1477698883826282e-02 1.0000000000000000e+00 7.2082188314029372e+00 5.6394573381268804e+00 1.9214811813340354e+01 
97 1 2 9.9999999999746819e-03 5.2627520484830562e-02 1.0000000000000000e+00 8.8285314378176558e+00 1.1629950447095469e+01 3.5598401639796018e+00 
105 1 2 9.9999999999623220e-03 1.9467845109355196e-02 1.0000000000000000e+00 8.9479119340820059e+00 1.1982470558377177e+01 3.3335423207542112e+00 
169 1 2 9.9999999999767566e-03 -2.3144990878224116e-02 1.0000000000000000e+00 1.0732261206953956e+01 1.3060304994226948e+01 3.2051853623656497e+00 
233 1 2 9.9999999999831612e-03 4.1824796676033095e-02 1.0000000000000000e+00 1.2019388411754200e+01 1.3014179490733541e+01 3.2340422078099076e+00 
49 1 2 9.9999999999955177e-03 -8.5806637703239541e-02 1.0000000000000000e+00 7.8369324644805545e+00 1.4799393112741326e+01 3.6515763529548244e+00 
41 1 2 9.9999999999860322e-03 4.1190937045765583e-02 1.0000000000000000e+00 7.5098519048695174e+00 1.4610196133746985e+01 3.9991720756721807e+00 
113 1 2 1.0000000000029095e-02 -7.6513929541523362e-02 1.0000000000000000e+00 8.3867283288425654e+00 1.5585469311314293e+01 3.9504010297629115e+00 
177 1 2 9.9999999999645147e-03 -2.2148686661336695e-02 1.0000000000000000e+00 1.0983086320870107e+01 1.5152513517844479e+01 3.6140104094432890e+00 
241 1 2 1.0000000000003846e-02 1.2611632212023147e-02 1.0000000000000000e+00 1.1375576968326937e+01 1.4468557992505168e+01 3.2791490443304356e+00 
57 1 2 1.0000000000002675e-02 -7.9465224848399407e-02 1.0000000000000000e+00 7.4225286614004986e+00 1.6578227720291206e+01 3.8504232365334157e+00 
185 1 2 1.0000000000031080e-02 5.0784386964951550e-02 1.0000000000000000e+00 1.0754824716036978e+01 1.7018388433123420e+01 3.7294618976512535e+00 
121 1 2 1.0000000000006438e-02 5.9586725957939679e-02 1.0000000000000000e+00 9.5879745786450705e+00 1.7411892502179128e+01 3.4041407460645008e+00 
186 1 2 1.0000000000042596e-02 1.7785407037924559e-02 1.0000000000000000e+00 1.1279465196077505e+01 1.6157907133037760e+01 3.9145078857690514e+00 
65 1 2 1.0000000000013793e-02 4.6006503259901771e-03 1.0000000000000000e+00 9.5833697051662057e+00 1.8506131584852863e+01 3.5929389314567377e+00 
34 1 2 9.9999999999983522e-03 -1.8816386877153996e-02 1.0000000000000000e+00 7.8817922237449771e+00 1.1619725558359493e+01 4.0490005665000117e+00 
162 1 2 1.0000000000066404e-02 -3.6693872422949969e-02 1.0000000000000000e+00 1.0325439046633093e+01 1.0004266574526758e+01 4.9172360397493966e+00 
289 1 2 9.9999999999708898e-03 5.6111405086873067e-02 1.0000000000000000e+00 1.2971798946828523e+01 1.0039913738057578e+01 4.0014729435654912e+00 
290 1 2 9.9999999999858310e-03 -5.1338095467836714e-02 1.0000000000000000e+00 1.2896229380044542e+01 1.0032167245145038e+01 4.1931609680437516e+00 
42 1 2 9.9999999999816451e-03 1.1394285950322741e-01 1.0000000000000000e+00 7.4452945545209017e+00 1.2852846501195845e+01 4.3506787824006095e+00 
35 1 2 9.9999999999897185e-03 1.4847764079273861e-02 1.0000000000000000e+00 7.3164448558738213e+00 1.2142169949047188e+01 5.3595071822447418e+00 
43 1 2 9.9999999999793917e-03 5.2583015956885915e-02 1.0000000000000000e+00 7.5094912772871281e+00 1.2697984527474720e+01 5.5312813998182264e+00 
170 1 2 9.9999999999862352e-03 -2.1966990599477772e-02 1.0000000000000000e+00 1.1091293031079047e+01 1.2218529660465158e+01 4.0308626639585503e+00 
106 1 2 1.0000000000086698e-02 -2.9286253272686216e-02 1.0000000000000000e+00 9.2287593816751929e+00 1.2945376068639458e+01 4.1208696820974788e+00 
242 1 2 1.0000000000006674e-02 1.1507197844880168e-01 1.0000000000000000e+00 1.2474387493419473e+01 1.3706922917051813e+01 4.0361718593870153e+00 
234 1 2 1.0000000000046120e-02 -2.3862352596083249e-02 1.0000000000000000e+00 1.1408523455907048e+01 1.2423412862629501e+01 4.6006188556035186e+00 
50 1 2 9.9999999999983592e-03 -6.2821385701510371e-02 1.0000000000000000e+00 6.9138379790083588e+00 1.5553736846811512e+01 5.0872169601193375e+00 
178 1 2 9.9999999999779293e-03 -3.1750613247847212e-02 1.0000000000000000e+00 1.0107036334133349e+01 1.4300805897161895e+01 4.4662004023831168e+00 
114 1 2 9.9999999999726315e-03 -4.8997702344026312e-02 1.0000000000000000e+00 9.3264642802844655e+00 1.4361119282245983e+01 4.9924116368721148e+00 
250 1 2 1.0000000000030009e-02 -1.8360022348694469e-02 1.0000000000000000e+00 1.2404670105027936e+01 1.5767470820588390e+01 5.0693806160229578e+00 
58 1 2 1.0000000000016896e-02 8.3330058254417888e-03 1.0000000000000000e+00 7.7491723451217718e+00 1.7203839552887803e+01 4.8890552833789007e+00 
2 1 2 9.9999999999661575e-03 5.4718825127660770e-02 1.0000000000000000e+00 7.4632397919398459e+00 1.7283650527806195e+01 4.6875020715562261e+00 
122 1 2 9.9999999999658938e-03 6.0843079686904195e-02 1.0000000000000000e+00 9.9592518858816756e+00 1.7682980148836442e+01 4.6038216727713603e+00 
187 1 2 9.9999999999295115e-03 2.0247032549319130e-01 1.0000000000000000e+00 1.1444431831543975e+01 1.6567765831450643e+01 5.5114438926885487e+00 
66 1 2 1.0000000000001426e-02 9.3122427579496792e-02 1.0000000000000000e+00 9.8078322472507438e+00 1.8612977847018641e+01 4.0242703594458300e+00 
44 1 2 9.9999999999736810e-03 9.9365025865059339e-03 1.0000000000000000e+00 7.8456942461526102e+00 1.1699298867037143e+01 7.1473719635710538e+00 
99 1 2 9.9999999999937691e-03 -1.2859803164090886e-01 1.0000000000000000e+00 8.7346676678945183e+00 1.0325762052626491e+01 6.2763346880716400e+00 
36 1 2 9.9999999999804551e-03 -1.4324010476782379e-03 1.0000000000000000e+00 7.7869876214742524e+00 1.1378761851729321e+01 6.9352283635651499e+00 
100 1 2 1.0000000000037554e-02 -1.4316998463232714e-01 1.0000000000000000e+00 9.4250083094428110e+00 1.0397237697826551e+01 7.2538328488015367e+00 
163 1 2 1.0000000000023847e-02 -6.3141685425778610e-02 1.0000000000000000e+00 1.0628705433513590e+01 1.1232875621780947e+01 6.4282312677251845e+00 
227 1 2 9.9999999998176721e-03 -1.2629600737493857e-02 1.0000000000000000e+00 1.2228374327772412e+01 1.0913687946223442e+01 6.4181616216994462e+00 
228 1 2 1.0000000000275667e-02 8.6377912644633997e-03 1.0000000000000000e+00 1.1653940473685948e+01 1.0025487252199648e+01 7.2304940839910179e+00 
236 1 2 9.9999999999697900e-03 -2.4029558971910281e-02 1.0000000000000000e+00 1.2039526178212881e+01 1.1969146724726075e+01 7.5309260559891644e+00 
108 1 2 9.9999999999252874e-03 2.2132998849034448e-02 1.0000000000000000e+00 8.9241778669998943e+00 1.2116403641780238e+01 7.7556523052203543e+00 
107 1 2 1.0000000000196697e-02 -9.3291360009983091e-03 1.0000000000000000e+00 9.1486052532720308e+00 1.2919194706287788e+01 6.5096569436118283e+00 
171 1 2 9.9999999996501446e-03 -2.8368720742037917e-02 1.0000000000000000e+00 1.0591897289591635e+01 1.3149050675931473e+01 6.2655828316908817e+00 
172 1 2 1.0000000000105818e-02 -8.6289519526934269e-03 1.0000000000000000e+00 1.1003724426107850e+01 1.2491188572162427e+01 7.5219959602324309e+00 