LAMMPS data file via write_data, version 30 Jul 2016, timestep = 50400000

384 atoms
2 atom types

0.0000000000000000e+00 2.0000000000000000e+01 xlo xhi
0.0000000000000000e+00 2.0000000000000000e+01 ylo yhi
0.0000000000000000e+00 2.0000000000000000e+01 zlo zhi

Masses

1 3.89
2 2.094

Atoms # meso-molecular

322 1 2 4.9999999999999961e-01 1.3345137085628998e+01 1.0000000000000000e+00 6.0867479273776082e-01 9.1973919957075037e+00 5.8404227724748194e+00 
258 1 2 5.0000000000000233e-01 -1.4088580058214148e+01 1.0000000000000000e+00 6.0134877972225120e-01 9.1698684649247451e+00 5.8419258630177948e+00 
205 1 2 4.9999999999997846e-01 -4.5889031318095448e+00 1.0000000000000000e+00 3.5767219946779016e-01 9.1714942573812177e+00 5.8810000893373813e+00 
62 1 2 5.0000000000000167e-01 -1.9146113247028487e-01 1.0000000000000000e+00 2.3807193434945342e+00 7.7132420974014098e+00 1.8906490572087513e+01 
165 1 2 4.9999999999999895e-01 -1.7811146661858636e+01 1.0000000000000000e+00 2.5094452338150068e+00 7.9725804653533148e+00 1.9375821336417072e+01 
50 1 2 5.0000000000000622e-01 1.0982665978294406e+01 1.0000000000000000e+00 1.2189742687458569e+00 8.9790868710497751e+00 1.8950792302451564e+01 
58 1 2 5.0000000000000389e-01 4.3792674433273211e+00 1.0000000000000000e+00 5.4122723577212517e-01 9.7720731093511297e+00 1.8659507151718621e+01 
237 1 2 4.9999999999999939e-01 8.8369125529207455e+00 1.0000000000000000e+00 2.7211132763310002e+00 8.0039155325547391e+00 1.8934501840499191e+01 
18 1 2 4.9999999999996447e-01 -3.0335532439212320e+00 1.0000000000000000e+00 1.7821028884912232e-01 1.7265311025199374e+01 2.5397601532290222e+00 
108 1 2 5.0000000000000344e-01 -2.4084357447548612e+00 1.0000000000000000e+00 8.7429282038497469e-01 1.2060101918564357e+01 1.5014597958792374e+01 
100 1 2 4.9999999999999883e-01 -1.4111064963097601e+00 1.0000000000000000e+00 8.9018544754581530e-01 1.2114171715056683e+01 1.4758160039501462e+01 
36 1 2 5.0000000000000244e-01 -3.1163502954904554e-01 1.0000000000000000e+00 6.0974674058813927e-01 1.2146100833974046e+01 1.4741375725747883e+01 
294 1 2 4.9999999999997047e-01 6.6801503015424508e+00 1.0000000000000000e+00 5.5013491261773018e-01 1.4684885953643281e+01 1.4923741527547399e+01 
319 1 2 4.9999999999999278e-01 -6.3465385369560590e+00 1.0000000000000000e+00 7.7846133387510175e-01 1.3857045452387567e+01 1.6227559002834411e+01 
310 1 2 5.0000000000002898e-01 -7.0645202916515304e+00 1.0000000000000000e+00 1.8135763694455398e+00 1.4818797551886883e+01 1.7147162605867713e+01 
367 1 2 5.0000000000002098e-01 -3.8393035270875844e+00 1.0000000000000000e+00 1.9465082875090975e+00 1.5238670599681509e+01 1.6621899981083779e+01 
359 1 2 4.9999999999997913e-01 9.5612389078172093e+00 1.0000000000000000e+00 2.1303024327424134e+00 1.5046832267185813e+01 1.6671858284635334e+01 
49 1 2 4.9999999999999878e-01 -9.6538938177791387e+00 1.0000000000000000e+00 1.5112350152106167e+00 1.0182723502263576e+01 1.8566393520560091e+01 
42 1 2 4.9999999999999994e-01 -4.1476668778048946e+00 1.0000000000000000e+00 1.3299336704795319e+00 1.0124833239415736e+01 1.8204370933316646e+01 
348 1 2 4.9999999999989159e-01 -5.4934205763056987e+00 1.0000000000000000e+00 5.1836303683003426e-01 1.3959517989924015e+01 1.9429342402542016e+01 
349 1 2 4.9999999999998807e-01 -2.7961171087449632e-01 1.0000000000000000e+00 8.2792235864071051e-01 1.4172910496360911e+01 1.9378606135916865e+01 
356 1 2 5.0000000000002631e-01 -3.3225077195041721e+00 1.0000000000000000e+00 9.7598141835814922e-01 1.5215102851871640e+01 1.8986642784453608e+01 
347 1 2 5.0000000000005940e-01 3.4932390228615744e+00 1.0000000000000000e+00 7.1231256503940965e-01 1.5899535789194239e+01 1.9466811614058372e+01 
321 1 2 4.9999999999998712e-01 1.4066033856136691e+01 1.0000000000000000e+00 1.3287287884320461e+01 3.3283718842607328e+00 1.5660397408860700e+00 
333 1 2 5.0000000000001443e-01 2.1728009238738717e+00 1.0000000000000000e+00 8.0221730119651671e+00 5.1669789443479450e+00 2.6632777302374899e-01 
63 1 2 4.9999999999998129e-01 -3.5566902401080185e+00 1.0000000000000000e+00 7.7502289564647091e+00 4.4351506464947779e+00 3.1310630551390162e-02 
326 1 2 4.9999999999999206e-01 -2.9926640163229798e+00 1.0000000000000000e+00 9.0189098008692543e+00 5.3013322774688092e+00 1.1702012674883520e+00 
54 1 2 4.9999999999998868e-01 1.5389323433427622e+01 1.0000000000000000e+00 9.9045138645091981e+00 5.3577081016016868e+00 1.3253883019016028e+00 
142 1 2 4.9999999999999845e-01 4.6404557388663763e+00 1.0000000000000000e+00 1.2307189031112628e+01 5.8480437201232283e+00 2.7482933686184485e-01 
222 1 2 4.9999999999999101e-01 -9.6092407475453756e-01 1.0000000000000000e+00 1.2300906563626558e+01 5.8498611387784267e+00 3.1144428828239484e-01 
219 1 2 5.0000000000000888e-01 6.6986618086011065e+00 1.0000000000000000e+00 1.3253241794751503e+01 4.7703684022296615e+00 9.5499026805716625e-01 
262 1 2 4.9999999999999917e-01 -7.2709935248723507e+00 1.0000000000000000e+00 9.8331400925926342e+00 6.5728474225227451e+00 6.9660179450026949e-01 
270 1 2 5.0000000000000733e-01 -2.8375467287862746e+00 1.0000000000000000e+00 9.5083088799118816e+00 6.4171087708660473e+00 1.9995400344679540e-01 
221 1 2 5.0000000000001821e-01 8.8713701602447941e+00 1.0000000000000000e+00 1.3019863071004247e+01 6.5734306443150796e+00 2.3877201569767806e-01 
13 1 2 4.9999999999999706e-01 -5.0714425854177936e+00 1.0000000000000000e+00 1.1784355130741197e+01 2.7769534096330215e+00 3.6789469183943511e+00 
156 1 2 4.9999999999999528e-01 -2.0704290527661278e+00 1.0000000000000000e+00 1.1960923059406891e+01 3.0631702656853741e+00 3.3620666192880853e+00 
334 1 2 5.0000000000001288e-01 1.5055001452241339e+00 1.0000000000000000e+00 1.0523848606854640e+01 6.3454457756549667e+00 2.1115100073407302e+00 
127 1 2 4.9999999999998013e-01 4.6509559056881606e+00 1.0000000000000000e+00 1.1193398118498823e+01 6.3272321548712256e+00 2.4171962410427694e+00 
120 1 2 4.9999999999998856e-01 3.3583359367309900e+00 1.0000000000000000e+00 1.1339231358272432e+01 7.1577009207334266e+00 3.5010241406913325e+00 
192 1 2 5.0000000000002831e-01 6.0058712654498718e+00 1.0000000000000000e+00 1.1651289791019000e+01 6.8739557600210750e+00 3.0920545376439681e+00 
56 1 2 4.9999999999999678e-01 1.5833152638904316e+01 1.0000000000000000e+00 9.8196385512234770e+00 3.5489320158625177e+00 4.8324578088665850e+00 
48 1 2 4.9999999999999417e-01 -1.3751811182628131e+01 1.0000000000000000e+00 9.7495991610250865e+00 3.6088125290709465e+00 4.8857429036589561e+00 
41 1 2 5.0000000000000167e-01 -1.9373343441417867e+00 1.0000000000000000e+00 1.0086596650876352e+01 3.9830385694058807e+00 4.9555816733479299e+00 
12 1 2 5.0000000000000666e-01 -1.5992057637578010e+00 1.0000000000000000e+00 1.2855425080508905e+01 3.1490797972828317e+00 4.1837244268555560e+00 
76 1 2 4.9999999999998113e-01 -4.6463982674886948e+00 1.0000000000000000e+00 1.2508133208192511e+01 3.0653459547717792e+00 4.4647676091100506e+00 
117 1 2 5.0000000000000067e-01 -9.0097474136023621e+00 1.0000000000000000e+00 9.0040828713733365e+00 7.4092837056967653e+00 5.6168210330762447e+00 
52 1 2 4.9999999999999517e-01 8.5297324503240568e-01 1.0000000000000000e+00 9.2833848260869996e+00 6.7945583362003781e+00 5.0649392039786170e+00 
5 1 2 4.9999999999999140e-01 -4.9126325235159598e+00 1.0000000000000000e+00 9.7700280844114324e+00 6.9861356594839545e+00 4.8592838018887248e+00 
133 1 2 5.0000000000003153e-01 -2.0234010127773322e-01 1.0000000000000000e+00 8.8410608650070532e+00 9.2167671935244986e+00 5.2646368679186262e+00 
61 1 2 5.0000000000000300e-01 6.8547016672756573e+00 1.0000000000000000e+00 9.2336141368700577e+00 8.0370426145540801e+00 4.5459880413665781e+00 
69 1 2 4.9999999999995393e-01 7.6407947606143078e-01 1.0000000000000000e+00 9.3177682468352963e+00 9.5251950006709247e+00 5.6256677667464832e+00 
132 1 2 5.0000000000000333e-01 3.4481171166810856e+00 1.0000000000000000e+00 9.5733415038149197e+00 9.3778816020975579e+00 5.8486269810172606e+00 
16 1 2 4.9999999999998590e-01 -2.3376941749246516e+00 1.0000000000000000e+00 1.1905390285169977e+01 8.1282875934373600e+00 4.1848082848677350e+00 
79 1 2 5.0000000000000422e-01 2.0513039387112447e-01 1.0000000000000000e+00 1.1907380951799357e+01 8.6793079401369351e+00 5.0107331189236248e+00 
64 1 2 5.0000000000000366e-01 -1.2147203752116900e+00 1.0000000000000000e+00 1.1916913287251404e+01 9.0735677014995542e+00 4.6454902536011335e+00 
360 1 2 5.0000000000002065e-01 -1.2168229817714269e+00 1.0000000000000000e+00 1.0764701447552419e+01 3.2784232804309439e+00 6.9633681328589558e+00 
273 1 2 4.9999999999998584e-01 7.0567681138342520e-01 1.0000000000000000e+00 1.0828311885231368e+01 3.4839616530883961e+00 7.0609795802462507e+00 
289 1 2 5.0000000000000133e-01 -9.2517723413185458e+00 1.0000000000000000e+00 1.1067834100046923e+01 3.7141452742036991e+00 6.5536526411223761e+00 
285 1 2 4.9999999999998734e-01 -9.7116200293115398e+00 1.0000000000000000e+00 1.2816757030152475e+01 2.8217000066500733e+00 7.6216837129865063e+00 
68 1 2 4.9999999999998723e-01 3.5845420043447787e+00 1.0000000000000000e+00 1.2822222074956883e+01 2.8206220335880947e+00 7.6252531886353774e+00 
128 1 2 5.0000000000001332e-01 9.0980351976425098e+00 1.0000000000000000e+00 1.1048078240155393e+01 8.0576372100495330e+00 6.6386480145632945e+00 
8 1 2 4.9999999999999845e-01 -5.5521299809691467e+00 1.0000000000000000e+00 1.1027848933243327e+01 8.3955930648859969e+00 7.0603600090096865e+00 
72 1 2 4.9999999999999833e-01 -1.9372074949814056e+01 1.0000000000000000e+00 1.1027934654496166e+01 8.3890726474223687e+00 7.0615215834700944e+00 
361 1 2 5.0000000000004563e-01 1.3789930179655885e+00 1.0000000000000000e+00 1.0784024146797435e+01 1.3193325923845636e+00 8.3926016945955837e+00 
384 1 2 5.0000000000003431e-01 6.9898009026783408e+00 1.0000000000000000e+00 1.0841185019135244e+01 1.3313729333087434e+00 8.4607930123272617e+00 
313 1 2 4.9999999999995876e-01 -1.7490830266895038e+01 1.0000000000000000e+00 1.0914407637009367e+01 1.0306418210684323e+00 8.4441457107247455e+00 
149 1 2 5.0000000000000522e-01 1.0179698364983196e+00 1.0000000000000000e+00 1.2138110791413165e+01 5.5419772704610875e+00 9.0852855068215881e+00 
220 1 2 5.0000000000000455e-01 -2.9571695146920765e+00 1.0000000000000000e+00 1.2295153767171341e+01 5.4977145813102286e+00 8.8918118820304279e+00 
228 1 2 4.9999999999999512e-01 -2.5878703257132241e+00 1.0000000000000000e+00 1.2180489808949641e+01 6.4700198661458526e+00 9.2791600314151523e+00 
284 1 2 4.9999999999999439e-01 -3.1077124034616803e+00 1.0000000000000000e+00 1.3018555238602861e+01 6.5966573893734655e+00 8.7223341811635251e+00 
92 1 2 4.9999999999996980e-01 2.9106675141636411e+00 1.0000000000000000e+00 1.1329268501537756e+01 8.8913822635262427e+00 9.7974857436405678e+00 
20 1 2 4.9999999999973660e-01 2.6683283125193600e+00 1.0000000000000000e+00 1.1616270852086682e+01 8.5431551787962920e+00 9.6180588707562666e+00 
93 1 2 5.0000000000029388e-01 2.6494733957760612e+00 1.0000000000000000e+00 1.1601580875448070e+01 8.5410557150066442e+00 9.5829344972606663e+00 
38 1 2 5.0000000000001710e-01 -6.8524048554277917e+00 1.0000000000000000e+00 9.8447688735792731e+00 9.6886299227006951e+00 1.0485588230046472e+01 
158 1 2 5.0000000000006872e-01 -3.5980228487585801e+00 1.0000000000000000e+00 9.5590959902369281e+00 9.8937957831592040e+00 1.0853020510694947e+01 
37 1 2 4.9999999999996325e-01 2.1308470576720380e+00 1.0000000000000000e+00 9.1184137639411240e+00 9.9855705054514043e+00 1.0612992118293352e+01 
324 1 2 5.0000000000000067e-01 2.7949062314097226e+00 1.0000000000000000e+00 1.2040397891529150e+01 1.9597536135649771e+00 1.4068989872687920e+01 
339 1 2 5.0000000000002021e-01 1.0501631047238504e+01 1.0000000000000000e+00 1.2137755747114696e+01 2.1558292444515912e+00 1.4021863612581729e+01 
325 1 2 5.0000000000001776e-01 8.2859303304005949e-01 1.0000000000000000e+00 1.2478817086645504e+01 2.1796963343565761e+00 1.4117678881695202e+01 
173 1 2 5.0000000000002121e-01 -2.9063659913702455e+00 1.0000000000000000e+00 1.1154357941458377e+01 9.6686667383987306e+00 1.5439778808095824e+01 
87 1 2 5.0000000000003075e-01 7.0593272213147751e+00 1.0000000000000000e+00 1.1184354928603586e+01 9.6436179789478800e+00 1.5441960110083457e+01 
130 1 2 4.9999999999998568e-01 -4.5899252367539423e-01 1.0000000000000000e+00 1.3013783281506131e+01 3.0326400838202727e+00 1.7834275157173025e+01 
139 1 2 4.9999999999996858e-01 6.1722450529749144e+00 1.0000000000000000e+00 1.2986450523158434e+01 3.0432639009168327e+00 1.7952168650581346e+01 
47 1 2 4.9999999999997635e-01 7.1493374076529532e+00 1.0000000000000000e+00 1.0862007846988078e+01 7.2990760787350890e+00 1.7699013722249756e+01 
102 1 2 4.9999999999997863e-01 -5.8978159314173144e+00 1.0000000000000000e+00 1.0852869446226496e+01 7.3074659451692616e+00 1.7701646256052378e+01 
30 1 2 4.9999999999985983e-01 -2.1222911231961579e+00 1.0000000000000000e+00 1.0820522681477224e+01 8.9708596894861437e+00 1.6473198514723556e+01 
103 1 2 5.0000000000021494e-01 1.9574655792728395e+00 1.0000000000000000e+00 1.0951691089874478e+01 9.2451780756867716e+00 1.6574868575108713e+01 
65 1 2 4.9999999999999861e-01 -3.4103370251847496e+00 1.0000000000000000e+00 9.1554373428971338e+00 3.9052324616796938e+00 1.9440238383518022e+01 
39 1 2 4.9999999999994443e-01 8.8223163270647866e+00 1.0000000000000000e+00 7.9988909056311455e+00 4.2026688980325178e+00 1.9519211605712322e+01 
17 1 2 5.0000000000003020e-01 -1.9464588374803289e+00 1.0000000000000000e+00 9.9481701436742931e+00 4.2242469734933810e+00 1.9446580462792699e+01 
66 1 2 5.0000000000001454e-01 4.9084332592532078e+00 1.0000000000000000e+00 1.0328072596244771e+01 4.9783546912012850e+00 1.9118461235339051e+01 
101 1 2 4.9999999999995215e-01 9.6547390861851738e+00 1.0000000000000000e+00 1.0081068268016827e+01 5.6485054459614261e+00 1.8998698070105565e+01 
46 1 2 5.0000000000010791e-01 5.1689947447196509e+00 1.0000000000000000e+00 1.0713277530979976e+01 6.7922802796795985e+00 1.8059903464204329e+01 
231 1 2 5.0000000000001810e-01 1.6082155231776227e+01 1.0000000000000000e+00 1.3175300387783340e+01 7.7365214750454578e+00 1.8896912554288040e+01 
216 1 2 5.0000000000001732e-01 -3.7703802268434750e+00 1.0000000000000000e+00 1.2683881537076276e+01 7.8116707121090334e+00 1.9395118497486802e+01 
166 1 2 4.9999999999995776e-01 -6.7734903467713159e-01 1.0000000000000000e+00 1.3151200250382750e+01 7.6833936603695276e+00 1.8859162045930415e+01 
105 1 2 5.0000000000002331e-01 -1.8590076634495585e+00 1.0000000000000000e+00 8.7742407046448054e+00 1.3792933702997404e+01 3.8574722817877465e+00 
90 1 2 5.0000000000000588e-01 2.4044013008449561e+00 1.0000000000000000e+00 9.4229544267075980e+00 1.3704706015786234e+01 3.6405126889964605e+00 
169 1 2 5.0000000000002331e-01 3.7543118013110668e+00 1.0000000000000000e+00 9.4195840475081383e+00 1.4874899186099183e+01 3.7772994132947812e+00 
378 1 2 4.9999999999999734e-01 -3.1048524618287834e+00 1.0000000000000000e+00 1.1133410451774557e+01 1.7396346056860917e+01 3.3451941024354057e+00 
305 1 2 4.9999999999999728e-01 1.9235013916225312e+00 1.0000000000000000e+00 1.1137856292330873e+01 1.7389878529962790e+01 3.3477068508940553e+00 
308 1 2 4.9999999999996070e-01 -6.0789896256576483e+00 1.0000000000000000e+00 1.2926737421676295e+01 1.7363032760849137e+01 3.4954297160302916e+00 
364 1 2 5.0000000000000056e-01 8.3418366194622806e-01 1.0000000000000000e+00 9.5738622616102145e+00 1.8453720932202966e+01 3.4691928958402616e+00 
370 1 2 5.0000000000000011e-01 8.1650904471683350e-01 1.0000000000000000e+00 9.6217604947782132e+00 1.8445133497597968e+01 3.4501278162764795e+00 
183 1 2 4.9999999999999173e-01 -1.8004936672627951e+00 1.0000000000000000e+00 1.3255970565678828e+01 1.0148890528608561e+01 5.1540099980006069e+00 
190 1 2 4.9999999999999634e-01 -2.2302941855707763e+00 1.0000000000000000e+00 1.3298889905149903e+01 1.0232220623632450e+01 5.0381527401879342e+00 
235 1 2 5.0000000000000300e-01 3.6204928841766737e+00 1.0000000000000000e+00 9.3623214095114076e+00 1.3580764245307385e+01 4.6203941513685463e+00 
161 1 2 4.9999999999998468e-01 1.9758134591760161e+00 1.0000000000000000e+00 8.7343132653444382e+00 1.4482640132202917e+01 5.9459934782771402e+00 
306 1 2 4.9999999999996042e-01 -5.2734905149897084e+00 1.0000000000000000e+00 1.0046078626996195e+01 1.5661841029853216e+01 4.5473458370991899e+00 
121 1 2 5.0000000000000022e-01 1.7556271286776948e+01 1.0000000000000000e+00 6.9770692109096428e+00 1.6479377476386095e+01 5.0667433232599670e+00 
44 1 2 4.9999999999998151e-01 -4.3515162763500168e+00 1.0000000000000000e+00 7.1089353820485055e+00 1.6214897286103486e+01 5.3354732114103625e+00 
186 1 2 4.9999999999999534e-01 -3.2726015242477278e+00 1.0000000000000000e+00 8.4690872103794224e+00 1.6793339088549608e+01 4.6051611398647205e+00 
122 1 2 5.0000000000002187e-01 -5.0848709865047130e+00 1.0000000000000000e+00 8.9095047029196817e+00 1.6880225116618114e+01 4.3256231521523709e+00 
362 1 2 5.0000000000001199e-01 6.6476615664819887e+00 1.0000000000000000e+00 1.0497815119509163e+01 1.6092755721695788e+01 4.5906254701496367e+00 
316 1 2 4.9999999999998418e-01 -6.2043846729144949e+00 1.0000000000000000e+00 1.0888684666664263e+01 1.7118573847891167e+01 5.2938618643073783e+00 
374 1 2 4.9999999999998573e-01 1.1348511023558085e+01 1.0000000000000000e+00 1.0828107313761068e+01 1.7945226568910236e+01 5.5530195257878576e+00 
185 1 2 5.0000000000000744e-01 -2.5983167521627157e+00 1.0000000000000000e+00 7.3054614441688113e+00 1.8066740903037509e+01 5.4720919645542816e+00 
51 1 2 4.9999999999998068e-01 1.6050418583817390e+01 1.0000000000000000e+00 7.3362228051856375e+00 1.8094066939779196e+01 5.7535433386940156e+00 
297 1 2 5.0000000000000044e-01 2.4390627901039559e+00 1.0000000000000000e+00 9.2638619199196803e+00 1.8762768436086890e+01 4.9227945014506043e+00 
377 1 2 5.0000000000001044e-01 -2.5908978529950710e+00 1.0000000000000000e+00 9.4161617405450269e+00 1.8655574009578999e+01 5.0944253445644980e+00 
315 1 2 5.0000000000003597e-01 2.4390749046485811e+00 1.0000000000000000e+00 1.1660702456405534e+01 1.8328804299265190e+01 4.6327323275282097e+00 
147 1 2 5.0000000000003231e-01 -1.3958776656166658e+00 1.0000000000000000e+00 1.2602582500486081e+01 1.8275513935119516e+01 5.4646318383942232e+00 
57 1 2 4.9999999999997480e-01 -1.5872558141104967e+01 1.0000000000000000e+00 7.0519702043836814e+00 1.3688407450447135e+01 7.0595832719056091e+00 
114 1 2 4.9999999999999500e-01 3.7142590117416663e-01 1.0000000000000000e+00 7.7089372361992883e+00 1.2657670044686975e+01 7.0439874109180094e+00 
177 1 2 5.0000000000000955e-01 -5.4606081983287318e+00 1.0000000000000000e+00 7.8071416245347143e+00 1.2767209736454792e+01 7.5795510486752455e+00 
178 1 2 5.0000000000000222e-01 -1.6716153432815091e+00 1.0000000000000000e+00 8.0532556157020707e+00 1.3512448753028155e+01 6.0138158762717620e+00 
60 1 2 4.9999999999999734e-01 -6.0199322460788078e+00 1.0000000000000000e+00 1.1989450430961964e+01 1.3701124531144526e+01 6.1805573296737375e+00 
53 1 2 4.9999999999999994e-01 1.5786418226958176e+01 1.0000000000000000e+00 1.2393933866113633e+01 1.3986660508970868e+01 6.3405843181700341e+00 
115 1 2 5.0000000000000966e-01 -1.1427081646864270e+00 1.0000000000000000e+00 7.6441537828884831e+00 1.4405407088466655e+01 7.0947217045356918e+00 
123 1 2 5.0000000000003020e-01 -4.3386620793697857e+00 1.0000000000000000e+00 8.2314471295650176e+00 1.5950663838388103e+01 6.8290869465880437e+00 
300 1 2 5.0000000000001454e-01 -3.3978845239821402e+00 1.0000000000000000e+00 9.9490030438542298e+00 1.5154727234823930e+01 6.8243441305989130e+00 
292 1 2 5.0000000000001688e-01 7.8400519849209060e-01 1.0000000000000000e+00 9.9808488803025419e+00 1.4075547506294594e+01 6.5837982040549887e+00 
365 1 2 4.9999999999999228e-01 9.7948550341291103e+00 1.0000000000000000e+00 1.0447989712231605e+01 1.4033147495904236e+01 7.2174624094350506e+00 
383 1 2 5.0000000000001887e-01 4.9803031485518978e-01 1.0000000000000000e+00 1.1115477704495540e+01 1.5730224535851278e+01 7.3501091268542735e+00 
43 1 2 4.9999999999999895e-01 -1.2925649260399450e+01 1.0000000000000000e+00 1.2352685190975039e+01 1.4060019262525618e+01 6.1966642687428397e+00 
107 1 2 5.0000000000000888e-01 1.1615816275882558e+01 1.0000000000000000e+00 6.9478613990376594e+00 1.7137668099219674e+01 6.4951802629219282e+00 
363 1 2 4.9999999999998324e-01 2.6443574429544808e-01 1.0000000000000000e+00 8.1901867097141778e+00 1.6982768781062958e+01 7.0957868422889696e+00 
135 1 2 5.0000000000006117e-01 -1.4914609793178619e+00 1.0000000000000000e+00 1.1993591755844502e+01 1.7758362847999926e+01 7.7984082355318174e+00 
134 1 2 4.9999999999999040e-01 1.1715837079382984e+01 1.0000000000000000e+00 1.2648112355892055e+01 1.6150009285012121e+01 7.3491982183683984e+00 
254 1 2 4.9999999999998762e-01 5.4143285669793535e+00 1.0000000000000000e+00 1.2725800373705932e+01 1.6205378864532054e+01 7.4089368038263688e+00 
21 1 2 4.9999999999995276e-01 2.1224000149218254e+00 1.0000000000000000e+00 1.1969967433066198e+01 1.9259712056633230e+01 6.2033063473846140e+00 
3 1 2 5.0000000000000577e-01 -1.7880129226953095e+01 1.0000000000000000e+00 1.1958062357941573e+01 1.9270529522530634e+01 7.5549904838566020e+00 
11 1 2 5.0000000000000899e-01 -1.2800084298994328e+01 1.0000000000000000e+00 1.1999778870205029e+01 1.9263051601194253e+01 7.5752583949447692e+00 
83 1 2 4.9999999999999167e-01 2.0193648323989279e+00 1.0000000000000000e+00 1.3232512116002299e+01 1.8993964422879234e+01 6.3521109145002352e+00 
291 1 2 4.9999999999989014e-01 -1.4673646979115260e+00 1.0000000000000000e+00 9.2443947535324238e+00 1.1425204293157796e+01 9.7650029267203280e+00 
379 1 2 5.0000000000011879e-01 -2.8590419189369465e-01 1.0000000000000000e+00 9.0517419290531151e+00 1.1764836272724132e+01 9.9177256253264385e+00 
301 1 2 4.9999999999999578e-01 1.1296141654774498e+01 1.0000000000000000e+00 8.7392997377943864e+00 1.2318127137886226e+01 9.5136131843268270e+00 
239 1 2 5.0000000000004252e-01 -1.0277590420276127e+01 1.0000000000000000e+00 8.7493774542214737e+00 1.3919755473390570e+01 9.1282286732143572e+00 
299 1 2 4.9999999999994932e-01 -4.5514659777950062e+00 1.0000000000000000e+00 8.9682522962738460e+00 1.3498150188519752e+01 8.6877774969918793e+00 
125 1 2 4.9999999999990474e-01 -3.3682102951083657e+00 1.0000000000000000e+00 7.7051764017990507e+00 1.5305922390099562e+01 9.7014629508229167e+00 
381 1 2 5.0000000000002043e-01 -2.1745066872132952e+00 1.0000000000000000e+00 1.0383825656758201e+01 1.4469481194604718e+01 9.1583828863788099e+00 
317 1 2 5.0000000000000211e-01 -4.4579912171948688e-01 1.0000000000000000e+00 1.0396754852741815e+01 1.4364436760018886e+01 9.1285017536000392e+00 
311 1 2 5.0000000000000988e-01 -1.1744324461745075e+00 1.0000000000000000e+00 1.1514126098951351e+01 1.5100947053312359e+01 8.6482874996078980e+00 
251 1 2 5.0000000000001377e-01 9.3387506158140288e-01 1.0000000000000000e+00 8.5579824628276242e+00 1.6817053652271802e+01 8.2978182664856774e+00 
246 1 2 4.9999999999997052e-01 9.9226732116986778e+00 1.0000000000000000e+00 7.2360236763594852e+00 1.7893516579757691e+01 9.6296390444073765e+00 
124 1 2 4.9999999999997841e-01 -7.3319889922845576e+00 1.0000000000000000e+00 7.3892024703185699e+00 1.7950375156510752e+01 9.5516171740281006e+00 
380 1 2 4.9999999999999656e-01 -1.3826172306265024e+01 1.0000000000000000e+00 9.0769649888755044e+00 1.6281161082067808e+01 8.0731959999710305e+00 
86 1 2 5.0000000000020495e-01 2.1186837528096847e+00 1.0000000000000000e+00 9.8710535691481134e+00 1.7732043402191408e+01 9.1674853451262628e+00 
382 1 2 4.9999999999994355e-01 -1.0477225865183492e+01 1.0000000000000000e+00 1.0467506859547175e+01 1.7049859153427423e+01 8.2947065748055042e+00 
327 1 2 4.9999999999998579e-01 3.2049667742768539e+00 1.0000000000000000e+00 1.1430391739690819e+01 1.6186747200889297e+01 9.1040657597150716e+00 
197 1 2 5.0000000000000688e-01 -9.1123697199636684e+00 1.0000000000000000e+00 1.2033476102341828e+01 1.6939086728572988e+01 8.7387434594264324e+00 
59 1 2 4.9999999999996708e-01 -4.9622806661332000e+00 1.0000000000000000e+00 7.5216062206541716e+00 1.5359743215623043e+01 1.0048112387104457e+01 
371 1 2 5.0000000000009648e-01 7.9597998358827162e+00 1.0000000000000000e+00 7.9641105711147864e+00 1.4981606328857584e+01 1.0325121503039712e+01 
244 1 2 5.0000000000010880e-01 -1.4237732552155746e+00 1.0000000000000000e+00 7.9652057175681303e+00 1.7332795056812248e+01 1.0632322287949400e+01 
22 1 2 4.9999999999990197e-01 -5.1696833836203764e+00 1.0000000000000000e+00 9.5818042651487740e+00 1.7403061227317782e+01 1.0139423338112108e+01 
85 1 2 4.9999999999989986e-01 5.6899579776952667e+00 1.0000000000000000e+00 9.6160274947779651e+00 1.7366653099225388e+01 1.0123948195500098e+01 
180 1 2 4.9999999999998646e-01 -1.7511323418652915e+00 1.0000000000000000e+00 6.9515514222083175e+00 1.8332953099965707e+01 1.1493620559669758e+01 
179 1 2 4.9999999999998351e-01 4.9976104458567416e-01 1.0000000000000000e+00 7.0331185893849826e+00 1.9060727258614005e+01 1.0538190119463156e+01 
118 1 2 4.9999999999999811e-01 1.5745694382174866e+00 1.0000000000000000e+00 7.7326655952176075e+00 1.9170855801089704e+01 1.1114903601783821e+01 
320 1 2 5.0000000000010691e-01 5.9056074662540059e+00 1.0000000000000000e+00 1.1356827625155368e+01 1.8132986686048486e+01 1.1876612650248216e+01 
238 1 2 4.9999999999992606e-01 1.0291307305520611e+01 1.0000000000000000e+00 1.1518873590455428e+01 1.8116042158740484e+01 1.1929081872354278e+01 
366 1 2 4.9999999999992323e-01 1.0571857751585252e+01 1.0000000000000000e+00 1.1513830670420575e+01 1.8098649054902573e+01 1.1938529547317376e+01 
174 1 2 4.9999999999996042e-01 1.5511898427220236e+00 1.0000000000000000e+00 1.0910252826018228e+01 1.3787825976754458e+01 1.3511079513013499e+01 
175 1 2 5.0000000000001277e-01 -6.5963397874317007e+00 1.0000000000000000e+00 1.0965911565964374e+01 1.3765738291688013e+01 1.3500089432574658e+01 
295 1 2 4.9999999999994055e-01 -4.0290386828817848e+00 1.0000000000000000e+00 7.0838283124695360e+00 1.5908526897944467e+01 1.2014835658261811e+01 
357 1 2 4.9999999999970174e-01 3.9991985696249461e+00 1.0000000000000000e+00 9.1609176717111733e+00 1.4649668749513063e+01 1.2019802243147732e+01 
350 1 2 4.9999999999998768e-01 3.8723277908833085e+00 1.0000000000000000e+00 9.6053202558874258e+00 1.4509078874669379e+01 1.2164748949712033e+01 
358 1 2 5.0000000000025546e-01 -4.4851414705000252e+00 1.0000000000000000e+00 9.2022928702877937e+00 1.4714801396741507e+01 1.2167163678998305e+01 
303 1 2 4.9999999999993860e-01 -9.5938027670275017e-01 1.0000000000000000e+00 6.7369724666136497e+00 1.6361962425494916e+01 1.2224716947884675e+01 
372 1 2 5.0000000000004929e-01 7.3037801445724493e-01 1.0000000000000000e+00 7.0659839200350589e+00 1.6179957796125020e+01 1.2596949961112454e+01 
373 1 2 5.0000000000000155e-01 -1.5797853358946350e+00 1.0000000000000000e+00 8.0371922997716485e+00 1.7449030059386029e+01 1.2937945128347049e+01 
126 1 2 4.9999999999998901e-01 6.1291992379667293e-01 1.0000000000000000e+00 7.9830856209808916e+00 1.8892583941872523e+01 1.2302449724837521e+01 
293 1 2 4.9999999999999223e-01 -6.1597729078649199e-01 1.0000000000000000e+00 8.9605569497311208e+00 1.8049582723504152e+01 1.2804318688843697e+01 
230 1 2 4.9999999999999234e-01 -2.0795181504056148e+00 1.0000000000000000e+00 8.9598843889104138e+00 1.8050690928320783e+01 1.2806427903949215e+01 
181 1 2 5.0000000000004263e-01 2.0604647626251325e+00 1.0000000000000000e+00 1.2780896329667398e+01 1.9879992764701512e+01 1.3643914489474593e+01 
182 1 2 4.9999999999991052e-01 1.8672095138130160e+00 1.0000000000000000e+00 1.2529931835005261e+01 1.9772298513029831e+01 1.3814821988944392e+01 
312 1 2 5.0000000000011502e-01 1.6331361974797425e+00 1.0000000000000000e+00 1.2733098145672903e+01 1.9802457944754345e+01 1.3980942661941549e+01 
167 1 2 5.0000000000000122e-01 -3.6838035859664071e+00 1.0000000000000000e+00 1.0424591143621084e+01 1.1956592775264259e+01 1.4297100889303300e+01 
45 1 2 5.0000000000000300e-01 8.6994129533515210e+00 1.0000000000000000e+00 1.0997135476331026e+01 1.1697917540486502e+01 1.4941226799432497e+01 
159 1 2 5.0000000000002220e-01 -8.3754562357707762e-01 1.0000000000000000e+00 1.0180852899487764e+01 1.2528303407390814e+01 1.4313005846410233e+01 
151 1 2 5.0000000000000488e-01 -2.2321017741471292e+00 1.0000000000000000e+00 1.1684743839565231e+01 1.3625584372312440e+01 1.4340701617936270e+01 
70 1 2 4.9999999999996952e-01 4.1059174969072210e+00 1.0000000000000000e+00 1.1920878206944080e+01 1.2194212525349910e+01 1.4992471975284277e+01 
7 1 2 5.0000000000007339e-01 -2.1192488517617836e-01 1.0000000000000000e+00 1.2275142725999547e+01 1.3092931177596157e+01 1.5668442252060808e+01 
88 1 2 4.9999999999999556e-01 -3.2792238373435421e+00 1.0000000000000000e+00 1.3252865460975350e+01 1.4809526486635612e+01 1.5649748520401763e+01 
96 1 2 5.0000000000017464e-01 -8.0525099275386687e+00 1.0000000000000000e+00 1.3248923392783013e+01 1.2693047343672799e+01 1.6977371509270142e+01 
286 1 2 5.0000000000003220e-01 3.3995454350672185e+00 1.0000000000000000e+00 1.3324274822182653e+01 1.5543231774769525e+01 1.9889106846495942e+01 
267 1 2 4.9999999999999090e-01 7.1864635218271147e+00 1.0000000000000000e+00 1.6861348351612868e+01 2.1676349448956600e-01 1.6308457273887422e+00 
266 1 2 4.9999999999999123e-01 4.9616982875359854e+00 1.0000000000000000e+00 1.6875421892734074e+01 1.7146029805044627e-01 1.6473486178868664e+00 
202 1 2 4.9999999999995504e-01 -2.8294150395949140e+00 1.0000000000000000e+00 1.7518782646672655e+01 1.2994740775087930e+00 4.8205757211471374e-03 
131 1 2 5.0000000000003464e-01 -9.9712286406398736e+00 1.0000000000000000e+00 1.7907257652195284e+01 5.4229839435727978e-01 3.9686952573223599e-01 
263 1 2 5.0000000000000189e-01 1.2487715129852290e+00 1.0000000000000000e+00 1.4288302108591189e+01 3.0890678648183538e+00 1.7705380380750466e-01 