LAMMPS data file via write_data, version 30 Jul 2016, timestep = 50400000

180 atoms
2 atom types

0.0000000000000000e+00 2.0000000000000000e+01 xlo xhi
0.0000000000000000e+00 2.0000000000000000e+01 ylo yhi
0.0000000000000000e+00 2.0000000000000000e+01 zlo zhi

Masses

1 3.896
2 4.31

Atoms # meso-molecular

1 1 2 6.5599213600164252e-01 -6.1760871794078696e+02 1.0000000000000000e+00 8.7509952866345859e+00 6.9071159975834382e+00 4.6296849965356142e+00 
79 1 2 6.5599213600164252e-01 -4.0932114947719265e+02 1.0000000000000000e+00 8.7509952866345859e+00 6.9071159975834382e+00 4.6296849965356142e+00 
43 1 2 6.5599213600164252e-01 -5.0494325843904448e+02 1.0000000000000000e+00 8.7509952866345859e+00 6.9071159975834382e+00 4.6296849965356142e+00 
7 1 2 6.5599213600164252e-01 -6.8209706054569551e+02 1.0000000000000000e+00 8.7509952866345859e+00 6.9071159975834382e+00 4.6296849965356142e+00 
44 1 2 6.5599213600164252e-01 -5.5982691338453515e+02 1.0000000000000000e+00 8.7509952866345859e+00 6.9071159975834382e+00 4.6296849965356142e+00 
80 1 2 6.5599213600164252e-01 -5.1912128454034462e+02 1.0000000000000000e+00 8.7509952866345859e+00 6.9071159975834382e+00 4.6296849965356142e+00 
49 1 2 6.5599213600164252e-01 -5.9505391170241114e+02 1.0000000000000000e+00 8.7509952866345859e+00 6.9071159975834382e+00 4.6296849965356142e+00 
50 1 2 6.5599213600164252e-01 -6.0402033674375150e+02 1.0000000000000000e+00 8.7509952866345859e+00 6.9071159975834382e+00 4.6296849965356142e+00 
56 1 2 6.5599213600164252e-01 -5.8329372022668201e+02 1.0000000000000000e+00 8.7509952866345859e+00 6.9071159975834382e+00 4.6296849965356142e+00 
85 1 2 6.5599213600164252e-01 -4.7671197699165293e+02 1.0000000000000000e+00 8.7509952866345859e+00 6.9071159975834382e+00 4.6296849965356142e+00 
86 1 2 6.5599213600164252e-01 -4.8318632446740969e+02 1.0000000000000000e+00 8.7509952866345859e+00 6.9071159975834382e+00 4.6296849965356142e+00 
92 1 2 6.5599213600164252e-01 -4.0311045928505041e+02 1.0000000000000000e+00 8.7509952866345859e+00 6.9071159975834382e+00 4.6296849965356142e+00 
13 1 2 6.5599213600164252e-01 -6.3199382869390217e+02 1.0000000000000000e+00 8.7509952866345859e+00 6.9071159975834382e+00 4.6296849965356142e+00 
8 1 2 6.5599213600164252e-01 -6.1657240355852321e+02 1.0000000000000000e+00 8.7509952866345859e+00 6.9071159975834382e+00 4.6296849965356142e+00 
14 1 2 6.5599213600164252e-01 -6.3045488724452207e+02 1.0000000000000000e+00 8.7509952866345859e+00 6.9071159975834382e+00 4.6296849965356142e+00 
55 1 2 6.5599213600164252e-01 -5.0321144918727197e+02 1.0000000000000000e+00 8.7509952866345859e+00 6.9071159975834382e+00 4.6296849965356142e+00 
19 1 2 6.5599213600164252e-01 -7.9840443627269804e+02 1.0000000000000000e+00 8.7509952866345859e+00 6.9071159975834382e+00 4.6296849965356142e+00 
20 1 2 6.5599213600164252e-01 -7.6923917716815981e+02 1.0000000000000000e+00 8.7509952866345859e+00 6.9071159975834382e+00 4.6296849965356142e+00 
21 1 2 6.5599213600164252e-01 -6.6491547488274125e+02 1.0000000000000000e+00 8.7509952866345859e+00 6.9071159975834382e+00 4.6296849965356142e+00 
51 1 2 6.5599213600164252e-01 -5.0679097393185162e+02 1.0000000000000000e+00 8.7509952866345859e+00 6.9071159975834382e+00 4.6296849965356142e+00 
9 1 2 6.5599213600164252e-01 -5.6563378960356499e+02 1.0000000000000000e+00 8.7509952866345859e+00 6.9071159975834382e+00 4.6296849965356142e+00 
15 1 2 6.5599213600164252e-01 -5.4245013173573898e+02 1.0000000000000000e+00 8.7509952866345859e+00 6.9071159975834382e+00 4.6296849965356142e+00 
87 1 2 6.5599213600164252e-01 -3.7343677419205505e+02 1.0000000000000000e+00 8.7509952866345859e+00 6.9071159975834382e+00 4.6296849965356142e+00 
57 1 2 6.5599213600164252e-01 -3.0988508840987328e+02 1.0000000000000000e+00 8.7509952866345859e+00 6.9071159975834382e+00 4.6296849965356142e+00 
110 1 2 1.0274797093962640e+00 -5.2497898570578343e+02 1.0000000000000000e+00 1.2237616838288544e+01 6.8565719562535739e+00 9.5048115737520433e+00 
152 1 2 1.0274797764992598e+00 -6.3182109609925806e+02 1.0000000000000000e+00 1.2237621781588334e+01 6.8565718280910755e+00 9.5048161194834542e+00 
146 1 2 1.0274797914705771e+00 -6.4464754912644571e+02 1.0000000000000000e+00 1.2237622875921756e+01 6.8565717853909698e+00 9.5048171367220302e+00 
153 1 2 1.0274800640964392e+00 -6.7624107212469198e+02 1.0000000000000000e+00 1.2237643136316642e+01 6.8565715529282203e+00 9.5048355449561939e+00 
147 1 2 1.0274800275804465e+00 -6.2893043714907571e+02 1.0000000000000000e+00 1.2237640397281359e+01 6.8565715426305918e+00 9.5048330880703169e+00 
116 1 2 1.0274800195115528e+00 -6.0992225515643850e+02 1.0000000000000000e+00 1.2237639829197974e+01 6.8565716014556291e+00 9.5048325320730935e+00 
111 1 2 1.0274800760676108e+00 -5.9729432824702906e+02 1.0000000000000000e+00 1.2237644017626804e+01 6.8565715289379172e+00 9.5048363562816327e+00 
117 1 2 1.0274802686870315e+00 -6.1963215890074684e+02 1.0000000000000000e+00 1.2237658480708687e+01 6.8565716064991173e+00 9.5048493120146080e+00 
112 1 2 1.0274805946843151e+00 -6.4078034591356527e+02 1.0000000000000000e+00 1.2237682992123222e+01 6.8565717886624045e+00 9.5048712307651986e+00 
159 1 2 1.0274807490416928e+00 -6.8555414732043243e+02 1.0000000000000000e+00 1.2237694786804258e+01 6.8565721834270050e+00 9.5048815441955927e+00 
123 1 2 1.0274807094624929e+00 -6.1553418728816450e+02 1.0000000000000000e+00 1.2237691801315378e+01 6.8565721461530380e+00 9.5048788859066224e+00 
148 1 2 1.0274807616977459e+00 -8.0071060283349675e+02 1.0000000000000000e+00 1.2237695583980859e+01 6.8565719363447810e+00 9.5048824497963391e+00 
81 1 2 1.0274811282504144e+00 -5.3115077612400194e+02 1.0000000000000000e+00 1.2237723326654448e+01 6.8565724311183347e+00 9.5049070394398463e+00 
118 1 2 1.0274815768788588e+00 -6.1900646382618675e+02 1.0000000000000000e+00 1.2237757268200520e+01 6.8565730061971415e+00 9.5049371476882989e+00 
160 1 2 1.0274823552906578e+00 -8.1227803544611743e+02 1.0000000000000000e+00 1.2237816251866484e+01 6.8565741316392321e+00 9.5049893769715350e+00 
154 1 2 1.0274828492700847e+00 -6.4203192688918784e+02 1.0000000000000000e+00 1.2237853440438103e+01 6.8565744317116959e+00 9.5050226210098767e+00 
131 1 2 1.0274832407841634e+00 -4.9742334638691102e+02 1.0000000000000000e+00 1.2237883733093962e+01 6.8565760061976491e+00 9.5050486884793699e+00 
124 1 2 1.0274831836776634e+00 -5.0594700126928950e+02 1.0000000000000000e+00 1.2237878990702445e+01 6.8565752444097994e+00 9.5050450000544178e+00 
89 1 2 1.0274833038713584e+00 -4.5220595070665092e+02 1.0000000000000000e+00 1.2237887898732282e+01 6.8565750824358966e+00 9.5050531418833426e+00 
125 1 2 1.0274832822541766e+00 -4.7766491461546889e+02 1.0000000000000000e+00 1.2237886191687696e+01 6.8565749391023925e+00 9.5050517145017803e+00 
161 1 2 1.0274834914934057e+00 -5.2265233863650792e+02 1.0000000000000000e+00 1.2237901105990023e+01 6.8565736801376893e+00 9.5050660987110192e+00 
119 1 2 1.0274838063618461e+00 -5.1887968104577601e+02 1.0000000000000000e+00 1.2237923745561083e+01 6.8565721041075181e+00 9.5050876788962277e+00 
126 1 2 1.0274844780438848e+00 -4.9991250769420515e+02 1.0000000000000000e+00 1.2237972222793664e+01 6.8565690254647613e+00 9.5051336643333784e+00 
40 1 2 9.3261347570211572e-01 -3.8420535435405895e+02 1.0000000000000000e+00 1.0492074988361892e+01 7.2860740144235594e+00 8.8008783671238291e+00 
90 1 2 1.0267548128525932e+00 -4.3139751804065014e+02 1.0000000000000000e+00 1.2694530856674062e+01 7.0057345878862005e+00 9.9491869335243699e+00 
52 1 2 1.0282182892237541e+00 -5.1176150607373273e+02 1.0000000000000000e+00 9.5274110449361924e+00 7.0371733449564866e+00 1.1987439922213179e+01 
4 1 2 1.0283865495426905e+00 -4.7019797911682195e+02 1.0000000000000000e+00 9.8771154674339510e+00 6.3282640042649039e+00 1.0570951911129198e+01 
75 1 2 1.0308729648581640e+00 -5.0584602061272045e+02 1.0000000000000000e+00 9.8023142839825894e+00 6.3284688870063412e+00 1.0946100977740603e+01 
76 1 2 1.0301868339634270e+00 -5.4974669245375333e+02 1.0000000000000000e+00 9.7321331503616175e+00 6.4129724272927895e+00 1.1308030853746615e+01 
45 1 2 1.0308557985472411e+00 -4.8951501985356953e+02 1.0000000000000000e+00 9.6919466180403546e+00 6.4416189154328167e+00 1.1128299864256530e+01 
46 1 2 1.0296204815295646e+00 -5.9497514785561384e+02 1.0000000000000000e+00 9.6805346207755463e+00 6.5065688252186300e+00 1.1464493080433526e+01 
41 1 2 1.0283113646714848e+00 -6.6971725996788007e+02 1.0000000000000000e+00 9.7858957174331049e+00 6.5084472205971036e+00 1.1723775100126609e+01 
77 1 2 1.0282328769507927e+00 -6.3389511806076246e+02 1.0000000000000000e+00 9.7854956761580070e+00 6.5214336062469940e+00 1.1745881034649026e+01 
82 1 2 1.0292132036142778e+00 -5.6868710128728662e+02 1.0000000000000000e+00 9.6650781545166851e+00 6.5641749116152930e+00 1.1574558903841005e+01 
42 1 2 1.0268759885949452e+00 -6.5767994213939096e+02 1.0000000000000000e+00 9.9693443396660868e+00 6.5486451314839158e+00 1.2004147139434608e+01 
6 1 2 1.0263034755139495e+00 -6.8765209250982025e+02 1.0000000000000000e+00 1.0088256948006224e+01 6.5542235296351548e+00 1.2100551382289016e+01 
78 1 2 1.0260074796771204e+00 -4.7289701491671508e+02 1.0000000000000000e+00 1.0158746493816752e+01 6.5630012494508856e+00 1.2151574491819581e+01 
5 1 2 1.0281885592255569e+00 -9.6941790276222116e+02 1.0000000000000000e+00 9.7392352743481077e+00 6.5995379572481188e+00 1.1797160423539657e+01 
84 1 2 1.0270016346496234e+00 -6.6433547199370150e+02 1.0000000000000000e+00 9.9158198044616768e+00 6.6004404137023647e+00 1.2016432476656771e+01 
12 1 2 1.0272855531634297e+00 -8.4031409981811612e+02 1.0000000000000000e+00 9.8340123058360032e+00 6.6583115974688845e+00 1.2000650678598015e+01 
48 1 2 1.0274574474122913e+00 -7.3643242356451299e+02 1.0000000000000000e+00 9.8036336298496636e+00 6.6621631881866872e+00 1.1970843349593618e+01 
47 1 2 1.0281927694512401e+00 -6.6032509769014530e+02 1.0000000000000000e+00 9.6681537707659064e+00 6.7219558640465324e+00 1.1857938108793958e+01 
83 1 2 1.0276459524355641e+00 -6.3912668327245638e+02 1.0000000000000000e+00 9.7430005499051777e+00 6.7223469164220235e+00 1.1967614536956782e+01 
11 1 2 1.0280249697776513e+00 -6.7784146177457501e+02 1.0000000000000000e+00 9.6675346278152450e+00 6.7651193096742110e+00 1.1912983126989126e+01 
10 1 2 1.0288998282833868e+00 -6.6812710368350213e+02 1.0000000000000000e+00 9.5518742357127771e+00 6.7984828939915234e+00 1.1740017115995572e+01 
95 1 2 1.0253805138677787e+00 -3.7574290611802996e+02 1.0000000000000000e+00 1.0568005043667469e+01 7.6717026751224937e+00 1.2923595824665105e+01 
53 1 2 1.0277324045054648e+00 -4.6402800585630087e+02 1.0000000000000000e+00 9.5716775336307283e+00 7.1414151336661558e+00 1.2144863662681557e+01 
54 1 2 1.0276867939666625e+00 -5.8722828678943608e+02 1.0000000000000000e+00 9.6304793224236267e+00 6.9739236802330886e+00 1.2082105170113133e+01 
18 1 2 1.0278495603479441e+00 -6.5455702835495174e+02 1.0000000000000000e+00 9.6331944025261009e+00 6.8975595112901784e+00 1.2011745200697302e+01 
17 1 2 1.0282881078700243e+00 -6.4514713168404580e+02 1.0000000000000000e+00 9.5576839379256580e+00 6.9326149127949348e+00 1.1929976320847549e+01 
16 1 2 1.0285478853417194e+00 -5.3912697474804361e+02 1.0000000000000000e+00 9.5163208080515744e+00 6.9561281068763039e+00 1.1879538566278564e+01 
88 1 2 1.0240528996967473e+00 -3.4638240144207481e+02 1.0000000000000000e+00 1.3270632248080563e+01 9.7828986949822774e+00 1.1175983207271779e+01 
61 1 2 4.3309835885128051e-01 -5.4765876941873580e+02 1.0000000000000000e+00 7.4892473411959495e+00 1.8467790046813491e+01 4.4751605400036363e+00 
25 1 2 4.3309835885128051e-01 -6.1971774568530714e+02 1.0000000000000000e+00 7.4892473411959495e+00 1.8467790046813491e+01 4.4751605400036460e+00 
62 1 2 4.3309835885128051e-01 -5.7700980223410693e+02 1.0000000000000000e+00 7.4892473411959077e+00 1.8467790046813491e+01 4.4751605400036372e+00 
67 1 2 4.3309835885128051e-01 -7.2132987997693601e+02 1.0000000000000000e+00 7.4892473411959237e+00 1.8467790046813491e+01 4.4751605400036318e+00 
68 1 2 4.3309835885128051e-01 -6.2585360250492135e+02 1.0000000000000000e+00 7.4892473411959326e+00 1.8467790046813601e+01 4.4751605400036425e+00 
2 1 2 4.3309835885128051e-01 -6.9614095473411453e+02 1.0000000000000000e+00 7.4892473411959353e+00 1.8467790046813537e+01 4.4751605400036381e+00 
32 1 2 4.3309835885128051e-01 -6.7344750348564048e+02 1.0000000000000000e+00 7.4892473411959317e+00 1.8467790046813501e+01 4.4751605400036416e+00 
26 1 2 4.3309835885128051e-01 -7.8535277686511063e+02 1.0000000000000000e+00 7.4892473411959495e+00 1.8467790046813491e+01 4.4751605400036309e+00 
31 1 2 4.3309835885128051e-01 -8.2774597146824897e+02 1.0000000000000000e+00 7.4892473411959068e+00 1.8467790046813491e+01 4.4751605400036167e+00 
38 1 2 4.3309835885128051e-01 -5.2452582696993352e+02 1.0000000000000000e+00 7.4892473411959291e+00 1.8467790046813537e+01 4.4751605400036372e+00 
74 1 2 4.3309835885128051e-01 -6.0369135746478275e+02 1.0000000000000000e+00 7.4892473411959291e+00 1.8467790046813537e+01 4.4751605400036416e+00 
37 1 2 4.3309835885128051e-01 -5.4987036505602498e+02 1.0000000000000000e+00 7.4892473411959291e+00 1.8467790046813537e+01 4.4751605400036363e+00 
69 1 2 4.3309835885128051e-01 -4.5726607827176753e+02 1.0000000000000000e+00 7.4892473411959317e+00 1.8467790046813537e+01 4.4751605400036372e+00 
33 1 2 4.3309835885128051e-01 -5.3780752382252331e+02 1.0000000000000000e+00 7.4892473411959291e+00 1.8467790046813537e+01 4.4751605400036372e+00 
39 1 2 4.3309835885128051e-01 -3.7363263497647796e+02 1.0000000000000000e+00 7.4892473411959291e+00 1.8467790046813537e+01 4.4751605400036372e+00 
3 1 2 4.3309835885128051e-01 -3.6926132170529820e+02 1.0000000000000000e+00 7.4892473411959291e+00 1.8467790046813537e+01 4.4751605400036372e+00 
59 1 2 1.0291369716118899e+00 -4.8726212270971797e+02 1.0000000000000000e+00 1.0346391025512563e+01 1.0872100909808847e+01 1.2354136435362234e+01 
65 1 2 1.0291370320644626e+00 -7.4639295753918861e+02 1.0000000000000000e+00 1.0346466552210572e+01 1.0872225106784281e+01 1.2354046304917842e+01 
64 1 2 1.0291371685218560e+00 -5.2519078026008333e+02 1.0000000000000000e+00 1.0346428466420617e+01 1.0872268409857277e+01 1.2353928201455652e+01 
23 1 2 1.0291369918088198e+00 -6.2608081373429036e+02 1.0000000000000000e+00 1.0346395319490245e+01 1.0872118606660177e+01 1.2354114894664711e+01 
22 1 2 1.0291370737749705e+00 -6.4156392071523373e+02 1.0000000000000000e+00 1.0346426672830725e+01 1.0872206252217561e+01 1.2354021766259473e+01 
24 1 2 1.0291369640157575e+00 -7.7003744234030523e+02 1.0000000000000000e+00 1.0346467101214627e+01 1.0872182548289512e+01 1.2354112744133012e+01 
29 1 2 1.0291370327622467e+00 -8.3311126290151390e+02 1.0000000000000000e+00 1.0346467266832118e+01 1.0872226361735807e+01 1.2354045328731887e+01 
35 1 2 1.0291370248717566e+00 -7.6161132811173843e+02 1.0000000000000000e+00 1.0346478386527743e+01 1.0872233992025501e+01 1.2354048506675786e+01 
28 1 2 1.0291371009827079e+00 -6.7066007847327160e+02 1.0000000000000000e+00 1.0346439194591197e+01 1.0872237747406967e+01 1.2353989983819885e+01 
58 1 2 1.0291371643841465e+00 -4.1168320622555245e+02 1.0000000000000000e+00 1.0346375499634480e+01 1.0872205588464247e+01 1.2353953940229999e+01 
27 1 2 1.0291371907857112e+00 -6.2805979055285866e+02 1.0000000000000000e+00 1.0346424140660982e+01 1.0872277620148422e+01 1.2353908157308179e+01 
60 1 2 1.0291369283243972e+00 -5.4608781349158335e+02 1.0000000000000000e+00 1.0346446509768249e+01 1.0872136496639071e+01 1.2354156133339485e+01 
63 1 2 1.0291372079265799e+00 -4.7927071137413600e+02 1.0000000000000000e+00 1.0346411031172092e+01 1.0872273597056935e+01 1.2353896729578315e+01 
72 1 2 1.0291369310366449e+00 -7.5009059589339938e+02 1.0000000000000000e+00 1.0346512472280727e+01 1.0872213183041044e+01 1.2354126478519527e+01 
30 1 2 1.0291369254841050e+00 -8.3683404590601458e+02 1.0000000000000000e+00 1.0346503510031839e+01 1.0872199473957451e+01 1.2354135586487082e+01 
70 1 2 1.0291372726950478e+00 -3.8282605424204070e+02 1.0000000000000000e+00 1.0346484368402690e+01 1.0872398036997316e+01 1.2353803220812880e+01 
66 1 2 1.0291369121167406e+00 -7.0759185566138478e+02 1.0000000000000000e+00 1.0346512587837136e+01 1.0872201307554588e+01 1.2354144965050773e+01 
36 1 2 1.0291369231103540e+00 -9.1020957563313925e+02 1.0000000000000000e+00 1.0346513542284793e+01 1.0872209368973135e+01 1.2354133805111941e+01 
107 1 2 1.0291370636239827e+00 -5.4866036832006398e+02 1.0000000000000000e+00 1.0346498853950299e+01 1.0872281843335470e+01 1.2354002159344304e+01 
71 1 2 1.0291370760904757e+00 -5.4914856964939702e+02 1.0000000000000000e+00 1.0346493991779415e+01 1.0872284228237410e+01 1.2353991935804016e+01 
34 1 2 1.0291372115078623e+00 -5.0076791737841819e+02 1.0000000000000000e+00 1.0346452739686375e+01 1.0872323270275455e+01 1.2353876139942365e+01 
94 1 2 1.0260043328220212e+00 -3.6471075097455093e+02 1.0000000000000000e+00 1.2766429741215253e+01 1.0869258953081619e+01 1.1199174858555903e+01 
106 1 2 1.0258692676267884e+00 -4.7376643813400528e+02 1.0000000000000000e+00 1.2836081343448136e+01 1.0765910825152298e+01 1.1116908139086162e+01 
93 1 2 1.0258950191602840e+00 -3.2892867901584407e+02 1.0000000000000000e+00 1.2803143020125633e+01 1.0825106136761541e+01 1.1196229311926306e+01 
105 1 2 1.0258682033469071e+00 -4.8890579925557796e+02 1.0000000000000000e+00 1.2835284986121742e+01 1.0767852596427952e+01 1.1120416763660705e+01 
99 1 2 1.0258811783026900e+00 -4.1003120659583612e+02 1.0000000000000000e+00 1.2827481204806883e+01 1.0780705382341827e+01 1.1131865583512210e+01 
100 1 2 1.0258896067940610e+00 -5.5056211510067578e+02 1.0000000000000000e+00 1.2829988458209657e+01 1.0773368955491872e+01 1.1115773308451997e+01 
142 1 2 1.0258829639065219e+00 -6.4987466547444785e+02 1.0000000000000000e+00 1.2833133491867578e+01 1.0768524752334185e+01 1.1112604494141211e+01 
135 1 2 1.0258876724803634e+00 -5.7495907399382679e+02 1.0000000000000000e+00 1.2830726749782777e+01 1.0772332409084907e+01 1.1115395991332827e+01 
130 1 2 1.0258991329986320e+00 -5.9125168353669983e+02 1.0000000000000000e+00 1.2825540818054593e+01 1.0780133128917678e+01 1.1120114030866736e+01 
137 1 2 1.0259075779254976e+00 -6.7775732216233121e+02 1.0000000000000000e+00 1.2829271587411229e+01 1.0770098133749501e+01 1.1100577026837856e+01 
141 1 2 1.0258805762784782e+00 -6.4956049092633305e+02 1.0000000000000000e+00 1.2833382196868660e+01 1.0768628288146108e+01 1.1114167653185060e+01 
136 1 2 1.0258879044028992e+00 -6.8932441576042038e+02 1.0000000000000000e+00 1.2831058739899559e+01 1.0771577906698793e+01 1.1114151255271658e+01 
129 1 2 1.0258743423147165e+00 -4.8582095396303805e+02 1.0000000000000000e+00 1.2810970598935713e+01 1.0814737620261255e+01 1.1192427480791880e+01 
143 1 2 1.0258965022469622e+00 -7.1716270359594091e+02 1.0000000000000000e+00 1.2832070561095707e+01 1.0767167314985588e+01 1.1102752636202528e+01 
166 1 2 1.0284263565339609e+00 -5.5886665409599675e+02 1.0000000000000000e+00 1.0117351255207213e+01 1.0070755957750656e+01 1.2806674901678338e+01 
167 1 2 1.0259650641723910e+00 -6.3290645927332685e+02 1.0000000000000000e+00 1.2807717568429277e+01 1.0799478945023127e+01 1.1110060108992112e+01 
179 1 2 1.0259116942382347e+00 -7.9729087087920925e+02 1.0000000000000000e+00 1.2830549123053627e+01 1.0766262200801338e+01 1.1092829933740004e+01 
171 1 2 1.0258883383651980e+00 -7.1225028429733743e+02 1.0000000000000000e+00 1.2830771716843069e+01 1.0772064557139620e+01 1.1114608168508665e+01 
173 1 2 1.0258986351756791e+00 -7.1308746456058759e+02 1.0000000000000000e+00 1.2829805725079934e+01 1.0771372955461212e+01 1.1107561094667597e+01 
177 1 2 1.0258729582514403e+00 -8.3662740713954054e+02 1.0000000000000000e+00 1.2836790775356404e+01 1.0763454159107933e+01 1.1111124698834223e+01 
172 1 2 1.0258885508619502e+00 -7.5381038163757125e+02 1.0000000000000000e+00 1.2831061238702166e+01 1.0771403373659634e+01 1.1113513670361325e+01 
178 1 2 1.0258848503953009e+00 -9.0372945676002519e+02 1.0000000000000000e+00 1.2833699028878520e+01 1.0766837740946080e+01 1.1109043720703948e+01 
113 1 2 3.5189241656666542e-01 -5.5299010220795276e+02 1.0000000000000000e+00 1.5205002359380650e+01 3.5518794340765507e+00 1.8209253214782926e+01 
149 1 2 3.5189241656666542e-01 -5.3928782453014617e+02 1.0000000000000000e+00 1.5205002359380664e+01 3.5518794340765556e+00 1.8209253214782940e+01 
114 1 2 3.5189241656666542e-01 -5.8889590904519434e+02 1.0000000000000000e+00 1.5205002359380646e+01 3.5518794340765560e+00 1.8209253214782894e+01 
120 1 2 3.5189241656666542e-01 -6.3827674809747032e+02 1.0000000000000000e+00 1.5205002359380668e+01 3.5518794340765552e+00 1.8209253214782901e+01 
150 1 2 3.5189241656666542e-01 -6.4015047843796856e+02 1.0000000000000000e+00 1.5205002359380654e+01 3.5518794340765529e+00 1.8209253214782905e+01 
156 1 2 3.5189241656666542e-01 -6.7030814143826524e+02 1.0000000000000000e+00 1.5205002359380668e+01 3.5518794340765467e+00 1.8209253214782937e+01 
151 1 2 3.5189241656666542e-01 -7.4551332683928797e+02 1.0000000000000000e+00 1.5205002359380654e+01 3.5518794340765552e+00 1.8209253214782922e+01 
162 1 2 3.5189241656666542e-01 -7.8267052459510842e+02 1.0000000000000000e+00 1.5205002359380684e+01 3.5518794340765583e+00 1.8209253214782844e+01 
115 1 2 3.5189241656666542e-01 -5.5435274402169523e+02 1.0000000000000000e+00 1.5205002359380668e+01 3.5518794340765552e+00 1.8209253214782919e+01 
73 1 2 3.5189241656666542e-01 -4.3182193567451554e+02 1.0000000000000000e+00 1.5205002359380659e+01 3.5518794340765569e+00 1.8209253214782919e+01 
145 1 2 3.5189241656666542e-01 -6.2297807644458601e+02 1.0000000000000000e+00 1.5205002359380659e+01 3.5518794340765552e+00 1.8209253214782919e+01 
109 1 2 3.5189241656666542e-01 -4.8099493298563243e+02 1.0000000000000000e+00 1.5205002359380659e+01 3.5518794340765552e+00 1.8209253214782919e+01 
155 1 2 3.5189241656666542e-01 -4.7519210380976460e+02 1.0000000000000000e+00 1.5205002359380659e+01 3.5518794340765534e+00 1.8209253214782894e+01 
127 1 2 8.6619671770256101e-01 -6.1236434163470858e+02 1.0000000000000000e+00 1.4119835742886636e+01 1.2972304181585759e+01 1.1244172696760204e+00 
128 1 2 8.6619671770256101e-01 -6.5636106702749464e+02 1.0000000000000000e+00 1.4119835742886670e+01 1.2972304181585759e+01 1.1244172696760204e+00 
133 1 2 8.6619671770256101e-01 -6.8973025207621993e+02 1.0000000000000000e+00 1.4119835742886567e+01 1.2972304181585690e+01 1.1244172696760129e+00 
134 1 2 8.6619671770256101e-01 -5.0784234132716875e+02 1.0000000000000000e+00 1.4119835742886670e+01 1.2972304181585759e+01 1.1244172696760204e+00 
163 1 2 8.6619671770256101e-01 -7.6444694169247623e+02 1.0000000000000000e+00 1.4119835742886670e+01 1.2972304181585759e+01 1.1244172696760204e+00 
169 1 2 8.6619671770256101e-01 -7.1376008827218027e+02 1.0000000000000000e+00 1.4119835742886670e+01 1.2972304181585690e+01 1.1244172696760204e+00 
170 1 2 8.6619671770256101e-01 -7.9656589250586853e+02 1.0000000000000000e+00 1.4119835742886636e+01 1.2972304181585759e+01 1.1244172696760204e+00 
97 1 2 8.6619671770256101e-01 -5.4863056311975356e+02 1.0000000000000000e+00 1.4119835742886567e+01 1.2972304181585690e+01 1.1244172696760129e+00 
98 1 2 8.6619671770256101e-01 -4.3110802712508945e+02 1.0000000000000000e+00 1.4119835742886670e+01 1.2972304181585759e+01 1.1244172696760204e+00 
164 1 2 8.6619671770256101e-01 -7.1209070281739514e+02 1.0000000000000000e+00 1.4119835742886670e+01 1.2972304181585759e+01 1.1244172696760204e+00 
104 1 2 8.6619671770256101e-01 -4.5719997907992314e+02 1.0000000000000000e+00 1.4119835742886567e+01 1.2972304181585773e+01 1.1244172696760129e+00 
91 1 2 8.6619671770256101e-01 -4.8275775222202276e+02 1.0000000000000000e+00 1.4119835742886636e+01 1.2972304181585759e+01 1.1244172696760204e+00 
175 1 2 8.6619671770256101e-01 -7.3041862887167076e+02 1.0000000000000000e+00 1.4119835742886567e+01 1.2972304181585711e+01 1.1244172696760129e+00 
139 1 2 8.6619671770256101e-01 -5.6201868812232283e+02 1.0000000000000000e+00 1.4119835742886567e+01 1.2972304181585796e+01 1.1244172696760129e+00 
176 1 2 8.6619671770256101e-01 -6.3291170791607749e+02 1.0000000000000000e+00 1.4119835742886670e+01 1.2972304181585773e+01 1.1244172696760204e+00 
140 1 2 8.6619671770256101e-01 -5.2387877119088057e+02 1.0000000000000000e+00 1.4119835742886670e+01 1.2972304181585773e+01 1.1244172696760204e+00 
165 1 2 8.6619671770256101e-01 -7.2391272772221737e+02 1.0000000000000000e+00 1.4119835742886670e+01 1.2972304181585759e+01 1.1244172696760204e+00 
121 1 2 8.6619671770256101e-01 -5.7620285464335768e+02 1.0000000000000000e+00 1.4119835742886670e+01 1.2972304181585759e+01 1.1244172696760204e+00 
157 1 2 8.6619671770256101e-01 -6.5312323778667667e+02 1.0000000000000000e+00 1.4119835742886670e+01 1.2972304181585759e+01 1.1244172696760204e+00 
103 1 2 8.6619671770256101e-01 -5.1373386266423631e+02 1.0000000000000000e+00 1.4119835742886567e+01 1.2972304181585724e+01 1.1244172696760129e+00 
158 1 2 8.6619671770256101e-01 -7.0186935178106455e+02 1.0000000000000000e+00 1.4119835742886670e+01 1.2972304181585766e+01 1.1244172696760204e+00 
122 1 2 8.6619671770256101e-01 -5.1957685258211302e+02 1.0000000000000000e+00 1.4119835742886670e+01 1.2972304181585759e+01 1.1244172696760204e+00 
138 1 2 8.6619671770256101e-01 -7.7431298569678484e+02 1.0000000000000000e+00 1.4119835742886567e+01 1.2972304181585681e+01 1.1244172696760129e+00 
144 1 2 8.6619671770256101e-01 -7.2890968690919271e+02 1.0000000000000000e+00 1.4119835742886567e+01 1.2972304181585720e+01 1.1244172696760129e+00 
180 1 2 8.6619671770256101e-01 -8.1088130916538387e+02 1.0000000000000000e+00 1.4119835742886567e+01 1.2972304181585683e+01 1.1244172696760129e+00 
174 1 2 8.6619671770256101e-01 -8.3623216470470584e+02 1.0000000000000000e+00 1.4119835742886567e+01 1.2972304181585804e+01 1.1244172696760129e+00 
132 1 2 8.6619671770256101e-01 -6.3044199142567834e+02 1.0000000000000000e+00 1.4119835742886567e+01 1.2972304181585775e+01 1.1244172696760129e+00 
168 1 2 8.6619671770256101e-01 -8.7266564791349720e+02 1.0000000000000000e+00 1.4119835742886567e+01 1.2972304181585685e+01 1.1244172696760129e+00 
102 1 2 8.6619671770256101e-01 -6.1442986200857069e+02 1.0000000000000000e+00 1.4119835742886567e+01 1.2972304181585750e+01 1.1244172696760129e+00 
96 1 2 8.6619671770256101e-01 -5.0869161243721794e+02 1.0000000000000000e+00 1.4119835742886567e+01 1.2972304181585677e+01 1.1244172696760129e+00 
108 1 2 8.6619671770256101e-01 -5.0301223421185165e+02 1.0000000000000000e+00 1.4119835742886567e+01 1.2972304181585683e+01 1.1244172696760129e+00 
101 1 2 8.6619671770256101e-01 -6.0395654316519585e+02 1.0000000000000000e+00 1.4119835742886567e+01 1.2972304181585759e+01 1.1244172696760129e+00 

Velocities

1 1.8328524817331888e-03 1.7696659445790114e-05 2.9370143271791787e-03
79 1.8328524817331888e-03 1.7696659445790114e-05 2.9370143271791787e-03
43 1.8328524817331888e-03 1.7696659445790114e-05 2.9370143271791787e-03
7 1.8328524817331888e-03 1.7696659445790114e-05 2.9370143271791787e-03
44 1.8328524817331888e-03 1.7696659445790114e-05 2.9370143271791787e-03
80 1.8328524817331888e-03 1.7696659445790114e-05 2.9370143271791787e-03
49 1.8328524817331888e-03 1.7696659445790114e-05 2.9370143271791787e-03
50 1.8328524817331888e-03 1.7696659445790114e-05 2.9370143271791787e-03
56 1.8328524817331888e-03 1.7696659445790114e-05 2.9370143271791787e-03
85 1.8328524817331888e-03 1.7696659445790114e-05 2.9370143271791787e-03
86 1.8328524817331888e-03 1.7696659445790114e-05 2.9370143271791787e-03
92 1.8328524817331888e-03 1.7696659445790114e-05 2.9370143271791787e-03
13 1.8328524817331888e-03 1.7696659445790114e-05 2.9370143271791787e-03
8 1.8328524817331888e-03 1.7696659445790114e-05 2.9370143271791787e-03
14 1.8328524817331888e-03 1.7696659445790114e-05 2.9370143271791787e-03
55 1.8328524817331888e-03 1.7696659445790114e-05 2.9370143271791787e-03
19 1.8328524817331888e-03 1.7696659445790114e-05 2.9370143271791787e-03
20 1.8328524817331888e-03 1.7696659445790114e-05 2.9370143271791787e-03
21 1.8328524817331888e-03 1.7696659445790114e-05 2.9370143271791787e-03
51 1.8328524817331888e-03 1.7696659445790114e-05 2.9370143271791787e-03
9 1.8328524817331888e-03 1.7696659445790114e-05 2.9370143271791787e-03
15 1.8328524817331888e-03 1.7696659445790114e-05 2.9370143271791787e-03
87 1.8328524817331888e-03 1.7696659445790114e-05 2.9370143271791787e-03
57 1.8328524817331888e-03 1.7696659445790114e-05 2.9370143271791787e-03
110 -1.8155864096097989e-03 1.6757273071819076e-04 -2.2807115883742867e-03
152 -1.8155646706616959e-03 1.6756936809482722e-04 -2.2806890392769075e-03
146 -1.8155598227977531e-03 1.6756862685197337e-04 -2.2806840215094542e-03
153 -1.8154714475581675e-03 1.6755478123144587e-04 -2.2805921309343165e-03
147 -1.8154832921431596e-03 1.6755666216930807e-04 -2.2806044784365008e-03
116 -1.8154858991844564e-03 1.6755703884633357e-04 -2.2806071495473684e-03
111 -1.8154675690685710e-03 1.6755418204138469e-04 -2.2805881086454100e-03
117 -1.8154050828556945e-03 1.6754424531533553e-04 -2.2805229507912605e-03
112 -1.8152993097444716e-03 1.6752739523400709e-04 -2.2804126137606919e-03
159 -1.8152491708047014e-03 1.6751922007349725e-04 -2.2803600749235482e-03
123 -1.8152620166395250e-03 1.6752127553590953e-04 -2.2803734869637055e-03
148 -1.8152451064602708e-03 1.6751872788635879e-04 -2.2803560289404961e-03
81 -1.8151261033390351e-03 1.6749959613624512e-04 -2.2802316639471318e-03
118 -1.8149804367641480e-03 1.6747619936827287e-04 -2.2800794516758659e-03
160 -1.8147276121076980e-03 1.6743552091941363e-04 -2.2798151538033400e-03
154 -1.8145672009123900e-03 1.6740996920442980e-04 -2.2796477689468421e-03
131 -1.8144398181237894e-03 1.6738886561692179e-04 -2.2795138238150036e-03
124 -1.8144584887136476e-03 1.6739228278046290e-04 -2.2795338615120122e-03