LAMMPS data file via write_data, version 30 Jul 2016, timestep = 600000

1920 atoms
8 atom types

0.0000000000000000e+00 4.0000000000000000e+01 xlo xhi
0.0000000000000000e+00 4.0000000000000000e+01 ylo yhi
0.0000000000000000e+00 1.0000000000000000e+02 zlo zhi

Masses

1 3.896
2 5.36
3 20.064
4 8.378
5 8.378
6 8.378
7 8.378
8 8.378

Atoms # meso-molecular

1 2 4 2.2559723595316457e+00 7.3187639210438721e-02 1.0000000000000000e+00 0.0000000000000000e+00 0.0000000000000000e+00 2.5000000000000000e+00 
21 2 4 2.2559723595316457e+00 0.0000000000000000e+00 1.0000000000000000e+00 2.0000000000000000e+00 0.0000000000000000e+00 2.5000000000000000e+00 
41 2 4 2.2559723595316457e+00 -9.0912300492888601e-05 1.0000000000000000e+00 4.0000000000000000e+00 0.0000000000000000e+00 2.5000000000000000e+00 
61 2 4 2.2559723595316457e+00 0.0000000000000000e+00 1.0000000000000000e+00 6.0000000000000000e+00 0.0000000000000000e+00 2.5000000000000000e+00 
81 2 4 2.2559723595316457e+00 -6.0254517746744518e-01 1.0000000000000000e+00 8.0000000000000000e+00 0.0000000000000000e+00 2.5000000000000000e+00 
101 2 4 2.2559723595316457e+00 -9.4569124609327959e-01 1.0000000000000000e+00 1.0000000000000000e+01 0.0000000000000000e+00 2.5000000000000000e+00 
121 2 4 2.2559723595316457e+00 1.2805843066364182e+00 1.0000000000000000e+00 1.2000000000000000e+01 0.0000000000000000e+00 2.5000000000000000e+00 
141 2 4 2.2559723595316457e+00 -3.0763502200220577e-01 1.0000000000000000e+00 1.4000000000000000e+01 0.0000000000000000e+00 2.5000000000000000e+00 
161 2 4 2.2559723595316457e+00 1.0240029747589894e+00 1.0000000000000000e+00 1.6000000000000000e+01 0.0000000000000000e+00 2.5000000000000000e+00 
181 2 4 2.2559723595316457e+00 -1.3583775198262354e-02 1.0000000000000000e+00 1.8000000000000000e+01 0.0000000000000000e+00 2.5000000000000000e+00 
2 2 4 2.2559723595316457e+00 -9.1810640667925885e+00 1.0000000000000000e+00 0.0000000000000000e+00 2.0000000000000000e+00 2.5000000000000000e+00 
22 2 4 2.2559723595316457e+00 0.0000000000000000e+00 1.0000000000000000e+00 2.0000000000000000e+00 2.0000000000000000e+00 2.5000000000000000e+00 
42 2 4 2.2559723595316457e+00 0.0000000000000000e+00 1.0000000000000000e+00 4.0000000000000000e+00 2.0000000000000000e+00 2.5000000000000000e+00 
62 2 4 2.2559723595316457e+00 -1.5713076915534093e-04 1.0000000000000000e+00 6.0000000000000000e+00 2.0000000000000000e+00 2.5000000000000000e+00 
82 2 4 2.2559723595316457e+00 -4.8590453830029759e-02 1.0000000000000000e+00 8.0000000000000000e+00 2.0000000000000000e+00 2.5000000000000000e+00 
102 2 4 2.2559723595316457e+00 0.0000000000000000e+00 1.0000000000000000e+00 1.0000000000000000e+01 2.0000000000000000e+00 2.5000000000000000e+00 
122 2 4 2.2559723595316457e+00 2.5609159259974938e+00 1.0000000000000000e+00 1.2000000000000000e+01 2.0000000000000000e+00 2.5000000000000000e+00 
142 2 4 2.2559723595316457e+00 -2.4882488687479960e-02 1.0000000000000000e+00 1.4000000000000000e+01 2.0000000000000000e+00 2.5000000000000000e+00 
162 2 4 2.2559723595316457e+00 -1.2251469246446025e-05 1.0000000000000000e+00 1.6000000000000000e+01 2.0000000000000000e+00 2.5000000000000000e+00 
182 2 4 2.2559723595316457e+00 9.7525573629390194e-03 1.0000000000000000e+00 1.8000000000000000e+01 2.0000000000000000e+00 2.5000000000000000e+00 
3 2 4 2.2559723595316457e+00 2.4361262648376849e-06 1.0000000000000000e+00 0.0000000000000000e+00 4.0000000000000000e+00 2.5000000000000000e+00 
23 2 4 2.2559723595316457e+00 0.0000000000000000e+00 1.0000000000000000e+00 2.0000000000000000e+00 4.0000000000000000e+00 2.5000000000000000e+00 
43 2 4 2.2559723595316457e+00 0.0000000000000000e+00 1.0000000000000000e+00 4.0000000000000000e+00 4.0000000000000000e+00 2.5000000000000000e+00 
63 2 4 2.2559723595316457e+00 0.0000000000000000e+00 1.0000000000000000e+00 6.0000000000000000e+00 4.0000000000000000e+00 2.5000000000000000e+00 
83 2 4 2.2559723595316457e+00 0.0000000000000000e+00 1.0000000000000000e+00 8.0000000000000000e+00 4.0000000000000000e+00 2.5000000000000000e+00 
103 2 4 2.2559723595316457e+00 -6.4794403331094814e-06 1.0000000000000000e+00 1.0000000000000000e+01 4.0000000000000000e+00 2.5000000000000000e+00 
123 2 4 2.2559723595316457e+00 0.0000000000000000e+00 1.0000000000000000e+00 1.2000000000000000e+01 4.0000000000000000e+00 2.5000000000000000e+00 
143 2 4 2.2559723595316457e+00 -1.2886534991260137e-04 1.0000000000000000e+00 1.4000000000000000e+01 4.0000000000000000e+00 2.5000000000000000e+00 
163 2 4 2.2559723595316457e+00 0.0000000000000000e+00 1.0000000000000000e+00 1.6000000000000000e+01 4.0000000000000000e+00 2.5000000000000000e+00 
183 2 4 2.2559723595316457e+00 5.6617862450605877e-02 1.0000000000000000e+00 1.8000000000000000e+01 4.0000000000000000e+00 2.5000000000000000e+00 
4 2 4 2.2559723595316457e+00 6.8319570964404778e-04 1.0000000000000000e+00 0.0000000000000000e+00 6.0000000000000000e+00 2.5000000000000000e+00 
24 2 4 2.2559723595316457e+00 -2.3359041735146000e-02 1.0000000000000000e+00 2.0000000000000000e+00 6.0000000000000000e+00 2.5000000000000000e+00 
44 2 4 2.2559723595316457e+00 0.0000000000000000e+00 1.0000000000000000e+00 4.0000000000000000e+00 6.0000000000000000e+00 2.5000000000000000e+00 
64 2 4 2.2559723595316457e+00 4.5477111689735130e-05 1.0000000000000000e+00 6.0000000000000000e+00 6.0000000000000000e+00 2.5000000000000000e+00 
84 2 4 2.2559723595316457e+00 2.7673662127929311e-03 1.0000000000000000e+00 8.0000000000000000e+00 6.0000000000000000e+00 2.5000000000000000e+00 
104 2 4 2.2559723595316457e+00 -6.2556496624891619e-03 1.0000000000000000e+00 1.0000000000000000e+01 6.0000000000000000e+00 2.5000000000000000e+00 
124 2 4 2.2559723595316457e+00 0.0000000000000000e+00 1.0000000000000000e+00 1.2000000000000000e+01 6.0000000000000000e+00 2.5000000000000000e+00 
144 2 4 2.2559723595316457e+00 0.0000000000000000e+00 1.0000000000000000e+00 1.4000000000000000e+01 6.0000000000000000e+00 2.5000000000000000e+00 
164 2 4 2.2559723595316457e+00 0.0000000000000000e+00 1.0000000000000000e+00 1.6000000000000000e+01 6.0000000000000000e+00 2.5000000000000000e+00 
184 2 4 2.2559723595316457e+00 -2.0884023124925299e-01 1.0000000000000000e+00 1.8000000000000000e+01 6.0000000000000000e+00 2.5000000000000000e+00 
5 2 4 2.2559723595316457e+00 0.0000000000000000e+00 1.0000000000000000e+00 0.0000000000000000e+00 8.0000000000000000e+00 2.5000000000000000e+00 
25 2 4 2.2559723595316457e+00 -3.2388560149917513e-02 1.0000000000000000e+00 2.0000000000000000e+00 8.0000000000000000e+00 2.5000000000000000e+00 
45 2 4 2.2559723595316457e+00 0.0000000000000000e+00 1.0000000000000000e+00 4.0000000000000000e+00 8.0000000000000000e+00 2.5000000000000000e+00 
65 2 4 2.2559723595316457e+00 2.9252913206972189e-07 1.0000000000000000e+00 6.0000000000000000e+00 8.0000000000000000e+00 2.5000000000000000e+00 
85 2 4 2.2559723595316457e+00 0.0000000000000000e+00 1.0000000000000000e+00 8.0000000000000000e+00 8.0000000000000000e+00 2.5000000000000000e+00 
105 2 4 2.2559723595316457e+00 -2.5146116085235370e-02 1.0000000000000000e+00 1.0000000000000000e+01 8.0000000000000000e+00 2.5000000000000000e+00 
125 2 4 2.2559723595316457e+00 0.0000000000000000e+00 1.0000000000000000e+00 1.2000000000000000e+01 8.0000000000000000e+00 2.5000000000000000e+00 
145 2 4 2.2559723595316457e+00 2.2149225194211644e+00 1.0000000000000000e+00 1.4000000000000000e+01 8.0000000000000000e+00 2.5000000000000000e+00 
165 2 4 2.2559723595316457e+00 3.1018026218897297e+00 1.0000000000000000e+00 1.6000000000000000e+01 8.0000000000000000e+00 2.5000000000000000e+00 
185 2 4 2.2559723595316457e+00 -7.5882243877131939e-01 1.0000000000000000e+00 1.8000000000000000e+01 8.0000000000000000e+00 2.5000000000000000e+00 
6 2 4 2.2559723595316457e+00 -1.0018197936264214e-01 1.0000000000000000e+00 0.0000000000000000e+00 1.0000000000000000e+01 2.5000000000000000e+00 
26 2 4 2.2559723595316457e+00 0.0000000000000000e+00 1.0000000000000000e+00 2.0000000000000000e+00 1.0000000000000000e+01 2.5000000000000000e+00 
46 2 4 2.2559723595316457e+00 0.0000000000000000e+00 1.0000000000000000e+00 4.0000000000000000e+00 1.0000000000000000e+01 2.5000000000000000e+00 
66 2 4 2.2559723595316457e+00 0.0000000000000000e+00 1.0000000000000000e+00 6.0000000000000000e+00 1.0000000000000000e+01 2.5000000000000000e+00 
86 2 4 2.2559723595316457e+00 -7.3496496014129444e-05 1.0000000000000000e+00 8.0000000000000000e+00 1.0000000000000000e+01 2.5000000000000000e+00 
106 2 4 2.2559723595316457e+00 9.2289062882844092e-04 1.0000000000000000e+00 1.0000000000000000e+01 1.0000000000000000e+01 2.5000000000000000e+00 
126 2 4 2.2559723595316457e+00 0.0000000000000000e+00 1.0000000000000000e+00 1.2000000000000000e+01 1.0000000000000000e+01 2.5000000000000000e+00 
146 2 4 2.2559723595316457e+00 4.0661853590251353e-04 1.0000000000000000e+00 1.4000000000000000e+01 1.0000000000000000e+01 2.5000000000000000e+00 
166 2 4 2.2559723595316457e+00 3.8609708858320848e-03 1.0000000000000000e+00 1.6000000000000000e+01 1.0000000000000000e+01 2.5000000000000000e+00 
186 2 4 2.2559723595316457e+00 -9.7050560146375398e-01 1.0000000000000000e+00 1.8000000000000000e+01 1.0000000000000000e+01 2.5000000000000000e+00 
7 2 4 2.2559723595316457e+00 2.7188743673330762e-01 1.0000000000000000e+00 0.0000000000000000e+00 1.2000000000000000e+01 2.5000000000000000e+00 
27 2 4 2.2559723595316457e+00 -1.2305234200503178e-01 1.0000000000000000e+00 2.0000000000000000e+00 1.2000000000000000e+01 2.5000000000000000e+00 
47 2 4 2.2559723595316457e+00 2.7615497595517631e-02 1.0000000000000000e+00 4.0000000000000000e+00 1.2000000000000000e+01 2.5000000000000000e+00 
67 2 4 2.2559723595316457e+00 0.0000000000000000e+00 1.0000000000000000e+00 6.0000000000000000e+00 1.2000000000000000e+01 2.5000000000000000e+00 
87 2 4 2.2559723595316457e+00 0.0000000000000000e+00 1.0000000000000000e+00 8.0000000000000000e+00 1.2000000000000000e+01 2.5000000000000000e+00 
107 2 4 2.2559723595316457e+00 -1.1667651538540687e-02 1.0000000000000000e+00 1.0000000000000000e+01 1.2000000000000000e+01 2.5000000000000000e+00 
127 2 4 2.2559723595316457e+00 4.7563030094705375e-02 1.0000000000000000e+00 1.2000000000000000e+01 1.2000000000000000e+01 2.5000000000000000e+00 
147 2 4 2.2559723595316457e+00 5.5105620602953443e-04 1.0000000000000000e+00 1.4000000000000000e+01 1.2000000000000000e+01 2.5000000000000000e+00 
167 2 4 2.2559723595316457e+00 3.8720000006217563e+00 1.0000000000000000e+00 1.6000000000000000e+01 1.2000000000000000e+01 2.5000000000000000e+00 
187 2 4 2.2559723595316457e+00 -2.8525016728666690e-03 1.0000000000000000e+00 1.8000000000000000e+01 1.2000000000000000e+01 2.5000000000000000e+00 
8 2 4 2.2559723595316457e+00 -7.9612878444697471e-02 1.0000000000000000e+00 0.0000000000000000e+00 1.4000000000000000e+01 2.5000000000000000e+00 
28 2 4 2.2559723595316457e+00 -2.5893271664938472e-01 1.0000000000000000e+00 2.0000000000000000e+00 1.4000000000000000e+01 2.5000000000000000e+00 
48 2 4 2.2559723595316457e+00 0.0000000000000000e+00 1.0000000000000000e+00 4.0000000000000000e+00 1.4000000000000000e+01 2.5000000000000000e+00 
68 2 4 2.2559723595316457e+00 0.0000000000000000e+00 1.0000000000000000e+00 6.0000000000000000e+00 1.4000000000000000e+01 2.5000000000000000e+00 
88 2 4 2.2559723595316457e+00 -2.3083327005030217e-04 1.0000000000000000e+00 8.0000000000000000e+00 1.4000000000000000e+01 2.5000000000000000e+00 
108 2 4 2.2559723595316457e+00 4.3937733456590284e-03 1.0000000000000000e+00 1.0000000000000000e+01 1.4000000000000000e+01 2.5000000000000000e+00 
128 2 4 2.2559723595316457e+00 -4.0289373142033671e-03 1.0000000000000000e+00 1.2000000000000000e+01 1.4000000000000000e+01 2.5000000000000000e+00 
148 2 4 2.2559723595316457e+00 -3.8068964132201559e-04 1.0000000000000000e+00 1.4000000000000000e+01 1.4000000000000000e+01 2.5000000000000000e+00 
168 2 4 2.2559723595316457e+00 -3.7603869023814152e-01 1.0000000000000000e+00 1.6000000000000000e+01 1.4000000000000000e+01 2.5000000000000000e+00 
188 2 4 2.2559723595316457e+00 1.0750050192155562e-03 1.0000000000000000e+00 1.8000000000000000e+01 1.4000000000000000e+01 2.5000000000000000e+00 
9 2 4 2.2559723595316457e+00 3.7250973554996842e+00 1.0000000000000000e+00 0.0000000000000000e+00 1.6000000000000000e+01 2.5000000000000000e+00 
29 2 4 2.2559723595316457e+00 0.0000000000000000e+00 1.0000000000000000e+00 2.0000000000000000e+00 1.6000000000000000e+01 2.5000000000000000e+00 
49 2 4 2.2559723595316457e+00 0.0000000000000000e+00 1.0000000000000000e+00 4.0000000000000000e+00 1.6000000000000000e+01 2.5000000000000000e+00 
69 2 4 2.2559723595316457e+00 0.0000000000000000e+00 1.0000000000000000e+00 6.0000000000000000e+00 1.6000000000000000e+01 2.5000000000000000e+00 
89 2 4 2.2559723595316457e+00 -5.3793937010453204e-03 1.0000000000000000e+00 8.0000000000000000e+00 1.6000000000000000e+01 2.5000000000000000e+00 
109 2 4 2.2559723595316457e+00 -3.1927725365549013e-05 1.0000000000000000e+00 1.0000000000000000e+01 1.6000000000000000e+01 2.5000000000000000e+00 
129 2 4 2.2559723595316457e+00 -1.5509953262751766e-02 1.0000000000000000e+00 1.2000000000000000e+01 1.6000000000000000e+01 2.5000000000000000e+00 
149 2 4 2.2559723595316457e+00 -9.2548869596368981e-03 1.0000000000000000e+00 1.4000000000000000e+01 1.6000000000000000e+01 2.5000000000000000e+00 
169 2 4 2.2559723595316457e+00 -2.5936495911619306e-03 1.0000000000000000e+00 1.6000000000000000e+01 1.6000000000000000e+01 2.5000000000000000e+00 
189 2 4 2.2559723595316457e+00 -5.3205187141121409e-05 1.0000000000000000e+00 1.8000000000000000e+01 1.6000000000000000e+01 2.5000000000000000e+00 
10 2 4 2.2559723595316457e+00 0.0000000000000000e+00 1.0000000000000000e+00 0.0000000000000000e+00 1.8000000000000000e+01 2.5000000000000000e+00 
30 2 4 2.2559723595316457e+00 0.0000000000000000e+00 1.0000000000000000e+00 2.0000000000000000e+00 1.8000000000000000e+01 2.5000000000000000e+00 
50 2 4 2.2559723595316457e+00 0.0000000000000000e+00 1.0000000000000000e+00 4.0000000000000000e+00 1.8000000000000000e+01 2.5000000000000000e+00 
70 2 4 2.2559723595316457e+00 3.9917141500204991e+00 1.0000000000000000e+00 6.0000000000000000e+00 1.8000000000000000e+01 2.5000000000000000e+00 
90 2 4 2.2559723595316457e+00 1.6398011759551427e+00 1.0000000000000000e+00 8.0000000000000000e+00 1.8000000000000000e+01 2.5000000000000000e+00 
110 2 4 2.2559723595316457e+00 0.0000000000000000e+00 1.0000000000000000e+00 1.0000000000000000e+01 1.8000000000000000e+01 2.5000000000000000e+00 
130 2 4 2.2559723595316457e+00 -1.7583492570526838e-05 1.0000000000000000e+00 1.2000000000000000e+01 1.8000000000000000e+01 2.5000000000000000e+00 
150 2 4 2.2559723595316457e+00 5.2944304975941351e-05 1.0000000000000000e+00 1.4000000000000000e+01 1.8000000000000000e+01 2.5000000000000000e+00 
170 2 4 2.2559723595316457e+00 9.2251251526320548e-04 1.0000000000000000e+00 1.6000000000000000e+01 1.8000000000000000e+01 2.5000000000000000e+00 
190 2 4 2.2559723595316457e+00 -3.4901915497265179e-03 1.0000000000000000e+00 1.8000000000000000e+01 1.8000000000000000e+01 2.5000000000000000e+00 
1749 1351 2 1.0279988952610710e+00 -1.7830212689004313e+01 1.0000000000000000e+00 1.2241894922564143e+00 1.9307848455514154e+01 5.5058373454005540e+00 
900 502 2 1.0280744294337125e+00 5.9120638623568739e+03 1.0000000000000000e+00 3.6599840003312196e+00 1.3128587159798888e+00 6.6326216721561213e+00 
1086 688 2 1.0280592914353728e+00 2.3579582826722149e+03 1.0000000000000000e+00 5.1181635912045946e+00 1.7869133585949513e+00 6.3215947655954201e+00 
1534 1136 2 1.0280126060339223e+00 -5.8419430444341560e+03 1.0000000000000000e+00 4.6368213859940033e+00 2.1102904892134315e+00 6.1468426514847279e+00 
1696 1298 2 1.0280000332191277e+00 -9.9466263316675349e+02 1.0000000000000000e+00 1.2525126358954470e+01 5.1880132871273430e+00 7.8132643202619025e+00 
896 498 2 1.0280000332198787e+00 5.5369018501969258e+03 1.0000000000000000e+00 1.2548937323220798e+01 5.2472862424141136e+00 7.7829871771585770e+00 
777 379 2 1.0280000332191674e+00 -2.6213832945903532e+03 1.0000000000000000e+00 1.3947203427072086e+01 4.3844808865093174e+00 7.2740976685714074e+00 
1364 966 2 1.0280000332198962e+00 9.3695770293348178e+03 1.0000000000000000e+00 1.3978162893888628e+01 4.4013429147478735e+00 7.3353686573033148e+00 
1596 1198 2 1.0280007199162142e+00 8.7672284167160456e+02 1.0000000000000000e+00 1.9977728787639453e+01 1.4951011965070942e+01 7.0681234957578409e+00 
833 435 2 1.0280058299342005e+00 7.0178168985541549e+02 1.0000000000000000e+00 1.9551362177094032e+00 1.8401874434698868e+01 5.9591764426661085e+00 
1628 1230 2 1.0279933658978226e+00 2.5375903778440403e+02 1.0000000000000000e+00 3.2634057529793234e+00 1.8201222220441316e+01 6.5359299187362652e+00 
1472 1074 2 1.0279933417199447e+00 8.1759105038556470e+01 1.0000000000000000e+00 3.2635677866896953e+00 1.8201368290512939e+01 6.5357607281430408e+00 
1352 954 2 1.0279972162264459e+00 5.5981001689685982e+03 1.0000000000000000e+00 5.7485196867035384e+00 1.8748489198938433e+01 6.0650814825552226e+00 
1541 1143 2 1.0279968417468988e+00 -2.2942987019200491e+03 1.0000000000000000e+00 5.7389392440630482e+00 1.8771722543346534e+01 6.0957023099988934e+00 
470 72 2 1.0279998358852629e+00 -3.5395638512385121e+03 1.0000000000000000e+00 7.5745955432737579e+00 1.8210137650435257e+01 6.3812550651853233e+00 
773 375 2 1.0279988607003390e+00 -1.1635471901834871e+03 1.0000000000000000e+00 7.9824408110424452e+00 1.8779017230579434e+01 6.4454535760249980e+00 
1404 1006 2 1.0280023948692545e+00 2.5211788543445969e+03 1.0000000000000000e+00 7.1554216149431555e+00 1.9545437222920757e+01 6.3112396166289138e+00 
764 366 2 1.0280840325484910e+00 -1.4577872078754140e+02 1.0000000000000000e+00 3.4937828787694327e+00 1.2717838090253393e+00 8.6039295392215536e+00 
1075 677 2 1.0278651447172227e+00 5.8380181114009947e+03 1.0000000000000000e+00 4.4996646310576534e+00 1.3425059797232763e+00 7.9436491726138492e+00 
479 81 2 1.0280532332481958e+00 -5.7990132262862862e+03 1.0000000000000000e+00 4.0274250480240354e+00 1.1900338420179710e+00 9.7709117230299540e+00 
671 273 2 1.0279983363652281e+00 3.1981735488480449e+03 1.0000000000000000e+00 1.2537562359641550e+01 1.7345895957308324e+00 9.0354445730538835e+00 
670 272 2 1.0279983362336287e+00 3.1986324528677596e+03 1.0000000000000000e+00 1.2532092861345637e+01 1.7419776090803680e+00 9.0484253773084866e+00 
1734 1336 2 1.0279971168560667e+00 3.2026343837132226e+03 1.0000000000000000e+00 1.4125380128418922e+01 1.7391984989315215e+00 9.7026563393706162e+00 
1735 1337 2 1.0279971168285342e+00 3.2024930050248804e+03 1.0000000000000000e+00 1.4119138143421615e+01 1.7399439033523940e+00 9.7174853058783413e+00 
1227 829 2 1.0279994659777043e+00 5.6953610868815385e+03 1.0000000000000000e+00 7.7991726531228633e-01 1.8630731721095920e+01 8.6043467783066045e+00 
485 87 2 1.0280006547437288e+00 4.0989994781453652e+03 1.0000000000000000e+00 7.9154163008992773e-01 1.8826846829892784e+01 9.1868532495506319e+00 
1287 889 2 1.0279904200508103e+00 6.8237092175936114e+03 1.0000000000000000e+00 5.5962341768813726e+00 1.6369557997843385e+00 1.0052918423582723e+01 
1353 955 2 1.0280002923072478e+00 6.0608202187147454e+03 1.0000000000000000e+00 4.5923580569719844e+00 1.3421148173900181e+00 1.1582336181021837e+01 
897 499 2 1.0280002923526796e+00 7.8679583998757480e+03 1.0000000000000000e+00 4.5923429150773769e+00 1.3421151087111993e+00 1.1582332461156916e+01 
868 470 2 1.0279814933451130e+00 6.0719637351126785e+03 1.0000000000000000e+00 5.3029814237841242e+00 2.1444920686023483e+00 1.0018689276529921e+01 
1319 921 2 1.0279999999999676e+00 -1.2523941146990860e+03 1.0000000000000000e+00 5.9752513465387480e+00 1.8842821546725390e+00 1.4793227822348847e+01 
1161 763 2 1.0279999999999909e+00 -2.1268654762143306e+03 1.0000000000000000e+00 6.4021988801695171e+00 1.4107286044159477e+00 1.4196924773937509e+01 
1773 1375 2 1.0279999999999647e+00 1.7315345607067966e+03 1.0000000000000000e+00 6.3075181754140006e+00 2.2712908608468338e+00 1.4084752344471640e+01 
1917 1519 2 1.0279860369304832e+00 -4.8757273128296201e+03 1.0000000000000000e+00 1.8053542537198508e+00 1.8144987800139116e+01 1.4601689983209416e+01 
664 266 2 1.0279748445409278e+00 1.8713837743474522e+02 1.0000000000000000e+00 1.0869138802142102e+00 1.8410565523139848e+01 1.4848076484820695e+01 
478 80 2 1.0280668778363946e+00 -5.2341468376188359e+03 1.0000000000000000e+00 1.8018276592998048e+00 1.9005856552809693e+01 1.4976964400527672e+01 
1743 1345 2 1.0280622629363607e+00 1.7152582205996221e+03 1.0000000000000000e+00 5.2064101456190555e+00 3.4320756767258986e+00 2.0801640293626640e+01 
1738 1340 2 1.0280065354916448e+00 2.1696037038279633e+03 1.0000000000000000e+00 5.5303305314436262e+00 3.9112179547007351e+00 2.1057362064147021e+01 
1070 672 2 1.0279788165667425e+00 3.7586500195272674e+03 1.0000000000000000e+00 4.8464131821758070e+00 3.5391226424090205e+00 2.1820573681427934e+01 
1606 1208 2 1.0282925242674896e+00 -4.5431320339491440e+03 1.0000000000000000e+00 4.6894335280474841e+00 3.7248307000538179e+00 2.3610887839164842e+01 
1384 986 2 1.0279938403653932e+00 6.1386074072817555e+03 1.0000000000000000e+00 5.2091650274324177e+00 3.8674278167155247e+00 2.3739990566222087e+01 
621 223 2 1.0279929037384676e+00 -1.2504406494463913e+03 1.0000000000000000e+00 1.9413954440479340e+01 3.5873832832600172e+00 2.5167885519269912e+01 
846 448 2 1.0277324610563456e+00 -3.6963853415032058e+03 1.0000000000000000e+00 4.5526142184378342e+00 4.0551643040825791e+00 2.5003365680537893e+01 
1518 1120 2 1.0280029414101901e+00 -4.7970807523575231e+03 1.0000000000000000e+00 1.9079557902783726e+01 4.9814303439074115e+00 2.4385363120655686e+01 
1062 664 2 1.0280005359478013e+00 3.3861522162542828e+03 1.0000000000000000e+00 1.8981868924136762e+01 4.9828516558963143e+00 2.4636135084065490e+01 
828 430 2 1.0279978110415287e+00 -7.0356700172947603e+02 1.0000000000000000e+00 1.9448461663790141e+01 1.1905960042262562e+00 2.6028339779084256e+01 
1276 878 2 1.0279979038712106e+00 -2.3020981133367395e+03 1.0000000000000000e+00 1.9449204036333683e+01 1.1916146847472027e+00 2.6026935644344636e+01 
675 277 2 1.0277464107557657e+00 2.1582767880091660e+03 1.0000000000000000e+00 3.5725985717959907e+00 3.6605749949648629e+00 2.6744609978689748e+01 
1629 1231 2 1.0280061041964399e+00 2.0178302265685563e+03 1.0000000000000000e+00 6.9610161168640197e+00 2.2665952151666859e+00 2.7251151398054958e+01 
1481 1083 2 1.0280057879526125e+00 -2.2027856558568871e+02 1.0000000000000000e+00 6.9616827541600728e+00 2.2658578476895519e+00 2.7251386793865006e+01 
678 280 2 1.0279931816569763e+00 1.7169083645169399e+03 1.0000000000000000e+00 2.5455146780771067e+00 4.0796180586937476e+00 2.6852099164434986e+01 
494 96 2 1.0281934949563740e+00 -6.6397290666126692e+03 1.0000000000000000e+00 2.6491988082352553e+00 4.1565581801275551e+00 2.6259422019072659e+01 
798 400 2 1.0283363550181630e+00 -5.4138936201574897e+03 1.0000000000000000e+00 5.6903970267000332e+00 4.4655548717510456e+00 2.6206386002100331e+01 
700 302 2 1.0284087158028226e+00 1.7945738877519602e+03 1.0000000000000000e+00 5.7400880626266799e+00 4.3717904224629667e+00 2.5683689683742511e+01 
732 334 2 1.0280831119397258e+00 4.2867875620078541e+02 1.0000000000000000e+00 7.3666737852567854e+00 4.2623908098821675e+00 2.7333308611240362e+01 
1492 1094 2 1.0281065611527833e+00 4.2802897242513058e+02 1.0000000000000000e+00 7.4244152289487637e+00 4.2456901870785622e+00 2.7374867004800162e+01 
1829 1431 2 1.0280082456618524e+00 2.8434759844122295e+03 1.0000000000000000e+00 1.9881188103838351e+01 1.0663996861949883e+01 2.6045889595931328e+01 
745 347 2 1.0280063238587513e+00 -1.2291115375754259e+03 1.0000000000000000e+00 1.9951429962348023e+01 1.1055380581931384e+01 2.6922341156444990e+01 
1890 1492 2 1.0280010919620783e+00 -7.4229607329734108e+03 1.0000000000000000e+00 1.9121122378968558e+01 1.2884999427003489e+01 2.6171600467553777e+01 
461 63 2 1.0280022348796356e+00 2.8524604324650081e+03 1.0000000000000000e+00 1.9239197994390757e+01 1.2860545235653330e+01 2.6208683352294461e+01 
894 496 2 1.0279975959512402e+00 2.6304808741309193e+03 1.0000000000000000e+00 1.8209002655807396e+01 1.2834241235626369e+01 2.7441275016046362e+01 
1797 1399 2 1.0280011562713813e+00 3.2868251681875595e+03 1.0000000000000000e+00 1.8175816938014471e+01 1.6077486674476763e+01 2.7337834598464983e+01 
840 442 2 1.0280053620468226e+00 -1.1740125833194005e+01 1.0000000000000000e+00 7.6064153191619779e+00 1.8667732443763669e+00 2.8960882419109250e+01 
1001 603 2 1.0280164747683667e+00 -8.4388016390094685e+02 1.0000000000000000e+00 9.0394098772114582e+00 9.3779049342281229e-01 2.8861276680215802e+01 
1292 894 2 1.0280017395840224e+00 5.4195841396793719e+02 1.0000000000000000e+00 9.0398264526200744e+00 1.1993036088263826e+00 2.8341348308841702e+01 
1811 1413 2 1.0279986000730910e+00 -8.1685595190433305e+03 1.0000000000000000e+00 1.9969193521766503e+01 1.3456755732313403e+00 2.8902514647631474e+01 
1351 953 2 1.0279897625328238e+00 2.5124946232750763e+03 1.0000000000000000e+00 4.8841613931512669e+00 3.7625809911369661e+00 2.7892883336463512e+01 
880 482 2 1.0279584717846022e+00 2.8613177676942028e+03 1.0000000000000000e+00 7.7047889348284624e+00 3.1051165498890576e+00 2.9006088445420620e+01 
875 477 2 1.0280356684873326e+00 -1.9744988828609307e+03 1.0000000000000000e+00 8.9576825413120069e+00 2.7241227576938045e+00 2.8523648014497955e+01 
1480 1082 2 1.0284522321410183e+00 1.7705510743231632e+03 1.0000000000000000e+00 5.1929680928765567e+00 4.7647056764366829e+00 2.8396506177340260e+01 
1343 945 2 1.0278689346234251e+00 -1.1297591598769029e+03 1.0000000000000000e+00 4.7741284157174171e+00 4.4228890588986900e+00 2.8756494403303368e+01 
1489 1091 2 1.0280758414120865e+00 5.4386244124924826e+02 1.0000000000000000e+00 9.0289140320864938e+00 4.2139736005959181e+00 2.8961687860006609e+01 
1856 1458 2 1.0280069688716724e+00 3.9038014170015399e+03 1.0000000000000000e+00 1.0453219135582676e+01 5.3958947781652169e+00 2.9195834775238836e+01 
638 240 2 1.0280054624795230e+00 1.5950813040043251e+03 1.0000000000000000e+00 1.9759699139077885e+01 5.7341580141826611e+00 2.9342987818105609e+01 
1837 1439 2 1.0279982650974078e+00 3.5879889364654541e+03 1.0000000000000000e+00 1.0896379625526597e+01 6.0842321672310122e+00 2.8045111643174820e+01 
1548 1150 2 1.0279983192824109e+00 -1.6265627151685660e+03 1.0000000000000000e+00 1.0895679101875743e+01 6.0851009524019393e+00 2.8045191833121262e+01 
1470 1072 2 1.0280004154554285e+00 3.3523345099456487e+03 1.0000000000000000e+00 1.7587542390287762e+01 6.4411801666819315e+00 2.8234005264468156e+01 
710 312 2 1.0280003880680721e+00 3.3520156708078298e+03 1.0000000000000000e+00 1.7607033118877595e+01 6.3220113531037869e+00 2.8455000091394407e+01 
1641 1243 2 1.0280024592996313e+00 2.1733697997258787e+03 1.0000000000000000e+00 1.9032596653719263e+01 7.7987555182719044e+00 2.8543955779591823e+01 
1644 1246 2 1.0280006772335530e+00 2.0386891258433930e+03 1.0000000000000000e+00 1.6763818409236872e+01 8.0778710970577823e+00 2.8684921275315350e+01 
1648 1250 2 1.0279999789314354e+00 -1.7766570063299257e+03 1.0000000000000000e+00 1.6863044456996022e+01 8.2513111828606434e+00 2.8740290837621650e+01 
1645 1247 2 1.0280038440768737e+00 -1.7311729934203906e+03 1.0000000000000000e+00 1.8703384322834815e+01 8.5499409467166032e+00 2.8218387722570473e+01 
524 126 2 1.0279944626140456e+00 3.1145507985524273e+03 1.0000000000000000e+00 1.8772857203773363e+01 9.8291772846625189e+00 2.9271568549589396e+01 
439 41 2 1.0279977292564877e+00 -6.0678920664502093e+03 1.0000000000000000e+00 1.7974869489019351e+01 1.1989105371263356e+01 2.7798751688097660e+01 
1505 1107 2 1.0279987532630215e+00 -1.3007133142579016e+03 1.0000000000000000e+00 1.9846777286759774e+01 1.1261801464491354e+01 2.8662621802905974e+01 
1076 678 2 1.0279973451019946e+00 -3.4566926779555915e+03 1.0000000000000000e+00 1.8332646968012025e+01 1.1487572489238095e+01 2.8942653225560253e+01 
986 588 2 1.0279985393436508e+00 1.1281645040619705e+03 1.0000000000000000e+00 1.4906741496433781e+01 1.3132147022284245e+01 2.9213636770459338e+01 
1085 687 2 1.0280029477801189e+00 -2.8989739640466787e+03 1.0000000000000000e+00 1.6008947338302921e+01 1.3375595225323620e+01 2.8233537561607182e+01 
1516 1118 2 1.0280036370019381e+00 -9.3484397577423033e+02 1.0000000000000000e+00 1.9641854045284756e+01 1.2042414524368047e+01 2.8675009334710694e+01 
1146 748 2 1.0279986998748996e+00 2.0834440119148749e+03 1.0000000000000000e+00 1.4953701665363402e+01 1.4442941414274616e+01 2.8654232832662412e+01 
1455 1057 2 1.0279999785666847e+00 -4.1182288332707703e+03 1.0000000000000000e+00 1.6187116874352601e+01 1.4138671666790378e+01 2.8143786439090036e+01 
435 37 2 1.0279994699625477e+00 -6.1345234780595229e+03 1.0000000000000000e+00 1.8171464553195477e+01 1.5536604172057325e+01 2.7727262977792819e+01 
488 90 2 1.0279998572350575e+00 3.8886000580606028e+03 1.0000000000000000e+00 1.7691203619719357e+01 1.6115538587078554e+01 2.8778863108993498e+01 
913 515 2 1.0279976197796310e+00 7.9830414616291882e+03 1.0000000000000000e+00 1.7566678550850799e+01 1.7269014722345759e+01 2.8146480850821170e+01 
1915 1517 2 1.0280034255607535e+00 2.0594047882840363e+02 1.0000000000000000e+00 1.7075896331823060e+01 1.8442833664808592e+01 2.8137361196616602e+01 
1530 1132 2 1.0280009501752354e+00 -2.7170528214754963e+03 1.0000000000000000e+00 1.6681743081546653e+01 1.9854690283706077e+01 2.7539731673568156e+01 
1687 1289 2 1.0279929993037604e+00 1.0759151681992030e+03 1.0000000000000000e+00 1.6329614267189040e+01 1.8821499771005328e+01 2.8626238022004181e+01 
1190 792 2 1.0279911508984385e+00 1.5048317710684000e+03 1.0000000000000000e+00 1.4806664979354299e+01 4.1565178037772416e-01 3.1267140292383317e+01 
1064 666 2 1.0279976745778074e+00 -3.0202779090200274e+03 1.0000000000000000e+00 1.9848479554652272e+01 7.7364254259902387e-01 3.0349686354956855e+01 