LAMMPS data file via write_data, version 30 Jul 2016, timestep = 100000000

6918 atoms
8 atom types

0.0000000000000000e+00 6.0000000000000000e+01 xlo xhi
0.0000000000000000e+00 6.0000000000000000e+01 ylo yhi
0.0000000000000000e+00 6.0000000000000000e+01 zlo zhi

Masses

1 3.896
2 20.064
3 4.31
4 28.378
5 28.378
6 28.378
7 28.378
8 28.378

Atoms # meso-molecular

3916 17 1 9.9999999999552147e-01 5.6947894645390811e+00 1.0000000000000000e+00 2.8678626342189435e+01 2.2877728835158610e+01 1.1399848977480087e+01 
20 1 1 9.9999999999990952e-01 4.5342401520594663e+01 1.0000000000000000e+00 1.2352253324054660e+01 8.2764821354153977e+00 1.3784524992383439e+01 
548 4 1 1.0000000000181899e+00 -3.0363401879019975e+01 1.0000000000000000e+00 1.1070659085573892e+01 8.9928516978412656e+00 1.3636767125379352e+01 
523 4 1 1.0000000000062144e+00 -1.2471463334906244e+02 1.0000000000000000e+00 1.1742637952264577e+01 1.0773647198941665e+01 1.1492224349280432e+01 
47 1 3 1.0000000000167213e+00 -1.2207870915010903e+02 1.0000000000000000e+00 1.2234565862143132e+01 9.4657125343872810e+00 1.2772319177687230e+01 
525 4 3 9.9999999999198141e-01 -5.9948505365569119e+01 1.0000000000000000e+00 1.2378361767758490e+01 1.0076231566387424e+01 1.2621480416552641e+01 
1012 6 3 1.0000000000194655e+00 4.5886421899087125e+01 1.0000000000000000e+00 1.2458952498634847e+01 1.0359239911159333e+01 1.3549056375526240e+01 
549 4 1 9.9999999999762812e-01 -4.4818098898351536e+01 1.0000000000000000e+00 1.3294610119416301e+01 8.9784730206534977e+00 1.3782768412980277e+01 
550 4 3 1.0000000000519558e+00 -2.5644607430688165e+01 1.0000000000000000e+00 1.2578407110088309e+01 9.3851190899499013e+00 1.3208396164505128e+01 
551 4 3 1.0000000000368585e+00 -4.3048925479010805e+01 1.0000000000000000e+00 1.2520801044113465e+01 9.5365075291715158e+00 1.2932524233546532e+01 
1055 7 3 9.9999999997964995e-01 1.4253893363065680e+02 1.0000000000000000e+00 1.2137993218647940e+01 1.0538382161535038e+01 1.2494919979762960e+01 
1011 6 3 9.9999999997046674e-01 -4.9708408684771797e+01 1.0000000000000000e+00 1.1330444081978703e+01 1.0783595779394849e+01 1.2291022080803634e+01 
54 1 3 9.9999999990680777e-01 1.2065547227932545e+02 1.0000000000000000e+00 2.3335501293172399e+01 9.0664820356671960e+00 1.3504900816125064e+01 
53 1 3 1.0000000000127811e+00 1.6195855310255530e+02 1.0000000000000000e+00 2.4038329872599711e+01 8.7425767786425368e+00 1.2759994099203809e+01 
28 1 3 9.9999999990954247e-01 1.9593908235748631e+02 1.0000000000000000e+00 2.3294015133735339e+01 9.3351198677316152e+00 1.3496290403320094e+01 
532 4 3 9.9999999995374511e-01 3.6388198200538495e+00 1.0000000000000000e+00 2.3463096148790335e+01 8.7300294389858806e+00 1.3379334679147787e+01 
1018 6 3 1.0000000000401670e+00 -3.8121292130759286e+01 1.0000000000000000e+00 2.3309366113648913e+01 1.0259951476894170e+01 1.3388371456797440e+01 
557 4 3 1.0000000000139371e+00 -6.4833008461017258e+01 1.0000000000000000e+00 2.3794595865958154e+01 8.6588055924037164e+00 1.2916344747994494e+01 
556 4 3 1.0000000000056259e+00 -7.9461493272387202e+01 1.0000000000000000e+00 2.4477645483986361e+01 8.9882876039105088e+00 1.2720114458670910e+01 
531 4 3 9.9999999999865974e-01 -5.3589536416884229e+00 1.0000000000000000e+00 2.4847373438463745e+01 9.2189454612047754e+00 1.2976674619556766e+01 
27 1 3 1.0000000000619169e+00 3.8355525940488172e+02 1.0000000000000000e+00 2.5040913316109325e+01 9.4808298298032661e+00 1.3423065267997186e+01 
52 1 3 9.9999999999821443e-01 -7.9981942818578187e+00 1.0000000000000000e+00 2.4769404326618474e+01 9.1590201251724874e+00 1.2891603303737535e+01 
1009 6 3 1.0000000000010711e+00 -4.7411480909879813e+01 1.0000000000000000e+00 9.2956823534975026e+00 1.2945153632141281e+01 1.3108460487808509e+01 
1513 9 3 9.9999999995858802e-01 3.1835833410911981e+01 1.0000000000000000e+00 9.4106043034329048e+00 1.1813114268112521e+01 1.3002346213020758e+01 
1052 7 3 9.9999999999426514e-01 1.7407132414390674e+02 1.0000000000000000e+00 9.4939570454432776e+00 1.2372466855957338e+01 1.2557768904381353e+01 
1010 6 3 9.9999999999972700e-01 -8.0611560049907240e+01 1.0000000000000000e+00 9.1984167491090574e+00 1.2557667298282990e+01 1.3220251029657353e+01 
1514 9 3 1.0000000000003657e+00 1.6224087710442669e+02 1.0000000000000000e+00 9.1987202922904601e+00 1.2289904317430240e+01 1.3178859112184997e+01 
1515 9 3 1.0000000000086309e+00 1.1311276295446103e+02 1.0000000000000000e+00 9.7761099380532706e+00 1.3404622197512509e+01 1.2569485329250520e+01 
1053 7 3 9.9999999998823896e-01 1.2482852276043558e+02 1.0000000000000000e+00 9.2477414803550051e+00 1.2483667780941396e+01 1.2921725624489357e+01 
1539 9 3 9.9999999998001865e-01 5.3424151311400445e+00 1.0000000000000000e+00 9.2621777579374527e+00 1.2275759345345678e+01 1.2926746146926581e+01 
1540 9 3 1.0000000000507390e+00 9.6995347462877490e+01 1.0000000000000000e+00 1.0804369719241175e+01 1.3129185469818227e+01 1.2536217994290336e+01 
1054 7 3 9.9999999997069688e-01 2.2053820283328129e+01 1.0000000000000000e+00 1.1568990724063392e+01 1.1159896963978873e+01 1.2331819400450897e+01 
1541 9 3 1.0000000000614606e+00 9.5884887390708240e+00 1.0000000000000000e+00 1.1211262185543283e+01 1.2668656137220911e+01 1.2794216187646024e+01 
1013 6 3 1.0000000000178466e+00 1.0661827778609158e+01 1.0000000000000000e+00 1.1553656890091784e+01 1.1692461040496825e+01 1.4033741336532270e+01 
1517 9 1 9.9999999999294042e-01 -3.3574034856532514e+01 1.0000000000000000e+00 1.8703604144863768e+01 1.3125697140895314e+01 1.2215529435363170e+01 
1016 6 3 1.0000000002062730e+00 -9.4778098036246078e+01 1.0000000000000000e+00 2.2973640568874391e+01 1.3070219993574943e+01 1.3535565988124990e+01 
1017 6 3 9.9999999997465494e-01 3.7062531411888662e+00 1.0000000000000000e+00 2.3482408867681126e+01 1.1451328707447320e+01 1.3215807325997959e+01 
1521 9 3 9.9999999995557887e-01 3.1298144453658239e+00 1.0000000000000000e+00 2.2865112014823424e+01 1.2946205865127123e+01 1.3157292318674124e+01 
1058 7 1 1.0000000000032647e+00 -5.4489099198255296e+01 1.0000000000000000e+00 2.3508998109405120e+01 1.1539330292420725e+01 1.2305767159908505e+01 
1544 9 1 9.9999999997453692e-01 -3.0718053913753558e+01 1.0000000000000000e+00 2.2721221925230051e+01 1.3170479054156633e+01 1.2037167789256877e+01 
1546 9 3 9.9999999990296884e-01 -2.8457960389066244e+01 1.0000000000000000e+00 2.2991214651740265e+01 1.2488046587709297e+01 1.3160791416480439e+01 
1061 7 3 9.9999999996989763e-01 -5.6243405191290016e+01 1.0000000000000000e+00 2.3412925906971029e+01 1.1304518246816805e+01 1.3247785610546964e+01 
1963 9 1 9.9999999998743561e-01 -2.4761368641302980e+01 1.0000000000000000e+00 1.0899084313876509e+01 1.5363163992446539e+01 1.1593257119272574e+01 
1965 9 3 9.9999999998340805e-01 1.1777007649879312e+01 1.0000000000000000e+00 9.7969606717087476e+00 1.5631972153641602e+01 1.2802009902010120e+01 
1964 9 3 1.0000000000023423e+00 3.4198980314912326e+01 1.0000000000000000e+00 9.0476499389975835e+00 1.6333098728755424e+01 1.3794155820180572e+01 
1989 9 3 9.9999999998779798e-01 -9.7412860490725123e+01 1.0000000000000000e+00 9.4828557983810065e+00 1.6077979917672462e+01 1.3128247650910916e+01 
2450 11 3 1.0000000000116751e+00 -8.5073904912900247e+01 1.0000000000000000e+00 9.0755600554197873e+00 1.6313947582812624e+01 1.3982159761496110e+01 
1990 9 3 9.9999999999189215e-01 -4.7126955341423979e+01 1.0000000000000000e+00 1.0797447137855293e+01 1.4994425973948879e+01 1.2282069617051299e+01 
2475 11 3 1.0000000000352776e+00 -5.5501090134333246e+01 1.0000000000000000e+00 9.1591900552407459e+00 1.6173369750293553e+01 1.3812734623564490e+01 
2451 11 3 9.9999999991343813e-01 -5.4462045056559333e+01 1.0000000000000000e+00 1.0945786943856822e+01 1.6332330051852882e+01 1.3165965044322972e+01 
1538 9 1 1.0000000000494480e+00 -1.9275210143261649e+01 1.0000000000000000e+00 1.1846910564844995e+01 1.4357125482763664e+01 1.2757803083438178e+01 
1966 9 3 1.0000000003517331e+00 5.0606063294557309e+01 1.0000000000000000e+00 1.2533489287953962e+01 1.6031324182713735e+01 1.3276440137163190e+01 
1991 9 3 1.0000000000834572e+00 -4.0642913318486805e+01 1.0000000000000000e+00 1.2658059593745181e+01 1.5958213929956290e+01 1.2837626273798964e+01 
2476 11 3 9.9999999997413780e-01 -3.9592318050283026e+01 1.0000000000000000e+00 1.1311546424181950e+01 1.5519922910281309e+01 1.2207941257332916e+01 
1516 9 1 9.9999999997746514e-01 -1.1009613006414302e+01 1.0000000000000000e+00 1.7923183134630371e+01 1.3644154982416421e+01 1.2920850944283959e+01 
1519 9 3 1.0000000000995632e+00 -3.6096367218324538e+01 1.0000000000000000e+00 1.9056817759302437e+01 1.4323366309909034e+01 1.2786717730827684e+01 
1542 9 1 9.9999999999923883e-01 1.2320402188569726e+00 1.0000000000000000e+00 1.8041227915733685e+01 1.4311362753176041e+01 1.1954812265896978e+01 
1518 9 3 1.0000000000457823e+00 6.7478032511040933e+00 1.0000000000000000e+00 1.9138255669541547e+01 1.4341126100038405e+01 1.2676098556301010e+01 
1543 9 3 1.0000000000698976e+00 -3.2220965217545352e+00 1.0000000000000000e+00 1.9179913160300487e+01 1.4257738660648158e+01 1.2724446716941690e+01 
1520 9 3 1.0000000001084279e+00 -5.4648635631747160e+00 1.0000000000000000e+00 2.1361091653283093e+01 1.4511195966447559e+01 1.2936430080409309e+01 
1545 9 3 1.0000000002071776e+00 -2.6183043290933782e+01 1.0000000000000000e+00 2.1345427067567392e+01 1.4445522754191209e+01 1.2922848589521079e+01 
1970 9 3 9.9999999995536071e-01 -3.8750527194926562e+01 1.0000000000000000e+00 2.1320054828293038e+01 1.4436273544377837e+01 1.2830000608179297e+01 
1969 9 3 9.9999999994006139e-01 -6.1622418292066008e+01 1.0000000000000000e+00 2.0191510787062057e+01 1.4213671834872025e+01 1.3081479665606830e+01 
1994 9 3 1.0000000000054945e+00 -4.3906991916612064e+01 1.0000000000000000e+00 1.9341432526943485e+01 1.4929506567339443e+01 1.2580151243788904e+01 
1971 9 3 9.9999999997194533e-01 1.3354243926296220e+02 1.0000000000000000e+00 2.1150688437272411e+01 1.4311896079330307e+01 1.2782159418153272e+01 
1968 9 1 9.9999999997824340e-01 -4.1026825952825625e+01 1.0000000000000000e+00 2.2023695356390114e+01 1.4526573959000673e+01 1.1923759036880840e+01 
1972 9 3 9.9999999995351274e-01 3.4507483039757410e+01 1.0000000000000000e+00 2.5274801602793275e+01 1.6008451447896395e+01 1.3226125642397538e+01 
1973 9 3 9.9999999993563460e-01 8.6291458522310123e+00 1.0000000000000000e+00 2.6684817375134912e+01 1.6122260095077245e+01 1.3560553435896701e+01 
1995 9 1 1.0000000000106439e+00 -1.8592090837833499e+01 1.0000000000000000e+00 2.5247236204256055e+01 1.5147976005781899e+01 1.2722493698760671e+01 
1996 9 1 1.0000000000124216e+00 -1.9236357231523751e+01 1.0000000000000000e+00 2.6932068653050131e+01 1.5695529389505298e+01 1.2827079508713391e+01 
1997 9 3 9.9999999997126032e-01 -2.3226894193016278e+01 1.0000000000000000e+00 2.5820715669259805e+01 1.5599825316666413e+01 1.3241415038398452e+01 
1998 9 3 9.9999999995818101e-01 3.2596276477117776e+01 1.0000000000000000e+00 2.6254719231646302e+01 1.5812681074357059e+01 1.3270439157158831e+01 
2459 11 3 9.9999999997105171e-01 9.7556407489691040e+01 1.0000000000000000e+00 2.5709444232361573e+01 1.5991595273049562e+01 1.3102417565330672e+01 
2484 11 1 9.9999999999218114e-01 -5.7576016210003104e+01 1.0000000000000000e+00 2.9846025023901923e+01 1.5957839338116932e+01 1.3292837696801431e+01 
1988 9 3 9.9999999999334621e-01 -1.4591274035452636e+02 1.0000000000000000e+00 9.6100351201162102e+00 1.6788701767954745e+01 1.3294828454053061e+01 
2935 13 1 9.9999999997690658e-01 -1.5257178869913194e+01 1.0000000000000000e+00 1.2270566137907309e+01 1.6473087590185276e+01 1.1599613359882182e+01 
2452 11 3 9.9999999987120658e-01 -3.0394324505290400e+00 1.0000000000000000e+00 1.3256023117885025e+01 1.6408850196723503e+01 1.2813928517884401e+01 
2936 13 1 1.0000000000332980e+00 -4.9268392221298384e+01 1.0000000000000000e+00 1.2952847409802251e+01 1.7803322220606987e+01 1.2233293647796625e+01 
2477 11 3 9.9999999994941213e-01 -5.6085753672687822e+01 1.0000000000000000e+00 1.3601701298225894e+01 1.6600401906370411e+01 1.2736114710572297e+01 
1992 9 3 9.9999999996717637e-01 -5.0783878739067909e+01 1.0000000000000000e+00 1.4063202054687579e+01 1.6759665383381332e+01 1.2779135428021069e+01 
2961 13 1 1.0000000000468230e+00 -1.1143705256249019e+01 1.0000000000000000e+00 1.4482294596075649e+01 1.8583777993427244e+01 1.2328408282017939e+01 
2963 13 3 1.0000000000131846e+00 1.1485664730133969e+01 1.0000000000000000e+00 1.4097184513587939e+01 1.7456352108720708e+01 1.2433723487213641e+01 
2453 11 3 9.9999999999211642e-01 8.7383861389456285e+01 1.0000000000000000e+00 1.5350872427885527e+01 1.7094396752255008e+01 1.3256674754997835e+01 
2939 13 3 1.0000000000146172e+00 -6.2839221475906392e+01 1.0000000000000000e+00 1.6053915488457417e+01 1.8618351820521756e+01 1.3319208208979129e+01 
2478 11 3 1.0000000000061402e+00 -5.0460205171889186e+01 1.0000000000000000e+00 1.4909540822610001e+01 1.7110062320817864e+01 1.2841866002786254e+01 
2964 13 3 1.0000000000366402e+00 -2.5805966141801133e+00 1.0000000000000000e+00 1.5667762151798517e+01 1.8109313574405149e+01 1.2683355686161679e+01 
2940 13 3 9.9999999996246602e-01 1.2418921169299104e+01 1.0000000000000000e+00 1.6478515314916155e+01 1.8637932171437132e+01 1.3392566502829602e+01 
2454 11 3 9.9999999983891941e-01 -4.3830864031782980e+01 1.0000000000000000e+00 1.6446156391744871e+01 1.8685921402880979e+01 1.3792418241771529e+01 
2938 13 1 1.0000000000232041e+00 -9.6532192039098828e+00 1.0000000000000000e+00 1.7025487710206921e+01 1.8620151930016061e+01 1.2312414376126174e+01 
2479 11 3 1.0000000000297453e+00 -4.5784563140436674e+01 1.0000000000000000e+00 1.6597403401627162e+01 1.8179996826640675e+01 1.3139529540899570e+01 
2965 13 3 1.0000000000347937e+00 8.6112969931145102e+01 1.0000000000000000e+00 1.6472622571345454e+01 1.8254720982770660e+01 1.3065371023585188e+01 
1993 9 1 1.0000000000203944e+00 -4.2495559992952558e+01 1.0000000000000000e+00 2.0873610262847276e+01 1.6476475154085616e+01 1.2492504619349214e+01 
2455 11 3 9.9999999992542266e-01 -5.5954868705666399e+01 1.0000000000000000e+00 1.9442278300359675e+01 1.6732424757548475e+01 1.3783123539965924e+01 
2480 11 3 9.9999999991987765e-01 -4.0958798559319170e+01 1.0000000000000000e+00 1.9467904300948664e+01 1.6820234253588232e+01 1.3819378106461103e+01 
2456 11 3 9.9999999990841593e-01 -3.3753948131621179e+01 1.0000000000000000e+00 2.1138192233642052e+01 1.6616552008161111e+01 1.3417832263495020e+01 
2481 11 3 9.9999999992849264e-01 -3.1602241153983236e+01 1.0000000000000000e+00 2.1091136615824642e+01 1.6987421853557695e+01 1.3224186994630459e+01 
2967 13 3 1.0000000000040909e+00 5.5726447485808592e+01 1.0000000000000000e+00 2.1048109376664353e+01 1.8950557776340883e+01 1.2943323492433974e+01 
2941 13 1 1.0000000000002538e+00 -2.0895979987156799e+01 1.0000000000000000e+00 2.2410874819589321e+01 1.8468759088508079e+01 1.1940842389086846e+01 
2943 13 3 1.0000000000549145e+00 -2.5240272065700136e+01 1.0000000000000000e+00 2.2624790281582307e+01 1.7878366839581226e+01 1.3043689669223651e+01 
2457 11 3 1.0000000000911762e+00 2.9985664915052070e+01 1.0000000000000000e+00 2.3020613155472709e+01 1.8037556294908963e+01 1.3283140758369528e+01 
2482 11 3 1.0000000000460332e+00 -3.1415869525821478e+01 1.0000000000000000e+00 2.2963596738593122e+01 1.8225629749566505e+01 1.3033801742809407e+01 
2968 13 3 1.0000000000397928e+00 -5.1162228863235292e+01 1.0000000000000000e+00 2.2790452981247935e+01 1.8063486793228005e+01 1.2985984960686116e+01 
2944 13 3 9.9999999974765486e-01 -3.6172816808112742e+01 1.0000000000000000e+00 2.3770847359264472e+01 1.8466988544151580e+01 1.3481649763887358e+01 
2458 11 3 9.9999999998028011e-01 4.2993746887535842e+00 1.0000000000000000e+00 2.4372454880724312e+01 1.7442821302939628e+01 1.3305150304897646e+01 
2483 11 3 9.9999999999056477e-01 3.3239405236585116e+00 1.0000000000000000e+00 2.4956244017751246e+01 1.7345788101398398e+01 1.3149456404599643e+01 
2969 13 3 1.0000000000046458e+00 -4.3670635272067898e+01 1.0000000000000000e+00 2.5213297582640752e+01 1.8667968311199211e+01 1.3262574808928651e+01 
3022 13 3 9.9999999999589284e-01 -1.3279195235666134e+02 1.0000000000000000e+00 2.8822038367380745e+01 1.6412732892617058e+01 1.4245983232201729e+01 
1974 9 3 1.0000000000040847e+00 -3.9315795653202272e+01 1.0000000000000000e+00 2.9327956158566341e+01 1.7177734742038329e+01 1.4074301231648903e+01 
3934 17 1 1.0000000000129377e+00 -1.3609476207922754e+01 1.0000000000000000e+00 1.5658904542542722e+01 2.1673478428055169e+01 1.3564462929910105e+01 
3430 14 1 1.0000000000697942e+00 1.3511167314204531e+01 1.0000000000000000e+00 1.7081272052804120e+01 2.0718522844286372e+01 1.3084579473126045e+01 
3938 17 3 9.9999999972632347e-01 -4.0093812873690574e+01 1.0000000000000000e+00 1.9003322272586654e+01 2.0805380961176574e+01 1.3577996128721473e+01 
3432 14 1 1.0000000000396576e+00 -2.3503246364175958e+01 1.0000000000000000e+00 1.8556192175715761e+01 2.1499988191654889e+01 1.2530494432082691e+01 
2966 13 3 9.9999999993511102e-01 -3.1402735793760499e+01 1.0000000000000000e+00 1.9573181718068902e+01 1.9194922454139402e+01 1.3932881806360720e+01 
3408 14 1 1.0000000000186111e+00 -2.7421193798257406e+01 1.0000000000000000e+00 2.1717407718337260e+01 2.1057398429568238e+01 1.2323164961232482e+01 
3410 14 3 1.0000000000093749e+00 -2.3003493214430112e+01 1.0000000000000000e+00 2.0910858234342200e+01 2.0597943190129186e+01 1.2825708564256436e+01 
3409 14 3 9.9999999992130406e-01 1.5051815843526100e+01 1.0000000000000000e+00 1.9403550182812253e+01 2.1283321387532038e+01 1.3592205644517042e+01 
3434 14 3 1.0000000000023563e+00 -2.6769158401328731e+01 1.0000000000000000e+00 1.9637098625475577e+01 2.0909699381959104e+01 1.3153706189796075e+01 
3435 14 3 1.0000000000058078e+00 -5.3095513793316343e+01 1.0000000000000000e+00 2.0202888649277110e+01 2.0623864386336905e+01 1.2940883689212502e+01 
3411 14 3 9.9999999999405775e-01 9.4743995302857975e+00 1.0000000000000000e+00 2.0460648412501779e+01 1.9714846866272275e+01 1.3118092264297465e+01 
3477 15 3 1.0000000001115954e+00 -2.9639735696221393e+01 1.0000000000000000e+00 1.9542157598174320e+01 2.1058401062059922e+01 1.4272052764224094e+01 
2942 13 3 1.0000000000146112e+00 -3.4558451658656622e+01 1.0000000000000000e+00 2.1847836701227259e+01 1.9336372504995921e+01 1.3001677934950091e+01 
3476 15 1 9.9999999996607192e-01 -5.6690107694118588e+01 1.0000000000000000e+00 2.2164712755197044e+01 2.1736185268767009e+01 1.3245325658636045e+01 
2970 13 3 9.9999999999942168e-01 -1.2824611787235241e+01 1.0000000000000000e+00 2.5162044324300570e+01 1.9404062336806529e+01 1.3605545781963844e+01 
3436 14 1 1.0000000000321787e+00 -3.6580824678355462e+01 1.0000000000000000e+00 2.5580229971747578e+01 1.9390011766854805e+01 1.2925568314562591e+01 
3412 14 1 1.0000000000381659e+00 1.3295507892166695e+01 1.0000000000000000e+00 2.8062490745811957e+01 2.1115324380632352e+01 1.2038533729933260e+01 
3413 14 3 9.9999999996807432e-01 6.0386129358538739e+01 1.0000000000000000e+00 2.8296489800911388e+01 2.1687604143749923e+01 1.3838658402899414e+01 
3915 17 1 1.0000000000049765e+00 6.0459876095324432e+01 1.0000000000000000e+00 2.7927275332006293e+01 2.1454548894948868e+01 1.1771868891995400e+01 
3438 14 1 1.0000000000362383e+00 -5.0144728962043082e+01 1.0000000000000000e+00 2.9861889466448051e+01 2.1343662587828426e+01 1.2566492607446074e+01 
4399 19 3 9.9999999998032474e-01 -4.5946021428558680e+01 1.0000000000000000e+00 1.5990765547186035e+01 2.4361521206618097e+01 1.3826275697074042e+01 
3407 14 3 9.9999999986155419e-01 -6.4597074286369491e+01 1.0000000000000000e+00 1.6950174274740665e+01 2.1858206564281925e+01 1.3574757446899712e+01 
3433 14 3 1.0000000000217140e+00 -3.5362437368775048e+01 1.0000000000000000e+00 1.6554723913217408e+01 2.1995579060415903e+01 1.3455421149793834e+01 
3936 17 3 1.0000000000121390e+00 -1.7834218503540537e+01 1.0000000000000000e+00 1.6518216547607597e+01 2.2231047193112037e+01 1.3270037573837898e+01 
3910 17 1 9.9999999999806954e-01 -4.4536527252630577e+01 1.0000000000000000e+00 1.7395074666715711e+01 2.4204200495240364e+01 1.2109668729964493e+01 
3911 17 3 1.0000000000227016e+00 -7.2064501780092186e+01 1.0000000000000000e+00 1.7367544842532478e+01 2.2860096803485309e+01 1.3230929979051636e+01 
3912 17 3 1.0000000000024130e+00 -4.6131950091074991e+01 1.0000000000000000e+00 1.7069588213191917e+01 2.3633014919004314e+01 1.2888158608987540e+01 
3937 17 3 1.0000000000073073e+00 -4.1725751893548022e+01 1.0000000000000000e+00 1.7007284147517332e+01 2.2960850712182324e+01 1.2931091535372998e+01 
3914 17 3 9.9999999996069422e-01 -3.2817322855847721e+01 1.0000000000000000e+00 2.1478480170998740e+01 2.2196701563594182e+01 1.3687647884758324e+01 
3913 17 1 1.0000000000269409e+00 7.5291675535321076e+01 1.0000000000000000e+00 2.1640952430405065e+01 2.3163687669717479e+01 1.2582688334526914e+01 
4442 20 1 1.0000000000123814e+00 -7.1194501296376473e+01 1.0000000000000000e+00 2.1814401527362449e+01 2.2675297358986946e+01 1.2287469711210150e+01 
3940 17 3 1.0000000000149161e+00 -3.2060002815197485e+01 1.0000000000000000e+00 2.3198280636183444e+01 2.4293096301005363e+01 1.3201340974304596e+01 
3939 17 1 1.0000000000591212e+00 4.2761606476522559e+01 1.0000000000000000e+00 2.4030643542566445e+01 2.3733025595833809e+01 1.3720780090854513e+01 
3941 17 3 9.9999999993549893e-01 3.6743058675778755e+01 1.0000000000000000e+00 2.3820695717393900e+01 2.4326787176389708e+01 1.3962919251913503e+01 
3415 14 3 9.9999999997440481e-01 -1.0201745987179616e+02 1.0000000000000000e+00 2.9422382183846256e+01 2.1866951905946252e+01 1.3517715797324795e+01 
3414 14 3 1.0000000000034357e+00 2.2434939180407348e+01 1.0000000000000000e+00 2.8537083897377240e+01 2.1947233638523549e+01 1.2141202009104934e+01 
3918 17 3 9.9999999999148204e-01 1.3747385343411221e+01 1.0000000000000000e+00 2.9296308289409261e+01 2.2820680709200541e+01 1.1783440321816416e+01 
4405 19 3 9.9999999998546241e-01 -1.2657867845492966e+01 1.0000000000000000e+00 2.9695287031632031e+01 2.3709556829214211e+01 1.2357966119241706e+01 
3440 14 3 1.0000000000631863e+00 -7.9682460556165978e+01 1.0000000000000000e+00 2.9771666559393424e+01 2.1952441604207721e+01 1.2747797436708325e+01 
4473 20 3 9.9999999999769429e-01 4.1308461903686566e+02 1.0000000000000000e+00 2.9861849283334184e+01 2.3290494823152660e+01 1.3976603763495579e+01 
3919 17 3 9.9999999999189260e-01 -6.8952572030948701e+01 1.0000000000000000e+00 2.9934299155441352e+01 2.3552831350459854e+01 1.2265628749404970e+01 
3944 17 3 1.0000000000036458e+00 -3.3805434081046798e+01 1.0000000000000000e+00 2.9899392690191416e+01 2.3459682596182240e+01 1.3709213137872579e+01 
4884 21 3 9.9999999999484535e-01 -1.7234139966288582e+00 1.0000000000000000e+00 1.6138153832052858e+01 2.6187007680491302e+01 1.3740751530461317e+01 
4883 21 3 1.0000000000017097e+00 3.8391992329936642e+01 1.0000000000000000e+00 1.6511974899916378e+01 2.6923549881696069e+01 1.2898837125451182e+01 
4440 20 3 9.9999999999914924e-01 -4.6754523141700133e+01 1.0000000000000000e+00 1.6948524642683513e+01 2.5075732276291919e+01 1.3185950898049509e+01 
4397 19 3 1.0000000000115803e+00 -3.5556151298903181e+01 1.0000000000000000e+00 1.6861360470952604e+01 2.5332319331817462e+01 1.3410471870218204e+01 
4398 19 3 1.0000000000086797e+00 -2.5929563752799854e+01 1.0000000000000000e+00 1.6969268219695735e+01 2.5097225892056311e+01 1.3329223223538973e+01 
4441 20 3 9.9999999999892075e-01 -5.1402907690133468e+01 1.0000000000000000e+00 1.6719857533774817e+01 2.5098246574742575e+01 1.3013368651995160e+01 
4927 22 3 1.0000000000018276e+00 -3.7105114252410146e+01 1.0000000000000000e+00 1.6549937230453249e+01 2.6859404106943028e+01 1.2913413929936114e+01 
5512 28 3 9.9999999989969712e-01 -4.4638696546251751e+01 1.0000000000000000e+00 2.1200427391019620e+01 2.6704914628834914e+01 1.4049620079723901e+01 
5487 28 3 1.0000000000079268e+00 -2.4430801467504448e+01 1.0000000000000000e+00 2.1407297035614459e+01 2.7239278182257415e+01 1.3390776097940089e+01 
5488 28 3 1.0000000000371079e+00 -6.4562063864171748e+01 1.0000000000000000e+00 2.1859321310829600e+01 2.6800218802456680e+01 1.2885332297686746e+01 
4400 19 3 1.0000000000142057e+00 -4.4646507657288659e+01 1.0000000000000000e+00 2.2321045710963507e+01 2.4850670840689592e+01 1.2999891625369605e+01 
4885 21 1 1.0000000000153895e+00 -1.8494046676636266e+01 1.0000000000000000e+00 2.3145838355193757e+01 2.5910031901509743e+01 1.1973968239955589e+01 
4443 20 3 1.0000000000138551e+00 -6.1068406894656306e+01 1.0000000000000000e+00 2.2928401266832427e+01 2.4690091780288451e+01 1.2806457085550617e+01 
4887 21 3 1.0000000000819345e+00 -1.4730381479090457e+01 1.0000000000000000e+00 2.2650812548977211e+01 2.6850062309764876e+01 1.2732507738431943e+01 
4401 19 3 1.0000000000175902e+00 4.7654445316649031e+01 1.0000000000000000e+00 2.2290375513138528e+01 2.5079004769276406e+01 1.2911018158652215e+01 
4402 19 3 9.9999999992968969e-01 6.1042767547685827e+01 1.0000000000000000e+00 2.4426392245224580e+01 2.6099295977169632e+01 1.4270118631208550e+01 
4929 22 1 9.9999999996921130e-01 -2.2785042667202625e+01 1.0000000000000000e+00 2.4484867569179855e+01 2.7132961554302966e+01 1.2707389693996937e+01 
4888 21 3 9.9999999990454902e-01 1.7273348901371737e+01 1.0000000000000000e+00 2.4714116988041159e+01 2.6600249672249220e+01 1.3424309088831096e+01 
4444 20 1 9.9999999994774624e-01 -1.5408854239846020e+01 1.0000000000000000e+00 2.6831700374746639e+01 2.5010281366504913e+01 1.4040976321382209e+01 
4445 20 3 9.9999999997278122e-01 -3.0831180620408063e+01 1.0000000000000000e+00 2.4914711757487801e+01 2.5124957769571211e+01 1.3275782183272678e+01 
4446 20 3 1.0000000000025333e+00 -5.3030008427672737e+00 1.0000000000000000e+00 2.6447734781351848e+01 2.6159464459984751e+01 1.3634166296866534e+01 
4931 22 3 9.9999999997209599e-01 -2.2904214223714437e+01 1.0000000000000000e+00 2.5080806109198992e+01 2.6433973228628307e+01 1.3224706097622912e+01 
4932 22 3 1.0000000034615455e+00 -1.3491085690989530e+01 1.0000000000000000e+00 2.6900043422172139e+01 2.7196727345105927e+01 1.3376535131012494e+01 
5489 28 3 9.9999999996372479e-01 -5.6952687078422500e+01 1.0000000000000000e+00 2.4981202960055224e+01 2.5818145207550533e+01 1.3013095892067149e+01 
4956 22 3 1.0000000000442799e+00 -2.7190969754038495e+01 1.0000000000000000e+00 2.5817441442776708e+01 2.6759364840618016e+01 1.3844439903822851e+01 
4403 19 1 1.0000000000074278e+00 -1.9542475839218667e+01 1.0000000000000000e+00 2.9921992349267370e+01 2.4574669807584112e+01 1.1709937382799049e+01 
4930 22 1 9.9999999978965404e-01 -2.2789614811031075e+01 1.0000000000000000e+00 2.8260808780922616e+01 2.7002182781538917e+01 1.2562606876541752e+01 
5455 28 1 1.0000000000003120e+00 3.5256251044789286e+02 1.0000000000000000e+00 1.1542640385639098e+01 2.9676049176101486e+01 1.1557276413540592e+01 
5456 28 3 9.9999999999470757e-01 1.0887306986035437e+01 1.0000000000000000e+00 1.1245086759659259e+01 2.9787329603304993e+01 1.3568899711376584e+01 
5942 30 1 9.9999999999786149e-01 -1.1220180272341594e+01 1.0000000000000000e+00 1.2943991165209109e+01 2.9374550467663184e+01 1.2986792228453712e+01 
5969 30 3 1.0000000000015037e+00 -4.5296157915490404e+01 1.0000000000000000e+00 1.1921289674335130e+01 2.9843071716700113e+01 1.2771378933075795e+01 
5941 30 1 1.0000000000016280e+00 8.6893508181810546e+01 1.0000000000000000e+00 1.2691522697181560e+01 2.9920543732438979e+01 1.1719666567242752e+01 
4881 21 1 9.9999999999952827e-01 9.9208495516255866e+00 1.0000000000000000e+00 1.5691910985401666e+01 2.7709219018506872e+01 1.2293075819215888e+01 
5484 28 3 9.9999999999970057e-01 -4.1565310180060294e+01 1.0000000000000000e+00 1.5606836165944115e+01 2.7719126226619654e+01 1.3500125967762813e+01 
4952 22 3 9.9999999999999289e-01 -5.5330871447259121e+01 1.0000000000000000e+00 1.6054694745546527e+01 2.8228900454547812e+01 1.3498508098025056e+01 
4926 22 3 1.0000000000014519e+00 -3.9921105753783770e+01 1.0000000000000000e+00 1.6459509590643854e+01 2.7362197835482963e+01 1.2938116310497307e+01 
4928 22 3 1.0000000000021558e+00 -1.8126877133752512e+01 1.0000000000000000e+00 1.7059026064668675e+01 2.8360168716876895e+01 1.3923872652179567e+01 
5462 28 3 1.0000000000483618e+00 1.4484279030008896e+01 1.0000000000000000e+00 2.1535109873658644e+01 2.7434027796205655e+01 1.3511213240074813e+01 
5460 28 1 9.9999999994085542e-01 6.2566215243186812e-02 1.0000000000000000e+00 2.0737695362872273e+01 2.8284660284962463e+01 1.3261607346529425e+01 
5461 28 1 1.0000000000045040e+00 -5.9542137697829247e+01 1.0000000000000000e+00 2.1446107673325290e+01 2.8319908679104589e+01 1.2607301517070489e+01 
4886 21 3 1.0000000000924754e+00 -3.2884529831816835e+01 1.0000000000000000e+00 2.2028993725356116e+01 2.7345517834883193e+01 1.3228288172112242e+01 
5463 28 1 1.0000000000564440e+00 -2.3181797722020335e+01 1.0000000000000000e+00 2.7056557792779319e+01 2.8381235786091406e+01 1.2187417449217172e+01 
5464 28 1 9.9999999983379562e-01 -2.9861353258850052e+01 1.0000000000000000e+00 2.8559000196141799e+01 2.8306615231490330e+01 1.1696560691120540e+01 
4889 21 3 9.9999999589624966e-01 -1.4576698069432618e+01 1.0000000000000000e+00 2.7480729365325296e+01 2.7660793199040970e+01 1.3273491688535847e+01 
4933 22 3 9.9999999990801547e-01 1.1494815682468092e+01 1.0000000000000000e+00 2.7816309976484977e+01 2.8215806134223513e+01 1.2962800158946362e+01 
5465 28 3 1.0000000005013161e+00 -2.8319206689357500e+01 1.0000000000000000e+00 2.8425080927439453e+01 2.8424098581146701e+01 1.2714230451273156e+01 
5466 28 3 1.0000000050351436e+00 -3.8019075695561888e+01 1.0000000000000000e+00 2.8740334996949162e+01 2.9055117604503799e+01 1.3009718527813956e+01 
4890 21 3 9.9999999909078552e-01 -6.0479917712849076e+00 1.0000000000000000e+00 2.8024509855373335e+01 2.8331579624622520e+01 1.3137683455372276e+01 