LAMMPS data file via write_data, version 30 Jul 2016, timestep = 100400000

6918 atoms
8 atom types

0.0000000000000000e+00 6.0000000000000000e+01 xlo xhi
0.0000000000000000e+00 6.0000000000000000e+01 ylo yhi
0.0000000000000000e+00 6.0000000000000000e+01 zlo zhi

Masses

1 3.896
2 20.064
3 4.31
4 28.378
5 28.378
6 28.378
7 28.378
8 28.378

Atoms # meso-molecular

3916 17 1 9.9999999981419030e-01 5.6947894645390811e+00 1.0000000000000000e+00 2.8678626338462589e+01 2.2877728833840038e+01 1.1392003379278330e+01 
20 1 1 9.9999998992410399e-01 4.5342401520594663e+01 1.0000000000000000e+00 1.2352253441408696e+01 8.2764820341720480e+00 1.3776679345255435e+01 
548 4 1 9.9999999888641111e-01 -3.0363401879019975e+01 1.0000000000000000e+00 1.1070658945125984e+01 8.9928518366992520e+00 1.3628921423310597e+01 
523 4 1 9.9999999480795221e-01 -1.2471463334906244e+02 1.0000000000000000e+00 1.1742637987760554e+01 1.0773647189343500e+01 1.1484378742183090e+01 
47 1 3 9.9999996746919528e-01 -1.2207870915010903e+02 1.0000000000000000e+00 1.2234565933150318e+01 9.4657124729944524e+00 1.2764473414902501e+01 
525 4 3 9.9999999280972973e-01 -5.9948505365569119e+01 1.0000000000000000e+00 1.2378361845241436e+01 1.0076231638068228e+01 1.2613634804186269e+01 
1012 6 3 1.0000001006638397e+00 4.5886421899087125e+01 1.0000000000000000e+00 1.2458952196318133e+01 1.0359239906422379e+01 1.3541210812663843e+01 
549 4 1 9.9999998091558040e-01 -4.4818098898351536e+01 1.0000000000000000e+00 1.3294610251711402e+01 8.9784731043255981e+00 1.3774922833061174e+01 
550 4 3 1.0000000052629081e+00 -2.5644607430688165e+01 1.0000000000000000e+00 1.2578407248895275e+01 9.3851191113356727e+00 1.3200550558917636e+01 
551 4 3 9.9999999809437734e-01 -4.3048925479010805e+01 1.0000000000000000e+00 1.2520801147284608e+01 9.5365075754704147e+00 1.2924678588725810e+01 
1055 7 3 1.0000000039363670e+00 1.4253893363065680e+02 1.0000000000000000e+00 1.2137993263260149e+01 1.0538382200223587e+01 1.2487074440686701e+01 
1011 6 3 9.9999997250323402e-01 -4.9708408684771797e+01 1.0000000000000000e+00 1.1330444124345677e+01 1.0783595737737301e+01 1.2283176436691791e+01 
54 1 3 1.0000000006372955e+00 1.2065547227932545e+02 1.0000000000000000e+00 2.3335501366971645e+01 9.0664819292353656e+00 1.3497055256183343e+01 
53 1 3 1.0000000167085517e+00 1.6195855310255530e+02 1.0000000000000000e+00 2.4038329953561970e+01 8.7425767295575554e+00 1.2752148594702229e+01 
28 1 3 1.0000000123919788e+00 1.9593908235748631e+02 1.0000000000000000e+00 2.3294015260697410e+01 9.3351197554864953e+00 1.3488444846168591e+01 
532 4 3 9.9999999507505577e-01 3.6388198200538495e+00 1.0000000000000000e+00 2.3463096193028075e+01 8.7300293399350899e+00 1.3371489109909758e+01 
1018 6 3 1.0000000313410540e+00 -3.8121292130759286e+01 1.0000000000000000e+00 2.3309366411382840e+01 1.0259951361848616e+01 1.3380525935515521e+01 
557 4 3 1.0000000210264717e+00 -6.4833008461017258e+01 1.0000000000000000e+00 2.3794595966218726e+01 8.6588055561033688e+00 1.2908499227431115e+01 
556 4 3 1.0000000159066658e+00 -7.9461493272387202e+01 1.0000000000000000e+00 2.4477645535738425e+01 8.9882875211271429e+00 1.2712268973709794e+01 
531 4 3 1.0000000150813213e+00 -5.3589536416884229e+00 1.0000000000000000e+00 2.4847373479726052e+01 9.2189453569219779e+00 1.2968829129183892e+01 
27 1 3 9.9999997246790950e-01 3.8355525940488172e+02 1.0000000000000000e+00 2.5040913443088495e+01 9.4808297237846499e+00 1.3415219724444579e+01 
52 1 3 1.0000000656224468e+00 -7.9981942818578187e+00 1.0000000000000000e+00 2.4769404268182345e+01 9.1590200309585228e+00 1.2883757919065504e+01 
1009 6 3 1.0000000223001491e+00 -4.7411480909879813e+01 1.0000000000000000e+00 9.2956824413095855e+00 1.2945153735205038e+01 1.3100615001263440e+01 
1513 9 3 9.9999991256488008e-01 3.1835833410911981e+01 1.0000000000000000e+00 9.4106041120258883e+00 1.1813114043424102e+01 1.2994500642789088e+01 
1052 7 3 9.9999995854905299e-01 1.7407132414390674e+02 1.0000000000000000e+00 9.4939570284202457e+00 1.2372466893427548e+01 1.2549923261924478e+01 
1010 6 3 9.9999998958273406e-01 -8.0611560049907240e+01 1.0000000000000000e+00 9.1984166968145793e+00 1.2557667363736780e+01 1.3212405579732630e+01 
1514 9 3 9.9999995552372378e-01 1.6224087710442669e+02 1.0000000000000000e+00 9.1987201135680241e+00 1.2289904296341888e+01 1.3171013645575613e+01 
1515 9 3 1.0000000332021111e+00 1.1311276295446103e+02 1.0000000000000000e+00 9.7761100472266804e+00 1.3404622312724445e+01 1.2561639844844262e+01 
1053 7 3 9.9999998806972845e-01 1.2482852276043558e+02 1.0000000000000000e+00 9.2477414554667678e+00 1.2483667837545703e+01 1.2913880088445413e+01 
1539 9 3 9.9999994201058751e-01 5.3424151311400445e+00 1.0000000000000000e+00 9.2621775822186052e+00 1.2275759319184063e+01 1.2918900556836762e+01 
1540 9 3 1.0000000065022205e+00 9.6995347462877490e+01 1.0000000000000000e+00 1.0804369784391573e+01 1.3129185547280516e+01 1.2528372453283083e+01 
1054 7 3 9.9999997843140520e-01 2.2053820283328129e+01 1.0000000000000000e+00 1.1568990826238782e+01 1.1159896961063462e+01 1.2323973819099582e+01 
1541 9 3 9.9999994277015447e-01 9.5884887390708240e+00 1.0000000000000000e+00 1.1211262502428466e+01 1.2668656212945287e+01 1.2786370629657588e+01 
1013 6 3 1.0000000640077160e+00 1.0661827778609158e+01 1.0000000000000000e+00 1.1553656722926521e+01 1.1692461078669943e+01 1.4025895948786198e+01 
1517 9 1 9.9999999855465704e-01 -3.3574034856532514e+01 1.0000000000000000e+00 1.8703604202431428e+01 1.3125697126610618e+01 1.2207683833633512e+01 
1016 6 3 1.0000000536301934e+00 -9.4778098036246078e+01 1.0000000000000000e+00 2.2973640577427378e+01 1.3070219924600798e+01 1.3527720423930857e+01 
1017 6 3 9.9999995604591996e-01 3.7062531411888662e+00 1.0000000000000000e+00 2.3482408851871053e+01 1.1451328882405789e+01 1.3207961559769364e+01 
1521 9 3 1.0000000477646167e+00 3.1298144453658239e+00 1.0000000000000000e+00 2.2865112057389791e+01 1.2946206037052908e+01 1.3149446870807092e+01 
1058 7 1 9.9999997107652516e-01 -5.4489099198255296e+01 1.0000000000000000e+00 2.3508998163090457e+01 1.1539330508151584e+01 1.2297921568351072e+01 
1544 9 1 9.9999997813006691e-01 -3.0718053913753558e+01 1.0000000000000000e+00 2.2721222055017712e+01 1.3170479202238083e+01 1.2029322066505918e+01 
1546 9 3 1.0000000465684915e+00 -2.8457960389066244e+01 1.0000000000000000e+00 2.2991214690741877e+01 1.2488046844472715e+01 1.3152945944493908e+01 
1061 7 3 9.9999993229008732e-01 -5.6243405191290016e+01 1.0000000000000000e+00 2.3412925681164914e+01 1.1304518335590569e+01 1.3239939809752062e+01 
1963 9 1 9.9999995428452093e-01 -2.4761368641302980e+01 1.0000000000000000e+00 1.0899084161118001e+01 1.5363164013519020e+01 1.1585411373501168e+01 
1965 9 3 1.0000000588536107e+00 1.1777007649879312e+01 1.0000000000000000e+00 9.7969607550453528e+00 1.5631972119809198e+01 1.2794164300765944e+01 
1964 9 3 9.9999997478524560e-01 3.4198980314912326e+01 1.0000000000000000e+00 9.0476498935642038e+00 1.6333098639226492e+01 1.3786310124720513e+01 
1989 9 3 1.0000000151810939e+00 -9.7412860490725123e+01 1.0000000000000000e+00 9.4828558366098452e+00 1.6077979854796816e+01 1.3120401964556400e+01 
2450 11 3 9.9999997375762451e-01 -8.5073904912900247e+01 1.0000000000000000e+00 9.0755600193324053e+00 1.6313947480121787e+01 1.3974314106548583e+01 
1990 9 3 1.0000000615789506e+00 -4.7126955341423979e+01 1.0000000000000000e+00 1.0797447054684786e+01 1.4994426036576368e+01 1.2274224126341775e+01 
2475 11 3 9.9999998605535878e-01 -5.5501090134333246e+01 1.0000000000000000e+00 9.1591900348244941e+00 1.6173369647142977e+01 1.3804888943442171e+01 
2451 11 3 1.0000000155085578e+00 -5.4462045056559333e+01 1.0000000000000000e+00 1.0945786879578387e+01 1.6332329939209593e+01 1.3158119396114190e+01 
1538 9 1 1.0000000161351263e+00 -1.9275210143261649e+01 1.0000000000000000e+00 1.1846910224307395e+01 1.4357125341487908e+01 1.2749957390710868e+01 
1966 9 3 9.9999994090315869e-01 5.0606063294557309e+01 1.0000000000000000e+00 1.2533489304078062e+01 1.6031324276569173e+01 1.3268594824641545e+01 
1991 9 3 9.9999992476724686e-01 -4.0642913318486805e+01 1.0000000000000000e+00 1.2658059722746872e+01 1.5958213826767500e+01 1.2829780542641084e+01 
2476 11 3 1.0000000243540081e+00 -3.9592318050283026e+01 1.0000000000000000e+00 1.1311546257096841e+01 1.5519922915951161e+01 1.2200095745271152e+01 
1516 9 1 1.0000000033545593e+00 -1.1009613006414302e+01 1.0000000000000000e+00 1.7923183176244507e+01 1.3644155022690279e+01 1.2913005375473336e+01 
1519 9 3 1.0000000035043952e+00 -3.6096367218324538e+01 1.0000000000000000e+00 1.9056817793327514e+01 1.4323366271302861e+01 1.2778872105053415e+01 
1542 9 1 9.9999999668881667e-01 1.2320402188569726e+00 1.0000000000000000e+00 1.8041227951893429e+01 1.4311362784969676e+01 1.1946966671055284e+01 
1518 9 3 1.0000000087461747e+00 6.7478032511040933e+00 1.0000000000000000e+00 1.9138255720235740e+01 1.4341126075962572e+01 1.2668252964434830e+01 
1543 9 3 1.0000000105163336e+00 -3.2220965217545352e+00 1.0000000000000000e+00 1.9179913213528849e+01 1.4257738665585434e+01 1.2716601120801233e+01 
1520 9 3 1.0000000186707751e+00 -5.4648635631747160e+00 1.0000000000000000e+00 2.1361091667650477e+01 1.4511195862067535e+01 1.2928584499396869e+01 
1545 9 3 1.0000000175242321e+00 -2.6183043290933782e+01 1.0000000000000000e+00 2.1345427105058072e+01 1.4445522657734815e+01 1.2915003008481548e+01 
1970 9 3 1.0000000188600837e+00 -3.8750527194926562e+01 1.0000000000000000e+00 2.1320054846301371e+01 1.4436273458843550e+01 1.2822155052755923e+01 
1969 9 3 9.9999999483076385e-01 -6.1622418292066008e+01 1.0000000000000000e+00 2.0191510816323184e+01 1.4213671741938610e+01 1.3073634007448744e+01 
1994 9 3 1.0000000032187109e+00 -4.3906991916612064e+01 1.0000000000000000e+00 1.9341432540095486e+01 1.4929506479514471e+01 1.2572305613421362e+01 
1971 9 3 1.0000000192232519e+00 1.3354243926296220e+02 1.0000000000000000e+00 2.1150688458132734e+01 1.4311896040966195e+01 1.2774313874091746e+01 
1968 9 1 9.9999997977430732e-01 -4.1026825952825625e+01 1.0000000000000000e+00 2.2023695392895814e+01 1.4526574026583011e+01 1.1915913401624552e+01 
1972 9 3 1.0000000013256853e+00 3.4507483039757410e+01 1.0000000000000000e+00 2.5274801637135749e+01 1.6008451419627903e+01 1.3218280047540404e+01 
1973 9 3 1.0000000122943724e+00 8.6291458522310123e+00 1.0000000000000000e+00 2.6684817395592546e+01 1.6122260083970996e+01 1.3552707861595364e+01 
1995 9 1 1.0000000021416515e+00 -1.8592090837833499e+01 1.0000000000000000e+00 2.5247236204978027e+01 1.5147976020757737e+01 1.2714648075482275e+01 
1996 9 1 9.9999999470808187e-01 -1.9236357231523751e+01 1.0000000000000000e+00 2.6932068684286683e+01 1.5695529374689007e+01 1.2819233896209552e+01 
1997 9 3 9.9999999298459885e-01 -2.3226894193016278e+01 1.0000000000000000e+00 2.5820715675202674e+01 1.5599825245759462e+01 1.3233569407016013e+01 
1998 9 3 1.0000000018066550e+00 3.2596276477117776e+01 1.0000000000000000e+00 2.6254719264249605e+01 1.5812681051396909e+01 1.3262593548065523e+01 
2459 11 3 9.9999999889423175e-01 9.7556407489691040e+01 1.0000000000000000e+00 2.5709444250351623e+01 1.5991595260745205e+01 1.3094571957757365e+01 
2484 11 1 1.0000000162293310e+00 -5.7576016210003104e+01 1.0000000000000000e+00 2.9846025033828901e+01 1.5957839366236765e+01 1.3284992123025418e+01 
1988 9 3 9.9999997813549235e-01 -1.4591274035452636e+02 1.0000000000000000e+00 9.6100351323374102e+00 1.6788701725139333e+01 1.3286982756458823e+01 
2935 13 1 1.0000000337648183e+00 -1.5257178869913194e+01 1.0000000000000000e+00 1.2270565947387594e+01 1.6473087606299316e+01 1.1591768001777421e+01 
2452 11 3 9.9999999743348011e-01 -3.0394324505290400e+00 1.0000000000000000e+00 1.3256023077705821e+01 1.6408850419602221e+01 1.2806083083358230e+01 
2936 13 1 9.9999997469045721e-01 -4.9268392221298384e+01 1.0000000000000000e+00 1.2952847492309303e+01 1.7803322249999006e+01 1.2225448073394110e+01 
2477 11 3 9.9999992457720344e-01 -5.6085753672687822e+01 1.0000000000000000e+00 1.3601701474539798e+01 1.6600401717706053e+01 1.2728268894475114e+01 
1992 9 3 9.9999999125306194e-01 -5.0783878739067909e+01 1.0000000000000000e+00 1.4063202191155749e+01 1.6759665382880083e+01 1.2771289829460217e+01 
2961 13 1 9.9999997437138211e-01 -1.1143705256249019e+01 1.0000000000000000e+00 1.4482294538875220e+01 1.8583778143345604e+01 1.2320562717029611e+01 
2963 13 3 1.0000000358568824e+00 1.1485664730133969e+01 1.0000000000000000e+00 1.4097184570230365e+01 1.7456352213635185e+01 1.2425878059719697e+01 
2453 11 3 1.0000000569971561e+00 8.7383861389456285e+01 1.0000000000000000e+00 1.5350872458382302e+01 1.7094396838416664e+01 1.3248829204316555e+01 
2939 13 3 1.0000000150835497e+00 -6.2839221475906392e+01 1.0000000000000000e+00 1.6053915441859271e+01 1.8618351845094040e+01 1.3311362589584553e+01 
2478 11 3 1.0000000332130505e+00 -5.0460205171889186e+01 1.0000000000000000e+00 1.4909540922963206e+01 1.7110062377321334e+01 1.2834020429297821e+01 
2964 13 3 1.0000000434758340e+00 -2.5805966141801133e+00 1.0000000000000000e+00 1.5667762153290893e+01 1.8109313597557055e+01 1.2675510171282916e+01 
2940 13 3 1.0000000130985123e+00 1.2418921169299104e+01 1.0000000000000000e+00 1.6478515234550663e+01 1.8637932150735281e+01 1.3384720905253994e+01 
2454 11 3 1.0000000107527849e+00 -4.3830864031782980e+01 1.0000000000000000e+00 1.6446156328811949e+01 1.8685921384504514e+01 1.3784572621599207e+01 
2938 13 1 9.9999998676908142e-01 -9.6532192039098828e+00 1.0000000000000000e+00 1.7025487671259633e+01 1.8620151925282805e+01 1.2304568738871946e+01 
2479 11 3 1.0000000193107739e+00 -4.5784563140436674e+01 1.0000000000000000e+00 1.6597403295164952e+01 1.8179996853858860e+01 1.3131683958591706e+01 
2965 13 3 1.0000000198951220e+00 8.6112969931145102e+01 1.0000000000000000e+00 1.6472622481576281e+01 1.8254721000554717e+01 1.3057525443686377e+01 
1993 9 1 1.0000000264660380e+00 -4.2495559992952558e+01 1.0000000000000000e+00 2.0873610222333095e+01 1.6476474984749558e+01 1.2484659088854597e+01 
2455 11 3 9.9999999959201602e-01 -5.5954868705666399e+01 1.0000000000000000e+00 1.9442278336747307e+01 1.6732424795031342e+01 1.3775277916627488e+01 
2480 11 3 9.9999999469417267e-01 -4.0958798559319170e+01 1.0000000000000000e+00 1.9467904329515690e+01 1.6820234315987356e+01 1.3811532457174236e+01 
2456 11 3 9.9999997543875907e-01 -3.3753948131621179e+01 1.0000000000000000e+00 2.1138192443909912e+01 1.6616552012551878e+01 1.3409986709900284e+01 
2481 11 3 1.0000000072512605e+00 -3.1602241153983236e+01 1.0000000000000000e+00 2.1091136617667349e+01 1.6987421897457395e+01 1.3216341498104820e+01 
2967 13 3 9.9999999371939863e-01 5.5726447485808592e+01 1.0000000000000000e+00 2.1048109380797339e+01 1.8950557772367130e+01 1.2935477886508476e+01 
2941 13 1 1.0000000097364579e+00 -2.0895979987156799e+01 1.0000000000000000e+00 2.2410874827385985e+01 1.8468759178275903e+01 1.1932996853068408e+01 
2943 13 3 9.9999997983291489e-01 -2.5240272065700136e+01 1.0000000000000000e+00 2.2624790277858413e+01 1.7878366777595410e+01 1.3035844075833582e+01 
2457 11 3 9.9999998978278803e-01 2.9985664915052070e+01 1.0000000000000000e+00 2.3020613131683859e+01 1.8037556311090174e+01 1.3275295234330287e+01 
2482 11 3 9.9999998993233796e-01 -3.1415869525821478e+01 1.0000000000000000e+00 2.2963596734508616e+01 1.8225629785082443e+01 1.3025956165465820e+01 
2968 13 3 9.9999998619091268e-01 -5.1162228863235292e+01 1.0000000000000000e+00 2.2790452978324424e+01 1.8063486797034173e+01 1.2978139361197679e+01 
2944 13 3 9.9999999487121016e-01 -3.6172816808112742e+01 1.0000000000000000e+00 2.3770847382248238e+01 1.8466988551851252e+01 1.3473804202356236e+01 
2458 11 3 9.9999999763348946e-01 4.2993746887535842e+00 1.0000000000000000e+00 2.4372454953443871e+01 1.7442821348892572e+01 1.3297304710793270e+01 
2483 11 3 9.9999999968936559e-01 3.3239405236585116e+00 1.0000000000000000e+00 2.4956244070589275e+01 1.7345788127894888e+01 1.3141610846375302e+01 
2969 13 3 9.9999999769820458e-01 -4.3670635272067898e+01 1.0000000000000000e+00 2.5213297608393283e+01 1.8667968310982403e+01 1.3254729197262616e+01 
3022 13 3 9.9999999224504810e-01 -1.3279195235666134e+02 1.0000000000000000e+00 2.8822038335715266e+01 1.6412732840879332e+01 1.4238137631559892e+01 
1974 9 3 1.0000000095808892e+00 -3.9315795653202272e+01 1.0000000000000000e+00 2.9327956189011800e+01 1.7177734710873594e+01 1.4066455679520679e+01 
3934 17 1 9.9999998769525700e-01 -1.3609476207922754e+01 1.0000000000000000e+00 1.5658904527474091e+01 2.1673478373302913e+01 1.3556617304719225e+01 
3430 14 1 1.0000000087162715e+00 1.3511167314204531e+01 1.0000000000000000e+00 1.7081271981786394e+01 2.0718522871751968e+01 1.3076733847880199e+01 
3938 17 3 9.9999996663073087e-01 -4.0093812873690574e+01 1.0000000000000000e+00 1.9003322202479684e+01 2.0805380991432070e+01 1.3570150492277767e+01 
3432 14 1 1.0000000118279007e+00 -2.3503246364175958e+01 1.0000000000000000e+00 1.8556192106089608e+01 2.1499988201596519e+01 1.2522648858096884e+01 
2966 13 3 1.0000000000686275e+00 -3.1402735793760499e+01 1.0000000000000000e+00 1.9573181752573866e+01 1.9194922390821187e+01 1.3925036179270897e+01 
3408 14 1 1.0000000154464874e+00 -2.7421193798257406e+01 1.0000000000000000e+00 2.1717407730197216e+01 2.1057398435202604e+01 1.2315319368475491e+01 
3410 14 3 9.9999998910326804e-01 -2.3003493214430112e+01 1.0000000000000000e+00 2.0910858292137686e+01 2.0597943212235624e+01 1.2817862950874602e+01 
3409 14 3 9.9999994969287442e-01 1.5051815843526100e+01 1.0000000000000000e+00 1.9403550057669303e+01 2.1283321616021876e+01 1.3584359972391280e+01 
3434 14 3 1.0000000053585931e+00 -2.6769158401328731e+01 1.0000000000000000e+00 1.9637098721765476e+01 2.0909699397161006e+01 1.3145860689140553e+01 
3435 14 3 9.9999999114105664e-01 -5.3095513793316343e+01 1.0000000000000000e+00 2.0202888720671048e+01 2.0623864415311662e+01 1.2933038088426207e+01 
3411 14 3 9.9999998844486171e-01 9.4743995302857975e+00 1.0000000000000000e+00 2.0460648463439199e+01 1.9714846840314166e+01 1.3110246651897182e+01 
3477 15 3 1.0000000034170400e+00 -2.9639735696221393e+01 1.0000000000000000e+00 1.9542157729439094e+01 2.1058401000978886e+01 1.4264207093694838e+01 
2942 13 3 1.0000000184182640e+00 -3.4558451658656622e+01 1.0000000000000000e+00 2.1847836628590482e+01 1.9336372457480827e+01 1.2993832481252870e+01 
3476 15 1 9.9999999018482966e-01 -5.6690107694118588e+01 1.0000000000000000e+00 2.2164712810357148e+01 2.1736185232367305e+01 1.3237480068526436e+01 
2970 13 3 1.0000000026168496e+00 -1.2824611787235241e+01 1.0000000000000000e+00 2.5162044329553122e+01 1.9404062351599681e+01 1.3597700173582687e+01 
3436 14 1 1.0000000038140184e+00 -3.6580824678355462e+01 1.0000000000000000e+00 2.5580229973867539e+01 1.9390011743042489e+01 1.2917722705017669e+01 
3412 14 1 9.9999999953734620e-01 1.3295507892166695e+01 1.0000000000000000e+00 2.8062490745360449e+01 2.1115324381213341e+01 1.2030688126025792e+01 
3413 14 3 9.9999999760572034e-01 6.0386129358538739e+01 1.0000000000000000e+00 2.8296489810205863e+01 2.1687604145014753e+01 1.3830812800792948e+01 
3915 17 1 1.0000000024401690e+00 6.0459876095324432e+01 1.0000000000000000e+00 2.7927275334861537e+01 2.1454548897791426e+01 1.1764023293120518e+01 
3438 14 1 9.9999999906724735e-01 -5.0144728962043082e+01 1.0000000000000000e+00 2.9861889464086303e+01 2.1343662581214641e+01 1.2558647013815072e+01 
4399 19 3 1.0000000002328437e+00 -4.5946021428558680e+01 1.0000000000000000e+00 1.5990765548860095e+01 2.4361521206959804e+01 1.3818430104479452e+01 
3407 14 3 1.0000000133354328e+00 -6.4597074286369491e+01 1.0000000000000000e+00 1.6950174243304634e+01 2.1858206595158435e+01 1.3566911832204820e+01 
3433 14 3 1.0000000064903702e+00 -3.5362437368775048e+01 1.0000000000000000e+00 1.6554723900237462e+01 2.1995579041946140e+01 1.3447575531744423e+01 
3936 17 3 1.0000000132071336e+00 -1.7834218503540537e+01 1.0000000000000000e+00 1.6518216556344960e+01 2.2231047190246350e+01 1.3262191982294921e+01 
3910 17 1 9.9999999893625524e-01 -4.4536527252630577e+01 1.0000000000000000e+00 1.7395074663657660e+01 2.4204200480694425e+01 1.2101823128587693e+01 
3911 17 3 1.0000000042475605e+00 -7.2064501780092186e+01 1.0000000000000000e+00 1.7367544861358354e+01 2.2860096800512729e+01 1.3223084350678413e+01 
3912 17 3 1.0000000031092220e+00 -4.6131950091074991e+01 1.0000000000000000e+00 1.7069588207073092e+01 2.3633014913167159e+01 1.2880313008121796e+01 
3937 17 3 1.0000000098382833e+00 -4.1725751893548022e+01 1.0000000000000000e+00 1.7007284137991117e+01 2.2960850704895137e+01 1.2923245940700589e+01 
3914 17 3 1.0000000088462773e+00 -3.2817322855847721e+01 1.0000000000000000e+00 2.1478480156605791e+01 2.2196701505376016e+01 1.3679802268231239e+01 
3913 17 1 1.0000000114415701e+00 7.5291675535321076e+01 1.0000000000000000e+00 2.1640952448786038e+01 2.3163687609894730e+01 1.2574842746758373e+01 
4442 20 1 1.0000000079708085e+00 -7.1194501296376473e+01 1.0000000000000000e+00 2.1814401499849019e+01 2.2675297363696050e+01 1.2279624121422678e+01 
3940 17 3 9.9999999327540012e-01 -3.2060002815197485e+01 1.0000000000000000e+00 2.3198280649849288e+01 2.4293096294852969e+01 1.3193495366847499e+01 
3939 17 1 1.0000000028739502e+00 4.2761606476522559e+01 1.0000000000000000e+00 2.4030643583398557e+01 2.3733025583559900e+01 1.3712934507694666e+01 
3941 17 3 9.9999999715690102e-01 3.6743058675778755e+01 1.0000000000000000e+00 2.3820695754599328e+01 2.4326787152198904e+01 1.3955073678615406e+01 
3415 14 3 1.0000000147430030e+00 -1.0201745987179616e+02 1.0000000000000000e+00 2.9422382163321064e+01 2.1866951938157015e+01 1.3509870184161647e+01 
3414 14 3 1.0000000019515780e+00 2.2434939180407348e+01 1.0000000000000000e+00 2.8537083900064776e+01 2.1947233641462624e+01 1.2133356412953203e+01 
3918 17 3 9.9999999873462952e-01 1.3747385343411221e+01 1.0000000000000000e+00 2.9296308286725004e+01 2.2820680710387347e+01 1.1775594717633986e+01 
4405 19 3 9.9999999987595412e-01 -1.2657867845492966e+01 1.0000000000000000e+00 2.9695287029810554e+01 2.3709556831020215e+01 1.2350120520058516e+01 
3440 14 3 9.9999998787810040e-01 -7.9682460556165978e+01 1.0000000000000000e+00 2.9771666584706878e+01 2.1952441577656920e+01 1.2739951837356495e+01 
4473 20 3 1.0000000026156728e+00 4.1308461903686566e+02 1.0000000000000000e+00 2.9861849278731931e+01 2.3290494819352531e+01 1.3968758161103022e+01 
3919 17 3 9.9999999976417508e-01 -6.8952572030948701e+01 1.0000000000000000e+00 2.9934299154581733e+01 2.3552831352965292e+01 1.2257783149437293e+01 
3944 17 3 1.0000000010042291e+00 -3.3805434081046798e+01 1.0000000000000000e+00 2.9899392689639257e+01 2.3459682595397460e+01 1.3701367538763035e+01 
4884 21 3 9.9999999732769529e-01 -1.7234139966288582e+00 1.0000000000000000e+00 1.6138153813187046e+01 2.6187007678911389e+01 1.3732905944145472e+01 
4883 21 3 1.0000000047303936e+00 3.8391992329936642e+01 1.0000000000000000e+00 1.6511974899795877e+01 2.6923549904162652e+01 1.2890991540367773e+01 
4440 20 3 9.9999999190606481e-01 -4.6754523141700133e+01 1.0000000000000000e+00 1.6948524670106618e+01 2.5075732288400296e+01 1.3178105286509419e+01 
4397 19 3 9.9999999691978769e-01 -3.5556151298903181e+01 1.0000000000000000e+00 1.6861360473129995e+01 2.5332319338955834e+01 1.3402626272294928e+01 
4398 19 3 9.9999999377572790e-01 -2.5929563752799854e+01 1.0000000000000000e+00 1.6969268238720417e+01 2.5097225900533115e+01 1.3321377624957382e+01 
4441 20 3 9.9999999544829732e-01 -5.1402907690133468e+01 1.0000000000000000e+00 1.6719857537317470e+01 2.5098246580072217e+01 1.3005523047291586e+01 
4927 22 3 1.0000000044408845e+00 -3.7105114252410146e+01 1.0000000000000000e+00 1.6549937228606158e+01 2.6859404130840154e+01 1.2905568343475931e+01 
5512 28 3 1.0000000063046375e+00 -4.4638696546251751e+01 1.0000000000000000e+00 2.1200427421771121e+01 2.6704914632716250e+01 1.4041774480103465e+01 
5487 28 3 1.0000000048113489e+00 -2.4430801467504448e+01 1.0000000000000000e+00 2.1407297046880124e+01 2.7239278174526657e+01 1.3382930509458790e+01 
5488 28 3 1.0000000133496343e+00 -6.4562063864171748e+01 1.0000000000000000e+00 2.1859321324072422e+01 2.6800218804908997e+01 1.2877486726747915e+01 
4400 19 3 9.9999999291473107e-01 -4.4646507657288659e+01 1.0000000000000000e+00 2.2321045709771454e+01 2.4850670847084910e+01 1.2992046028448973e+01 
4885 21 1 9.9999999838118625e-01 -1.8494046676636266e+01 1.0000000000000000e+00 2.3145838380571515e+01 2.5910031927637753e+01 1.1966122609932539e+01 
4443 20 3 9.9999998597656925e-01 -6.1068406894656306e+01 1.0000000000000000e+00 2.2928401268533779e+01 2.4690091767442979e+01 1.2798611456610633e+01 
4887 21 3 1.0000000116901608e+00 -1.4730381479090457e+01 1.0000000000000000e+00 2.2650812562050501e+01 2.6850062325831253e+01 1.2724662137308067e+01 
4401 19 3 9.9999998898899423e-01 4.7654445316649031e+01 1.0000000000000000e+00 2.2290375497988133e+01 2.5079004770585783e+01 1.2903172549492782e+01 
4402 19 3 1.0000000080519702e+00 6.1042767547685827e+01 1.0000000000000000e+00 2.4426392190943982e+01 2.6099295919932729e+01 1.4262273036456689e+01 
4929 22 1 9.9999999698905451e-01 -2.2785042667202625e+01 1.0000000000000000e+00 2.4484867373274721e+01 2.7132961536197865e+01 1.2699544075368811e+01 
4888 21 3 1.0000000032766165e+00 1.7273348901371737e+01 1.0000000000000000e+00 2.4714116954587929e+01 2.6600249639432523e+01 1.3416463523479573e+01 
4444 20 1 9.9999998652891831e-01 -1.5408854239846020e+01 1.0000000000000000e+00 2.6831700379035720e+01 2.5010281250507180e+01 1.4033130812560302e+01 
4445 20 3 1.0000000030027130e+00 -3.0831180620408063e+01 1.0000000000000000e+00 2.4914711694385424e+01 2.5124957740737216e+01 1.3267936625421047e+01 
4446 20 3 9.9999999751502888e-01 -5.3030008427672737e+00 1.0000000000000000e+00 2.6447734894402153e+01 2.6159464521551836e+01 1.3626320750639938e+01 
4931 22 3 1.0000000004083587e+00 -2.2904214223714437e+01 1.0000000000000000e+00 2.5080806096519954e+01 2.6433973229379841e+01 1.3216860552094660e+01 
4932 22 3 9.9999999913736537e-01 -1.3491085690989530e+01 1.0000000000000000e+00 2.6900043281380196e+01 2.7196727437637637e+01 1.3368689040083272e+01 
5489 28 3 1.0000000017384338e+00 -5.6952687078422500e+01 1.0000000000000000e+00 2.4981202907692069e+01 2.5818145194727613e+01 1.3005250325811538e+01 
4956 22 3 1.0000000012471486e+00 -2.7190969754038495e+01 1.0000000000000000e+00 2.5817441535887852e+01 2.6759364863182213e+01 1.3836594376937152e+01 
4403 19 1 1.0000000002645151e+00 -1.9542475839218667e+01 1.0000000000000000e+00 2.9921992350902475e+01 2.4574669808133287e+01 1.1702091782581141e+01 
4930 22 1 1.0000000015609538e+00 -2.2789614811031075e+01 1.0000000000000000e+00 2.8260808247929347e+01 2.7002182706796976e+01 1.2554761431151196e+01 
5455 28 1 1.0000000022961295e+00 3.5256251044789286e+02 1.0000000000000000e+00 1.1542640390836407e+01 2.9676049175322511e+01 1.1549430812935825e+01 
5456 28 3 9.9999999459681344e-01 1.0887306986035437e+01 1.0000000000000000e+00 1.1245086750391650e+01 2.9787329595311697e+01 1.3561054114121069e+01 
5942 30 1 1.0000000040484389e+00 -1.1220180272341594e+01 1.0000000000000000e+00 1.2943991159058806e+01 2.9374550469727410e+01 1.2978946616714328e+01 
5969 30 3 9.9999999707072296e-01 -4.5296157915490404e+01 1.0000000000000000e+00 1.1921289676696350e+01 2.9843071711332581e+01 1.2763533324267520e+01 
5941 30 1 1.0000000001813401e+00 8.6893508181810546e+01 1.0000000000000000e+00 1.2691522701028928e+01 2.9920543728303297e+01 1.1711820962209540e+01 
4881 21 1 9.9999999121944294e-01 9.9208495516255866e+00 1.0000000000000000e+00 1.5691910995678919e+01 2.7709219033250850e+01 1.2285230200006232e+01 
5484 28 3 9.9999999797997075e-01 -4.1565310180060294e+01 1.0000000000000000e+00 1.5606836163068982e+01 2.7719126240657999e+01 1.3492280346735468e+01 
4952 22 3 1.0000000188127793e+00 -5.5330871447259121e+01 1.0000000000000000e+00 1.6054694776572401e+01 2.8228900416853005e+01 1.3490662524737379e+01 
4926 22 3 1.0000000167186973e+00 -3.9921105753783770e+01 1.0000000000000000e+00 1.6459509581101560e+01 2.7362197835067953e+01 1.2930270765573516e+01 
4928 22 3 1.0000000052955178e+00 -1.8126877133752512e+01 1.0000000000000000e+00 1.7059026059978798e+01 2.8360168713461039e+01 1.3916027044546833e+01 
5462 28 3 1.0000000043444757e+00 1.4484279030008896e+01 1.0000000000000000e+00 2.1535109876936641e+01 2.7434027789842457e+01 1.3503367645244641e+01 
5460 28 1 1.0000000023094979e+00 6.2566215243073445e-02 1.0000000000000000e+00 2.0737695358114987e+01 2.8284660270718039e+01 1.3253761761106633e+01 
5461 28 1 9.9999997864274204e-01 -5.9542137697829247e+01 1.0000000000000000e+00 2.1446107672339394e+01 2.8319908701223884e+01 1.2599455894599481e+01 
4886 21 3 1.0000000076483115e+00 -3.2884529831816835e+01 1.0000000000000000e+00 2.2028993733777671e+01 2.7345517841877356e+01 1.3220442575547391e+01 
5463 28 1 1.0000000005015890e+00 -2.3181797722020335e+01 1.0000000000000000e+00 2.7056557199169113e+01 2.8381235296176939e+01 1.2179571698830237e+01 
5464 28 1 1.0000000006243395e+00 -2.9861353258850052e+01 1.0000000000000000e+00 2.8558999607843493e+01 2.8306614860996586e+01 1.1688714812987573e+01 
4889 21 3 9.9999999695550945e-01 -1.4576698069432618e+01 1.0000000000000000e+00 2.7480729219138961e+01 2.7660792848374687e+01 1.3265645981355220e+01 
4933 22 3 9.9999999831015940e-01 1.1494815682468092e+01 1.0000000000000000e+00 2.7816309916214319e+01 2.8215806476310249e+01 1.2954954493549563e+01 
5465 28 3 9.9999999820113983e-01 -2.8319206689357500e+01 1.0000000000000000e+00 2.8425081198986287e+01 2.8424099926334218e+01 1.2706384499384198e+01 
5466 28 3 1.0000000007002601e+00 -3.8019075695561888e+01 1.0000000000000000e+00 2.8740333724368242e+01 2.9055118484831784e+01 1.3001872473849115e+01 
4890 21 3 9.9999999796510053e-01 -6.0479917712849076e+00 1.0000000000000000e+00 2.8024509918739678e+01 2.8331580178171432e+01 1.3129837531716241e+01 