LAMMPS data file via write_data, version 30 Jul 2016, timestep = 50000000

180 atoms
2 atom types

0.0000000000000000e+00 2.0000000000000000e+01 xlo xhi
0.0000000000000000e+00 2.0000000000000000e+01 ylo yhi
0.0000000000000000e+00 2.0000000000000000e+01 zlo zhi

Masses

1 3.896
2 5

Atoms # meso-molecular

1 1 2 6.7318344459645674e-01 -1.3597076575249007e+03 1.0000000000000000e+00 5.9612184584602215e+00 1.2709418133002386e+00 1.7517558054628601e+00 
7 1 2 6.7318344459645674e-01 -9.9049781295868195e+02 1.0000000000000000e+00 5.9612184696365498e+00 1.2709417985649105e+00 1.7517558063918102e+00 
37 1 2 6.7318344459645674e-01 -1.3393156837154002e+03 1.0000000000000000e+00 5.9612184562729320e+00 1.2709418160993000e+00 1.7517558053522584e+00 
38 1 2 6.7318344459645674e-01 -1.3422296737700492e+03 1.0000000000000000e+00 5.9612184559534365e+00 1.2709418166064055e+00 1.7517558041794605e+00 
49 1 2 8.4138457257527322e-01 -1.4113313349076600e+03 1.0000000000000000e+00 5.6833829010083381e+00 9.2585861067020687e+00 2.0218838231118641e-01 
13 1 2 8.4130688835965184e-01 -1.7385537745900911e+03 1.0000000000000000e+00 5.7062851548846183e+00 9.2502953050775094e+00 2.0975752919233284e-01 
19 1 2 8.4136656148140776e-01 -1.4607937755337962e+03 1.0000000000000000e+00 5.6791213282560991e+00 9.2674992756424519e+00 1.9841291181583726e-01 
25 1 2 8.4127891662137688e-01 -1.3362847478295462e+03 1.0000000000000000e+00 5.6983250171022330e+00 9.2788030228474110e+00 2.2749653781753987e-01 
18 1 2 8.4138139225737774e-01 -1.4809630774470345e+03 1.0000000000000000e+00 5.6842681055575577e+00 9.2731597813183217e+00 2.0054953096584288e-01 
3 1 2 1.3461943773271388e+00 -1.0801830084241933e+03 1.0000000000000000e+00 5.6772737445870423e+00 5.1126747814921325e+00 6.3403382115335152e+00 
2 1 2 1.3461932469559670e+00 -1.2788242357130266e+03 1.0000000000000000e+00 5.6766038197884541e+00 5.1084611462047240e+00 6.3412239755620901e+00 
9 1 2 1.3461904922966428e+00 -1.2272333690539481e+03 1.0000000000000000e+00 5.6779435287793403e+00 5.1087257402330950e+00 6.3413252226660335e+00 
8 1 2 1.3454454815543107e+00 -1.0689360238240856e+03 1.0000000000000000e+00 5.6510884352297941e+00 5.0698002682946921e+00 6.3333780445998134e+00 
14 1 2 1.3461385157311641e+00 -1.1979303430038015e+03 1.0000000000000000e+00 5.6778068536031459e+00 5.0995477395130564e+00 6.3446938006130873e+00 
15 1 2 1.3459197539258541e+00 -1.2631674883327535e+03 1.0000000000000000e+00 5.6845020160803372e+00 5.1377538622278882e+00 6.3378384937594960e+00 
51 1 2 1.3459963633696701e+00 -1.2289887319359157e+03 1.0000000000000000e+00 5.6742812783471752e+00 5.1346794457958076e+00 6.3318865482485798e+00 
50 1 2 1.3461901807891472e+00 -1.2076509224779334e+03 1.0000000000000000e+00 5.6721640172690746e+00 5.1159505671084702e+00 6.3373035004887486e+00 
10 1 2 8.4086800462206013e-01 -9.8687170966182236e+02 1.0000000000000000e+00 6.3784152289754692e+00 5.3284778263623025e+00 1.1576283063747201e+01 
11 1 2 8.4098608212834536e-01 -1.5138400941044436e+03 1.0000000000000000e+00 6.3614207317583880e+00 5.3293736222275676e+00 1.1610666396877580e+01 
16 1 2 8.4025917630062719e-01 -1.4267416132031772e+03 1.0000000000000000e+00 6.3889810565961307e+00 5.3740971915093496e+00 1.1632528668270872e+01 
47 1 2 8.3998548842421128e-01 -1.2992487584360497e+03 1.0000000000000000e+00 6.3110413955894504e+00 5.2879625270883528e+00 1.1611892746043331e+01 
52 1 2 8.4066405590127558e-01 -1.2148776674497210e+03 1.0000000000000000e+00 6.3916833012885430e+00 5.3260520945824270e+00 1.1567909211182275e+01 
5 1 2 3.3659172229822837e-01 -4.3578462862651821e+02 1.0000000000000000e+00 5.2833572803969151e+00 1.9511968855398157e-01 1.5200435734223110e+01 
6 1 2 3.3659172229822837e-01 -4.1635748342204670e+02 1.0000000000000000e+00 5.2833572803966522e+00 1.9511968855399328e-01 1.5200435734223484e+01 
17 1 2 5.0488758344734253e-01 -7.6820552564116304e+02 1.0000000000000000e+00 5.6037227508169565e+00 9.9596745203439028e+00 1.4285507213645202e+01 
23 1 2 5.0488758344734253e-01 -8.2275824093831670e+02 1.0000000000000000e+00 5.6037227508277700e+00 9.9596745203003607e+00 1.4285507213604038e+01 
24 1 2 5.0488758344734253e-01 -8.3225359244474521e+02 1.0000000000000000e+00 5.6037227508350522e+00 9.9596745203839792e+00 1.4285507213575668e+01 
12 1 2 1.6829586114911418e-01 4.9844082473279867e+00 1.0000000000000000e+00 5.4174267640489910e+00 5.0202452745939965e+00 1.7946429153199446e+01 
20 1 2 1.0095718595757617e+00 -1.2537432222670063e+03 1.0000000000000000e+00 6.4719882332337448e+00 1.2318483412433169e+01 3.9818705286183103e+00 
26 1 2 1.0093054076772536e+00 -9.8061014736042546e+02 1.0000000000000000e+00 6.4999712171546369e+00 1.2308210048986391e+01 3.9561836024800732e+00 
27 1 2 1.0091554150484165e+00 -1.1014498157704177e+03 1.0000000000000000e+00 6.4544249130884301e+00 1.2337278298712755e+01 4.0084767578685998e+00 
62 1 2 1.0094286562660193e+00 -9.8380612258490328e+02 1.0000000000000000e+00 6.4643376173727223e+00 1.2335645966400188e+01 3.9941139761474549e+00 
56 1 2 1.0094431484019468e+00 -9.7373712835232232e+02 1.0000000000000000e+00 6.4958920413649466e+00 1.2314648859279941e+01 3.9627840499342279e+00 
55 1 2 1.0095395947784791e+00 -7.5747052530137626e+02 1.0000000000000000e+00 6.4904261259689076e+00 1.2317516026837735e+01 3.9709555776778904e+00 
31 1 2 5.0488758344734253e-01 -1.0440046392434492e+03 1.0000000000000000e+00 5.9487959188150183e+00 1.7396517850131186e+01 3.4541645515857624e+00 
32 1 2 5.0488758344734253e-01 -1.2261705042628021e+03 1.0000000000000000e+00 5.9487959186889290e+00 1.7396517850207925e+01 3.4541645512848689e+00 
68 1 2 5.0488758344734253e-01 -1.2133095325466982e+03 1.0000000000000000e+00 5.9487959187538788e+00 1.7396517850274865e+01 3.4541645512869912e+00 
22 1 2 3.3659172229822837e-01 -5.0994802180658189e+02 1.0000000000000000e+00 5.2998004375615864e+00 1.0262972540346796e+01 8.8891375438208797e+00 
21 1 2 3.3659172229822837e-01 -4.9970159997305961e+02 1.0000000000000000e+00 5.2998004375624328e+00 1.0262972540346340e+01 8.8891375438198921e+00 
65 1 2 1.0083039437326111e+00 -9.4107927725709942e+02 1.0000000000000000e+00 6.6397362709606513e+00 1.5117563340315067e+01 1.6296405217111040e+01 
72 1 2 1.0077723403217165e+00 -1.2630144236782251e+03 1.0000000000000000e+00 6.6378594533998498e+00 1.5107085045262600e+01 1.6273079879812656e+01 
43 1 2 1.1779760218530562e+00 -1.2917055303791537e+03 1.0000000000000000e+00 1.0856917523503803e+01 4.7982098456253288e+00 2.3639479124760236e+00 
44 1 2 1.1779924321985500e+00 -1.2711078454504459e+03 1.0000000000000000e+00 1.0842771259667956e+01 4.7961260315251248e+00 2.3650986286044566e+00 
74 1 2 1.1779651343582189e+00 -1.2673700931878518e+03 1.0000000000000000e+00 1.0846287678924421e+01 4.7833823141165102e+00 2.3638076153386245e+00 
79 1 2 1.1779989707028120e+00 -1.2126112705927083e+03 1.0000000000000000e+00 1.0846033226897017e+01 4.7907559895716911e+00 2.3654513762694922e+00 
80 1 2 1.1779594962787645e+00 -1.2366285898111798e+03 1.0000000000000000e+00 1.0846139740505693e+01 4.7918989136220951e+00 2.3561126127498015e+00 
121 1 2 1.1777584073191218e+00 -1.1963784519531489e+03 1.0000000000000000e+00 1.0852738721434998e+01 4.7902889846640226e+00 2.3967919857472988e+00 
85 1 2 1.1779471308267095e+00 -1.1962718190999205e+03 1.0000000000000000e+00 1.0849541262239809e+01 4.8082582448868409e+00 2.3670193171577267e+00 
86 1 2 3.3659172229822837e-01 -5.6168604326009165e+02 1.0000000000000000e+00 1.1046048865597074e+01 8.7074468276826789e+00 4.1432445630805619e+00 
92 1 2 3.3659172229822837e-01 -5.5461806400763032e+02 1.0000000000000000e+00 1.1046048865596672e+01 8.7074468276827428e+00 4.1432445630823587e+00 
39 1 2 6.7318344459645674e-01 -1.0175619230200957e+03 1.0000000000000000e+00 7.7024185988437122e+00 1.6532168235710876e+00 9.8571968872404696e+00 
4 1 2 6.7318344459645674e-01 -9.2899447977936370e+02 1.0000000000000000e+00 7.7024186047006848e+00 1.6532168206782867e+00 9.8571968883013188e+00 
40 1 2 6.7318344459645674e-01 -1.1515198552367990e+03 1.0000000000000000e+00 7.7024185892205326e+00 1.6532168258991231e+00 9.8571968815607178e+00 
76 1 2 6.7318344459645674e-01 -1.0389786834985634e+03 1.0000000000000000e+00 7.7024185819633102e+00 1.6532168270795082e+00 9.8571968770937897e+00 
82 1 2 1.1773846676203814e+00 -1.3280601162123032e+03 1.0000000000000000e+00 1.1432035825440659e+01 5.7105127091914039e+00 8.9346165859572650e+00 
87 1 2 1.1773250893845912e+00 -1.1163688557358837e+03 1.0000000000000000e+00 1.1397087136700286e+01 5.6867732013543755e+00 8.9371642502632778e+00 
88 1 2 1.1775126565966814e+00 -1.1539682005323050e+03 1.0000000000000000e+00 1.1393528753341910e+01 5.7125374065720260e+00 8.9250118411690913e+00 
124 1 2 1.1767539216981713e+00 -1.0673613965434647e+03 1.0000000000000000e+00 1.1368961392834940e+01 5.7445551534009320e+00 8.9130881771763253e+00 
46 1 2 1.1769536358797281e+00 -1.2783511413262875e+03 1.0000000000000000e+00 1.1385536514237870e+01 5.7354762655383436e+00 8.9586195726870397e+00 
45 1 2 1.1765627841066970e+00 -1.4327561928825007e+03 1.0000000000000000e+00 1.1436905770543229e+01 5.7002878517103586e+00 8.8766996811324734e+00 
81 1 2 1.1770605525858335e+00 -1.3498352080690793e+03 1.0000000000000000e+00 1.1441970185777581e+01 5.6912424691558785e+00 8.9398589140804425e+00 
42 1 2 1.5142647493524359e+00 -1.4184815878808677e+03 1.0000000000000000e+00 1.1610905639280430e+01 3.3245089533811907e+00 1.5317205179865228e+01 
77 1 2 1.5140791899445909e+00 -1.2461321138901280e+03 1.0000000000000000e+00 1.1606563341532308e+01 3.3311779957192380e+00 1.5336642502506432e+01 
119 1 2 1.5142229783465506e+00 -1.4229665615272884e+03 1.0000000000000000e+00 1.1628891556161575e+01 3.3331096952753008e+00 1.5315348362785665e+01 
83 1 2 1.5142919627431868e+00 -9.9929004249988293e+02 1.0000000000000000e+00 1.1615679585343816e+01 3.3264466562179815e+00 1.5312289292608131e+01 
84 1 2 1.5142717036018734e+00 -9.4283195443538932e+02 1.0000000000000000e+00 1.1619730047411648e+01 3.3264553498839211e+00 1.5312524029233803e+01 
41 1 2 1.5128326571259778e+00 -1.4694347748674684e+03 1.0000000000000000e+00 1.1594350994021344e+01 3.3831810171948757e+00 1.5267832242259773e+01 
120 1 2 1.5142299012975466e+00 -1.3606343578183166e+03 1.0000000000000000e+00 1.1625326950222115e+01 3.3510622897930378e+00 1.5315413567085480e+01 
48 1 2 1.5141962041446890e+00 -1.4634212124653516e+03 1.0000000000000000e+00 1.1600015243974427e+01 3.3440026989524618e+00 1.5293616613455683e+01 
126 1 2 1.5142049482356830e+00 -1.3684840532748431e+03 1.0000000000000000e+00 1.1599291563729475e+01 3.3351633905707527e+00 1.5327015547344097e+01 
53 1 2 1.0077675946170852e+00 -1.0774236059195409e+03 1.0000000000000000e+00 1.0201533457072458e+01 8.2277020438566986e+00 1.4412151466534837e+01 
54 1 2 1.0079948774793501e+00 -1.2164661161542588e+03 1.0000000000000000e+00 1.0203399102523546e+01 8.2176738962907177e+00 1.4479733272063383e+01 
90 1 2 1.0084930277202737e+00 -1.0091644992845189e+03 1.0000000000000000e+00 1.0152232306066256e+01 8.1954202214603438e+00 1.4469850965297660e+01 
89 1 2 1.0078315180731507e+00 -1.3240009900342320e+03 1.0000000000000000e+00 1.0090536481910375e+01 8.2363737444555216e+00 1.4472354294360350e+01 
95 1 2 1.0073968425040618e+00 -1.2321309381059007e+03 1.0000000000000000e+00 1.0077883220764077e+01 8.2453358135898487e+00 1.4466182435496831e+01 
59 1 2 1.0081903840635011e+00 -1.0806377946316929e+03 1.0000000000000000e+00 1.0185297386602620e+01 8.2615679202901902e+00 1.4431087549005369e+01 
78 1 2 3.3659172229822837e-01 -7.5526870678947000e+02 1.0000000000000000e+00 1.1974109591076362e+01 2.4319326232638711e-01 1.9141608155160622e+01 
73 1 2 3.3659172229822837e-01 -7.8483582025980354e+02 1.0000000000000000e+00 1.1974109591074665e+01 2.4319326232637525e-01 1.9141608155158725e+01 
98 1 2 1.0090654098397080e+00 -1.2285134890122454e+03 1.0000000000000000e+00 1.2846000201366790e+01 1.4745121001541307e+01 5.5594950530300817e+00 
99 1 2 1.0092319518197350e+00 -1.4269796851554336e+03 1.0000000000000000e+00 1.2843434894212470e+01 1.4729883871373984e+01 5.5862257486416853e+00 
104 1 2 1.0094614764963530e+00 -1.3251944209316689e+03 1.0000000000000000e+00 1.2803083167837624e+01 1.4736232690946622e+01 5.5810278388089039e+00 
134 1 2 1.0092811360600888e+00 -1.3553888581090268e+03 1.0000000000000000e+00 1.2798281635820848e+01 1.4749872961568439e+01 5.6128603916920374e+00 
135 1 2 1.0093818466030955e+00 -1.3175261887022398e+03 1.0000000000000000e+00 1.2800707305237285e+01 1.4736822697670632e+01 5.6041112293595301e+00 
141 1 2 1.0091411300655293e+00 -1.0326670922956966e+03 1.0000000000000000e+00 1.2789575194675797e+01 1.4773811167860337e+01 5.5763260896930467e+00 
57 1 2 5.0488758344734253e-01 -8.7859137601502562e+02 1.0000000000000000e+00 1.1119665857357553e+01 1.0583568662383499e+01 8.7161174821066183e+00 
93 1 2 5.0488758344734253e-01 -8.1852562658778470e+02 1.0000000000000000e+00 1.1119665857328622e+01 1.0583568662368114e+01 8.7161174821792127e+00 
94 1 2 5.0488758344734253e-01 -6.6080092027463422e+02 1.0000000000000000e+00 1.1119665857293047e+01 1.0583568662350746e+01 8.7161174820484764e+00 
63 1 2 8.4101890849974215e-01 -8.9843221477233510e+02 1.0000000000000000e+00 6.7946796688362898e+00 1.6058298093215935e+01 8.7837189397926956e+00 
69 1 2 8.4105593322129979e-01 -1.1217906707811517e+03 1.0000000000000000e+00 6.8054671236645516e+00 1.6024381055517587e+01 8.7429313768858581e+00 
70 1 2 8.4058974598847536e-01 -1.1236270075276136e+03 1.0000000000000000e+00 6.8324724325996540e+00 1.6015183741188206e+01 8.7235597451650015e+00 
34 1 2 8.4092577330399565e-01 -1.0640266776108572e+03 1.0000000000000000e+00 6.7919373936647727e+00 1.6081508415255581e+01 8.7656813310829591e+00 
33 1 2 8.4114405183586505e-01 -1.0737899542075354e+03 1.0000000000000000e+00 6.7977350743957130e+00 1.6059861110718828e+01 8.7686907489179600e+00 
105 1 2 6.7318344459645652e-01 -1.3205071536945861e+03 1.0000000000000000e+00 1.2137411069649115e+01 1.8931885018576516e+01 8.1291648512332841e+00 
111 1 2 6.7318344459645640e-01 -1.3649590314199443e+03 1.0000000000000000e+00 1.2137411043836270e+01 1.8931884960451889e+01 8.1291648622659824e+00 
75 1 2 6.7318344459645640e-01 -1.3520567291890482e+03 1.0000000000000000e+00 1.2137411044374240e+01 1.8931884961198765e+01 8.1291648620559211e+00 
106 1 2 6.7318344459645640e-01 -1.3308786584229049e+03 1.0000000000000000e+00 1.2137411069634148e+01 1.8931885018807861e+01 8.1291648509714882e+00 
58 1 2 8.4144710728853911e-01 -1.0728682789713127e+03 1.0000000000000000e+00 7.9699756353276392e+00 1.2938345043420137e+01 1.2053686328730594e+01 
64 1 2 8.4134987252500049e-01 -1.1750559248016586e+03 1.0000000000000000e+00 7.9756557053389354e+00 1.2927605985574194e+01 1.2071917673142401e+01 
100 1 2 8.4139543279313755e-01 -1.2559820528161804e+03 1.0000000000000000e+00 7.9687896444325501e+00 1.2940062538162111e+01 1.2037989338359600e+01 
28 1 2 8.4144534548673855e-01 -1.1882926015487619e+03 1.0000000000000000e+00 7.9685357779464603e+00 1.2939833147656680e+01 1.2053762094500852e+01 
29 1 2 8.4144130981523368e-01 -1.0002336355412295e+03 1.0000000000000000e+00 7.9665537304672860e+00 1.2938753338155218e+01 1.2049458544384036e+01 
66 1 2 1.0089379117572572e+00 -8.7383691004884145e+02 1.0000000000000000e+00 6.6962032020223745e+00 1.5126956130146413e+01 1.6338124764864055e+01 
35 1 2 1.0072075269428451e+00 -1.1876567687144961e+03 1.0000000000000000e+00 6.7526070148593842e+00 1.5105282032786350e+01 1.6374019309274484e+01 
30 1 2 1.0089937691574131e+00 -1.4498988169948418e+03 1.0000000000000000e+00 6.6845007218958559e+00 1.5109366001224387e+01 1.6326719886428254e+01 
36 1 2 1.0085384376385280e+00 -1.2732370291209206e+03 1.0000000000000000e+00 6.7102302250588375e+00 1.5158291269669380e+01 1.6325083333124656e+01 
101 1 2 6.7318344459645674e-01 -1.0497096913001767e+03 1.0000000000000000e+00 1.0338490226735837e+01 1.6755549538452389e+01 1.4252826162513019e+01 
71 1 2 6.7318344459645674e-01 -1.2215079925505270e+03 1.0000000000000000e+00 1.0338490227970684e+01 1.6755549535167614e+01 1.4252826161486777e+01 
107 1 2 6.7318344459645674e-01 -1.1021742205470457e+03 1.0000000000000000e+00 1.0338490226910325e+01 1.6755549535232660e+01 1.4252826160464798e+01 
108 1 2 6.7318344459645674e-01 -9.2403231601268590e+02 1.0000000000000000e+00 1.0338490226678756e+01 1.6755549534315154e+01 1.4252826158586235e+01 
96 1 2 5.0488758344734253e-01 -1.1017334482874051e+03 1.0000000000000000e+00 9.8152081106888645e+00 1.0003114530005591e+01 1.8433752339925949e+01 
91 1 2 5.0488758344734253e-01 -1.0126258638135947e+03 1.0000000000000000e+00 9.8152081107162417e+00 1.0003114529904327e+01 1.8433752339950669e+01 
60 1 2 5.0488758344734253e-01 -9.1518095517008453e+02 1.0000000000000000e+00 9.8152081107653437e+00 1.0003114529903758e+01 1.8433752339863659e+01 
67 1 2 8.4145341303628529e-01 -1.3815938877157289e+03 1.0000000000000000e+00 1.0110491272337891e+01 1.4569460972051571e+01 1.9870161589622448e+01 
97 1 2 8.4142888464227439e-01 -1.2387141071900007e+03 1.0000000000000000e+00 1.0106695751695868e+01 1.4570710623163224e+01 1.9879517630032204e+01 
102 1 2 8.4140378217197964e-01 -9.3169181144105323e+02 1.0000000000000000e+00 1.0101079107780244e+01 1.4566853576394388e+01 1.9852716634777853e+01 
61 1 2 8.4145112183865101e-01 -1.1008073273252987e+03 1.0000000000000000e+00 1.0103134771626584e+01 1.4564213153978223e+01 1.9865185601486225e+01 
103 1 2 8.4145095890986421e-01 -9.7015178010287502e+02 1.0000000000000000e+00 1.0110019037417594e+01 1.4570918591940266e+01 1.9871828474697310e+01 
157 1 2 1.6829586114911418e-01 4.3383051167974600e+01 1.0000000000000000e+00 1.7041846157221020e+01 7.9505801819768207e+00 2.1156876641329606e-01 
110 1 2 1.3430950352176219e+00 -1.4457282265738629e+03 1.0000000000000000e+00 1.6540763500785093e+01 2.9350354710527800e+00 6.4337066255521016e+00 
116 1 2 1.3390788776241995e+00 -1.3156922792924918e+03 1.0000000000000000e+00 1.6510747147087038e+01 3.0050301870830900e+00 6.5750330805141708e+00 
146 1 2 1.3428623829968345e+00 -1.1783333592449219e+03 1.0000000000000000e+00 1.6551359166971466e+01 2.9939357930504267e+00 6.4447282548175178e+00 
117 1 2 1.3400986963359574e+00 -1.3161593480537083e+03 1.0000000000000000e+00 1.6633356192207426e+01 2.8913549061728587e+00 6.4230030095663899e+00 
147 1 2 1.3424061784117638e+00 -1.3520626166952006e+03 1.0000000000000000e+00 1.6565597775680661e+01 2.9234681133997258e+00 6.5451687695618901e+00 
154 1 2 1.3403252411310849e+00 -9.6176031666756273e+02 1.0000000000000000e+00 1.6574416692280067e+01 2.8622279385605292e+00 6.5394710807588323e+00 
153 1 2 1.3425356625773035e+00 -9.8833950704741119e+02 1.0000000000000000e+00 1.6558223982959948e+01 2.9776975055590542e+00 6.4207560317889065e+00 
152 1 2 1.3431191544488512e+00 -1.2760671429970428e+03 1.0000000000000000e+00 1.6556116695073420e+01 2.9961769597491732e+00 6.4614052788445733e+00 
159 1 2 1.5135702992576789e+00 -1.4895121115040299e+03 1.0000000000000000e+00 1.6652708446129953e+01 8.7633933942567808e+00 6.9403401113806122e+00 
123 1 2 1.5135838454039472e+00 -1.4192282173299386e+03 1.0000000000000000e+00 1.6646462586678183e+01 8.7576638320235336e+00 6.8763254038073898e+00 
160 1 2 1.5136764071751316e+00 -1.5531746728519081e+03 1.0000000000000000e+00 1.6644601570197661e+01 8.7679599469113807e+00 6.8821986694354420e+00 
129 1 2 1.5133670664757277e+00 -1.6922050613628840e+03 1.0000000000000000e+00 1.6666572394752190e+01 8.7240200377927550e+00 6.9250164392546658e+00 
128 1 2 1.5138078756975990e+00 -1.2776093882018833e+03 1.0000000000000000e+00 1.6650109313098493e+01 8.7421765764157620e+00 6.9092812625715760e+00 
166 1 2 1.5136284196289580e+00 -1.3328614468600479e+03 1.0000000000000000e+00 1.6689781177355872e+01 8.7804885774665582e+00 6.8863171414620608e+00 
158 1 2 1.5127370594964571e+00 -1.5555271727798288e+03 1.0000000000000000e+00 1.6698957986314340e+01 8.8120876370852699e+00 6.8934884907035618e+00 
122 1 2 1.5133607028809890e+00 -1.6582294587425181e+03 1.0000000000000000e+00 1.6672003104097222e+01 8.7422450842452122e+00 6.9441458161163085e+00 
165 1 2 1.5138876121057276e+00 -1.4589824420719465e+03 1.0000000000000000e+00 1.6680177867317628e+01 8.7801944506430054e+00 6.8979309972557523e+00 
112 1 2 8.4141945596854306e-01 -1.2446473934208398e+03 1.0000000000000000e+00 1.5427560338245524e+01 2.0437488946881155e+00 1.2835064477013519e+01 
118 1 2 8.4145457757802256e-01 -1.0787353694869498e+03 1.0000000000000000e+00 1.5426122347959957e+01 2.0377724976790752e+00 1.2844255667031481e+01 
113 1 2 8.4143306313232269e-01 -1.2218655045387175e+03 1.0000000000000000e+00 1.5423884778936744e+01 2.0358271859971531e+00 1.2858222964699157e+01 
155 1 2 8.4144482928718656e-01 -1.4410236212169259e+03 1.0000000000000000e+00 1.5414754630242555e+01 2.0411119198682814e+00 1.2851122698406421e+01 
149 1 2 8.4145845765033833e-01 -1.3016998060401520e+03 1.0000000000000000e+00 1.5420946481606117e+01 2.0420475655855324e+00 1.2849637933501644e+01 
115 1 2 1.1774318480206447e+00 -1.8176882007726911e+03 1.0000000000000000e+00 1.6913288931134641e+01 2.2421189552666378e+00 1.9439683836522420e+01 
150 1 2 1.1774589858779849e+00 -1.1575645873305116e+03 1.0000000000000000e+00 1.6869158436041221e+01 2.2544301095822070e+00 1.9444128047511462e+01 
109 1 2 1.1770346592204362e+00 -1.5257652253092490e+03 1.0000000000000000e+00 1.6914572659493675e+01 2.3107460084524862e+00 1.9457344546534380e+01 
114 1 2 1.1777158474275837e+00 -1.6189114403127746e+03 1.0000000000000000e+00 1.6897636268309217e+01 2.2694984288462137e+00 1.9436383025358840e+01 
156 1 2 1.1774662843094978e+00 -1.1492396395361318e+03 1.0000000000000000e+00 1.6917921198498082e+01 2.2648734010805169e+00 1.9462323143467827e+01 
145 1 2 1.1775849135965266e+00 -1.4110038759245429e+03 1.0000000000000000e+00 1.6906564608316632e+01 2.2528204667729104e+00 1.9431312607058324e+01 
151 1 2 1.1770057466316293e+00 -1.3799254201230683e+03 1.0000000000000000e+00 1.6851959913019531e+01 2.2849458671451734e+00 1.9426560308916397e+01 
163 1 2 6.7318344459645674e-01 -9.8362196624248270e+02 1.0000000000000000e+00 1.7043854506915245e+01 1.1830621551648587e+01 2.9075249904958418e+00 
169 1 2 6.7318344459645674e-01 -9.6269544041756035e+02 1.0000000000000000e+00 1.7043854504599974e+01 1.1830621547451852e+01 2.9075249913657824e+00 
170 1 2 6.7318344459645674e-01 -1.0316465848433779e+03 1.0000000000000000e+00 1.7043854504740690e+01 1.1830621547452951e+01 2.9075249904798843e+00 
164 1 2 6.7318344459645674e-01 -1.0130758308872576e+03 1.0000000000000000e+00 1.7043854508126074e+01 1.1830621554158533e+01 2.9075249881346497e+00 
140 1 2 6.7318344459645674e-01 -1.0654775625546067e+03 1.0000000000000000e+00 1.5855187161013976e+01 1.6680301294177781e+01 2.7992074306826864e+00 
139 1 2 6.7318344459645674e-01 -1.1168708812713462e+03 1.0000000000000000e+00 1.5855187148422949e+01 1.6680301291762593e+01 2.7992074568540395e+00 
175 1 2 6.7318344459645674e-01 -1.1202231690960639e+03 1.0000000000000000e+00 1.5855187147438865e+01 1.6680301291640692e+01 2.7992074583173685e+00 
176 1 2 6.7318344459645674e-01 -1.2420398324871262e+03 1.0000000000000000e+00 1.5855187149490629e+01 1.6680301291439257e+01 2.7992074484498861e+00 
171 1 2 3.3659172229822837e-01 -8.1058762568902580e+02 1.0000000000000000e+00 1.7994330517909997e+01 1.5289695683519893e+01 6.9407300776050116e+00 
177 1 2 3.3659172229822837e-01 -7.7850354455077695e+02 1.0000000000000000e+00 1.7994330517910168e+01 1.5289695683521440e+01 6.9407300776060605e+00 
172 1 2 1.6829586114911418e-01 1.0186243739483450e+02 1.0000000000000000e+00 1.8509580074217386e+01 1.3553133916778044e+01 1.1507095107808405e+01 
143 1 2 3.3659172229822837e-01 -8.3145291068974825e+02 1.0000000000000000e+00 1.4669363746924436e+01 1.6815930338619353e+01 1.1582733731167142e+01 
142 1 2 3.3659172229822837e-01 -8.4717484144922264e+02 1.0000000000000000e+00 1.4669363746923427e+01 1.6815930338609309e+01 1.1582733731167401e+01 
178 1 2 3.3659172229822837e-01 -9.7469564178047767e+02 1.0000000000000000e+00 1.8532030331447253e+01 1.9650528259385375e+01 1.0066365505073197e+01 
148 1 2 3.3659172229822837e-01 -9.9326667949151920e+02 1.0000000000000000e+00 1.8532030331455758e+01 1.9650528259390782e+01 1.0066365505073513e+01 
167 1 2 1.5085291507483625e+00 -1.4485308391142219e+03 1.0000000000000000e+00 1.5656085384350252e+01 1.0320413311200735e+01 1.3642508209196842e+01 
131 1 2 1.5085094475624041e+00 -1.3268141288664278e+03 1.0000000000000000e+00 1.5638664115233164e+01 1.0260818427405184e+01 1.3680495234198041e+01 
132 1 2 1.5092065212874504e+00 -1.3981975153613071e+03 1.0000000000000000e+00 1.5608055543902427e+01 1.0340915361371538e+01 1.3709322839373671e+01 
137 1 2 1.5089725962587923e+00 -1.3681612458670531e+03 1.0000000000000000e+00 1.5645514539645919e+01 1.0311439467288558e+01 1.3646080591430032e+01 
130 1 2 1.5072414849612041e+00 -1.0879745814189528e+03 1.0000000000000000e+00 1.5603212047368261e+01 1.0317666536156489e+01 1.3595249806712280e+01 
136 1 2 1.4873073893015623e+00 -1.1840334688390710e+03 1.0000000000000000e+00 1.5380905634183680e+01 1.0222756279243630e+01 1.3668994727198164e+01 
125 1 2 1.5056150106779478e+00 -1.3576588528494831e+03 1.0000000000000000e+00 1.5561689807200992e+01 1.0354282304462075e+01 1.3763828035031658e+01 
162 1 2 1.5090457901907510e+00 -1.3652081025540394e+03 1.0000000000000000e+00 1.5630170054450142e+01 1.0346118096929841e+01 1.3703281756217915e+01 
161 1 2 1.5014196060484166e+00 -1.5552864012464784e+03 1.0000000000000000e+00 1.5755597015883600e+01 1.0340185433253712e+01 1.3695372240145820e+01 
168 1 2 1.0096668658285548e+00 -1.2097058794721031e+03 1.0000000000000000e+00 1.7273972183784043e+01 1.4880868653422562e+01 1.5923722470426904e+01 
144 1 2 1.0095224124035831e+00 -1.4412047769238936e+03 1.0000000000000000e+00 1.7260673360739695e+01 1.4895691185602809e+01 1.5894100807653169e+01 
173 1 2 1.0096260063705536e+00 -1.4609184997536697e+03 1.0000000000000000e+00 1.7271348267820915e+01 1.4879548320654626e+01 1.5932203631216014e+01 
174 1 2 1.0096090697699616e+00 -1.5678603639628611e+03 1.0000000000000000e+00 1.7260037785653619e+01 1.4900261692479601e+01 1.5931388863084443e+01 
179 1 2 1.0096310832160491e+00 -1.5044309730428731e+03 1.0000000000000000e+00 1.7274910716930805e+01 1.4889780056254281e+01 1.5903431515689650e+01 
180 1 2 1.0096830205280583e+00 -1.1437111201252692e+03 1.0000000000000000e+00 1.7269703771540573e+01 1.4889419144074871e+01 1.5926456795072420e+01 
127 1 2 5.0488758344734253e-01 -9.0765816953985836e+02 1.0000000000000000e+00 1.4258179930873196e+01 1.3175622386876073e+01 1.9749798637827993e+01 
138 1 2 5.0488758344734253e-01 -9.9815563330601606e+02 1.0000000000000000e+00 1.4258179930944626e+01 1.3175622386927008e+01 1.9749798637671930e+01 
133 1 2 5.0488758344734253e-01 -1.0233924715061352e+03 1.0000000000000000e+00 1.4258179930916084e+01 1.3175622386896652e+01 1.9749798637741279e+01 

Velocities

1 -1.0823541397715402e-07 1.4422371444824177e-07 7.5917941615890129e-09
7 6.3679671485056256e-07 -8.3823776702819716e-07 6.9664896148543244e-08
37 -2.5371856885976779e-07 3.3014874621329203e-07 2.5897992301717326e-10
38 -2.7484273201467273e-07 3.6386530636691419e-07 -7.7515670233144229e-08
49 -1.5131315810316670e-01 1.1270260169717382e-01 -6.6859560536110321e-02
13 7.7432437290238659e-02 -6.9959264624059408e-02 -1.5513170432770548e-02
19 6.4901037399581432e-02 -1.4850767639326196e-01 -2.5666834317300147e-02
25 1.0975687802262206e-02 7.1497061811130150e-02 5.4946598731022263e-02
18 -1.9960043885780408e-03 3.4267277508867232e-02 5.3092966555081375e-02
3 -3.4102490420940795e-02 -1.4235236083385769e-01 1.4548149120072280e-02
2 -4.1535953012426595e-02 -1.3595454596903234e-01 8.9348681404410480e-03
9 -4.1722258417887126e-02 -1.4357580466067280e-01 6.1147217217730858e-03
8 -2.4115729694026769e-02 -1.0378164322707191e-01 1.4138361640149316e-02
14 -9.5354178534407835e-02 -1.0304743466716323e-01 -3.2388969637807505e-02
15 3.1000310734232822e-01 7.8669544386026802e-01 -1.2141390890225649e-02
51 -9.0004618128916400e-02 -3.1955263641619064e-01 4.2713871211640310e-02
50 1.6832120866427224e-02 1.6156898191335589e-01 -4.1919611306080982e-02
10 1.1092505562584069e-02 -2.5035551495294939e-01 -8.1149127006185900e-02
11 1.2763482182869066e-03 1.7080506330922945e-01 6.2664604379388492e-02
16 3.2118659515494236e-01 2.5649973161917294e-01 3.4288525261207105e-02
47 -2.9626447285255514e-01 -3.6318045083228173e-01 -1.0892550305427870e-01
52 -3.7290976083833992e-02 1.8623117085698240e-01 9.3121500419496891e-02
5 -7.3767012608513480e-12 -2.0435905549510670e-13 -1.5335205855573696e-12
6 7.3767012608513480e-12 2.0435905549510670e-13 1.5335205855573696e-12
17 -8.5215845065555553e-11 1.0159717737196965e-10 -1.6350428938966842e-10
23 -6.1532623257697226e-11 2.8117229210572700e-10 1.3906104664115344e-10
24 1.4674846832308680e-10 -3.8276946947744734e-10 2.4443242747857742e-11
12 1.5621362971341033e-90 1.4505176895562425e-89 8.0101709817930916e-90
20 -1.6092939212202614e-01 1.1482063999577805e-01 1.7598776047850312e-01
26 7.9073662997555499e-02 -2.1366808704958790e-01 -2.1648246698856205e-01
27 1.4209853777995096e-01 -1.0368638960088188e-01 -1.8360701727135040e-01
62 -9.9987416560331374e-02 1.1931774608441416e-02 7.9119374855290220e-02
56 5.6805267810257527e-02 1.2367439935639392e-01 7.1823191933149136e-02
55 -1.7060659906565641e-02 6.6927662689748799e-02 7.3159156993489127e-02
31 6.4624225722477034e-10 -9.5132967559446385e-10 2.2717095942411612e-09
32 -7.0139147571430473e-10 3.8978498349334176e-11 -1.1526582465950087e-09
68 5.5149218488602113e-11 9.1235117724508670e-10 -1.1190513476475070e-09
22 3.0298076151137387e-12 2.0418204931722591e-12 4.7421395830380448e-12
21 -3.0298076151137387e-12 -2.0418204931722591e-12 -4.7421395830380448e-12
65 3.5986569450493150e-01 1.9518729236222240e-01 2.5946484292256689e-01
72 -6.2260305211713760e-02 2.3988412503155213e-01 -1.2497687558918512e-01
43 -3.6242311291628124e-02 -8.3953239393402920e-02 -2.0021366445804090e-01
44 4.8746135916731353e-02 -4.0844142701448932e-03 -4.8112588795216502e-02