LAMMPS data file via write_data, version 30 Jul 2016, timestep = 50400000

180 atoms
2 atom types

0.0000000000000000e+00 2.0000000000000000e+01 xlo xhi
0.0000000000000000e+00 2.0000000000000000e+01 ylo yhi
0.0000000000000000e+00 2.0000000000000000e+01 zlo zhi

Masses

1 3.896
2 5

Atoms # meso-molecular

1 1 2 6.7318344459645663e-01 -1.3597076575249007e+03 1.0000000000000000e+00 5.9612184552173808e+00 1.2709418176215612e+00 1.7517558056899549e+00 
7 1 2 6.7318344459645629e-01 -9.9049781295868195e+02 1.0000000000000000e+00 5.9612184887128468e+00 1.2709417734541195e+00 1.7517558084787634e+00 
37 1 2 6.7318344459645663e-01 -1.3393156837154002e+03 1.0000000000000000e+00 5.9612184486724304e+00 1.2709418259890766e+00 1.7517558053598337e+00 
38 1 2 6.7318344459645652e-01 -1.3422296737700492e+03 1.0000000000000000e+00 5.9612184477204666e+00 1.2709418275061315e+00 1.7517558018578245e+00 
49 1 2 8.4139672126939802e-01 -1.4113398657417831e+03 1.0000000000000000e+00 5.6788111616878041e+00 9.2733972050886901e+00 2.0121250542863034e-01 
13 1 2 8.4140434909041228e-01 -1.7386244491047346e+03 1.0000000000000000e+00 5.6994625630226325e+00 9.2554223173973504e+00 2.0485926055275502e-01 
19 1 2 8.4141719878140386e-01 -1.4608304311711813e+03 1.0000000000000000e+00 5.6921631364253500e+00 9.2554560899363896e+00 2.0239075822731387e-01 
25 1 2 8.4140745256720639e-01 -1.3363779706351711e+03 1.0000000000000000e+00 5.6926821252673649e+00 9.2759587167009130e+00 2.1610498427301289e-01 
18 1 2 8.4143572362000796e-01 -1.4810026403356135e+03 1.0000000000000000e+00 5.6882635204191567e+00 9.2681091624574705e+00 2.1383738361746091e-01 
3 1 2 1.3448770542990425e+00 -1.0798234663799951e+03 1.0000000000000000e+00 5.6599994202613875e+00 5.0893303349138206e+00 6.3353095916899385e+00 
2 1 2 1.3449264395559759e+00 -1.2784787432665385e+03 1.0000000000000000e+00 5.6614068435407248e+00 5.0920648239615742e+00 6.3351983173366522e+00 
9 1 2 1.3449032717930618e+00 -1.2268822518928280e+03 1.0000000000000000e+00 5.6599460304213336e+00 5.0912268512910517e+00 6.3355197593690331e+00 
8 1 2 1.3432232805886650e+00 -1.0683220887266175e+03 1.0000000000000000e+00 5.6572004993430118e+00 5.0386442905789544e+00 6.3483600420449875e+00 
14 1 2 1.3450065954042221e+00 -1.1976226539596087e+03 1.0000000000000000e+00 5.6655001369577898e+00 5.0965336742371887e+00 6.3359490406280701e+00 
15 1 2 1.3378118209529013e+00 -1.2609700423423874e+03 1.0000000000000000e+00 5.7226047191284604e+00 5.2499678347466023e+00 6.3325996761178587e+00 
51 1 2 1.3450296027252784e+00 -1.2287331082375281e+03 1.0000000000000000e+00 5.6797580669592822e+00 5.0999531687772164e+00 6.3463279915134461e+00 
50 1 2 1.3449377319199443e+00 -1.2073087846884662e+03 1.0000000000000000e+00 5.6852479770777835e+00 5.1298725723493730e+00 6.3387233787699229e+00 
10 1 2 8.4076915683879649e-01 -9.8680464368141020e+02 1.0000000000000000e+00 6.3335598490070302e+00 5.3048418625771854e+00 1.1603211867791160e+01 
11 1 2 8.4069593670959109e-01 -1.5136265662946305e+03 1.0000000000000000e+00 6.4041562724073371e+00 5.3522807684021902e+00 1.1592128595927436e+01 
16 1 2 8.4080308293919137e-01 -1.4271339428392478e+03 1.0000000000000000e+00 6.3911038168182683e+00 5.3483670089319943e+00 1.1576773798625164e+01 
47 1 2 8.4068410847715991e-01 -1.2997542226962009e+03 1.0000000000000000e+00 6.3355442659516612e+00 5.2957495497511804e+00 1.1595853738081816e+01 
52 1 2 8.4086246050677671e-01 -1.2150040544392318e+03 1.0000000000000000e+00 6.3671775100003396e+00 5.3447240721133165e+00 1.1631312085679404e+01 
5 1 2 3.3659172229822837e-01 -4.3578462862651821e+02 1.0000000000000000e+00 5.2833572803972144e+00 1.9511968855399942e-01 1.5200435734223081e+01 
6 1 2 3.3659172229822837e-01 -4.1635748342204670e+02 1.0000000000000000e+00 5.2833572803963529e+00 1.9511968855397543e-01 1.5200435734223513e+01 
17 1 2 5.0488758344734253e-01 -7.6820552564116304e+02 1.0000000000000000e+00 5.6037227508232768e+00 9.9596745203362982e+00 1.4285507213585971e+01 
23 1 2 5.0488758344734253e-01 -8.2275824093831670e+02 1.0000000000000000e+00 5.6037227508222394e+00 9.9596745203836008e+00 1.4285507213612108e+01 
24 1 2 5.0488758344734253e-01 -8.3225359244474521e+02 1.0000000000000000e+00 5.6037227508343639e+00 9.9596745203083152e+00 1.4285507213626198e+01 
12 1 2 1.6829586114911418e-01 4.9844082473279867e+00 1.0000000000000000e+00 5.4174267640489910e+00 5.0202452745939965e+00 1.7946429153199446e+01 
20 1 2 1.0093827940764086e+00 -1.2536505621233487e+03 1.0000000000000000e+00 6.4872758271877204e+00 1.2303244910541498e+01 3.9594903979103315e+00 
26 1 2 1.0088399991770041e+00 -9.8037642297782236e+02 1.0000000000000000e+00 6.4614077402928105e+00 1.2356340619353173e+01 4.0169449831789423e+00 
27 1 2 1.0095340178254879e+00 -1.1016437739042183e+03 1.0000000000000000e+00 6.4710799773685661e+00 1.2326458446003851e+01 3.9891749396693066e+00 
62 1 2 1.0095688296832199e+00 -9.8387921423701766e+02 1.0000000000000000e+00 6.4790025987165816e+00 1.2316967210094768e+01 3.9735001645104560e+00 
56 1 2 1.0095339743708971e+00 -9.7377940536300639e+02 1.0000000000000000e+00 6.4876646060300374e+00 1.2316379826991838e+01 3.9692715304811292e+00 
55 1 2 1.0094856110271246e+00 -7.5744200087141405e+02 1.0000000000000000e+00 6.4906093985416051e+00 1.2312391599660167e+01 3.9660024769982556e+00 
31 1 2 5.0488758344734253e-01 -1.0440046392434492e+03 1.0000000000000000e+00 5.9487959187704194e+00 1.7396517850169190e+01 3.4541645514550448e+00 
32 1 2 5.0488758344734253e-01 -1.2261705042628021e+03 1.0000000000000000e+00 5.9487959187323654e+00 1.7396517850208252e+01 3.4541645513506594e+00 
68 1 2 5.0488758344734253e-01 -1.2133095325466982e+03 1.0000000000000000e+00 5.9487959187550388e+00 1.7396517850236986e+01 3.4541645513521035e+00 
22 1 2 3.3659172229822837e-01 -5.0994802180658189e+02 1.0000000000000000e+00 5.2998004375624213e+00 1.0262972540346812e+01 8.8891375438208780e+00 
21 1 2 3.3659172229822837e-01 -4.9970159997305961e+02 1.0000000000000000e+00 5.2998004375615979e+00 1.0262972540346324e+01 8.8891375438198938e+00 
72 1 2 1.0085725744690686e+00 -1.2634034316163190e+03 1.0000000000000000e+00 6.6424033820486850e+00 1.5127294276180770e+01 1.6290056690000029e+01 
43 1 2 1.1779116948257227e+00 -1.2916820009648127e+03 1.0000000000000000e+00 1.0839318579455465e+01 4.7851274276872795e+00 2.3615808413262078e+00 
44 1 2 1.1779452515261783e+00 -1.2710903176423126e+03 1.0000000000000000e+00 1.0857104327277597e+01 4.7889722876191945e+00 2.3694770351859531e+00 
74 1 2 1.1778649473902121e+00 -1.2673335464532875e+03 1.0000000000000000e+00 1.0852196359951579e+01 4.8083613619384691e+00 2.3557891374060445e+00 
79 1 2 1.1779518798692730e+00 -1.2125938963936146e+03 1.0000000000000000e+00 1.0849522057853738e+01 4.7854791555225615e+00 2.3696009519657761e+00 
80 1 2 1.1779021951464197e+00 -1.2366084566481659e+03 1.0000000000000000e+00 1.0846515436301827e+01 4.7786133683864263e+00 2.3675126515059635e+00 
121 1 2 1.1776629997868713e+00 -1.1963435541888978e+03 1.0000000000000000e+00 1.0848368991932686e+01 4.8086686786689317e+00 2.3974172360165751e+00 
85 1 2 1.1779087206683734e+00 -1.1962557427523034e+03 1.0000000000000000e+00 1.0847403660389151e+01 4.8036980441872199e+00 2.3568515949306010e+00 
86 1 2 3.3659172229822837e-01 -5.6168604326009165e+02 1.0000000000000000e+00 1.1046048865597733e+01 8.7074468276826558e+00 4.1432445630802945e+00 
92 1 2 3.3659172229822837e-01 -5.5461806400763032e+02 1.0000000000000000e+00 1.1046048865596013e+01 8.7074468276827659e+00 4.1432445630826260e+00 
39 1 2 6.7318344459645663e-01 -1.0175619230200957e+03 1.0000000000000000e+00 7.7024186091457123e+00 1.6532168220988555e+00 9.8571968946018078e+00 
4 1 2 6.7318344459645640e-01 -9.2899447977936370e+02 1.0000000000000000e+00 7.7024186266901991e+00 1.6532168134390652e+00 9.8571968977892848e+00 
40 1 2 6.7318344459645652e-01 -1.1515198552367990e+03 1.0000000000000000e+00 7.7024185803273548e+00 1.6532168290719522e+00 9.8571968775942960e+00 
76 1 2 6.7318344459645640e-01 -1.0389786834985634e+03 1.0000000000000000e+00 7.7024185585650429e+00 1.6532168326181229e+00 9.8571968642107457e+00 
82 1 2 1.1774750231078470e+00 -1.3280844187879809e+03 1.0000000000000000e+00 1.1414914591857842e+01 5.6929443113557845e+00 8.9342251654848663e+00 
87 1 2 1.1767763096520145e+00 -1.1161962215176920e+03 1.0000000000000000e+00 1.1418682336546874e+01 5.7511125281400908e+00 8.8924555368001776e+00 
88 1 2 1.1765712869367879e+00 -1.1536317898967748e+03 1.0000000000000000e+00 1.1441324664662547e+01 5.6635151148517595e+00 8.9165513662824196e+00 
124 1 2 1.1771174040998027e+00 -1.0674767337616586e+03 1.0000000000000000e+00 1.1389612272715084e+01 5.7407012280093266e+00 8.9486074949883729e+00 
46 1 2 1.1774620798051778e+00 -1.2785357476388783e+03 1.0000000000000000e+00 1.1402146479631261e+01 5.7227737769881637e+00 8.9079414655041163e+00 
45 1 2 1.1771698240161306e+00 -1.4329670447469671e+03 1.0000000000000000e+00 1.1397130123627731e+01 5.6846885321620890e+00 8.9519263390569375e+00 
81 1 2 1.1774640978355393e+00 -1.3499920567809227e+03 1.0000000000000000e+00 1.1392215109831481e+01 5.7256495654145123e+00 8.9333516543435252e+00 
120 1 2 1.5144329170660218e+00 -1.3606765167128258e+03 1.0000000000000000e+00 1.1617541294526106e+01 3.3305626127519714e+00 1.5320428240876019e+01 
48 1 2 1.5141493734665532e+00 -1.4634103539550551e+03 1.0000000000000000e+00 1.1609215343113254e+01 3.3245930774080414e+00 1.5283756536965736e+01 
42 1 2 1.5144165643195324e+00 -1.4185159209927951e+03 1.0000000000000000e+00 1.1603424161336392e+01 3.3419148757351853e+00 1.5297178354302487e+01 
83 1 2 1.5145032139236061e+00 -9.9933723842907955e+02 1.0000000000000000e+00 1.1606551777012619e+01 3.3402434546808770e+00 1.5309076183325145e+01 
41 1 2 1.5141979348971184e+00 -1.4697379556903716e+03 1.0000000000000000e+00 1.1600935640770643e+01 3.3608164898836250e+00 1.5294481237739477e+01 
126 1 2 1.5142570254687397e+00 -1.3684936858400254e+03 1.0000000000000000e+00 1.1608652745162198e+01 3.3394878259647349e+00 1.5336741599411997e+01 
84 1 2 1.5143295826535317e+00 -9.4284349481361130e+02 1.0000000000000000e+00 1.1621620948536052e+01 3.3342444741177402e+00 1.5329527463209940e+01 
77 1 2 1.5144839043559832e+00 -1.2462228783907385e+03 1.0000000000000000e+00 1.1619848222101753e+01 3.3405059236082701e+00 1.5310277423474117e+01 
119 1 2 1.5144959444862243e+00 -1.4230275221218812e+03 1.0000000000000000e+00 1.1612964789117177e+01 3.3427393128203993e+00 1.5316420297831550e+01 
53 1 2 1.0090616512337798e+00 -1.0780570856022327e+03 1.0000000000000000e+00 1.0171285574779947e+01 8.2472025035606382e+00 1.4469043325550315e+01 
54 1 2 1.0091001795266141e+00 -1.2169853644398208e+03 1.0000000000000000e+00 1.0164203014331454e+01 8.2278787474571971e+00 1.4432238593001893e+01 
90 1 2 1.0089857385976375e+00 -1.0093405962078795e+03 1.0000000000000000e+00 1.0134937323537905e+01 8.2043431539883223e+00 1.4467947741380039e+01 
89 1 2 1.0078321233544001e+00 -1.3239632453011061e+03 1.0000000000000000e+00 1.0079662579337992e+01 8.2532438205767402e+00 1.4458021826175321e+01 
95 1 2 1.0086800377903795e+00 -1.2328865259727963e+03 1.0000000000000000e+00 1.0193741884046938e+01 8.2493274341805627e+00 1.4439284895938965e+01 
59 1 2 1.0089862929530407e+00 -1.0810265311498085e+03 1.0000000000000000e+00 1.0167051578885525e+01 8.2020779801999577e+00 1.4464823600767353e+01 
78 1 2 3.3659172229822837e-01 -7.5526870678947000e+02 1.0000000000000000e+00 1.1974109591074686e+01 2.4319326232638680e-01 1.9141608155158806e+01 
73 1 2 3.3659172229822837e-01 -7.8483582025980354e+02 1.0000000000000000e+00 1.1974109591076340e+01 2.4319326232637556e-01 1.9141608155160540e+01 
98 1 2 1.0090377753524031e+00 -1.2284980192328878e+03 1.0000000000000000e+00 1.2794162477009037e+01 1.4762552436655106e+01 5.6187388831951370e+00 
99 1 2 1.0092498908895986e+00 -1.4269859291792739e+03 1.0000000000000000e+00 1.2796788682469401e+01 1.4758558024153352e+01 5.5665877636908663e+00 
104 1 2 1.0092157068838230e+00 -1.3250722696879377e+03 1.0000000000000000e+00 1.2799949864129012e+01 1.4771349180789558e+01 5.5981326918542456e+00 
134 1 2 1.0091338976195889e+00 -1.3553180790654562e+03 1.0000000000000000e+00 1.2837994790068050e+01 1.4718568109157960e+01 5.5843784566010379e+00 
135 1 2 1.0094022907102713e+00 -1.3175421394882228e+03 1.0000000000000000e+00 1.2811328331148284e+01 1.4734881041392264e+01 5.5985357189168852e+00 
141 1 2 1.0089074764701815e+00 -1.0325503924799755e+03 1.0000000000000000e+00 1.2840858254301574e+01 1.4725835598816372e+01 5.5536728369477126e+00 
57 1 2 5.0488758344734253e-01 -8.7859137601502562e+02 1.0000000000000000e+00 1.1119665857392853e+01 1.0583568662344550e+01 8.7161174821110130e+00 
93 1 2 5.0488758344734253e-01 -8.1852562658778470e+02 1.0000000000000000e+00 1.1119665857282870e+01 1.0583568662399038e+01 8.7161174821269078e+00 
94 1 2 5.0488758344734253e-01 -6.6080092027463422e+02 1.0000000000000000e+00 1.1119665857303024e+01 1.0583568662358854e+01 8.7161174820965179e+00 
63 1 2 8.4138861002387200e-01 -8.9869921950961873e+02 1.0000000000000000e+00 6.8053392060206921e+00 1.6035315424993893e+01 8.7515170634688797e+00 
69 1 2 8.4141596251960082e-01 -1.1220432340946725e+03 1.0000000000000000e+00 6.7985314648571009e+00 1.6043250439933733e+01 8.7562987764886735e+00 
70 1 2 8.4124854497773405e-01 -1.1240984590385815e+03 1.0000000000000000e+00 6.8021413368308146e+00 1.6071749730403877e+01 8.7734945212233413e+00 
34 1 2 8.4142113464083479e-01 -1.0643853641386524e+03 1.0000000000000000e+00 6.8052353988611527e+00 1.6045983761322226e+01 8.7516208234812556e+00 
33 1 2 8.4140782060573305e-01 -1.0739802372447982e+03 1.0000000000000000e+00 6.8110442865761787e+00 1.6042933059247716e+01 8.7516509571895362e+00 
105 1 2 6.7318344459645363e-01 -1.3205071536945861e+03 1.0000000000000000e+00 1.2137411095642447e+01 1.8931885077214986e+01 8.1291648402461156e+00 
111 1 2 6.7318344459645352e-01 -1.3649590314199443e+03 1.0000000000000000e+00 1.2137411017323579e+01 1.8931884900833445e+01 8.1291648737302218e+00 
75 1 2 6.7318344459645352e-01 -1.3520567291890482e+03 1.0000000000000000e+00 1.2137411018943064e+01 1.8931884903090346e+01 8.1291648730984889e+00 
106 1 2 6.7318344459645352e-01 -1.3308786584229049e+03 1.0000000000000000e+00 1.2137411095585232e+01 1.8931885077895121e+01 8.1291648394531464e+00 
58 1 2 8.4140391841802542e-01 -1.0728379307076166e+03 1.0000000000000000e+00 7.9636041876255756e+00 1.2939278987379456e+01 1.2058755439884944e+01 
64 1 2 8.4136091172207594e-01 -1.1750589900496484e+03 1.0000000000000000e+00 7.9694337506671582e+00 1.2930820200669508e+01 1.2068872193388989e+01 
100 1 2 8.4140949862567260e-01 -1.2559946255820232e+03 1.0000000000000000e+00 7.9765538414934527e+00 1.2936020371193392e+01 1.2054953188000534e+01 
28 1 2 8.4139320157017405e-01 -1.1882555434879114e+03 1.0000000000000000e+00 7.9602009813040411e+00 1.2937815436914176e+01 1.2058875632134134e+01 
29 1 2 8.4123122303713638e-01 -1.0000846445363227e+03 1.0000000000000000e+00 7.9797177324341568e+00 1.2940665056810728e+01 1.2025357525722608e+01 
36 1 2 1.0086014094877107e+00 -1.2732496143282399e+03 1.0000000000000000e+00 6.7304713408970356e+00 1.5138558343872733e+01 1.6349113922351020e+01 
30 1 2 1.0090588967967971e+00 -1.4499183388558267e+03 1.0000000000000000e+00 6.6696046268084368e+00 1.5101248091231014e+01 1.6301163092633338e+01 
66 1 2 1.0093259799198482e+00 -8.7402675001968714e+02 1.0000000000000000e+00 6.6799841465866807e+00 1.5118989726625983e+01 1.6325814321943067e+01 
35 1 2 1.0087345158556484e+00 -1.1884179212203080e+03 1.0000000000000000e+00 6.7152633004501263e+00 1.5141761619974002e+01 1.6356284082212621e+01 
65 1 2 1.0091614748204938e+00 -9.4151409871325018e+02 1.0000000000000000e+00 6.6834100913781267e+00 1.5096691761534641e+01 1.6311000281430434e+01 
101 1 2 6.7318344459645674e-01 -1.0497096913001767e+03 1.0000000000000000e+00 1.0338490226073374e+01 1.6755549543733196e+01 1.4252826165979736e+01 
71 1 2 6.7318344459645674e-01 -1.2215079925505270e+03 1.0000000000000000e+00 1.0338490229739916e+01 1.6755549533930957e+01 1.4252826162917367e+01 
107 1 2 6.7318344459645674e-01 -1.1021742205470457e+03 1.0000000000000000e+00 1.0338490226583527e+01 1.6755549534109814e+01 1.4252826159878605e+01 
108 1 2 6.7318344459645674e-01 -9.2403231601268590e+02 1.0000000000000000e+00 1.0338490225899152e+01 1.6755549531395737e+01 1.4252826154275484e+01 
96 1 2 5.0488758344734253e-01 -1.1017334482874051e+03 1.0000000000000000e+00 9.8152081106932592e+00 1.0003114529956228e+01 1.8433752339904053e+01 
91 1 2 5.0488758344734253e-01 -1.0126258638135947e+03 1.0000000000000000e+00 9.8152081107168545e+00 1.0003114529929787e+01 1.8433752339910978e+01 
60 1 2 5.0488758344734253e-01 -9.1518095517008453e+02 1.0000000000000000e+00 9.8152081107603006e+00 1.0003114529926778e+01 1.8433752339925057e+01 
103 1 2 8.4144590107915074e-01 -9.7014811959300471e+02 1.0000000000000000e+00 1.0102047029851864e+01 1.4567067383682398e+01 1.9867490039152351e+01 
102 1 2 8.4141010195728339e-01 -9.3169673718742592e+02 1.0000000000000000e+00 1.0102164458076722e+01 1.4568014025809394e+01 1.9854719112829798e+01 
61 1 2 8.4140545931643529e-01 -1.1007739725395074e+03 1.0000000000000000e+00 1.0111638429731730e+01 1.4573679439650851e+01 1.9880369876582694e+01 
97 1 2 8.4142331105752033e-01 -1.2387100627879697e+03 1.0000000000000000e+00 1.0107681185184667e+01 1.4565621917373530e+01 1.9857046328327463e+01 
67 1 2 8.4141968406458811e-01 -1.3815693203598930e+03 1.0000000000000000e+00 1.0107888838021292e+01 1.4567774151009441e+01 1.9879784573731794e+01 
157 1 2 1.6829586114911418e-01 4.3383051167974600e+01 1.0000000000000000e+00 1.7041846157221020e+01 7.9505801819768207e+00 2.1156876641329606e-01 
110 1 2 1.3444313544127240e+00 -1.4460828965636651e+03 1.0000000000000000e+00 1.6546311455596122e+01 2.9327370648352349e+00 6.5163773158178859e+00 
116 1 2 1.3425345861645341e+00 -1.3166426290961388e+03 1.0000000000000000e+00 1.6553115745062492e+01 2.8692359305714410e+00 6.5138673492144807e+00 
146 1 2 1.3441931495388670e+00 -1.1786674546560962e+03 1.0000000000000000e+00 1.6512310103639724e+01 2.9435412951557640e+00 6.4868408210441775e+00 
117 1 2 1.3423804872052958e+00 -1.3166309404436709e+03 1.0000000000000000e+00 1.6601987334732701e+01 2.9620877428096488e+00 6.4028306951829972e+00 
147 1 2 1.3444891330185786e+00 -1.3526605780796556e+03 1.0000000000000000e+00 1.6571971899528702e+01 2.9862532462442681e+00 6.4766156801265531e+00 
154 1 2 1.3424688837422387e+00 -9.6239498889672245e+02 1.0000000000000000e+00 1.6529531870072624e+01 3.0292539912591767e+00 6.4782229025862179e+00 
153 1 2 1.3440595807905080e+00 -9.8867323351771029e+02 1.0000000000000000e+00 1.6603843615495435e+01 2.9251745083054206e+00 6.5033774175034536e+00 
152 1 2 1.3448626387001472e+00 -1.2766844040665824e+03 1.0000000000000000e+00 1.6571509128902264e+01 2.9366430954250005e+00 6.4651399498875701e+00 
166 1 2 1.5127419331958174e+00 -1.3326738455127156e+03 1.0000000000000000e+00 1.6655771377256659e+01 8.7468595387311314e+00 6.9480095733656819e+00 
158 1 2 1.5128035498965593e+00 -1.5555482401708250e+03 1.0000000000000000e+00 1.6656790098606830e+01 8.7209378164292364e+00 6.8969793179426118e+00 
122 1 2 1.5127456749794448e+00 -1.6580906266167185e+03 1.0000000000000000e+00 1.6642144282329259e+01 8.7577232419125171e+00 6.8673869634808451e+00 
159 1 2 1.5120102893387457e+00 -1.4891606022176034e+03 1.0000000000000000e+00 1.6639676396369495e+01 8.7975651068612866e+00 6.8593960399867058e+00 
165 1 2 1.5135267226105114e+00 -1.4589039605263260e+03 1.0000000000000000e+00 1.6670469474720839e+01 8.7569848430281994e+00 6.9017082068911577e+00 
129 1 2 1.5118590617946963e+00 -1.6918793190531565e+03 1.0000000000000000e+00 1.6717007726604209e+01 8.7865213867862746e+00 6.8682867706928512e+00 
128 1 2 1.5130096231658821e+00 -1.2774387379286852e+03 1.0000000000000000e+00 1.6671830896214910e+01 8.7990599270338450e+00 6.9179074771852420e+00 
123 1 2 1.5098389640577690e+00 -1.4184181452405167e+03 1.0000000000000000e+00 1.6677324429172533e+01 8.7387521389038412e+00 7.0016179404612320e+00 
160 1 2 1.5134897374030634e+00 -1.5531310911262826e+03 1.0000000000000000e+00 1.6670359764690481e+01 8.7658255371535390e+00 6.8937520419521965e+00 
112 1 2 8.4144620021940142e-01 -1.2446668856402307e+03 1.0000000000000000e+00 1.5419124272758367e+01 2.0375372276265011e+00 1.2856977403112973e+01 
118 1 2 8.4146473963201107e-01 -1.0787428013918454e+03 1.0000000000000000e+00 1.5419625755886790e+01 2.0418907755512019e+00 1.2849987341349440e+01 
113 1 2 8.4145143223123275e-01 -1.2218789064074722e+03 1.0000000000000000e+00 1.5421364186599074e+01 2.0438156260705345e+00 1.2839564580781342e+01 
155 1 2 8.4145918553914667e-01 -1.4410340970661623e+03 1.0000000000000000e+00 1.5428897389120070e+01 2.0389892912220620e+00 1.2845669624974477e+01 
149 1 2 8.4146672824097546e-01 -1.3017058536404145e+03 1.0000000000000000e+00 1.5424256972626802e+01 2.0382751433512247e+00 1.2846104790436209e+01 
115 1 2 1.1772583261834422e+00 -1.8176258398461057e+03 1.0000000000000000e+00 1.6869804550880961e+01 2.2731050392003507e+00 1.9445256224479991e+01 
150 1 2 1.1766102291891478e+00 -1.1572561906182182e+03 1.0000000000000000e+00 1.6949292210715715e+01 2.2727938172675803e+00 1.9436276733757865e+01 
109 1 2 1.1765153122660867e+00 -1.5255823346433101e+03 1.0000000000000000e+00 1.6850111246091316e+01 2.2578907816117790e+00 1.9474552823988855e+01 
114 1 2 1.1770783665578124e+00 -1.6186824853400240e+03 1.0000000000000000e+00 1.6899484381949815e+01 2.2340906241970049e+00 1.9431527336819848e+01 
156 1 2 1.1770699453146607e+00 -1.1490883994885598e+03 1.0000000000000000e+00 1.6911223079206856e+01 2.3001044825525967e+00 1.9431978738327022e+01 
145 1 2 1.1766885258673130e+00 -1.4106761557796024e+03 1.0000000000000000e+00 1.6872914120382728e+01 2.3142361028734717e+00 1.9437572463117796e+01 
151 1 2 1.1768163768310582e+00 -1.3798617157023966e+03 1.0000000000000000e+00 1.6918272425558559e+01 2.2272123894905160e+00 1.9440571194859505e+01 
163 1 2 6.7318344459645674e-01 -9.8362196624248270e+02 1.0000000000000000e+00 1.7043854508539038e+01 1.1830621554564738e+01 2.9075249912429570e+00 
169 1 2 6.7318344459645674e-01 -9.6269544041756035e+02 1.0000000000000000e+00 1.7043854501643899e+01 1.1830621542044359e+01 2.9075249938392145e+00 
170 1 2 6.7318344459645674e-01 -1.0316465848433779e+03 1.0000000000000000e+00 1.7043854502062494e+01 1.1830621542046483e+01 2.9075249911975858e+00 
164 1 2 6.7318344459645674e-01 -1.0130758308872576e+03 1.0000000000000000e+00 1.7043854512134615e+01 1.1830621562056297e+01 2.9075249841962831e+00 
140 1 2 6.7318344459645596e-01 -1.0654775625546067e+03 1.0000000000000000e+00 1.5855187179874966e+01 1.6680301298026691e+01 2.7992073948615759e+00 
139 1 2 6.7318344459645652e-01 -1.1168708812713462e+03 1.0000000000000000e+00 1.5855187142074662e+01 1.6680301290776548e+01 2.7992074734052022e+00 
175 1 2 6.7318344459645629e-01 -1.1202231690960639e+03 1.0000000000000000e+00 1.5855187139130544e+01 1.6680301290408252e+01 2.7992074777941638e+00 
176 1 2 6.7318344459645652e-01 -1.2420398324871262e+03 1.0000000000000000e+00 1.5855187145285379e+01 1.6680301289808700e+01 2.7992074482430760e+00 
171 1 2 3.3659172229822837e-01 -8.1058762568902580e+02 1.0000000000000000e+00 1.7994330517911234e+01 1.5289695683520812e+01 6.9407300776053287e+00 
177 1 2 3.3659172229822837e-01 -7.7850354455077695e+02 1.0000000000000000e+00 1.7994330517908931e+01 1.5289695683520522e+01 6.9407300776057435e+00 
172 1 2 1.6829586114911418e-01 1.0186243739483450e+02 1.0000000000000000e+00 1.8509580074217386e+01 1.3553133916778044e+01 1.1507095107808405e+01 
143 1 2 3.3659172229822837e-01 -8.3145291068974825e+02 1.0000000000000000e+00 1.4669363746923446e+01 1.6815930338617683e+01 1.1582733731166797e+01 
142 1 2 3.3659172229822837e-01 -8.4717484144922264e+02 1.0000000000000000e+00 1.4669363746924416e+01 1.6815930338610979e+01 1.1582733731167746e+01 
178 1 2 3.3659172229822837e-01 -9.7469564178047767e+02 1.0000000000000000e+00 1.8532030331454639e+01 1.9650528259387730e+01 1.0066365505073541e+01 
148 1 2 3.3659172229822837e-01 -9.9326667949151920e+02 1.0000000000000000e+00 1.8532030331448372e+01 1.9650528259388427e+01 1.0066365505073168e+01 
167 1 2 1.5060712757926782e+00 -1.4480343860898290e+03 1.0000000000000000e+00 1.5681219406378373e+01 1.0242838063538738e+01 1.3675462794600948e+01 
131 1 2 1.5064219185340462e+00 -1.3263542485418477e+03 1.0000000000000000e+00 1.5652826358961899e+01 1.0395256805217070e+01 1.3658480862612077e+01 
132 1 2 1.5082410099461432e+00 -1.3979587553714503e+03 1.0000000000000000e+00 1.5644010647265842e+01 1.0311303491247390e+01 1.3733859469617675e+01 
137 1 2 1.5082029318254944e+00 -1.3680080659601492e+03 1.0000000000000000e+00 1.5669140615982128e+01 1.0304023252486738e+01 1.3705243511768101e+01 
130 1 2 1.5045701696838603e+00 -1.0874488924336247e+03 1.0000000000000000e+00 1.5598242630037245e+01 1.0270098163365535e+01 1.3568111689561038e+01 
136 1 2 1.4899513004468297e+00 -1.1844204083603229e+03 1.0000000000000000e+00 1.5453709153117799e+01 1.0456705322837486e+01 1.3769174321128895e+01 
125 1 2 1.5060542060268063e+00 -1.3575936216308219e+03 1.0000000000000000e+00 1.5646900692950652e+01 1.0227121390711678e+01 1.3641196646420083e+01 
162 1 2 1.5097169814176481e+00 -1.3653618688991769e+03 1.0000000000000000e+00 1.5616115598596471e+01 1.0299244396721575e+01 1.3691271101707027e+01 
161 1 2 1.5066183453131312e+00 -1.5566078661973554e+03 1.0000000000000000e+00 1.5517729038899368e+01 1.0308004331263637e+01 1.3662333042075812e+01 
168 1 2 1.0096100842741882e+00 -1.2096767857842535e+03 1.0000000000000000e+00 1.7276096078055680e+01 1.4876894481224230e+01 1.5922771648984442e+01 
144 1 2 1.0096441277972406e+00 -1.4412681451189903e+03 1.0000000000000000e+00 1.7263187772151262e+01 1.4884659951274525e+01 1.5911798044139154e+01 
173 1 2 1.0094222173124479e+00 -1.4608143539667024e+03 1.0000000000000000e+00 1.7256491255468468e+01 1.4916944512572144e+01 1.5910418181934618e+01 
174 1 2 1.0096533215686199e+00 -1.5678807264276552e+03 1.0000000000000000e+00 1.7264561406484720e+01 1.4893728925901309e+01 1.5923330089572277e+01 
179 1 2 1.0095801554731192e+00 -1.5044057636534399e+03 1.0000000000000000e+00 1.7275112237194175e+01 1.4890108808117473e+01 1.5901181446955501e+01 
180 1 2 1.0094551862526253e+00 -1.1435997912951698e+03 1.0000000000000000e+00 1.7275197337112857e+01 1.4873232373418469e+01 1.5941804671565169e+01 
127 1 2 5.0488758344734253e-01 -9.0765816953985836e+02 1.0000000000000000e+00 1.4258179930922983e+01 1.3175622386919205e+01 1.9749798637774955e+01 
138 1 2 5.0488758344734253e-01 -9.9815563330601606e+02 1.0000000000000000e+00 1.4258179930884818e+01 1.3175622386882475e+01 1.9749798637666338e+01 
133 1 2 5.0488758344734253e-01 -1.0233924715061352e+03 1.0000000000000000e+00 1.4258179930926088e+01 1.3175622386897867e+01 1.9749798637799472e+01 

Velocities

1 -8.8964881126391075e-08 1.1855595665393535e-07 6.2243029342456469e-09
7 5.2328957878600954e-07 -6.8882973577464959e-07 5.7248804693173498e-08
37 -2.0849052129814492e-07 2.7128718371854577e-07 2.0216629432668147e-10
38 -2.2583417636246979e-07 2.9898659540236748e-07 -6.3675273921735592e-08
49 -4.7545992323131191e-02 1.9002389991714908e-01 1.8382110191408726e-02
13 -1.2086667283935178e-01 9.4199951976393415e-02 -7.9409570190899937e-03
19 1.7551438223610100e-01 -9.7079597457742431e-02 1.0879793617191946e-01
25 -7.7902103047393673e-02 -9.7429741240635956e-02 -1.4979044300204639e-01
18 7.0800385974111646e-02 -8.9714513195299508e-02 3.0551353657720558e-02
3 -3.1269337646965559e-02 -2.0311839387722193e-02 -1.3265068990268808e-02
2 -1.4884189041453911e-02 -2.9618289525328825e-03 -6.6834147140038581e-03
9 -9.8808663131785286e-03 -4.4817676690448640e-03 -5.5210234396458283e-03
8 3.2863226089523169e-02 7.4435790707922764e-02 4.7970822997471683e-03
14 5.0703663335571053e-02 1.7503505710562042e-02 2.9819324140116257e-02
15 1.9291171584489512e-02 8.0912293924861975e-02 -1.0232110844366900e-02
51 -8.7466406753105116e-02 -2.1339117920901410e-01 -1.0073975858793830e-02
50 4.0642738745251573e-02 6.8295024874633639e-02 1.1159187407175988e-02
10 2.2447622510861068e-01 4.9401139347844453e-01 2.1415204959866466e-01
11 -3.6805604473253994e-01 -1.8881844281953120e-01 9.0619887431018273e-02
16 -3.1497134144948952e-01 -2.7841190331087429e-01 2.7208700903246702e-01
47 4.1953082983466111e-01 1.0041618818343173e-01 -2.4513006981194482e-01
52 3.9020331238179433e-02 -1.2719723553132867e-01 -3.3172887625058439e-01
5 8.5179956066907814e-13 2.9416077946556733e-14 2.0784234405879584e-12
6 -8.5179956066907814e-13 -2.9416077946556733e-14 -2.0784234405879584e-12
17 1.5370532832782540e-10 -3.5981302523117062e-11 -3.3140362202033096e-10
23 -9.0277747662918621e-13 4.1679937732986504e-10 -1.4484433748875073e-10
24 -1.5280255085136338e-10 -3.8081807480648331e-10 4.7624795950848069e-10
12 1.5258497396223824e-90 1.4168238987772327e-89 7.8241042918742322e-90
20 -6.2514366238326721e-02 3.3050901901315044e-02 4.2800328130732819e-02
26 -2.2266449358017928e-02 3.7984329846054293e-02 4.2776373765487194e-02
27 -1.7541072805580210e-01 8.1801935242401425e-02 1.4826370126638810e-01
62 -1.5277727944421454e-01 -2.5870962597642391e-02 1.0897912475828331e-01
56 3.0406705103285059e-01 -5.2982552899759228e-02 -2.0675430066102954e-01
55 1.0890177206240595e-01 -7.3983651492481248e-02 -1.3606522725930609e-01
31 -1.0592443404430427e-09 1.2716853647629653e-09 -3.4856234045413759e-09
32 1.1074507579711785e-09 3.3540700435477956e-11 1.7629146370781103e-09
68 -4.8206417528950782e-11 -1.3052260651985521e-09 1.7227087674620352e-09
22 4.0151055131498708e-12 -1.1492195033906696e-12 -1.0319062472842288e-12
21 -4.0151055131498708e-12 1.1492195033906696e-12 1.0319062472842288e-12
72 3.0558329625007657e-01 -2.0488576752502091e-01 2.4802336857319998e-01
43 -1.0998743984262882e-01 -1.9029148970308865e-01 -1.1751700092978844e-01
44 -1.7116324886988450e-02 -8.9467863337131373e-02 -7.0357265981897038e-02