LAMMPS data file via write_data, version 30 Jul 2016, timestep = 50000000

100 atoms
2 atom types

0.0000000000000000e+00 2.0000000000000000e+01 xlo xhi
0.0000000000000000e+00 2.0000000000000000e+01 ylo yhi
0.0000000000000000e+00 2.0000000000000000e+01 zlo zhi

Masses

1 3.896
2 4.31

Atoms # meso-molecular

53 1 2 1.0154972261737549e+00 -2.9444735588835158e+02 1.0000000000000000e+00 1.1674104244669552e+00 8.4974295741907593e+00 5.9940432507616697e+00 
75 1 2 1.0154972261737549e+00 -1.9619992977157779e+02 1.0000000000000000e+00 1.1674104244667876e+00 8.4974295741908019e+00 5.9940432507625978e+00 
69 1 2 1.0154972261737549e+00 -2.7950787721199913e+02 1.0000000000000000e+00 1.1674104244668746e+00 8.4974295741907593e+00 5.9940432507626396e+00 
7 1 2 1.0154972261737549e+00 -2.1083895012348216e+02 1.0000000000000000e+00 1.1674104244667023e+00 8.4974295741907913e+00 5.9940432507616697e+00 
95 1 2 1.0154972261737549e+00 -3.2653832265105109e+02 1.0000000000000000e+00 1.1674104244667676e+00 8.4974295741906847e+00 5.9940432507613934e+00 
37 1 2 1.0154972261737549e+00 -1.8960089234015777e+02 1.0000000000000000e+00 1.1674104244667876e+00 8.4974295741908019e+00 5.9940432507625978e+00 
12 1 2 1.0154972261737549e+00 -2.2363030900466106e+02 1.0000000000000000e+00 1.1674104244669552e+00 8.4974295741907593e+00 5.9940432507616697e+00 
20 1 2 1.0257223732246998e+00 -2.5799273990152125e+02 1.0000000000000000e+00 1.3322125092836563e+00 6.6229494640045337e+00 1.0852056751280214e+01 
57 1 2 1.0257223732246910e+00 -2.8916362866217878e+02 1.0000000000000000e+00 1.3322125092808053e+00 6.6229494640100501e+00 1.0852056751281252e+01 
100 1 2 1.0257223732246934e+00 -2.0191186853516388e+02 1.0000000000000000e+00 1.3322125092821486e+00 6.6229494640073217e+00 1.0852056751280768e+01 
25 1 2 1.0257223732246910e+00 -2.5799273991282831e+02 1.0000000000000000e+00 1.3322125092807697e+00 6.6229494640102420e+00 1.0852056751281253e+01 
93 1 2 1.0257223732246949e+00 -1.8334091283655874e+02 1.0000000000000000e+00 1.3322125092839978e+00 6.6229494640037689e+00 1.0852056751280077e+01 
33 1 2 1.0257223732246976e+00 -1.9957132422670372e+02 1.0000000000000000e+00 1.3322125092829549e+00 6.6229494640058135e+00 1.0852056751280477e+01 
73 1 2 1.0318115232293514e+00 -2.2368168481782556e+02 1.0000000000000000e+00 2.7633317897346878e+00 6.9933600369558775e+00 1.2645921891366559e+01 
72 1 2 1.0318115232293545e+00 -2.2842612701238920e+02 1.0000000000000000e+00 2.7633317897347571e+00 6.9933600369557727e+00 1.2645921891366415e+01 
24 1 2 1.0318115232293434e+00 -2.2088356276593345e+02 1.0000000000000000e+00 2.7633317897343832e+00 6.9933600369600333e+00 1.2645921891360020e+01 
19 1 2 1.0318115232293383e+00 -2.1793054376198563e+02 1.0000000000000000e+00 2.7633317897340750e+00 6.9933600369610325e+00 1.2645921891359542e+01 
48 1 2 1.0318115232293554e+00 -2.6253736552289240e+02 1.0000000000000000e+00 2.7633317897347194e+00 6.9933600369558233e+00 1.2645921891366473e+01 
2 1 2 1.0253382852120698e+00 -2.1040728569727585e+02 1.0000000000000000e+00 9.9981795710022192e-01 5.9511425308480508e+00 1.3945794858710196e+01 
98 1 2 1.0253382852123498e+00 -2.3603493504420339e+02 1.0000000000000000e+00 9.9981795706181242e-01 5.9511425308649226e+00 1.3945794858697113e+01 
97 1 2 1.0253382852123492e+00 -2.4222207513745508e+02 1.0000000000000000e+00 9.9981795706179066e-01 5.9511425308649093e+00 1.3945794858697097e+01 
51 1 2 1.0253382852120689e+00 -2.4502493262400458e+02 1.0000000000000000e+00 9.9981795710024679e-01 5.9511425308480543e+00 1.3945794858710219e+01 
10 1 2 1.0253382852120692e+00 -1.4526093002256943e+02 1.0000000000000000e+00 9.9981795710023080e-01 5.9511425308480517e+00 1.3945794858710206e+01 
94 1 2 1.0253382852120689e+00 -2.7588359760028226e+02 1.0000000000000000e+00 9.9981795710029542e-01 5.9511425308480339e+00 1.3945794858710233e+01 
34 1 2 1.0154972261737549e+00 -4.8594613871322956e+01 1.0000000000000000e+00 2.1706427777967505e+00 1.1986500676861121e+01 1.2396845637880093e+01 
88 1 2 1.0154972261737549e+00 -2.5985791580692955e+02 1.0000000000000000e+00 2.1706427777973651e+00 1.1986500676861137e+01 1.2396845637880563e+01 
92 1 2 1.0154972261737549e+00 -3.0838376413811636e+02 1.0000000000000000e+00 2.1706427777971284e+00 1.1986500676861155e+01 1.2396845637880684e+01 
28 1 2 1.0154972261737549e+00 -3.0686688276769405e+02 1.0000000000000000e+00 2.1706427777973651e+00 1.1986500676861132e+01 1.2396845637880684e+01 
36 1 2 1.0154972261737549e+00 -1.7269208739785313e+02 1.0000000000000000e+00 2.1706427777967505e+00 1.1986500676861155e+01 1.2396845637880071e+01 
27 1 2 1.0154972261737549e+00 -2.8022251513381264e+02 1.0000000000000000e+00 2.1706427777967869e+00 1.1986500676861132e+01 1.2396845637880071e+01 
41 1 2 1.0154972261737549e+00 -1.7598878398187486e+02 1.0000000000000000e+00 2.1706427777973651e+00 1.1986500676861137e+01 1.2396845637880563e+01 
26 1 2 1.0154972261737549e+00 -2.9511922501813399e+02 1.0000000000000000e+00 1.3046754027210067e+01 1.2437869575403148e+01 1.2829563932471912e+01 
65 1 2 1.0154972261737549e+00 -2.9008142143309880e+02 1.0000000000000000e+00 1.3046754027210067e+01 1.2437869575403148e+01 1.2829563932471912e+01 
31 1 2 1.0154972261737549e+00 -2.3501563533015974e+02 1.0000000000000000e+00 1.3046754027210067e+01 1.2437869575403148e+01 1.2829563932471912e+01 
60 1 2 1.0154972261737549e+00 -2.6312289301613498e+02 1.0000000000000000e+00 1.3046754027210067e+01 1.2437869575403148e+01 1.2829563932471912e+01 
90 1 2 1.0154972261737549e+00 -2.4845494627449756e+02 1.0000000000000000e+00 1.3046754027210067e+01 1.2437869575403148e+01 1.2829563932471912e+01 
38 1 2 1.0154972261737549e+00 -2.1431343564768741e+02 1.0000000000000000e+00 1.3046754027210067e+01 1.2437869575403148e+01 1.2829563932471912e+01 
89 1 2 1.0154972261737549e+00 -2.8806200231865409e+02 1.0000000000000000e+00 1.3046754027210067e+01 1.2437869575403148e+01 1.2829563932471912e+01 
46 1 2 1.0154972261737549e+00 -2.6551287834546338e+02 1.0000000000000000e+00 8.4438230187577723e+00 1.3338766378195562e+01 1.2178163515936252e+01 
47 1 2 1.0154972261737549e+00 -1.8853562073774668e+02 1.0000000000000000e+00 8.4438230187577723e+00 1.3338766378195562e+01 1.2178163515936252e+01 
1 1 2 1.0154972261737549e+00 -1.2966128162975559e+02 1.0000000000000000e+00 8.4438230187581702e+00 1.3338766378195333e+01 1.2178163515935614e+01 
21 1 2 1.0154972261737549e+00 -2.3426442066894742e+02 1.0000000000000000e+00 8.4438230187577723e+00 1.3338766378195562e+01 1.2178163515936252e+01 
8 1 2 1.0154972261737549e+00 -7.3675093568945954e+01 1.0000000000000000e+00 8.4438230187580920e+00 1.3338766378195560e+01 1.2178163515935873e+01 
15 1 2 1.0154972261737549e+00 -1.4788264919099032e+02 1.0000000000000000e+00 8.4438230187580388e+00 1.3338766378195521e+01 1.2178163515935616e+01 
80 1 2 1.0154972261737549e+00 -1.2983160468101681e+02 1.0000000000000000e+00 8.4438230187579855e+00 1.3338766378195333e+01 1.2178163515935664e+01 
64 1 2 1.0255889653623558e+00 -3.2723753918692898e+02 1.0000000000000000e+00 1.2576689379449087e+01 1.2372240312861910e+01 1.8716123115678148e+01 
44 1 2 1.0255889653623558e+00 -1.4095395837560295e+02 1.0000000000000000e+00 1.2576689379449087e+01 1.2372240312861910e+01 1.8716123115678148e+01 
39 1 2 1.0255889653623558e+00 -1.3033576595598163e+02 1.0000000000000000e+00 1.2576689379449087e+01 1.2372240312861910e+01 1.8716123115678148e+01 
68 1 2 1.0255889653623558e+00 -3.4970808649160449e+02 1.0000000000000000e+00 1.2576689379449087e+01 1.2372240312861910e+01 1.8716123115678148e+01 
14 1 2 1.0255889653623558e+00 -1.6328351064356536e+02 1.0000000000000000e+00 1.2576689379449087e+01 1.2372240312861910e+01 1.8716123115678148e+01 
63 1 2 1.0255889653623558e+00 -3.6876334184455379e+02 1.0000000000000000e+00 1.2576689379449087e+01 1.2372240312861910e+01 1.8716123115678148e+01 
9 1 2 1.0255889653623558e+00 -9.3023155042607698e+01 1.0000000000000000e+00 1.2576689379449087e+01 1.2372240312861910e+01 1.8716123115678148e+01 
84 1 2 1.0154972261737549e+00 -2.5424143262244311e+02 1.0000000000000000e+00 9.4781492867570982e+00 1.5217964386174218e+01 1.9174306688901932e+01 
79 1 2 1.0154972261737549e+00 -2.8916436048345003e+02 1.0000000000000000e+00 9.4781492867571036e+00 1.5217964386174245e+01 1.9174306688901911e+01 
54 1 2 1.0154972261737549e+00 -2.4007394873549140e+02 1.0000000000000000e+00 9.4781492867571036e+00 1.5217964386174245e+01 1.9174306688901911e+01 
58 1 2 1.0154972261737549e+00 -3.0389031279811451e+02 1.0000000000000000e+00 9.4781492867570982e+00 1.5217964386174218e+01 1.9174306688901932e+01 
59 1 2 1.0154972261737549e+00 -3.1199420616853820e+02 1.0000000000000000e+00 9.4781492867571036e+00 1.5217964386174245e+01 1.9174306688901911e+01 
78 1 2 1.0154972261737549e+00 -2.4878006925901485e+02 1.0000000000000000e+00 9.4781492867570769e+00 1.5217964386174231e+01 1.9174306688901911e+01 
83 1 2 1.0154972261737549e+00 -2.4072306687840597e+02 1.0000000000000000e+00 9.4781492867570982e+00 1.5217964386174218e+01 1.9174306688901932e+01 
4 1 2 1.0261615046172521e+00 -6.4878184957008429e+01 1.0000000000000000e+00 1.4507377320108780e+01 2.9477300302228344e+00 8.5258952771509140e+00 
70 1 2 1.0299858797074741e+00 -2.2683234026671710e+02 1.0000000000000000e+00 1.6364170953362624e+01 2.5020934773272234e+00 8.1163024835775950e+00 
6 1 2 1.0299858797074741e+00 -2.1682662974879429e+02 1.0000000000000000e+00 1.6364170953362624e+01 2.5020934773272234e+00 8.1163024835775950e+00 
11 1 2 1.0299858797074741e+00 -2.1683096293078228e+02 1.0000000000000000e+00 1.6364170953362624e+01 2.5020934773272234e+00 8.1163024835775950e+00 
85 1 2 1.0261615046172543e+00 -1.0580511485322158e+02 1.0000000000000000e+00 1.4507377320108768e+01 2.9477300302228637e+00 8.5258952771509513e+00 
55 1 2 1.0261615046172525e+00 -5.9179753367178883e+01 1.0000000000000000e+00 1.4507377320108802e+01 2.9477300302228286e+00 8.5258952771508874e+00 
87 1 2 1.0261615046172534e+00 -3.1304243195070467e+02 1.0000000000000000e+00 1.4507377320108752e+01 2.9477300302228664e+00 8.5258952771509691e+00 
5 1 2 1.0261615046172512e+00 -8.4341041988669232e+01 1.0000000000000000e+00 1.4507377320108773e+01 2.9477300302228286e+00 8.5258952771509140e+00 
62 1 2 1.0266924494724345e+00 -2.0798245050926877e+02 1.0000000000000000e+00 1.7874109785738167e+01 3.0726717870075579e+00 7.1065067497643435e+00 
49 1 2 1.0266924494724341e+00 -3.0201860411534392e+02 1.0000000000000000e+00 1.7874109785738099e+01 3.0726717870075864e+00 7.1065067497642529e+00 
61 1 2 1.0266924494724339e+00 -2.7402649050922264e+02 1.0000000000000000e+00 1.7874109785738103e+01 3.0726717870075739e+00 7.1065067497642493e+00 
35 1 2 1.0266924494724374e+00 -7.3782919814546744e+01 1.0000000000000000e+00 1.7874109785738192e+01 3.0726717870075846e+00 7.1065067497644234e+00 
32 1 2 1.0266924494724357e+00 -3.0792569321453379e+02 1.0000000000000000e+00 1.7874109785738074e+01 3.0726717870076299e+00 7.1065067497642556e+00 
86 1 2 1.0266924494724350e+00 -2.5680134225760258e+02 1.0000000000000000e+00 1.7874109785738188e+01 3.0726717870076530e+00 7.1065067497644332e+00 
45 1 2 1.0290886918360787e+00 -2.7737493501267795e+02 1.0000000000000000e+00 1.5001935100776986e+01 2.0665452157380222e+00 1.0681850741237625e+01 
99 1 2 1.0290886918360778e+00 -3.3640908395186682e+02 1.0000000000000000e+00 1.5001935100776983e+01 2.0665452157380217e+00 1.0681850741237628e+01 
13 1 2 1.0290886918360782e+00 -8.7203829530605987e+01 1.0000000000000000e+00 1.5001935100776985e+01 2.0665452157380231e+00 1.0681850741237627e+01 
50 1 2 1.0290886918360787e+00 -3.1232165890182216e+02 1.0000000000000000e+00 1.5001935100776986e+01 2.0665452157380204e+00 1.0681850741237625e+01 
29 1 2 1.0290886918360782e+00 -8.7948495533705412e+01 1.0000000000000000e+00 1.5001935100776986e+01 2.0665452157380271e+00 1.0681850741237628e+01 
74 1 2 1.0290886918360778e+00 -2.2914710761781001e+02 1.0000000000000000e+00 1.5001935100776983e+01 2.0665452157380231e+00 1.0681850741237628e+01 
81 1 2 1.0283646535881164e+00 -3.4976784163118612e+02 1.0000000000000000e+00 1.3890220731787137e+01 5.0718278229975056e+00 1.1276031790260307e+01 
56 1 2 1.0283646535881164e+00 -2.9053143578114606e+02 1.0000000000000000e+00 1.3890220731787137e+01 5.0718278229975056e+00 1.1276031790260307e+01 
76 1 2 1.0283646535881164e+00 -3.3054003728342349e+02 1.0000000000000000e+00 1.3890220731787137e+01 5.0718278229975056e+00 1.1276031790260307e+01 
30 1 2 1.0283646535881164e+00 -9.5033596067413910e+01 1.0000000000000000e+00 1.3890220731787137e+01 5.0718278229975056e+00 1.1276031790260307e+01 
40 1 2 1.0283646535881164e+00 -9.8302129606371025e+01 1.0000000000000000e+00 1.3890220731787137e+01 5.0718278229975056e+00 1.1276031790260307e+01 
77 1 2 1.0283646535881164e+00 -3.5888726695428858e+02 1.0000000000000000e+00 1.3890220731787137e+01 5.0718278229975056e+00 1.1276031790260307e+01 
82 1 2 1.0283646535881164e+00 -2.7934402496379596e+02 1.0000000000000000e+00 1.3890220731787137e+01 5.0718278229975056e+00 1.1276031790260307e+01 
23 1 2 1.0355158467963221e+00 -3.2749148926622360e+02 1.0000000000000000e+00 1.8253013923825378e+01 5.7423314122272933e+00 1.5422487718346254e+01 
42 1 2 1.0355158467963221e+00 -1.7738137112459600e+02 1.0000000000000000e+00 1.8253013923825378e+01 5.7423314122272933e+00 1.5422487718346254e+01 
22 1 2 1.0355158467963612e+00 -3.0861126935722467e+02 1.0000000000000000e+00 1.8253013923814510e+01 5.7423314122382809e+00 1.5422487718326561e+01 
18 1 2 1.0355158467963885e+00 -3.0494742317334055e+02 1.0000000000000000e+00 1.8253013923808840e+01 5.7423314122386993e+00 1.5422487718315354e+01 
43 1 2 1.0355158467963612e+00 -1.9077407344965940e+02 1.0000000000000000e+00 1.8253013923814510e+01 5.7423314122382809e+00 1.5422487718326561e+01 
16 1 2 1.0355158467962902e+00 -1.0882265097070237e+02 1.0000000000000000e+00 1.8253013923869101e+01 5.7423314121775730e+00 1.5422487718421394e+01 
17 1 2 1.0355158467963166e+00 -2.3797579195261079e+02 1.0000000000000000e+00 1.8253013923828181e+01 5.7423314122257949e+00 1.5422487718351398e+01 
52 1 2 1.0255889653623562e+00 -3.6271596651538971e+02 1.0000000000000000e+00 1.4059575657528978e+01 1.4519159395722063e+01 7.5081804333749180e-01 
71 1 2 1.0255889653623562e+00 -3.1169492407122277e+02 1.0000000000000000e+00 1.4059575657528976e+01 1.4519159395722063e+01 7.5081804333749402e-01 
66 1 2 1.0255889653623562e+00 -2.8439655454982005e+02 1.0000000000000000e+00 1.4059575657528976e+01 1.4519159395722063e+01 7.5081804333749402e-01 
91 1 2 1.0255889653623564e+00 -2.8482374326256740e+02 1.0000000000000000e+00 1.4059575657528976e+01 1.4519159395722070e+01 7.5081804333748148e-01 
96 1 2 1.0255889653623564e+00 -2.5928338066953620e+02 1.0000000000000000e+00 1.4059575657528978e+01 1.4519159395722061e+01 7.5081804333749214e-01 
67 1 2 1.0255889653623564e+00 -2.2213618491785587e+02 1.0000000000000000e+00 1.4059575657528978e+01 1.4519159395722061e+01 7.5081804333749214e-01 
3 1 2 1.0255889653623564e+00 -2.1654814376717380e+02 1.0000000000000000e+00 1.4059575657528976e+01 1.4519159395722070e+01 7.5081804333748148e-01 

Velocities

53 2.1858044365542686e-01 6.4356502628404422e-02 7.9552702158762778e-01
75 2.1858044365539139e-01 6.4356502628400522e-02 7.9552702158760125e-01
69 2.1858044365541071e-01 6.4356502628404422e-02 7.9552702158760025e-01
7 2.1858044365540985e-01 6.4356502628400550e-02 7.9552702158762778e-01
95 2.1858044365539270e-01 6.4356502628404033e-02 7.9552702158761612e-01
37 2.1858044365539139e-01 6.4356502628400522e-02 7.9552702158760125e-01
12 2.1858044365542686e-01 6.4356502628404422e-02 7.9552702158762778e-01
20 -2.3232033180051678e-01 5.5928024019258157e-02 2.6768321640792403e-03
57 -2.3232033180020878e-01 5.5928024018656715e-02 2.6768321639668705e-03
100 -2.3232033180035622e-01 5.5928024018954081e-02 2.6768321640200632e-03
25 -2.3232033180020162e-01 5.5928024018635940e-02 2.6768321639703799e-03
93 -2.3232033180055883e-01 5.5928024019341896e-02 2.6768321640844909e-03
33 -2.3232033180043565e-01 5.5928024019118693e-02 2.6768321640659306e-03
73 -2.5006560115769555e-01 3.8902967605695567e-02 2.1554516091004037e-02
72 -2.5006560115771470e-01 3.8902967605738741e-02 2.1554516091029770e-02
24 -2.5006560115735954e-01 3.8902967604594683e-02 2.1554516092034740e-02
19 -2.5006560115722809e-01 3.8902967604223661e-02 2.1554516092070219e-02
48 -2.5006560115768744e-01 3.8902967605730226e-02 2.1554516091022918e-02
2 -2.3789405810906705e-01 3.9747449344761522e-02 1.3601532577532280e-02
98 -2.3789405810652514e-01 3.9747449343930714e-02 1.3601532577779133e-02
97 -2.3789405810652220e-01 3.9747449343933386e-02 1.3601532577776385e-02
51 -2.3789405810906766e-01 3.9747449344759926e-02 1.3601532577534809e-02
10 -2.3789405810906716e-01 3.9747449344761702e-02 1.3601532577532069e-02
94 -2.3789405810906822e-01 3.9747449344760793e-02 1.3601532577533588e-02
34 -3.5956313523708744e-01 -3.0582990041850146e-02 -4.0203225513499613e-01
88 -3.5956313523710776e-01 -3.0582990041840834e-02 -4.0203225513497515e-01
92 -3.5956313523704736e-01 -3.0582990041832347e-02 -4.0203225513501278e-01
28 -3.5956313523710776e-01 -3.0582990041859551e-02 -4.0203225513501284e-01
36 -3.5956313523708749e-01 -3.0582990041846194e-02 -4.0203225513500274e-01
27 -3.5956313523711303e-01 -3.0582990041857713e-02 -4.0203225513499552e-01
41 -3.5956313523710776e-01 -3.0582990041840834e-02 -4.0203225513497515e-01
26 1.4925675217020148e-01 -1.4963383685454421e-01 7.5010373871315414e-02
65 1.4925675217020148e-01 -1.4963383685454421e-01 7.5010373871315414e-02
31 1.4925675217020148e-01 -1.4963383685454421e-01 7.5010373871315414e-02
60 1.4925675217020148e-01 -1.4963383685454421e-01 7.5010373871315414e-02
90 1.4925675217020148e-01 -1.4963383685454421e-01 7.5010373871315414e-02
38 1.4925675217020148e-01 -1.4963383685454421e-01 7.5010373871315414e-02
89 1.4925675217020148e-01 -1.4963383685454421e-01 7.5010373871315414e-02
46 2.5225368324866432e-01 -2.3029585779997122e-01 -3.6697798344162147e-01
47 2.5225368324866432e-01 -2.3029585779997122e-01 -3.6697798344162147e-01
1 2.5225368324868186e-01 -2.3029585779997394e-01 -3.6697798344163746e-01
21 2.5225368324866432e-01 -2.3029585779997122e-01 -3.6697798344162147e-01
8 2.5225368324866693e-01 -2.3029585780002074e-01 -3.6697798344164845e-01
15 2.5225368324864894e-01 -2.3029585779995415e-01 -3.6697798344164462e-01
80 2.5225368324870373e-01 -2.3029585779997397e-01 -3.6697798344156207e-01
64 -1.1946459350705337e-01 -1.8361486995126983e-01 -3.1227027342671545e-02
44 -1.1946459350705337e-01 -1.8361486995126983e-01 -3.1227027342671545e-02
39 -1.1946459350705337e-01 -1.8361486995126983e-01 -3.1227027342671545e-02
68 -1.1946459350705337e-01 -1.8361486995126988e-01 -3.1227027342671545e-02
14 -1.1946459350705337e-01 -1.8361486995126983e-01 -3.1227027342671545e-02
63 -1.1946459350705337e-01 -1.8361486995126983e-01 -3.1227027342671545e-02
9 -1.1946459350705337e-01 -1.8361486995126983e-01 -3.1227027342671545e-02
84 -4.0010437245479466e-02 3.1088216928076484e-01 2.0115676056625550e-01
79 -4.0010437245505910e-02 3.1088216928069778e-01 2.0115676056620624e-01
54 -4.0010437245505910e-02 3.1088216928069778e-01 2.0115676056620624e-01
58 -4.0010437245479466e-02 3.1088216928076484e-01 2.0115676056625550e-01
59 -4.0010437245505910e-02 3.1088216928069778e-01 2.0115676056620624e-01
78 -4.0010437245485489e-02 3.1088216928075019e-01 2.0115676056621268e-01
83 -4.0010437245479466e-02 3.1088216928076484e-01 2.0115676056625550e-01
4 1.6930720503470506e-01 2.7347725934611230e-03 -1.8541505754994553e-01
70 1.6587772352219465e-01 -4.3085938717321533e-02 -1.8853299875039575e-01
6 1.6587772352219465e-01 -4.3085938717321533e-02 -1.8853299875039575e-01
11 1.6587772352219465e-01 -4.3085938717321533e-02 -1.8853299875039575e-01
85 1.6930720503470567e-01 2.7347725934563291e-03 -1.8541505754995083e-01
55 1.6930720503469743e-01 2.7347725934657513e-03 -1.8541505754994400e-01
87 1.6930720503470609e-01 2.7347725934575092e-03 -1.8541505754995782e-01
5 1.6930720503470159e-01 2.7347725934648349e-03 -1.8541505754994700e-01
62 1.7882368961254358e-01 -8.8031749969881445e-02 -1.8848728991496494e-01
49 1.7882368961254441e-01 -8.8031749969887288e-02 -1.8848728991495117e-01
61 1.7882368961253786e-01 -8.8031749969888884e-02 -1.8848728991494471e-01
35 1.7882368961254461e-01 -8.8031749969881806e-02 -1.8848728991497563e-01
32 1.7882368961255377e-01 -8.8031749969888315e-02 -1.8848728991495697e-01
86 1.7882368961254363e-01 -8.8031749969890868e-02 -1.8848728991497396e-01
45 1.5107086648362575e-01 3.9618092293206918e-02 -1.7696485197202266e-01
99 1.5107086648362469e-01 3.9618092293209929e-02 -1.7696485197202749e-01
13 1.5107086648362730e-01 3.9618092293203989e-02 -1.7696485197201997e-01
50 1.5107086648362558e-01 3.9618092293206779e-02 -1.7696485197202375e-01
29 1.5107086648362475e-01 3.9618092293212025e-02 -1.7696485197202760e-01
74 1.5107086648362764e-01 3.9618092293203101e-02 -1.7696485197201806e-01
81 1.6407595564855351e-01 1.0930747202811568e-01 -2.6969736497372293e-01
56 1.6407595564855351e-01 1.0930747202811568e-01 -2.6969736497372293e-01
76 1.6407595564855351e-01 1.0930747202811568e-01 -2.6969736497372293e-01
30 1.6407595564855351e-01 1.0930747202811568e-01 -2.6969736497372293e-01
40 1.6407595564855351e-01 1.0930747202811568e-01 -2.6969736497372293e-01
77 1.6407595564855351e-01 1.0930747202811568e-01 -2.6969736497372293e-01
82 1.6407595564855351e-01 1.0930747202811568e-01 -2.6969736497372293e-01
23 -2.4238478579593800e-01 1.5302008472507680e-01 1.3075299965542142e-01
42 -2.4238478579593800e-01 1.5302008472507680e-01 1.3075299965542142e-01
22 -2.4238478580494610e-01 1.5302008473283710e-01 1.3075299964173193e-01
18 -2.4238478581025352e-01 1.5302008473292833e-01 1.3075299963411696e-01
43 -2.4238478580494610e-01 1.5302008473283710e-01 1.3075299964173193e-01
16 -2.4238478576124467e-01 1.5302008468956457e-01 1.3075299970836207e-01
17 -2.4238478579343842e-01 1.5302008472403666e-01 1.3075299965893386e-01
52 8.8024187907044582e-02 -1.5321984302986777e-01 -2.2709778081524624e-02
71 8.8024187907044180e-02 -1.5321984302986758e-01 -2.2709778081524572e-02
66 8.8024187907044180e-02 -1.5321984302986758e-01 -2.2709778081524572e-02
91 8.8024187907045318e-02 -1.5321984302986483e-01 -2.2709778081526358e-02
96 8.8024187907044485e-02 -1.5321984302986788e-01 -2.2709778081524582e-02
67 8.8024187907044485e-02 -1.5321984302986788e-01 -2.2709778081524582e-02
3 8.8024187907045318e-02 -1.5321984302986483e-01 -2.2709778081526358e-02
