LAMMPS data file via write_data, version 30 Jul 2016, timestep = 50400000

100 atoms
2 atom types

0.0000000000000000e+00 2.0000000000000000e+01 xlo xhi
0.0000000000000000e+00 2.0000000000000000e+01 ylo yhi
0.0000000000000000e+00 2.0000000000000000e+01 zlo zhi

Masses

1 3.896
2 4.31

Atoms # meso-molecular

70 1 2 1.0279951552358340e+00 -2.2679676438348301e+02 1.0000000000000000e+00 3.1353840942950146e+00 2.2097622192956385e+00 1.5139265263247953e-01 
6 1 2 1.0279951552358340e+00 -2.1679105386556020e+02 1.0000000000000000e+00 3.1353840942950146e+00 2.2097622192956385e+00 1.5139265263247953e-01 
11 1 2 1.0279951552358340e+00 -2.1679538704754819e+02 1.0000000000000000e+00 3.1353840942950146e+00 2.2097622192956385e+00 1.5139265263247953e-01 
99 1 2 1.0281985426416074e+00 -3.3639845591233461e+02 1.0000000000000000e+00 2.1738221318143798e+00 3.7249321952271361e+00 2.2989620706314025e+00 
13 1 2 1.0281985426416071e+00 -8.7193201491051596e+01 1.0000000000000000e+00 2.1738221318143940e+00 3.7249321952271366e+00 2.2989620706314029e+00 
50 1 2 1.0281985426416071e+00 -3.1231103086228995e+02 1.0000000000000000e+00 2.1738221318143935e+00 3.7249321952271295e+00 2.2989620706314033e+00 
29 1 2 1.0281985426416074e+00 -8.7937867494151021e+01 1.0000000000000000e+00 2.1738221318143922e+00 3.7249321952271366e+00 2.2989620706314020e+00 
74 1 2 1.0281985426416076e+00 -2.2913647957825441e+02 1.0000000000000000e+00 2.1738221318143940e+00 3.7249321952271353e+00 2.2989620706314016e+00 
45 1 2 1.0281985426416069e+00 -2.7736430697314574e+02 1.0000000000000000e+00 2.1738221318143922e+00 3.7249321952271384e+00 2.2989620706314029e+00 
62 1 2 1.0279478555183303e+00 -2.0797286609885512e+02 1.0000000000000000e+00 4.5473427601888288e+00 1.1532331041030661e+00 1.9457290356478548e+01 
49 1 2 1.0279478555183297e+00 -3.0200901970496670e+02 1.0000000000000000e+00 4.5473427601887559e+00 1.1532331041030972e+00 1.9457290356478346e+01 
61 1 2 1.0279478555183301e+00 -2.7401690609884542e+02 1.0000000000000000e+00 4.5473427601887479e+00 1.1532331041030766e+00 1.9457290356478364e+01 
35 1 2 1.0279478555183303e+00 -7.3773335404134073e+01 1.0000000000000000e+00 4.5473427601889220e+00 1.1532331041031163e+00 1.9457290356478662e+01 
32 1 2 1.0279478555183299e+00 -3.0791610880415658e+02 1.0000000000000000e+00 4.5473427601887852e+00 1.1532331041031723e+00 1.9457290356478293e+01 
86 1 2 1.0279478555183301e+00 -2.5679175784722537e+02 1.0000000000000000e+00 4.5473427601889842e+00 1.1532331041032142e+00 1.9457290356478637e+01 
4 1 2 1.0277649468044312e+00 -6.4860153717766082e+01 1.0000000000000000e+00 1.9287720117167106e+00 3.8353629398248326e+00 1.9942445552148982e+01 
85 1 2 1.0277649468044321e+00 -1.0578708361397923e+02 1.0000000000000000e+00 1.9287720117167098e+00 3.8353629398248836e+00 1.9942445552149000e+01 
55 1 2 1.0277649468044314e+00 -5.9161722127934709e+01 1.0000000000000000e+00 1.9287720117167262e+00 3.8353629398248268e+00 1.9942445552148975e+01 
87 1 2 1.0277649468044301e+00 -3.1302440071147396e+02 1.0000000000000000e+00 1.9287720117166791e+00 3.8353629398249067e+00 1.9942445552149014e+01 
5 1 2 1.0277649468044319e+00 -8.4323010749426885e+01 1.0000000000000000e+00 1.9287720117167158e+00 3.8353629398248281e+00 1.9942445552148982e+01 
77 1 2 1.0277383198781274e+00 -3.5887888980147801e+02 1.0000000000000000e+00 1.6045937779700958e+00 7.0178197488200293e+00 1.9936180070802589e+01 
40 1 2 1.0277383198781274e+00 -9.8293752453598429e+01 1.0000000000000000e+00 1.6045937779700958e+00 7.0178197488200293e+00 1.9936180070802589e+01 
82 1 2 1.0277383198781274e+00 -2.7933564781098539e+02 1.0000000000000000e+00 1.6045937779700958e+00 7.0178197488200293e+00 1.9936180070802589e+01 
81 1 2 1.0277383198781274e+00 -3.4975946447837555e+02 1.0000000000000000e+00 1.6045937779700958e+00 7.0178197488200293e+00 1.9936180070802589e+01 
56 1 2 1.0277383198781274e+00 -2.9052305862833549e+02 1.0000000000000000e+00 1.6045937779700958e+00 7.0178197488200293e+00 1.9936180070802589e+01 
76 1 2 1.0277383198781274e+00 -3.3053166013061292e+02 1.0000000000000000e+00 1.6045937779700958e+00 7.0178197488200293e+00 1.9936180070802589e+01 
30 1 2 1.0277383198781274e+00 -9.5025218914641314e+01 1.0000000000000000e+00 1.6045937779700958e+00 7.0178197488200293e+00 1.9936180070802589e+01 
9 1 2 1.0154972261737549e+00 -9.2940654324836132e+01 1.0000000000000000e+00 1.3078410791771471e+00 1.1380368836549438e+01 2.8411317326357435e+00 
64 1 2 1.0154972261737549e+00 -3.2715503846915090e+02 1.0000000000000000e+00 1.3078410791771471e+00 1.1380368836549438e+01 2.8411317326357435e+00 
44 1 2 1.0154972261737549e+00 -1.4087145765783211e+02 1.0000000000000000e+00 1.3078410791771471e+00 1.1380368836549438e+01 2.8411317326357435e+00 
39 1 2 1.0154972261737549e+00 -1.3025326523821079e+02 1.0000000000000000e+00 1.3078410791771471e+00 1.1380368836549438e+01 2.8411317326357435e+00 
68 1 2 1.0154972261737549e+00 -3.4962558577382640e+02 1.0000000000000000e+00 1.3078410791771471e+00 1.1380368836549438e+01 2.8411317326357435e+00 
14 1 2 1.0154972261737549e+00 -1.6320100992579452e+02 1.0000000000000000e+00 1.3078410791771471e+00 1.1380368836549438e+01 2.8411317326357435e+00 
63 1 2 1.0154972261737549e+00 -3.6868084112677570e+02 1.0000000000000000e+00 1.3078410791771471e+00 1.1380368836549438e+01 2.8411317326357435e+00 
83 1 2 1.0154972261737549e+00 -2.4072306687840597e+02 1.0000000000000000e+00 7.7380801859284700e+00 8.7383479162212883e+00 7.9226905502514846e+00 
78 1 2 1.0154972261737549e+00 -2.4878006925901485e+02 1.0000000000000000e+00 7.7380801859284531e+00 8.7383479162206665e+00 7.9226905502515121e+00 
59 1 2 1.0154972261737549e+00 -3.1199420616853820e+02 1.0000000000000000e+00 7.7380801859285109e+00 8.7383479162207927e+00 7.9226905502512359e+00 
58 1 2 1.0154972261737549e+00 -3.0389031279811451e+02 1.0000000000000000e+00 7.7380801859284700e+00 8.7383479162212883e+00 7.9226905502514846e+00 
54 1 2 1.0154972261737549e+00 -2.4007394873549140e+02 1.0000000000000000e+00 7.7380801859285109e+00 8.7383479162207927e+00 7.9226905502512359e+00 
79 1 2 1.0154972261737549e+00 -2.8916436048345003e+02 1.0000000000000000e+00 7.7380801859285109e+00 8.7383479162207927e+00 7.9226905502512359e+00 
84 1 2 1.0154972261737549e+00 -2.5424143262244311e+02 1.0000000000000000e+00 7.7380801859284700e+00 8.7383479162212883e+00 7.9226905502514846e+00 
20 1 2 1.0280995568995588e+00 -2.5783798065415164e+02 1.0000000000000000e+00 1.3250606972792497e+01 4.6620521625316442e+00 1.3235404889320522e+01 
57 1 2 1.0280995568995595e+00 -2.8900886941480906e+02 1.0000000000000000e+00 1.3250606972792500e+01 4.6620521625316256e+00 1.3235404889320515e+01 
100 1 2 1.0280995568995592e+00 -2.0175710928778662e+02 1.0000000000000000e+00 1.3250606972792502e+01 4.6620521625316256e+00 1.3235404889320513e+01 
25 1 2 1.0280995568995590e+00 -2.5783798066545859e+02 1.0000000000000000e+00 1.3250606972792497e+01 4.6620521625316291e+00 1.3235404889320517e+01 
93 1 2 1.0280995568995608e+00 -1.8318615358918188e+02 1.0000000000000000e+00 1.3250606972792507e+01 4.6620521625316371e+00 1.3235404889320520e+01 
33 1 2 1.0280995568995590e+00 -1.9941656497932652e+02 1.0000000000000000e+00 1.3250606972792504e+01 4.6620521625316407e+00 1.3235404889320517e+01 
98 1 2 1.0274875047007750e+00 -2.3609781602294035e+02 1.0000000000000000e+00 1.2866588816801306e+01 3.6878177622593400e+00 1.6055293622933053e+01 
97 1 2 1.0274875047007750e+00 -2.4228495611619209e+02 1.0000000000000000e+00 1.2866588816801299e+01 3.6878177622593391e+00 1.6055293622933046e+01 
51 1 2 1.0274875047007739e+00 -2.4508781360274460e+02 1.0000000000000000e+00 1.2866588816801285e+01 3.6878177622592689e+00 1.6055293622933014e+01 
10 1 2 1.0274875047007730e+00 -1.4532381100130951e+02 1.0000000000000000e+00 1.2866588816801283e+01 3.6878177622592734e+00 1.6055293622933018e+01 
94 1 2 1.0274875047007734e+00 -2.7594647857900839e+02 1.0000000000000000e+00 1.2866588816801285e+01 3.6878177622592707e+00 1.6055293622933018e+01 
2 1 2 1.0274875047007748e+00 -2.1047016667601594e+02 1.0000000000000000e+00 1.2866588816801290e+01 3.6878177622592627e+00 1.6055293622933014e+01 
42 1 2 1.0267108774205143e+00 -1.7733119692679730e+02 1.0000000000000000e+00 1.3229449506111132e+01 6.5889951773300135e+00 1.8779307380632080e+01 
22 1 2 1.0267108774208904e+00 -3.0856109515934656e+02 1.0000000000000000e+00 1.3229449506117934e+01 6.5889951773270328e+00 1.8779307380644877e+01 
18 1 2 1.0267108774212106e+00 -3.0489724897543391e+02 1.0000000000000000e+00 1.3229449506122675e+01 6.5889951773286999e+00 1.8779307380651915e+01 
43 1 2 1.0267108774208904e+00 -1.9072389925181125e+02 1.0000000000000000e+00 1.3229449506117934e+01 6.5889951773270328e+00 1.8779307380644877e+01 
16 1 2 1.0267108774191926e+00 -1.0877247677310474e+02 1.0000000000000000e+00 1.3229449506086274e+01 6.5889951773448985e+00 1.8779307380581404e+01 
17 1 2 1.0267108774203946e+00 -2.3792561775482608e+02 1.0000000000000000e+00 1.3229449506109216e+01 6.5889951773300091e+00 1.8779307380629039e+01 
23 1 2 1.0267108774205143e+00 -3.2744131506839494e+02 1.0000000000000000e+00 1.3229449506111132e+01 6.5889951773300135e+00 1.8779307380632080e+01 
53 1 2 1.0844726745892703e+00 -2.9340911185099185e+02 1.0000000000000000e+00 1.0844151293741460e+01 1.3933946843026018e+01 1.2099601340616745e+01 
12 1 2 1.0844726745892705e+00 -2.2259206496731605e+02 1.0000000000000000e+00 1.0844151293741460e+01 1.3933946843026018e+01 1.2099601340616747e+01 
37 1 2 1.0844726745893560e+00 -1.8856264830281242e+02 1.0000000000000000e+00 1.0844151293741303e+01 1.3933946843026060e+01 1.2099601340617243e+01 
95 1 2 1.0844726745892619e+00 -3.2550007861369193e+02 1.0000000000000000e+00 1.0844151293741188e+01 1.3933946843026078e+01 1.2099601340616754e+01 
7 1 2 1.0844726745893090e+00 -2.0980070608613653e+02 1.0000000000000000e+00 1.0844151293741380e+01 1.3933946843026094e+01 1.2099601340616980e+01 
75 1 2 1.0844726745893560e+00 -1.9516168573423244e+02 1.0000000000000000e+00 1.0844151293741303e+01 1.3933946843026060e+01 1.2099601340617243e+01 
69 1 2 1.0844726745893354e+00 -2.7846963317463928e+02 1.0000000000000000e+00 1.0844151293741165e+01 1.3933946843026114e+01 1.2099601340617163e+01 
41 1 2 1.0844726745893312e+00 -1.7515900654555838e+02 1.0000000000000000e+00 1.1303485642961032e+01 1.3522216565543010e+01 1.4829332567425057e+01 
34 1 2 1.0844726745892823e+00 -4.7764836435012398e+01 1.0000000000000000e+00 1.1303485642961043e+01 1.3522216565543106e+01 1.4829332567425334e+01 
88 1 2 1.0844726745893312e+00 -2.5902813837061274e+02 1.0000000000000000e+00 1.1303485642961032e+01 1.3522216565543010e+01 1.4829332567425057e+01 
92 1 2 1.0844726745893039e+00 -3.0755398670179943e+02 1.0000000000000000e+00 1.1303485642961023e+01 1.3522216565543022e+01 1.4829332567425208e+01 
28 1 2 1.0844726745893516e+00 -3.0603710533137701e+02 1.0000000000000000e+00 1.1303485642961041e+01 1.3522216565543044e+01 1.4829332567424949e+01 
36 1 2 1.0844726745892770e+00 -1.7186230996153733e+02 1.0000000000000000e+00 1.1303485642961023e+01 1.3522216565542987e+01 1.4829332567425348e+01 
27 1 2 1.0844726745892823e+00 -2.7939273769749673e+02 1.0000000000000000e+00 1.1303485642961043e+01 1.3522216565543106e+01 1.4829332567425334e+01 
73 1 2 1.0285953925244278e+00 -2.2334715501823916e+02 1.0000000000000000e+00 1.4887763870519708e+01 4.0681512848517789e+00 1.4855336590579517e+01 
72 1 2 1.0285953925244233e+00 -2.2809159721280287e+02 1.0000000000000000e+00 1.4887763870519720e+01 4.0681512848517816e+00 1.4855336590579501e+01 
24 1 2 1.0285953925244249e+00 -2.2054903296635422e+02 1.0000000000000000e+00 1.4887763870519732e+01 4.0681512848519175e+00 1.4855336590579432e+01 
19 1 2 1.0285953925244267e+00 -2.1759601396240748e+02 1.0000000000000000e+00 1.4887763870519731e+01 4.0681512848519672e+00 1.4855336590579435e+01 
48 1 2 1.0285953925244207e+00 -2.6220283572333841e+02 1.0000000000000000e+00 1.4887763870519725e+01 4.0681512848517807e+00 1.4855336590579510e+01 
3 1 2 1.0267108774149190e+00 -2.1649386792092693e+02 1.0000000000000000e+00 1.6324821097477592e+01 7.6568898253512705e+00 1.9081968798087512e+01 
52 1 2 1.0267108774149192e+00 -3.6266169066915262e+02 1.0000000000000000e+00 1.6324821097477589e+01 7.6568898253512714e+00 1.9081968798087512e+01 
71 1 2 1.0267108774149192e+00 -3.1164064822498568e+02 1.0000000000000000e+00 1.6324821097477585e+01 7.6568898253512838e+00 1.9081968798087512e+01 
66 1 2 1.0267108774149192e+00 -2.8434227870358296e+02 1.0000000000000000e+00 1.6324821097477585e+01 7.6568898253512838e+00 1.9081968798087512e+01 
91 1 2 1.0267108774149190e+00 -2.8476946741633031e+02 1.0000000000000000e+00 1.6324821097477592e+01 7.6568898253512705e+00 1.9081968798087512e+01 
96 1 2 1.0267108774149192e+00 -2.5922910482329911e+02 1.0000000000000000e+00 1.6324821097477585e+01 7.6568898253512838e+00 1.9081968798087512e+01 
67 1 2 1.0267108774149192e+00 -2.2208190907160900e+02 1.0000000000000000e+00 1.6324821097477585e+01 7.6568898253512838e+00 1.9081968798087512e+01 
26 1 2 1.0154972261737549e+00 -2.9501748153761707e+02 1.0000000000000000e+00 1.4556584608917047e+01 1.3427223377913377e+01 1.7519212836195376e+01 
65 1 2 1.0154972261737549e+00 -2.8997967795258188e+02 1.0000000000000000e+00 1.4556584608917047e+01 1.3427223377913377e+01 1.7519212836195376e+01 
31 1 2 1.0154972261737549e+00 -2.3491389184963782e+02 1.0000000000000000e+00 1.4556584608917047e+01 1.3427223377913377e+01 1.7519212836195376e+01 
60 1 2 1.0154972261737549e+00 -2.6302114953561806e+02 1.0000000000000000e+00 1.4556584608917047e+01 1.3427223377913377e+01 1.7519212836195376e+01 
90 1 2 1.0154972261737549e+00 -2.4835320279397564e+02 1.0000000000000000e+00 1.4556584608917047e+01 1.3427223377913377e+01 1.7519212836195376e+01 
38 1 2 1.0154972261737549e+00 -2.1421169216716549e+02 1.0000000000000000e+00 1.4556584608917047e+01 1.3427223377913377e+01 1.7519212836195376e+01 
89 1 2 1.0154972261737549e+00 -2.8796025883813718e+02 1.0000000000000000e+00 1.4556584608917047e+01 1.3427223377913377e+01 1.7519212836195376e+01 
80 1 2 1.0154972261737549e+00 -1.2978608279085540e+02 1.0000000000000000e+00 1.5800521296286053e+01 1.9821264477552941e+01 1.6740943310686873e+01 
15 1 2 1.0154972261737549e+00 -1.4783712730082902e+02 1.0000000000000000e+00 1.5800521296286062e+01 1.9821264477552536e+01 1.6740943310686873e+01 
8 1 2 1.0154972261737549e+00 -7.3629571678783037e+01 1.0000000000000000e+00 1.5800521296286066e+01 1.9821264477552941e+01 1.6740943310686522e+01 
46 1 2 1.0154972261737549e+00 -2.6546735645530327e+02 1.0000000000000000e+00 1.5800521296285920e+01 1.9821264477552546e+01 1.6740943310686479e+01 
47 1 2 1.0154972261737549e+00 -1.8849009884758544e+02 1.0000000000000000e+00 1.5800521296285920e+01 1.9821264477552546e+01 1.6740943310686479e+01 
1 1 2 1.0154972261737549e+00 -1.2961575973959435e+02 1.0000000000000000e+00 1.5800521296286053e+01 1.9821264477552429e+01 1.6740943310686525e+01 
21 1 2 1.0154972261737549e+00 -2.3421889877878618e+02 1.0000000000000000e+00 1.5800521296285920e+01 1.9821264477552546e+01 1.6740943310686479e+01 

Velocities

70 2.0962228866093066e-01 8.6424461292072853e-03 -2.6080674548610761e-01
6 2.0962228866093066e-01 8.6424461292072853e-03 -2.6080674548610761e-01
11 2.0962228866093066e-01 8.6424461292072853e-03 -2.6080674548610761e-01
99 2.2272042748395715e-01 3.3429916593192555e-02 -2.6423304175220158e-01
13 2.2272042748395768e-01 3.3429916593192603e-02 -2.6423304175220125e-01
50 2.2272042748395779e-01 3.3429916593191521e-02 -2.6423304175220719e-01
29 2.2272042748395768e-01 3.3429916593191722e-02 -2.6423304175220713e-01
74 2.2272042748395765e-01 3.3429916593191993e-02 -2.6423304175220569e-01
45 2.2272042748395771e-01 3.3429916593192797e-02 -2.6423304175220014e-01
62 2.0094159124076830e-01 -1.4070805018205618e-02 -2.4293035961575127e-01
49 2.0094159124077082e-01 -1.4070805018206924e-02 -2.4293035961574858e-01
61 2.0094159124077116e-01 -1.4070805018206704e-02 -2.4293035961574869e-01
35 2.0094159124076733e-01 -1.4070805018206650e-02 -2.4293035961575365e-01
32 2.0094159124077057e-01 -1.4070805018208857e-02 -2.4293035961574766e-01
86 2.0094159124076752e-01 -1.4070805018209127e-02 -2.4293035961575374e-01
4 2.3006782705733869e-01 2.0386845196857458e-02 -2.6361253729972034e-01
85 2.3006782705733680e-01 2.0386845196855470e-02 -2.6361253729972339e-01
55 2.3006782705733544e-01 2.0386845196858145e-02 -2.6361253729972206e-01
87 2.3006782705733983e-01 2.0386845196854519e-02 -2.6361253729972234e-01
5 2.3006782705733791e-01 2.0386845196857874e-02 -2.6361253729972162e-01
77 2.3898794302420986e-01 3.3897397466568717e-02 -3.3237340872971455e-01
40 2.3898794302420986e-01 3.3897397466568717e-02 -3.3237340872971455e-01
82 2.3898794302420986e-01 3.3897397466568717e-02 -3.3237340872971455e-01
81 2.3898794302420986e-01 3.3897397466568717e-02 -3.3237340872971455e-01
56 2.3898794302420986e-01 3.3897397466568717e-02 -3.3237340872971455e-01
76 2.3898794302420986e-01 3.3897397466568717e-02 -3.3237340872971455e-01
30 2.3898794302420986e-01 3.3897397466568717e-02 -3.3237340872971455e-01
9 -5.1404024634171996e-01 8.2490865192388782e-02 2.2890475343291591e-01
64 -5.1404024634171996e-01 8.2490865192388782e-02 2.2890475343291591e-01
44 -5.1404024634171996e-01 8.2490865192388782e-02 2.2890475343291591e-01
39 -5.1404024634171996e-01 8.2490865192388782e-02 2.2890475343291591e-01
68 -5.1404024634171996e-01 8.2490865192388782e-02 2.2890475343291591e-01
14 -5.1404024634171996e-01 8.2490865192388782e-02 2.2890475343291591e-01
63 -5.1404024634171996e-01 8.2490865192388782e-02 2.2890475343291591e-01
83 -5.3627605510792369e-02 4.1668793150731553e-01 2.6961853316633067e-01
78 -5.3627605510792417e-02 4.1668793150732020e-01 2.6961853316634055e-01
59 -5.3627605510794367e-02 4.1668793150732653e-01 2.6961853316633455e-01
58 -5.3627605510792369e-02 4.1668793150731553e-01 2.6961853316633067e-01
54 -5.3627605510794367e-02 4.1668793150732653e-01 2.6961853316633455e-01
79 -5.3627605510794367e-02 4.1668793150732653e-01 2.6961853316633455e-01
84 -5.3627605510792369e-02 4.1668793150731553e-01 2.6961853316633067e-01
20 -2.1037624986583628e-01 -1.6155919507396668e-01 9.1046221284100254e-02
57 -2.1037624986584061e-01 -1.6155919507395941e-01 9.1046221284099671e-02
100 -2.1037624986584569e-01 -1.6155919507395752e-01 9.1046221284091525e-02
25 -2.1037624986583750e-01 -1.6155919507396177e-01 9.1046221284100379e-02
93 -2.1037624986582507e-01 -1.6155919507397309e-01 9.1046221284121515e-02
33 -2.1037624986583070e-01 -1.6155919507396932e-01 9.1046221284110843e-02
98 -1.9779541702997097e-01 -1.4182569499752892e-01 2.3930920192438726e-02
97 -1.9779541702996734e-01 -1.4182569499752767e-01 2.3930920192438428e-02
51 -1.9779541702997200e-01 -1.4182569499751096e-01 2.3930920192470673e-02
10 -1.9779541702997810e-01 -1.4182569499751485e-01 2.3930920192476085e-02
94 -1.9779541702997247e-01 -1.4182569499751149e-01 2.3930920192471245e-02
2 -1.9779541702997575e-01 -1.4182569499751027e-01 2.3930920192473761e-02
42 -1.4011683255249102e-02 -9.6494714872005408e-02 3.7087939491139817e-02
22 -1.4011683257025826e-02 -9.6494714873913062e-02 3.7087939492500541e-02
18 -1.4011683258646381e-02 -9.6494714874980000e-02 3.7087939492967611e-02
43 -1.4011683257025826e-02 -9.6494714873913062e-02 3.7087939492500541e-02
16 -1.4011683249396022e-02 -9.6494714864800990e-02 3.7087939485521998e-02
17 -1.4011683254641725e-02 -9.6494714871508569e-02 3.7087939490878151e-02
23 -1.4011683255249102e-02 -9.6494714872005408e-02 3.7087939491139817e-02
53 2.1594900331820990e-01 2.0565983660318821e-01 2.8030686667610616e-01
12 2.1594900331820932e-01 2.0565983660318862e-01 2.8030686667610533e-01
37 2.1594900331792877e-01 2.0565983660334494e-01 2.8030686667566185e-01
95 2.1594900331801006e-01 2.0565983660325460e-01 2.8030686667620824e-01
7 2.1594900331807210e-01 2.0565983660332543e-01 2.8030686667573929e-01
75 2.1594900331792877e-01 2.0565983660334494e-01 2.8030686667566185e-01
69 2.1594900331784048e-01 2.0565983660338033e-01 2.8030686667570953e-01
41 -3.4741419474341277e-02 5.0471253226703081e-02 -6.0043049419205345e-02
34 -3.4741419474466878e-02 5.0471253226894809e-02 -6.0043049419298999e-02
88 -3.4741419474341277e-02 5.0471253226703081e-02 -6.0043049419205345e-02
92 -3.4741419474450481e-02 5.0471253226757488e-02 -6.0043049419260211e-02
28 -3.4741419474297056e-02 5.0471253226714426e-02 -6.0043049419155829e-02
36 -3.4741419474502322e-02 5.0471253226733681e-02 -6.0043049419331557e-02
27 -3.4741419474466878e-02 5.0471253226894809e-02 -6.0043049419298999e-02
73 -1.6225283413399622e-01 -1.6013389347734139e-01 6.4032090337530240e-02
72 -1.6225283413402469e-01 -1.6013389347733833e-01 6.4032090337521760e-02
24 -1.6225283413396263e-01 -1.6013389347731763e-01 6.4032090337509492e-02
19 -1.6225283413398275e-01 -1.6013389347730980e-01 6.4032090337507966e-02
48 -1.6225283413408925e-01 -1.6013389347733492e-01 6.4032090337516098e-02
3 6.5325274102327593e-02 -1.6555574991114166e-01 -3.1615251652258390e-02
52 6.5325274102331299e-02 -1.6555574991114022e-01 -3.1615251652259382e-02
71 6.5325274102331035e-02 -1.6555574991113972e-01 -3.1615251652259410e-02
66 6.5325274102331035e-02 -1.6555574991113972e-01 -3.1615251652259410e-02
91 6.5325274102327593e-02 -1.6555574991114166e-01 -3.1615251652258390e-02
96 6.5325274102331035e-02 -1.6555574991113972e-01 -3.1615251652259410e-02
67 6.5325274102331035e-02 -1.6555574991113972e-01 -3.1615251652259410e-02
26 -1.8507848792400780e-01 2.3713862142998157e-01 1.4238995909067190e-01
65 -1.8507848792400780e-01 2.3713862142998157e-01 1.4238995909067190e-01
31 -1.8507848792400780e-01 2.3713862142998157e-01 1.4238995909067190e-01
60 -1.8507848792400780e-01 2.3713862142998157e-01 1.4238995909067190e-01
90 -1.8507848792400780e-01 2.3713862142998157e-01 1.4238995909067190e-01
38 -1.8507848792400780e-01 2.3713862142998157e-01 1.4238995909067190e-01
89 -1.8507848792400780e-01 2.3713862142998157e-01 1.4238995909067190e-01
80 1.3490944865363308e-01 -5.0246266907708337e-01 -4.6294185557899514e-01
15 1.3490944865364285e-01 -5.0246266907710446e-01 -4.6294185557899531e-01
8 1.3490944865363194e-01 -5.0246266907708337e-01 -4.6294185557901452e-01
46 1.3490944865363677e-01 -5.0246266907705750e-01 -4.6294185557896195e-01
47 1.3490944865363677e-01 -5.0246266907705750e-01 -4.6294185557896195e-01
1 1.3490944865363308e-01 -5.0246266907712689e-01 -4.6294185557901446e-01
21 1.3490944865363677e-01 -5.0246266907705750e-01 -4.6294185557896195e-01
