LAMMPS data file via write_data, version 30 Jul 2016, timestep = 50000000

4620 atoms
8 atom types

0.0000000000000000e+00 1.0000000000000000e+02 xlo xhi
0.0000000000000000e+00 4.0000000000000000e+01 ylo yhi
0.0000000000000000e+00 4.0000000000000000e+01 zlo zhi

Masses

1 3.896
2 5.36
3 20.064
4 8.378
5 8.378
6 8.378
7 8.378
8 8.378

Atoms # meso-molecular

2105 2106 2 1.0279999997092846e+00 2.2102856485407847e+03 1.0000000000000000e+00 1.0983191150619829e+00 6.7478362296729977e-01 1.9717522312412463e+00 
422 423 2 1.0279999993771649e+00 -1.3872185224084642e+03 1.0000000000000000e+00 2.7038178763207141e+00 3.0845992520133392e-01 1.2661481089162812e+00 
4079 4080 2 1.0280000003675127e+00 2.2389318422110437e+03 1.0000000000000000e+00 3.8779477780671714e+00 1.2499773755816741e+00 8.8759970419786482e-01 
4615 4616 2 1.0279999949154672e+00 -2.1636690187106769e+03 1.0000000000000000e+00 1.0358841541464452e+00 3.7407849131795827e+00 6.9336869883922581e-01 
4023 4024 2 1.0279999994268789e+00 6.0128981090612740e+02 1.0000000000000000e+00 1.1158042642836198e-01 3.9855289031731025e+00 3.5328135134074368e-01 
2682 2683 2 1.0280000008745731e+00 1.3618988079006353e+03 1.0000000000000000e+00 2.8343839331995611e+00 2.5307535947601147e+00 9.6111926703652950e-01 
3522 3523 2 1.0279999993723881e+00 -3.6253702411943664e+02 1.0000000000000000e+00 4.2931859584349050e+00 2.9524563251782827e+00 1.1609929164188726e+00 
4161 4162 2 1.0279999993354252e+00 -2.4111046261551992e+03 1.0000000000000000e+00 6.1353248461140026e+00 2.1884804056918052e+00 1.9543952198456773e+00 
2430 2431 2 1.0280000039551525e+00 1.3322920531551936e+03 1.0000000000000000e+00 7.4600742905379069e-01 4.2884081380594496e+00 1.9615490243065150e+00 
4127 4128 2 1.0280000014715933e+00 -1.5454724345768119e+02 1.0000000000000000e+00 6.3555166222207793e-01 6.7053921837756896e+00 1.0741631263058877e+00 
3662 3663 2 1.0280000022453566e+00 2.5020741810941790e+03 1.0000000000000000e+00 1.6319345305771404e+00 7.2939343388787989e+00 5.2487677400561739e-01 
4540 4541 2 1.0279999997169733e+00 -9.9645316283901798e+02 1.0000000000000000e+00 3.0696484607841206e+00 6.2851265765079178e+00 7.8355871303864477e-01 
3116 3117 2 1.0279999990972730e+00 -3.2286934566187201e+03 1.0000000000000000e+00 3.5734661367084786e+00 6.1321614229743284e+00 1.4313861186646464e+00 
2484 2485 2 1.0279999996517315e+00 1.9317795615049858e+03 1.0000000000000000e+00 2.3396571635373640e+00 7.9423571428024280e+00 1.3520454358873799e+00 
2444 2445 2 1.0279999972204636e+00 1.4511755171034079e+03 1.0000000000000000e+00 3.9899035949329703e-01 9.7134947935049905e+00 1.0264892840562287e+00 
3084 3085 2 1.0280000042982878e+00 -1.5430054911472284e+03 1.0000000000000000e+00 1.3924895500903094e+00 1.0941642724922406e+01 1.6235969990702894e+00 
3663 3664 2 1.0280000002172629e+00 1.9289902982981275e+03 1.0000000000000000e+00 3.0154449490647103e+01 1.6650179791828887e+01 1.6102106177586542e+00 
4541 4542 2 1.0280000006696928e+00 1.5798937482568704e+03 1.0000000000000000e+00 3.0687590890383710e+01 1.6459040737496906e+01 1.8651342453264947e+00 
1950 1951 2 1.0280000004710241e+00 9.0514759797037971e+02 1.0000000000000000e+00 3.1510252314954286e+01 1.7659871720991241e+01 6.6509274126057760e-01 
607 608 2 1.0279999985246722e+00 -1.1503274241788495e+03 1.0000000000000000e+00 3.1141296002159226e+01 1.8251950338703917e+01 1.0021263046803501e+00 
2138 2139 2 1.0280000001124585e+00 2.2121187597379612e+03 1.0000000000000000e+00 5.4904820519873099e-01 5.9301298492811361e-01 2.8232159250541109e+00 
2567 2568 2 1.0279999992445208e+00 2.2112199760073840e+03 1.0000000000000000e+00 2.6004540280129151e+00 1.6303315478500515e+00 2.3562147889769904e+00 
4582 4583 2 1.0280000009288210e+00 -1.2670473219554653e+01 1.0000000000000000e+00 4.7441034720471755e+00 1.3445627433590268e-01 3.1019321788792951e+00 
2566 2567 2 1.0279999990993258e+00 -1.9199006080883250e+03 1.0000000000000000e+00 4.4337443298220700e+00 1.9271215321168522e+00 2.4972201655696979e+00 
2696 2697 2 1.0280000009878105e+00 -1.1002883792309417e+03 1.0000000000000000e+00 5.9111258552421528e+00 1.0200642409663594e+00 2.3380766842372460e+00 
3571 3572 2 1.0280000002047267e+00 9.7749812847664543e+02 1.0000000000000000e+00 9.9429503362078666e+00 1.8597757194475617e+00 2.1553781103989529e+00 
2600 2601 2 1.0280000040578201e+00 2.2154152608551394e+03 1.0000000000000000e+00 9.2077291243401460e-01 2.5481932384326509e+00 3.5243257812667204e+00 
2261 2262 2 1.0279999970415674e+00 -1.1067144026687429e+03 1.0000000000000000e+00 2.0795680768193265e+00 3.0019605586089688e+00 2.2813980051692968e+00 
4580 4581 2 1.0279999994397844e+00 -1.3783586921367346e+03 1.0000000000000000e+00 5.9707964740112045e+00 2.0051618183378053e+00 3.6386667512574582e+00 
459 460 2 1.0280000025278009e+00 -1.0394293844671348e+02 1.0000000000000000e+00 5.8729899628847617e+00 3.0628627200098348e+00 3.2566958712306544e+00 
845 846 2 1.0279999999283354e+00 2.2569059158845334e+03 1.0000000000000000e+00 9.3093351742433743e+00 2.3196038321601158e+00 3.0829295412974473e+00 
2774 2775 2 1.0279999998701239e+00 1.0646988800824884e+03 1.0000000000000000e+00 1.0813020721935731e+01 2.5405348990893888e+00 2.9203440310597086e+00 
4036 4037 2 1.0279999994467119e+00 -2.4367998946733331e+02 1.0000000000000000e+00 9.9971297436241784e+00 3.5201572254562778e+00 2.3937587072216249e+00 
4195 4196 2 1.0279999958256716e+00 -2.1530734188054603e+03 1.0000000000000000e+00 1.1274234158283296e+00 4.2399318304921820e+00 3.4975199662346430e+00 
3191 3192 2 1.0279999991850959e+00 3.1172871627266832e+03 1.0000000000000000e+00 3.3753153929996809e+00 4.4649104630373131e+00 2.0118768103823870e+00 
3181 3182 2 1.0280000001077441e+00 -3.8891103227696374e+02 1.0000000000000000e+00 3.4712198438697097e+00 4.6546347449774004e+00 2.9028772663084479e+00 
4000 4001 2 1.0280000011067476e+00 5.5339087408512046e+02 1.0000000000000000e+00 2.2357305881732685e+00 5.5015743574813962e+00 3.5524063783977122e+00 
3412 3413 2 1.0279999990443047e+00 1.2227583279308899e+03 1.0000000000000000e+00 4.8538081330396157e+00 5.6807182567333570e+00 3.8762792841208258e+00 
3608 3609 2 1.0279999999441047e+00 -9.4546418464462363e+02 1.0000000000000000e+00 7.0488003728840534e+00 4.3656092769096198e+00 2.3161538920880811e+00 
3817 3818 2 1.0280000006720034e+00 -8.2345096759144849e+02 1.0000000000000000e+00 6.7287249133969382e+00 4.6604845166608690e+00 3.2114034456037066e+00 
4534 4535 2 1.0279999984745689e+00 -1.1847463918313606e+03 1.0000000000000000e+00 8.7754602787510532e+00 4.3128195610669433e+00 2.9758541034328423e+00 
4497 4498 2 1.0280000006278580e+00 -1.1418596312607342e+03 1.0000000000000000e+00 8.2345439049821927e+00 5.2049933473774592e+00 2.9869016487125428e+00 
2868 2869 2 1.0279999991206148e+00 -1.6769294454690935e+03 1.0000000000000000e+00 1.4901702757373623e+00 6.0253969935587683e+00 2.4388857958581012e+00 
3242 3243 2 1.0279999987864707e+00 2.5088811938143053e+03 1.0000000000000000e+00 2.3436226915774196e+00 7.2822241719014231e+00 2.6219084637227703e+00 
2655 2656 2 1.0280000003768242e+00 -8.4999735742917949e+01 1.0000000000000000e+00 4.9151725840778795e+00 6.5778521424082523e+00 3.1439773594456577e+00 
3150 3151 2 1.0280000004344561e+00 -1.4766367311990830e+03 1.0000000000000000e+00 7.8125145292573839e-01 8.2060009688509297e+00 3.4692023910150223e+00 
4586 4587 2 1.0279999969646167e+00 -1.4522183387136538e+03 1.0000000000000000e+00 1.7275322154912780e+00 9.7912186451908259e+00 2.1132816340533425e+00 
3539 3540 2 1.0280000019795097e+00 -6.6039359998961709e+02 1.0000000000000000e+00 2.6045286438091186e+00 8.9750108153008181e+00 2.9820753173037260e+00 
3198 3199 2 1.0279999994281301e+00 -2.9979234302023151e+03 1.0000000000000000e+00 4.0178349722478313e+00 9.1759610562882692e+00 3.4099041674728956e+00 
3085 3086 2 1.0280000003174912e+00 -1.7092264775441668e+03 1.0000000000000000e+00 1.8343258345827176e+00 1.1609303415224892e+01 2.6695604412551077e+00 
2612 2613 2 1.0279999987591353e+00 1.4251200107755237e+03 1.0000000000000000e+00 3.4668147422267643e+00 1.0369562664884992e+01 3.4067372403070268e+00 
810 811 2 1.0280000002055576e+00 2.8655776410805747e+03 1.0000000000000000e+00 3.5706239990908357e+00 1.1703657022086462e+01 2.9188288072402009e+00 
1699 1700 2 1.0280000021682911e+00 -1.7091222796390030e+03 1.0000000000000000e+00 3.4089980234572716e-03 1.3389099336069071e+01 2.0789942045534850e+00 
2152 2153 2 1.0280000000822214e+00 -4.0683956867765812e+02 1.0000000000000000e+00 2.7712678433566258e+00 1.2299242563746079e+01 3.3651286811499483e+00 
428 429 2 1.0280000039382486e+00 -1.4545053932298902e+03 1.0000000000000000e+00 8.9129792579982470e-01 1.4572179202673201e+01 2.9343310570232544e+00 
1229 1230 2 1.0279999981616195e+00 -6.2465439586610603e+02 1.0000000000000000e+00 1.0782656935145225e+00 1.4989503523992752e+01 3.5231697914971880e+00 
1961 1962 2 1.0279999990384099e+00 -5.8784923289913650e+01 1.0000000000000000e+00 2.9225389371952875e+01 1.9868347160341688e+01 2.6433218419081723e+00 
4257 4258 2 1.0280000018881847e+00 1.6576011084814195e+02 1.0000000000000000e+00 2.9863159066614511e+01 1.9330922307762822e+01 2.3148605986920323e+00 
2104 2105 2 1.0279999998116813e+00 -1.9230658200222415e+03 1.0000000000000000e+00 1.2943662802876013e+00 5.5767838511593382e-01 5.8543936459008510e+00 
2308 2309 2 1.0279999950954624e+00 -2.8372691859944075e+02 1.0000000000000000e+00 3.3252688651416146e-01 1.6207926132491530e+00 5.2414206778430019e+00 
40 41 2 1.0280000007799752e+00 -2.4650897438446627e+03 1.0000000000000000e+00 2.7844728441954483e+00 6.8748393683520548e-01 5.7080657255726273e+00 
2271 2272 2 1.0280000014993205e+00 -2.8434055981156064e+02 1.0000000000000000e+00 3.8515805668593708e+00 1.5848752367526640e+00 4.2512575561116277e+00 
2608 2609 2 1.0279999973130007e+00 -1.2031875531104562e+02 1.0000000000000000e+00 1.2642297665373686e+01 1.9688927955865194e+00 4.2500313974901935e+00 
634 635 2 1.0279999997924094e+00 5.6053478004420604e+01 1.0000000000000000e+00 1.3467901132201266e+01 8.7325748788950525e-02 4.0958811684092691e+00 
636 637 2 1.0279999993116729e+00 2.7772592038413786e+03 1.0000000000000000e+00 1.3052310995071942e+01 6.6497700412642734e-03 4.7152077090158020e+00 
223 224 2 1.0280000002601508e+00 4.9193392663514487e+03 1.0000000000000000e+00 1.5545604688207696e+01 1.0500794748018558e+00 5.1446971667165995e+00 
2770 2771 2 1.0280000009222139e+00 -2.8523163490618163e+02 1.0000000000000000e+00 7.9981052066834213e-01 3.1348448842140209e+00 5.2772392736529232e+00 
2601 2602 2 1.0279999985054360e+00 -1.9262742612852444e+03 1.0000000000000000e+00 1.9661084694968354e+00 3.0653540842845537e+00 4.3159774195279503e+00 
1925 1926 2 1.0280000011704939e+00 -1.1008041256686652e+03 1.0000000000000000e+00 2.3354873381923453e+00 3.9983666517179040e+00 5.7534734821290128e+00 
2733 2734 2 1.0280000002566774e+00 -2.8364412912137186e+02 1.0000000000000000e+00 3.9673016511099273e+00 2.1437912811544817e+00 4.8623827594238360e+00 
2234 2235 2 1.0280000001322378e+00 -1.1022297082347800e+03 1.0000000000000000e+00 1.1986423977355317e+01 3.3059352096419792e+00 4.6020722060289305e+00 
424 425 2 1.0279999990798945e+00 -6.0408502613767299e+00 1.0000000000000000e+00 1.1552519698100987e+01 3.8291839310072397e+00 5.9570764519671915e+00 
3658 3659 2 1.0280000015150237e+00 9.9947460433428614e+02 1.0000000000000000e+00 1.3194032438417773e+01 2.7351493822978146e+00 4.3273809223760757e+00 
3496 3497 2 1.0279999989702813e+00 1.2056335714883303e+03 1.0000000000000000e+00 4.6742796500161221e+00 5.7090941854923987e+00 5.6041407074744463e+00 
3812 3813 2 1.0279999995453621e+00 2.2389228321076735e+03 1.0000000000000000e+00 5.7675710990029803e+00 4.6957031492768309e+00 5.4135316924425796e+00 
4577 4578 2 1.0280000007250085e+00 -4.7681932108860246e+02 1.0000000000000000e+00 1.0660319602371613e+01 4.5736545049250266e+00 5.8519780408973681e+00 
4077 4078 2 1.0280000003921048e+00 1.0797633714020137e+03 1.0000000000000000e+00 1.1740077926921975e+01 5.1797888859087085e+00 4.2725507591267524e+00 
3612 3613 2 1.0279999995070894e+00 9.6657867036990831e+02 1.0000000000000000e+00 1.2768190801820805e+00 6.6300977897159363e+00 4.0934743374091482e+00 
3988 3989 2 1.0279999993873932e+00 1.3404321096041654e+03 1.0000000000000000e+00 4.6945350598535568e-01 6.0468592594701853e+00 5.1393088123554005e+00 
4242 4243 2 1.0280000001029412e+00 -1.5663738557877905e+03 1.0000000000000000e+00 2.7814047914752735e+00 6.8782169966090008e+00 5.6607357164255641e+00 
4504 4505 2 1.0279999995337288e+00 -1.5555239976827274e+03 1.0000000000000000e+00 5.1551964585279917e+00 7.2240804467651092e+00 4.0976377249631968e+00 
3534 3535 2 1.0279999998540821e+00 1.0675276795836057e+03 1.0000000000000000e+00 1.2343948583911629e+01 6.2863665738573964e+00 4.1632435940450092e+00 
4583 4584 2 1.0280000000300518e+00 -2.5449726727636553e+03 1.0000000000000000e+00 1.1386840092256428e+01 6.3755279596852530e+00 4.5556151268818832e+00 
3066 3067 2 1.0280000009933716e+00 -2.7228355403020869e+03 1.0000000000000000e+00 7.8727563745068851e-01 9.6636618019947100e+00 5.3117675245446421e+00 
4252 4253 2 1.0279999995962663e+00 -1.5913018565482571e+03 1.0000000000000000e+00 3.0272318392937128e+00 8.2661771341579957e+00 5.3807235181779074e+00 
3033 3034 2 1.0279999993037614e+00 -6.9471808242530710e+02 1.0000000000000000e+00 4.3209624462525289e+00 8.4824506785708298e+00 4.8637889570666530e+00 
2233 2234 2 1.0279999992169002e+00 -1.7119714853101500e+03 1.0000000000000000e+00 5.9233935270857510e+00 8.9104821217296433e+00 4.4367918087069294e+00 
2114 2115 2 1.0280000014339477e+00 -3.9498999435979533e+02 1.0000000000000000e+00 5.6134739068932706e+00 9.6982359141631793e+00 4.2098910728260721e+00 
540 541 2 1.0279999996456317e+00 5.8405149239527082e+03 1.0000000000000000e+00 1.3027209646689077e+00 1.0580764629463102e+01 5.5028912729806922e+00 
2614 2615 2 1.0280000002794947e+00 -3.9606872616115902e+02 1.0000000000000000e+00 2.9003116157373463e+00 1.0337883576907487e+01 5.5835639666734549e+00 
1685 1686 2 1.0280000002876790e+00 4.7695871630209814e+02 1.0000000000000000e+00 4.6893682373296528e+00 1.0646871518750386e+01 5.5266702964240206e+00 
4044 4045 2 1.0279999992616862e+00 2.8895282548299638e+03 1.0000000000000000e+00 3.8552624985816872e+00 1.1275874568499423e+01 5.5042616990587030e+00 
3707 3708 2 1.0279999986326216e+00 -7.6112300417630692e+01 1.0000000000000000e+00 2.2200540922969996e+00 1.3305958564811807e+01 5.0657721698782572e+00 
2106 2107 2 1.0280000005874312e+00 1.9283868411753042e+03 1.0000000000000000e+00 2.3248890014249959e+00 1.4459306067572973e+01 4.5629877390834634e+00 
1185 1186 2 1.0280000013184927e+00 8.4637524233498834e+02 1.0000000000000000e+00 3.5904277243143707e+00 1.4943825198155363e+01 5.0078155085390099e+00 
2387 2388 2 1.0279999994214575e+00 -1.1033276621031468e+03 1.0000000000000000e+00 2.7111884864634139e+00 1.0221973693804813e-01 7.0992218378953069e+00 
41 42 2 1.0280000001120024e+00 -1.3939628206455700e+03 1.0000000000000000e+00 3.3342407577301949e+00 8.7779395952864436e-01 7.7603845781013936e+00 
684 685 2 1.0279999997853466e+00 -5.0737461263954501e+03 1.0000000000000000e+00 1.4887902704053966e+01 1.0322667672301717e+00 6.0520208282448618e+00 
220 221 2 1.0279999998400713e+00 4.7035511220689123e+03 1.0000000000000000e+00 1.5880113659043289e+01 4.5125533159404213e-01 6.6522342944208548e+00 
2350 2351 2 1.0280000015168118e+00 -2.8611490803452580e+02 1.0000000000000000e+00 1.0289052865754280e+00 3.6526790297258551e+00 7.5229812796285493e+00 
2517 2518 2 1.0279999979454479e+00 -1.9264778413893059e+03 1.0000000000000000e+00 2.2887629406391001e+00 3.9997318946913123e+00 6.5968535142491005e+00 
4199 4200 2 1.0280000032110084e+00 -1.3931540334840929e+03 1.0000000000000000e+00 4.7231891050021915e+00 3.4706636661042172e+00 6.0362913048699962e+00 
2482 2483 2 1.0279999981475225e+00 -1.9258169167971741e+03 1.0000000000000000e+00 4.9088895879026495e+00 2.3943507923517564e+00 6.3777246146142632e+00 
1851 1852 2 1.0280000016842650e+00 -2.8456198846035500e+02 1.0000000000000000e+00 4.1107879781181254e+00 2.0699667724985775e+00 7.4058279106533709e+00 
3994 3995 2 1.0279999962419912e+00 -1.3965710050658745e+03 1.0000000000000000e+00 7.7538272212573860e+00 2.5496056001929275e+00 6.4099711323523350e+00 
760 761 2 1.0280000031904908e+00 -1.3973455696909164e+03 1.0000000000000000e+00 7.8239296960475340e+00 2.0934188595803844e+00 6.5171344325257179e+00 
2440 2441 2 1.0280000002578198e+00 -1.2357504885061971e+02 1.0000000000000000e+00 1.2811573488946939e+01 3.1685182878029141e+00 6.9008453951714390e+00 
3238 3239 2 1.0280000003462575e+00 1.0010998636796896e+03 1.0000000000000000e+00 1.4199414741305125e+01 3.8255054825163746e+00 6.9578550389710943e+00 
2146 2147 2 1.0279999994288376e+00 -1.2172575787234435e+02 1.0000000000000000e+00 1.5257444141217569e+01 3.0117509029523228e+00 6.6193964829609904e+00 
1348 1349 2 1.0279999999795344e+00 9.9750407899572315e+02 1.0000000000000000e+00 1.6464767027360605e+01 2.1685089755148219e+00 6.9904892300919528e+00 
2475 2476 2 1.0279999990222273e+00 -1.2348392664280878e+02 1.0000000000000000e+00 6.2188863377273855e-02 4.6157328553997710e+00 6.3400725431395575e+00 
4149 4150 2 1.0279999996581624e+00 -1.4344175234383928e+02 1.0000000000000000e+00 5.0671020938583577e+00 4.9565012421150572e+00 6.7197814372395328e+00 
4616 4617 2 1.0279999988185948e+00 -2.6211245227164272e+03 1.0000000000000000e+00 6.6916033824156642e+00 4.3698289035748799e+00 6.7011202356076058e+00 
2845 2846 2 1.0280000021006126e+00 -3.7271548907330720e+02 1.0000000000000000e+00 7.0061493234983212e+00 5.5185171125642638e+00 6.8417077687285142e+00 
4537 4538 2 1.0279999998602993e+00 -1.6015943280657430e+03 1.0000000000000000e+00 8.2186460871976372e+00 5.2208413641068585e+00 6.1751748136186819e+00 
3853 3854 2 1.0280000000971379e+00 -9.1446340231887416e+02 1.0000000000000000e+00 9.0424909882638609e+00 4.6029113430492599e+00 6.5472561312274191e+00 
4457 4458 2 1.0279999997945148e+00 -2.8756167205957104e+02 1.0000000000000000e+00 1.0235466152754945e+01 5.3920193366544051e+00 7.0267951375958573e+00 
4176 4177 2 1.0280000009402492e+00 5.3537796311873253e+03 1.0000000000000000e+00 1.2344220285737491e+01 4.9724442918961822e+00 7.6279508596486352e+00 
4596 4597 2 1.0279999993579718e+00 5.3633691827408520e+03 1.0000000000000000e+00 1.3121517701848605e+01 4.9769454853762163e+00 7.1001806299675003e+00 
3904 3905 2 1.0280000004624845e+00 1.3317848339618563e+03 1.0000000000000000e+00 5.0627321750418297e-01 6.1092471365972223e+00 6.7526720393706947e+00 
3351 3352 2 1.0279999999685399e+00 2.9310222655478276e+02 1.0000000000000000e+00 2.0405467861797097e-01 7.2549335935002039e+00 7.1585748730544898e+00 
3360 3361 2 1.0279999987470323e+00 9.7545299435705783e+02 1.0000000000000000e+00 2.0184462379631261e+00 7.2403914400943012e+00 7.5817903580568133e+00 
4081 4082 2 1.0279999995368307e+00 5.9698110177326034e+03 1.0000000000000000e+00 3.6496687991580821e+00 6.8534557727048480e+00 6.1873161841569564e+00 
3435 3436 2 1.0279999989503008e+00 1.0569398355392157e+03 1.0000000000000000e+00 1.7043236649667424e+00 8.9101128784753758e+00 6.4336190605490868e+00 
2949 2950 2 1.0280000003950918e+00 -6.6311397241172813e+02 1.0000000000000000e+00 2.3602222657518110e+00 9.1489332201085016e+00 7.4591349066489547e+00 
2568 2569 2 1.0280000003095491e+00 1.9257858759266692e+03 1.0000000000000000e+00 3.7313563822319695e+00 9.5312220573510196e+00 6.8799306113711340e+00 
438 439 2 1.0279999997376135e+00 5.4241193283350376e+03 1.0000000000000000e+00 5.8238132086409413e+00 9.4620812580137734e+00 6.5762272051614277e+00 
18 19 2 1.0279999999636480e+00 5.3647582594387031e+03 1.0000000000000000e+00 5.9036993786208241e+00 9.8920241495566348e+00 7.0263587419020057e+00 
2778 2779 2 1.0280000009918024e+00 -3.0066168148794050e+03 1.0000000000000000e+00 1.4730199373542709e+00 1.1435174002143773e+01 7.3052547143417002e+00 
473 474 2 1.0279999986150508e+00 -1.0239330912248818e+02 1.0000000000000000e+00 2.1766447188756639e+00 1.1715750858614706e+01 7.2509542115933661e+00 
3495 3496 2 1.0280000001547478e+00 8.5642210025378995e+02 1.0000000000000000e+00 4.5062634420226617e+00 1.0917857154462705e+01 7.8559355274285414e+00 
3792 3793 2 1.0279999980866539e+00 2.8876095985643369e+03 1.0000000000000000e+00 6.7268233891486506e-01 1.3335469261736975e+01 6.8169255406704563e+00 
558 559 2 1.0279999997577833e+00 2.9263016304753801e+03 1.0000000000000000e+00 1.6594893305110676e+00 1.3814502888777742e+01 6.6752148301144487e+00 
1061 1062 2 1.0279999997186220e+00 -6.2866094465448873e+02 1.0000000000000000e+00 3.1390727700073668e+00 1.3298348549747008e+01 6.0875582771339083e+00 
1101 1102 2 1.0279999993461386e+00 8.0119677472243620e+02 1.0000000000000000e+00 3.1692024182287697e+00 1.4805603252144227e+01 6.6236333519272081e+00 
8 9 2 1.0279999996114315e+00 -1.4857304057070701e+03 1.0000000000000000e+00 4.2414733414562678e+00 1.4748231696264678e+01 6.0762668632902708e+00 
37 38 2 1.0280000005058048e+00 -2.1653657957924361e+03 1.0000000000000000e+00 5.0179009741477962e+00 5.5046146970630017e-01 9.4508192340405515e+00 
423 424 2 1.0280000009407892e+00 -2.4919231362096089e+03 1.0000000000000000e+00 5.5770930152429425e+00 1.7736041617319225e+00 9.4924145769763797e+00 
83 84 2 1.0280000015626540e+00 -4.6778241267911312e+02 1.0000000000000000e+00 8.9886838682236849e+00 1.2146141293996304e+00 9.9542242996572199e+00 
419 420 2 1.0279999986143795e+00 -4.6984311656481646e+02 1.0000000000000000e+00 8.7727932948393583e+00 1.4750488729086759e+00 8.3168902042728963e+00 
376 377 2 1.0280000010287909e+00 -1.1516122388783906e+03 1.0000000000000000e+00 1.0109315305109941e+01 1.4741456984271368e+00 8.4785344031227261e+00 
843 844 2 1.0279999999332530e+00 1.0869902848503780e+03 1.0000000000000000e+00 1.1334074834381132e+01 1.5042343848591966e+00 8.0825324570864385e+00 
768 769 2 1.0279999997640972e+00 -1.0095928506086108e+03 1.0000000000000000e+00 1.2141876416498270e+01 1.2060461361112909e+00 9.2900966322614345e+00 
1224 1225 2 1.0280000003101162e+00 1.0676219018171196e+03 1.0000000000000000e+00 1.2967503214503171e+01 1.5864494330543177e+00 8.1109679241631074e+00 
1888 1889 2 1.0279999996819815e+00 -2.8574810812255953e+02 1.0000000000000000e+00 1.3516480634038328e-01 2.5054572332622511e+00 8.1654484295161271e+00 
2054 2055 2 1.0280000032322545e+00 2.2093749176210590e+03 1.0000000000000000e+00 7.4548902587583332e-01 3.1196141418321557e+00 9.8750197869974627e+00 
2020 2021 2 1.0279999990741628e+00 -1.9224876950876137e+03 1.0000000000000000e+00 2.6301086067533319e+00 2.2631849922532066e+00 8.2589431782904690e+00 
2313 2314 2 1.0279999997943601e+00 -2.8463686040188009e+02 1.0000000000000000e+00 3.2038752575524754e+00 3.2427804067162347e+00 8.4137291780700476e+00 
460 461 2 1.0279999986535044e+00 -2.4752487516629426e+03 1.0000000000000000e+00 3.5962444881950741e+00 2.5318906032921173e+00 9.8338362602553460e+00 
4581 4582 2 1.0280000033081746e+00 -2.4749048810270660e+03 1.0000000000000000e+00 6.3269600088721125e+00 3.2621013433992738e+00 9.8505732538902198e+00 
4241 4242 2 1.0279999980224641e+00 -4.6140633509830758e+02 1.0000000000000000e+00 6.8982834431965294e+00 3.9500810288386505e+00 9.1735836313528303e+00 
592 593 2 1.0279999990039927e+00 -1.3959649157097956e+03 1.0000000000000000e+00 8.2477242578030872e+00 2.6521590704517539e+00 8.5304164783032839e+00 
3826 3827 2 1.0280000014947908e+00 -1.3959332393890950e+03 1.0000000000000000e+00 8.8572434500451518e+00 3.5089192091450268e+00 9.2566318899769158e+00 
4160 4161 2 1.0280000008169818e+00 -1.3867824805956930e+03 1.0000000000000000e+00 1.0340651592274154e+01 3.7648386204440474e+00 8.0654375937500316e+00 
2 3 2 1.0280000000274079e+00 -1.3886278916247475e+03 1.0000000000000000e+00 1.1157594672679041e+01 2.5263186929263277e+00 9.8491554170549982e+00 
1898 1899 2 1.0279999992331703e+00 -1.1003642167540097e+03 1.0000000000000000e+00 1.1241375587722814e+01 3.7018967713272346e+00 8.4504852353540123e+00 
2360 2361 2 1.0280000005260232e+00 -1.0891377924655353e+03 1.0000000000000000e+00 1.3015331791145538e+01 2.7813406881214564e+00 8.2225934567132608e+00 
1978 1979 2 1.0280000001031138e+00 -1.2210971147311383e+02 1.0000000000000000e+00 1.5599634299284164e+01 3.3177740875697257e+00 8.0264277623274918e+00 
928 929 2 1.0280000000791192e+00 9.9724502531249868e+02 1.0000000000000000e+00 1.6300831813441874e+01 2.3640406642469154e+00 8.1694047947003749e+00 
2483 2484 2 1.0279999991691007e+00 2.2096265347083577e+03 1.0000000000000000e+00 1.9803269463339377e+00 4.1125493757498273e+00 9.5722508878119346e+00 
3855 3856 2 1.0279999994311870e+00 5.7877122588923066e+02 1.0000000000000000e+00 6.1584211312334052e+00 5.1557753572782365e+00 9.0621411740169400e+00 
4202 4203 2 1.0279999992368711e+00 -4.5283115649309514e+02 1.0000000000000000e+00 1.0216461311791521e+01 5.3813450571072279e+00 8.7108506305944484e+00 
4444 4445 2 1.0279999983378298e+00 -9.7998129122399450e+02 1.0000000000000000e+00 3.2066994474053589e+00 6.0709740218329555e+00 8.3131638396548695e+00 
2898 2899 2 1.0280000007701806e+00 -1.4560317340135848e+03 1.0000000000000000e+00 2.3783025316950286e+00 6.9882039543373828e+00 8.5755766535251041e+00 
286 287 2 1.0280000011599328e+00 -9.8804275577650719e+02 1.0000000000000000e+00 4.4259288571921083e+00 6.0309580065285449e+00 8.7155565513653190e+00 
4286 4287 2 1.0280000004335408e+00 6.9747603526010550e+02 1.0000000000000000e+00 4.2684666364022386e+00 7.5846429314729686e+00 9.7221251902246770e+00 
4038 4039 2 1.0279999988990571e+00 -8.6062628367880438e+02 1.0000000000000000e+00 5.5524600276185812e+00 7.1921947838211926e+00 8.6869689252683422e+00 
3729 3730 2 1.0280000006610983e+00 -2.0271259812148986e+02 1.0000000000000000e+00 6.4978869848599974e+00 6.2091734360361510e+00 8.5328283523861419e+00 
3834 3835 2 1.0280000009060033e+00 -1.0345318120193938e+03 1.0000000000000000e+00 1.0603763141630393e+01 7.2073863016467978e+00 9.7989756944507604e+00 
4002 4003 2 1.0280000004750067e+00 -9.9448083511033622e+02 1.0000000000000000e+00 1.1101538497671463e+01 6.0910361063588976e+00 8.3586157977677544e+00 
3411 3412 2 1.0279999993671349e+00 8.2790724337132838e+02 1.0000000000000000e+00 3.5281971781478942e+00 9.8580560341618337e+00 8.3181541945458246e+00 
4585 4586 2 1.0280000001794503e+00 -2.4059937416601815e+03 1.0000000000000000e+00 5.6562796559364212e+00 8.2118399687863324e+00 9.8433336295429861e+00 
3371 3372 2 1.0280000002512975e+00 -6.1356455761277607e+02 1.0000000000000000e+00 3.5823390437456295e+00 1.1392057555501799e+01 8.2840322981733401e+00 
915 916 2 1.0280000000738572e+00 -1.2092893329628544e+02 1.0000000000000000e+00 3.7038316930761622e-01 1.2491240697068116e+01 8.9866895382616043e+00 
1561 1562 2 1.0279999999599707e+00 7.3976538250384965e+02 1.0000000000000000e+00 1.9278984662491394e+00 1.2922676093406729e+01 9.5571896197829940e+00 
3578 3579 2 1.0279999995040685e+00 3.9985398028536679e+02 1.0000000000000000e+00 4.5907174455332642e+00 1.3005428412593433e+01 8.7142335920082292e+00 
3117 3118 2 1.0280000002612408e+00 1.2114720113794036e+02 1.0000000000000000e+00 4.9198144948064453e+00 1.3585528819398791e+01 9.3286005296074421e+00 
1389 1390 2 1.0279999998324623e+00 -5.8460057833017640e+02 1.0000000000000000e+00 1.6096723228825118e+00 1.4459357007162225e+01 9.3183314675555362e+00 
425 426 2 1.0280000020361073e+00 -2.5413574474946781e+03 1.0000000000000000e+00 2.0874955979089049e-01 1.6663274500593224e+00 1.0595846677155723e+01 
1968 1969 2 1.0279999992388240e+00 1.3507224120565118e+03 1.0000000000000000e+00 5.3401569123963402e+00 5.9563488227987960e-01 1.0558063291996591e+01 
3776 3777 2 1.0279999984643280e+00 2.2378713116961858e+03 1.0000000000000000e+00 4.4185877254542643e+00 1.7861635334829038e+00 1.0597136361949785e+01 
124 125 2 1.0280000007000885e+00 -1.1438561393883815e+03 1.0000000000000000e+00 7.2563691726412936e+00 9.7801033910573909e-01 1.1882997268458713e+01 
619 620 2 1.0279999997395259e+00 -9.0332103044937026e+02 1.0000000000000000e+00 7.6132493204717404e+00 1.2143691054142622e+00 1.0522134877005938e+01 
44 45 2 1.0279999991047288e+00 -4.6001111315135790e+02 1.0000000000000000e+00 1.1143390197628618e+01 1.7126883832897566e+00 1.0432501360359833e+01 
2021 2022 2 1.0280000004075254e+00 2.2112348437243427e+03 1.0000000000000000e+00 2.4506674914131232e+00 3.3864059044399166e+00 1.0336189091989613e+01 
2857 2858 2 1.0280000019832207e+00 -1.4420465703536183e+03 1.0000000000000000e+00 5.4098095432356699e+00 3.9004328164684066e+00 1.1921981546558904e+01 
4619 4620 2 1.0279999978249252e+00 -1.3922123116339062e+03 1.0000000000000000e+00 5.1655352601284230e+00 3.9820758359288333e+00 1.0545093518846194e+01 
4162 4163 2 1.0279999983445269e+00 -4.4392156528532603e+01 1.0000000000000000e+00 8.7672635431624695e+00 2.7787578460270499e+00 1.0782010247051465e+01 
509 510 2 1.0280000012976136e+00 2.2565256444144634e+03 1.0000000000000000e+00 8.6690482223151673e+00 3.9007295425670465e+00 1.0740604997637519e+01 
2516 2517 2 1.0279999986021031e+00 2.2096189455212648e+03 1.0000000000000000e+00 3.2661469943531218e-01 4.3396974095384673e+00 1.0108545697352531e+01 
3356 3357 2 1.0279999984998058e+00 -9.4230995371943357e+02 1.0000000000000000e+00 1.3568361921301382e+00 5.5646805792490097e+00 1.1400176274199707e+01 
4196 4197 2 1.0279999983367383e+00 -2.5548187058484905e+03 1.0000000000000000e+00 3.5819228159392535e+00 5.7606528864637383e+00 1.0412989136356483e+01 
2855 2856 2 1.0280000006690866e+00 3.1066646085735883e+03 1.0000000000000000e+00 4.0101044515734738e+00 4.7741786872913510e+00 1.0171837635997420e+01 
4282 4283 2 1.0280000070739441e+00 -1.1456650347640284e+03 1.0000000000000000e+00 7.1689255735729800e+00 5.9426558418640187e+00 1.0980828726531355e+01 
4 5 2 1.0280000002677663e+00 -4.6014064591683791e+01 1.0000000000000000e+00 9.8160984869426340e+00 5.0800117263300688e+00 1.0986500140634428e+01 
3784 3785 2 1.0279999999920317e+00 -2.5514200394982109e+02 1.0000000000000000e+00 1.0549816955690554e+01 5.2754536749056316e+00 1.1811050252608387e+01 