LAMMPS data file via write_data, version 30 Jul 2016, timestep = 50000000

384 atoms
2 atom types

0.0000000000000000e+00 2.0000000000000000e+01 xlo xhi
0.0000000000000000e+00 2.0000000000000000e+01 ylo yhi
0.0000000000000000e+00 2.0000000000000000e+01 zlo zhi

Masses

1 3.896
2 4.31

Atoms # meso-molecular

1 1 2 7.4276368542994646e+01 0.0000000000000000e+00 1.0000000000000000e+00 5.6100000000000003e+00 1.0000000000000001e-01 1.2000000000000000e-01 
9 1 2 7.4276368542994646e+01 0.0000000000000000e+00 1.0000000000000000e+00 5.2400000000000002e+00 4.1200000000000001e+00 2.9999999999999999e-02 
17 1 2 7.4276368542994646e+01 0.0000000000000000e+00 1.0000000000000000e+00 4.7699999999999996e+00 6.4500000000000002e+00 1.1000000000000000e-01 
25 1 2 7.4276368542994646e+01 0.0000000000000000e+00 1.0000000000000000e+00 5.7500000000000000e+00 9.1799999999999997e+00 1.0200000000000000e+00 
33 1 2 7.4276368542994646e+01 0.0000000000000000e+00 1.0000000000000000e+00 5.1399999999999997e+00 9.8900000000000006e+00 1.0800000000000001e+00 
65 1 2 7.4276368542994646e+01 0.0000000000000000e+00 1.0000000000000000e+00 6.6299999999999999e+00 4.5000000000000001e-01 1.6000000000000001e+00 
2 1 2 7.4276368542994646e+01 0.0000000000000000e+00 1.0000000000000000e+00 5.0599999999999996e+00 7.2999999999999998e-01 2.7300000000000000e+00 
26 1 2 7.4276368542994646e+01 0.0000000000000000e+00 1.0000000000000000e+00 5.2999999999999998e+00 8.6600000000000001e+00 3.3799999999999999e+00 
10 1 2 7.4276368542994646e+01 0.0000000000000000e+00 1.0000000000000000e+00 4.4900000000000002e+00 2.8999999999999999e+00 4.0999999999999996e+00 
18 1 2 7.4276368542994646e+01 0.0000000000000000e+00 1.0000000000000000e+00 5.6299999999999999e+00 5.5999999999999996e+00 4.2900000000000000e+00 
19 1 2 7.4276368542994646e+01 0.0000000000000000e+00 1.0000000000000000e+00 4.5000000000000000e+00 5.1799999999999997e+00 5.1600000000000001e+00 
3 1 2 7.4276368542994646e+01 0.0000000000000000e+00 1.0000000000000000e+00 4.6299999999999999e+00 1.4500000000000000e+00 5.6100000000000003e+00 
11 1 2 7.4276368542994646e+01 0.0000000000000000e+00 1.0000000000000000e+00 4.6600000000000001e+00 4.3899999999999997e+00 5.5899999999999999e+00 
27 1 2 7.4276368542994646e+01 0.0000000000000000e+00 1.0000000000000000e+00 5.5300000000000002e+00 7.8799999999999999e+00 5.6299999999999999e+00 
28 1 2 7.4276368542994646e+01 0.0000000000000000e+00 1.0000000000000000e+00 4.5099999999999998e+00 8.8699999999999992e+00 7.6699999999999999e+00 
4 1 2 7.4276368542994646e+01 0.0000000000000000e+00 1.0000000000000000e+00 5.5000000000000000e+00 5.0000000000000003e-02 8.4199999999999999e+00 
12 1 2 7.4276368542994646e+01 0.0000000000000000e+00 1.0000000000000000e+00 4.2199999999999998e+00 2.4900000000000002e+00 8.3699999999999992e+00 
100 1 2 7.4276368542994646e+01 0.0000000000000000e+00 1.0000000000000000e+00 6.4000000000000004e+00 9.8100000000000005e+00 8.3499999999999996e+00 
20 1 2 7.4276368542994646e+01 0.0000000000000000e+00 1.0000000000000000e+00 4.2199999999999998e+00 5.7500000000000000e+00 8.8800000000000008e+00 
93 1 2 7.4276368542994646e+01 0.0000000000000000e+00 1.0000000000000000e+00 6.4199999999999999e+00 8.7200000000000006e+00 9.8499999999999996e+00 
13 1 2 7.4276368542994646e+01 0.0000000000000000e+00 1.0000000000000000e+00 4.1200000000000001e+00 3.0000000000000000e+00 1.0190000000000000e+01 
29 1 2 7.4276368542994646e+01 0.0000000000000000e+00 1.0000000000000000e+00 5.4199999999999999e+00 8.6099999999999994e+00 1.0369999999999999e+01 
21 1 2 7.4276368542994646e+01 0.0000000000000000e+00 1.0000000000000000e+00 5.5099999999999998e+00 6.3399999999999999e+00 1.0859999999999999e+01 
5 1 2 7.4276368542994646e+01 0.0000000000000000e+00 1.0000000000000000e+00 5.3099999999999996e+00 4.0000000000000001e-02 1.1529999999999999e+01 
6 1 2 7.4276368542994646e+01 0.0000000000000000e+00 1.0000000000000000e+00 4.2800000000000002e+00 7.9000000000000004e-01 1.2160000000000000e+01 
30 1 2 7.4276368542994646e+01 0.0000000000000000e+00 1.0000000000000000e+00 4.4199999999999999e+00 9.0899999999999999e+00 1.3109999999999999e+01 
14 1 2 7.4276368542994646e+01 0.0000000000000000e+00 1.0000000000000000e+00 4.9800000000000004e+00 2.4100000000000001e+00 1.3600000000000000e+01 
22 1 2 7.4276368542994646e+01 0.0000000000000000e+00 1.0000000000000000e+00 4.3899999999999997e+00 6.0300000000000002e+00 1.3390000000000001e+01 
15 1 2 7.4276368542994646e+01 0.0000000000000000e+00 1.0000000000000000e+00 4.8300000000000001e+00 3.0400000000000000e+00 1.4560000000000000e+01 
7 1 2 7.4276368542994646e+01 0.0000000000000000e+00 1.0000000000000000e+00 5.8700000000000001e+00 1.5000000000000000e+00 1.5160000000000000e+01 
31 1 2 7.4276368542994646e+01 0.0000000000000000e+00 1.0000000000000000e+00 5.2900000000000000e+00 7.4500000000000002e+00 1.5109999999999999e+01 
71 1 2 7.4276368542994646e+01 0.0000000000000000e+00 1.0000000000000000e+00 6.6399999999999997e+00 1.4700000000000000e+00 1.5940000000000000e+01 
23 1 2 7.4276368542994646e+01 0.0000000000000000e+00 1.0000000000000000e+00 5.3499999999999996e+00 5.3799999999999999e+00 1.5850000000000000e+01 
79 1 2 7.4276368542994646e+01 0.0000000000000000e+00 1.0000000000000000e+00 6.5700000000000003e+00 4.3600000000000003e+00 1.6359999999999999e+01 
24 1 2 7.4276368542994646e+01 0.0000000000000000e+00 1.0000000000000000e+00 4.7699999999999996e+00 5.8600000000000003e+00 1.7250000000000000e+01 
32 1 2 7.4276368542994646e+01 0.0000000000000000e+00 1.0000000000000000e+00 4.2800000000000002e+00 8.2400000000000002e+00 1.7030000000000001e+01 
8 1 2 7.4276368542994646e+01 0.0000000000000000e+00 1.0000000000000000e+00 5.5599999999999996e+00 1.7000000000000001e-01 1.7739999999999998e+01 
16 1 2 7.4276368542994646e+01 0.0000000000000000e+00 1.0000000000000000e+00 4.4600000000000000e+00 3.9300000000000002e+00 1.7989999999999998e+01 
40 1 2 7.4276368542994646e+01 0.0000000000000000e+00 1.0000000000000000e+00 5.9600000000000000e+00 9.6999999999999993e+00 1.7670000000000002e+01 
97 1 2 7.4276368542994646e+01 0.0000000000000000e+00 1.0000000000000000e+00 6.5800000000000001e+00 1.0880000000000001e+01 7.7000000000000002e-01 
57 1 2 7.4276368542994646e+01 0.0000000000000000e+00 1.0000000000000000e+00 4.7599999999999998e+00 1.8710000000000001e+01 9.8999999999999999e-01 
41 1 2 7.4276368542994646e+01 0.0000000000000000e+00 1.0000000000000000e+00 5.6900000000000004e+00 1.2690000000000000e+01 1.1799999999999999e+00 
49 1 2 7.4276368542994646e+01 0.0000000000000000e+00 1.0000000000000000e+00 4.2300000000000004e+00 1.6239999999999998e+01 1.8700000000000001e+00 
34 1 2 7.4276368542994646e+01 0.0000000000000000e+00 1.0000000000000000e+00 4.0300000000000002e+00 1.1369999999999999e+01 3.6099999999999999e+00 
50 1 2 7.4276368542994646e+01 0.0000000000000000e+00 1.0000000000000000e+00 4.0300000000000002e+00 1.6340000000000000e+01 3.6699999999999999e+00 
58 1 2 7.4276368542994646e+01 0.0000000000000000e+00 1.0000000000000000e+00 5.8899999999999997e+00 1.7739999999999998e+01 3.8599999999999999e+00 
106 1 2 7.4276368542994646e+01 0.0000000000000000e+00 1.0000000000000000e+00 6.5700000000000003e+00 1.2880000000000001e+01 4.2800000000000002e+00 
42 1 2 7.4276368542994646e+01 0.0000000000000000e+00 1.0000000000000000e+00 4.4199999999999999e+00 1.3529999999999999e+01 4.3300000000000001e+00 
43 1 2 7.4276368542994646e+01 0.0000000000000000e+00 1.0000000000000000e+00 5.0000000000000000e+00 1.3980000000000000e+01 4.8700000000000001e+00 
59 1 2 7.4276368542994646e+01 0.0000000000000000e+00 1.0000000000000000e+00 4.7100000000000000e+00 1.8609999999999999e+01 5.0999999999999996e+00 
99 1 2 7.4276368542994646e+01 0.0000000000000000e+00 1.0000000000000000e+00 6.6299999999999999e+00 1.1500000000000000e+01 5.3600000000000003e+00 
51 1 2 7.4276368542994646e+01 0.0000000000000000e+00 1.0000000000000000e+00 4.3399999999999999e+00 1.5630000000000001e+01 5.7599999999999998e+00 
123 1 2 7.4276368542994646e+01 0.0000000000000000e+00 1.0000000000000000e+00 6.5400000000000000e+00 1.8530000000000001e+01 6.2699999999999996e+00 
35 1 2 7.4276368542994646e+01 0.0000000000000000e+00 1.0000000000000000e+00 4.0199999999999996e+00 1.0760000000000000e+01 6.7300000000000004e+00 
36 1 2 7.4276368542994646e+01 0.0000000000000000e+00 1.0000000000000000e+00 4.8099999999999996e+00 1.0680000000000000e+01 7.7699999999999996e+00 
44 1 2 7.4276368542994646e+01 0.0000000000000000e+00 1.0000000000000000e+00 5.0899999999999999e+00 1.2400000000000000e+01 7.8899999999999997e+00 
52 1 2 7.4276368542994646e+01 0.0000000000000000e+00 1.0000000000000000e+00 4.7999999999999998e+00 1.6000000000000000e+01 8.1199999999999992e+00 
60 1 2 7.4276368542994646e+01 0.0000000000000000e+00 1.0000000000000000e+00 5.7500000000000000e+00 1.7190000000000001e+01 8.9600000000000009e+00 
61 1 2 7.4276368542994646e+01 0.0000000000000000e+00 1.0000000000000000e+00 5.1699999999999999e+00 1.7940000000000001e+01 9.8699999999999992e+00 
53 1 2 7.4276368542994646e+01 0.0000000000000000e+00 1.0000000000000000e+00 4.7699999999999996e+00 1.4500000000000000e+01 1.0250000000000000e+01 
45 1 2 7.4276368542994646e+01 0.0000000000000000e+00 1.0000000000000000e+00 4.7900000000000000e+00 1.3539999999999999e+01 1.0750000000000000e+01 
37 1 2 7.4276368542994646e+01 0.0000000000000000e+00 1.0000000000000000e+00 5.9600000000000000e+00 1.1480000000000000e+01 1.1080000000000000e+01 
62 1 2 7.4276368542994646e+01 0.0000000000000000e+00 1.0000000000000000e+00 4.1799999999999997e+00 1.6910000000000000e+01 1.2029999999999999e+01 
46 1 2 7.4276368542994646e+01 0.0000000000000000e+00 1.0000000000000000e+00 4.5300000000000002e+00 1.2020000000000000e+01 1.3330000000000000e+01 
54 1 2 7.4276368542994646e+01 0.0000000000000000e+00 1.0000000000000000e+00 4.3700000000000001e+00 1.4670000000000000e+01 1.3330000000000000e+01 
38 1 2 7.4276368542994646e+01 0.0000000000000000e+00 1.0000000000000000e+00 4.6200000000000001e+00 1.0550000000000001e+01 1.3980000000000000e+01 
63 1 2 7.4276368542994646e+01 0.0000000000000000e+00 1.0000000000000000e+00 5.0899999999999999e+00 1.7510000000000002e+01 1.4640000000000001e+01 
55 1 2 7.4276368542994646e+01 0.0000000000000000e+00 1.0000000000000000e+00 5.3600000000000003e+00 1.4520000000000000e+01 1.5300000000000001e+01 
39 1 2 7.4276368542994646e+01 0.0000000000000000e+00 1.0000000000000000e+00 5.4000000000000004e+00 1.0859999999999999e+01 1.5500000000000000e+01 
47 1 2 7.4276368542994646e+01 0.0000000000000000e+00 1.0000000000000000e+00 4.2300000000000004e+00 1.3720000000000001e+01 1.5800000000000001e+01 
56 1 2 7.4276368542994646e+01 0.0000000000000000e+00 1.0000000000000000e+00 5.3399999999999999e+00 1.5680000000000000e+01 1.7600000000000001e+01 
48 1 2 7.4276368542994646e+01 0.0000000000000000e+00 1.0000000000000000e+00 5.3300000000000001e+00 1.3420000000000000e+01 1.7739999999999998e+01 
64 1 2 7.4276368542994646e+01 0.0000000000000000e+00 1.0000000000000000e+00 4.7900000000000000e+00 1.7020000000000000e+01 1.8649999999999999e+01 
145 1 2 7.4276368542994646e+01 0.0000000000000000e+00 1.0000000000000000e+00 9.9600000000000009e+00 5.7500000000000000e+00 2.6000000000000001e-01 
209 1 2 7.4276368542994646e+01 0.0000000000000000e+00 1.0000000000000000e+00 1.1369999999999999e+01 6.2400000000000002e+00 1.4000000000000001e-01 
153 1 2 7.4276368542994646e+01 0.0000000000000000e+00 1.0000000000000000e+00 9.4399999999999995e+00 9.1600000000000001e+00 3.3000000000000002e-01 
201 1 2 7.4276368542994646e+01 0.0000000000000000e+00 1.0000000000000000e+00 1.1770000000000000e+01 4.2199999999999998e+00 6.3000000000000000e-01 
81 1 2 7.4276368542994646e+01 0.0000000000000000e+00 1.0000000000000000e+00 6.8899999999999997e+00 6.7500000000000000e+00 5.2000000000000002e-01 
217 1 2 7.4276368542994646e+01 0.0000000000000000e+00 1.0000000000000000e+00 1.3170000000000000e+01 7.7199999999999998e+00 3.8000000000000000e-01 
193 1 2 7.4276368542994646e+01 0.0000000000000000e+00 1.0000000000000000e+00 1.2670000000000000e+01 4.1999999999999998e-01 1.4399999999999999e+00 
129 1 2 7.4276368542994646e+01 0.0000000000000000e+00 1.0000000000000000e+00 1.0090000000000000e+01 7.1999999999999997e-01 1.3899999999999999e+00 
89 1 2 7.4276368542994646e+01 0.0000000000000000e+00 1.0000000000000000e+00 7.4100000000000001e+00 7.5000000000000000e+00 1.5400000000000000e+00 
73 1 2 7.4276368542994646e+01 0.0000000000000000e+00 1.0000000000000000e+00 7.7900000000000000e+00 3.0299999999999998e+00 1.9099999999999999e+00 
137 1 2 7.4276368542994646e+01 0.0000000000000000e+00 1.0000000000000000e+00 9.0299999999999994e+00 3.6899999999999999e+00 1.8799999999999999e+00 
194 1 2 7.4276368542994646e+01 0.0000000000000000e+00 1.0000000000000000e+00 1.1990000000000000e+01 4.0000000000000002e-01 2.4900000000000002e+00 
138 1 2 7.4276368542994646e+01 0.0000000000000000e+00 1.0000000000000000e+00 9.9299999999999997e+00 4.2800000000000002e+00 2.4399999999999999e+00 
90 1 2 7.4276368542994646e+01 0.0000000000000000e+00 1.0000000000000000e+00 6.7400000000000002e+00 8.6999999999999993e+00 2.5000000000000000e+00 
218 1 2 7.4276368542994646e+01 0.0000000000000000e+00 1.0000000000000000e+00 1.1640000000000001e+01 9.0399999999999991e+00 2.3999999999999999e+00 
74 1 2 7.4276368542994646e+01 0.0000000000000000e+00 1.0000000000000000e+00 7.5800000000000001e+00 2.8999999999999999e+00 2.8300000000000001e+00 
154 1 2 7.4276368542994646e+01 0.0000000000000000e+00 1.0000000000000000e+00 1.0400000000000000e+01 8.1600000000000001e+00 2.9100000000000001e+00 
162 1 2 7.4276368542994646e+01 0.0000000000000000e+00 1.0000000000000000e+00 1.0529999999999999e+01 9.8599999999999994e+00 2.6699999999999999e+00 
210 1 2 7.4276368542994646e+01 0.0000000000000000e+00 1.0000000000000000e+00 1.3080000000000000e+01 4.9000000000000004e+00 3.2400000000000002e+00 
66 1 2 7.4276368542994646e+01 0.0000000000000000e+00 1.0000000000000000e+00 7.8899999999999997e+00 1.7700000000000000e+00 3.6200000000000001e+00 
226 1 2 7.4276368542994646e+01 0.0000000000000000e+00 1.0000000000000000e+00 1.1580000000000000e+01 9.8100000000000005e+00 3.5099999999999998e+00 
130 1 2 7.4276368542994646e+01 0.0000000000000000e+00 1.0000000000000000e+00 9.0600000000000005e+00 1.8100000000000001e+00 3.8999999999999999e+00 
202 1 2 7.4276368542994646e+01 0.0000000000000000e+00 1.0000000000000000e+00 1.2090000000000000e+01 3.9700000000000002e+00 3.7799999999999998e+00 
146 1 2 7.4276368542994646e+01 0.0000000000000000e+00 1.0000000000000000e+00 9.0500000000000007e+00 5.3200000000000003e+00 4.2100000000000000e+00 
82 1 2 7.4276368542994646e+01 0.0000000000000000e+00 1.0000000000000000e+00 8.1400000000000006e+00 6.0999999999999996e+00 4.1600000000000001e+00 
195 1 2 7.4276368542994646e+01 0.0000000000000000e+00 1.0000000000000000e+00 1.2340000000000000e+01 2.0999999999999999e-01 5.2300000000000004e+00 
147 1 2 7.4276368542994646e+01 0.0000000000000000e+00 1.0000000000000000e+00 9.4299999999999997e+00 5.3200000000000003e+00 5.0899999999999999e+00 
83 1 2 7.4276368542994646e+01 0.0000000000000000e+00 1.0000000000000000e+00 8.2599999999999998e+00 5.8700000000000001e+00 5.1900000000000004e+00 
219 1 2 7.4276368542994646e+01 0.0000000000000000e+00 1.0000000000000000e+00 1.1279999999999999e+01 8.8699999999999992e+00 5.3300000000000001e+00 
139 1 2 7.4276368542994646e+01 0.0000000000000000e+00 1.0000000000000000e+00 9.8499999999999996e+00 2.7900000000000000e+00 5.5599999999999996e+00 
91 1 2 7.4276368542994646e+01 0.0000000000000000e+00 1.0000000000000000e+00 7.7599999999999998e+00 7.4299999999999997e+00 5.6600000000000001e+00 
75 1 2 7.4276368542994646e+01 0.0000000000000000e+00 1.0000000000000000e+00 7.7800000000000002e+00 3.7999999999999998e+00 5.8700000000000001e+00 
203 1 2 7.4276368542994646e+01 0.0000000000000000e+00 1.0000000000000000e+00 1.2400000000000000e+01 3.8900000000000001e+00 5.7699999999999996e+00 
155 1 2 7.4276368542994646e+01 0.0000000000000000e+00 1.0000000000000000e+00 1.0410000000000000e+01 7.9299999999999997e+00 5.9600000000000000e+00 
67 1 2 7.4276368542994646e+01 0.0000000000000000e+00 1.0000000000000000e+00 8.0899999999999999e+00 1.6299999999999999e+00 6.3200000000000003e+00 
211 1 2 7.4276368542994646e+01 0.0000000000000000e+00 1.0000000000000000e+00 1.2460000000000001e+01 6.3399999999999999e+00 6.0899999999999999e+00 
131 1 2 7.4276368542994646e+01 0.0000000000000000e+00 1.0000000000000000e+00 9.4700000000000006e+00 1.2800000000000000e+00 6.4500000000000002e+00 
212 1 2 7.4276368542994646e+01 0.0000000000000000e+00 1.0000000000000000e+00 1.2730000000000000e+01 5.5000000000000000e+00 7.2800000000000002e+00 
196 1 2 7.4276368542994646e+01 0.0000000000000000e+00 1.0000000000000000e+00 1.2300000000000001e+01 1.6299999999999999e+00 7.4299999999999997e+00 
84 1 2 7.4276368542994646e+01 0.0000000000000000e+00 1.0000000000000000e+00 8.1099999999999994e+00 5.8200000000000003e+00 7.6299999999999999e+00 
220 1 2 7.4276368542994646e+01 0.0000000000000000e+00 1.0000000000000000e+00 1.2279999999999999e+01 8.7799999999999994e+00 7.4000000000000004e+00 
76 1 2 7.4276368542994646e+01 0.0000000000000000e+00 1.0000000000000000e+00 7.4299999999999997e+00 4.1500000000000004e+00 7.7100000000000000e+00 
140 1 2 7.4276368542994646e+01 0.0000000000000000e+00 1.0000000000000000e+00 9.9000000000000004e+00 3.8799999999999999e+00 8.0299999999999994e+00 
204 1 2 7.4276368542994646e+01 0.0000000000000000e+00 1.0000000000000000e+00 1.2060000000000000e+01 3.4800000000000000e+00 8.3800000000000008e+00 
148 1 2 7.4276368542994646e+01 0.0000000000000000e+00 1.0000000000000000e+00 9.9199999999999999e+00 5.7699999999999996e+00 8.4800000000000004e+00 
132 1 2 7.4276368542994646e+01 0.0000000000000000e+00 1.0000000000000000e+00 9.9000000000000004e+00 1.4000000000000001e-01 8.9100000000000001e+00 
92 1 2 7.4276368542994646e+01 0.0000000000000000e+00 1.0000000000000000e+00 8.0099999999999998e+00 7.2199999999999998e+00 8.8599999999999994e+00 
156 1 2 7.4276368542994646e+01 0.0000000000000000e+00 1.0000000000000000e+00 9.2200000000000006e+00 7.3799999999999999e+00 8.8499999999999996e+00 
68 1 2 7.4276368542994646e+01 0.0000000000000000e+00 1.0000000000000000e+00 7.8300000000000001e+00 1.5700000000000001e+00 9.1300000000000008e+00 
133 1 2 7.4276368542994646e+01 0.0000000000000000e+00 1.0000000000000000e+00 9.9399999999999995e+00 8.8000000000000000e-01 9.8300000000000001e+00 
141 1 2 7.4276368542994646e+01 0.0000000000000000e+00 1.0000000000000000e+00 1.0090000000000000e+01 4.0899999999999999e+00 9.6699999999999999e+00 
197 1 2 7.4276368542994646e+01 0.0000000000000000e+00 1.0000000000000000e+00 1.1330000000000000e+01 6.6000000000000003e-01 1.0320000000000000e+01 
221 1 2 7.4276368542994646e+01 0.0000000000000000e+00 1.0000000000000000e+00 1.1570000000000000e+01 8.7400000000000002e+00 1.0039999999999999e+01 
205 1 2 7.4276368542994646e+01 0.0000000000000000e+00 1.0000000000000000e+00 1.2810000000000000e+01 4.2800000000000002e+00 1.0750000000000000e+01 
85 1 2 7.4276368542994646e+01 0.0000000000000000e+00 1.0000000000000000e+00 7.9400000000000004e+00 5.6200000000000001e+00 1.0890000000000001e+01 
69 1 2 7.4276368542994646e+01 0.0000000000000000e+00 1.0000000000000000e+00 8.3000000000000007e+00 9.0000000000000002e-01 1.1260000000000000e+01 
157 1 2 7.4276368542994646e+01 0.0000000000000000e+00 1.0000000000000000e+00 9.0899999999999999e+00 7.3099999999999996e+00 1.1140000000000001e+01 
77 1 2 7.4276368542994646e+01 0.0000000000000000e+00 1.0000000000000000e+00 7.4400000000000004e+00 4.0300000000000002e+00 1.1470000000000001e+01 
213 1 2 7.4276368542994646e+01 0.0000000000000000e+00 1.0000000000000000e+00 1.1480000000000000e+01 5.6100000000000003e+00 1.1570000000000000e+01 
149 1 2 7.4276368542994646e+01 0.0000000000000000e+00 1.0000000000000000e+00 1.0279999999999999e+01 6.5400000000000000e+00 1.1560000000000000e+01 
134 1 2 7.4276368542994646e+01 0.0000000000000000e+00 1.0000000000000000e+00 1.0080000000000000e+01 1.2800000000000000e+00 1.2000000000000000e+01 
70 1 2 7.4276368542994646e+01 0.0000000000000000e+00 1.0000000000000000e+00 7.6900000000000004e+00 1.8999999999999999e+00 1.2080000000000000e+01 
206 1 2 7.4276368542994646e+01 0.0000000000000000e+00 1.0000000000000000e+00 1.3070000000000000e+01 2.4300000000000002e+00 1.2050000000000001e+01 
222 1 2 7.4276368542994646e+01 0.0000000000000000e+00 1.0000000000000000e+00 1.3160000000000000e+01 8.6099999999999994e+00 1.2180000000000000e+01 
102 1 2 7.4276368542994646e+01 0.0000000000000000e+00 1.0000000000000000e+00 8.2699999999999996e+00 9.6699999999999999e+00 1.2320000000000000e+01 
142 1 2 7.4276368542994646e+01 0.0000000000000000e+00 1.0000000000000000e+00 9.3499999999999996e+00 3.6400000000000001e+00 1.2609999999999999e+01 
150 1 2 7.4276368542994646e+01 0.0000000000000000e+00 1.0000000000000000e+00 1.0289999999999999e+01 5.0599999999999996e+00 1.2500000000000000e+01 
86 1 2 7.4276368542994646e+01 0.0000000000000000e+00 1.0000000000000000e+00 7.7599999999999998e+00 5.3300000000000001e+00 1.2890000000000001e+01 
94 1 2 7.4276368542994646e+01 0.0000000000000000e+00 1.0000000000000000e+00 8.2400000000000002e+00 7.7500000000000000e+00 1.3279999999999999e+01 
78 1 2 7.4276368542994646e+01 0.0000000000000000e+00 1.0000000000000000e+00 7.0499999999999998e+00 2.8799999999999999e+00 1.3380000000000001e+01 
158 1 2 7.4276368542994646e+01 0.0000000000000000e+00 1.0000000000000000e+00 8.8200000000000003e+00 7.2199999999999998e+00 1.3520000000000000e+01 
198 1 2 7.4276368542994646e+01 0.0000000000000000e+00 1.0000000000000000e+00 1.1779999999999999e+01 7.0000000000000007e-02 1.3880000000000001e+01 
214 1 2 7.4276368542994646e+01 0.0000000000000000e+00 1.0000000000000000e+00 1.2460000000000001e+01 6.0999999999999996e+00 1.3810000000000000e+01 
207 1 2 7.4276368542994646e+01 0.0000000000000000e+00 1.0000000000000000e+00 1.1289999999999999e+01 3.7300000000000000e+00 1.4970000000000001e+01 
215 1 2 7.4276368542994646e+01 0.0000000000000000e+00 1.0000000000000000e+00 1.2190000000000000e+01 5.9800000000000004e+00 1.4750000000000000e+01 
159 1 2 7.4276368542994646e+01 0.0000000000000000e+00 1.0000000000000000e+00 1.0470000000000001e+01 8.5500000000000007e+00 1.4750000000000000e+01 
95 1 2 7.4276368542994646e+01 0.0000000000000000e+00 1.0000000000000000e+00 8.3599999999999994e+00 8.2200000000000006e+00 1.5029999999999999e+01 
223 1 2 7.4276368542994646e+01 0.0000000000000000e+00 1.0000000000000000e+00 1.1770000000000000e+01 8.0399999999999991e+00 1.5310000000000000e+01 
143 1 2 7.4276368542994646e+01 0.0000000000000000e+00 1.0000000000000000e+00 9.0800000000000001e+00 2.5400000000000000e+00 1.5630000000000001e+01 
151 1 2 7.4276368542994646e+01 0.0000000000000000e+00 1.0000000000000000e+00 1.0660000000000000e+01 5.0300000000000002e+00 1.5650000000000000e+01 
87 1 2 7.4276368542994646e+01 0.0000000000000000e+00 1.0000000000000000e+00 8.1099999999999994e+00 5.6799999999999997e+00 1.5380000000000001e+01 
199 1 2 7.4276368542994646e+01 0.0000000000000000e+00 1.0000000000000000e+00 1.1410000000000000e+01 8.5999999999999999e-01 1.6140000000000001e+01 
135 1 2 7.4276368542994646e+01 0.0000000000000000e+00 1.0000000000000000e+00 9.6199999999999992e+00 1.7600000000000000e+00 1.6199999999999999e+01 
88 1 2 7.4276368542994646e+01 0.0000000000000000e+00 1.0000000000000000e+00 7.9299999999999997e+00 5.2500000000000000e+00 1.6960000000000001e+01 
136 1 2 7.4276368542994646e+01 0.0000000000000000e+00 1.0000000000000000e+00 1.0520000000000000e+01 7.1999999999999997e-01 1.7190000000000001e+01 
144 1 2 7.4276368542994646e+01 0.0000000000000000e+00 1.0000000000000000e+00 9.0999999999999996e+00 3.0800000000000001e+00 1.7219999999999999e+01 
208 1 2 7.4276368542994646e+01 0.0000000000000000e+00 1.0000000000000000e+00 1.3150000000000000e+01 3.9700000000000002e+00 1.7090000000000000e+01 
200 1 2 7.4276368542994646e+01 0.0000000000000000e+00 1.0000000000000000e+00 1.1820000000000000e+01 8.0000000000000004e-01 1.7440000000000001e+01 
152 1 2 7.4276368542994646e+01 0.0000000000000000e+00 1.0000000000000000e+00 9.7799999999999994e+00 5.2699999999999996e+00 1.7579999999999998e+01 
160 1 2 7.4276368542994646e+01 0.0000000000000000e+00 1.0000000000000000e+00 1.0490000000000000e+01 7.5300000000000002e+00 1.7550000000000001e+01 
232 1 2 7.4276368542994646e+01 0.0000000000000000e+00 1.0000000000000000e+00 1.1529999999999999e+01 9.9000000000000004e+00 1.7500000000000000e+01 
72 1 2 7.4276368542994646e+01 0.0000000000000000e+00 1.0000000000000000e+00 7.7999999999999998e+00 1.8000000000000000e+00 1.7710000000000001e+01 
216 1 2 7.4276368542994646e+01 0.0000000000000000e+00 1.0000000000000000e+00 1.1580000000000000e+01 6.1799999999999997e+00 1.8239999999999998e+01 
224 1 2 7.4276368542994646e+01 0.0000000000000000e+00 1.0000000000000000e+00 1.1560000000000000e+01 7.9100000000000001e+00 1.8109999999999999e+01 
96 1 2 7.4276368542994646e+01 0.0000000000000000e+00 1.0000000000000000e+00 7.7000000000000002e+00 9.1099999999999994e+00 1.8180000000000000e+01 
80 1 2 7.4276368542994646e+01 0.0000000000000000e+00 1.0000000000000000e+00 6.8099999999999996e+00 4.0800000000000001e+00 1.8660000000000000e+01 
225 1 2 7.4276368542994646e+01 0.0000000000000000e+00 1.0000000000000000e+00 1.1449999999999999e+01 1.1240000000000000e+01 6.6000000000000003e-01 
161 1 2 7.4276368542994646e+01 0.0000000000000000e+00 1.0000000000000000e+00 9.2699999999999996e+00 1.1590000000000000e+01 3.4000000000000002e-01 
241 1 2 7.4276368542994646e+01 0.0000000000000000e+00 1.0000000000000000e+00 1.1330000000000000e+01 1.6109999999999999e+01 5.6999999999999995e-01 
105 1 2 7.4276368542994646e+01 0.0000000000000000e+00 1.0000000000000000e+00 7.1699999999999999e+00 1.2320000000000000e+01 8.8000000000000000e-01 
177 1 2 7.4276368542994646e+01 0.0000000000000000e+00 1.0000000000000000e+00 9.9399999999999995e+00 1.5930000000000000e+01 8.2999999999999996e-01 
233 1 2 7.4276368542994646e+01 0.0000000000000000e+00 1.0000000000000000e+00 1.1240000000000000e+01 1.3869999999999999e+01 1.1899999999999999e+00 
113 1 2 7.4276368542994646e+01 0.0000000000000000e+00 1.0000000000000000e+00 8.2699999999999996e+00 1.5990000000000000e+01 1.1299999999999999e+00 
185 1 2 7.4276368542994646e+01 0.0000000000000000e+00 1.0000000000000000e+00 9.5500000000000007e+00 1.7770000000000000e+01 1.1399999999999999e+00 
249 1 2 7.4276368542994646e+01 0.0000000000000000e+00 1.0000000000000000e+00 1.2520000000000000e+01 1.8210000000000001e+01 1.0700000000000001e+00 
121 1 2 7.4276368542994646e+01 0.0000000000000000e+00 1.0000000000000000e+00 7.7400000000000002e+00 1.8440000000000001e+01 1.0700000000000001e+00 
169 1 2 7.4276368542994646e+01 0.0000000000000000e+00 1.0000000000000000e+00 9.4900000000000002e+00 1.3400000000000000e+01 1.8200000000000001e+00 
98 1 2 7.4276368542994646e+01 0.0000000000000000e+00 1.0000000000000000e+00 8.0700000000000003e+00 1.0920000000000000e+01 2.4600000000000000e+00 
122 1 2 7.4276368542994646e+01 0.0000000000000000e+00 1.0000000000000000e+00 8.1500000000000004e+00 1.7489999999999998e+01 2.4399999999999999e+00 
250 1 2 7.4276368542994646e+01 0.0000000000000000e+00 1.0000000000000000e+00 1.2150000000000000e+01 1.8320000000000000e+01 2.3999999999999999e+00 
114 1 2 7.4276368542994646e+01 0.0000000000000000e+00 1.0000000000000000e+00 8.2100000000000009e+00 1.4520000000000000e+01 2.9500000000000002e+00 
178 1 2 7.4276368542994646e+01 0.0000000000000000e+00 1.0000000000000000e+00 9.0000000000000000e+00 1.5970000000000001e+01 2.6699999999999999e+00 
242 1 2 7.4276368542994646e+01 0.0000000000000000e+00 1.0000000000000000e+00 1.2150000000000000e+01 1.6000000000000000e+01 3.1499999999999999e+00 
186 1 2 7.4276368542994646e+01 0.0000000000000000e+00 1.0000000000000000e+00 1.0240000000000000e+01 1.7520000000000000e+01 3.2000000000000002e+00 
234 1 2 7.4276368542994646e+01 0.0000000000000000e+00 1.0000000000000000e+00 1.3170000000000000e+01 1.2460000000000001e+01 3.6299999999999999e+00 
170 1 2 7.4276368542994646e+01 0.0000000000000000e+00 1.0000000000000000e+00 1.0710000000000001e+01 1.2800000000000001e+01 3.9700000000000002e+00 
115 1 2 7.4276368542994646e+01 0.0000000000000000e+00 1.0000000000000000e+00 7.2800000000000002e+00 1.5810000000000000e+01 4.8499999999999996e+00 
179 1 2 7.4276368542994646e+01 0.0000000000000000e+00 1.0000000000000000e+00 8.8699999999999992e+00 1.5119999999999999e+01 5.0199999999999996e+00 
187 1 2 7.4276368542994646e+01 0.0000000000000000e+00 1.0000000000000000e+00 9.3499999999999996e+00 1.8530000000000001e+01 5.3099999999999996e+00 
243 1 2 7.4276368542994646e+01 0.0000000000000000e+00 1.0000000000000000e+00 1.2630000000000001e+01 1.5560000000000000e+01 5.9699999999999998e+00 
227 1 2 7.4276368542994646e+01 0.0000000000000000e+00 1.0000000000000000e+00 1.1680000000000000e+01 1.0150000000000000e+01 6.0599999999999996e+00 
171 1 2 7.4276368542994646e+01 0.0000000000000000e+00 1.0000000000000000e+00 9.7799999999999994e+00 1.3710000000000001e+01 6.0999999999999996e+00 
163 1 2 7.4276368542994646e+01 0.0000000000000000e+00 1.0000000000000000e+00 1.0340000000000000e+01 1.0880000000000001e+01 6.5099999999999998e+00 
235 1 2 7.4276368542994646e+01 0.0000000000000000e+00 1.0000000000000000e+00 1.1630000000000001e+01 1.2970000000000001e+01 6.5700000000000003e+00 
107 1 2 7.4276368542994646e+01 0.0000000000000000e+00 1.0000000000000000e+00 7.4600000000000000e+00 1.3380000000000001e+01 6.3499999999999996e+00 
251 1 2 7.4276368542994646e+01 0.0000000000000000e+00 1.0000000000000000e+00 1.2170000000000000e+01 1.8570000000000000e+01 6.5400000000000000e+00 
228 1 2 7.4276368542994646e+01 0.0000000000000000e+00 1.0000000000000000e+00 1.2710000000000001e+01 1.0760000000000000e+01 7.4199999999999999e+00 
180 1 2 7.4276368542994646e+01 0.0000000000000000e+00 1.0000000000000000e+00 1.0220000000000001e+01 1.4490000000000000e+01 7.5300000000000002e+00 
252 1 2 7.4276368542994646e+01 0.0000000000000000e+00 1.0000000000000000e+00 1.2520000000000000e+01 1.8070000000000000e+01 7.5400000000000000e+00 