LAMMPS data file via write_data, version 30 Jul 2016, timestep = 1000000

2080 atoms
8 atom types

0.0000000000000000e+00 4.0000000000000000e+01 xlo xhi
0.0000000000000000e+00 4.0000000000000000e+01 ylo yhi
0.0000000000000000e+00 1.0000000000000000e+02 zlo zhi

Masses

1 3.896
2 5.36
3 1058.08
4 8.378
5 8.378
6 8.378
7 8.378
8 8.378

Atoms # meso-molecular

1 2 4 2.2559723595316457e+00 1.0000000000000000e+00 4.2000000000000000e+03 0.0000000000000000e+00 0.0000000000000000e+00 2.5000000000000000e+00 
2 2 4 2.2559723595316457e+00 1.0000000000000000e+00 4.2000000000000000e+03 0.0000000000000000e+00 2.0000000000000000e+00 2.5000000000000000e+00 
21 2 4 2.2559723595316457e+00 1.0000000000000000e+00 4.2000000000000000e+03 2.0000000000000000e+00 0.0000000000000000e+00 2.5000000000000000e+00 
22 2 4 2.2559723595316457e+00 1.0000000000000000e+00 4.2000000000000000e+03 2.0000000000000000e+00 2.0000000000000000e+00 2.5000000000000000e+00 
41 2 4 2.2559723595316457e+00 1.0000000000000000e+00 4.2000000000000000e+03 4.0000000000000000e+00 0.0000000000000000e+00 2.5000000000000000e+00 
42 2 4 2.2559723595316457e+00 1.0000000000000000e+00 4.2000000000000000e+03 4.0000000000000000e+00 2.0000000000000000e+00 2.5000000000000000e+00 
61 2 4 2.2559723595316457e+00 1.0000000000000000e+00 4.2000000000000000e+03 6.0000000000000000e+00 0.0000000000000000e+00 2.5000000000000000e+00 
62 2 4 2.2559723595316457e+00 1.0000000000000000e+00 4.2000000000000000e+03 6.0000000000000000e+00 2.0000000000000000e+00 2.5000000000000000e+00 
81 2 4 2.2559723595316457e+00 1.0000000000000000e+00 4.2000000000000000e+03 8.0000000000000000e+00 0.0000000000000000e+00 2.5000000000000000e+00 
82 2 4 2.2559723595316457e+00 1.0000000000000000e+00 4.2000000000000000e+03 8.0000000000000000e+00 2.0000000000000000e+00 2.5000000000000000e+00 
101 2 4 2.2559723595316457e+00 1.0000000000000000e+00 4.2000000000000000e+03 1.0000000000000000e+01 0.0000000000000000e+00 2.5000000000000000e+00 
102 2 4 2.2559723595316457e+00 1.0000000000000000e+00 4.2000000000000000e+03 1.0000000000000000e+01 2.0000000000000000e+00 2.5000000000000000e+00 
121 2 4 2.2559723595316457e+00 1.0000000000000000e+00 4.2000000000000000e+03 1.2000000000000000e+01 0.0000000000000000e+00 2.5000000000000000e+00 
122 2 4 2.2559723595316457e+00 1.0000000000000000e+00 4.2000000000000000e+03 1.2000000000000000e+01 2.0000000000000000e+00 2.5000000000000000e+00 
141 2 4 2.2559723595316457e+00 1.0000000000000000e+00 4.2000000000000000e+03 1.4000000000000000e+01 0.0000000000000000e+00 2.5000000000000000e+00 
142 2 4 2.2559723595316457e+00 1.0000000000000000e+00 4.2000000000000000e+03 1.4000000000000000e+01 2.0000000000000000e+00 2.5000000000000000e+00 
161 2 4 2.2559723595316457e+00 1.0000000000000000e+00 4.2000000000000000e+03 1.6000000000000000e+01 0.0000000000000000e+00 2.5000000000000000e+00 
162 2 4 2.2559723595316457e+00 1.0000000000000000e+00 4.2000000000000000e+03 1.6000000000000000e+01 2.0000000000000000e+00 2.5000000000000000e+00 
181 2 4 2.2559723595316457e+00 1.0000000000000000e+00 4.2000000000000000e+03 1.8000000000000000e+01 0.0000000000000000e+00 2.5000000000000000e+00 
182 2 4 2.2559723595316457e+00 1.0000000000000000e+00 4.2000000000000000e+03 1.8000000000000000e+01 2.0000000000000000e+00 2.5000000000000000e+00 
3 2 4 2.2559723595316457e+00 1.0000000000000000e+00 4.2000000000000000e+03 0.0000000000000000e+00 4.0000000000000000e+00 2.5000000000000000e+00 
4 2 4 2.2559723595316457e+00 1.0000000000000000e+00 4.2000000000000000e+03 0.0000000000000000e+00 6.0000000000000000e+00 2.5000000000000000e+00 
23 2 4 2.2559723595316457e+00 1.0000000000000000e+00 4.2000000000000000e+03 2.0000000000000000e+00 4.0000000000000000e+00 2.5000000000000000e+00 
24 2 4 2.2559723595316457e+00 1.0000000000000000e+00 4.2000000000000000e+03 2.0000000000000000e+00 6.0000000000000000e+00 2.5000000000000000e+00 
43 2 4 2.2559723595316457e+00 1.0000000000000000e+00 4.2000000000000000e+03 4.0000000000000000e+00 4.0000000000000000e+00 2.5000000000000000e+00 
44 2 4 2.2559723595316457e+00 1.0000000000000000e+00 4.2000000000000000e+03 4.0000000000000000e+00 6.0000000000000000e+00 2.5000000000000000e+00 
63 2 4 2.2559723595316457e+00 1.0000000000000000e+00 4.2000000000000000e+03 6.0000000000000000e+00 4.0000000000000000e+00 2.5000000000000000e+00 
64 2 4 2.2559723595316457e+00 1.0000000000000000e+00 4.2000000000000000e+03 6.0000000000000000e+00 6.0000000000000000e+00 2.5000000000000000e+00 
83 2 4 2.2559723595316457e+00 1.0000000000000000e+00 4.2000000000000000e+03 8.0000000000000000e+00 4.0000000000000000e+00 2.5000000000000000e+00 
84 2 4 2.2559723595316457e+00 1.0000000000000000e+00 4.2000000000000000e+03 8.0000000000000000e+00 6.0000000000000000e+00 2.5000000000000000e+00 
103 2 4 2.2559723595316457e+00 1.0000000000000000e+00 4.2000000000000000e+03 1.0000000000000000e+01 4.0000000000000000e+00 2.5000000000000000e+00 
104 2 4 2.2559723595316457e+00 1.0000000000000000e+00 4.2000000000000000e+03 1.0000000000000000e+01 6.0000000000000000e+00 2.5000000000000000e+00 
123 2 4 2.2559723595316457e+00 1.0000000000000000e+00 4.2000000000000000e+03 1.2000000000000000e+01 4.0000000000000000e+00 2.5000000000000000e+00 
124 2 4 2.2559723595316457e+00 1.0000000000000000e+00 4.2000000000000000e+03 1.2000000000000000e+01 6.0000000000000000e+00 2.5000000000000000e+00 
143 2 4 2.2559723595316457e+00 1.0000000000000000e+00 4.2000000000000000e+03 1.4000000000000000e+01 4.0000000000000000e+00 2.5000000000000000e+00 
144 2 4 2.2559723595316457e+00 1.0000000000000000e+00 4.2000000000000000e+03 1.4000000000000000e+01 6.0000000000000000e+00 2.5000000000000000e+00 
163 2 4 2.2559723595316457e+00 1.0000000000000000e+00 4.2000000000000000e+03 1.6000000000000000e+01 4.0000000000000000e+00 2.5000000000000000e+00 
164 2 4 2.2559723595316457e+00 1.0000000000000000e+00 4.2000000000000000e+03 1.6000000000000000e+01 6.0000000000000000e+00 2.5000000000000000e+00 
183 2 4 2.2559723595316457e+00 1.0000000000000000e+00 4.2000000000000000e+03 1.8000000000000000e+01 4.0000000000000000e+00 2.5000000000000000e+00 
184 2 4 2.2559723595316457e+00 1.0000000000000000e+00 4.2000000000000000e+03 1.8000000000000000e+01 6.0000000000000000e+00 2.5000000000000000e+00 
5 2 4 2.2559723595316457e+00 1.0000000000000000e+00 4.2000000000000000e+03 0.0000000000000000e+00 8.0000000000000000e+00 2.5000000000000000e+00 
25 2 4 2.2559723595316457e+00 1.0000000000000000e+00 4.2000000000000000e+03 2.0000000000000000e+00 8.0000000000000000e+00 2.5000000000000000e+00 
45 2 4 2.2559723595316457e+00 1.0000000000000000e+00 4.2000000000000000e+03 4.0000000000000000e+00 8.0000000000000000e+00 2.5000000000000000e+00 
65 2 4 2.2559723595316457e+00 1.0000000000000000e+00 4.2000000000000000e+03 6.0000000000000000e+00 8.0000000000000000e+00 2.5000000000000000e+00 
85 2 4 2.2559723595316457e+00 1.0000000000000000e+00 4.2000000000000000e+03 8.0000000000000000e+00 8.0000000000000000e+00 2.5000000000000000e+00 
105 2 4 2.2559723595316457e+00 1.0000000000000000e+00 4.2000000000000000e+03 1.0000000000000000e+01 8.0000000000000000e+00 2.5000000000000000e+00 
125 2 4 2.2559723595316457e+00 1.0000000000000000e+00 4.2000000000000000e+03 1.2000000000000000e+01 8.0000000000000000e+00 2.5000000000000000e+00 
145 2 4 2.2559723595316457e+00 1.0000000000000000e+00 4.2000000000000000e+03 1.4000000000000000e+01 8.0000000000000000e+00 2.5000000000000000e+00 
165 2 4 2.2559723595316457e+00 7.1948152313454106e-01 4.2000000000000000e+03 1.6000000000000000e+01 8.0000000000000000e+00 2.5000000000000000e+00 
185 2 4 2.2559723595316457e+00 6.8624807970636836e-01 4.2000000000000000e+03 1.8000000000000000e+01 8.0000000000000000e+00 2.5000000000000000e+00 
6 2 4 2.2559723595316457e+00 1.0000000000000000e+00 4.2000000000000000e+03 0.0000000000000000e+00 1.0000000000000000e+01 2.5000000000000000e+00 
7 2 4 2.2559723595316457e+00 1.0000000000000000e+00 4.2000000000000000e+03 0.0000000000000000e+00 1.2000000000000000e+01 2.5000000000000000e+00 
26 2 4 2.2559723595316457e+00 1.0000000000000000e+00 4.2000000000000000e+03 2.0000000000000000e+00 1.0000000000000000e+01 2.5000000000000000e+00 
27 2 4 2.2559723595316457e+00 1.0000000000000000e+00 4.2000000000000000e+03 2.0000000000000000e+00 1.2000000000000000e+01 2.5000000000000000e+00 
46 2 4 2.2559723595316457e+00 1.0000000000000000e+00 4.2000000000000000e+03 4.0000000000000000e+00 1.0000000000000000e+01 2.5000000000000000e+00 
47 2 4 2.2559723595316457e+00 1.0000000000000000e+00 4.2000000000000000e+03 4.0000000000000000e+00 1.2000000000000000e+01 2.5000000000000000e+00 
66 2 4 2.2559723595316457e+00 1.0000000000000000e+00 4.2000000000000000e+03 6.0000000000000000e+00 1.0000000000000000e+01 2.5000000000000000e+00 
67 2 4 2.2559723595316457e+00 1.0000000000000000e+00 4.2000000000000000e+03 6.0000000000000000e+00 1.2000000000000000e+01 2.5000000000000000e+00 
86 2 4 2.2559723595316457e+00 1.0000000000000000e+00 4.2000000000000000e+03 8.0000000000000000e+00 1.0000000000000000e+01 2.5000000000000000e+00 
87 2 4 2.2559723595316457e+00 1.0000000000000000e+00 4.2000000000000000e+03 8.0000000000000000e+00 1.2000000000000000e+01 2.5000000000000000e+00 
106 2 4 2.2559723595316457e+00 1.0000000000000000e+00 4.2000000000000000e+03 1.0000000000000000e+01 1.0000000000000000e+01 2.5000000000000000e+00 
107 2 4 2.2559723595316457e+00 1.0000000000000000e+00 4.2000000000000000e+03 1.0000000000000000e+01 1.2000000000000000e+01 2.5000000000000000e+00 
126 2 4 2.2559723595316457e+00 1.0000000000000000e+00 4.2000000000000000e+03 1.2000000000000000e+01 1.0000000000000000e+01 2.5000000000000000e+00 
127 2 4 2.2559723595316457e+00 1.0000000000000000e+00 4.2000000000000000e+03 1.2000000000000000e+01 1.2000000000000000e+01 2.5000000000000000e+00 
146 2 4 2.2559723595316457e+00 7.1948164943301807e-01 4.2000000000000000e+03 1.4000000000000000e+01 1.0000000000000000e+01 2.5000000000000000e+00 
147 2 4 2.2559723595316457e+00 6.8626129901632749e-01 4.2000000000000000e+03 1.4000000000000000e+01 1.2000000000000000e+01 2.5000000000000000e+00 
166 2 4 2.2559723595316457e+00 -7.9280898985587882e+01 4.2000000000000000e+03 1.6000000000000000e+01 1.0000000000000000e+01 2.5000000000000000e+00 
167 2 4 2.2559723595316457e+00 -8.6940854669254506e+01 4.2000000000000000e+03 1.6000000000000000e+01 1.2000000000000000e+01 2.5000000000000000e+00 
186 2 4 2.2559723595316457e+00 -8.6978966547534895e+01 4.2000000000000000e+03 1.8000000000000000e+01 1.0000000000000000e+01 2.5000000000000000e+00 
187 2 4 2.2559723595316457e+00 -9.1764614764924659e+01 4.2000000000000000e+03 1.8000000000000000e+01 1.2000000000000000e+01 2.5000000000000000e+00 
8 2 4 2.2559723595316457e+00 1.0000000000000000e+00 4.2000000000000000e+03 0.0000000000000000e+00 1.4000000000000000e+01 2.5000000000000000e+00 
9 2 4 2.2559723595316457e+00 1.0000000000000000e+00 4.2000000000000000e+03 0.0000000000000000e+00 1.6000000000000000e+01 2.5000000000000000e+00 
28 2 4 2.2559723595316457e+00 1.0000000000000000e+00 4.2000000000000000e+03 2.0000000000000000e+00 1.4000000000000000e+01 2.5000000000000000e+00 
29 2 4 2.2559723595316457e+00 1.0000000000000000e+00 4.2000000000000000e+03 2.0000000000000000e+00 1.6000000000000000e+01 2.5000000000000000e+00 
48 2 4 2.2559723595316457e+00 1.0000000000000000e+00 4.2000000000000000e+03 4.0000000000000000e+00 1.4000000000000000e+01 2.5000000000000000e+00 
49 2 4 2.2559723595316457e+00 1.0000000000000000e+00 4.2000000000000000e+03 4.0000000000000000e+00 1.6000000000000000e+01 2.5000000000000000e+00 
68 2 4 2.2559723595316457e+00 1.0000000000000000e+00 4.2000000000000000e+03 6.0000000000000000e+00 1.4000000000000000e+01 2.5000000000000000e+00 
69 2 4 2.2559723595316457e+00 1.0000000000000000e+00 4.2000000000000000e+03 6.0000000000000000e+00 1.6000000000000000e+01 2.5000000000000000e+00 
88 2 4 2.2559723595316457e+00 1.0000000000000000e+00 4.2000000000000000e+03 8.0000000000000000e+00 1.4000000000000000e+01 2.5000000000000000e+00 
89 2 4 2.2559723595316457e+00 1.0000000000000000e+00 4.2000000000000000e+03 8.0000000000000000e+00 1.6000000000000000e+01 2.5000000000000000e+00 
108 2 4 2.2559723595316457e+00 1.0000000000000000e+00 4.2000000000000000e+03 1.0000000000000000e+01 1.4000000000000000e+01 2.5000000000000000e+00 
109 2 4 2.2559723595316457e+00 1.0000000000000000e+00 4.2000000000000000e+03 1.0000000000000000e+01 1.6000000000000000e+01 2.5000000000000000e+00 
128 2 4 2.2559723595316457e+00 1.0000000000000000e+00 4.2000000000000000e+03 1.2000000000000000e+01 1.4000000000000000e+01 2.5000000000000000e+00 
129 2 4 2.2559723595316457e+00 1.0000000000000000e+00 4.2000000000000000e+03 1.2000000000000000e+01 1.6000000000000000e+01 2.5000000000000000e+00 
148 2 4 2.2559723595316457e+00 6.8610127276752597e-01 4.2000000000000000e+03 1.4000000000000000e+01 1.4000000000000000e+01 2.5000000000000000e+00 
149 2 4 2.2559723595316457e+00 6.8611125424200581e-01 4.2000000000000000e+03 1.4000000000000000e+01 1.6000000000000000e+01 2.5000000000000000e+00 
168 2 4 2.2559723595316457e+00 -8.6587094626929769e+01 4.2000000000000000e+03 1.6000000000000000e+01 1.4000000000000000e+01 2.5000000000000000e+00 
169 2 4 2.2559723595316457e+00 -8.6550841762826522e+01 4.2000000000000000e+03 1.6000000000000000e+01 1.6000000000000000e+01 2.5000000000000000e+00 
188 2 4 2.2559723595316457e+00 -9.1474967927159938e+01 4.2000000000000000e+03 1.8000000000000000e+01 1.4000000000000000e+01 2.5000000000000000e+00 
189 2 4 2.2559723595316457e+00 -9.1461949143310136e+01 4.2000000000000000e+03 1.8000000000000000e+01 1.6000000000000000e+01 2.5000000000000000e+00 
10 2 4 2.2559723595316457e+00 9.6454592672098838e-01 4.2000000000000000e+03 0.0000000000000000e+00 1.8000000000000000e+01 2.5000000000000000e+00 
30 2 4 2.2559723595316457e+00 1.0000227976632146e+00 4.2000000000000000e+03 2.0000000000000000e+00 1.8000000000000000e+01 2.5000000000000000e+00 
50 2 4 2.2559723595316457e+00 1.0000007189201927e+00 4.2000000000000000e+03 4.0000000000000000e+00 1.8000000000000000e+01 2.5000000000000000e+00 
70 2 4 2.2559723595316457e+00 1.0000001060207155e+00 4.2000000000000000e+03 6.0000000000000000e+00 1.8000000000000000e+01 2.5000000000000000e+00 
90 2 4 2.2559723595316457e+00 1.0000000000000000e+00 4.2000000000000000e+03 8.0000000000000000e+00 1.8000000000000000e+01 2.5000000000000000e+00 
110 2 4 2.2559723595316457e+00 1.0000000000000000e+00 4.2000000000000000e+03 1.0000000000000000e+01 1.8000000000000000e+01 2.5000000000000000e+00 
130 2 4 2.2559723595316457e+00 9.9999996339995501e-01 4.2000000000000000e+03 1.2000000000000000e+01 1.8000000000000000e+01 2.5000000000000000e+00 
150 2 4 2.2559723595315502e+00 6.8610519592805352e-01 4.2000000000000000e+03 1.4000000000000000e+01 1.8000000000000000e+01 2.5000000000000000e+00 
170 2 4 2.2559723595316457e+00 -8.6573401014869589e+01 4.2000000000000000e+03 1.6000000000000000e+01 1.8000000000000000e+01 2.5000000000000000e+00 
190 2 4 2.2559723595316457e+00 -9.1478897605430063e+01 4.2000000000000000e+03 1.8000000000000000e+01 1.8000000000000000e+01 2.5000000000000000e+00 
712 314 2 1.0279999904095187e+00 -1.4212681618788158e+03 4.2000000000000000e+03 1.4568390777867249e+01 2.5704217140205710e-02 2.6481126395059601e+01 
663 265 2 1.0279999970190679e+00 -1.4143671296238051e+03 4.2000000000000000e+03 1.4671171145999722e+01 4.2345495892012335e-04 2.6485494858365982e+01 
1955 1557 2 1.0279999796873733e+00 3.0235307019105871e+03 4.2000000000000000e+03 1.4393601508509933e+01 8.3112613075169595e-02 2.6492690107584455e+01 
1170 772 2 1.0279999580264669e+00 1.0564137705212022e+03 4.2000000000000000e+03 1.9131911257508133e+01 8.4346976640049198e-01 2.5368134091098593e+01 
1171 773 2 1.0279999585885322e+00 1.0564127347508409e+03 4.2000000000000000e+03 1.8830854357303782e+01 8.4236518937028071e-01 2.5370282202271643e+01 
1119 721 2 1.0279998217354698e+00 -2.2672124929172159e+02 4.2000000000000000e+03 1.9915563379544782e+01 1.1027473407695323e+00 2.6280887134300254e+01 
1118 720 2 1.0279998312300955e+00 -2.2671745272963261e+02 4.2000000000000000e+03 1.8033567923459476e+01 1.0976979522284320e+00 2.6291291782610564e+01 
1933 1535 2 1.0279997142731736e+00 4.3956021751271473e+03 4.2000000000000000e+03 9.0678577649248293e+00 5.4983585428913528e-01 2.8499129403188171e+01 
2038 1640 2 1.0279996523965245e+00 3.4173264809753659e+03 4.2000000000000000e+03 9.0084195880344868e+00 5.7408935733847122e-01 2.8527549405729236e+01 
984 586 2 1.0279996163440765e+00 3.3425399061782709e+03 4.2000000000000000e+03 9.0642359028007817e+00 6.1682626672262619e-01 2.8549652386148690e+01 
1290 892 2 1.0279996011829358e+00 1.4060764090159848e+03 4.2000000000000000e+03 8.6173448681813660e+00 5.7840285738860708e-01 2.8627759235383724e+01 
1948 1550 2 1.0279993056223731e+00 1.6638632681330323e+03 4.2000000000000000e+03 9.6079297914276225e+00 1.0872029599146897e+00 2.8639379226398894e+01 
1006 608 2 1.0279996856200311e+00 -3.4457992960020914e+02 4.2000000000000000e+03 7.5580049684910859e+00 1.0886473236043586e+00 2.9445830493760781e+01 
1882 1484 2 1.0280000297467375e+00 -8.3588418247548925e+03 4.2000000000000000e+03 1.1591661982721128e+01 1.2126772496577913e+00 2.7470268921651954e+01 
1829 1431 2 1.0279998902274505e+00 -7.2451926444729879e+03 4.2000000000000000e+03 1.3221726713824349e+01 1.5676022532030625e+00 2.7673219319491690e+01 
1958 1560 2 1.0280000385135779e+00 3.5805545612420442e+03 4.2000000000000000e+03 1.1021589756573226e+01 1.0113877744922690e+00 2.7739524524345303e+01 
1792 1394 2 1.0279998267316219e+00 -3.2010598385671838e+03 4.2000000000000000e+03 1.3225566461526718e+01 1.7091890498761042e+00 2.7874983964956844e+01 
631 233 2 1.0279998012988962e+00 -4.4515955392793348e+03 4.2000000000000000e+03 1.3291611966332484e+01 1.5794202746209778e+00 2.7896586140048232e+01 
430 32 2 1.0279996757722134e+00 1.9003911529141578e+03 4.2000000000000000e+03 1.3201083718940222e+01 1.7611820344117830e+00 2.8392677466409602e+01 
451 53 2 1.0279999430404236e+00 6.1882838157496381e+03 4.2000000000000000e+03 1.2316026948988350e+01 9.1066332992779830e-01 2.8811369579362449e+01 
1227 829 2 1.0279998870026770e+00 -5.3275891879566789e+03 4.2000000000000000e+03 1.2435508171858954e+01 2.8596443759048262e+00 2.9950870584240686e+01 
1976 1578 2 1.0279998769848748e+00 -2.5423030022667785e+03 4.2000000000000000e+03 1.3630487060525162e+01 1.0404019833734730e+00 2.7502429264266450e+01 
583 185 2 1.0279998714571723e+00 -5.3778062559450946e+03 4.2000000000000000e+03 1.8176048526903344e+01 1.9821391963321755e+00 2.7394467143967258e+01 
582 184 2 1.0279998703618771e+00 -5.3777874340406242e+03 4.2000000000000000e+03 1.9775467512323825e+01 1.9894381903924441e+00 2.7394543535447319e+01 
1442 1044 2 1.0279996844123040e+00 -9.5931209152636200e+02 4.2000000000000000e+03 1.9664709933289181e+01 8.7313739811677538e-01 2.7386244763654581e+01 
1443 1045 2 1.0279996894657333e+00 -9.5930326746349010e+02 4.2000000000000000e+03 1.8297930022802401e+01 8.6586219577641932e-01 2.7404397187579015e+01 
1125 727 2 1.0280000745557700e+00 -2.3809711085683779e+02 4.2000000000000000e+03 1.9594104152920792e+01 1.6962745307236731e+00 2.8060546173618931e+01 
1128 730 2 1.0280000762279276e+00 -2.3809964156959475e+02 4.2000000000000000e+03 1.8364147542941677e+01 1.6948007078981486e+00 2.8069147889238817e+01 
966 568 2 1.0280001658723623e+00 -5.1323640882601455e+02 4.2000000000000000e+03 1.9657195993449687e+01 2.0513435598616221e+00 2.8291963718570322e+01 
967 569 2 1.0280001659976321e+00 -5.1324272201943177e+02 4.2000000000000000e+03 1.8300155793290742e+01 2.0530537896623779e+00 2.8295501998049101e+01 
751 353 2 1.0280000663842392e+00 -1.1334622834856486e+03 4.2000000000000000e+03 1.1007889127339038e+01 3.6501208085496697e+00 2.8433257709275082e+01 
1387 989 2 1.0280000315825570e+00 -2.3488199093281874e+03 4.2000000000000000e+03 1.2013397601714113e+01 3.8841012580721417e+00 2.8433360353468991e+01 
2049 1651 2 1.0280000866890411e+00 1.8869214275756592e+03 4.2000000000000000e+03 1.1114913043746002e+01 3.7359980297476194e+00 2.8467689010656915e+01 
1619 1221 2 1.0280001036994211e+00 -2.4916394549209849e+03 4.2000000000000000e+03 1.1271648925395006e+01 3.8278676663081290e+00 2.8496305222455785e+01 
957 559 2 1.0280001048856697e+00 1.4931485791114080e+03 4.2000000000000000e+03 1.1428617140459473e+01 3.8819117884059349e+00 2.8492161983670275e+01 
1755 1357 2 1.0280000596234227e+00 -2.4953751023539430e+03 4.2000000000000000e+03 1.0868732575308846e+01 3.6203720785380327e+00 2.8541847964894860e+01 
520 122 2 1.0280000944963861e+00 -5.5887220707731167e+03 4.2000000000000000e+03 1.1072839784316033e+01 3.7591205067882818e+00 2.8553691093309734e+01 
866 468 2 1.0280001107168717e+00 -2.1129254131324851e+03 4.2000000000000000e+03 1.1217764805321167e+01 3.8412430258037320e+00 2.8571188785530474e+01 
1558 1160 2 1.0279996142545424e+00 -2.7261835972151507e+03 4.2000000000000000e+03 1.8953780813424864e+01 3.9101917342460077e+00 2.8788768866205700e+01 
1559 1161 2 1.0279996137288663e+00 -2.7261847514384690e+03 4.2000000000000000e+03 1.9016713640501127e+01 3.9100539998377255e+00 2.8789029963551570e+01 
1652 1254 2 1.0279996620899838e+00 9.4206217850174980e+03 4.2000000000000000e+03 1.8765769171011613e+01 3.8681183123167457e+00 2.8803156590032522e+01 
1649 1251 2 1.0279996585848072e+00 9.4206165010159366e+03 4.2000000000000000e+03 1.9203625279501555e+01 3.8674218579749970e+00 2.8804769300275961e+01 
990 592 2 1.0279995782418461e+00 -1.6685187639370874e+03 4.2000000000000000e+03 1.8828902716554246e+01 3.8962148540980173e+00 2.8850000827643786e+01 
991 593 2 1.0279995754858426e+00 -1.6685310643559744e+03 4.2000000000000000e+03 1.9140955591084758e+01 3.8955932076882736e+00 2.8851077971576977e+01 
1376 978 2 1.0279996538989722e+00 -1.1100712892171443e+03 4.2000000000000000e+03 1.8683363801007769e+01 3.8297300467732986e+00 2.8873531527361251e+01 
1373 975 2 1.0279996486301277e+00 -1.1100781555441085e+03 4.2000000000000000e+03 1.9284957281259295e+01 3.8291366125981532e+00 2.8875651805237460e+01 
441 43 2 1.0280000668992377e+00 -8.2234290096548248e+03 4.2000000000000000e+03 2.7057449419626138e+00 1.6245477441193328e+00 3.2083573787573414e+01 
941 543 2 1.0280000214863283e+00 -4.5182116278337907e+02 4.2000000000000000e+03 2.9201093107775189e+00 1.0102041594289120e+00 3.2172612515556537e+01 
2044 1646 2 1.0279999091913961e+00 -2.4942168179696200e+03 4.2000000000000000e+03 8.6941070404039267e-01 1.1446316180876124e+00 3.2212664722278348e+01 
1640 1242 2 1.0279998186461814e+00 8.2946595583434755e+03 4.2000000000000000e+03 4.9720336607510007e-01 1.0054359009641307e+00 3.2243805396534768e+01 
1013 615 2 1.0279997951792226e+00 2.4239053233295704e+03 4.2000000000000000e+03 6.3731376091955239e-01 5.3812260725162520e-01 3.2320014672420641e+01 
1949 1551 2 1.0279987014464336e+00 -3.4956662244906934e+03 4.2000000000000000e+03 2.9438683746510339e+00 2.0340231860991320e+00 3.2890403972036481e+01 
474 76 2 1.0280000812069561e+00 9.3130437836964884e+03 4.2000000000000000e+03 2.7057641881543075e+00 9.6010783213584150e-01 3.2899206916996256e+01 
1561 1163 2 1.0279991769422714e+00 4.3570513545437761e+03 4.2000000000000000e+03 2.7533328596913913e+00 1.8597809828891831e+00 3.2983703124814461e+01 
2011 1613 2 1.0279997298839891e+00 7.1010098129069756e+03 4.2000000000000000e+03 3.3578519499982512e-01 2.4901611914279869e+00 3.3088991281940856e+01 
635 237 2 1.0279998548812155e+00 -1.0375969702544241e+03 4.2000000000000000e+03 6.1858729416222396e+00 7.2446317761863499e-01 3.0207993589401745e+01 
937 539 2 1.0280003323262692e+00 3.2457523518737630e+03 4.2000000000000000e+03 4.8344530810463908e+00 7.3688990464618676e-01 3.1155813531547739e+01 
1542 1144 2 1.0280005716974108e+00 -2.0232940305530055e+03 4.2000000000000000e+03 5.3052116789628609e+00 2.2986764892855565e+00 3.1242713649670801e+01 
1168 770 2 1.0279990048785932e+00 1.0989694728387158e+03 4.2000000000000000e+03 6.5059806860509894e+00 2.7476147952405148e+00 3.1483506032033290e+01 
1319 921 2 1.0279992513614793e+00 8.1122958003030385e+02 4.2000000000000000e+03 6.3927735238383780e+00 2.6932658841071460e+00 3.1494619826759291e+01 
1800 1402 2 1.0280006585893962e+00 -6.6508740643813926e+03 4.2000000000000000e+03 5.0865380521084225e+00 2.6713786410060614e+00 3.1533785476947234e+01 
972 574 2 1.0280000356115346e+00 4.5477339165476305e+03 4.2000000000000000e+03 4.3829390088106441e+00 8.4978068814450947e-01 3.1791023541920389e+01 
1322 924 2 1.0280000360475507e+00 -5.3878044478080358e+02 4.2000000000000000e+03 4.2976812626836907e+00 8.8030503681321259e-01 3.1842110160592664e+01 
715 317 2 1.0279999816234071e+00 -5.2424009445570255e+02 4.2000000000000000e+03 3.6818487967751876e+00 1.0026242480291903e+00 3.2108859931999788e+01 
1172 774 2 1.0279996135795091e+00 -9.6554828284344956e+02 4.2000000000000000e+03 7.6054807729888489e+00 2.0524088530872326e+00 3.0031139735228066e+01 
1504 1106 2 1.0279997437908166e+00 3.0780105625651731e+03 4.2000000000000000e+03 7.5931235645920152e+00 2.2929946268546617e+00 3.0188446192841617e+01 
483 85 2 1.0280002647395141e+00 5.7698510947558725e+03 4.2000000000000000e+03 8.5563635940116445e+00 2.6143881133112532e+00 3.0309236505778081e+01 
639 241 2 1.0279999725803479e+00 -2.3090159986791041e+03 4.2000000000000000e+03 7.7720347864122976e+00 2.6772851638542394e+00 3.0361989906233511e+01 
1359 961 2 1.0279996860150862e+00 -7.9631985703984674e+02 4.2000000000000000e+03 8.3825200300833611e+00 2.4585764804997643e+00 3.0551528597246833e+01 
1898 1500 2 1.0280008795388149e+00 -2.6748018591337814e+03 4.2000000000000000e+03 5.1440136468473572e+00 3.5371063983432820e+00 3.2524067517857148e+01 
1710 1312 2 1.0280010615090101e+00 -1.4639965954044412e+03 4.2000000000000000e+03 5.0887428410258657e+00 3.6682856144423508e+00 3.2522561731663075e+01 
2002 1604 2 1.0280004822029978e+00 6.7144601905202944e+03 4.2000000000000000e+03 4.9621870318980168e+00 4.0537282564394062e+00 3.2836571756980938e+01 
1492 1094 2 1.0279971353215234e+00 8.4606876510248312e+03 4.2000000000000000e+03 4.1011464723432836e+00 3.6975646044004842e+00 3.2999306227062299e+01 
531 133 2 1.0279981984271949e+00 3.4819246493625101e+03 4.2000000000000000e+03 4.3214516421711693e+00 3.7542496545278019e+00 3.3155747816064398e+01 
674 276 2 1.0280006996979030e+00 -3.8856068882965806e+03 4.2000000000000000e+03 8.7232224362283155e+00 3.3733314958264562e+00 3.1032155303130672e+01 
1044 646 2 1.0279994625562381e+00 -1.0010296208510407e+03 4.2000000000000000e+03 8.4496097366148160e+00 3.8495160208888222e+00 3.1347427532904177e+01 
2024 1626 2 1.0279991764752032e+00 -1.7025986238005607e+03 4.2000000000000000e+03 8.5929230218568815e+00 3.9345523686940682e+00 3.1487244829058675e+01 
647 249 2 1.0279991123384706e+00 -4.2320931287654357e+03 4.2000000000000000e+03 9.0179715665714593e+00 4.4175442852172075e+00 3.2118595100323731e+01 
1207 809 2 1.0279983322260535e+00 -1.8152849327347781e+03 4.2000000000000000e+03 8.8283053939623954e+00 4.6308740602558309e+00 3.2569065990236624e+01 
625 227 2 1.0280010490994897e+00 -1.5075311763326656e+03 4.2000000000000000e+03 9.3790087806343099e+00 4.4408326509383738e+00 3.2756311177849859e+01 
823 425 2 1.0279991447295698e+00 -1.0122305096621651e+03 4.2000000000000000e+03 8.8913147635932432e+00 4.6922947930808867e+00 3.2763560963368789e+01 
1817 1419 2 1.0279994765724887e+00 -9.0521653645972474e+03 4.2000000000000000e+03 8.9335164130085847e+00 4.7352186829860710e+00 3.2859992689353618e+01 
1979 1581 2 1.0279995371146007e+00 6.3509582236608785e+03 4.2000000000000000e+03 8.9723193913845023e+00 4.9145545251938900e+00 3.2911018625647465e+01 
1688 1290 2 1.0280003417245267e+00 9.2923020815791260e+03 4.2000000000000000e+03 1.1705539714578380e+01 3.4520151924852285e+00 3.0097261274408041e+01 
633 235 2 1.0280004042381818e+00 -8.5275251553936923e+03 4.2000000000000000e+03 1.3009905641868254e+01 3.7431289298555854e+00 3.0778846716861096e+01 
409 11 2 1.0279985572846990e+00 3.7192670332161460e+03 4.2000000000000000e+03 1.3551847652877541e+01 3.9819258567348492e+00 3.0395261030673389e+01 
1724 1326 2 1.0279988596012317e+00 8.8334581976059126e+03 4.2000000000000000e+03 1.3826598596903871e+01 4.1280918370548427e+00 3.0633008086491984e+01 
1615 1217 2 1.0279993688955102e+00 -2.4566422281210503e+03 4.2000000000000000e+03 1.4269007673703330e+01 4.6376310537302636e+00 3.0878377959371274e+01 
962 564 2 1.0279993617684431e+00 1.4363673681071002e+03 4.2000000000000000e+03 1.4396014448045326e+01 4.4554992058926883e+00 3.0935960023062297e+01 
473 75 2 1.0279997349377283e+00 -7.2884567902632380e+03 4.2000000000000000e+03 1.5131573392970500e+01 4.6853972875253156e+00 3.1343621225871555e+01 
964 566 2 1.0280000987973095e+00 3.8611647150173967e+03 4.2000000000000000e+03 1.5713791423985274e+01 5.0458137725704049e+00 3.1696080719875699e+01 
1357 959 2 1.0280006312023477e+00 2.7793102163574878e+02 4.2000000000000000e+03 1.3369763849531489e+01 4.3173498026717301e+00 3.1855315548080462e+01 
1917 1519 2 1.0279997727744279e+00 -3.3075762481941665e+03 4.2000000000000000e+03 1.4637775840070290e+01 5.8789919864461879e+00 3.2140502840838522e+01 
1802 1404 2 1.0280005582614411e+00 -4.7549159400548788e+03 4.2000000000000000e+03 1.3510378603297335e+01 4.4174182159146937e+00 3.2144312424471210e+01 
1022 624 2 1.0280004588269689e+00 4.0282841176076698e+02 4.2000000000000000e+03 1.3601934187191572e+01 4.3287018853411485e+00 3.2146304188983223e+01 
1307 909 2 1.0280001269039065e+00 -7.1464380998157264e+02 4.2000000000000000e+03 1.6127187967874139e+01 5.6099114511020449e+00 3.2166386766414476e+01 
741 343 2 1.0280006397348744e+00 2.5963534160059771e+03 4.2000000000000000e+03 1.3599364521700762e+01 4.7368439826209503e+00 3.2528709815953469e+01 
1484 1086 2 1.0280008144933683e+00 5.2299264871971673e+03 4.2000000000000000e+03 1.3548887484428896e+01 4.9405316768912169e+00 3.2607479051389866e+01 
730 332 2 1.0280009812539395e+00 -1.1502984829613668e+04 4.2000000000000000e+03 1.6448633360295780e+01 5.6380926916978682e+00 3.3247831545935199e+01 