LAMMPS data file via write_data, version 30 Jul 2016, timestep = 600000

2080 atoms
8 atom types

0.0000000000000000e+00 4.0000000000000000e+01 xlo xhi
0.0000000000000000e+00 4.0000000000000000e+01 ylo yhi
0.0000000000000000e+00 1.0000000000000000e+02 zlo zhi

Masses

1 3.896
2 5.36
3 1058.08
4 8.378
5 8.378
6 8.378
7 8.378
8 8.378

Atoms # meso-molecular

1 2 4 2.2559723595316457e+00 1.0000000000000000e+00 4.2000000000000000e+03 0.0000000000000000e+00 0.0000000000000000e+00 2.5000000000000000e+00 
2 2 4 2.2559723595316457e+00 1.0000000000000000e+00 4.2000000000000000e+03 0.0000000000000000e+00 2.0000000000000000e+00 2.5000000000000000e+00 
21 2 4 2.2559723595316457e+00 1.0000000000000000e+00 4.2000000000000000e+03 2.0000000000000000e+00 0.0000000000000000e+00 2.5000000000000000e+00 
22 2 4 2.2559723595316457e+00 1.0000000000000000e+00 4.2000000000000000e+03 2.0000000000000000e+00 2.0000000000000000e+00 2.5000000000000000e+00 
41 2 4 2.2559723595316457e+00 1.0000000000000000e+00 4.2000000000000000e+03 4.0000000000000000e+00 0.0000000000000000e+00 2.5000000000000000e+00 
42 2 4 2.2559723595316457e+00 1.0000000000000000e+00 4.2000000000000000e+03 4.0000000000000000e+00 2.0000000000000000e+00 2.5000000000000000e+00 
61 2 4 2.2559723595316457e+00 1.0000000000000000e+00 4.2000000000000000e+03 6.0000000000000000e+00 0.0000000000000000e+00 2.5000000000000000e+00 
62 2 4 2.2559723595316457e+00 1.0000000000000000e+00 4.2000000000000000e+03 6.0000000000000000e+00 2.0000000000000000e+00 2.5000000000000000e+00 
81 2 4 2.2559723595316457e+00 1.0000000000000000e+00 4.2000000000000000e+03 8.0000000000000000e+00 0.0000000000000000e+00 2.5000000000000000e+00 
82 2 4 2.2559723595316457e+00 1.0000000000000000e+00 4.2000000000000000e+03 8.0000000000000000e+00 2.0000000000000000e+00 2.5000000000000000e+00 
101 2 4 2.2559723595316457e+00 1.0000000000000000e+00 4.2000000000000000e+03 1.0000000000000000e+01 0.0000000000000000e+00 2.5000000000000000e+00 
102 2 4 2.2559723595316457e+00 1.0000000000000000e+00 4.2000000000000000e+03 1.0000000000000000e+01 2.0000000000000000e+00 2.5000000000000000e+00 
121 2 4 2.2559723595316457e+00 1.0000000000000000e+00 4.2000000000000000e+03 1.2000000000000000e+01 0.0000000000000000e+00 2.5000000000000000e+00 
122 2 4 2.2559723595316457e+00 1.0000000000000000e+00 4.2000000000000000e+03 1.2000000000000000e+01 2.0000000000000000e+00 2.5000000000000000e+00 
141 2 4 2.2559723595316457e+00 1.0000000000000000e+00 4.2000000000000000e+03 1.4000000000000000e+01 0.0000000000000000e+00 2.5000000000000000e+00 
142 2 4 2.2559723595316457e+00 1.0000000000000000e+00 4.2000000000000000e+03 1.4000000000000000e+01 2.0000000000000000e+00 2.5000000000000000e+00 
161 2 4 2.2559723595316457e+00 1.0000000000000000e+00 4.2000000000000000e+03 1.6000000000000000e+01 0.0000000000000000e+00 2.5000000000000000e+00 
162 2 4 2.2559723595316457e+00 1.0000000000000000e+00 4.2000000000000000e+03 1.6000000000000000e+01 2.0000000000000000e+00 2.5000000000000000e+00 
181 2 4 2.2559723595316457e+00 1.0000000000000000e+00 4.2000000000000000e+03 1.8000000000000000e+01 0.0000000000000000e+00 2.5000000000000000e+00 
182 2 4 2.2559723595316457e+00 1.0000000000000000e+00 4.2000000000000000e+03 1.8000000000000000e+01 2.0000000000000000e+00 2.5000000000000000e+00 
3 2 4 2.2559723595316457e+00 1.0000000000000000e+00 4.2000000000000000e+03 0.0000000000000000e+00 4.0000000000000000e+00 2.5000000000000000e+00 
4 2 4 2.2559723595316457e+00 1.0000000000000000e+00 4.2000000000000000e+03 0.0000000000000000e+00 6.0000000000000000e+00 2.5000000000000000e+00 
23 2 4 2.2559723595316457e+00 1.0000000000000000e+00 4.2000000000000000e+03 2.0000000000000000e+00 4.0000000000000000e+00 2.5000000000000000e+00 
24 2 4 2.2559723595316457e+00 1.0000000000000000e+00 4.2000000000000000e+03 2.0000000000000000e+00 6.0000000000000000e+00 2.5000000000000000e+00 
43 2 4 2.2559723595316457e+00 1.0000000000000000e+00 4.2000000000000000e+03 4.0000000000000000e+00 4.0000000000000000e+00 2.5000000000000000e+00 
44 2 4 2.2559723595316457e+00 1.0000000000000000e+00 4.2000000000000000e+03 4.0000000000000000e+00 6.0000000000000000e+00 2.5000000000000000e+00 
63 2 4 2.2559723595316457e+00 1.0000000000000000e+00 4.2000000000000000e+03 6.0000000000000000e+00 4.0000000000000000e+00 2.5000000000000000e+00 
64 2 4 2.2559723595316457e+00 1.0000000000000000e+00 4.2000000000000000e+03 6.0000000000000000e+00 6.0000000000000000e+00 2.5000000000000000e+00 
83 2 4 2.2559723595316457e+00 1.0000000000000000e+00 4.2000000000000000e+03 8.0000000000000000e+00 4.0000000000000000e+00 2.5000000000000000e+00 
84 2 4 2.2559723595316457e+00 1.0000000000000000e+00 4.2000000000000000e+03 8.0000000000000000e+00 6.0000000000000000e+00 2.5000000000000000e+00 
103 2 4 2.2559723595316457e+00 1.0000000000000000e+00 4.2000000000000000e+03 1.0000000000000000e+01 4.0000000000000000e+00 2.5000000000000000e+00 
104 2 4 2.2559723595316457e+00 1.0000000000000000e+00 4.2000000000000000e+03 1.0000000000000000e+01 6.0000000000000000e+00 2.5000000000000000e+00 
123 2 4 2.2559723595316457e+00 1.0000000000000000e+00 4.2000000000000000e+03 1.2000000000000000e+01 4.0000000000000000e+00 2.5000000000000000e+00 
124 2 4 2.2559723595316457e+00 1.0000000000000000e+00 4.2000000000000000e+03 1.2000000000000000e+01 6.0000000000000000e+00 2.5000000000000000e+00 
143 2 4 2.2559723595316457e+00 1.0000000000000000e+00 4.2000000000000000e+03 1.4000000000000000e+01 4.0000000000000000e+00 2.5000000000000000e+00 
144 2 4 2.2559723595316457e+00 1.0000000000000000e+00 4.2000000000000000e+03 1.4000000000000000e+01 6.0000000000000000e+00 2.5000000000000000e+00 
163 2 4 2.2559723595316457e+00 1.0000000000000000e+00 4.2000000000000000e+03 1.6000000000000000e+01 4.0000000000000000e+00 2.5000000000000000e+00 
164 2 4 2.2559723595316457e+00 1.0000000000000000e+00 4.2000000000000000e+03 1.6000000000000000e+01 6.0000000000000000e+00 2.5000000000000000e+00 
183 2 4 2.2559723595316457e+00 1.0000000000000000e+00 4.2000000000000000e+03 1.8000000000000000e+01 4.0000000000000000e+00 2.5000000000000000e+00 
184 2 4 2.2559723595316457e+00 1.0000000000000000e+00 4.2000000000000000e+03 1.8000000000000000e+01 6.0000000000000000e+00 2.5000000000000000e+00 
5 2 4 2.2559723595316457e+00 1.0000000000000000e+00 4.2000000000000000e+03 0.0000000000000000e+00 8.0000000000000000e+00 2.5000000000000000e+00 
25 2 4 2.2559723595316457e+00 1.0000000000000000e+00 4.2000000000000000e+03 2.0000000000000000e+00 8.0000000000000000e+00 2.5000000000000000e+00 
45 2 4 2.2559723595316457e+00 1.0000000000000000e+00 4.2000000000000000e+03 4.0000000000000000e+00 8.0000000000000000e+00 2.5000000000000000e+00 
65 2 4 2.2559723595316457e+00 1.0000000000000000e+00 4.2000000000000000e+03 6.0000000000000000e+00 8.0000000000000000e+00 2.5000000000000000e+00 
85 2 4 2.2559723595316457e+00 1.0000000000000000e+00 4.2000000000000000e+03 8.0000000000000000e+00 8.0000000000000000e+00 2.5000000000000000e+00 
105 2 4 2.2559723595316457e+00 1.0000000000000000e+00 4.2000000000000000e+03 1.0000000000000000e+01 8.0000000000000000e+00 2.5000000000000000e+00 
125 2 4 2.2559723595316457e+00 1.0000000000000000e+00 4.2000000000000000e+03 1.2000000000000000e+01 8.0000000000000000e+00 2.5000000000000000e+00 
145 2 4 2.2559723595316457e+00 1.0000000000000000e+00 4.2000000000000000e+03 1.4000000000000000e+01 8.0000000000000000e+00 2.5000000000000000e+00 
165 2 4 2.2559723595316457e+00 7.1948152313454106e-01 4.2000000000000000e+03 1.6000000000000000e+01 8.0000000000000000e+00 2.5000000000000000e+00 
185 2 4 2.2559723595316457e+00 6.8624807970636836e-01 4.2000000000000000e+03 1.8000000000000000e+01 8.0000000000000000e+00 2.5000000000000000e+00 
6 2 4 2.2559723595316457e+00 1.0000000000000000e+00 4.2000000000000000e+03 0.0000000000000000e+00 1.0000000000000000e+01 2.5000000000000000e+00 
7 2 4 2.2559723595316457e+00 1.0000000000000000e+00 4.2000000000000000e+03 0.0000000000000000e+00 1.2000000000000000e+01 2.5000000000000000e+00 
26 2 4 2.2559723595316457e+00 1.0000000000000000e+00 4.2000000000000000e+03 2.0000000000000000e+00 1.0000000000000000e+01 2.5000000000000000e+00 
27 2 4 2.2559723595316457e+00 1.0000000000000000e+00 4.2000000000000000e+03 2.0000000000000000e+00 1.2000000000000000e+01 2.5000000000000000e+00 
46 2 4 2.2559723595316457e+00 1.0000000000000000e+00 4.2000000000000000e+03 4.0000000000000000e+00 1.0000000000000000e+01 2.5000000000000000e+00 
47 2 4 2.2559723595316457e+00 1.0000000000000000e+00 4.2000000000000000e+03 4.0000000000000000e+00 1.2000000000000000e+01 2.5000000000000000e+00 
66 2 4 2.2559723595316457e+00 1.0000000000000000e+00 4.2000000000000000e+03 6.0000000000000000e+00 1.0000000000000000e+01 2.5000000000000000e+00 
67 2 4 2.2559723595316457e+00 1.0000000000000000e+00 4.2000000000000000e+03 6.0000000000000000e+00 1.2000000000000000e+01 2.5000000000000000e+00 
86 2 4 2.2559723595316457e+00 1.0000000000000000e+00 4.2000000000000000e+03 8.0000000000000000e+00 1.0000000000000000e+01 2.5000000000000000e+00 
87 2 4 2.2559723595316457e+00 1.0000000000000000e+00 4.2000000000000000e+03 8.0000000000000000e+00 1.2000000000000000e+01 2.5000000000000000e+00 
106 2 4 2.2559723595316457e+00 1.0000000000000000e+00 4.2000000000000000e+03 1.0000000000000000e+01 1.0000000000000000e+01 2.5000000000000000e+00 
107 2 4 2.2559723595316457e+00 1.0000000000000000e+00 4.2000000000000000e+03 1.0000000000000000e+01 1.2000000000000000e+01 2.5000000000000000e+00 
126 2 4 2.2559723595316457e+00 1.0000000000000000e+00 4.2000000000000000e+03 1.2000000000000000e+01 1.0000000000000000e+01 2.5000000000000000e+00 
127 2 4 2.2559723595316457e+00 1.0000000000000000e+00 4.2000000000000000e+03 1.2000000000000000e+01 1.2000000000000000e+01 2.5000000000000000e+00 
146 2 4 2.2559723595316457e+00 7.1948164943301807e-01 4.2000000000000000e+03 1.4000000000000000e+01 1.0000000000000000e+01 2.5000000000000000e+00 
147 2 4 2.2559723595316457e+00 6.8626129901632749e-01 4.2000000000000000e+03 1.4000000000000000e+01 1.2000000000000000e+01 2.5000000000000000e+00 
166 2 4 2.2559723595316457e+00 -7.9280898985587882e+01 4.2000000000000000e+03 1.6000000000000000e+01 1.0000000000000000e+01 2.5000000000000000e+00 
167 2 4 2.2559723595316457e+00 -8.6940854669254506e+01 4.2000000000000000e+03 1.6000000000000000e+01 1.2000000000000000e+01 2.5000000000000000e+00 
186 2 4 2.2559723595316457e+00 -8.6978966547534895e+01 4.2000000000000000e+03 1.8000000000000000e+01 1.0000000000000000e+01 2.5000000000000000e+00 
187 2 4 2.2559723595316457e+00 -9.1764614764924659e+01 4.2000000000000000e+03 1.8000000000000000e+01 1.2000000000000000e+01 2.5000000000000000e+00 
8 2 4 2.2559723595316457e+00 1.0000000000000000e+00 4.2000000000000000e+03 0.0000000000000000e+00 1.4000000000000000e+01 2.5000000000000000e+00 
9 2 4 2.2559723595316457e+00 1.0000000000000000e+00 4.2000000000000000e+03 0.0000000000000000e+00 1.6000000000000000e+01 2.5000000000000000e+00 
28 2 4 2.2559723595316457e+00 1.0000000000000000e+00 4.2000000000000000e+03 2.0000000000000000e+00 1.4000000000000000e+01 2.5000000000000000e+00 
29 2 4 2.2559723595316457e+00 1.0000000000000000e+00 4.2000000000000000e+03 2.0000000000000000e+00 1.6000000000000000e+01 2.5000000000000000e+00 
48 2 4 2.2559723595316457e+00 1.0000000000000000e+00 4.2000000000000000e+03 4.0000000000000000e+00 1.4000000000000000e+01 2.5000000000000000e+00 
49 2 4 2.2559723595316457e+00 1.0000000000000000e+00 4.2000000000000000e+03 4.0000000000000000e+00 1.6000000000000000e+01 2.5000000000000000e+00 
68 2 4 2.2559723595316457e+00 1.0000000000000000e+00 4.2000000000000000e+03 6.0000000000000000e+00 1.4000000000000000e+01 2.5000000000000000e+00 
69 2 4 2.2559723595316457e+00 1.0000000000000000e+00 4.2000000000000000e+03 6.0000000000000000e+00 1.6000000000000000e+01 2.5000000000000000e+00 
88 2 4 2.2559723595316457e+00 1.0000000000000000e+00 4.2000000000000000e+03 8.0000000000000000e+00 1.4000000000000000e+01 2.5000000000000000e+00 
89 2 4 2.2559723595316457e+00 1.0000000000000000e+00 4.2000000000000000e+03 8.0000000000000000e+00 1.6000000000000000e+01 2.5000000000000000e+00 
108 2 4 2.2559723595316457e+00 1.0000000000000000e+00 4.2000000000000000e+03 1.0000000000000000e+01 1.4000000000000000e+01 2.5000000000000000e+00 
109 2 4 2.2559723595316457e+00 1.0000000000000000e+00 4.2000000000000000e+03 1.0000000000000000e+01 1.6000000000000000e+01 2.5000000000000000e+00 
128 2 4 2.2559723595316457e+00 1.0000000000000000e+00 4.2000000000000000e+03 1.2000000000000000e+01 1.4000000000000000e+01 2.5000000000000000e+00 
129 2 4 2.2559723595316457e+00 1.0000000000000000e+00 4.2000000000000000e+03 1.2000000000000000e+01 1.6000000000000000e+01 2.5000000000000000e+00 
148 2 4 2.2559723595316457e+00 6.8610127276752597e-01 4.2000000000000000e+03 1.4000000000000000e+01 1.4000000000000000e+01 2.5000000000000000e+00 
149 2 4 2.2559723595316457e+00 6.8611125424200581e-01 4.2000000000000000e+03 1.4000000000000000e+01 1.6000000000000000e+01 2.5000000000000000e+00 
168 2 4 2.2559723595316457e+00 -8.6587094626929769e+01 4.2000000000000000e+03 1.6000000000000000e+01 1.4000000000000000e+01 2.5000000000000000e+00 
169 2 4 2.2559723595316457e+00 -8.6550841762826522e+01 4.2000000000000000e+03 1.6000000000000000e+01 1.6000000000000000e+01 2.5000000000000000e+00 
188 2 4 2.2559723595316457e+00 -9.1474967927159938e+01 4.2000000000000000e+03 1.8000000000000000e+01 1.4000000000000000e+01 2.5000000000000000e+00 
189 2 4 2.2559723595316457e+00 -9.1461949143310136e+01 4.2000000000000000e+03 1.8000000000000000e+01 1.6000000000000000e+01 2.5000000000000000e+00 
10 2 4 2.2559723595386414e+00 9.6501689969599935e-01 4.2000000000000000e+03 0.0000000000000000e+00 1.8000000000000000e+01 2.5000000000000000e+00 
30 2 4 2.2559723595316457e+00 1.0000227976632146e+00 4.2000000000000000e+03 2.0000000000000000e+00 1.8000000000000000e+01 2.5000000000000000e+00 
50 2 4 2.2559723595341850e+00 1.0001908155107877e+00 4.2000000000000000e+03 4.0000000000000000e+00 1.8000000000000000e+01 2.5000000000000000e+00 
70 2 4 2.2559723595323860e+00 1.0000938501285344e+00 4.2000000000000000e+03 6.0000000000000000e+00 1.8000000000000000e+01 2.5000000000000000e+00 
90 2 4 2.2559723595316457e+00 1.0000000000000000e+00 4.2000000000000000e+03 8.0000000000000000e+00 1.8000000000000000e+01 2.5000000000000000e+00 
110 2 4 2.2559723595316457e+00 1.0000000000000000e+00 4.2000000000000000e+03 1.0000000000000000e+01 1.8000000000000000e+01 2.5000000000000000e+00 
130 2 4 2.2559723595316457e+00 1.0000000000000000e+00 4.2000000000000000e+03 1.2000000000000000e+01 1.8000000000000000e+01 2.5000000000000000e+00 
150 2 4 2.2559723595316457e+00 6.8610009332363120e-01 4.2000000000000000e+03 1.4000000000000000e+01 1.8000000000000000e+01 2.5000000000000000e+00 
170 2 4 2.2559723595316457e+00 -8.6573401014869589e+01 4.2000000000000000e+03 1.6000000000000000e+01 1.8000000000000000e+01 2.5000000000000000e+00 
190 2 4 2.2559723595316457e+00 -9.1478897605430063e+01 4.2000000000000000e+03 1.8000000000000000e+01 1.8000000000000000e+01 2.5000000000000000e+00 
1170 772 2 1.0280001868138813e+00 1.0564134839122710e+03 4.2000000000000000e+03 1.9130106641265360e+01 8.4442042551124930e-01 2.9158840511901165e+01 
1171 773 2 1.0280001870093824e+00 1.0564124463132159e+03 4.2000000000000000e+03 1.8833078604199557e+01 8.4319902090933940e-01 2.9160987711853419e+01 
1933 1535 2 1.0279994260851704e+00 4.3956016902775455e+03 4.2000000000000000e+03 9.1132810950039733e+00 5.5255555132890966e-01 3.2031330713568039e+01 
2038 1640 2 1.0279994225966407e+00 3.4173260166673804e+03 4.2000000000000000e+03 9.0503352466392570e+00 5.7790771874602853e-01 3.2057267800553248e+01 
984 586 2 1.0279993496720674e+00 3.3425394102718192e+03 4.2000000000000000e+03 9.1088656244338218e+00 6.2184732924397723e-01 3.2082722178092766e+01 
1290 892 2 1.0279995352900140e+00 1.4060760923952034e+03 4.2000000000000000e+03 8.6396912154214309e+00 5.8171311043006457e-01 3.2143024062003121e+01 
1948 1550 2 1.0279963390748836e+00 1.6638624751760360e+03 4.2000000000000000e+03 9.6662254999109631e+00 1.1100906822104322e+00 3.2198320441555701e+01 
1006 608 2 1.0279999173074164e+00 -3.4458014680610188e+02 4.2000000000000000e+03 7.5590798955893534e+00 1.0792602101597533e+00 3.2951178200735022e+01 
1882 1484 2 1.0279994788846187e+00 -8.3588425035997952e+03 4.2000000000000000e+03 1.1656989898705541e+01 1.2255877883289497e+00 3.1120088914959453e+01 
1958 1560 2 1.0279994234466123e+00 3.5805537036850096e+03 4.2000000000000000e+03 1.1103150480224604e+01 1.0208197667624146e+00 3.1365241568671372e+01 
451 53 2 1.0280011784376224e+00 6.1882831988694070e+03 4.2000000000000000e+03 1.2371636373171492e+01 9.0441483198206707e-01 3.2479333040315375e+01 
430 32 2 1.0279997194015713e+00 1.9003904116005385e+03 4.2000000000000000e+03 1.3263894068626039e+01 1.7565494959155383e+00 3.2098430624326376e+01 
1829 1431 2 1.0279990750791912e+00 -7.2451931410017914e+03 4.2000000000000000e+03 1.3286205613639614e+01 1.5924428222058002e+00 3.1358889900646812e+01 
1792 1394 2 1.0279992239634799e+00 -3.2010604118353526e+03 4.2000000000000000e+03 1.3291482281037899e+01 1.7293547422931217e+00 3.1563829940281110e+01 
1955 1557 2 1.0279995899069365e+00 3.0235304798572242e+03 4.2000000000000000e+03 1.4445836265160660e+01 1.0897854435389299e-01 3.0211729054118418e+01 
712 314 2 1.0279994315106133e+00 -1.4212684239128760e+03 4.2000000000000000e+03 1.4623385882743213e+01 5.3242515607626016e-02 3.0202499280600982e+01 
663 265 2 1.0279992873531674e+00 -1.4143674239797517e+03 4.2000000000000000e+03 1.4728271957906168e+01 2.9634932196048503e-02 3.0208366715139736e+01 
1976 1578 2 1.0279991207881698e+00 -2.5423034023269101e+03 4.2000000000000000e+03 1.3700794171124619e+01 1.0676174497940352e+00 3.1212114376630474e+01 
631 233 2 1.0279991849036805e+00 -4.4515961131824324e+03 4.2000000000000000e+03 1.3362002693203040e+01 1.5972577395830343e+00 3.1592151115311392e+01 
1443 1045 2 1.0280001474679079e+00 -9.5930371650860263e+02 4.2000000000000000e+03 1.8293286366594913e+01 8.3872808590563608e-01 3.1226120236829630e+01 
1119 721 2 1.0279993686497422e+00 -2.2672170690305973e+02 4.2000000000000000e+03 1.9925696988561210e+01 1.1199568461363123e+00 3.0064503236126349e+01 
1118 720 2 1.0279993413052049e+00 -2.2671791987953074e+02 4.2000000000000000e+03 1.8025702896921299e+01 1.1149092026085210e+00 3.0074330025969406e+01 
583 185 2 1.0279993295841805e+00 -5.3778066276740201e+03 4.2000000000000000e+03 1.8145286307642081e+01 1.9549643516834025e+00 3.1173916164465464e+01 
582 184 2 1.0279993609368412e+00 -5.3777877981965667e+03 4.2000000000000000e+03 1.9809736312369242e+01 1.9612622750318078e+00 3.1173827374798584e+01 
1442 1044 2 1.0280001422252356e+00 -9.5931253594674706e+02 4.2000000000000000e+03 1.9673621437439405e+01 8.4599040750230670e-01 3.1207629574322397e+01 
1125 727 2 1.0280003116746905e+00 -2.3809732647086352e+02 4.2000000000000000e+03 1.9597999720669133e+01 1.6513931899208421e+00 3.1851124502866455e+01 
1128 730 2 1.0280003089207874e+00 -2.3809986123909195e+02 4.2000000000000000e+03 1.8364299642863944e+01 1.6501331578587364e+00 3.1859953599577320e+01 
966 568 2 1.0280004606820519e+00 -5.1323661095120951e+02 4.2000000000000000e+03 1.9657731500573661e+01 1.9993576413523551e+00 3.2068675673872420e+01 
967 569 2 1.0280004517716821e+00 -5.1324292803393553e+02 4.2000000000000000e+03 1.8303467303663819e+01 2.0012014140255920e+00 3.2072542401780382e+01 
866 468 2 1.0280004429691352e+00 -2.1129258943686564e+03 4.2000000000000000e+03 1.1239881560676817e+01 3.8401195192491784e+00 3.2245585406536122e+01 
751 353 2 1.0280003590178730e+00 -1.1334628256588026e+03 4.2000000000000000e+03 1.1041525876681023e+01 3.6626913712801672e+00 3.2105028209334428e+01 
1387 989 2 1.0280005016501035e+00 -2.3488203172081858e+03 4.2000000000000000e+03 1.2001259112668729e+01 3.8771306110137314e+00 3.2113747490443522e+01 
2049 1651 2 1.0280004273057477e+00 1.8869209193485945e+03 4.2000000000000000e+03 1.1143617153626163e+01 3.7422373009116656e+00 3.2142018866033133e+01 
1619 1221 2 1.0280005064393487e+00 -2.4916399237962537e+03 4.2000000000000000e+03 1.1292503052518718e+01 3.8265622334311553e+00 3.2173552500841069e+01 
957 559 2 1.0280005637134675e+00 1.4931481392407854e+03 4.2000000000000000e+03 1.1441431313625834e+01 3.8756386787834107e+00 3.2171959563982078e+01 
1755 1357 2 1.0280001995933543e+00 -2.4953756866781600e+03 4.2000000000000000e+03 1.0904900272229813e+01 3.6369538559709382e+00 3.2207083336023622e+01 
520 122 2 1.0280003597831811e+00 -5.5887225891611142e+03 4.2000000000000000e+03 1.1101714852417729e+01 3.7649538752656273e+00 3.2225083692099879e+01 
1558 1160 2 1.0279991103505477e+00 -2.7261842957735025e+03 4.2000000000000000e+03 1.8951654957594986e+01 3.9088482660771771e+00 3.2521640569787223e+01 
1559 1161 2 1.0279991095037810e+00 -2.7261854503653085e+03 4.2000000000000000e+03 1.9023406892552316e+01 3.9087063105161475e+00 3.2521916842680668e+01 
1652 1254 2 1.0279991605432162e+00 9.4206210936457555e+03 4.2000000000000000e+03 1.8739168513685790e+01 3.8583250347345803e+00 3.2539779394843535e+01 
1649 1251 2 1.0279991558887858e+00 9.4206158074425784e+03 4.2000000000000000e+03 1.9234769896002117e+01 3.8576053069991669e+00 3.2541486504010336e+01 
990 592 2 1.0279989392307420e+00 -1.6685195088862729e+03 4.2000000000000000e+03 1.8807938573661769e+01 3.8936918796435704e+00 3.2588243325906234e+01 
991 593 2 1.0279989352323744e+00 -1.6685318111806364e+03 4.2000000000000000e+03 1.9166486753857903e+01 3.8930491853878006e+00 3.2589402826243656e+01 
1376 978 2 1.0279990191830179e+00 -1.1100720212517238e+03 4.2000000000000000e+03 1.8644852323698768e+01 3.8138472690483143e+00 3.2617320018753446e+01 
1373 975 2 1.0279990124513549e+00 -1.1100788909252997e+03 4.2000000000000000e+03 1.9328026361576978e+01 3.8132384926134173e+00 3.2619603117215611e+01 
441 43 2 1.0280041750653872e+00 -8.2234303613701086e+03 4.2000000000000000e+03 2.6689761881246961e+00 1.5294349177682931e+00 3.5686537707055514e+01 
941 543 2 1.0280035552497750e+00 -4.5182246265402324e+02 4.2000000000000000e+03 2.8760177637820346e+00 9.7446912004545794e-01 3.5748954071275769e+01 
2044 1646 2 1.0280014375825504e+00 -2.4942176711214124e+03 4.2000000000000000e+03 8.1389227864097446e-01 1.1287509167473633e+00 3.5816503487056636e+01 
1640 1242 2 1.0280010231804695e+00 8.2946588510155743e+03 4.2000000000000000e+03 4.5146471944047456e-01 1.0020612011428573e+00 3.5838617217929141e+01 
1013 615 2 1.0280006604381910e+00 2.4239045228209311e+03 4.2000000000000000e+03 5.9158808609001601e-01 5.4488715680380084e-01 3.5901499704684106e+01 
474 76 2 1.0279985881803797e+00 9.3130418491344553e+03 4.2000000000000000e+03 2.6747887098272662e+00 8.7996779711155881e-01 3.6502201297418388e+01 
1949 1551 2 1.0279955400621843e+00 -3.4956686915583523e+03 4.2000000000000000e+03 2.8857925097578447e+00 1.9656565903042811e+00 3.6564360342673652e+01 
1561 1163 2 1.0279967913203070e+00 4.3570490211866017e+03 4.2000000000000000e+03 2.7031474431128664e+00 1.7802721806380220e+00 3.6649977854108919e+01 
937 539 2 1.0280010530293660e+00 3.2457517200156667e+03 4.2000000000000000e+03 4.8158026890556354e+00 7.4964854481764964e-01 3.4692844230059769e+01 
1542 1144 2 1.0280022598709981e+00 -2.0232940720440999e+03 4.2000000000000000e+03 5.2961029376987012e+00 2.2136842324509320e+00 3.4828460563377277e+01 
635 237 2 1.0280003742280015e+00 -1.0375974608915897e+03 4.2000000000000000e+03 6.1898839414388354e+00 7.3898692976706792e-01 3.3704947133670871e+01 
1800 1402 2 1.0280023321267855e+00 -6.6508740580754447e+03 4.2000000000000000e+03 5.0836821135906476e+00 2.5546610257034486e+00 3.5125612549622737e+01 
1319 921 2 1.0279970809143573e+00 8.1122939849488262e+02 4.2000000000000000e+03 6.3592070957591496e+00 2.6371916070392323e+00 3.5073202007668186e+01 
972 574 2 1.0279974560007596e+00 4.5477330887316466e+03 4.2000000000000000e+03 4.3479171327473871e+00 8.0607415663027526e-01 3.5337569528461344e+01 
1322 924 2 1.0279979792338667e+00 -5.3878128921041582e+02 4.2000000000000000e+03 4.2623852503403397e+00 8.3495980331577313e-01 3.5388748870099221e+01 
1168 770 2 1.0279960717161194e+00 1.0989692358855934e+03 4.2000000000000000e+03 6.4709602490368558e+00 2.6980978006121772e+00 3.5070052987393659e+01 
715 317 2 1.0280009811447341e+00 -5.2424119597635581e+02 4.2000000000000000e+03 3.6424636156824968e+00 9.5147692386916038e-01 3.5656680908648028e+01 
1172 774 2 1.0280002465735183e+00 -9.6554871141573312e+02 4.2000000000000000e+03 7.5930926954441302e+00 2.0282451890144797e+00 3.3568582166969072e+01 
1504 1106 2 1.0280003653934178e+00 3.0780100888471306e+03 4.2000000000000000e+03 7.5771405959580731e+00 2.2619772032974881e+00 3.3735173133755438e+01 
639 241 2 1.0280005734719313e+00 -2.3090165536847790e+03 4.2000000000000000e+03 7.7583449330897452e+00 2.6343966890331751e+00 3.3924130172138391e+01 
483 85 2 1.0279940838480994e+00 5.7698502408878103e+03 4.2000000000000000e+03 8.5980470880898690e+00 2.5791323409243403e+00 3.3879086610387724e+01 
1359 961 2 1.0280002494025522e+00 -7.9632053304361864e+02 4.2000000000000000e+03 8.3989729857269637e+00 2.4081737923125783e+00 3.4131613160385079e+01 
674 276 2 1.0280010494003422e+00 -3.8856077170180370e+03 4.2000000000000000e+03 8.7158975038169491e+00 3.2984057273977134e+00 3.4624287809463887e+01 
1227 829 2 1.0280001804036871e+00 -5.3275900827070182e+03 4.2000000000000000e+03 1.2414490925108229e+01 2.8210247753948479e+00 3.3668644905371572e+01 
1898 1500 2 1.0280005772916430e+00 -2.6748021376845281e+03 4.2000000000000000e+03 5.1300311904757034e+00 3.4081748558729013e+00 3.6116272902705859e+01 
1710 1312 2 1.0280009471882443e+00 -1.4639968897765850e+03 4.2000000000000000e+03 5.0732391595304271e+00 3.5310621270872788e+00 3.6124562973347857e+01 
2002 1604 2 1.0279999652168244e+00 6.7144594780472244e+03 4.2000000000000000e+03 4.9599525675640113e+00 3.9260823663647497e+00 3.6461750469742412e+01 
1044 646 2 1.0280004486240402e+00 -1.0010305822610160e+03 4.2000000000000000e+03 8.4231149801748213e+00 3.7666771166735771e+00 3.4934747780967612e+01 
2024 1626 2 1.0280005474874840e+00 -1.7025996382318599e+03 4.2000000000000000e+03 8.5683486270935525e+00 3.8446527529044596e+00 3.5078763338815627e+01 
647 249 2 1.0280009465930489e+00 -4.2320941720134415e+03 4.2000000000000000e+03 8.9826088890168059e+00 4.2849592168783390e+00 3.5745367156587278e+01 
1207 809 2 1.0279967545591717e+00 -1.8152862543835734e+03 4.2000000000000000e+03 8.6981126421015826e+00 4.5105635534169357e+00 3.6239809762607869e+01 
625 227 2 1.0280015261275433e+00 -1.5075321357382459e+03 4.2000000000000000e+03 9.3237479134010908e+00 4.3115207682282515e+00 3.6418895309922902e+01 
823 425 2 1.0279975508905432e+00 -1.0122317738180385e+03 4.2000000000000000e+03 8.7735645885641524e+00 4.5433782816127488e+00 3.6464235302448515e+01 
1817 1419 2 1.0279980912660658e+00 -9.0521665819425234e+03 4.2000000000000000e+03 8.8238559035258373e+00 4.5792165381720871e+00 3.6567043475052550e+01 
1979 1581 2 1.0279981964117428e+00 6.3509570685251247e+03 4.2000000000000000e+03 8.8541858314691204e+00 4.7757531368128774e+00 3.6614146165244790e+01 
1688 1290 2 1.0279991923585350e+00 9.2923013036258853e+03 4.2000000000000000e+03 1.1693933571148255e+01 3.4269097167411116e+00 3.3796714213509077e+01 
633 235 2 1.0280006154746122e+00 -8.5275256757473926e+03 4.2000000000000000e+03 1.2951677134810614e+01 3.6842391195420015e+00 3.4544753242256284e+01 
1357 959 2 1.0280017789591351e+00 2.7793079618400310e+02 4.2000000000000000e+03 1.3326561814419788e+01 4.2243578987426798e+00 3.5625059392680747e+01 
409 11 2 1.0279953636319128e+00 3.7192657847042706e+03 4.2000000000000000e+03 1.3576952224733501e+01 3.8816147019820773e+00 3.4081665497679829e+01 
1724 1326 2 1.0279962266876306e+00 8.8334571025240566e+03 4.2000000000000000e+03 1.3843289727881796e+01 4.0089560395584138e+00 3.4333496297115516e+01 
1615 1217 2 1.0279981355116277e+00 -2.4566430212405116e+03 4.2000000000000000e+03 1.4258194736504175e+01 4.5526496892806101e+00 3.4587579113535192e+01 
962 564 2 1.0279978425823009e+00 1.4363665330827071e+03 4.2000000000000000e+03 1.4407039523628320e+01 4.3299710420147308e+00 3.4652085404537800e+01 
473 75 2 1.0279984075461912e+00 -7.2884574224254884e+03 4.2000000000000000e+03 1.5138941193854993e+01 4.5229033923328137e+00 3.5082099940036969e+01 
964 566 2 1.0279982981577704e+00 3.8611641300879178e+03 4.2000000000000000e+03 1.5703375434204800e+01 4.8680699360405741e+00 3.5428540809973185e+01 
1307 909 2 1.0279991248113638e+00 -7.1464432854184406e+02 4.2000000000000000e+03 1.6102815229965497e+01 5.4153308789779757e+00 3.5876300489558773e+01 
1917 1519 2 1.0280001072525717e+00 -3.3075764902671817e+03 4.2000000000000000e+03 1.4548177444519990e+01 5.7281326716488259e+00 3.5867884208414132e+01 
1802 1404 2 1.0280017843330311e+00 -4.7549161416514507e+03 4.2000000000000000e+03 1.3457047214590364e+01 4.3105638853035719e+00 3.5896626210153428e+01 
1022 624 2 1.0280016156685199e+00 4.0282819455591618e+02 4.2000000000000000e+03 1.3539824726726833e+01 4.2270987051728408e+00 3.5902603269388514e+01 
741 343 2 1.0280019764083506e+00 2.5963533175312109e+03 4.2000000000000000e+03 1.3539778891369897e+01 4.5975795598345535e+00 3.6250137948989128e+01 
1484 1086 2 1.0280022054882103e+00 5.2299264505654146e+03 4.2000000000000000e+03 1.3496569782073838e+01 4.7811505030165202e+00 3.6323070827570255e+01 
668 270 2 1.0279963214718668e+00 -4.5952790751680886e+03 4.2000000000000000e+03 1.8529090550759687e+01 5.0426115499593127e+00 3.5143822195551003e+01 
665 267 2 1.0279963225540469e+00 -4.5952825659912332e+03 4.2000000000000000e+03 1.9467033112535720e+01 5.0422929219021064e+00 3.5148144775613837e+01 
946 548 2 1.0279993390590427e+00 -7.7674606542051924e+02 4.2000000000000000e+03 1.9597217461327293e+01 4.4090779107263867e+00 3.5749194310802849e+01 
947 549 2 1.0279993475799880e+00 -7.7674983690660792e+02 4.2000000000000000e+03 1.8396047752120310e+01 4.4076705637793392e+00 3.5748047983381959e+01 