LAMMPS data file via write_data, version 30 Jul 2016, timestep = 50400000

2772 atoms
8 atom types

0.0000000000000000e+00 1.0000000000000000e+02 xlo xhi
0.0000000000000000e+00 4.0000000000000000e+01 ylo yhi
0.0000000000000000e+00 4.0000000000000000e+01 zlo zhi

Masses

1 3.896
2 5.36
3 20.064
4 8.378
5 8.378
6 8.378
7 8.378
8 8.378

Atoms # meso-molecular

86 87 2 1.0280000000000091e+00 -1.6900702161436602e+03 1.0000000000000000e+00 4.2173206144543727e+00 1.0000000000000000e+01 8.2882360488579193e-02 
43 44 2 1.0280000000000096e+00 -7.6719006861872504e+02 1.0000000000000000e+00 4.2173109918799456e+00 1.0000000000000000e+01 8.2878948451503315e-02 
21 22 2 1.0280000000000005e+00 1.6018873683019056e+03 1.0000000000000000e+00 8.3554656448940747e+00 1.0000000000000000e+01 1.0899827813657106e+00 
417 418 2 1.0280000000000002e+00 2.6021229164876754e+03 1.0000000000000000e+00 1.1204169978607583e+01 1.0000000000000000e+01 5.3637515572481576e-01 
252 253 2 1.0280000000000002e+00 2.4872449725027282e+03 1.0000000000000000e+00 1.1340895463834851e+01 1.0000000000000000e+01 7.3190766252030315e-01 
421 422 2 1.0280000000000025e+00 -2.7530230021651209e+03 1.0000000000000000e+00 1.5007999512365162e+01 1.0000000000000000e+01 1.9378306708499728e+00 
222 223 2 1.0279999999999985e+00 -3.5338057686597203e+03 1.0000000000000000e+00 1.6494325061121426e+01 1.0000000000000000e+01 1.3764700517646711e+00 
221 222 2 1.0280000000000051e+00 5.8693407555369095e+03 1.0000000000000000e+00 1.7107368777221740e+01 1.0000000000000000e+01 1.9332939003354186e+00 
442 443 2 1.0280000000000014e+00 8.0702701644512217e+02 1.0000000000000000e+00 1.7820285448250939e+01 1.0000000000000000e+01 3.1354245026208877e-01 
182 183 2 1.0280000000000011e+00 7.3827730371739108e+03 1.0000000000000000e+00 1.9530275499967299e+01 1.0000000000000000e+01 1.1457741767582730e+00 
141 142 2 1.0279999999999978e+00 -3.6678937177764824e+03 1.0000000000000000e+00 1.9656025926684549e+01 1.0000000000000000e+01 1.5696994322044400e+00 
318 319 2 1.0280000000000049e+00 -1.3807588673166701e+03 1.0000000000000000e+00 2.1973166081149415e+01 1.0000000000000000e+01 1.6966421188283680e+00 
60 61 2 1.0280000000000056e+00 2.6161184665744131e+03 1.0000000000000000e+00 2.2024861313077288e+01 1.0000000000000000e+01 1.7143238790385762e+00 
149 150 2 1.0279999999999980e+00 -3.0501396911680949e+03 1.0000000000000000e+00 2.4266427970694160e+01 1.0000000000000000e+01 7.4659728380082768e-01 
68 69 2 1.0280000000000014e+00 1.7761109231348510e+03 1.0000000000000000e+00 2.4309002084835790e+01 1.0000000000000000e+01 1.0901620254187046e+00 
444 445 2 1.0280000000000018e+00 -1.6109787098146580e+03 1.0000000000000000e+00 2.5674487390734736e+01 1.0000000000000000e+01 1.1522247067472742e+00 
229 230 2 1.0279999999999965e+00 4.5640208981147298e+03 1.0000000000000000e+00 2.6718612287398674e+01 1.0000000000000000e+01 1.6191531355098903e+00 
85 86 2 1.0280000000000034e+00 -1.7056103122533636e+02 1.0000000000000000e+00 2.8717290663136108e+01 1.0000000000000000e+01 7.5118598994135899e-01 
253 254 2 1.0280000000000016e+00 -1.5536281226161582e+03 1.0000000000000000e+00 2.9772030229424132e+01 1.0000000000000000e+01 5.0308114357679234e-01 
428 429 2 1.0279999999999949e+00 1.8284126745263184e+03 1.0000000000000000e+00 3.1371944802128837e+01 1.0000000000000000e+01 1.9546564690715529e-01 
55 56 2 1.0280000000000051e+00 1.0032158611086786e+03 1.0000000000000000e+00 3.1453244012736821e+01 1.0000000000000000e+01 1.7230306927645958e+00 
343 344 2 1.0280000000000005e+00 -6.7863402354553036e+03 1.0000000000000000e+00 3.3059360503367238e+01 1.0000000000000000e+01 1.6529440745478876e+00 
706 707 2 1.0280000000000036e+00 1.3879759730718629e+03 1.0000000000000000e+00 3.9191253565233102e+00 1.3800000000000001e+01 1.8723457662887186e+00 
586 587 2 1.0279999999999656e+00 -7.0703700471880884e+03 1.0000000000000000e+00 4.8870332159663397e+00 1.3800000000000001e+01 3.4835606026634580e-01 
707 708 2 1.0279999999999943e+00 -2.3734108318770400e+03 1.0000000000000000e+00 3.9225807251734821e+00 1.3800000000000001e+01 1.8499273029625054e+00 
754 755 2 1.0279999999998770e+00 -1.0257245696686916e+03 1.0000000000000000e+00 6.2879842482826200e+00 1.3800000000000001e+01 6.6937667829144709e-01 
839 840 2 1.0280000000000313e+00 -1.6892810035942407e+03 1.0000000000000000e+00 7.4561801178758209e+00 1.3800000000000001e+01 1.4991340795585937e+00 
887 888 2 1.0279999999996126e+00 3.7613709716491408e+03 1.0000000000000000e+00 8.4258270415529140e+00 1.3800000000000001e+01 1.1793057813438317e+00 
683 684 2 1.0280000000005134e+00 5.8570442762087760e+03 1.0000000000000000e+00 1.2421130633313046e+01 1.3800000000000001e+01 1.0748115535649952e-01 
909 910 2 1.0279999999989806e+00 -2.1134829105402669e+03 1.0000000000000000e+00 1.2997210679326404e+01 1.3800000000000001e+01 2.4312731448930977e-01 
729 730 2 1.0279999999979965e+00 3.1297454383631411e+03 1.0000000000000000e+00 1.4834061037244032e+01 1.3800000000000001e+01 9.1052591861654375e-01 
731 732 2 1.0280000000015497e+00 1.8550834478205347e+03 1.0000000000000000e+00 1.4945032423891693e+01 1.3800000000000001e+01 1.3692221522785342e+00 
844 845 2 1.0279999999980736e+00 2.2252175299232613e+03 1.0000000000000000e+00 1.6877614237651738e+01 1.3800000000000001e+01 3.5834280818988329e-01 
677 678 2 1.0280000000007328e+00 -5.8815462510548659e+03 1.0000000000000000e+00 1.6601229907100318e+01 1.3800000000000001e+01 4.9227253561882367e-01 
508 509 2 1.0280000000005325e+00 2.4646328484551373e+03 1.0000000000000000e+00 1.8602400428918536e+01 1.3800000000000001e+01 2.1406768424855296e-02 
633 634 2 1.0280000000003253e+00 -1.0632758403459682e+03 1.0000000000000000e+00 1.8767659238417753e+01 1.3800000000000001e+01 7.5855331330832432e-01 
547 548 2 1.0279999999997895e+00 -1.7309470777089825e+02 1.0000000000000000e+00 2.1310202018939773e+01 1.3800000000000001e+01 1.2253991503854806e+00 
885 886 2 1.0279999999994560e+00 -1.3620775478609839e+03 1.0000000000000000e+00 2.1425510909931422e+01 1.3800000000000001e+01 1.1618535270438506e+00 
530 531 2 1.0280000000009417e+00 1.7764492370109820e+03 1.0000000000000000e+00 2.3222454720335545e+01 1.3800000000000001e+01 9.3020999463632204e-01 
611 612 2 1.0279999999993881e+00 -3.0498471783985096e+03 1.0000000000000000e+00 2.3540142575384351e+01 1.3800000000000001e+01 8.5370039589831548e-01 
780 781 2 1.0279999999988019e+00 -1.3786501940826770e+03 1.0000000000000000e+00 2.5678624602133315e+01 1.3800000000000001e+01 8.7774264894167819e-01 
522 523 2 1.0279999999988163e+00 2.6182692368290664e+03 1.0000000000000000e+00 2.5678627773049090e+01 1.3800000000000001e+01 8.7774795888918244e-01 
726 727 2 1.0279999999992622e+00 4.2962544509643776e+03 1.0000000000000000e+00 2.7843641685521039e+01 1.3800000000000001e+01 1.8081129623516417e+00 
563 564 2 1.0279999999992893e+00 2.6032179564625740e+03 1.0000000000000000e+00 2.9411129240085806e+01 1.3800000000000001e+01 1.7841788991825251e+00 
476 477 2 1.0279999999986258e+00 -3.5077025604626406e+03 1.0000000000000000e+00 3.2264348399996024e+01 1.3800000000000001e+01 1.5076127994631190e+00 
494 495 2 1.0279999999990577e+00 3.7518309379319817e+03 1.0000000000000000e+00 3.3266289041430412e+01 1.3800000000000001e+01 9.3249896633374485e-01 
770 771 2 1.0280000000002725e+00 -3.5993810106781675e+03 1.0000000000000000e+00 3.2065114960185980e+01 1.3800000000000001e+01 4.8687249250792181e-01 
1107 1108 2 1.0280000000000018e+00 2.8664733447655717e+03 1.0000000000000000e+00 4.6402273492354063e+00 1.7600000000000001e+01 1.0006499924360182e+00 
946 947 2 1.0279999999999998e+00 1.6678034530159598e+03 1.0000000000000000e+00 4.7275204631952708e+00 1.7600000000000001e+01 1.6323417102004514e+00 
951 952 2 1.0280000000000011e+00 -1.2186038583524987e+03 1.0000000000000000e+00 6.4252163630309713e+00 1.7600000000000001e+01 1.3855311922697682e+00 
939 940 2 1.0280000000000002e+00 -5.0542875464165918e+03 1.0000000000000000e+00 7.1923369821545817e+00 1.7600000000000001e+01 1.9072412303298816e+00 
1378 1379 2 1.0279999999999940e+00 -4.0589413328390319e+03 1.0000000000000000e+00 1.0021593452988681e+01 1.7600000000000001e+01 8.9373572627293285e-01 
1201 1202 2 1.0280000000000014e+00 7.3575031969781485e+03 1.0000000000000000e+00 1.0105313499604668e+01 1.7600000000000001e+01 1.0059913835573193e+00 
1384 1385 2 1.0279999999999980e+00 -1.4185130852579996e+03 1.0000000000000000e+00 1.2220284151440310e+01 1.7600000000000001e+01 1.5094143859060796e+00 
1105 1106 2 1.0280000000000009e+00 2.9635080913051952e+03 1.0000000000000000e+00 1.4808256208737422e+01 1.7600000000000001e+01 1.1044189845747405e+00 
934 935 2 1.0279999999999967e+00 -4.0200912559281705e+03 1.0000000000000000e+00 1.4933364246909289e+01 1.7600000000000001e+01 1.5720388310604123e+00 
1237 1238 2 1.0280000000000034e+00 -1.1263281391213613e+03 1.0000000000000000e+00 1.6746332453503943e+01 1.7600000000000001e+01 5.4191399015754746e-02 
1324 1325 2 1.0279999999999909e+00 3.6822447128356371e+03 1.0000000000000000e+00 1.6984736926540851e+01 1.7600000000000001e+01 1.4992343489475990e+00 
1242 1243 2 1.0280000000000022e+00 -1.3802128030597137e+03 1.0000000000000000e+00 1.8865909677775754e+01 1.7600000000000001e+01 5.3835646491953204e-01 
984 985 2 1.0280000000000051e+00 2.6166808209522642e+03 1.0000000000000000e+00 1.8867905998660149e+01 1.7600000000000001e+01 5.4760824788070672e-01 
1331 1332 2 1.0279999999999967e+00 6.2937308099087709e+01 1.0000000000000000e+00 2.1146650552871915e+01 1.7600000000000001e+01 1.2871298077758933e+00 
1367 1368 2 1.0280000000000002e+00 -3.3848886209470802e+03 1.0000000000000000e+00 2.2073983750907832e+01 1.7600000000000001e+01 3.4547838162616845e-01 
1374 1375 2 1.0280000000000045e+00 2.4605405662191306e+03 1.0000000000000000e+00 2.2211712964411177e+01 1.7600000000000001e+01 5.0580466357692555e-01 
954 955 2 1.0279999999999869e+00 2.7949313096581127e+03 1.0000000000000000e+00 2.9944200226832915e+01 1.7600000000000001e+01 1.7238878790243044e+00 
1034 1035 2 1.0279999999999982e+00 2.4848604859508969e+03 1.0000000000000000e+00 3.0466385011638831e+01 1.7600000000000001e+01 1.8907527379147200e+00 
983 984 2 1.0280000000000089e+00 1.8944202765186583e+03 1.0000000000000000e+00 2.9837002661235971e+01 1.7600000000000001e+01 2.4807442183172736e-02 
1070 1071 2 1.0280000000000091e+00 -2.9169906123967239e+03 1.0000000000000000e+00 2.9838740705289464e+01 1.7600000000000001e+01 2.4773232273495375e-02 
1023 1024 2 1.0279999999999925e+00 -1.5619285416321782e+03 1.0000000000000000e+00 3.2451750987087635e+01 1.7600000000000001e+01 1.3800149409173479e-01 
1108 1109 2 1.0279999999999969e+00 4.9939928261263849e+03 1.0000000000000000e+00 3.2468976189020808e+01 1.7600000000000001e+01 8.0926986891111996e-02 
123 124 2 1.0279999999999991e+00 1.6739942685944634e+03 1.0000000000000000e+00 8.1865219626363483e+00 1.0000000000000000e+01 2.3724497312931843e+00 
370 371 2 1.0279999999999994e+00 -5.6951255224945317e+02 1.0000000000000000e+00 8.4737352018586609e+00 1.0000000000000000e+01 2.3770965778510753e+00 
129 130 2 1.0280000000000031e+00 2.2549906453592303e+03 1.0000000000000000e+00 1.2914326458833910e+01 1.0000000000000000e+01 2.8667765150129556e+00 
128 129 2 1.0280000000000034e+00 -1.4797219169695694e+02 1.0000000000000000e+00 1.2912311110072139e+01 1.0000000000000000e+01 2.8724706294966493e+00 
256 257 2 1.0279999999999951e+00 -5.2978482194720516e+02 1.0000000000000000e+00 1.4450041130435810e+01 1.0000000000000000e+01 2.1544141535708459e+00 
213 214 2 1.0279999999999991e+00 3.1074091025677740e+03 1.0000000000000000e+00 1.6067955051077142e+01 1.0000000000000000e+01 3.4685115344991551e+00 
218 219 2 1.0280000000000005e+00 -2.3688923794314005e+03 1.0000000000000000e+00 1.6488626235758275e+01 1.0000000000000000e+01 3.8483328466275393e+00 
185 186 2 1.0279999999999994e+00 1.6839124111513679e+03 1.0000000000000000e+00 1.8727312206432497e+01 1.0000000000000000e+01 2.6720721865574890e+00 
231 232 2 1.0279999999999940e+00 7.6826095486745253e+03 1.0000000000000000e+00 2.1518228755060019e+01 1.0000000000000000e+01 3.0865243701800940e+00 
234 235 2 1.0280000000000018e+00 4.5573455053272983e+03 1.0000000000000000e+00 2.7120396297511917e+01 1.0000000000000000e+01 2.3689944832073238e+00 
274 275 2 1.0279999999999974e+00 4.8434125135632200e+02 1.0000000000000000e+00 2.5791165561477509e+01 1.0000000000000000e+01 3.7042567805330089e+00 
24 25 2 1.0279999999999982e+00 -1.6359197056191738e+03 1.0000000000000000e+00 2.5652333651975429e+01 1.0000000000000000e+01 3.9182764314191774e+00 
67 68 2 1.0279999999999985e+00 2.9479898305755751e+03 1.0000000000000000e+00 2.7981107810980877e+01 1.0000000000000000e+01 3.9598189279394331e+00 
392 393 2 1.0280000000000000e+00 2.7281898747104543e+02 1.0000000000000000e+00 2.7980886502174414e+01 1.0000000000000000e+01 3.9629185488351655e+00 
263 264 2 1.0279999999999920e+00 1.6399194411052717e+03 1.0000000000000000e+00 3.0813946940059775e+01 1.0000000000000000e+01 2.6821744024303045e+00 
54 55 2 1.0280000000000082e+00 2.3112144292874809e+03 1.0000000000000000e+00 3.0599560168837645e+01 1.0000000000000000e+01 3.4593363977484537e+00 
262 263 2 1.0279999999999969e+00 7.7252168796498026e+03 1.0000000000000000e+00 3.3240004872094843e+01 1.0000000000000000e+01 3.0053528061313881e+00 
709 710 2 1.0280000000001457e+00 9.0792055480139552e+03 1.0000000000000000e+00 4.7278323998650071e+00 1.3800000000000001e+01 3.3259754498302829e+00 
924 925 2 1.0279999999998402e+00 -2.7466707928667374e+03 1.0000000000000000e+00 6.1793389051841263e+00 1.3800000000000001e+01 3.0467836950248812e+00 
884 885 2 1.0280000000001099e+00 -8.4097084351120532e+02 1.0000000000000000e+00 7.7701264126405292e+00 1.3800000000000001e+01 3.5811711058528384e+00 
803 804 2 1.0280000000000715e+00 3.6907434989082858e+03 1.0000000000000000e+00 8.9384060075395073e+00 1.3800000000000001e+01 2.4107458165050515e+00 
883 884 2 1.0280000000000775e+00 -2.7510436494305804e+03 1.0000000000000000e+00 1.0614845224894724e+01 1.3800000000000001e+01 2.6190817297689724e+00 
675 676 2 1.0279999999999412e+00 3.1103054793691972e+03 1.0000000000000000e+00 1.0780848931348991e+01 1.3800000000000001e+01 2.7079967841688237e+00 
771 772 2 1.0280000000004612e+00 -3.8076767116602832e+03 1.0000000000000000e+00 1.3247806736225465e+01 1.3800000000000001e+01 2.0265989812901850e+00 
719 720 2 1.0279999999998177e+00 2.6648261577000194e+03 1.0000000000000000e+00 1.3534335629555729e+01 1.3800000000000001e+01 2.6980374790004431e+00 
767 768 2 1.0279999999997524e+00 -4.3298755925770329e+03 1.0000000000000000e+00 1.2690970689147585e+01 1.3800000000000001e+01 3.9386611083801579e+00 
591 592 2 1.0279999999990466e+00 2.2554453882142743e+03 1.0000000000000000e+00 1.8286822990404399e+01 1.3800000000000001e+01 2.1925652177639967e+00 
590 591 2 1.0280000000011935e+00 -1.4734995523630189e+02 1.0000000000000000e+00 1.8496932034127180e+01 1.3800000000000001e+01 2.6366887227855100e+00 
554 555 2 1.0280000000046261e+00 -1.0937635051695884e+03 1.0000000000000000e+00 2.0659155730029756e+01 1.3800000000000001e+01 2.8855179305261016e+00 
601 602 2 1.0279999999959735e+00 -6.9880339984591774e+03 1.0000000000000000e+00 2.0261855050656674e+01 1.3800000000000001e+01 2.9888690204444379e+00 
693 694 2 1.0279999999996321e+00 7.6819111611065146e+03 1.0000000000000000e+00 2.5217287472170494e+01 1.3800000000000001e+01 3.7074418373599234e+00 
688 689 2 1.0280000000009879e+00 6.5188652312428603e+03 1.0000000000000000e+00 2.4563310577453194e+01 1.3800000000000001e+01 3.9647435147335965e+00 
597 598 2 1.0280000000008638e+00 2.7172026387096173e+02 1.0000000000000000e+00 2.7188098051945129e+01 1.3800000000000001e+01 2.0003324737065520e+00 
640 641 2 1.0279999999992802e+00 7.7557657610454517e+03 1.0000000000000000e+00 2.8234407434918200e+01 1.3800000000000001e+01 3.4319403566369955e+00 
901 902 2 1.0279999999985199e+00 -1.7511544502405523e+03 1.0000000000000000e+00 3.0284290929689547e+01 1.3800000000000001e+01 2.0456473492864737e+00 
567 568 2 1.0280000000017631e+00 1.3245664493478332e+03 1.0000000000000000e+00 3.0146644429695979e+01 1.3800000000000001e+01 3.0923246718847603e+00 
732 733 2 1.0279999999988481e+00 7.3454112613710713e+03 1.0000000000000000e+00 3.2859654246584242e+01 1.3800000000000001e+01 3.5245009120095321e+00 
1075 1076 2 1.0280000000000002e+00 -5.5969117424613924e+03 1.0000000000000000e+00 4.2940306034457087e+00 1.7600000000000001e+01 3.4659111757227690e+00 
1116 1117 2 1.0280000000000000e+00 1.4841774678207046e+03 1.0000000000000000e+00 4.2938365291729372e+00 1.7600000000000001e+01 3.4668632445772762e+00 
1126 1127 2 1.0279999999999985e+00 1.2400138098026136e+02 1.0000000000000000e+00 8.2898741607348061e+00 1.7600000000000001e+01 2.5333775963452712e+00 
977 978 2 1.0280000000000007e+00 -1.9389785905044023e+03 1.0000000000000000e+00 8.2360477519331408e+00 1.7600000000000001e+01 3.1435522292283178e+00 
1165 1166 2 1.0280000000000047e+00 -3.5336752873250834e+03 1.0000000000000000e+00 1.1645396786335853e+01 1.7600000000000001e+01 2.0963651351157946e+00 
1348 1349 2 1.0279999999999976e+00 5.8439201548384426e+03 1.0000000000000000e+00 1.2759526623091556e+01 1.7600000000000001e+01 3.1204544614609175e+00 
1106 1107 2 1.0280000000000031e+00 7.3712832367042138e+03 1.0000000000000000e+00 1.4399730307549122e+01 1.7600000000000001e+01 3.1031345235159762e+00 
933 934 2 1.0279999999999976e+00 -4.0577469375647934e+03 1.0000000000000000e+00 1.5777140128420710e+01 1.7600000000000001e+01 3.5577912043520832e+00 
1155 1156 2 1.0280000000000027e+00 7.6842408090982290e+03 1.0000000000000000e+00 1.8008034801714427e+01 1.7600000000000001e+01 2.0916183102106296e+00 
1152 1153 2 1.0280000000000025e+00 9.0637963463713859e+03 1.0000000000000000e+00 1.7932859098580316e+01 1.7600000000000001e+01 3.3410688768546795e+00 
1281 1282 2 1.0280000000000138e+00 8.7663545666991968e+02 1.0000000000000000e+00 2.0590263026178079e+01 1.7600000000000001e+01 2.6725744476565105e+00 
1277 1278 2 1.0279999999999885e+00 2.5986254709528394e+03 1.0000000000000000e+00 2.0432955004053809e+01 1.7600000000000001e+01 2.8466434845739395e+00 
1056 1057 2 1.0279999999999996e+00 1.6744206739385277e+02 1.0000000000000000e+00 2.5278200951073309e+01 1.7600000000000001e+01 3.7606739028479836e+00 
969 970 2 1.0279999999999991e+00 -6.7190804620467702e+02 1.0000000000000000e+00 2.5266375326956801e+01 1.7600000000000001e+01 3.7687509513846944e+00 
947 948 2 1.0280000000000133e+00 -3.0431926432882292e+03 1.0000000000000000e+00 3.0662085830781560e+01 1.7600000000000001e+01 3.5728601364291168e+00 
1334 1335 2 1.0280000000000009e+00 -1.9336039644804437e+03 1.0000000000000000e+00 3.2994504819312546e+01 1.7600000000000001e+01 2.1233893606686727e+00 
960 961 2 1.0279999999999996e+00 1.0747580507435880e+03 1.0000000000000000e+00 3.2497790290814009e+01 1.7600000000000001e+01 2.4793161372520487e+00 
1083 1084 2 1.0279999999999925e+00 -2.4753907323442481e+03 1.0000000000000000e+00 3.3120682149666244e+01 1.7600000000000001e+01 3.7581507947925568e+00 
338 339 2 1.0279999999999954e+00 -1.5929372733173250e+03 1.0000000000000000e+00 1.2601043251115289e+01 1.0000000000000000e+01 4.7182397301226375e+00 
379 380 2 1.0280000000000056e+00 -7.5305548707114110e+02 1.0000000000000000e+00 1.2243551908811368e+01 1.0000000000000000e+01 5.6114469823681121e+00 
211 212 2 1.0280000000000022e+00 2.3478515772198834e+03 1.0000000000000000e+00 1.4020830073689813e+01 1.0000000000000000e+01 4.9777668732696743e+00 
175 176 2 1.0280000000000005e+00 -2.4526185760372539e+02 1.0000000000000000e+00 1.4323617921416698e+01 1.0000000000000000e+01 5.5943941349954400e+00 
212 213 2 1.0280000000000020e+00 -8.7394497739014951e+03 1.0000000000000000e+00 1.6420134988215040e+01 1.0000000000000000e+01 5.5684992664671826e+00 
296 297 2 1.0280000000000009e+00 -1.3372090287662635e+02 1.0000000000000000e+00 1.6373134110111227e+01 1.0000000000000000e+01 5.6193099444745993e+00 
143 144 2 1.0279999999999996e+00 -4.8749913918522470e+03 1.0000000000000000e+00 1.8796328148557933e+01 1.0000000000000000e+01 4.1236572792206303e+00 
225 226 2 1.0280000000000000e+00 2.3410897561362790e+03 1.0000000000000000e+00 1.9051737246550108e+01 1.0000000000000000e+01 4.1400489532869900e+00 
313 314 2 1.0279999999999994e+00 -1.1270118692680176e+03 1.0000000000000000e+00 2.0149835977353561e+01 1.0000000000000000e+01 5.7654699458835283e+00 
226 227 2 1.0280000000000025e+00 6.5170566775689058e+03 1.0000000000000000e+00 2.2057468643291571e+01 1.0000000000000000e+01 4.4250283602307059e+00 
228 229 2 1.0280000000000042e+00 9.0638600074698079e+03 1.0000000000000000e+00 2.2411946617708342e+01 1.0000000000000000e+01 4.1942617812760323e+00 
450 451 2 1.0280000000000027e+00 2.4590141403192888e+03 1.0000000000000000e+00 2.4361358642040173e+01 1.0000000000000000e+01 5.3046492507008898e+00 
443 444 2 1.0279999999999943e+00 -3.3860186509253513e+03 1.0000000000000000e+00 2.4149216442080917e+01 1.0000000000000000e+01 5.4651578819192235e+00 
358 359 2 1.0280000000000027e+00 7.5507202822282466e+02 1.0000000000000000e+00 2.6858135056364411e+01 1.0000000000000000e+01 5.3842321193879927e+00 
134 135 2 1.0279999999999909e+00 -2.2140186268622265e+03 1.0000000000000000e+00 3.0650104560970526e+01 1.0000000000000000e+01 4.9704428692909719e+00 
426 427 2 1.0280000000000022e+00 -6.9517466240226281e+02 1.0000000000000000e+00 3.0969392052207095e+01 1.0000000000000000e+01 5.4197740739549181e+00 
6 7 2 1.0280000000000029e+00 -3.2629991507106422e+02 1.0000000000000000e+00 3.2346666064052663e+01 1.0000000000000000e+01 4.1647124041548498e+00 
349 350 2 1.0279999999999960e+00 -2.6587130813862432e+03 1.0000000000000000e+00 3.3018925073452522e+01 1.0000000000000000e+01 5.1723419928069188e+00 
708 709 2 1.0280000000001208e+00 7.0207729924456471e+03 1.0000000000000000e+00 5.3396221721433026e+00 1.3800000000000001e+01 4.3103842607055984e+00 
753 754 2 1.0280000000001146e+00 -5.2657453237558354e+02 1.0000000000000000e+00 6.4310121084432348e+00 1.3800000000000001e+01 4.3455336737045087e+00 
920 921 2 1.0279999999997795e+00 3.8282813649931131e+03 1.0000000000000000e+00 8.7670043677607872e+00 1.3800000000000001e+01 4.1861785668408906e+00 
836 837 2 1.0280000000000977e+00 3.6255411723861775e+03 1.0000000000000000e+00 9.6891606756419204e+00 1.3800000000000001e+01 4.5969132709713367e+00 
514 515 2 1.0279999999999379e+00 -2.0311885902366989e+03 1.0000000000000000e+00 1.1431497330338741e+01 1.3800000000000001e+01 4.3534961325229578e+00 
599 600 2 1.0280000000000222e+00 -4.3514161601220840e+03 1.0000000000000000e+00 1.1596309102705675e+01 1.3800000000000001e+01 5.7148622125692743e+00 
923 924 2 1.0279999999999923e+00 -8.4958201524781953e+02 1.0000000000000000e+00 1.0120680748867702e+01 1.3800000000000001e+01 5.9405319154647085e+00 
466 467 2 1.0280000000004954e+00 5.9819088122878447e+03 1.0000000000000000e+00 1.3804097609312810e+01 1.3800000000000001e+01 4.5622624254947883e+00 
843 844 2 1.0279999999996123e+00 -7.0383930406725813e+02 1.0000000000000000e+00 1.5037871861521406e+01 1.3800000000000001e+01 5.1664279370347543e+00 
762 763 2 1.0279999999995797e+00 1.3447066877698367e+02 1.0000000000000000e+00 1.5027798862857843e+01 1.3800000000000001e+01 5.1880652210371530e+00 
902 903 2 1.0280000000007801e+00 -3.0354154950773982e+03 1.0000000000000000e+00 1.7548217240574150e+01 1.3800000000000001e+01 4.6072075886799109e+00 
775 776 2 1.0280000000005955e+00 -1.1268782888607930e+03 1.0000000000000000e+00 1.7673781661078046e+01 1.3800000000000001e+01 4.4174593749265165e+00 
862 863 2 1.0279999999977922e+00 3.6825437641703684e+03 1.0000000000000000e+00 1.8842494295737318e+01 1.3800000000000001e+01 5.5425107402278826e+00 
507 508 2 1.0280000000001253e+00 -6.6311221313408123e+02 1.0000000000000000e+00 2.0913890459024287e+01 1.3800000000000001e+01 5.0169751132730411e+00 
594 595 2 1.0280000000001186e+00 1.7613411127262916e+02 1.0000000000000000e+00 2.0928655349987174e+01 1.3800000000000001e+01 5.0452166653083008e+00 
715 716 2 1.0279999999989677e+00 -1.5549294234739314e+03 1.0000000000000000e+00 2.3197885811816032e+01 1.3800000000000001e+01 5.0326314376423262e+00 
716 717 2 1.0279999999990312e+00 -1.6975903412575731e+03 1.0000000000000000e+00 2.3197867622884594e+01 1.3800000000000001e+01 5.0323788445477424e+00 
905 906 2 1.0280000000005343e+00 -3.3850191499717275e+03 1.0000000000000000e+00 2.7201907886081145e+01 1.3800000000000001e+01 4.0236712355747954e+00 
912 913 2 1.0279999999991181e+00 2.4595724603516746e+03 1.0000000000000000e+00 2.6294568828821106e+01 1.3800000000000001e+01 4.3084722994692619e+00 
552 553 2 1.0280000000007103e+00 1.2499893360278438e+03 1.0000000000000000e+00 2.8813615687052096e+01 1.3800000000000001e+01 5.6975579000770269e+00 
559 560 2 1.0279999999999729e+00 -2.5490238904751882e+03 1.0000000000000000e+00 2.9683311281965150e+01 1.3800000000000001e+01 4.4171750103520679e+00 
768 769 2 1.0279999999998779e+00 -6.3343163794413595e+03 1.0000000000000000e+00 2.9551923550319430e+01 1.3800000000000001e+01 5.5586155168266336e+00 
475 476 2 1.0279999999994638e+00 2.3262139891141187e+03 1.0000000000000000e+00 3.2572470366749734e+01 1.3800000000000001e+01 5.2365821136077271e+00 
651 652 2 1.0279999999994425e+00 1.8712907550052296e+02 1.0000000000000000e+00 3.2588429549813128e+01 1.3800000000000001e+01 5.2424474129743519e+00 
1323 1324 2 1.0280000000000014e+00 3.3744345885059961e+03 1.0000000000000000e+00 4.7458296371312407e+00 1.7600000000000001e+01 5.2923885042976275e+00 
1122 1123 2 1.0280000000000005e+00 3.0911520908723796e+03 1.0000000000000000e+00 6.2260031077586317e+00 1.7600000000000001e+01 4.2960229445312432e+00 
957 958 2 1.0279999999999982e+00 -3.9240816897990630e+03 1.0000000000000000e+00 6.2426677110504718e+00 1.7600000000000001e+01 4.3572253757630799e+00 
1003 1004 2 1.0279999999999994e+00 -1.4722506861184945e+03 1.0000000000000000e+00 8.5074043118449083e+00 1.7600000000000001e+01 5.0365732650226525e+00 
1002 1003 2 1.0279999999999994e+00 -2.1099213788482002e+03 1.0000000000000000e+00 8.5183901123712165e+00 1.7600000000000001e+01 5.0504317139643886e+00 
1343 1344 2 1.0280000000000005e+00 -8.6825079497543038e+02 1.0000000000000000e+00 1.0929687461395019e+01 1.7600000000000001e+01 4.1628794509705607e+00 
1004 1005 2 1.0280000000000016e+00 -7.9521509837557051e+02 1.0000000000000000e+00 1.0325365855903078e+01 1.7600000000000001e+01 4.5936455277865509e+00 
1256 1257 2 1.0279999999999987e+00 3.8243085559512874e+03 1.0000000000000000e+00 1.1756022843548282e+01 1.7600000000000001e+01 5.8577493885590206e+00 
1365 1366 2 1.0280000000000009e+00 5.4607555524250370e+02 1.0000000000000000e+00 1.2354578348579075e+01 1.7600000000000001e+01 4.1493169736734421e+00 
1050 1051 2 1.0280000000000018e+00 -2.3192032258732263e+02 1.0000000000000000e+00 1.2846444352851822e+01 1.7600000000000001e+01 5.9181507204225072e+00 
1022 1023 2 1.0279999999999982e+00 -1.8125111263295855e+03 1.0000000000000000e+00 1.4890476910128218e+01 1.7600000000000001e+01 4.2830426615311472e+00 
1110 1111 2 1.0280000000000009e+00 7.3748501518299145e+03 1.0000000000000000e+00 1.6330186463219171e+01 1.7600000000000001e+01 4.8602593907330114e+00 
1361 1362 2 1.0279999999999963e+00 -4.8585382311852554e+03 1.0000000000000000e+00 1.7696411585339462e+01 1.7600000000000001e+01 4.7936413919264256e+00 
943 944 2 1.0280000000000014e+00 -1.8298197829279525e+03 1.0000000000000000e+00 1.9016443995429686e+01 1.7600000000000001e+01 4.0831898918213323e+00 
1322 1323 2 1.0280000000000022e+00 -3.8870099486878678e+02 1.0000000000000000e+00 2.1330244467140620e+01 1.7600000000000001e+01 4.8466402825724728e+00 
1357 1358 2 1.0280000000000011e+00 2.2604936667360348e+03 1.0000000000000000e+00 1.9991327232451003e+01 1.7600000000000001e+01 5.1227008329516357e+00 
1319 1320 2 1.0280000000000005e+00 1.5242804254678072e+03 1.0000000000000000e+00 2.2589965657762630e+01 1.7600000000000001e+01 4.6673876539644681e+00 
1329 1330 2 1.0280000000000020e+00 -2.5863779349582819e+03 1.0000000000000000e+00 2.3277979047750815e+01 1.7600000000000001e+01 4.9982956587539622e+00 
927 928 2 1.0280000000000009e+00 -1.4118136985478609e+03 1.0000000000000000e+00 2.6303011534329269e+01 1.7600000000000001e+01 4.7437212555130488e+00 
1261 1262 2 1.0279999999999998e+00 -1.8761643832008735e+02 1.0000000000000000e+00 2.6649337524989104e+01 1.7600000000000001e+01 5.7011251716465425e+00 
1160 1161 2 1.0280000000000022e+00 1.0498073991143539e+04 1.0000000000000000e+00 2.9418328693998408e+01 1.7600000000000001e+01 5.1959029689082303e+00 
1154 1155 2 1.0280000000000022e+00 5.3888789606309210e+03 1.0000000000000000e+00 2.9421371690823172e+01 1.7600000000000001e+01 5.1984864163864080e+00 
995 996 2 1.0279999999999874e+00 -1.4091305510384331e+02 1.0000000000000000e+00 3.0682458199426375e+01 1.7600000000000001e+01 4.1649051755150452e+00 
207 208 2 1.0280000000000002e+00 -4.9612890627005174e+02 1.0000000000000000e+00 1.0273887337724499e+01 1.0000000000000000e+01 6.1550172872224298e+00 
42 43 2 1.0280000000000005e+00 -2.7077717118285100e+03 1.0000000000000000e+00 1.0352413638776481e+01 1.0000000000000000e+01 6.0548508243343706e+00 
376 377 2 1.0280000000000029e+00 -7.0384327187125873e+03 1.0000000000000000e+00 1.0662813349849401e+01 1.0000000000000000e+01 7.8086953177302272e+00 
420 421 2 1.0279999999999936e+00 -7.6853155893558869e+02 1.0000000000000000e+00 1.1938358745999361e+01 1.0000000000000000e+01 7.1546045025670235e+00 
425 426 2 1.0279999999999980e+00 3.7602916901829067e+03 1.0000000000000000e+00 1.3638801816553503e+01 1.0000000000000000e+01 7.1399021428730434e+00 
374 375 2 1.0280000000000029e+00 3.6252940482334193e+03 1.0000000000000000e+00 1.5628512955850949e+01 1.0000000000000000e+01 7.5590883071858626e+00 
341 342 2 1.0280000000000007e+00 3.6914843598778225e+03 1.0000000000000000e+00 1.3877911146379784e+01 1.0000000000000000e+01 7.9293630549630727e+00 
440 441 2 1.0280000000000009e+00 -3.0353667851623300e+03 1.0000000000000000e+00 2.0052035360800712e+01 1.0000000000000000e+01 6.6118867251264790e+00 