LAMMPS data file via write_data, version 30 Jul 2016, timestep = 50400000

2772 atoms
8 atom types

0.0000000000000000e+00 1.0000000000000000e+02 xlo xhi
0.0000000000000000e+00 4.0000000000000000e+01 ylo yhi
0.0000000000000000e+00 4.0000000000000000e+01 zlo zhi

Masses

1 3.896
2 5.36
3 20.064
4 8.378
5 8.378
6 8.378
7 8.378
8 8.378

Atoms # meso-molecular

221 222 2 1.0280000000000069e+00 4.7804544432095639e+01 1.0000000000000000e+00 3.1754373301179328e+01 1.0000000000000000e+01 2.0254328699624205e-01 
1262 1263 2 1.0279999953754748e+00 -1.8324653474894563e+02 1.0000000000000000e+00 9.8571210706981016e-01 1.6800000000000001e+01 7.1903056733306570e-01 
1016 1017 2 1.0279999999999971e+00 -5.7128586564762728e+01 1.0000000000000000e+00 4.5903683776067608e+00 1.6800000000000001e+01 2.1103543297852584e-01 
1344 1345 2 1.0280000000000005e+00 -1.3629217369409281e+02 1.0000000000000000e+00 8.5757617078291020e+00 1.6800000000000001e+01 3.3561811991489227e-01 
1070 1071 2 1.0280000000000000e+00 3.6367526346823615e+02 1.0000000000000000e+00 1.3214364438253885e+01 1.6800000000000001e+01 1.5122346621574501e-01 
1073 1074 2 1.0280000000000000e+00 3.6154603405761964e+02 1.0000000000000000e+00 1.3457849250441576e+01 1.6800000000000001e+01 1.4582994161445844e+00 
1093 1094 2 1.0280000000000113e+00 -3.3373140345834508e+02 1.0000000000000000e+00 1.8142597389742939e+01 1.6800000000000001e+01 3.0586428285508194e-01 
48 49 2 1.0280000000000000e+00 6.2380923221211913e+02 1.0000000000000000e+00 1.2179247691467281e+00 1.0000000000000000e+01 1.7632360694172717e+00 
49 50 2 1.0280000000000000e+00 -1.0176633478743380e+03 1.0000000000000000e+00 2.5473630067423652e+00 1.0000000000000000e+01 1.7813016462710167e+00 
1220 1221 2 1.0280000046001789e+00 1.5516704131724703e+02 1.0000000000000000e+00 1.5231661634167397e+00 1.6800000000000001e+01 1.9351208410834206e+00 
1384 1385 2 1.0279996945025263e+00 2.2114230868228037e+02 1.0000000000000000e+00 3.5235747105560913e+00 1.6800000000000001e+01 3.2386991326201722e+00 
1146 1147 2 1.0279999999999998e+00 3.6856443159817547e+02 1.0000000000000000e+00 6.8698053603661577e+00 1.6800000000000001e+01 2.3784331114599562e+00 
218 219 2 1.0280000000000000e+00 -1.3876976595209962e+03 1.0000000000000000e+00 1.0756982811258572e+01 1.0000000000000000e+01 3.3686676187787050e+00 
219 220 2 1.0280000000000000e+00 1.1844014286227591e+03 1.0000000000000000e+00 1.1817211009771528e+01 1.0000000000000000e+01 4.1709447278416674e+00 
256 257 2 1.0280000000000005e+00 4.0911069025903657e+02 1.0000000000000000e+00 2.5759689039060536e+01 1.0000000000000000e+01 4.1891625088939080e+00 
1039 1040 2 1.0280003055594431e+00 -1.0620591565700195e+02 1.0000000000000000e+00 4.2609643949490161e+00 1.6800000000000001e+01 4.3450453910546418e+00 
1147 1148 2 1.0279999999999998e+00 -5.0048404057359491e+01 1.0000000000000000e+00 7.7814101983399713e+00 1.6800000000000001e+01 3.3462703973872916e+00 
1191 1192 2 1.0280000000000005e+00 4.9353883632356030e+02 1.0000000000000000e+00 1.8711688823355004e+01 1.6800000000000001e+01 4.3302954269462175e+00 
1275 1276 2 1.0280000000000005e+00 1.4027349492984513e+02 1.0000000000000000e+00 1.9948679816626633e+01 1.6800000000000001e+01 3.8428678167174608e+00 
421 422 2 1.0280000000000005e+00 -7.7103536268426797e+02 1.0000000000000000e+00 2.6802512811889528e+01 1.0000000000000000e+01 5.0139357937856754e+00 
855 856 2 1.0280000000000005e+00 5.0773611929239758e+02 1.0000000000000000e+00 1.8217651428005500e+01 1.3400000000000000e+01 6.3823995359321115e+00 
920 921 2 1.0280000000000002e+00 -1.7434512182449737e+01 1.0000000000000000e+00 2.3090663441972161e+01 1.3400000000000000e+01 5.5028118205538537e+00 
919 920 2 1.0280000000000002e+00 -2.9046222077051857e+02 1.0000000000000000e+00 2.4420041462188308e+01 1.3400000000000000e+01 5.5248679311504363e+00 
972 973 2 1.0279999990300162e+00 6.2343893159723928e+02 1.0000000000000000e+00 2.5151858857678516e-01 1.6800000000000001e+01 5.4403271131954458e+00 
1172 1173 2 1.0280000006003469e+00 5.2159340836942128e+01 1.0000000000000000e+00 2.0202739302635950e+00 1.6800000000000001e+01 5.0462246089132048e+00 
1171 1172 2 1.0279999994178248e+00 8.0707140818471703e+02 1.0000000000000000e+00 2.6984392480240396e+00 1.6800000000000001e+01 6.2669293725498187e+00 
1019 1020 2 1.0279999977506453e+00 1.2419217112191589e+02 1.0000000000000000e+00 6.3491780421644863e+00 1.6800000000000001e+01 5.9791640523440792e+00 
1023 1024 2 1.0280000016508966e+00 1.0568351718107311e+02 1.0000000000000000e+00 7.8558772383990867e+00 1.6800000000000001e+01 6.1060626416098236e+00 
1365 1366 2 1.0279999999999998e+00 -1.2278461398431605e+03 1.0000000000000000e+00 1.3667033842836807e+01 1.6800000000000001e+01 6.6299421558478482e+00 
430 431 2 1.0280000000000002e+00 -1.9433628243326496e+02 1.0000000000000000e+00 2.7635755851155697e+01 1.0000000000000000e+01 7.6489125531174240e+00 
811 812 2 1.0280000000000005e+00 6.3792925120095288e+02 1.0000000000000000e+00 1.8149438964557284e+01 1.3400000000000000e+01 7.7102095571620977e+00 
973 974 2 1.0280000009462116e+00 -1.0190685068603429e+03 1.0000000000000000e+00 8.1503256968955884e-01 1.6800000000000001e+01 6.7079559854993400e+00 
1090 1091 2 1.0279999973602862e+00 -4.5977702190388220e+02 1.0000000000000000e+00 3.7383789385332977e+00 1.6800000000000001e+01 7.8516188916592924e+00 
1133 1134 2 1.0280000021198503e+00 1.5122689827749758e+02 1.0000000000000000e+00 4.7007894798011227e+00 1.6800000000000001e+01 6.7973802641494521e+00 
1018 1019 2 1.0280000015910522e+00 6.8239500945348323e+02 1.0000000000000000e+00 6.3674629689222098e+00 1.6800000000000001e+01 7.6527445898353275e+00 
1107 1108 2 1.0279999987260531e+00 5.1039668137345723e+02 1.0000000000000000e+00 7.8753265275441677e+00 1.6800000000000001e+01 7.7016901248766185e+00 
945 946 2 1.0279999999999998e+00 -1.2413661977702700e+03 1.0000000000000000e+00 1.2653209209314557e+01 1.6800000000000001e+01 7.4901119095080952e+00 
1029 1030 2 1.0280000000000002e+00 5.4029052951999873e+01 1.0000000000000000e+00 1.7267861460399342e+01 1.6800000000000001e+01 8.1870583460593522e+00 
1035 1036 2 1.0280000000000005e+00 2.6199897242779606e+01 1.0000000000000000e+00 2.5350680688647213e+01 1.6800000000000001e+01 7.1554552349078575e+00 
1040 1041 2 1.0280000000000005e+00 1.7598101164537064e+02 1.0000000000000000e+00 2.6660736482525014e+01 1.6800000000000001e+01 7.3823609632966605e+00 
433 434 2 1.0280000000000002e+00 -1.5915257934135193e+03 1.0000000000000000e+00 2.8673173180123737e+01 1.0000000000000000e+01 8.4804759470960605e+00 
428 429 2 1.0280000000000016e+00 1.2383320041595496e+02 1.0000000000000000e+00 3.2669890976710917e+01 1.0000000000000000e+01 8.6316194560819195e+00 
510 511 2 1.0280000000000000e+00 6.2379486504217812e+02 1.0000000000000000e+00 2.1682167475886949e+01 1.3400000000000000e+01 8.6839453567989899e+00 
511 512 2 1.0280000000000000e+00 -1.0176348100979754e+03 1.0000000000000000e+00 2.2953084941653280e+01 1.3400000000000000e+01 9.0744593614883726e+00 
1140 1141 2 1.0279999984255950e+00 8.2078632208979047e+02 1.0000000000000000e+00 1.1269185456040769e+00 1.6800000000000001e+01 8.6276743420782847e+00 
1139 1140 2 1.0280000012095005e+00 1.0128430209431272e+02 1.0000000000000000e+00 1.8476684623727373e+00 1.6800000000000001e+01 9.7721081369662546e+00 
1170 1171 2 1.0280000005027867e+00 -1.9832688695477977e+03 1.0000000000000000e+00 4.9270244320879124e+00 1.6800000000000001e+01 9.2053533453724175e+00 
1071 1072 2 1.0280000000000002e+00 -3.6410664019226454e+02 1.0000000000000000e+00 1.6666904721629791e+01 1.6800000000000001e+01 9.3730530301856838e+00 
86 87 2 1.0280000000000005e+00 -1.7786250322993197e+02 1.0000000000000000e+00 1.8674929261289424e+01 1.0000000000000000e+01 1.1206733650762196e+01 
161 162 2 1.0279999999999998e+00 4.3331058739380927e+02 1.0000000000000000e+00 3.0720871344746772e+01 1.0000000000000000e+01 1.1291307469813468e+01 
682 683 2 1.0280000000000002e+00 -6.3358426198741915e+02 1.0000000000000000e+00 7.9090461079375229e+00 1.3400000000000000e+01 1.1436694786104008e+01 
932 933 2 1.0279999987654900e+00 1.5072120997106930e+02 1.0000000000000000e+00 9.2645122312254102e-01 1.6800000000000001e+01 1.1522639400940362e+01 
1254 1255 2 1.0279999990047775e+00 1.1570810359606701e+03 1.0000000000000000e+00 3.8826763429199178e+00 1.6800000000000001e+01 1.0258306803249862e+01 
1213 1214 2 1.0279999963356345e+00 -3.6712240944760606e+02 1.0000000000000000e+00 6.2281692490701106e+00 1.6800000000000001e+01 1.0388117892682809e+01 
1350 1351 2 1.0280000072315922e+00 -2.8293138569329733e+02 1.0000000000000000e+00 8.7874897592355374e+00 1.6800000000000001e+01 1.1633560092401774e+01 
128 129 2 1.0280000000000005e+00 1.5991317186657673e+02 1.0000000000000000e+00 1.9610096629653075e+01 1.0000000000000000e+01 1.2151823268627219e+01 
204 205 2 1.0279999999999998e+00 7.2366623554473762e+01 1.0000000000000000e+00 3.1593661677475382e+01 1.0000000000000000e+01 1.2294287742672280e+01 
683 684 2 1.0280000000000002e+00 4.7735431177778693e+01 1.0000000000000000e+00 9.0191267275351059e+00 1.3400000000000000e+01 1.2168441607513092e+01 
1136 1137 2 1.0280000019208588e+00 2.7889488970789563e+02 1.0000000000000000e+00 2.2058644430670357e-01 1.6800000000000001e+01 1.2671430697599796e+01 
1260 1261 2 1.0280000013196553e+00 -2.5591023006948777e+02 1.0000000000000000e+00 4.6798096190156162e+00 1.6800000000000001e+01 1.1689253735761771e+01 
1055 1056 2 1.0279999969108831e+00 2.5076059286065822e+02 1.0000000000000000e+00 4.3539004661653857e+00 1.6800000000000001e+01 1.3272320357303617e+01 
1215 1216 2 1.0280000028674339e+00 4.2084876272174790e+02 1.0000000000000000e+00 6.4069791546313128e+00 1.6800000000000001e+01 1.1798222747206678e+01 
1349 1350 2 1.0279999927890970e+00 -5.5085609446001778e+00 1.0000000000000000e+00 9.6355615146709201e+00 1.6800000000000001e+01 1.2657526267438362e+01 
1265 1266 2 1.0280000000000009e+00 3.3111953941503634e+02 1.0000000000000000e+00 1.3235444396278504e+01 1.6800000000000001e+01 1.3138196118260108e+01 
1223 1224 2 1.0280000000000002e+00 2.4877579567987044e+02 1.0000000000000000e+00 1.7701029342306530e+01 1.6800000000000001e+01 1.1683504152228814e+01 
1266 1267 2 1.0280000000000002e+00 -2.9231942677971585e+02 1.0000000000000000e+00 1.9009694088292925e+01 1.6800000000000001e+01 1.1918299755383593e+01 
273 274 2 1.0279999999999991e+00 3.6713850563397671e+02 1.0000000000000000e+00 2.9884986107582812e+01 1.0000000000000000e+01 1.4083720641410558e+01 
812 813 2 1.0280000000000009e+00 2.6514095532662225e+01 1.0000000000000000e+00 2.7700723010666355e+01 1.3400000000000000e+01 1.3976107404660890e+01 
1135 1136 2 1.0280000007626393e+00 -8.5502606438505538e+01 1.0000000000000000e+00 1.4317399644518756e+00 1.6800000000000001e+01 1.4408862510446722e+01 
1014 1015 2 1.0280000006478724e+00 -2.9007792872031155e+02 1.0000000000000000e+00 5.5771466754936485e+00 1.6800000000000001e+01 1.4167743385552921e+01 
1307 1308 2 1.0280000000000009e+00 -1.8205764015885464e+01 1.0000000000000000e+00 1.2082451577870154e+01 1.6800000000000001e+01 1.3800268586610224e+01 
268 269 2 1.0279999999999991e+00 5.3322189339561010e+02 1.0000000000000000e+00 3.0724471460061107e+01 1.0000000000000000e+01 1.5114737971828845e+01 
519 520 2 1.0280000000000009e+00 5.0714898723978297e+02 1.0000000000000000e+00 2.7052559908980012e+01 1.3400000000000000e+01 1.5136976469741352e+01 
800 801 2 1.0280000000000000e+00 -1.8086470647448090e+02 1.0000000000000000e+00 3.2775813800462046e+01 1.3400000000000000e+01 1.5550422736072289e+01 
970 971 2 1.0279999986608825e+00 -2.8016136743330134e+02 1.0000000000000000e+00 1.0173122380607544e+00 1.6800000000000001e+01 1.5997907905727628e+01 
1141 1142 2 1.0280000020838069e+00 -1.9600259350681331e+03 1.0000000000000000e+00 2.8226336352487462e+00 1.6800000000000001e+01 1.5275883573328073e+01 
1057 1058 2 1.0280000009738715e+00 1.1888533625328973e+03 1.0000000000000000e+00 4.4022165367270922e+00 1.6800000000000001e+01 1.5244044089442800e+01 
1179 1180 2 1.0279999938353848e+00 3.1426861019392970e+02 1.0000000000000000e+00 6.0344728253464739e+00 1.6800000000000001e+01 1.6232714172863318e+01 
1257 1258 2 1.0280000000000000e+00 -1.0214241949025698e+03 1.0000000000000000e+00 1.5383866550975959e+01 1.6800000000000001e+01 1.5928268496276203e+01 
1299 1300 2 1.0280000000000000e+00 7.0603829014024575e+02 1.0000000000000000e+00 1.6439073085777888e+01 1.6800000000000001e+01 1.5119397949427229e+01 
758 759 2 1.0280000000000000e+00 1.5604669822421204e+02 1.0000000000000000e+00 3.3161137719252359e+01 1.3400000000000000e+01 1.6822923372715167e+01 
969 970 2 1.0279999930585848e+00 -1.7043909296891550e+02 1.0000000000000000e+00 2.2911202979190568e+00 1.6800000000000001e+01 1.7016351924989351e+01 
1180 1181 2 1.0280000075554185e+00 4.1061052198148292e+02 1.0000000000000000e+00 5.1993687952921022e+00 1.6800000000000001e+01 1.7311331483704794e+01 
1013 1014 2 1.0280000000000002e+00 3.5197540637886840e+02 1.0000000000000000e+00 1.0012178007529210e+01 1.6800000000000001e+01 1.8285327081987202e+01 
347 348 2 1.0279999999999998e+00 1.3644137423139682e+02 1.0000000000000000e+00 3.2311926490140586e+00 1.0000000000000000e+01 1.9640746345855916e+01 
309 310 2 1.0279999999999989e+00 -3.2712669587548044e+02 1.0000000000000000e+00 2.5904091138508729e+01 1.0000000000000000e+01 1.8581310796503541e+01 
394 395 2 1.0279999999999989e+00 3.1505348741845165e+02 1.0000000000000000e+00 2.7141198488463697e+01 1.0000000000000000e+01 1.9068443014013177e+01 
942 943 2 1.0280000078118769e+00 -6.3085109018469427e+02 1.0000000000000000e+00 1.6857719506695381e+00 1.6800000000000001e+01 1.8481607558637037e+01 
941 942 2 1.0279999969004949e+00 -3.2133014221364510e+02 1.0000000000000000e+00 3.6565288306861734e+00 1.6800000000000001e+01 1.8409201548119011e+01 
944 945 2 1.0280000007390624e+00 -1.0112625876331072e+03 1.0000000000000000e+00 3.6316080653699618e+00 1.6800000000000001e+01 1.9815055475185790e+01 
971 972 2 1.0280000000000002e+00 -2.1836676274124887e+01 1.0000000000000000e+00 8.6999094991055035e+00 1.6800000000000001e+01 1.8499064665130344e+01 
1352 1353 2 1.0279999999999996e+00 1.2302226539165932e+02 1.0000000000000000e+00 1.4575922720023938e+01 1.6800000000000001e+01 1.9918637970788389e+01 
1251 1252 2 1.0280000000000009e+00 -3.4481311196320883e+02 1.0000000000000000e+00 1.8364134601866009e+01 1.6800000000000001e+01 1.9847697717994134e+01 
1297 1298 2 1.0280000000000009e+00 -2.8902423254762823e+02 1.0000000000000000e+00 1.9374464577357731e+01 1.6800000000000001e+01 1.8983425924360127e+01 
432 433 2 1.0279999999999998e+00 -1.2765056966785414e+03 1.0000000000000000e+00 2.1571171993424918e+00 1.0000000000000000e+01 2.0424388050374809e+01 
888 889 2 1.0280000000000022e+00 -2.8143258683071406e+02 1.0000000000000000e+00 9.5737240472640064e+00 1.3400000000000000e+01 2.1166743398769157e+01 
1021 1022 2 1.0279999907968469e+00 6.2827734043982730e+02 1.0000000000000000e+00 1.4696307484415037e+00 1.6800000000000001e+01 2.0008778999219100e+01 
943 944 2 1.0280000073437570e+00 2.1834260468475263e+03 1.0000000000000000e+00 1.5156207103457642e+00 1.6800000000000001e+01 2.1569488133800572e+01 
939 940 2 1.0279999978296317e+00 5.7338628660746133e+02 1.0000000000000000e+00 3.1578140958047363e+00 1.6800000000000001e+01 2.1518904153470928e+01 
1272 1273 2 1.0280000010330772e+00 5.9124702650693926e+01 1.0000000000000000e+00 6.9002660154724405e+00 1.6800000000000001e+01 2.1622040544389336e+01 
1271 1272 2 1.0279999992462332e+00 1.3422292747985256e+02 1.0000000000000000e+00 8.1496998357524912e+00 1.6800000000000001e+01 2.1027727003676901e+01 
1353 1354 2 1.0279999999999996e+00 -1.0105411941905502e+03 1.0000000000000000e+00 1.5081175318010366e+01 1.6800000000000001e+01 2.1148455926778794e+01 
887 888 2 1.0280000000000022e+00 -4.0486553204824371e+00 1.0000000000000000e+00 9.9070778019561452e+00 1.3400000000000000e+01 2.2453836117605331e+01 
938 939 2 1.0279999976877143e+00 -1.3226124550088216e+03 1.0000000000000000e+00 2.8994711688651122e+00 1.6800000000000001e+01 2.3067030858414888e+01 
1025 1026 2 1.0279999984426178e+00 5.3763849084939835e+01 1.0000000000000000e+00 5.5711805064002000e+00 1.6800000000000001e+01 2.2973451871946761e+01 
928 929 2 1.0279999999926512e+00 2.1718303880737359e+01 1.0000000000000000e+00 8.4509083387885422e+00 1.6800000000000001e+01 2.2825450773663938e+01 
57 58 2 1.0280000000000058e+00 5.0707691772585133e+02 1.0000000000000000e+00 1.5915869414294333e+01 1.0000000000000000e+01 2.4928465001852928e+01 
350 351 2 1.0280000000000058e+00 2.6378013697232404e+01 1.0000000000000000e+00 1.6673750020792955e+01 1.0000000000000000e+01 2.3836059683785635e+01 
515 516 2 1.0280000000000009e+00 4.0261223663231806e+02 1.0000000000000000e+00 7.5957902697574085e+00 1.3400000000000000e+01 2.4151162321658347e+01 
1309 1310 2 1.0280000003163510e+00 -1.0180774190820450e+03 1.0000000000000000e+00 8.1411257086127764e-01 1.6800000000000001e+01 2.3512128534505912e+01 
1361 1362 2 1.0280000000465417e+00 -3.9199896488684340e+02 1.0000000000000000e+00 6.5400510617883301e-01 1.6800000000000001e+01 2.4843135812393971e+01 
1308 1309 2 1.0279999988273050e+00 6.5334289787958198e+02 1.0000000000000000e+00 2.7411716949659040e+00 1.6800000000000001e+01 2.4662747073317139e+01 
983 984 2 1.0280000024151192e+00 -2.3432464188489766e+02 1.0000000000000000e+00 4.5730407354109168e+00 1.6800000000000001e+01 2.3933379844634068e+01 
927 928 2 1.0280000011047006e+00 2.1358103375792979e+02 1.0000000000000000e+00 7.2716220515561432e+00 1.6800000000000001e+01 2.3939580089504247e+01 
926 927 2 1.0279999993747095e+00 7.6587441199611476e+01 1.0000000000000000e+00 8.7173553285825580e+00 1.6800000000000001e+01 2.4391414215647902e+01 
1221 1222 2 1.0280000000000000e+00 -4.6254398952420354e+02 1.0000000000000000e+00 1.3975692575354552e+01 1.6800000000000001e+01 2.3990178723458460e+01 
516 517 2 1.0280000000000009e+00 7.5876133017259554e+02 1.0000000000000000e+00 8.1763972781160366e+00 1.3400000000000000e+01 2.5347250903032357e+01 
567 568 2 1.0280000000000014e+00 5.5224576537303491e+01 1.0000000000000000e+00 1.6989791474453803e+01 1.3400000000000000e+01 2.6021188908040166e+01 
1362 1363 2 1.0279999973801754e+00 -7.4830573759895935e+02 1.0000000000000000e+00 2.3949119154501393e+00 1.6800000000000001e+01 2.6157490190245131e+01 
929 930 2 1.0279999999999996e+00 -8.6331349568793847e+00 1.0000000000000000e+00 1.1140742335371208e+01 1.6800000000000001e+01 2.5455147782940394e+01 
1178 1179 2 1.0280000000000000e+00 1.4399308473147423e+02 1.0000000000000000e+00 1.4228495214908639e+01 1.6800000000000001e+01 2.5295484518313803e+01 
609 610 2 1.0280000000000014e+00 -3.6289096590664701e+02 1.0000000000000000e+00 1.6190249341785577e+01 1.3400000000000000e+01 2.7083481132777216e+01 
993 994 2 1.0280000026651046e+00 2.4821274243578148e+02 1.0000000000000000e+00 1.3814677422166288e-01 1.6800000000000001e+01 2.6890396429129620e+01 
1036 1037 2 1.0280000003091212e+00 5.9108751715228962e+01 1.0000000000000000e+00 1.6387790147330206e+00 1.6800000000000001e+01 2.7531955814549740e+01 
1354 1355 2 1.0280000000000005e+00 -1.9101621170540102e+02 1.0000000000000000e+00 4.8607989836279870e+00 1.6800000000000001e+01 2.6914139186355602e+01 
1357 1358 2 1.0280000000000005e+00 -1.5929426139309908e+03 1.0000000000000000e+00 5.4433602226695799e+00 1.6800000000000001e+01 2.8109277168102803e+01 
930 931 2 1.0279999999999996e+00 -2.8490683282469240e+02 1.0000000000000000e+00 1.0660758766775391e+01 1.6800000000000001e+01 2.6695046233026723e+01 
1205 1206 2 1.0280000000000005e+00 9.7876927636437017e+01 1.0000000000000000e+00 1.7383722255556290e+01 1.6800000000000001e+01 2.7428288755516025e+01 
1247 1248 2 1.0280000000000005e+00 -6.4659423880629515e+02 1.0000000000000000e+00 1.8712771118357431e+01 1.6800000000000001e+01 2.7465187440254685e+01 
254 255 2 1.0279999999999998e+00 1.4315795514598886e+02 1.0000000000000000e+00 2.2218623316966024e+01 1.0000000000000000e+01 2.9765915980746378e+01 
297 298 2 1.0279999999999998e+00 -4.6295032158057734e+02 1.0000000000000000e+00 2.2786618446525999e+01 1.0000000000000000e+01 2.8563787066925318e+01 
960 961 2 1.0279999948080045e+00 4.9050357461853615e+01 1.0000000000000000e+00 9.8394557557174078e-01 1.6800000000000001e+01 2.9280884711384790e+01 
1332 1333 2 1.0279999997661511e+00 8.7363110497315870e+02 1.0000000000000000e+00 2.7471137822126752e+00 1.6800000000000001e+01 2.9113810624938708e+01 
1007 1008 2 1.0280000000000005e+00 -1.2559074804982383e+02 1.0000000000000000e+00 1.2266055550348970e+01 1.6800000000000001e+01 2.9587007996275247e+01 
1343 1344 2 1.0280000000000005e+00 -1.2351348689899999e+02 1.0000000000000000e+00 1.3080711575399937e+01 1.6800000000000001e+01 2.8536261617030185e+01 
1216 1217 2 1.0280000045538329e+00 3.1172358649602006e+02 1.0000000000000000e+00 1.6302080958713925e+00 1.6800000000000001e+01 3.0642700282783455e+01 
1376 1377 2 1.0279999983795041e+00 7.1648853781342359e+02 1.0000000000000000e+00 3.4636207154562162e+00 1.6800000000000001e+01 3.0398341361715570e+01 
976 977 2 1.0280000000000020e+00 -3.5167300130559977e+02 1.0000000000000000e+00 7.9281948170673280e+00 1.6800000000000001e+01 3.1573533658723804e+01 
1346 1347 2 1.0279999999999971e+00 7.9517242491424298e+01 1.0000000000000000e+00 3.2624961773189717e+01 1.6800000000000001e+01 3.0005049886970294e+01 
1098 1099 2 1.0279999995910389e+00 -3.3087265513241960e+02 1.0000000000000000e+00 1.4569054876351142e-01 1.6800000000000001e+01 3.2712002534620950e+01 
1218 1219 2 1.0280000007219763e+00 -3.3939400104746312e+02 1.0000000000000000e+00 1.4854658682049631e+00 1.6800000000000001e+01 3.2921315876494752e+01 
966 967 2 1.0279999993366991e+00 -7.6328918856586574e+02 1.0000000000000000e+00 3.3298894930783649e+00 1.6800000000000001e+01 3.2129570824734991e+01 
1064 1065 2 1.0280000000000020e+00 -6.1062904904080142e+02 1.0000000000000000e+00 8.5193372814700972e+00 1.6800000000000001e+01 3.2764450523760260e+01 
1150 1151 2 1.0279999723670188e+00 7.5616753945401683e+01 1.0000000000000000e+00 2.3919192453377313e+01 1.6800000000000001e+01 3.2332926705060324e+01 
1152 1153 2 1.0280000277654213e+00 -3.4708221665937282e+02 1.0000000000000000e+00 2.5247388620824783e+01 1.6800000000000001e+01 3.2272698169458835e+01 
227 228 2 1.0280000000000000e+00 -3.9339027045332648e+02 1.0000000000000000e+00 3.0150407702542626e+01 1.0000000000000000e+01 3.4847132481598280e+01 
270 271 2 1.0280000000000000e+00 5.1900168945020232e+02 1.0000000000000000e+00 3.1464307851217306e+01 1.0000000000000000e+01 3.4643665550719803e+01 
1044 1045 2 1.0279999991470994e+00 -9.1800209156045980e+02 1.0000000000000000e+00 2.4249930212014164e+00 1.6800000000000001e+01 3.4999685014069172e+01 
1048 1049 2 1.0279999995601310e+00 1.8423224779697085e+02 1.0000000000000000e+00 3.3945412882699366e+00 1.6800000000000001e+01 3.3562243019412065e+01 
1001 1002 2 1.0280000278741859e+00 1.9997700336003786e+02 1.0000000000000000e+00 2.6270541382575615e+01 1.6800000000000001e+01 3.4422291918800255e+01 
1043 1044 2 1.0280000009181942e+00 -6.5076842181843787e+01 1.0000000000000000e+00 9.8054710302520398e-01 1.6800000000000001e+01 3.5312396979059542e+01 
1092 1093 2 1.0279999993414708e+00 -2.6115539167857690e+02 1.0000000000000000e+00 3.4066867111196708e+00 1.6800000000000001e+01 3.6620691596230472e+01 
954 955 2 1.0279999724757836e+00 -1.6069251434904359e+03 1.0000000000000000e+00 2.6681988071210359e+01 1.6800000000000001e+01 3.5686587832568542e+01 
671 672 2 1.0280000000000011e+00 1.5390050912209736e+02 1.0000000000000000e+00 2.6655477565744352e+01 1.3400000000000000e+01 3.6792917402024543e+01 
628 629 2 1.0280000000000011e+00 -4.5863902597642004e+02 1.0000000000000000e+00 2.7198535477878416e+01 1.3400000000000000e+01 3.8006515563162338e+01 
1134 1135 2 1.0280000009598995e+00 -3.5066617793108833e+02 1.0000000000000000e+00 2.0858991339456572e+00 1.6800000000000001e+01 3.6957056541952227e+01 
1264 1265 2 1.0279999999999987e+00 6.9666276179703334e+02 1.0000000000000000e+00 1.1234330592588908e+01 1.6800000000000001e+01 3.6781961980172149e+01 
1222 1223 2 1.0279999999999987e+00 -1.0353725593179154e+03 1.0000000000000000e+00 1.2560806913959677e+01 1.6800000000000001e+01 3.6691447000797844e+01 
220 221 2 1.0280000000000078e+00 -6.3357543333682702e+02 1.0000000000000000e+00 3.0572382267835597e+01 1.0000000000000000e+01 3.9593749734350162e+01 
1015 1016 2 1.0279999999999967e+00 -9.0938797943649706e+02 1.0000000000000000e+00 4.1182942836140368e+00 1.6800000000000001e+01 3.8968104042100727e+01 
1302 1303 2 1.0280000000000007e+00 4.2152604596710638e+01 1.0000000000000000e+00 7.3336155448362135e+00 1.6800000000000001e+01 3.9861481744585497e+01 
1051 1052 2 1.0280000000000111e+00 -2.6085084997263402e+02 1.0000000000000000e+00 1.6946586140370584e+01 1.6800000000000001e+01 3.9725097992491072e+01 
1607 1608 2 1.0280000000000069e+00 4.7804544432095639e+01 1.0000000000000000e+00 3.1754373301179328e+01 2.0199999999999999e+01 2.0254328699624205e-01 
2648 2649 2 1.0279999953754748e+00 -1.8324653474894563e+02 1.0000000000000000e+00 9.8571210706981016e-01 2.7000000000000000e+01 7.1903056733306570e-01 
2402 2403 2 1.0279999999999971e+00 -5.7128586564762728e+01 1.0000000000000000e+00 4.5903683776067608e+00 2.7000000000000000e+01 2.1103543297852584e-01 
2730 2731 2 1.0280000000000005e+00 -1.3629217369409281e+02 1.0000000000000000e+00 8.5757617078291020e+00 2.7000000000000000e+01 3.3561811991489227e-01 
2456 2457 2 1.0280000000000000e+00 3.6367526346823615e+02 1.0000000000000000e+00 1.3214364438253885e+01 2.7000000000000000e+01 1.5122346621574501e-01 
2459 2460 2 1.0280000000000000e+00 3.6154603405761964e+02 1.0000000000000000e+00 1.3457849250441576e+01 2.7000000000000000e+01 1.4582994161445844e+00 
2479 2480 2 1.0280000000000113e+00 -3.3373140345834508e+02 1.0000000000000000e+00 1.8142597389742939e+01 2.7000000000000000e+01 3.0586428285508194e-01 
1434 1435 2 1.0280000000000000e+00 6.2380923221211913e+02 1.0000000000000000e+00 1.2179247691467281e+00 2.0199999999999999e+01 1.7632360694172717e+00 
1435 1436 2 1.0280000000000000e+00 -1.0176633478743380e+03 1.0000000000000000e+00 2.5473630067423652e+00 2.0199999999999999e+01 1.7813016462710167e+00 
2606 2607 2 1.0280000046001789e+00 1.5516704131724703e+02 1.0000000000000000e+00 1.5231661634167397e+00 2.7000000000000000e+01 1.9351208410834206e+00 
2770 2771 2 1.0279996945025263e+00 2.2114230868228037e+02 1.0000000000000000e+00 3.5235747105560913e+00 2.7000000000000000e+01 3.2386991326201722e+00 
2532 2533 2 1.0279999999999998e+00 3.6856443159817547e+02 1.0000000000000000e+00 6.8698053603661577e+00 2.7000000000000000e+01 2.3784331114599562e+00 
1604 1605 2 1.0280000000000000e+00 -1.3876976595209962e+03 1.0000000000000000e+00 1.0756982811258572e+01 2.0199999999999999e+01 3.3686676187787050e+00 
1605 1606 2 1.0280000000000000e+00 1.1844014286227591e+03 1.0000000000000000e+00 1.1817211009771528e+01 2.0199999999999999e+01 4.1709447278416674e+00 
1642 1643 2 1.0280000000000005e+00 4.0911069025903657e+02 1.0000000000000000e+00 2.5759689039060536e+01 2.0199999999999999e+01 4.1891625088939080e+00 
2425 2426 2 1.0280003055594431e+00 -1.0620591565700195e+02 1.0000000000000000e+00 4.2609643949490161e+00 2.7000000000000000e+01 4.3450453910546418e+00 
2533 2534 2 1.0279999999999998e+00 -5.0048404057359491e+01 1.0000000000000000e+00 7.7814101983399713e+00 2.7000000000000000e+01 3.3462703973872916e+00 
2577 2578 2 1.0280000000000005e+00 4.9353883632356030e+02 1.0000000000000000e+00 1.8711688823355004e+01 2.7000000000000000e+01 4.3302954269462175e+00 
2661 2662 2 1.0280000000000005e+00 1.4027349492984513e+02 1.0000000000000000e+00 1.9948679816626633e+01 2.7000000000000000e+01 3.8428678167174608e+00 
1807 1808 2 1.0280000000000005e+00 -7.7103536268426797e+02 1.0000000000000000e+00 2.6802512811889528e+01 2.0199999999999999e+01 5.0139357937856754e+00 
2241 2242 2 1.0280000000000005e+00 5.0773611929239758e+02 1.0000000000000000e+00 1.8217651428005500e+01 2.3600000000000001e+01 6.3823995359321115e+00 
2306 2307 2 1.0280000000000002e+00 -1.7434512182449737e+01 1.0000000000000000e+00 2.3090663441972161e+01 2.3600000000000001e+01 5.5028118205538537e+00 
2305 2306 2 1.0280000000000002e+00 -2.9046222077051857e+02 1.0000000000000000e+00 2.4420041462188308e+01 2.3600000000000001e+01 5.5248679311504363e+00 
2358 2359 2 1.0279999990300162e+00 6.2343893159723928e+02 1.0000000000000000e+00 2.5151858857678516e-01 2.7000000000000000e+01 5.4403271131954458e+00 
2558 2559 2 1.0280000006003469e+00 5.2159340836942128e+01 1.0000000000000000e+00 2.0202739302635950e+00 2.7000000000000000e+01 5.0462246089132048e+00 
2557 2558 2 1.0279999994178248e+00 8.0707140818471703e+02 1.0000000000000000e+00 2.6984392480240396e+00 2.7000000000000000e+01 6.2669293725498187e+00 
2405 2406 2 1.0279999977506453e+00 1.2419217112191589e+02 1.0000000000000000e+00 6.3491780421644863e+00 2.7000000000000000e+01 5.9791640523440792e+00 
2409 2410 2 1.0280000016508966e+00 1.0568351718107311e+02 1.0000000000000000e+00 7.8558772383990867e+00 2.7000000000000000e+01 6.1060626416098236e+00 
2751 2752 2 1.0279999999999998e+00 -1.2278461398431605e+03 1.0000000000000000e+00 1.3667033842836807e+01 2.7000000000000000e+01 6.6299421558478482e+00 
1816 1817 2 1.0280000000000002e+00 -1.9433628243326496e+02 1.0000000000000000e+00 2.7635755851155697e+01 2.0199999999999999e+01 7.6489125531174240e+00 
2197 2198 2 1.0280000000000005e+00 6.3792925120095288e+02 1.0000000000000000e+00 1.8149438964557284e+01 2.3600000000000001e+01 7.7102095571620977e+00 
2359 2360 2 1.0280000009462116e+00 -1.0190685068603429e+03 1.0000000000000000e+00 8.1503256968955884e-01 2.7000000000000000e+01 6.7079559854993400e+00 
2476 2477 2 1.0279999973602862e+00 -4.5977702190388220e+02 1.0000000000000000e+00 3.7383789385332977e+00 2.7000000000000000e+01 7.8516188916592924e+00 
2519 2520 2 1.0280000021198503e+00 1.5122689827749758e+02 1.0000000000000000e+00 4.7007894798011227e+00 2.7000000000000000e+01 6.7973802641494521e+00 