LAMMPS data file via write_data, version 30 Jul 2016, timestep = 50000000

2772 atoms
8 atom types

0.0000000000000000e+00 1.0000000000000000e+02 xlo xhi
0.0000000000000000e+00 4.0000000000000000e+01 ylo yhi
0.0000000000000000e+00 4.0000000000000000e+01 zlo zhi

Masses

1 3.896
2 5.36
3 20.064
4 8.378
5 8.378
6 8.378
7 8.378
8 8.378

Atoms # meso-molecular

48 49 2 1.0280000000000000e+00 6.2380923221211913e+02 1.0000000000000000e+00 1.1859526524592439e+00 1.0000000000000000e+01 1.6152411434142351e+00 
49 50 2 1.0280000000000000e+00 -1.0176633478743380e+03 1.0000000000000000e+00 2.5153908900548809e+00 1.0000000000000000e+01 1.6333067202679801e+00 
1262 1263 2 1.0279999859522204e+00 -1.8324653474894563e+02 1.0000000000000000e+00 1.0220009918449526e+00 1.6800000000000001e+01 6.8674017460747849e-01 
1016 1017 2 1.0279999999999971e+00 -5.7128586564762728e+01 1.0000000000000000e+00 4.5710842100994666e+00 1.6800000000000001e+01 2.8460478030038538e-01 
1344 1345 2 1.0279999999999947e+00 -1.3629217369409281e+02 1.0000000000000000e+00 8.6246438094726123e+00 1.6800000000000001e+01 4.5114851363323594e-01 
1070 1071 2 1.0280000000000000e+00 3.6367526346823615e+02 1.0000000000000000e+00 1.3203831010257378e+01 1.6800000000000001e+01 2.0400099185444809e-01 
1073 1074 2 1.0280000000000000e+00 3.6154603405761964e+02 1.0000000000000000e+00 1.3447315822445070e+01 1.6800000000000001e+01 1.5110769417832874e+00 
1093 1094 2 1.0280000000000065e+00 -3.3373140345834508e+02 1.0000000000000000e+00 1.8061438098313072e+01 1.6800000000000001e+01 1.5007725418767545e-01 
1220 1221 2 1.0280000139553678e+00 1.5516704129450966e+02 1.0000000000000000e+00 1.5594447429874276e+00 1.6800000000000001e+01 1.9028350227771833e+00 
1384 1385 2 1.0279994016211567e+00 2.2114230889363776e+02 1.0000000000000000e+00 3.5372058922063894e+00 1.6800000000000001e+01 3.2334433530609679e+00 
1146 1147 2 1.0279999999999998e+00 3.6856443159817547e+02 1.0000000000000000e+00 6.8529396472733737e+00 1.6800000000000001e+01 2.4517750381251497e+00 
218 219 2 1.0280000000000000e+00 -1.3876976595209962e+03 1.0000000000000000e+00 1.1067973747728152e+01 1.0000000000000000e+01 3.5793561161827263e+00 
219 220 2 1.0280000000000000e+00 1.1844014286227591e+03 1.0000000000000000e+00 1.2128201946241107e+01 1.0000000000000000e+01 4.3816332252456887e+00 
256 257 2 1.0280000000000005e+00 4.0911069025903657e+02 1.0000000000000000e+00 2.5936347631526164e+01 1.0000000000000000e+01 4.1859582990187008e+00 
920 921 2 1.0280000000000002e+00 -1.7434512182449737e+01 1.0000000000000000e+00 2.3173177841907169e+01 1.3400000000000000e+01 4.5491470520656154e+00 
919 920 2 1.0280000000000002e+00 -2.9046222077051857e+02 1.0000000000000000e+00 2.4502555862123316e+01 1.3400000000000000e+01 4.5712031626621981e+00 
1039 1040 2 1.0280005982519183e+00 -1.0620591598128902e+02 1.0000000000000000e+00 4.2743694552757807e+00 1.6800000000000001e+01 4.3399362397018555e+00 
1147 1148 2 1.0279999999999998e+00 -5.0048404057359491e+01 1.0000000000000000e+00 7.7645444852471872e+00 1.6800000000000001e+01 3.4196123240524852e+00 
1191 1192 2 1.0279999999999996e+00 4.9353883632356030e+02 1.0000000000000000e+00 1.8809378241865076e+01 1.6800000000000001e+01 4.2331959082984429e+00 
1275 1276 2 1.0279999999999996e+00 1.4027349492984513e+02 1.0000000000000000e+00 2.0046369235136705e+01 1.6800000000000001e+01 3.7457682980696800e+00 
421 422 2 1.0280000000000005e+00 -7.7103536268426797e+02 1.0000000000000000e+00 2.6979171404355156e+01 1.0000000000000000e+01 5.0107315839104682e+00 
855 856 2 1.0280000000000005e+00 5.0773611929239758e+02 1.0000000000000000e+00 1.8375530314858313e+01 1.3400000000000000e+01 5.7266092889370865e+00 
972 973 2 1.0279999991236954e+00 6.2343893159723928e+02 1.0000000000000000e+00 2.6535633991005347e-01 1.6800000000000001e+01 5.4646472300888504e+00 
1172 1173 2 1.0280000011266281e+00 5.2159340756086543e+01 1.0000000000000000e+00 2.0341988143020959e+00 1.6800000000000001e+01 5.0705479030630141e+00 
1171 1172 2 1.0279999989732556e+00 8.0707140818471703e+02 1.0000000000000000e+00 2.7122314026213727e+00 1.6800000000000001e+01 6.2912753572058069e+00 
1019 1020 2 1.0279999985095678e+00 1.2419217112191589e+02 1.0000000000000000e+00 6.3626706829915918e+00 1.6800000000000001e+01 6.0038582482593075e+00 
1023 1024 2 1.0280000010652413e+00 1.0568351718107311e+02 1.0000000000000000e+00 7.8694025733716995e+00 1.6800000000000001e+01 6.1308179727888659e+00 
1365 1366 2 1.0279999999999998e+00 -1.2278461398431605e+03 1.0000000000000000e+00 1.3599011109790515e+01 1.6800000000000001e+01 6.5657027658625440e+00 
430 431 2 1.0280000000000002e+00 -1.9433628243326496e+02 1.0000000000000000e+00 2.7752260627470893e+01 1.0000000000000000e+01 7.6076062972794434e+00 
811 812 2 1.0280000000000005e+00 6.3792925120095288e+02 1.0000000000000000e+00 1.8307317851410097e+01 1.3400000000000000e+01 7.0544193101670727e+00 
510 511 2 1.0280000000000000e+00 6.2379486504217812e+02 1.0000000000000000e+00 2.1870933230558698e+01 1.3400000000000000e+01 8.1133039503157711e+00 
973 974 2 1.0280000009302064e+00 -1.0190685068603429e+03 1.0000000000000000e+00 8.2881705259392624e-01 1.6800000000000001e+01 6.7322673402731441e+00 
1090 1091 2 1.0279999987126036e+00 -4.5977702190388220e+02 1.0000000000000000e+00 3.7518861308631566e+00 1.6800000000000001e+01 7.8763849988772643e+00 
1133 1134 2 1.0280000009858956e+00 1.5122689827749758e+02 1.0000000000000000e+00 4.7144264816068766e+00 1.6800000000000001e+01 6.8221291199285101e+00 
1018 1019 2 1.0280000011822903e+00 6.8239500945348323e+02 1.0000000000000000e+00 6.3808891240539038e+00 1.6800000000000001e+01 7.6774440149028029e+00 
1107 1108 2 1.0279999990885778e+00 5.1039668137345723e+02 1.0000000000000000e+00 7.8887913415966748e+00 1.6800000000000001e+01 7.7263992959046508e+00 
945 946 2 1.0279999999999998e+00 -1.2413661977702700e+03 1.0000000000000000e+00 1.2585186476268266e+01 1.6800000000000001e+01 7.4258725195227910e+00 
1029 1030 2 1.0280000000000000e+00 5.4029052951999873e+01 1.0000000000000000e+00 1.7224175906025391e+01 1.6800000000000001e+01 7.8827767875318893e+00 
1035 1036 2 1.0280000000000005e+00 2.6199897242779606e+01 1.0000000000000000e+00 2.5095328328590409e+01 1.6800000000000001e+01 6.8604833980850470e+00 
1040 1041 2 1.0280000000000005e+00 1.7598101164537064e+02 1.0000000000000000e+00 2.6405384122468210e+01 1.6800000000000001e+01 7.0873891264738500e+00 
433 434 2 1.0280000000000002e+00 -1.5915257934135193e+03 1.0000000000000000e+00 2.8789677956438933e+01 1.0000000000000000e+01 8.4391696912580798e+00 
428 429 2 1.0279999999999980e+00 1.2383320041595496e+02 1.0000000000000000e+00 3.2588942324486283e+01 1.0000000000000000e+01 8.9047646375771574e+00 
511 512 2 1.0280000000000000e+00 -1.0176348100979754e+03 1.0000000000000000e+00 2.3141850696325029e+01 1.3400000000000000e+01 8.5038179550051538e+00 
1140 1141 2 1.0279999985665160e+00 8.2078632208979047e+02 1.0000000000000000e+00 1.1400933429375455e+00 1.6800000000000001e+01 8.6522042938643047e+00 
1139 1140 2 1.0280000012273012e+00 1.0128430208294404e+02 1.0000000000000000e+00 1.8607240518752601e+00 1.6800000000000001e+01 9.7966876142695050e+00 
1170 1171 2 1.0280000007267551e+00 -1.9832688695477977e+03 1.0000000000000000e+00 4.9399443009386799e+00 1.6800000000000001e+01 9.2301178056550093e+00 
1071 1072 2 1.0280000000000000e+00 -3.6410664019226454e+02 1.0000000000000000e+00 1.6623219167255836e+01 1.6800000000000001e+01 9.0687714716582200e+00 
86 87 2 1.0280000000000005e+00 -1.7786250322993197e+02 1.0000000000000000e+00 1.9161344880894365e+01 1.0000000000000000e+01 1.0977734325304361e+01 
161 162 2 1.0279999999999998e+00 4.3331058739380927e+02 1.0000000000000000e+00 3.0889523992149950e+01 1.0000000000000000e+01 1.1334285914794158e+01 
682 683 2 1.0280000000000002e+00 -6.3358426198741915e+02 1.0000000000000000e+00 7.8213497944375314e+00 1.3400000000000000e+01 1.0731999840507124e+01 
683 684 2 1.0280000000000002e+00 4.7735431177778693e+01 1.0000000000000000e+00 8.9314304140351144e+00 1.3400000000000000e+01 1.1463746661916208e+01 
932 933 2 1.0279999994711246e+00 1.5072120996003915e+02 1.0000000000000000e+00 9.3863410966638594e-01 1.6800000000000001e+01 1.1547039776455637e+01 
1254 1255 2 1.0279999991225621e+00 1.1570810359606701e+03 1.0000000000000000e+00 3.8954256037740977e+00 1.6800000000000001e+01 1.0283145718192406e+01 
1213 1214 2 1.0279999973414875e+00 -3.6712240944760606e+02 1.0000000000000000e+00 6.2408563644846238e+00 1.6800000000000001e+01 1.0413042454249316e+01 
128 129 2 1.0280000000000005e+00 1.5991317186657673e+02 1.0000000000000000e+00 2.0096512249258016e+01 1.0000000000000000e+01 1.1922823943169384e+01 
204 205 2 1.0279999999999998e+00 7.2366623554473762e+01 1.0000000000000000e+00 3.1762314324878560e+01 1.0000000000000000e+01 1.2337266187652970e+01 
1136 1137 2 1.0280000013972974e+00 2.7889488970789563e+02 1.0000000000000000e+00 2.3263366487050494e-01 1.6800000000000001e+01 1.2695697446033602e+01 
1260 1261 2 1.0280000019624531e+00 -2.5591023010749851e+02 1.0000000000000000e+00 4.6922173996616561e+00 1.6800000000000001e+01 1.1714036705447420e+01 
1055 1056 2 1.0279999976325587e+00 2.5076059281518349e+02 1.0000000000000000e+00 4.3653649132224928e+00 1.6800000000000001e+01 1.3297111371706468e+01 
1215 1216 2 1.0280000023259148e+00 4.2084876250160727e+02 1.0000000000000000e+00 6.4193502947902896e+00 1.6800000000000001e+01 1.1823200919193955e+01 
1350 1351 2 1.0280003520548502e+00 -2.8293138590811571e+02 1.0000000000000000e+00 8.7810552153292747e+00 1.6800000000000001e+01 1.1734673605171414e+01 
1349 1350 2 1.0279996483059279e+00 -5.5085609446001778e+00 1.0000000000000000e+00 9.6291216420377026e+00 1.6800000000000001e+01 1.2758645064535990e+01 
1265 1266 2 1.0280000000000009e+00 3.3111953941503634e+02 1.0000000000000000e+00 1.3223725900238302e+01 1.6800000000000001e+01 1.3258126778507400e+01 
1223 1224 2 1.0280000000000002e+00 2.4877579567987044e+02 1.0000000000000000e+00 1.7611503853772948e+01 1.6800000000000001e+01 1.1733364364898542e+01 
1266 1267 2 1.0280000000000002e+00 -2.9231942677971585e+02 1.0000000000000000e+00 1.8920168599759343e+01 1.6800000000000001e+01 1.1968159968053321e+01 
273 274 2 1.0279999999999991e+00 3.6713850563397671e+02 1.0000000000000000e+00 2.9709991350408949e+01 1.0000000000000000e+01 1.3718777496551205e+01 
268 269 2 1.0279999999999991e+00 5.3322189339561010e+02 1.0000000000000000e+00 3.0549476702887244e+01 1.0000000000000000e+01 1.4749794826969492e+01 
812 813 2 1.0280000000000009e+00 2.6514095532662225e+01 1.0000000000000000e+00 2.7275285526313713e+01 1.3400000000000000e+01 1.3985747153926379e+01 
1135 1136 2 1.0279999999084850e+00 -8.5502606449874222e+01 1.0000000000000000e+00 1.4430096812647402e+00 1.6800000000000001e+01 1.4433210402637044e+01 
1014 1015 2 1.0280000003964449e+00 -2.9007792872031155e+02 1.0000000000000000e+00 5.5883337186851092e+00 1.6800000000000001e+01 1.4192680831183006e+01 
1307 1308 2 1.0280000000000009e+00 -1.8205764015885464e+01 1.0000000000000000e+00 1.2070733081829951e+01 1.6800000000000001e+01 1.3920199246857516e+01 
519 520 2 1.0280000000000009e+00 5.0714898723978297e+02 1.0000000000000000e+00 2.6627122424627370e+01 1.3400000000000000e+01 1.5146616219006841e+01 
800 801 2 1.0280000000000000e+00 -1.8086470647448090e+02 1.0000000000000000e+00 3.3083452560439682e+01 1.3400000000000000e+01 1.5076397297792720e+01 
970 971 2 1.0280000001009442e+00 -2.8016136747877607e+02 1.0000000000000000e+00 1.0280192609309615e+00 1.6800000000000001e+01 1.6022261314533889e+01 
1141 1142 2 1.0280000017574515e+00 -1.9600259350681331e+03 1.0000000000000000e+00 2.8336141893519522e+00 1.6800000000000001e+01 1.5300235625852340e+01 
1057 1058 2 1.0280000018962445e+00 1.1888533625328973e+03 1.0000000000000000e+00 4.4130148959969180e+00 1.6800000000000001e+01 1.5268746017457902e+01 
1179 1180 2 1.0279999930529935e+00 3.1426861019392970e+02 1.0000000000000000e+00 6.0450875178439087e+00 1.6800000000000001e+01 1.6258198535754310e+01 
1257 1258 2 1.0280000000000000e+00 -1.0214241949025698e+03 1.0000000000000000e+00 1.5323041213675729e+01 1.6800000000000001e+01 1.5908358982238795e+01 
1299 1300 2 1.0280000000000000e+00 7.0603829014024575e+02 1.0000000000000000e+00 1.6378247748477659e+01 1.6800000000000001e+01 1.5099488435389821e+01 
969 970 2 1.0279999968142435e+00 -1.7043909304114987e+02 1.0000000000000000e+00 2.3013732772076914e+00 1.6800000000000001e+01 1.7041192745816840e+01 
1180 1181 2 1.0280000087141266e+00 4.1061052193885769e+02 1.0000000000000000e+00 5.2097649455888204e+00 1.6800000000000001e+01 1.7336547311633375e+01 
1013 1014 2 1.0280000000000002e+00 3.5197540637886840e+02 1.0000000000000000e+00 9.9737420047042722e+00 1.6800000000000001e+01 1.8139834233995611e+01 
347 348 2 1.0279999999999998e+00 1.3644137423139682e+02 1.0000000000000000e+00 3.5403827639473029e+00 1.0000000000000000e+01 1.9736548635335168e+01 
309 310 2 1.0279999999999989e+00 -3.2712669587548044e+02 1.0000000000000000e+00 2.5642981078712719e+01 1.0000000000000000e+01 1.8964999974355461e+01 
394 395 2 1.0279999999999989e+00 3.1505348741845165e+02 1.0000000000000000e+00 2.6880088428667687e+01 1.0000000000000000e+01 1.9452132191865097e+01 
942 943 2 1.0280000078663927e+00 -6.3085109027564374e+02 1.0000000000000000e+00 1.6952762918036024e+00 1.6800000000000001e+01 1.8505994798509548e+01 
941 942 2 1.0279999962508752e+00 -3.2133014229248982e+02 1.0000000000000000e+00 3.6661494624226796e+00 1.6800000000000001e+01 1.8433849648962191e+01 
944 945 2 1.0280000031454732e+00 -1.0112625877721518e+03 1.0000000000000000e+00 3.6405512635239563e+00 1.6800000000000001e+01 1.9839707292953701e+01 
971 972 2 1.0280000000000002e+00 -2.1836676274124887e+01 1.0000000000000000e+00 8.6614734962805660e+00 1.6800000000000001e+01 1.8353571817138754e+01 
1352 1353 2 1.0279999999999996e+00 1.2302226539165932e+02 1.0000000000000000e+00 1.4567674913319662e+01 1.6800000000000001e+01 1.9912793000769291e+01 
1251 1252 2 1.0280000000000009e+00 -3.4481311196320883e+02 1.0000000000000000e+00 1.8379802796785281e+01 1.6800000000000001e+01 1.9743068353266363e+01 
1297 1298 2 1.0280000000000009e+00 -2.8902423254762823e+02 1.0000000000000000e+00 1.9390132772277003e+01 1.6800000000000001e+01 1.8878796559632356e+01 
432 433 2 1.0279999999999998e+00 -1.2765056966785414e+03 1.0000000000000000e+00 2.4663073142757361e+00 1.0000000000000000e+01 2.0520190339854061e+01 
888 889 2 1.0279999999999996e+00 -2.8143289411352544e+02 1.0000000000000000e+00 9.4318850582541813e+00 1.3400000000000000e+01 2.0889181172661697e+01 
1021 1022 2 1.0279999946945710e+00 6.2827734028093539e+02 1.0000000000000000e+00 1.4778624939437306e+00 1.6800000000000001e+01 2.0033084752695405e+01 
943 944 2 1.0280000083558085e+00 2.1834260468475263e+03 1.0000000000000000e+00 1.5226820972759034e+00 1.6800000000000001e+01 2.1593695493790570e+01 
939 940 2 1.0279999979111516e+00 5.7338628651651186e+02 1.0000000000000000e+00 3.1647706962006454e+00 1.6800000000000001e+01 2.1542909237323443e+01 
1272 1273 2 1.0280000023773148e+00 5.9124702645545469e+01 1.0000000000000000e+00 6.9073856762105574e+00 1.6800000000000001e+01 2.1646672835389250e+01 
1271 1272 2 1.0279999982513914e+00 1.3422292747985256e+02 1.0000000000000000e+00 8.1567578171017701e+00 1.6800000000000001e+01 2.1052323759920640e+01 
1353 1354 2 1.0279999999999996e+00 -1.0105411941905502e+03 1.0000000000000000e+00 1.5072927511306091e+01 1.6800000000000001e+01 2.1142610956759697e+01 
887 888 2 1.0279999999999996e+00 -4.0490759250674184e+00 1.0000000000000000e+00 9.7430312470300784e+00 1.3400000000000000e+01 2.2181822051583097e+01 
938 939 2 1.0279999992494737e+00 -1.3226124550088216e+03 1.0000000000000000e+00 2.9059958000007837e+00 1.6800000000000001e+01 2.3091111509768584e+01 
1025 1026 2 1.0279999998358884e+00 5.3763849076371940e+01 1.0000000000000000e+00 5.5779105079803353e+00 1.6800000000000001e+01 2.2997917274417556e+01 
928 929 2 1.0279999997666904e+00 2.1718303880737359e+01 1.0000000000000000e+00 8.4579816714516163e+00 1.6800000000000001e+01 2.2850167217020520e+01 
57 58 2 1.0280000000000058e+00 5.0707691772585133e+02 1.0000000000000000e+00 1.5678988063848250e+01 1.0000000000000000e+01 2.4999792925331676e+01 
350 351 2 1.0280000000000058e+00 2.6378013697232404e+01 1.0000000000000000e+00 1.6436868670346872e+01 1.0000000000000000e+01 2.3907387607264383e+01 
515 516 2 1.0280000000000005e+00 4.0261179376780251e+02 1.0000000000000000e+00 7.5360246445309098e+00 1.3400000000000000e+01 2.3363183043754155e+01 
516 517 2 1.0280000000000005e+00 7.5876100063002718e+02 1.0000000000000000e+00 8.0952395951497227e+00 1.3400000000000000e+01 2.4569421424694195e+01 
1309 1310 2 1.0280000004083500e+00 -1.0180774190820450e+03 1.0000000000000000e+00 8.2041255743632935e-01 1.6800000000000001e+01 2.3535729248039594e+01 
1361 1362 2 1.0280000002956085e+00 -3.9199896492213287e+02 1.0000000000000000e+00 6.6012585297370852e-01 1.6800000000000001e+01 2.4866736282596886e+01 
1308 1309 2 1.0280000016031297e+00 6.5334289778863251e+02 1.0000000000000000e+00 2.7472179959198741e+00 1.6800000000000001e+01 2.4686607805086926e+01 
983 984 2 1.0280000019106650e+00 -2.3432464190307275e+02 1.0000000000000000e+00 4.5797176476591765e+00 1.6800000000000001e+01 2.3957607580187180e+01 
927 928 2 1.0280000003327778e+00 2.1358103375792979e+02 1.0000000000000000e+00 7.2787989054979203e+00 1.6800000000000001e+01 2.3964254405715185e+01 
926 927 2 1.0279999998867637e+00 7.6587441199611476e+01 1.0000000000000000e+00 8.7244816147719977e+00 1.6800000000000001e+01 2.4416155304780940e+01 
1221 1222 2 1.0280000000000000e+00 -4.6254398952420354e+02 1.0000000000000000e+00 1.3801630426127113e+01 1.6800000000000001e+01 2.3944361096077476e+01 
567 568 2 1.0280000000000014e+00 5.5224576537303491e+01 1.0000000000000000e+00 1.7292241385258883e+01 1.3400000000000000e+01 2.5709575258311851e+01 
1362 1363 2 1.0279999994718394e+00 -7.4830573768990882e+02 1.0000000000000000e+00 2.4000914851779420e+00 1.6800000000000001e+01 2.6181212454267328e+01 
929 930 2 1.0279999999999996e+00 -8.6331349568793847e+00 1.0000000000000000e+00 1.1179614990865723e+01 1.6800000000000001e+01 2.5517711416147840e+01 
1178 1179 2 1.0280000000000000e+00 1.4399308473147423e+02 1.0000000000000000e+00 1.4054433065681200e+01 1.6800000000000001e+01 2.5249666890932819e+01 
297 298 2 1.0279999999999998e+00 -4.6295032158057734e+02 1.0000000000000000e+00 2.2380314164218298e+01 1.0000000000000000e+01 2.8215676574315797e+01 
609 610 2 1.0280000000000014e+00 -3.6289096590664701e+02 1.0000000000000000e+00 1.6492699252590658e+01 1.3400000000000000e+01 2.6771867483048901e+01 
993 994 2 1.0280000032377439e+00 2.4821274236797532e+02 1.0000000000000000e+00 1.4206100785107270e-01 1.6800000000000001e+01 2.6913494312998075e+01 
1036 1037 2 1.0280000038896537e+00 5.9108751631007266e+01 1.0000000000000000e+00 1.6428995808379978e+00 1.6800000000000001e+01 2.7555050208386845e+01 
1354 1355 2 1.0280000000000005e+00 -1.9101621170540102e+02 1.0000000000000000e+00 4.8764150534874346e+00 1.6800000000000001e+01 2.6917250860473974e+01 
1357 1358 2 1.0280000000000005e+00 -1.5929426139309908e+03 1.0000000000000000e+00 5.4589762925290275e+00 1.6800000000000001e+01 2.8112388842221176e+01 
930 931 2 1.0279999999999996e+00 -2.8490683282469240e+02 1.0000000000000000e+00 1.0699631422269906e+01 1.6800000000000001e+01 2.6757609866234169e+01 
1205 1206 2 1.0280000000000005e+00 9.7876927636437017e+01 1.0000000000000000e+00 1.7397754745570705e+01 1.6800000000000001e+01 2.7104378564047312e+01 
1247 1248 2 1.0280000000000005e+00 -6.4659423880629515e+02 1.0000000000000000e+00 1.8726803608371846e+01 1.6800000000000001e+01 2.7141277248785972e+01 
254 255 2 1.0279999999999998e+00 1.4315795514598886e+02 1.0000000000000000e+00 2.1812319034658323e+01 1.0000000000000000e+01 2.9417805488136857e+01 
960 961 2 1.0279999926144272e+00 4.9050357456740770e+01 1.0000000000000000e+00 9.8743814361190385e-01 1.6800000000000001e+01 2.9303709603692109e+01 
1332 1333 2 1.0280000002447296e+00 8.7363110497315870e+02 1.0000000000000000e+00 2.7509069950954590e+00 1.6800000000000001e+01 2.9136664744187001e+01 
1007 1008 2 1.0280000000000005e+00 -1.2559074804982383e+02 1.0000000000000000e+00 1.2227060521631788e+01 1.6800000000000001e+01 2.9614561975284801e+01 
1343 1344 2 1.0280000000000005e+00 -1.2351348689899999e+02 1.0000000000000000e+00 1.3041716546682755e+01 1.6800000000000001e+01 2.8563815596039738e+01 
1346 1347 2 1.0279999999999971e+00 7.9517242491424298e+01 1.0000000000000000e+00 3.2908292226688538e+01 1.6800000000000001e+01 2.9787782026378675e+01 
1216 1217 2 1.0280000074571298e+00 3.1172358649602006e+02 1.0000000000000000e+00 1.6337489367344684e+00 1.6800000000000001e+01 3.0665411899100793e+01 
1376 1377 2 1.0279999988953488e+00 7.1648853781342359e+02 1.0000000000000000e+00 3.4672803868203914e+00 1.6800000000000001e+01 3.0421204353616293e+01 
976 977 2 1.0280000000000056e+00 -3.5167300130559977e+02 1.0000000000000000e+00 7.8830952620434749e+00 1.6800000000000001e+01 3.1546638261880830e+01 
1098 1099 2 1.0280000002076073e+00 -3.3087265513413473e+02 1.0000000000000000e+00 1.4933407346325470e-01 1.6800000000000001e+01 3.2734664745037477e+01 
1218 1219 2 1.0280000018513360e+00 -3.3939400104746312e+02 1.0000000000000000e+00 1.4890739183136856e+00 1.6800000000000001e+01 3.2944021468025234e+01 
966 967 2 1.0279999979542827e+00 -7.6328918856586574e+02 1.0000000000000000e+00 3.3336122583865841e+00 1.6800000000000001e+01 3.2152483576979371e+01 
1064 1065 2 1.0280000000000056e+00 -6.1062904904080142e+02 1.0000000000000000e+00 8.4742377264462441e+00 1.6800000000000001e+01 3.2737555126917279e+01 
1150 1151 2 1.0279999999999985e+00 7.5616753945401683e+01 1.0000000000000000e+00 2.3756880153564854e+01 1.6800000000000001e+01 3.1887114261439507e+01 
1152 1153 2 1.0279999999999985e+00 -3.4708221669688703e+02 1.0000000000000000e+00 2.5085076301063733e+01 1.6800000000000001e+01 3.1826886473686692e+01 
227 228 2 1.0280000000000000e+00 -3.9339027045332648e+02 1.0000000000000000e+00 2.9846330891878271e+01 1.0000000000000000e+01 3.3802950894180910e+01 
270 271 2 1.0280000000000000e+00 5.1900168945020232e+02 1.0000000000000000e+00 3.1160231040552951e+01 1.0000000000000000e+01 3.3599483963302433e+01 
1048 1049 2 1.0280000010015744e+00 1.8423224779697085e+02 1.0000000000000000e+00 3.3983077559918695e+00 1.6800000000000001e+01 3.3585125920628521e+01 
1001 1002 2 1.0279999999999996e+00 1.9997700332249320e+02 1.0000000000000000e+00 2.6149944004365651e+01 1.6800000000000001e+01 3.4211702081709952e+01 
671 672 2 1.0280000000000011e+00 1.5390050912209736e+02 1.0000000000000000e+00 2.6389317266610508e+01 1.3400000000000000e+01 3.6328387565917382e+01 
1043 1044 2 1.0280000054614393e+00 -6.5076842212857628e+01 1.0000000000000000e+00 9.8416883756915474e-01 1.6800000000000001e+01 3.5334920749882450e+01 
1044 1045 2 1.0279999963676172e+00 -9.1800209156045980e+02 1.0000000000000000e+00 2.4285768085025992e+00 1.6800000000000001e+01 3.5022443637643121e+01 
1092 1093 2 1.0280000019276176e+00 -2.6115539167857690e+02 1.0000000000000000e+00 3.4104582981963607e+00 1.6800000000000001e+01 3.6643653894091493e+01 
954 955 2 1.0279999999999996e+00 -1.6069251434904359e+03 1.0000000000000000e+00 2.6561390580950420e+01 1.6800000000000001e+01 3.5475997975583347e+01 
628 629 2 1.0280000000000011e+00 -4.5863902597642004e+02 1.0000000000000000e+00 2.6932375178744572e+01 1.3400000000000000e+01 3.7541985727055177e+01 
1134 1135 2 1.0279999992706323e+00 -3.5066617793108833e+02 1.0000000000000000e+00 2.0897095287202201e+00 1.6800000000000001e+01 3.6979908855165036e+01 
1264 1265 2 1.0279999999999987e+00 6.9666276179703334e+02 1.0000000000000000e+00 1.1269442539361211e+01 1.6800000000000001e+01 3.6776638798632142e+01 
1222 1223 2 1.0279999999999987e+00 -1.0353725593179154e+03 1.0000000000000000e+00 1.2595918860731981e+01 1.6800000000000001e+01 3.6686123819257837e+01 
220 221 2 1.0279999999999989e+00 -6.3357543333682702e+02 1.0000000000000000e+00 3.0219380970309462e+01 1.0000000000000000e+01 3.9239351322222241e+01 
221 222 2 1.0279999999999989e+00 4.7804544432095639e+01 1.0000000000000000e+00 3.1401372003917714e+01 1.0000000000000000e+01 3.9848144874354780e+01 
1015 1016 2 1.0279999999999978e+00 -9.0938797943649706e+02 1.0000000000000000e+00 4.0990101153962000e+00 1.6800000000000001e+01 3.9041673389692455e+01 
1302 1303 2 1.0279999999999947e+00 4.2152604596710638e+01 1.0000000000000000e+00 7.3824976460474474e+00 1.6800000000000001e+01 3.9977012139436290e+01 
1051 1052 2 1.0280000000000058e+00 -2.6085084997263402e+02 1.0000000000000000e+00 1.6865426849171911e+01 1.6800000000000001e+01 3.9569310963347533e+01 
1434 1435 2 1.0280000000000000e+00 6.2380923221211913e+02 1.0000000000000000e+00 1.1859526524592439e+00 2.0199999999999999e+01 1.6152411434142351e+00 
1435 1436 2 1.0280000000000000e+00 -1.0176633478743380e+03 1.0000000000000000e+00 2.5153908900548809e+00 2.0199999999999999e+01 1.6333067202679801e+00 
2648 2649 2 1.0279999859522204e+00 -1.8324653474894563e+02 1.0000000000000000e+00 1.0220009918449526e+00 2.7000000000000000e+01 6.8674017460747849e-01 
2402 2403 2 1.0279999999999971e+00 -5.7128586564762728e+01 1.0000000000000000e+00 4.5710842100994666e+00 2.7000000000000000e+01 2.8460478030038538e-01 
2730 2731 2 1.0279999999999947e+00 -1.3629217369409281e+02 1.0000000000000000e+00 8.6246438094726123e+00 2.7000000000000000e+01 4.5114851363323594e-01 
2456 2457 2 1.0280000000000000e+00 3.6367526346823615e+02 1.0000000000000000e+00 1.3203831010257378e+01 2.7000000000000000e+01 2.0400099185444809e-01 
2459 2460 2 1.0280000000000000e+00 3.6154603405761964e+02 1.0000000000000000e+00 1.3447315822445070e+01 2.7000000000000000e+01 1.5110769417832874e+00 
2479 2480 2 1.0280000000000065e+00 -3.3373140345834508e+02 1.0000000000000000e+00 1.8061438098313072e+01 2.7000000000000000e+01 1.5007725418767545e-01 
2606 2607 2 1.0280000139553678e+00 1.5516704129450966e+02 1.0000000000000000e+00 1.5594447429874276e+00 2.7000000000000000e+01 1.9028350227771833e+00 
2770 2771 2 1.0279994016211567e+00 2.2114230889363776e+02 1.0000000000000000e+00 3.5372058922063894e+00 2.7000000000000000e+01 3.2334433530609679e+00 
2532 2533 2 1.0279999999999998e+00 3.6856443159817547e+02 1.0000000000000000e+00 6.8529396472733737e+00 2.7000000000000000e+01 2.4517750381251497e+00 
1604 1605 2 1.0280000000000000e+00 -1.3876976595209962e+03 1.0000000000000000e+00 1.1067973747728152e+01 2.0199999999999999e+01 3.5793561161827263e+00 
1605 1606 2 1.0280000000000000e+00 1.1844014286227591e+03 1.0000000000000000e+00 1.2128201946241107e+01 2.0199999999999999e+01 4.3816332252456887e+00 
1642 1643 2 1.0280000000000005e+00 4.0911069025903657e+02 1.0000000000000000e+00 2.5936347631526164e+01 2.0199999999999999e+01 4.1859582990187008e+00 
2306 2307 2 1.0280000000000002e+00 -1.7434512182449737e+01 1.0000000000000000e+00 2.3173177841907169e+01 2.3600000000000001e+01 4.5491470520656154e+00 
2305 2306 2 1.0280000000000002e+00 -2.9046222077051857e+02 1.0000000000000000e+00 2.4502555862123316e+01 2.3600000000000001e+01 4.5712031626621981e+00 
2425 2426 2 1.0280005982519183e+00 -1.0620591598128902e+02 1.0000000000000000e+00 4.2743694552757807e+00 2.7000000000000000e+01 4.3399362397018555e+00 
2533 2534 2 1.0279999999999998e+00 -5.0048404057359491e+01 1.0000000000000000e+00 7.7645444852471872e+00 2.7000000000000000e+01 3.4196123240524852e+00 
2577 2578 2 1.0279999999999996e+00 4.9353883632356030e+02 1.0000000000000000e+00 1.8809378241865076e+01 2.7000000000000000e+01 4.2331959082984429e+00 
2661 2662 2 1.0279999999999996e+00 1.4027349492984513e+02 1.0000000000000000e+00 2.0046369235136705e+01 2.7000000000000000e+01 3.7457682980696800e+00 
1807 1808 2 1.0280000000000005e+00 -7.7103536268426797e+02 1.0000000000000000e+00 2.6979171404355156e+01 2.0199999999999999e+01 5.0107315839104682e+00 
2241 2242 2 1.0280000000000005e+00 5.0773611929239758e+02 1.0000000000000000e+00 1.8375530314858313e+01 2.3600000000000001e+01 5.7266092889370865e+00 
2358 2359 2 1.0279999991236954e+00 6.2343893159723928e+02 1.0000000000000000e+00 2.6535633991005347e-01 2.7000000000000000e+01 5.4646472300888504e+00 
2558 2559 2 1.0280000011266281e+00 5.2159340756086543e+01 1.0000000000000000e+00 2.0341988143020959e+00 2.7000000000000000e+01 5.0705479030630141e+00 
2557 2558 2 1.0279999989732556e+00 8.0707140818471703e+02 1.0000000000000000e+00 2.7122314026213727e+00 2.7000000000000000e+01 6.2912753572058069e+00 
2405 2406 2 1.0279999985095678e+00 1.2419217112191589e+02 1.0000000000000000e+00 6.3626706829915918e+00 2.7000000000000000e+01 6.0038582482593075e+00 
2409 2410 2 1.0280000010652413e+00 1.0568351718107311e+02 1.0000000000000000e+00 7.8694025733716995e+00 2.7000000000000000e+01 6.1308179727888659e+00 
2751 2752 2 1.0279999999999998e+00 -1.2278461398431605e+03 1.0000000000000000e+00 1.3599011109790515e+01 2.7000000000000000e+01 6.5657027658625440e+00 
1816 1817 2 1.0280000000000002e+00 -1.9433628243326496e+02 1.0000000000000000e+00 2.7752260627470893e+01 2.0199999999999999e+01 7.6076062972794434e+00 
2197 2198 2 1.0280000000000005e+00 6.3792925120095288e+02 1.0000000000000000e+00 1.8307317851410097e+01 2.3600000000000001e+01 7.0544193101670727e+00 
1896 1897 2 1.0280000000000000e+00 6.2379486504217812e+02 1.0000000000000000e+00 2.1870933230558698e+01 2.3600000000000001e+01 8.1133039503157711e+00 
2359 2360 2 1.0280000009302064e+00 -1.0190685068603429e+03 1.0000000000000000e+00 8.2881705259392624e-01 2.7000000000000000e+01 6.7322673402731441e+00 
2476 2477 2 1.0279999987126036e+00 -4.5977702190388220e+02 1.0000000000000000e+00 3.7518861308631566e+00 2.7000000000000000e+01 7.8763849988772643e+00 
2519 2520 2 1.0280000009858956e+00 1.5122689827749758e+02 1.0000000000000000e+00 4.7144264816068766e+00 2.7000000000000000e+01 6.8221291199285101e+00 
2404 2405 2 1.0280000011822903e+00 6.8239500945348323e+02 1.0000000000000000e+00 6.3808891240539038e+00 2.7000000000000000e+01 7.6774440149028029e+00 