LAMMPS data file via write_data, version 30 Jul 2016, timestep = 50800000

2080 atoms
8 atom types

0.0000000000000000e+00 4.0000000000000000e+01 xlo xhi
0.0000000000000000e+00 4.0000000000000000e+01 ylo yhi
0.0000000000000000e+00 1.0000000000000000e+02 zlo zhi

Masses

1 3.896
2 5.36
3 20.064
4 8.378
5 8.378
6 8.378
7 8.378
8 8.378

Atoms # meso-molecular

1 2 4 2.2559723595316457e+00 -2.4209784807297618e-03 1.0000000000000000e+00 0.0000000000000000e+00 0.0000000000000000e+00 2.5000000000000000e+00 
2 2 4 2.2559723595316457e+00 8.8403456504401437e-08 1.0000000000000000e+00 0.0000000000000000e+00 2.0000000000000000e+00 2.5000000000000000e+00 
21 2 4 2.2559723595316457e+00 3.2176159228154829e-07 1.0000000000000000e+00 2.0000000000000000e+00 0.0000000000000000e+00 2.5000000000000000e+00 
22 2 4 2.2559723595316457e+00 1.7868665428964879e-08 1.0000000000000000e+00 2.0000000000000000e+00 2.0000000000000000e+00 2.5000000000000000e+00 
41 2 4 2.2559723595316457e+00 0.0000000000000000e+00 1.0000000000000000e+00 4.0000000000000000e+00 0.0000000000000000e+00 2.5000000000000000e+00 
42 2 4 2.2559723595316457e+00 5.4185349533920049e-09 1.0000000000000000e+00 4.0000000000000000e+00 2.0000000000000000e+00 2.5000000000000000e+00 
61 2 4 2.2559723595316457e+00 -1.4030071608018570e-06 1.0000000000000000e+00 6.0000000000000000e+00 0.0000000000000000e+00 2.5000000000000000e+00 
62 2 4 2.2559723595316457e+00 0.0000000000000000e+00 1.0000000000000000e+00 6.0000000000000000e+00 2.0000000000000000e+00 2.5000000000000000e+00 
81 2 4 2.2559723595316457e+00 -8.2122300429372782e-07 1.0000000000000000e+00 8.0000000000000000e+00 0.0000000000000000e+00 2.5000000000000000e+00 
82 2 4 2.2559723595316457e+00 1.0104537449035798e-08 1.0000000000000000e+00 8.0000000000000000e+00 2.0000000000000000e+00 2.5000000000000000e+00 
101 2 4 2.2559723595316457e+00 1.5385104541328921e-10 1.0000000000000000e+00 1.0000000000000000e+01 0.0000000000000000e+00 2.5000000000000000e+00 
102 2 4 2.2559723595316457e+00 5.8396485344795666e-11 1.0000000000000000e+00 1.0000000000000000e+01 2.0000000000000000e+00 2.5000000000000000e+00 
121 2 4 2.2559723595316457e+00 1.8942083396192915e-05 1.0000000000000000e+00 1.2000000000000000e+01 0.0000000000000000e+00 2.5000000000000000e+00 
122 2 4 2.2559723595316457e+00 3.7985339697917190e-10 1.0000000000000000e+00 1.2000000000000000e+01 2.0000000000000000e+00 2.5000000000000000e+00 
141 2 4 2.2559723595316457e+00 6.9745380071418050e-09 1.0000000000000000e+00 1.4000000000000000e+01 0.0000000000000000e+00 2.5000000000000000e+00 
142 2 4 2.2559723595316457e+00 2.0646935476918836e-11 1.0000000000000000e+00 1.4000000000000000e+01 2.0000000000000000e+00 2.5000000000000000e+00 
161 2 4 2.2559723595316457e+00 -4.1709770824905316e-04 1.0000000000000000e+00 1.6000000000000000e+01 0.0000000000000000e+00 2.5000000000000000e+00 
162 2 4 2.2559723595316457e+00 2.2817758226469696e-10 1.0000000000000000e+00 1.6000000000000000e+01 2.0000000000000000e+00 2.5000000000000000e+00 
181 2 4 2.2559723595316457e+00 5.9013830943064824e-04 1.0000000000000000e+00 1.8000000000000000e+01 0.0000000000000000e+00 2.5000000000000000e+00 
182 2 4 2.2559723595316457e+00 1.4732457265741201e-09 1.0000000000000000e+00 1.8000000000000000e+01 2.0000000000000000e+00 2.5000000000000000e+00 
3 2 4 2.2559723595316457e+00 2.8854817589802164e-10 1.0000000000000000e+00 0.0000000000000000e+00 4.0000000000000000e+00 2.5000000000000000e+00 
23 2 4 2.2559723595316457e+00 0.0000000000000000e+00 1.0000000000000000e+00 2.0000000000000000e+00 4.0000000000000000e+00 2.5000000000000000e+00 
43 2 4 2.2559723595316457e+00 0.0000000000000000e+00 1.0000000000000000e+00 4.0000000000000000e+00 4.0000000000000000e+00 2.5000000000000000e+00 
63 2 4 2.2559723595316457e+00 2.0714137165482221e-09 1.0000000000000000e+00 6.0000000000000000e+00 4.0000000000000000e+00 2.5000000000000000e+00 
83 2 4 2.2559723595316457e+00 1.1202239310510705e-08 1.0000000000000000e+00 8.0000000000000000e+00 4.0000000000000000e+00 2.5000000000000000e+00 
103 2 4 2.2559723595316457e+00 2.0177515292025419e-10 1.0000000000000000e+00 1.0000000000000000e+01 4.0000000000000000e+00 2.5000000000000000e+00 
123 2 4 2.2559723595316457e+00 1.8322577597660683e-08 1.0000000000000000e+00 1.2000000000000000e+01 4.0000000000000000e+00 2.5000000000000000e+00 
143 2 4 2.2559723595316457e+00 9.2687489917416202e-09 1.0000000000000000e+00 1.4000000000000000e+01 4.0000000000000000e+00 2.5000000000000000e+00 
163 2 4 2.2559723595316457e+00 2.1338068500563997e-08 1.0000000000000000e+00 1.6000000000000000e+01 4.0000000000000000e+00 2.5000000000000000e+00 
183 2 4 2.2559723595316457e+00 8.4528022992116136e-11 1.0000000000000000e+00 1.8000000000000000e+01 4.0000000000000000e+00 2.5000000000000000e+00 
4 2 4 2.2559723595316457e+00 1.4562659486564669e-10 1.0000000000000000e+00 0.0000000000000000e+00 6.0000000000000000e+00 2.5000000000000000e+00 
5 2 4 2.2559723595316457e+00 5.2302349757231049e-11 1.0000000000000000e+00 0.0000000000000000e+00 8.0000000000000000e+00 2.5000000000000000e+00 
24 2 4 2.2559723595316457e+00 2.4604280224027083e-11 1.0000000000000000e+00 2.0000000000000000e+00 6.0000000000000000e+00 2.5000000000000000e+00 
25 2 4 2.2559723595316457e+00 1.6674705759971506e-10 1.0000000000000000e+00 2.0000000000000000e+00 8.0000000000000000e+00 2.5000000000000000e+00 
44 2 4 2.2559723595316457e+00 1.3688529007760706e-08 1.0000000000000000e+00 4.0000000000000000e+00 6.0000000000000000e+00 2.5000000000000000e+00 
45 2 4 2.2559723595316457e+00 0.0000000000000000e+00 1.0000000000000000e+00 4.0000000000000000e+00 8.0000000000000000e+00 2.5000000000000000e+00 
64 2 4 2.2559723595316457e+00 0.0000000000000000e+00 1.0000000000000000e+00 6.0000000000000000e+00 6.0000000000000000e+00 2.5000000000000000e+00 
65 2 4 2.2559723595316457e+00 0.0000000000000000e+00 1.0000000000000000e+00 6.0000000000000000e+00 8.0000000000000000e+00 2.5000000000000000e+00 
84 2 4 2.2559723595316457e+00 3.3423833982621041e-11 1.0000000000000000e+00 8.0000000000000000e+00 6.0000000000000000e+00 2.5000000000000000e+00 
85 2 4 2.2559723595316457e+00 5.3048896320734937e-09 1.0000000000000000e+00 8.0000000000000000e+00 8.0000000000000000e+00 2.5000000000000000e+00 
104 2 4 2.2559723595316457e+00 0.0000000000000000e+00 1.0000000000000000e+00 1.0000000000000000e+01 6.0000000000000000e+00 2.5000000000000000e+00 
105 2 4 2.2559723595316457e+00 0.0000000000000000e+00 1.0000000000000000e+00 1.0000000000000000e+01 8.0000000000000000e+00 2.5000000000000000e+00 
124 2 4 2.2559723595316457e+00 2.2968503287962445e-08 1.0000000000000000e+00 1.2000000000000000e+01 6.0000000000000000e+00 2.5000000000000000e+00 
125 2 4 2.2559723595316457e+00 0.0000000000000000e+00 1.0000000000000000e+00 1.2000000000000000e+01 8.0000000000000000e+00 2.5000000000000000e+00 
144 2 4 2.2559723595316457e+00 0.0000000000000000e+00 1.0000000000000000e+00 1.4000000000000000e+01 6.0000000000000000e+00 2.5000000000000000e+00 
145 2 4 2.2559723595316457e+00 0.0000000000000000e+00 1.0000000000000000e+00 1.4000000000000000e+01 8.0000000000000000e+00 2.5000000000000000e+00 
164 2 4 2.2559723595316457e+00 0.0000000000000000e+00 1.0000000000000000e+00 1.6000000000000000e+01 6.0000000000000000e+00 2.5000000000000000e+00 
165 2 4 2.2559723595316457e+00 0.0000000000000000e+00 1.0000000000000000e+00 1.6000000000000000e+01 8.0000000000000000e+00 2.5000000000000000e+00 
184 2 4 2.2559723595316457e+00 4.0273192694016254e-08 1.0000000000000000e+00 1.8000000000000000e+01 6.0000000000000000e+00 2.5000000000000000e+00 
185 2 4 2.2559723595316457e+00 0.0000000000000000e+00 1.0000000000000000e+00 1.8000000000000000e+01 8.0000000000000000e+00 2.5000000000000000e+00 
6 2 4 2.2559723595316457e+00 3.6931957915123307e-09 1.0000000000000000e+00 0.0000000000000000e+00 1.0000000000000000e+01 2.5000000000000000e+00 
26 2 4 2.2559723595316457e+00 1.5263599721153268e-08 1.0000000000000000e+00 2.0000000000000000e+00 1.0000000000000000e+01 2.5000000000000000e+00 
46 2 4 2.2559723595316457e+00 0.0000000000000000e+00 1.0000000000000000e+00 4.0000000000000000e+00 1.0000000000000000e+01 2.5000000000000000e+00 
66 2 4 2.2559723595316457e+00 1.2291674747826919e-08 1.0000000000000000e+00 6.0000000000000000e+00 1.0000000000000000e+01 2.5000000000000000e+00 
86 2 4 2.2559723595316457e+00 0.0000000000000000e+00 1.0000000000000000e+00 8.0000000000000000e+00 1.0000000000000000e+01 2.5000000000000000e+00 
106 2 4 2.2559723595316457e+00 0.0000000000000000e+00 1.0000000000000000e+00 1.0000000000000000e+01 1.0000000000000000e+01 2.5000000000000000e+00 
126 2 4 2.2559723595316457e+00 0.0000000000000000e+00 1.0000000000000000e+00 1.2000000000000000e+01 1.0000000000000000e+01 2.5000000000000000e+00 
146 2 4 2.2559723595316457e+00 0.0000000000000000e+00 1.0000000000000000e+00 1.4000000000000000e+01 1.0000000000000000e+01 2.5000000000000000e+00 
166 2 4 2.2559723595316457e+00 0.0000000000000000e+00 1.0000000000000000e+00 1.6000000000000000e+01 1.0000000000000000e+01 2.5000000000000000e+00 
186 2 4 2.2559723595316457e+00 0.0000000000000000e+00 1.0000000000000000e+00 1.8000000000000000e+01 1.0000000000000000e+01 2.5000000000000000e+00 
7 2 4 2.2559723595316457e+00 0.0000000000000000e+00 1.0000000000000000e+00 0.0000000000000000e+00 1.2000000000000000e+01 2.5000000000000000e+00 
8 2 4 2.2559723595316457e+00 2.2766938021157413e-02 1.0000000000000000e+00 0.0000000000000000e+00 1.4000000000000000e+01 2.5000000000000000e+00 
27 2 4 2.2559723595316457e+00 1.9526860771854573e-08 1.0000000000000000e+00 2.0000000000000000e+00 1.2000000000000000e+01 2.5000000000000000e+00 
28 2 4 2.2559723595316457e+00 0.0000000000000000e+00 1.0000000000000000e+00 2.0000000000000000e+00 1.4000000000000000e+01 2.5000000000000000e+00 
47 2 4 2.2559723595316457e+00 0.0000000000000000e+00 1.0000000000000000e+00 4.0000000000000000e+00 1.2000000000000000e+01 2.5000000000000000e+00 
48 2 4 2.2559723595316457e+00 0.0000000000000000e+00 1.0000000000000000e+00 4.0000000000000000e+00 1.4000000000000000e+01 2.5000000000000000e+00 
67 2 4 2.2559723595316457e+00 0.0000000000000000e+00 1.0000000000000000e+00 6.0000000000000000e+00 1.2000000000000000e+01 2.5000000000000000e+00 
68 2 4 2.2559723595316457e+00 0.0000000000000000e+00 1.0000000000000000e+00 6.0000000000000000e+00 1.4000000000000000e+01 2.5000000000000000e+00 
87 2 4 2.2559723595316457e+00 0.0000000000000000e+00 1.0000000000000000e+00 8.0000000000000000e+00 1.2000000000000000e+01 2.5000000000000000e+00 
88 2 4 2.2559723595316457e+00 0.0000000000000000e+00 1.0000000000000000e+00 8.0000000000000000e+00 1.4000000000000000e+01 2.5000000000000000e+00 
107 2 4 2.2559723595316457e+00 0.0000000000000000e+00 1.0000000000000000e+00 1.0000000000000000e+01 1.2000000000000000e+01 2.5000000000000000e+00 
108 2 4 2.2559723595316457e+00 0.0000000000000000e+00 1.0000000000000000e+00 1.0000000000000000e+01 1.4000000000000000e+01 2.5000000000000000e+00 
127 2 4 2.2559723595316457e+00 0.0000000000000000e+00 1.0000000000000000e+00 1.2000000000000000e+01 1.2000000000000000e+01 2.5000000000000000e+00 
128 2 4 2.2559723595316457e+00 0.0000000000000000e+00 1.0000000000000000e+00 1.2000000000000000e+01 1.4000000000000000e+01 2.5000000000000000e+00 
147 2 4 2.2559723595316457e+00 0.0000000000000000e+00 1.0000000000000000e+00 1.4000000000000000e+01 1.2000000000000000e+01 2.5000000000000000e+00 
148 2 4 2.2559723595316457e+00 0.0000000000000000e+00 1.0000000000000000e+00 1.4000000000000000e+01 1.4000000000000000e+01 2.5000000000000000e+00 
167 2 4 2.2559723595316457e+00 0.0000000000000000e+00 1.0000000000000000e+00 1.6000000000000000e+01 1.2000000000000000e+01 2.5000000000000000e+00 
168 2 4 2.2559723595316457e+00 0.0000000000000000e+00 1.0000000000000000e+00 1.6000000000000000e+01 1.4000000000000000e+01 2.5000000000000000e+00 
187 2 4 2.2559723595316457e+00 0.0000000000000000e+00 1.0000000000000000e+00 1.8000000000000000e+01 1.2000000000000000e+01 2.5000000000000000e+00 
188 2 4 2.2559723595316457e+00 0.0000000000000000e+00 1.0000000000000000e+00 1.8000000000000000e+01 1.4000000000000000e+01 2.5000000000000000e+00 
9 2 4 2.2559723595316457e+00 -4.3397085656978294e-05 1.0000000000000000e+00 0.0000000000000000e+00 1.6000000000000000e+01 2.5000000000000000e+00 
29 2 4 2.2559723595316457e+00 0.0000000000000000e+00 1.0000000000000000e+00 2.0000000000000000e+00 1.6000000000000000e+01 2.5000000000000000e+00 
49 2 4 2.2559723595316457e+00 0.0000000000000000e+00 1.0000000000000000e+00 4.0000000000000000e+00 1.6000000000000000e+01 2.5000000000000000e+00 
69 2 4 2.2559723595316457e+00 0.0000000000000000e+00 1.0000000000000000e+00 6.0000000000000000e+00 1.6000000000000000e+01 2.5000000000000000e+00 
89 2 4 2.2559723595316457e+00 0.0000000000000000e+00 1.0000000000000000e+00 8.0000000000000000e+00 1.6000000000000000e+01 2.5000000000000000e+00 
109 2 4 2.2559723595316457e+00 0.0000000000000000e+00 1.0000000000000000e+00 1.0000000000000000e+01 1.6000000000000000e+01 2.5000000000000000e+00 
129 2 4 2.2559723595316457e+00 0.0000000000000000e+00 1.0000000000000000e+00 1.2000000000000000e+01 1.6000000000000000e+01 2.5000000000000000e+00 
149 2 4 2.2559723595316457e+00 0.0000000000000000e+00 1.0000000000000000e+00 1.4000000000000000e+01 1.6000000000000000e+01 2.5000000000000000e+00 
169 2 4 2.2559723595316457e+00 0.0000000000000000e+00 1.0000000000000000e+00 1.6000000000000000e+01 1.6000000000000000e+01 2.5000000000000000e+00 
189 2 4 2.2559723595316457e+00 0.0000000000000000e+00 1.0000000000000000e+00 1.8000000000000000e+01 1.6000000000000000e+01 2.5000000000000000e+00 
10 2 4 2.2559723595316457e+00 2.5023066065964300e-07 1.0000000000000000e+00 0.0000000000000000e+00 1.8000000000000000e+01 2.5000000000000000e+00 
30 2 4 2.2559723595316457e+00 0.0000000000000000e+00 1.0000000000000000e+00 2.0000000000000000e+00 1.8000000000000000e+01 2.5000000000000000e+00 
50 2 4 2.2559723595316457e+00 0.0000000000000000e+00 1.0000000000000000e+00 4.0000000000000000e+00 1.8000000000000000e+01 2.5000000000000000e+00 
70 2 4 2.2559723595316457e+00 2.0500295489908488e-04 1.0000000000000000e+00 6.0000000000000000e+00 1.8000000000000000e+01 2.5000000000000000e+00 
90 2 4 2.2559723595316457e+00 -2.8806371279511783e-01 1.0000000000000000e+00 8.0000000000000000e+00 1.8000000000000000e+01 2.5000000000000000e+00 
110 2 4 2.2559723595316457e+00 -1.4698117176611849e-02 1.0000000000000000e+00 1.0000000000000000e+01 1.8000000000000000e+01 2.5000000000000000e+00 
130 2 4 2.2559723595316457e+00 7.5901259301854068e-02 1.0000000000000000e+00 1.2000000000000000e+01 1.8000000000000000e+01 2.5000000000000000e+00 
150 2 4 2.2559723595316457e+00 3.0079293333034024e-01 1.0000000000000000e+00 1.4000000000000000e+01 1.8000000000000000e+01 2.5000000000000000e+00 
170 2 4 2.2559723595316457e+00 -4.5651136375238474e-02 1.0000000000000000e+00 1.6000000000000000e+01 1.8000000000000000e+01 2.5000000000000000e+00 
190 2 4 2.2559723595316457e+00 -1.6121929992175484e-02 1.0000000000000000e+00 1.8000000000000000e+01 1.8000000000000000e+01 2.5000000000000000e+00 
573 175 2 1.0279999889566434e+00 -3.2680730542080978e+03 1.0000000000000000e+00 2.4338515209963371e-01 1.9543951640256270e+00 6.5105423522360306e+00 
576 178 2 1.0280000318800178e+00 -3.2680877004229824e+03 1.0000000000000000e+00 1.5358901139377565e+00 1.9394753524194703e+00 6.4723448248063384e+00 
1749 1351 2 1.0280000651365133e+00 -3.2674920438633299e+03 1.0000000000000000e+00 4.0942234077990197e-01 1.6790377924426227e+00 6.4657512607325298e+00 
1752 1354 2 1.0279999934613022e+00 -3.2678332476103756e+03 1.0000000000000000e+00 1.3903490106517198e+00 1.6699939974830784e+00 6.4488513314025555e+00 
1359 961 2 1.0279999782079750e+00 -1.1624569717228576e+03 1.0000000000000000e+00 2.3684765706225397e+00 1.1309168344920155e+00 7.8290521057543758e+00 
737 339 2 1.0280000196818226e+00 2.4956609001973538e+03 1.0000000000000000e+00 3.6694238702927118e+00 2.8558059919714971e+00 6.3932499554678950e+00 
409 11 2 1.0280000009367969e+00 3.7301279052802383e+03 1.0000000000000000e+00 4.7955635594022672e+00 2.3910635300032062e+00 6.4191177011403386e+00 
1921 1523 2 1.0280000009378174e+00 3.7301264106257122e+03 1.0000000000000000e+00 4.7804566090592724e+00 2.3840022760878092e+00 6.4204871631817531e+00 
757 359 2 1.0279999942739733e+00 6.7048164417812641e+03 1.0000000000000000e+00 5.5655935179994174e+00 2.2212295596235498e+00 7.6383391608978410e+00 
1073 675 2 1.0279999733054808e+00 2.8173181819968781e+03 1.0000000000000000e+00 3.0349781747824061e+00 1.1025114315696578e+00 7.1568947767362054e+00 
1923 1525 2 1.0279999889698439e+00 -1.2348568957002897e+03 1.0000000000000000e+00 8.3637128525570592e+00 2.8158310074462625e+00 6.3989558118766086e+00 
1641 1243 2 1.0279999979323573e+00 3.7538416629904477e+03 1.0000000000000000e+00 6.1037957257972826e+00 2.6198079576338746e+00 7.8636062367005479e+00 
411 13 2 1.0280000109680840e+00 -1.2348257245975076e+03 1.0000000000000000e+00 8.5047270950748892e+00 1.1419657840827189e+00 6.3739990373574340e+00 
1608 1210 2 1.0279999803798852e+00 4.2687034211860400e+03 1.0000000000000000e+00 6.2892126086821092e+00 8.9446993348143522e-01 7.5070430656942566e+00 
580 182 2 1.0280000030572798e+00 3.0083719716561468e+03 1.0000000000000000e+00 8.3707108952238070e+00 7.0480530047190693e-01 6.4198337033120634e+00 
738 340 2 1.0280000027083689e+00 -1.3973549881954355e+03 1.0000000000000000e+00 8.3459996439902611e+00 6.5027560245789195e-01 6.4314988597828284e+00 
579 181 2 1.0280000089872690e+00 1.9325480255731484e+00 1.0000000000000000e+00 6.6143463722404388e+00 3.6581222908852651e-01 6.4354418863392837e+00 
743 345 2 1.0280000034601686e+00 6.5854814904935594e+01 1.0000000000000000e+00 7.8177856017870013e+00 1.1131590541332367e-01 6.4941695618639157e+00 
741 343 2 1.0280000167002847e+00 2.6387782759157508e+03 1.0000000000000000e+00 7.3307487237699771e+00 2.6235036743470566e-02 6.4433578812210985e+00 
874 476 2 1.0280000041940420e+00 -1.2331928158256703e+02 1.0000000000000000e+00 1.1423825564392686e+01 1.9788071528764215e+00 7.5555974502611933e+00 
710 312 2 1.0280000132756670e+00 -1.7985114669561844e+03 1.0000000000000000e+00 1.1017888646878726e+01 1.9660065198858852e+00 7.6808501746039921e+00 
582 184 2 1.0280000211297868e+00 -2.6233386158496546e+03 1.0000000000000000e+00 1.0832164144121732e+01 1.9507591642789190e+00 7.7735230292414688e+00 
1072 674 2 1.0280000021154361e+00 -5.5846211420899817e+02 1.0000000000000000e+00 2.7534667216016455e+00 3.0658212706127577e+00 8.3058608074609115e+00 
896 498 2 1.0279999975329082e+00 9.4079809169398832e+03 1.0000000000000000e+00 2.2603653723824437e+00 5.0168519682426052e+00 8.2689508564888357e+00 
1577 1179 2 1.0280000075547839e+00 2.4957272757686469e+03 1.0000000000000000e+00 3.8977389233347535e+00 2.9606740078926017e+00 6.3815256879336983e+00 
1296 898 2 1.0280000018525690e+00 -8.7979114824408782e+02 1.0000000000000000e+00 3.3817932733228684e+00 3.6873813266338531e+00 6.9657932081229204e+00 
732 334 2 1.0279999963385755e+00 -2.8587499525555968e+03 1.0000000000000000e+00 5.4307081907126769e+00 4.8109489033793187e+00 8.1307553131072030e+00 
1565 1167 2 1.0279999972030371e+00 2.7374540551946584e+03 1.0000000000000000e+00 5.5325388768439909e+00 4.6695932373929701e+00 8.1829786110946277e+00 
1061 663 2 1.0279999990439062e+00 2.7371198141230634e+03 1.0000000000000000e+00 5.6384436339488238e+00 4.2437024572962549e+00 8.3193899379636935e+00 
1756 1358 2 1.0279999946376972e+00 3.0085244492073598e+03 1.0000000000000000e+00 8.1990988094529573e+00 3.3287896792667682e+00 6.4888275131233364e+00 
1578 1180 2 1.0279999981095187e+00 -1.3971841681102849e+03 1.0000000000000000e+00 8.1808508331747483e+00 3.3918827992399732e+00 6.5333492396357951e+00 
1583 1185 2 1.0280000121279147e+00 6.6180979397790665e+01 1.0000000000000000e+00 7.7184775152780958e+00 3.8754319880914254e+00 6.4880210894600081e+00 
1581 1183 2 1.0280000149107880e+00 2.6394894080024151e+03 1.0000000000000000e+00 7.4654580927262080e+00 3.9856379888594624e+00 6.4639708123943436e+00 
1755 1357 2 1.0280000047235625e+00 2.7020690678545010e+00 1.0000000000000000e+00 6.4995821615669467e+00 4.1064862966451274e+00 6.4671639859199201e+00 
1561 1163 2 1.0280000161051361e+00 7.1711081458300632e+03 1.0000000000000000e+00 1.1165631998597135e+01 4.7148037916204002e+00 6.3460030801879528e+00 
1057 659 2 1.0280000148831692e+00 7.1709327439446097e+03 1.0000000000000000e+00 1.1156850871345112e+01 4.7442238866618034e+00 6.3385039527124913e+00 
1612 1214 2 1.0279999911641764e+00 2.7946082178458705e+03 1.0000000000000000e+00 1.1100341628396793e+01 5.1307389506707937e+00 6.2999572213097421e+00 
772 374 2 1.0280000331379722e+00 2.7943904658930478e+03 1.0000000000000000e+00 1.1116630202125105e+01 5.4059583965137188e+00 6.3555458038326620e+00 
1886 1488 2 1.0280000076273255e+00 -1.7983622252828090e+03 1.0000000000000000e+00 9.9098284539400900e+00 5.5510952918263037e+00 8.2397204570615958e+00 
1634 1236 2 1.0280000080022522e+00 -2.5785594204490139e+03 1.0000000000000000e+00 1.3547061068416824e+01 3.0654050772914490e+00 6.7000284023198136e+00 
794 396 2 1.0280000391729547e+00 -2.5788937935374602e+03 1.0000000000000000e+00 1.4066218832452218e+01 3.1380397721126587e+00 7.9095274393648101e+00 
1574 1176 2 1.0279999903234323e+00 1.7296735887001009e+03 1.0000000000000000e+00 1.2808646601417157e+01 4.3390029043915908e+00 6.4198415715647021e+00 
1070 672 2 1.0279999887680489e+00 1.7307484738444282e+03 1.0000000000000000e+00 1.2725862137041808e+01 4.3718981380382971e+00 6.4372981981090858e+00 
641 243 2 1.0280000008456478e+00 -8.1338088035930252e+02 1.0000000000000000e+00 1.5054506070780119e+01 3.0904715393182571e+00 6.2785991131969112e+00 
1317 919 2 1.0280000008456434e+00 -2.2533463078522068e+03 1.0000000000000000e+00 1.5054505608828183e+01 3.0904713959646397e+00 6.2785989630973882e+00 
1144 746 2 1.0280000008374950e+00 -1.2078262929486111e+03 1.0000000000000000e+00 1.5059433631950048e+01 3.0920128742226924e+00 6.2801992702923837e+00 
1149 751 2 1.0279999996166276e+00 -2.2527316887752600e+03 1.0000000000000000e+00 1.5385191652851985e+01 4.6613651178214859e+00 6.3966421374092066e+00 
1312 914 2 1.0279999985611099e+00 -1.2076986894951576e+03 1.0000000000000000e+00 1.4999171077478112e+01 4.6705319952141870e+00 6.3145960015318536e+00 
1817 1419 2 1.0279999985379156e+00 -8.1329249971458512e+02 1.0000000000000000e+00 1.4994105954000929e+01 4.6714461291943170e+00 6.3157584422894164e+00 
1414 1016 2 1.0280000025946312e+00 -7.1309449597363414e+02 1.0000000000000000e+00 1.8415087827216670e+01 3.2296358223503665e+00 7.5380947255170252e+00 
1438 1040 2 1.0280000020550644e+00 -2.1011276319805506e+03 1.0000000000000000e+00 1.8462108639045741e+01 3.4383339006622657e+00 7.1863166616030592e+00 
1656 1258 2 1.0279999964641831e+00 2.6905709675832040e+03 1.0000000000000000e+00 1.8202427699159255e+01 3.9148284359395027e+00 6.7922588546597318e+00 
1731 1333 2 1.0279999842341676e+00 -3.1464712636114045e+03 1.0000000000000000e+00 1.9698207486435010e+01 4.8822870117449177e+00 6.4443624654292204e+00 
717 319 2 1.0279999841163048e+00 -1.4700487429091131e+03 1.0000000000000000e+00 1.9702604725376474e+01 4.8838451732589965e+00 6.4449872703765632e+00 
1462 1064 2 1.0280000381877519e+00 -2.4517206726160944e+03 1.0000000000000000e+00 1.7440353368953630e+01 5.2401120098622327e+00 6.3868467095087400e+00 
1831 1433 2 1.0280000030536056e+00 -1.1053099331108208e+03 1.0000000000000000e+00 1.7294734878924992e+01 3.5248063806651651e+00 8.1478638854447833e+00 
1191 793 2 1.0279999971271425e+00 -1.1660791359058462e+03 1.0000000000000000e+00 1.8293067120840019e+00 6.0018627075027782e+00 7.2892095616067376e+00 
978 580 2 1.0279999962298230e+00 -4.1701812821638214e+03 1.0000000000000000e+00 2.2384822328583991e+00 7.5694178882952778e+00 7.0376106646935126e+00 
1249 851 2 1.0279999991497326e+00 2.1166390358022895e+03 1.0000000000000000e+00 1.7367515882228377e+00 8.2720596288445574e+00 7.8886039080903272e+00 
1077 679 2 1.0280000026716938e+00 3.6275281868691656e+02 1.0000000000000000e+00 9.3111684421138363e-01 8.2720147299052886e+00 8.3197383701806178e+00 
1080 682 2 1.0280000027644325e+00 3.6297078215174355e+02 1.0000000000000000e+00 8.9280546047657838e-01 8.2748894704718730e+00 8.3210879292366702e+00 
1597 1199 2 1.0279999953708900e+00 6.7057582209836146e+03 1.0000000000000000e+00 5.1394370886221052e+00 5.9693184448613152e+00 7.0619792957630780e+00 
1241 843 2 1.0280000227797954e+00 2.8160424797056698e+03 1.0000000000000000e+00 3.5856807773382884e+00 6.1413855334726568e+00 6.4758086783144995e+00 
801 403 2 1.0279999952358496e+00 3.7533113211582522e+03 1.0000000000000000e+00 4.6023996927542168e+00 6.2482187319206632e+00 6.5736723082505293e+00 
1128 730 2 1.0279999965603555e+00 -8.8399581927346162e+02 1.0000000000000000e+00 3.6983611700405383e+00 7.0982830478984722e+00 6.5237893520884418e+00 
1721 1323 2 1.0279999983546122e+00 6.7098075780710660e+03 1.0000000000000000e+00 4.3855864364282633e+00 7.1144357148927178e+00 7.3079957031785092e+00 
768 370 2 1.0279999969585587e+00 4.2696857747101349e+03 1.0000000000000000e+00 4.4124631559729774e+00 7.1381907503518072e+00 6.9019797024302489e+00 
1596 1198 2 1.0280000100839748e+00 3.4912687672129432e+03 1.0000000000000000e+00 8.0030764301128325e+00 7.3516189874911237e+00 6.4470230241552944e+00 
756 358 2 1.0280000098051365e+00 3.4918695194760185e+03 1.0000000000000000e+00 8.0055667463975411e+00 7.3557416971909371e+00 6.4476958097645021e+00 
1272 874 2 1.0280000091768189e+00 5.0621963949763858e+02 1.0000000000000000e+00 8.0112611340731803e+00 7.3645478401998368e+00 6.4491117982488566e+00 
1104 706 2 1.0280000091429951e+00 5.0520540766663561e+02 1.0000000000000000e+00 8.0115714495202202e+00 7.3650050859097567e+00 6.4491845049179508e+00 
1714 1316 2 1.0279999980639141e+00 -1.2348809285683484e+02 1.0000000000000000e+00 1.0658556903406966e+01 6.4607477860914582e+00 7.9494523820714083e+00 
942 544 2 1.0279999953601144e+00 -3.6624179333897337e+03 1.0000000000000000e+00 8.8668395713926031e+00 6.6842800690579569e+00 6.3733097387351334e+00 
1446 1048 2 1.0279999912535138e+00 -3.6631528274127950e+03 1.0000000000000000e+00 8.8426185844775151e+00 6.9833797642027129e+00 6.3598004683827352e+00 
816 418 2 1.0279999952755041e+00 2.6907458301208362e+03 1.0000000000000000e+00 1.7182077330187713e+01 6.2439636817712598e+00 7.2562226671554413e+00 
958 560 2 1.0280000012448858e+00 -2.4514047412167802e+03 1.0000000000000000e+00 1.7611797988895557e+01 6.2160424821163494e+00 6.4751416174511469e+00 
934 536 2 1.0280000076993785e+00 -2.1011118643190766e+03 1.0000000000000000e+00 1.8541209469856234e+01 6.9364700595059787e+00 8.0369238651903139e+00 
633 235 2 1.0279999935505615e+00 -1.8383746609318280e+02 1.0000000000000000e+00 1.8620114977577657e+01 6.9709110495128987e+00 6.3335991282902935e+00 
1809 1411 2 1.0279999933426001e+00 -1.8373321580883066e+02 1.0000000000000000e+00 1.8700089930397581e+01 6.9850134810774236e+00 6.3176517474472753e+00 
1412 1014 2 1.0280000023121572e+00 -9.2743221508582690e+02 1.0000000000000000e+00 8.6904860242155768e-01 9.3540331611982310e+00 6.3505382498168181e+00 
748 350 2 1.0280000202976369e+00 8.7919298277884336e+03 1.0000000000000000e+00 1.0026701434814365e+00 9.5747576448042437e+00 6.3500857736456249e+00 
879 481 2 1.0279999903682979e+00 -4.5860422914400760e+02 1.0000000000000000e+00 1.3598636370594326e+00 1.0712186993765428e+01 6.5336062248715399e+00 
1098 700 2 1.0280000007186838e+00 -1.4233758381149203e+03 1.0000000000000000e+00 8.2400100586947012e-01 1.0835277782486193e+01 8.0460719128595315e+00 
916 518 2 1.0279999896979830e+00 3.5397591035500709e+03 1.0000000000000000e+00 1.3061775021890361e+00 1.0842589591050816e+01 6.4722195990251397e+00 
1622 1224 2 1.0280000086727801e+00 -1.6546730265301064e+03 1.0000000000000000e+00 5.2453022323891343e+00 1.0140079220994332e+01 6.4255394088373805e+00 
782 384 2 1.0280000052896894e+00 -1.6531229976257503e+03 1.0000000000000000e+00 5.2527986619069367e+00 1.0804081002197259e+01 7.6905365737352778e+00 
1965 1567 2 1.0280000237793345e+00 -2.3777670111538000e+03 1.0000000000000000e+00 4.5548182124939149e+00 1.1004992956182829e+01 8.0896060881734400e+00 
453 55 2 1.0279999969640796e+00 -2.3788126980282486e+03 1.0000000000000000e+00 4.6503493305923929e+00 1.1181762404005532e+01 7.8213780222474467e+00 
1103 705 2 1.0279999990183375e+00 -4.6454040097507310e+01 1.0000000000000000e+00 6.0375285393908680e+00 9.7849629647368612e+00 6.4939583419950200e+00 
1271 873 2 1.0279999990350313e+00 -4.3547234099488279e+01 1.0000000000000000e+00 6.0373088659636727e+00 9.7844939901883219e+00 6.4939350509992284e+00 
1456 1058 2 1.0279999991025000e+00 8.8297948888458632e+03 1.0000000000000000e+00 6.0364207772911085e+00 9.7826153085252887e+00 6.4938411471375410e+00 
952 554 2 1.0279999991199977e+00 8.8272120828344996e+03 1.0000000000000000e+00 6.0361902852056124e+00 9.7821321744218270e+00 6.4938168419637980e+00 
1782 1384 2 1.0280000097559765e+00 -2.5788905344483264e+03 1.0000000000000000e+00 2.6106534502233578e+00 1.1574559208938911e+01 8.2022967179049360e+00 
1090 692 2 1.0280000238314058e+00 -8.3474719700557554e+00 1.0000000000000000e+00 1.1050976507148196e+00 1.1820127970073653e+01 6.3942698963508073e+00 
1258 860 2 1.0279999939612612e+00 -7.4073271175767621e+00 1.0000000000000000e+00 1.0607080247113800e+00 1.2805774369486505e+01 6.3718017802123450e+00 
1266 868 2 1.0280000019493769e+00 -1.4233263600387006e+03 1.0000000000000000e+00 1.4945006018581044e+00 1.3398781659625307e+01 7.4546869002920815e+00 
1420 1022 2 1.0279999990345599e+00 3.5393876791901375e+03 1.0000000000000000e+00 1.1507914524079912e+00 1.4053972896519097e+01 6.4289444451924940e+00 
1719 1321 2 1.0279999995615710e+00 -4.5883406562069825e+02 1.0000000000000000e+00 1.1285856806624792e+00 1.4237965755272681e+01 6.4708369922471780e+00 
606 208 2 1.0279999911702675e+00 -2.5790562939885058e+03 1.0000000000000000e+00 3.5990975323123839e+00 1.1586891362661188e+01 8.0661818114732249e+00 