LAMMPS data file via write_data, version 30 Jul 2016, timestep = 100000000

603 atoms
2 atom types

0.0000000000000000e+00 2.0000000000000000e+01 xlo xhi
0.0000000000000000e+00 2.0000000000000000e+01 ylo yhi
0.0000000000000000e+00 2.0000000000000000e+01 zlo zhi

Masses

1 4.31
2 3.896

Atoms # meso-molecular

579 0 1 1.0279974660916305e+00 -3.5076471149222989e+01 1.0000000000000000e+00 5.8257546522205796e+00 7.7914528708369959e+00 3.1731063498032119e+00 
337 0 1 1.0279992738409380e+00 -4.5338862937858501e+01 1.0000000000000000e+00 5.8088101446626963e+00 7.7655589035718204e+00 3.2056817925344729e+00 
472 0 1 1.0279981101174787e+00 -3.0633470548705251e+01 1.0000000000000000e+00 5.7719399823097142e+00 7.9061138814237033e+00 3.2555389726017880e+00 
370 0 1 1.0279930203862155e+00 -1.2000774008048609e+01 1.0000000000000000e+00 6.4784592464463184e+00 6.3049408386124615e+00 4.6855937281167259e+00 
109 0 1 1.0279858760499989e+00 -2.8504013706691399e+01 1.0000000000000000e+00 6.5452171435250399e+00 5.5706022377342812e+00 5.2971548191989788e+00 
237 0 1 1.0279874818269958e+00 -3.0128244116111489e+01 1.0000000000000000e+00 6.6019243188818635e+00 5.2178454752899945e+00 5.4928249101622786e+00 
417 0 1 1.0280009486546424e+00 -2.4312781886223934e+01 1.0000000000000000e+00 6.0330914803460578e+00 6.9965077399553017e+00 4.8224297213806935e+00 
393 0 1 1.0279982270452477e+00 -5.0453687637292688e+01 1.0000000000000000e+00 5.7307163578771094e+00 8.3612480511275873e+00 3.5925872978326461e+00 
47 0 1 1.0279995318980235e+00 -3.9930640756625820e+01 1.0000000000000000e+00 5.8074523878092537e+00 8.6904234270789811e+00 4.0400438155373219e+00 
544 0 1 1.0279793432928810e+00 -2.6602267176049079e+01 1.0000000000000000e+00 6.2422732079912571e+00 9.0616372048998066e+00 4.5972573409772250e+00 
74 0 1 1.0279964745771513e+00 -3.6266459551334407e+01 1.0000000000000000e+00 6.2496216603988541e+00 8.9419030149345389e+00 6.3590793213416088e+00 
263 0 1 1.0280433570649725e+00 -1.4825005368179434e+01 1.0000000000000000e+00 5.6375929974496444e+00 9.1730531984347259e+00 6.3669390033846485e+00 
194 0 1 1.0280000938562106e+00 -1.7993297346268541e+01 1.0000000000000000e+00 5.2605835671431658e+00 3.2112015219887575e+00 8.3506672114157858e+00 
350 0 1 1.0279999848602974e+00 -3.8498991102123782e+01 1.0000000000000000e+00 5.2845967469284592e+00 3.3773880524872739e+00 8.8739232359985412e+00 
397 0 1 1.0280008570005861e+00 -2.6253102494067914e+01 1.0000000000000000e+00 5.3186628609220001e+00 3.4326943505150727e+00 8.9882338758311526e+00 
575 0 1 1.0280063186123269e+00 -4.6712134425928085e+01 1.0000000000000000e+00 5.3972066897907753e+00 3.7020673299176732e+00 7.3871522055213177e+00 
536 0 1 1.0280063208946428e+00 -2.1376944104426308e+01 1.0000000000000000e+00 5.3272957505444358e+00 3.9437258672688538e+00 7.3176762066458556e+00 
31 0 1 1.0279932776413343e+00 -2.7064679868688934e+01 1.0000000000000000e+00 5.3526452725493634e+00 5.3041009354599842e+00 7.9447888373772564e+00 
96 0 1 1.0280006165049693e+00 -2.1033207519052361e+01 1.0000000000000000e+00 5.1951943735862960e+00 5.2143755170365464e+00 8.1777887979423447e+00 
269 0 1 1.0280064347824314e+00 -1.0508469580052113e+01 1.0000000000000000e+00 5.2751107638692645e+00 4.1462715489907289e+00 7.3119995412427734e+00 
241 0 1 1.0279441879545204e+00 -4.4278253432959801e+01 1.0000000000000000e+00 5.4813652586020156e+00 6.2981549149368288e+00 9.2564286789758405e+00 
507 0 1 1.0279919025337436e+00 -2.0696773002726573e+01 1.0000000000000000e+00 6.3802003114461101e+00 4.8515035282951029e+00 6.7657138030433552e+00 
538 0 1 1.0280045017137582e+00 -3.5229299653179865e+01 1.0000000000000000e+00 2.9468800681344725e+00 9.2890106190265822e+00 8.4746462441382526e+00 
451 0 1 1.0279930568906779e+00 -1.7208840589007238e+01 1.0000000000000000e+00 4.1092595009960133e+00 7.8947307577458128e+00 7.3591261325775195e+00 
552 0 1 1.0279756654230803e+00 -3.2429057473966743e+01 1.0000000000000000e+00 6.1687790397903202e+00 9.1394321571004316e+00 9.9696436722638690e+00 
230 0 1 1.0281464742509621e+00 -2.5305232211862990e+01 1.0000000000000000e+00 6.1810102393107034e+00 7.1981140527873011e+00 9.0953985744676356e+00 
298 0 1 1.0280070682597797e+00 -1.4245740728518681e+01 1.0000000000000000e+00 3.8524146427919725e+00 9.6455462727071541e+00 7.1342364332152064e+00 
265 0 1 1.0280063078706023e+00 -1.0754992250232336e+01 1.0000000000000000e+00 3.8121403183267240e+00 9.8654359697671659e+00 7.2059733778525867e+00 
168 0 1 1.0280131630094262e+00 -6.4695661400442489e+01 1.0000000000000000e+00 4.1402078466155166e+00 8.7672865718228667e+00 9.2289983395260773e+00 
631 0 1 1.0279473960420173e+00 -4.1651777214352514e+01 1.0000000000000000e+00 5.9001868489219813e+00 8.6279255490568261e+00 9.1973614407122923e+00 
543 0 1 1.0279933440198255e+00 -1.8753285699861301e+01 1.0000000000000000e+00 4.1090836291711970e+00 7.8965211933184074e+00 7.3572179434942804e+00 
443 0 1 1.0279940263420209e+00 -1.1603675563941719e+01 1.0000000000000000e+00 4.1089091484393041e+00 7.8969193825319612e+00 7.3569403947118435e+00 
640 0 1 1.0279931522574317e+00 -5.1423759300280757e+01 1.0000000000000000e+00 4.1736410381232600e+00 7.7448033336863169e+00 7.4889120009762564e+00 
94 0 1 1.0279890640037856e+00 -3.1351004785667723e+01 1.0000000000000000e+00 4.5089363921004111e+00 7.3788870373132864e+00 7.7350173129174182e+00 
127 0 1 1.0280050685583075e+00 -4.6097778429501680e+01 1.0000000000000000e+00 4.7322388180752890e+00 5.6001676221077918e+00 1.2223482880490151e+01 
37 0 1 1.0280060618963756e+00 -3.9339656895386632e+01 1.0000000000000000e+00 4.4585810871856326e+00 5.5639268803688484e+00 1.1799279240048850e+01 
76 0 1 1.0280062754954766e+00 -3.8278107181633160e+01 1.0000000000000000e+00 4.4544845224269860e+00 5.5496995624828109e+00 1.1768885865191269e+01 
523 0 1 1.0280075134193252e+00 -2.7159251531459116e+01 1.0000000000000000e+00 6.2087366307443874e+00 4.9215125251692529e+00 1.1314086018805551e+01 
431 0 1 1.0280050075973890e+00 -8.1863782145337076e+00 1.0000000000000000e+00 4.9711732667994930e+00 5.5789949417327094e+00 1.2385805217056769e+01 
464 0 1 1.0280091801665552e+00 -2.8228958387286703e+01 1.0000000000000000e+00 5.6133633560424112e+00 4.7326846748515266e+00 1.0876944382750079e+01 
381 0 1 1.0279914300992683e+00 -1.1264880500271440e+01 1.0000000000000000e+00 5.4874538879326265e+00 6.4084785920171514e+00 1.3062049356084323e+01 
288 0 1 1.0279871952928152e+00 -4.6032740193952975e+01 1.0000000000000000e+00 5.9170398046775219e+00 4.3601184359459335e+00 1.0176042434352222e+01 
441 0 1 1.0280085949622231e+00 -3.1373728068212678e+01 1.0000000000000000e+00 4.5276808484921398e+00 6.5002656024252667e+00 1.0290695855163877e+01 
474 0 1 1.0280064841644314e+00 -2.7790800470405912e+01 1.0000000000000000e+00 4.4895854529761090e+00 6.5602401284237430e+00 1.0409536629096420e+01 
389 0 1 1.0280100306820532e+00 -1.8061410762237056e+01 1.0000000000000000e+00 4.5786896078945283e+00 6.6058975652458347e+00 1.0190903092017507e+01 
176 0 1 1.0279941049604813e+00 -4.3615146988503994e+01 1.0000000000000000e+00 4.7948320142861833e+00 7.1786400592732367e+00 1.1965220609688290e+01 
430 0 1 1.0280135928931720e+00 -1.1346492820260078e+01 1.0000000000000000e+00 4.6590333989802000e+00 8.9918495527937754e+00 1.2586992721883673e+01 
578 0 1 1.0280026409235872e+00 -2.9112680121023399e+01 1.0000000000000000e+00 3.6007330904898738e+00 9.7731206035114582e+00 1.1944851141269131e+01 
616 0 1 1.0279687385894474e+00 -4.1785468515265975e+01 1.0000000000000000e+00 4.0746074537429804e+00 9.9277589570606199e+00 1.0931187543647294e+01 
147 0 1 1.0279876791279801e+00 -3.1896126641023098e+01 1.0000000000000000e+00 5.2530598191792759e+00 8.7819736957290591e+00 1.1063072503827641e+01 
358 0 1 1.0281160634919231e+00 -2.6550368049393452e+01 1.0000000000000000e+00 6.4490833366521354e+00 7.8789765460945471e+00 1.2826624480510434e+01 
160 0 1 1.0279805655782244e+00 -5.3012781688421406e+01 1.0000000000000000e+00 5.2620957031684652e+00 8.8375533274011691e+00 1.0780906739102917e+01 
313 0 1 1.0279940127305396e+00 -2.4324156572268187e+01 1.0000000000000000e+00 6.4896747799113070e+00 6.4089725077038135e+00 1.5272814349481934e+01 
91 0 1 1.0279955736991928e+00 -5.4108251029554964e+01 1.0000000000000000e+00 6.2333730099437874e+00 7.0111048886520644e+00 1.3875140417803356e+01 
415 0 1 1.0279774386867642e+00 -2.7236273257767518e+01 1.0000000000000000e+00 6.1332398826714689e+00 6.9638969562396333e+00 1.3642018417912396e+01 
467 0 1 1.0279867949053261e+00 -1.9312477952659140e+01 1.0000000000000000e+00 6.4784018488807016e+00 7.2954731253743725e+00 1.4251194108879581e+01 
336 0 1 1.0279995796411963e+00 -4.4790306891184400e+01 1.0000000000000000e+00 5.4138915195513766e+00 9.6224110552437114e+00 1.3669081448341975e+01 
510 0 1 1.0280019406449783e+00 -3.0320855761866120e+01 1.0000000000000000e+00 4.8734520202141773e+00 1.1630800203586219e+01 4.3987388033421828e+00 
188 0 1 1.0279936420051450e+00 -3.1591819147552812e+01 1.0000000000000000e+00 4.7379559715298498e+00 1.0753107436042958e+01 5.0638463406532663e+00 
360 0 1 1.0280057243005312e+00 -1.7494584276145993e+01 1.0000000000000000e+00 5.4227805936121030e+00 1.2002325491101566e+01 4.2730754700370506e+00 
367 0 1 1.0280025801676778e+00 -1.7839467786434984e+01 1.0000000000000000e+00 4.9861802637395041e+00 1.1647850621924647e+01 4.2915614579014072e+00 
25 0 1 1.0279943891000394e+00 -3.8655371213065415e+01 1.0000000000000000e+00 4.7346486014979750e+00 1.0781343150659454e+01 4.9166662352417259e+00 
116 0 1 1.0279926462210314e+00 -1.9522474051058236e+01 1.0000000000000000e+00 4.8304952591809780e+00 1.0841919732511951e+01 4.5515807191483608e+00 
113 0 1 1.0280024054163157e+00 -4.8848009656937954e+01 1.0000000000000000e+00 6.4138886288285111e+00 1.2301204695884808e+01 4.5639406104135043e+00 
294 0 1 1.0280032889693331e+00 -2.2023757699663154e+01 1.0000000000000000e+00 5.4493047229225526e+00 1.2167944414102484e+01 4.4120162625852695e+00 
561 0 1 1.0279921357535304e+00 -5.5051717127731145e+01 1.0000000000000000e+00 5.7769384852725967e+00 1.3014088780517278e+01 6.6334368032987081e+00 
251 0 1 1.0280099142256991e+00 -2.9583381310351275e+01 1.0000000000000000e+00 5.2876807617171835e+00 1.1275386778470137e+01 6.5282665855111572e+00 
476 0 1 1.0279892070037631e+00 -4.4065803764705350e+01 1.0000000000000000e+00 6.3460946416123623e+00 1.4344043993546341e+01 5.5282030698648414e+00 
179 0 1 1.0279907116801585e+00 -1.0925431091214310e+01 1.0000000000000000e+00 6.4624836083239821e+00 1.4382848800743391e+01 5.5032229992898314e+00 
195 0 1 1.0280080174467210e+00 -1.8239565193130296e+01 1.0000000000000000e+00 6.4669400018092906e+00 1.5558721332789323e+01 6.3062116820395628e+00 
7 0 1 1.0280072439390537e+00 -8.2392315898305029e+01 1.0000000000000000e+00 6.5023715599821497e+00 1.5526950877133139e+01 6.1793007420812209e+00 
193 0 1 1.0279980109051987e+00 -1.9689651066359158e+01 1.0000000000000000e+00 2.6067306995196109e+00 1.0478048322855486e+01 8.7343061216572231e+00 
319 0 1 1.0279997467825794e+00 -2.5798750529763176e+01 1.0000000000000000e+00 2.7240080831251223e+00 1.0703575158243192e+01 8.3354618638866675e+00 
309 0 1 1.0280002461688014e+00 -2.8096587391661032e+01 1.0000000000000000e+00 2.6764961427038361e+00 1.0228877497901529e+01 9.0319803342886669e+00 
217 0 1 1.0280019329112562e+00 -4.5023609135641529e+01 1.0000000000000000e+00 2.7686680010762990e+00 1.0253448751869000e+01 8.0532232871805345e+00 
222 0 1 1.0280064929370358e+00 -1.0690985984060797e+01 1.0000000000000000e+00 3.4092454678341779e+00 1.1679433708059021e+01 8.7733038388340034e+00 
555 0 1 1.0280264232762120e+00 -4.4359119943311555e+01 1.0000000000000000e+00 6.0158237772051981e+00 1.1105276415673078e+01 8.1026568074434664e+00 
331 0 1 1.0280442849690539e+00 -3.9283123745504149e+01 1.0000000000000000e+00 4.4850401861325011e+00 1.2040458847909326e+01 8.5277101272021234e+00 
325 0 1 1.0280209858988176e+00 -4.9494243759908777e+01 1.0000000000000000e+00 4.2492844984668592e+00 1.2003273007932224e+01 8.6320379835881571e+00 
211 0 1 1.0277204084416549e+00 -2.9666861182680936e+01 1.0000000000000000e+00 5.9323214804979614e+00 1.1108512538273015e+01 7.8877710618077446e+00 
62 0 1 1.0280143482902648e+00 -3.3100438623164131e+01 1.0000000000000000e+00 5.1576073023083051e+00 1.2673520498974796e+01 8.4817203022055807e+00 
440 0 1 1.0280457449411755e+00 -9.1881986323316216e+00 1.0000000000000000e+00 6.5311918676639351e+00 1.1291200645189726e+01 9.0384239416685546e+00 
445 0 1 1.0282042786341314e+00 -1.0846556054532684e+01 1.0000000000000000e+00 6.5771598447673068e+00 1.0147635731491420e+01 9.9697044633745247e+00 
14 0 1 1.0279944597549160e+00 -8.2637568015645968e+01 1.0000000000000000e+00 5.1928925648967308e+00 1.4677537139462151e+01 9.9386599842579155e+00 
220 0 1 1.0280082039730951e+00 -2.2115258909554093e+01 1.0000000000000000e+00 5.5922304745658904e+00 1.3804589261680830e+01 6.9865891991317488e+00 
610 0 1 1.0280106452171918e+00 -6.8376944649557458e+01 1.0000000000000000e+00 5.6712788540954042e+00 1.4606793050709783e+01 7.1547452046261322e+00 
106 0 1 1.0279940376187269e+00 -3.4425291368952614e+01 1.0000000000000000e+00 5.2200610499779714e+00 1.4666749444411057e+01 9.9025301647579358e+00 
539 0 1 1.0279933571310060e+00 -4.3878953843650741e+01 1.0000000000000000e+00 5.2111029152707671e+00 1.4665667387610521e+01 9.9043865055712210e+00 
501 0 1 1.0280121435876939e+00 -2.2274682862082450e+01 1.0000000000000000e+00 5.5753706167770201e+00 1.3932803495358693e+01 7.1635338215507582e+00 
89 0 1 1.0279938736056253e+00 -4.1333269724613523e+01 1.0000000000000000e+00 5.2102853216028953e+00 1.4666687965917781e+01 9.9069541335265434e+00 
169 0 1 1.0279961408500153e+00 -4.4001123276428601e+01 1.0000000000000000e+00 3.4750764982808739e+00 1.0142249571774061e+01 1.0032139962411692e+01 
51 0 1 1.0279848801700338e+00 -3.6204743939538552e+01 1.0000000000000000e+00 3.8645168233075009e+00 1.1627660128313261e+01 1.0109394963935298e+01 
373 0 1 1.0280066825954617e+00 -2.0210443565379911e+01 1.0000000000000000e+00 4.1700165804717111e+00 1.2363183866285574e+01 1.1016082946956537e+01 
247 0 1 1.0279832242336953e+00 -3.7980213895110602e+01 1.0000000000000000e+00 4.2171680339607445e+00 1.1642040312088854e+01 1.0553784493872476e+01 
2 0 1 1.0279939114159786e+00 -6.9260172759530647e+01 1.0000000000000000e+00 3.4256809965200419e+00 1.0379940284232267e+01 1.3139891300329499e+01 
239 0 1 1.0279939302040277e+00 -4.5899043564625458e+01 1.0000000000000000e+00 3.4283810143355233e+00 1.0389092142259299e+01 1.3139333022961138e+01 
601 0 1 1.0279941485291817e+00 -3.8802190657625303e+01 1.0000000000000000e+00 3.4293286010421156e+00 1.0391668068961488e+01 1.3139529102024454e+01 
594 0 1 1.0280090955700103e+00 -3.9425577743661840e+01 1.0000000000000000e+00 5.4468992640092306e+00 1.2978397417318444e+01 1.1961146264493225e+01 
180 0 1 1.0279935647038756e+00 -1.7320783716864124e+01 1.0000000000000000e+00 3.4276811064728538e+00 1.0386065848314662e+01 1.3139985018145893e+01 
311 0 1 1.0280687306946417e+00 -1.5940064708636587e+01 1.0000000000000000e+00 5.7519372838618583e+00 1.0888795205465186e+01 1.1756591521485193e+01 
308 0 1 1.0279314459380149e+00 -1.9491774412014529e+01 1.0000000000000000e+00 6.2027498403424328e+00 1.2938250971360514e+01 1.1679875283793898e+01 
490 0 1 1.0280193488767340e+00 -7.5622015228111820e+01 1.0000000000000000e+00 5.0803544013548141e+00 1.2968573013997849e+01 1.1918521782725197e+01 
416 0 1 1.0279928060087478e+00 -2.2866907446930689e+01 1.0000000000000000e+00 3.4601466008225112e+00 1.0332587769130649e+01 1.3235044309666801e+01 
607 0 1 1.0283014991191006e+00 -3.0641201664937899e+01 1.0000000000000000e+00 6.6610227951528262e+00 1.0501406493874777e+01 1.2576152941726463e+01 
186 0 1 1.0279994463422819e+00 -2.4158714744283532e+01 1.0000000000000000e+00 4.4679421871911682e+00 1.4535896836090789e+01 1.1230410221526560e+01 
287 0 1 1.0280026189772529e+00 -4.3286568976352633e+01 1.0000000000000000e+00 4.1000173768935113e+00 1.4010823613836276e+01 1.1366552138784135e+01 
410 0 1 1.0280025565425248e+00 -3.1787965766151142e+01 1.0000000000000000e+00 4.0842662818444122e+00 1.3999673248345550e+01 1.1348054697727408e+01 
356 0 1 1.0280026435188032e+00 -1.6397466622322113e+01 1.0000000000000000e+00 4.0856828047056926e+00 1.4000529785038674e+01 1.1349873788738240e+01 
615 0 1 1.0280118578952901e+00 -3.3425215632124598e+01 1.0000000000000000e+00 5.9285833480820171e+00 1.1611448909196383e+01 1.5442695574664199e+01 
38 0 1 1.0280080272582695e+00 -4.0565872785837712e+01 1.0000000000000000e+00 5.5018486082782179e+00 1.0864210461378429e+01 1.5232209352912161e+01 
291 0 1 1.0280079150751109e+00 -1.9562510220185445e+01 1.0000000000000000e+00 5.6601143976541195e+00 1.1203867970649602e+01 1.5383904360298908e+01 
541 0 1 1.0280118160074809e+00 -2.7955668260384897e+01 1.0000000000000000e+00 5.7244787021952428e+00 1.1152199089795266e+01 1.5420569865012158e+01 
45 0 1 1.0280166785310278e+00 -3.5585879608697240e+01 1.0000000000000000e+00 6.0061345915056705e+00 1.1881298561806974e+01 1.5364273944994396e+01 
23 0 1 1.0280080491596393e+00 -3.2437534537199689e+01 1.0000000000000000e+00 5.6899686160351051e+00 1.1192479910636967e+01 1.5402133946791224e+01 
343 0 1 1.0279889053432485e+00 -2.5331490885006250e+01 1.0000000000000000e+00 4.8896295659521742e+00 1.0045901002748506e+01 1.4167375338111672e+01 
475 0 1 1.0280349647758911e+00 -3.8169182721412767e+01 1.0000000000000000e+00 6.1618039847730088e+00 1.4264048490627365e+01 1.4394691142584231e+01 
268 0 1 1.0280365510516956e+00 -9.7535705702313855e+00 1.0000000000000000e+00 6.1849720578619793e+00 1.4438658387646882e+01 1.4340766813171991e+01 
143 0 1 1.0280360897553318e+00 -2.1160739329253925e+01 1.0000000000000000e+00 6.1813827170270601e+00 1.4437204782689864e+01 1.4338194895139415e+01 
320 0 1 1.0280376348769305e+00 -2.2500059944620098e+01 1.0000000000000000e+00 6.1991733522080983e+00 1.4408375937011623e+01 1.4366306340882975e+01 
162 0 1 1.0280340197187912e+00 -7.8563112348216961e+01 1.0000000000000000e+00 6.1653510907289704e+00 1.4241463290103164e+01 1.4406551165599913e+01 
497 0 1 1.0280365549807040e+00 -5.9312931355819586e+01 1.0000000000000000e+00 6.1831003713904833e+00 1.4434449135023142e+01 1.4341012052450862e+01 
128 0 1 1.0280045932685433e+00 -3.1035331798896109e+01 1.0000000000000000e+00 7.9136752104003216e+00 7.7370795977120901e+00 2.7783861545404904e+00 
342 0 1 1.0280055813047471e+00 -1.7762209908609286e+01 1.0000000000000000e+00 7.8838152742163299e+00 7.7411134261907160e+00 2.7558947295358442e+00 
41 0 1 1.0280021507375559e+00 -4.0149484797037346e+01 1.0000000000000000e+00 7.6917818851378206e+00 7.5579210730445361e+00 2.7014768198098262e+00 
481 0 1 1.0280063492798122e+00 -2.3011424923766718e+01 1.0000000000000000e+00 7.8885424042706118e+00 7.7069469043535461e+00 2.7686811070102655e+00 
592 0 1 1.0280055942124586e+00 -3.1316001876679820e+01 1.0000000000000000e+00 7.8346790456924440e+00 7.8779857509415097e+00 2.7066754599381095e+00 
107 0 1 1.0280044526808758e+00 -3.7219157517426730e+01 1.0000000000000000e+00 8.9200980133420096e+00 4.3996362211141387e+00 4.4816993517922654e+00 
347 0 1 1.0279960922694098e+00 -2.3557872245446756e+01 1.0000000000000000e+00 8.9044736025234066e+00 4.1531440222364280e+00 5.2850894571278619e+00 
505 0 1 1.0280038617334615e+00 -2.8383698904562991e+01 1.0000000000000000e+00 8.2569443722232361e+00 4.6361757661659082e+00 4.2174750402248291e+00 
190 0 1 1.0280040795858481e+00 -3.4090685751397103e+01 1.0000000000000000e+00 8.9200629708717525e+00 4.4050926253642579e+00 4.4760528355730322e+00 
299 0 1 1.0280046726031551e+00 -1.1952477640540351e+01 1.0000000000000000e+00 8.9497354987428537e+00 4.3480799780978439e+00 4.5613900025366041e+00 
632 0 1 1.0280074802401511e+00 -4.1887237866775330e+01 1.0000000000000000e+00 8.7527383727770598e+00 4.5316490488617660e+00 4.3092364991413010e+00 
355 0 1 1.0279886239759699e+00 -1.8976450063499136e+01 1.0000000000000000e+00 6.8655423223254353e+00 5.0433690027924420e+00 5.0402227974035148e+00 
329 0 1 1.0279921971053112e+00 -6.6537323186022959e+01 1.0000000000000000e+00 6.9203941115102507e+00 5.6130828421578407e+00 4.5873944195519920e+00 
625 0 1 1.0279590710049906e+00 -3.2975794438000257e+01 1.0000000000000000e+00 9.6029269058774460e+00 6.0267934362857485e+00 5.5069502446678120e+00 
414 0 1 1.0280258612394217e+00 -3.2370862709955254e+01 1.0000000000000000e+00 1.0208231253282932e+01 6.0825773843290261e+00 5.5783050857220324e+00 
408 0 1 1.0280202517849644e+00 -4.5120277638846666e+01 1.0000000000000000e+00 1.0357957874008198e+01 6.1059153476666559e+00 5.3545122945392460e+00 
21 0 1 1.0280022227836854e+00 -3.8911851797231563e+01 1.0000000000000000e+00 1.2710105053535363e+01 4.4834726051667602e+00 6.3928138161777657e+00 
192 0 1 1.0279936530006906e+00 -1.3250039387142170e+01 1.0000000000000000e+00 1.2234938517746194e+01 5.1992040196927150e+00 6.2371312146338367e+00 
644 0 1 1.0280302769611711e+00 -6.8367115400384776e+01 1.0000000000000000e+00 1.2501020772073923e+01 5.7258915714935865e+00 5.9967262708767306e+00 
305 0 1 1.0280193218523304e+00 -1.3245160427151209e+01 1.0000000000000000e+00 1.2747283427820754e+01 6.6313380461922957e+00 5.0564493981657410e+00 
433 0 1 1.0279983254576337e+00 -3.5724917047711521e+01 1.0000000000000000e+00 1.1945330554543641e+01 6.6208857078980232e+00 3.6362118671118524e+00 
270 0 1 1.0280434146802773e+00 -2.8174247034934908e+01 1.0000000000000000e+00 8.8869605691975675e+00 8.3661352251302397e+00 3.8867170061743859e+00 
310 0 1 1.0282072930368118e+00 -3.7491710410305934e+01 1.0000000000000000e+00 8.9086946537888654e+00 8.9392144128016628e+00 5.6275231338814304e+00 
253 0 1 1.0279279999181032e+00 -3.5270236073060303e+01 1.0000000000000000e+00 8.7291481215802040e+00 8.8959274837432911e+00 4.8144877030361499e+00 
282 0 1 1.0279648655292695e+00 -1.5932548293435948e+01 1.0000000000000000e+00 9.6784810066556624e+00 8.7951401512289369e+00 4.9909025837910281e+00 
245 0 1 1.0279403780204306e+00 -7.6763980655741861e+01 1.0000000000000000e+00 8.5530344003839165e+00 8.9028346619758203e+00 5.1933145103775766e+00 
338 0 1 1.0279476901263942e+00 -2.4489123296345589e+01 1.0000000000000000e+00 9.5602299299505198e+00 9.2654301237618757e+00 4.6168239949190246e+00 
314 0 1 1.0282081275426818e+00 -3.1523148164029276e+01 1.0000000000000000e+00 6.6759437502551497e+00 7.8347626029584632e+00 6.2407278957614807e+00 
28 0 1 1.0277961728276286e+00 -7.0042353958494147e+01 1.0000000000000000e+00 6.7437659782417310e+00 8.0016798444213926e+00 6.3555868417429346e+00 
264 0 1 1.0280000178466349e+00 -9.5325270002217195e+00 1.0000000000000000e+00 1.0948134561200416e+01 7.1109288796239660e+00 3.6805507760015668e+00 
585 0 1 1.0280006375813493e+00 -4.3473531478186018e+01 1.0000000000000000e+00 1.0858572358427486e+01 7.1160846249665317e+00 3.7482678974996086e+00 
595 0 1 1.0280046419187168e+00 -6.5984852266377956e+01 1.0000000000000000e+00 1.2226135448678015e+01 7.4152334302453236e+00 3.5257612203381590e+00 
334 0 1 1.0280054930731717e+00 -3.3515571133993966e+01 1.0000000000000000e+00 1.2109626658929770e+01 7.7346912896771007e+00 3.5338961155134569e+00 
246 0 1 1.0279964679749514e+00 -6.9870800818211265e+01 1.0000000000000000e+00 1.1925368089896164e+01 6.6940087798905292e+00 3.5682781764751406e+00 
513 0 1 1.0279973297514726e+00 -3.2957315410942940e+01 1.0000000000000000e+00 1.2103663377388811e+01 6.9135797871120070e+00 3.5179316659679105e+00 
34 0 1 1.0280776271007064e+00 -4.1923685070815495e+01 1.0000000000000000e+00 1.1647157842813964e+01 9.5272766896026475e+00 4.6240656458303135e+00 
97 0 1 1.0278486480480624e+00 -4.1925869502947819e+01 1.0000000000000000e+00 1.2906454922393708e+01 7.8564207942905293e+00 5.8236563567285877e+00 
586 0 1 1.0278616258856956e+00 -2.6878607174643474e+01 1.0000000000000000e+00 1.1693011819421873e+01 9.3468370076430709e+00 4.8950889771457389e+00 
18 0 1 1.0281314558283339e+00 -3.2602032048736824e+01 1.0000000000000000e+00 1.2315481146072683e+01 8.8061908706753940e+00 6.2445451849855624e+00 
27 0 1 1.0281287656013265e+00 -5.0021450126577733e+01 1.0000000000000000e+00 1.1128864362222913e+01 7.5922977730134251e+00 6.4158580995028061e+00 
316 0 1 1.0279927221302299e+00 -5.8206102717584415e+01 1.0000000000000000e+00 9.3064401568657242e+00 2.5676048693446019e+00 7.2613799040115108e+00 
339 0 1 1.0279935047282298e+00 -7.8807817951264010e+00 1.0000000000000000e+00 9.4022686893965179e+00 2.0469066652015093e+00 7.5676123178425705e+00 
553 0 1 1.0279929418157794e+00 -3.9049333430548188e+01 1.0000000000000000e+00 9.2899562632420878e+00 2.5836872608297980e+00 7.2740343047162161e+00 
200 0 1 1.0279993636912157e+00 -2.3655793051167414e+01 1.0000000000000000e+00 6.8883794410503656e+00 3.1248084149605906e+00 8.8173516493510888e+00 
643 0 1 1.0279987022395043e+00 -4.6038529659762247e+01 1.0000000000000000e+00 6.8950171425524704e+00 3.1222496857487476e+00 8.7684275461284926e+00 
434 0 1 1.0280008109635201e+00 -4.9435098926178327e+01 1.0000000000000000e+00 7.0803295052100719e+00 3.1892293617494776e+00 8.6471775399835131e+00 
99 0 1 1.0279975156030781e+00 -4.8068759723337521e+01 1.0000000000000000e+00 9.6463595484513132e+00 2.0363212325285209e+00 7.2487724238722961e+00 
278 0 1 1.0280086343817034e+00 -2.4568968223577937e+01 1.0000000000000000e+00 1.1037278757482770e+01 1.9841819261575087e+00 8.6270520394234023e+00 
285 0 1 1.0280072541147471e+00 -2.6953854949535065e+00 1.0000000000000000e+00 1.1047003782686897e+01 2.0160906782273229e+00 8.6570337375674189e+00 
295 0 1 1.0280088458205767e+00 -2.8905967764788603e+01 1.0000000000000000e+00 1.0853031579279664e+01 1.7090938911954912e+00 8.3375201016798925e+00 
492 0 1 1.0279934269237636e+00 -4.4627042627434776e+01 1.0000000000000000e+00 1.0999657905312716e+01 3.2485424247633214e+00 9.3735458147882476e+00 
545 0 1 1.0280087274607832e+00 -3.3747040477818281e+01 1.0000000000000000e+00 1.0912333769797245e+01 1.7141826888774270e+00 8.2864392042860082e+00 
605 0 1 1.0280040063952962e+00 -4.1795112858988119e+01 1.0000000000000000e+00 1.0275063292127454e+01 2.0967251917770016e+00 6.9878081846176237e+00 
6 0 1 1.0279970843417288e+00 -6.3243436851642294e+01 1.0000000000000000e+00 1.1227066626777788e+01 2.9066277179923414e+00 7.0666455880307115e+00 
26 0 1 1.0278112146054390e+00 -3.9615599488593972e+01 1.0000000000000000e+00 8.4271307549928913e+00 3.9310312411757451e+00 8.7028182978100723e+00 
234 0 1 1.0280236271022090e+00 -2.2955635994687061e+01 1.0000000000000000e+00 8.7631965178167039e+00 5.4730108962989998e+00 7.4002960303427194e+00 
365 0 1 1.0277500772917314e+00 -5.3069627981535419e+01 1.0000000000000000e+00 8.8570918733563957e+00 4.1791912968126228e+00 9.0290732213730323e+00 
43 0 1 1.0279491135967067e+00 -6.8496287033328485e+01 1.0000000000000000e+00 7.5688378714959867e+00 5.9068252546764830e+00 7.6618492061353454e+00 
566 0 1 1.0284019374351638e+00 -4.6297364787497855e+01 1.0000000000000000e+00 8.5179182550529617e+00 3.8573930311588458e+00 9.2110273980893620e+00 
146 0 1 1.0280660529066481e+00 -2.7428668229092985e+01 1.0000000000000000e+00 8.1021359508528565e+00 6.1581874744118057e+00 6.9635117349710214e+00 
119 0 1 1.0277543642985558e+00 -3.4797818793171210e+01 1.0000000000000000e+00 9.0010344626031245e+00 5.9089653212100037e+00 9.5432137361986324e+00 
422 0 1 1.0280741377972933e+00 -2.0682596148816188e+01 1.0000000000000000e+00 7.5153442820388534e+00 6.5549216391339353e+00 7.6834008294891909e+00 
402 0 1 1.0276839268749101e+00 -4.4119013187717513e+01 1.0000000000000000e+00 9.9002880518077756e+00 5.7805291618891443e+00 7.4493224434301135e+00 
519 0 1 1.0290267987810515e+00 -2.4886388529328990e+01 1.0000000000000000e+00 1.0299920184587096e+01 5.2158097429719277e+00 7.2713580306298242e+00 
354 0 1 1.0273714995946299e+00 -1.7414457170900146e+01 1.0000000000000000e+00 1.0604873587986216e+01 4.8349278188124165e+00 6.7312380374351077e+00 
206 0 1 1.0280137879038538e+00 -2.3873494666738009e+00 1.0000000000000000e+00 1.2459591104602273e+01 3.8475362334776220e+00 7.5211720181984187e+00 
214 0 1 1.0280066599579054e+00 -1.7087540927403776e+01 1.0000000000000000e+00 1.1446993551012781e+01 5.6372117847595753e+00 9.8558669944733612e+00 
163 0 1 1.0279632587674066e+00 -6.8262155725998355e+01 1.0000000000000000e+00 1.1977323337004991e+01 3.9884979953822728e+00 7.1824714482609027e+00 
412 0 1 1.0280208895963769e+00 -4.0841212520607911e+01 1.0000000000000000e+00 1.0907537987631930e+01 4.4339586881052346e+00 9.2356767183025834e+00 
82 0 1 1.0279226042027507e+00 -5.6222779162469052e+01 1.0000000000000000e+00 1.1757866854201740e+01 3.9842851323861188e+00 9.0767063162203279e+00 
457 0 1 1.0277908427041276e+00 -1.4192064925614261e+01 1.0000000000000000e+00 1.1026981548845646e+01 6.4553256825505079e+00 9.8652241321213214e+00 
574 0 1 1.0280151416209871e+00 -6.8080320457504186e+01 1.0000000000000000e+00 1.3228458544074718e+01 6.3913989923096057e+00 7.6162405118459287e+00 
78 0 1 1.0280086844600125e+00 -6.3809465185593673e+01 1.0000000000000000e+00 1.3216998961272076e+01 4.0216043976587317e+00 8.9213363741169758e+00 
537 0 1 1.0279969051174358e+00 -1.7091415697542136e+01 1.0000000000000000e+00 1.0646774273655513e+01 5.9693451031383775e+00 9.9130119660363487e+00 
252 0 1 1.0279350953846860e+00 -3.6961465270255971e+01 1.0000000000000000e+00 8.0994505160698136e+00 9.5913738055173745e+00 8.8691377858654725e+00 
315 0 1 1.0278543804267648e+00 -4.3313542339417673e+01 1.0000000000000000e+00 7.6338408588986040e+00 7.9214744548610465e+00 7.3799023871499623e+00 
63 0 1 1.0284351318105813e+00 -4.0197633938647222e+01 1.0000000000000000e+00 9.3925701363987795e+00 8.5296690248802438e+00 8.5686752095816558e+00 
364 0 1 1.0279584295898356e+00 -3.8559450713457835e+01 1.0000000000000000e+00 7.6036112213969771e+00 8.9079483379299553e+00 9.5799447326862754e+00 
88 0 1 1.0279523727117414e+00 -3.8890119661195207e+01 1.0000000000000000e+00 7.2269871709476199e+00 8.8150497568900885e+00 8.7957812553858084e+00 