LAMMPS data file via write_data, version 30 Jul 2016, timestep = 50400000

180 atoms
2 atom types

0.0000000000000000e+00 2.0000000000000000e+01 xlo xhi
0.0000000000000000e+00 2.0000000000000000e+01 ylo yhi
0.0000000000000000e+00 2.0000000000000000e+01 zlo zhi

Masses

1 3.896
2 5

Atoms # meso-molecular

2 1 2 1.1966321146676882e+00 -4.3871507788439772e+02 1.0000000000000000e+00 4.9686579194574056e+00 1.9126461172534739e+00 2.3757516202591149e+00 
1 1 2 1.1967019808692168e+00 -6.5248192944151845e+02 1.0000000000000000e+00 4.9657387078819779e+00 1.9185503860880548e+00 2.3571724710354371e+00 
7 1 2 1.1967006697963969e+00 -6.4006842978779434e+02 1.0000000000000000e+00 4.9656033725966626e+00 1.9188034967281375e+00 2.3570759087161042e+00 
14 1 2 1.5930668416327671e+00 -4.3995620001268259e+02 1.0000000000000000e+00 4.3240890179054361e+00 9.0532944121465206e+00 2.6808856577700348e+00 
13 1 2 1.5934067629717499e+00 -5.2650239755742837e+02 1.0000000000000000e+00 4.3757262521800051e+00 9.1198264174598886e+00 2.6503537177530894e+00 
20 1 2 1.5943888402453839e+00 -5.3893640420157453e+02 1.0000000000000000e+00 4.3514521565927229e+00 9.0607659837983263e+00 2.6591992514411089e+00 
19 1 2 1.5942422044933686e+00 -5.5082031587887786e+02 1.0000000000000000e+00 4.3687325747773658e+00 9.0961131861484610e+00 2.6395613719737820e+00 
16 1 2 1.5937466734381365e+00 -5.8215114610734179e+02 1.0000000000000000e+00 5.0440758142301094e+00 5.4844566786290594e+00 8.7642633285285925e+00 
10 1 2 1.5894910281206971e+00 -4.5071744224958536e+02 1.0000000000000000e+00 5.0698218471214531e+00 5.4379162081559524e+00 8.8516717972182555e+00 
9 1 2 1.5930196147051086e+00 -6.1364324497463156e+02 1.0000000000000000e+00 5.0403194345933890e+00 5.4959100386157456e+00 8.7522575952294179e+00 
15 1 2 1.5936747615058471e+00 -6.3036393211822269e+02 1.0000000000000000e+00 5.0425417878288714e+00 5.4701572857731806e+00 8.7585415380598537e+00 
17 1 2 3.9892352272382625e-01 2.2176624250501066e-05 1.0000000000000000e+00 4.9300986903984683e+00 7.2800793735791922e+00 1.3340022507128865e+01 
5 1 2 1.1967586422416860e+00 -5.3686793660902208e+02 1.0000000000000000e+00 5.0368959311025900e+00 1.8450590013557275e+00 1.5184625721189587e+01 
6 1 2 1.1967572409212375e+00 -5.6600197181661190e+02 1.0000000000000000e+00 5.0369820699002208e+00 1.8446446386383530e+00 1.5184905915456460e+01 
11 1 2 1.1967454062018719e+00 -4.3699432329270627e+02 1.0000000000000000e+00 5.0367308793513308e+00 1.8530430259197166e+00 1.5182826525702135e+01 
18 1 2 7.9784704544765239e-01 -3.7938546627975848e+02 1.0000000000000000e+00 4.5946955598246744e+00 5.4386266670290784e+00 1.6293820918803068e+01 
12 1 2 7.9784704544765239e-01 -3.7802104216266645e+02 1.0000000000000000e+00 4.5946955598243200e+00 5.4386266670155674e+00 1.6293820918803771e+01 
25 1 2 7.9784704544765239e-01 -4.1177577017515762e+02 1.0000000000000000e+00 6.2868768276489444e+00 1.3932755551610423e+01 6.8890228971411471e-01 
61 1 2 7.9784704544765239e-01 -4.1622138839782616e+02 1.0000000000000000e+00 6.2868768276595306e+00 1.3932755551615916e+01 6.8890228971115686e-01 
31 1 2 1.1965715292499073e+00 -4.3533682369298691e+02 1.0000000000000000e+00 5.2099250922627425e+00 1.6071578342944559e+01 3.3904407059470572e+00 
26 1 2 1.1966710496883355e+00 -6.1832043872748955e+02 1.0000000000000000e+00 5.2192080811456041e+00 1.6084971615416201e+01 3.3732655459227421e+00 
32 1 2 1.1966710477261415e+00 -6.2478820345743873e+02 1.0000000000000000e+00 5.2192083426382299e+00 1.6084975178715471e+01 3.3732681466280661e+00 
21 1 2 7.9784704544765239e-01 -4.2989596841554265e+02 1.0000000000000000e+00 5.1599986010511598e+00 1.2240002585549684e+01 7.0750197126262151e+00 
27 1 2 7.9784704544765239e-01 -4.2989659167533296e+02 1.0000000000000000e+00 5.1599986010425267e+00 1.2240002585519369e+01 7.0750197126450844e+00 
33 1 2 3.9892352272382625e-01 1.5463134965241367e+00 1.0000000000000000e+00 4.6608507023501309e+00 1.7475546601396530e+01 7.5338148689913993e+00 
22 1 2 1.1965198417793699e+00 -4.3390455404036305e+02 1.0000000000000000e+00 4.6646918131919408e+00 1.2956044970647035e+01 1.1410101501919147e+01 
29 1 2 1.1966459843691253e+00 -6.0593747960858082e+02 1.0000000000000000e+00 4.6576812397319918e+00 1.2976925897116526e+01 1.1424861378795663e+01 
28 1 2 1.1966444146765374e+00 -6.0532737833266617e+02 1.0000000000000000e+00 4.6576297450280029e+00 1.2977023960257531e+01 1.1424997693438723e+01 
34 1 2 7.9784704544765239e-01 -4.2025320633742433e+02 1.0000000000000000e+00 4.8905228202023059e+00 1.9012606317141923e+01 1.0702001097769854e+01 
4 1 2 7.9784704544765239e-01 -4.1951736624146207e+02 1.0000000000000000e+00 4.8905228202018289e+00 1.9012606317227362e+01 1.0702001097750159e+01 
35 1 2 3.9892352272382625e-01 0.0000000000000000e+00 1.0000000000000000e+00 5.7000000000000002e+00 1.6180000000000000e+01 1.4289999999999999e+01 
66 1 2 1.5880813463805332e+00 -4.4517343987829810e+02 1.0000000000000000e+00 6.3231226619043248e+00 1.5982189983446395e+01 1.7704637925702887e+01 
30 1 2 1.5863537564262444e+00 -4.5067990433395198e+02 1.0000000000000000e+00 6.4435150471510285e+00 1.5979699582392694e+01 1.7604424224048234e+01 
36 1 2 1.5872565640408318e+00 -5.9566907783789043e+02 1.0000000000000000e+00 6.2910076196028868e+00 1.5953672741485907e+01 1.7622746068575751e+01 
72 1 2 1.5905759095922849e+00 -6.3949333841651901e+02 1.0000000000000000e+00 6.4004161687843739e+00 1.6002996233370414e+01 1.7645013227093209e+01 
73 1 2 7.9784704544765239e-01 -2.5503586849889339e+02 1.0000000000000000e+00 1.2954970449863897e+01 1.4151701779554156e+00 6.0500524524270405e-01 
109 1 2 7.9784704544765239e-01 -2.5506987278384011e+02 1.0000000000000000e+00 1.2954970449864874e+01 1.4151701779528429e+00 6.0500524523972599e-01 
49 1 2 3.9892352272382625e-01 0.0000000000000000e+00 1.0000000000000000e+00 8.3599999999999994e+00 8.3100000000000005e+00 1.2700000000000000e+00 
85 1 2 7.9784704544765239e-01 -3.4848379124926441e+02 1.0000000000000000e+00 1.1967130185956137e+01 9.2402075855228230e+00 7.3172409006792782e-01 
91 1 2 7.9784704544765239e-01 -3.2033118788861725e+02 1.0000000000000000e+00 1.1967130185964793e+01 9.2402075855359218e+00 7.3172409006790506e-01 
37 1 2 1.1967665666624301e+00 -4.6607035040538688e+02 1.0000000000000000e+00 9.5956992147036022e+00 1.2738502826706029e+00 3.0653752980931088e+00 
38 1 2 1.1967671069958343e+00 -5.0329617906111315e+02 1.0000000000000000e+00 9.5957619569294419e+00 1.2739233288273004e+00 3.0658366679864772e+00 
74 1 2 1.1967631842469102e+00 -4.4005752365062477e+02 1.0000000000000000e+00 9.5985387573375984e+00 1.2722269905126089e+00 3.0687880339783553e+00 
43 1 2 1.5942882252537569e+00 -5.5983419060153631e+02 1.0000000000000000e+00 7.5516208980386708e+00 5.3383727337133120e+00 3.4811656488400056e+00 
44 1 2 1.5947203830949983e+00 -5.9159414072245920e+02 1.0000000000000000e+00 7.5375924687379534e+00 5.3067807433180452e+00 3.4380779452984602e+00 
50 1 2 1.5942165505517985e+00 -5.7763379066139851e+02 1.0000000000000000e+00 7.5061922116310837e+00 5.3107171418032442e+00 3.4429389914341577e+00 
8 1 2 1.5948019397728408e+00 -4.4076196614121602e+02 1.0000000000000000e+00 7.5530232516407914e+00 5.3162656326650888e+00 3.4711719704617923e+00 
79 1 2 1.9797465834553383e+00 -4.9766028527572843e+02 1.0000000000000000e+00 1.3090837167379890e+01 5.4823892001635821e+00 2.9148218491663842e+00 
115 1 2 1.9859072829383739e+00 -7.8295007917500550e+02 1.0000000000000000e+00 1.3135631814859801e+01 5.5170019304057059e+00 2.9382883090513454e+00 
122 1 2 1.9686061524189236e+00 -7.3841080011615213e+02 1.0000000000000000e+00 1.3190458029976769e+01 5.6042115431573727e+00 3.0805400082236218e+00 
116 1 2 1.9860923362678951e+00 -7.3461146817566191e+02 1.0000000000000000e+00 1.3100720244738596e+01 5.5484203413903987e+00 2.9641194642154574e+00 
86 1 2 1.9792530080932096e+00 -6.1365204794481622e+02 1.0000000000000000e+00 1.3161887025532751e+01 5.6067863178782629e+00 2.8828028737737381e+00 
75 1 2 3.9892352272382625e-01 0.0000000000000000e+00 1.0000000000000000e+00 1.1150000000000000e+01 1.3400000000000001e+00 7.1100000000000003e+00 
80 1 2 1.9925874467709297e+00 -6.4327801910113442e+02 1.0000000000000000e+00 1.0007191414319838e+01 5.4613158514008564e+00 6.8065518733457866e+00 
45 1 2 1.9930060610171969e+00 -6.5847714044485110e+02 1.0000000000000000e+00 1.0002332735144092e+01 5.4522734040211684e+00 6.8406304759467860e+00 
87 1 2 1.9908325730681795e+00 -6.8383289925170095e+02 1.0000000000000000e+00 1.0050191254713068e+01 5.4762194011486320e+00 6.8597217848370269e+00 
81 1 2 1.9914602060797510e+00 -4.5097867623225824e+02 1.0000000000000000e+00 1.0000903122259796e+01 5.4081967137928393e+00 6.8465541180540779e+00 
51 1 2 1.9921994689625953e+00 -6.2693642202671435e+02 1.0000000000000000e+00 1.0024354956533285e+01 5.4404380673683708e+00 6.7958140699603282e+00 
39 1 2 1.1967639814721247e+00 -6.5068574390380286e+02 1.0000000000000000e+00 7.0328152046002881e+00 1.1225590857204311e+00 8.6469602021709875e+00 
40 1 2 1.1967579770496555e+00 -4.3967637289153515e+02 1.0000000000000000e+00 7.0355848326937656e+00 1.1249393561624041e+00 8.6518325387132347e+00 
3 1 2 1.1967645177989661e+00 -6.3622156722631632e+02 1.0000000000000000e+00 7.0331319826577587e+00 1.1227147772879542e+00 8.6470276728504061e+00 
46 1 2 3.9892352272382625e-01 3.9633761752599340e-02 1.0000000000000000e+00 8.2501849062906025e+00 5.1304718517995207e+00 9.5991690358020421e+00 
88 1 2 3.9892352272382625e-01 0.0000000000000000e+00 1.0000000000000000e+00 1.1090000000000000e+01 7.8700000000000001e+00 9.8900000000000006e+00 
52 1 2 1.1966341010851946e+00 -4.7390752751350078e+02 1.0000000000000000e+00 8.3298802724697456e+00 9.5468995690526359e+00 9.2415610980761631e+00 
58 1 2 1.1966693737714160e+00 -4.7545811890113947e+02 1.0000000000000000e+00 8.3311231851972600e+00 9.5480863564475111e+00 9.2379163733037526e+00 
57 1 2 1.1965386528799420e+00 -4.3403180366859266e+02 1.0000000000000000e+00 8.3393844838034923e+00 9.5605203107435219e+00 9.2195862513160343e+00 
82 1 2 7.9784704544765239e-01 -3.5648755251725748e+02 1.0000000000000000e+00 1.2618150729969964e+01 4.9748993747950587e+00 1.0909329385515916e+01 
118 1 2 7.9784704544765239e-01 -3.7406595025915146e+02 1.0000000000000000e+00 1.2618150729969166e+01 4.9748993747982864e+00 1.0909329385535878e+01 
89 1 2 7.9784704544765239e-01 -4.3023258176240000e+02 1.0000000000000000e+00 1.3065318108030276e+01 6.8999997105588671e+00 1.3459481159602838e+01 
125 1 2 7.9784704544765239e-01 -4.2756003122120615e+02 1.0000000000000000e+00 1.3065318108049068e+01 6.8999997105848836e+00 1.3459481159617265e+01 
53 1 2 1.1967168604722282e+00 -5.1015057737424013e+02 1.0000000000000000e+00 6.8336759072844959e+00 9.5642521242927661e+00 1.3866771619686327e+01 
59 1 2 1.1967374279220098e+00 -6.7363474978156717e+02 1.0000000000000000e+00 6.8425631296755229e+00 9.5542367504029606e+00 1.3866359512691073e+01 
23 1 2 1.1967471740783000e+00 -5.4532688500979225e+02 1.0000000000000000e+00 6.8420800362005521e+00 9.5569830644824521e+00 1.3865887334149150e+01 
47 1 2 1.1965420936367894e+00 -4.3022237355782380e+02 1.0000000000000000e+00 1.0154626835525617e+01 3.0437048945683949e+00 1.4177498334809142e+01 
83 1 2 1.1966569756980789e+00 -4.9633965504946394e+02 1.0000000000000000e+00 1.0132054336610704e+01 3.0545064362598233e+00 1.4173535777451786e+01 
77 1 2 1.1966556784375106e+00 -4.9937634833312734e+02 1.0000000000000000e+00 1.0131935913175539e+01 3.0545926010105426e+00 1.4173525753015856e+01 
42 1 2 3.9892352272382625e-01 2.1849620214779424e-02 1.0000000000000000e+00 8.1199125406984187e+00 7.9673949075457287e-02 1.6960061645588720e+01 
78 1 2 3.9892352272382625e-01 8.4790337534766558e-01 1.0000000000000000e+00 1.1781382915750548e+01 9.7719606798671355e-01 1.6625440134547862e+01 
48 1 2 1.5951219385657758e+00 -6.1784171992113249e+02 1.0000000000000000e+00 9.8426173397379326e+00 5.8925065172834907e+00 1.7358879547117610e+01 
90 1 2 1.5939252766816951e+00 -5.7703504790274371e+02 1.0000000000000000e+00 9.8683032755601126e+00 5.9204890775776056e+00 1.7339743358007844e+01 
54 1 2 1.5945807415862221e+00 -6.3549929343374447e+02 1.0000000000000000e+00 9.8161533558733449e+00 5.8780442452257731e+00 1.7362209356468693e+01 
84 1 2 1.5949896504756278e+00 -4.4560105882055808e+02 1.0000000000000000e+00 9.8229260282633675e+00 5.8889601597320818e+00 1.7349167738720002e+01 
55 1 2 3.9892352272382625e-01 0.0000000000000000e+00 1.0000000000000000e+00 9.1300000000000008e+00 1.1340000000000000e+01 5.6999999999999995e-01 
103 1 2 7.9784704544765239e-01 -4.2511171392639704e+02 1.0000000000000000e+00 1.1020510222477693e+01 1.5265869634142669e+01 5.2974808021632680e-01 
97 1 2 7.9784704544765239e-01 -4.2711124208796406e+02 1.0000000000000000e+00 1.1020510222504717e+01 1.5265869634090789e+01 5.2974808021478503e-01 
67 1 2 3.9892352272382625e-01 2.0686553917368511e+00 1.0000000000000000e+00 8.8984431313767836e+00 1.7628044698387068e+01 1.1945437442187164e-01 
56 1 2 3.9892352272382625e-01 0.0000000000000000e+00 1.0000000000000000e+00 7.6799999999999997e+00 1.0660000000000000e+01 4.0099999999999998e+00 
92 1 2 1.1967705357122489e+00 -4.8456892252460455e+02 1.0000000000000000e+00 1.1716817545095541e+01 1.1889971332413218e+01 5.1501056771971205e+00 
93 1 2 1.1967705054913422e+00 -4.6027089257683468e+02 1.0000000000000000e+00 1.1716713008815033e+01 1.1890133126100796e+01 5.1497250767511433e+00 
98 1 2 1.1967705378748614e+00 -4.8053051324205956e+02 1.0000000000000000e+00 1.1716813567179889e+01 1.1889978920316787e+01 5.1500937780082232e+00 
62 1 2 1.5926836707932415e+00 -6.7213477845897546e+02 1.0000000000000000e+00 8.9275721242322277e+00 1.4888886671751951e+01 6.2278804558690570e+00 
99 1 2 1.5923133920522439e+00 -4.2895474832344445e+02 1.0000000000000000e+00 8.9628603917403318e+00 1.4876409815763393e+01 6.2251530328467757e+00 
68 1 2 1.5934657873214526e+00 -6.2162333221910671e+02 1.0000000000000000e+00 8.9503263873221748e+00 1.4902316271822707e+01 6.2278936872844248e+00 
63 1 2 1.5881154997324629e+00 -6.2532477569799607e+02 1.0000000000000000e+00 8.9617096077791487e+00 1.5000648765558296e+01 6.2632716020123347e+00 
69 1 2 3.9892352272382625e-01 0.0000000000000000e+00 1.0000000000000000e+00 7.8899999999999997e+00 1.7510000000000002e+01 7.9400000000000004e+00 
104 1 2 1.1965883764052350e+00 -6.5481834515640628e+02 1.0000000000000000e+00 1.2118904432566538e+01 1.7621003343717902e+01 6.5926385458442684e+00 
105 1 2 1.1966930811378560e+00 -4.5497728954126995e+02 1.0000000000000000e+00 1.2135779233140800e+01 1.7623569699146106e+01 6.5966708330325625e+00 
141 1 2 1.1966198705627393e+00 -6.2966402560929748e+02 1.0000000000000000e+00 1.2145316334099904e+01 1.7625426957148964e+01 6.5906906209275329e+00 
94 1 2 7.9784704544765239e-01 -3.7652410566788183e+02 1.0000000000000000e+00 1.2019662754588278e+01 1.2392176395006562e+01 1.0623208802438866e+01 
100 1 2 7.9784704544765239e-01 -3.8043581506172723e+02 1.0000000000000000e+00 1.2019662754573934e+01 1.2392176394965615e+01 1.0623208802437592e+01 
64 1 2 7.9784704544765239e-01 -4.1323284247257641e+02 1.0000000000000000e+00 7.6057911182286215e+00 1.3107224343638697e+01 1.2375479513166356e+01 
65 1 2 7.9784704544765239e-01 -4.1311610454114435e+02 1.0000000000000000e+00 7.6057911182367857e+00 1.3107224343653733e+01 1.2375479513181077e+01 
70 1 2 1.1967635292098862e+00 -4.9724850361155472e+02 1.0000000000000000e+00 8.2110276254429326e+00 1.8332195360104890e+01 1.2824574644600659e+01 
71 1 2 1.1967623851553071e+00 -6.0774341383557544e+02 1.0000000000000000e+00 8.2087588924864949e+00 1.8327541931120823e+01 1.2821866364186210e+01 
41 1 2 1.1967674367359862e+00 -4.7860565634551750e+02 1.0000000000000000e+00 8.2101055052722778e+00 1.8330291110949265e+01 1.2823510933373106e+01 
96 1 2 7.9764792714645805e-01 -4.3195275604618973e+02 1.0000000000000000e+00 1.1301686782968753e+01 1.0926068294927338e+01 1.5893357075619623e+01 
95 1 2 7.9764792714645805e-01 -4.3195275604618973e+02 1.0000000000000000e+00 1.1298313217031248e+01 1.0923931705072663e+01 1.5926642924380154e+01 
107 1 2 2.3440537035302547e+00 -6.1020872725434049e+02 1.0000000000000000e+00 1.2227490630747681e+01 1.5977960943530350e+01 1.5229345042278071e+01 
143 1 2 2.3694725652131479e+00 -5.8658368371311644e+02 1.0000000000000000e+00 1.2246363065020191e+01 1.5871772381431537e+01 1.5311871889231341e+01 
144 1 2 2.3599103095271849e+00 -6.0770162383311470e+02 1.0000000000000000e+00 1.2318232091325360e+01 1.5690430700499663e+01 1.5292925840271558e+01 
101 1 2 2.3757162131587277e+00 -7.7499216653923520e+02 1.0000000000000000e+00 1.2259696084309107e+01 1.5815662910248653e+01 1.5282557184856444e+01 
108 1 2 2.3620013087825367e+00 -6.1752567544215788e+02 1.0000000000000000e+00 1.2403406208697652e+01 1.5808388773521177e+01 1.5190661882730659e+01 
102 1 2 2.3672526372082041e+00 -8.2379993802595754e+02 1.0000000000000000e+00 1.2378652599953680e+01 1.5752410028853419e+01 1.5291791440666337e+01 
24 1 2 7.9784483065380030e-01 -4.3211362377767892e+02 1.0000000000000000e+00 6.8183910873471083e+00 1.0234445819006016e+01 1.7460476714654401e+01 
60 1 2 7.9784483065380030e-01 -4.3211362377767892e+02 1.0000000000000000e+00 6.8216089126533292e+00 1.0235554180993983e+01 1.7459523285345597e+01 
151 1 2 3.9892352272382625e-01 0.0000000000000000e+00 1.0000000000000000e+00 1.8449999999999999e+01 3.6000000000000001e+00 6.8999999999999995e-01 
157 1 2 7.9784704544765239e-01 -3.6526052509012356e+02 1.0000000000000000e+00 1.7381358019696442e+01 7.2097571731212522e+00 2.5441211195164102e+00 
158 1 2 7.9784704544765239e-01 -3.8112466182892223e+02 1.0000000000000000e+00 1.7381358019706219e+01 7.2097571731401198e+00 2.5441211195044908e+00 
146 1 2 7.9784704544765239e-01 -3.8883705104764624e+02 1.0000000000000000e+00 1.7576658822164223e+01 1.5735682118807155e+00 5.9967880396045441e+00 
147 1 2 7.9784704544765239e-01 -3.8794896546669776e+02 1.0000000000000000e+00 1.7576658822165125e+01 1.5735682118853032e+00 5.9967880395847333e+00 
152 1 2 3.9892352272382625e-01 4.7312641075263179e-01 1.0000000000000000e+00 1.8159452946283530e+01 4.5597489154676518e+00 4.3963272747102566e+00 
117 1 2 7.9784704544765239e-01 -4.3293890556664536e+02 1.0000000000000000e+00 1.4520000000033866e+01 5.7699999999400324e+00 7.2499999999986668e+00 
123 1 2 7.9784704544765239e-01 -4.3293890556664536e+02 1.0000000000000000e+00 1.4519999999966135e+01 5.7700000000599685e+00 7.2500000000013332e+00 
159 1 2 3.9892352272382625e-01 3.6805565333079016e-01 1.0000000000000000e+00 1.8020705358590270e+01 6.7319323775117859e+00 7.2826387206981957e+00 
111 1 2 3.9892352272382625e-01 0.0000000000000000e+00 1.0000000000000000e+00 1.3980000000000000e+01 1.1899999999999999e+00 8.1099999999999994e+00 
148 1 2 3.9892352272382625e-01 2.0810680555748734e-03 1.0000000000000000e+00 1.8459988612858020e+01 1.0200056643346818e+00 9.6099773552199181e+00 
153 1 2 7.9784704544765239e-01 -4.0704483611678216e+02 1.0000000000000000e+00 1.8167994192095069e+01 4.0304627671931614e+00 9.2469039224443570e+00 
154 1 2 7.9784704544765239e-01 -4.0829889628300731e+02 1.0000000000000000e+00 1.8167994192127320e+01 4.0304627671943951e+00 9.2469039224481993e+00 
129 1 2 1.9925537079039406e+00 -4.9063648182157129e+02 1.0000000000000000e+00 1.6642731314092924e+01 9.4368572544048845e+00 9.2898373748801593e+00 
124 1 2 1.9930385976893390e+00 -4.9930059860206069e+02 1.0000000000000000e+00 1.6610600838517453e+01 9.4822857898999260e+00 9.2652256170600360e+00 
165 1 2 1.9928375835467995e+00 -6.4744373786011784e+02 1.0000000000000000e+00 1.6643160773245054e+01 9.4841472446467048e+00 9.2890789727983325e+00 
160 1 2 1.9927860232743373e+00 -6.5525114119231580e+02 1.0000000000000000e+00 1.6586996216377472e+01 9.4705314100924856e+00 9.2960969745778694e+00 
166 1 2 1.9933571456014354e+00 -6.4385861682022596e+02 1.0000000000000000e+00 1.6606513212833157e+01 9.4462706809887589e+00 9.2897193845045916e+00 
161 1 2 3.9892352272382625e-01 2.3005174421581454e-01 1.0000000000000000e+00 1.8428853088967330e+01 7.0298279470417686e+00 1.3633581852484701e+01 
113 1 2 1.9915160917795216e+00 -7.6736423219966991e+02 1.0000000000000000e+00 1.6343602090236924e+01 1.3906142907982129e+00 1.5482578888707943e+01 
114 1 2 1.9914802605248036e+00 -8.3060463203945949e+02 1.0000000000000000e+00 1.6340757850188627e+01 1.4005458738001120e+00 1.5523374435807851e+01 
150 1 2 1.9914789677404787e+00 -6.9884858839524941e+02 1.0000000000000000e+00 1.6400837801720673e+01 1.3686407567972338e+00 1.5483070741319350e+01 
149 1 2 1.9921022111403890e+00 -4.5792221663855423e+02 1.0000000000000000e+00 1.6394496071725346e+01 1.3988541325975294e+00 1.5481470263217201e+01 
119 1 2 1.9898243490322247e+00 -5.5783000483181797e+02 1.0000000000000000e+00 1.6402722962526738e+01 1.4021949059565899e+00 1.5558032519531418e+01 
155 1 2 7.9784704544765239e-01 -4.0631915204778392e+02 1.0000000000000000e+00 1.7960444681665283e+01 4.6267570805573142e+00 1.5782792236215752e+01 
156 1 2 7.9784704544765239e-01 -4.4023885912271260e+02 1.0000000000000000e+00 1.7960444681666939e+01 4.6267570805855947e+00 1.5782792236255226e+01 
120 1 2 3.9892352272382625e-01 0.0000000000000000e+00 1.0000000000000000e+00 1.4220000000000001e+01 4.2599999999999998e+00 1.6829999999999998e+01 
145 1 2 3.9892352272382625e-01 4.6509592873398349e+00 1.0000000000000000e+00 1.7685368659485839e+01 6.5038719102784659e-01 1.9766879391889553e+01 
162 1 2 1.1967654611513072e+00 -6.1729136379945521e+02 1.0000000000000000e+00 1.6269297543498269e+01 7.2060848814601997e+00 1.8141561612836504e+01 
126 1 2 1.1967598186206254e+00 -6.4121953739183436e+02 1.0000000000000000e+00 1.6271856289177425e+01 7.2038577518331541e+00 1.8137438483864329e+01 
121 1 2 1.1967648972786549e+00 -4.3143945056300481e+02 1.0000000000000000e+00 1.6269149294779858e+01 7.2062148468918181e+00 1.8141857822957881e+01 
127 1 2 7.9784704544765239e-01 -3.6306015120889117e+02 1.0000000000000000e+00 1.4386379993345876e+01 1.2244642414291802e+01 4.7912781345342376e-01 
133 1 2 7.9784704544765239e-01 -3.9159403284311918e+02 1.0000000000000000e+00 1.4386379993340331e+01 1.2244642414333397e+01 4.7912781345350181e-01 
169 1 2 1.1950516879167432e+00 -6.5668866991681034e+02 1.0000000000000000e+00 1.7835920004434371e+01 1.5817312055106186e+01 1.9031336349014094e+00 
176 1 2 1.1944889133966157e+00 -4.4518024551548649e+02 1.0000000000000000e+00 1.7822098570100270e+01 1.5750659656947587e+01 1.8506880832795174e+00 
175 1 2 1.1953770560577865e+00 -6.5629823685968609e+02 1.0000000000000000e+00 1.7821705684766279e+01 1.5774674135483405e+01 1.9209899923708098e+00 
139 1 2 3.9892352272382625e-01 0.0000000000000000e+00 1.0000000000000000e+00 1.4279999999999999e+01 1.7980000000000000e+01 9.8999999999999999e-01 
163 1 2 7.9784704544765239e-01 -4.2515126290164051e+02 1.0000000000000000e+00 1.7041202444446750e+01 1.0620644779214635e+01 2.3236338077378766e+00 
164 1 2 7.9784704544765239e-01 -4.2222265308684041e+02 1.0000000000000000e+00 1.7041202444445453e+01 1.0620644779248702e+01 2.3236338077475116e+00 
110 1 2 7.9784704544765239e-01 -4.3224432530373082e+02 1.0000000000000000e+00 1.5039999999997757e+01 1.8685000000010426e+01 3.8899999999925088e+00 
140 1 2 7.9784704544765239e-01 -4.3224432530373082e+02 1.0000000000000000e+00 1.5040000000002243e+01 1.8684999999989593e+01 3.8900000000075163e+00 
128 1 2 1.5940699437090633e+00 -7.5726493711528485e+02 1.0000000000000000e+00 1.5449036818427992e+01 1.3100645969519942e+01 4.6406471301772925e+00 
135 1 2 1.5905833214793370e+00 -4.4567978152119287e+02 1.0000000000000000e+00 1.5479576973842764e+01 1.3100689919894483e+01 4.5824805237521726e+00 
134 1 2 1.5929946325720157e+00 -7.6498172316167722e+02 1.0000000000000000e+00 1.5457137746822415e+01 1.3118095366260878e+01 4.6881460371347723e+00 
170 1 2 1.5929615858586073e+00 -6.0453433548730106e+02 1.0000000000000000e+00 1.5434752479232053e+01 1.3106757577782373e+01 4.6850603232871215e+00 
177 1 2 3.9892352272382625e-01 0.0000000000000000e+00 1.0000000000000000e+00 1.6949999999999999e+01 1.7370000000000001e+01 7.4299999999999997e+00 
171 1 2 7.9784704544765239e-01 -4.0737192264884158e+02 1.0000000000000000e+00 1.8659401511017766e+01 1.3954097891660250e+01 9.1748701337553520e+00 
172 1 2 7.9784704544765239e-01 -4.0576590214001527e+02 1.0000000000000000e+00 1.8659401510900242e+01 1.3954097891660446e+01 9.1748701337685130e+00 
136 1 2 3.9892352272382625e-01 6.5379270718167437e-01 1.0000000000000000e+00 1.4993525594462833e+01 1.3345198624975096e+01 1.0311798073523626e+01 
178 1 2 3.9892352272382625e-01 1.6113867547262539e+00 1.0000000000000000e+00 1.7260898269254099e+01 1.6381947443278609e+01 1.0740196678308505e+01 
112 1 2 1.5955104163328508e+00 -6.4945420057724402e+02 1.0000000000000000e+00 1.3427462055865302e+01 1.8924772818042072e+01 1.1027827837346281e+01 
142 1 2 1.5956017813002723e+00 -6.4964791073853019e+02 1.0000000000000000e+00 1.3443864136848504e+01 1.8926412325793770e+01 1.1027214877642708e+01 
106 1 2 1.5956002933108688e+00 -5.9671967093758849e+02 1.0000000000000000e+00 1.3442416028978954e+01 1.8936480161031849e+01 1.1033163259745249e+01 
76 1 2 1.5956079684741509e+00 -6.0696270066233410e+02 1.0000000000000000e+00 1.3442951468716753e+01 1.8935400002618167e+01 1.1032514312799670e+01 
130 1 2 1.1967672210970555e+00 -4.6090142610981371e+02 1.0000000000000000e+00 1.5522042315230843e+01 1.0886562666317396e+01 1.3088804355746577e+01 
131 1 2 1.1967618386915158e+00 -5.9623979495457479e+02 1.0000000000000000e+00 1.5519862181137318e+01 1.0886984844256268e+01 1.3085680088924782e+01 
167 1 2 1.1967636801470642e+00 -5.2211821939029676e+02 1.0000000000000000e+00 1.5523144678036486e+01 1.0886446132203906e+01 1.3090546936685872e+01 
179 1 2 3.9892352272382625e-01 0.0000000000000000e+00 1.0000000000000000e+00 1.8230000000000000e+01 1.6510000000000002e+01 1.3590000000000000e+01 
132 1 2 2.3835353691065144e+00 -6.3207117030748941e+02 1.0000000000000000e+00 1.6120349202141064e+01 1.2475088404352105e+01 1.5919398624554931e+01 
137 1 2 2.3851510186104954e+00 -6.0490160621088182e+02 1.0000000000000000e+00 1.6203184701454617e+01 1.2495395529760705e+01 1.5881990006620232e+01 
174 1 2 2.3731119568209111e+00 -7.2579973709419642e+02 1.0000000000000000e+00 1.6124433103467595e+01 1.2576122137089486e+01 1.5835247916465129e+01 
138 1 2 2.3827209597703445e+00 -7.9746444036032551e+02 1.0000000000000000e+00 1.6188309077678632e+01 1.2566772259568678e+01 1.5908718736235878e+01 
168 1 2 2.3820253831126323e+00 -7.2183307367244345e+02 1.0000000000000000e+00 1.6203996748586121e+01 1.2449692156970992e+01 1.5943129644912316e+01 
173 1 2 2.3793376772725399e+00 -6.8296826017966521e+02 1.0000000000000000e+00 1.6189122717112514e+01 1.2459288657522807e+01 1.5984258719755505e+01 
180 1 2 3.9892352272382625e-01 0.0000000000000000e+00 1.0000000000000000e+00 1.8020000000000000e+01 1.7690000000000001e+01 1.7590000000000000e+01 

Velocities

2 -6.4346258704782555e-02 1.2991982978356562e-01 -4.0121406496401707e-01
1 2.7494568321929001e-02 -5.6164534177846157e-02 1.9558783219339732e-01
7 3.6851690382826499e-02 -7.3755295605734891e-02 2.0562623277047193e-01
14 -2.4011702301303728e-02 -4.9393930170272493e-02 -1.4932367571866753e-01
13 2.2635316815121248e-01 1.3037691257837908e-01 -9.0608968418379506e-03
20 7.0904766381843440e-02 -4.4703592061385744e-02 2.1758365538957811e-01
19 -2.7324623223148475e-01 -3.6279390346721632e-02 -5.9199082829536266e-02
16 -5.2602917965652835e-02 -2.9679481661995999e-01 -2.9263903740482333e-01
10 6.0782419322667390e-02 -5.5179031052097337e-02 2.2028078450212904e-01
9 1.0516285092458147e-02 2.1620274718339744e-01 1.2002637303616957e-01
15 -1.8695786449702448e-02 1.3577110048860866e-01 -4.7668120132907651e-02
17 4.5302814571859920e-60 4.7852584109313475e-60 1.1599743911453778e-60
5 2.0938004055995826e-04 -1.3984876667511349e-03 7.4977142250405311e-04
6 -2.8458321723638755e-04 3.7786754668658541e-03 -1.3487565653431000e-03
11 7.5203176676987281e-05 -2.3801878001498376e-03 5.9898514282479400e-04
18 -4.6113800254654314e-12 2.5640221888513381e-10 -1.1822489599966265e-11
12 4.6113800254654314e-12 -2.5640221888513381e-10 1.1822489599966265e-11
25 1.1105840956562285e-10 -5.3750169108735590e-12 5.1174560695523494e-11
61 -1.1105840956562285e-10 5.3750169108735590e-12 -5.1174560695523494e-11
31 -6.2824600329122862e-02 -9.0652600729790728e-02 1.1622610694634815e-01
26 3.1409433930296070e-02 4.5348048308991751e-02 -5.8082691753815377e-02
32 3.1415166398489291e-02 4.5304552421242296e-02 -5.8143415191774843e-02
21 4.9348293068204308e-12 1.7368371943654911e-10 -1.2846344176850073e-11
27 -4.9348293068204308e-12 -1.7368371943654911e-10 1.2846344176850073e-11
33 8.0636069413001409e-251 1.9954883135115958e-250 9.6719629864556105e-250
22 -1.3782261166853578e-02 4.0992602263815556e-02 2.9045928813632514e-02
29 6.3630639239280881e-03 -1.9004280390702781e-02 -1.3370422223120496e-02
28 7.4191972429499880e-03 -2.1988321873379915e-02 -1.5675506590774844e-02
34 5.0203509274747813e-12 2.6688436103255911e-10 -7.9386733953327379e-11
4 -5.0203509274747813e-12 -2.6688436103255911e-10 7.9386733953327379e-11
35 0.0000000000000000e+00 0.0000000000000000e+00 0.0000000000000000e+00
66 -1.5972125123409764e-01 3.3310455168976134e-02 -3.4387456893093936e-02
30 9.7024185051286557e-02 -1.4191142003244395e-01 -3.8109257630323645e-01
36 -1.3361149405343797e-01 -1.4938459732322174e-01 -2.9983373195443933e-02
72 1.9630856023599566e-01 2.5798556218668195e-01 4.4546340639192944e-01
73 9.0134359449211023e-12 -1.3928984804368586e-12 4.0549877464917010e-11
109 -9.0134359449211023e-12 1.3928984804368586e-12 -4.0549877464917010e-11
49 0.0000000000000000e+00 0.0000000000000000e+00 0.0000000000000000e+00
85 -1.1918496638073405e-11 -1.1312967894386475e-10 1.1122594195344657e-12
91 1.1918496638073405e-11 1.1312967894386475e-10 -1.1122594195344657e-12
37 -1.6566784381541425e-03 1.3779124153975944e-03 -4.6434333985927271e-04
38 7.2874243019731169e-04 -8.8575386182752306e-04 -7.8669590021527593e-04
74 9.2793600795250441e-04 -4.9215855355667329e-04 1.2510392400847002e-03