LAMMPS data file via write_data, version 30 Jul 2016, timestep = 50000000

180 atoms
2 atom types

0.0000000000000000e+00 2.0000000000000000e+01 xlo xhi
0.0000000000000000e+00 2.0000000000000000e+01 ylo yhi
0.0000000000000000e+00 2.0000000000000000e+01 zlo zhi

Masses

1 3.896
2 5

Atoms # meso-molecular

2 1 2 1.1967226143943692e+00 -4.3874716678871971e+02 1.0000000000000000e+00 4.9678339985921118e+00 1.9143090192330083e+00 2.3706385764271265e+00 
1 1 2 1.1967472168990820e+00 -6.5249785805180932e+02 1.0000000000000000e+00 4.9658653978136984e+00 1.9182378566321687e+00 2.3600673383002269e+00 
7 1 2 1.1967454680647382e+00 -6.4008442292006771e+02 1.0000000000000000e+00 4.9663006035311277e+00 1.9174531242048356e+00 2.3592940852901618e+00 
14 1 2 1.5951787676910041e+00 -4.4037683288763230e+02 1.0000000000000000e+00 4.3477155308118505e+00 9.0754952401967071e+00 2.6693037963663184e+00 
13 1 2 1.5947795443295623e+00 -5.2677429805472821e+02 1.0000000000000000e+00 4.3416473633883443e+00 9.0583553011429068e+00 2.6507841446220715e+00 
20 1 2 1.5950108597985879e+00 -5.3905306518007546e+02 1.0000000000000000e+00 4.3583827173139325e+00 9.1032225284805381e+00 2.6513055156022447e+00 
19 1 2 1.5950610973182489e+00 -5.5098028056803309e+02 1.0000000000000000e+00 4.3722543899307098e+00 9.0929269297337711e+00 2.6586065423654683e+00 
16 1 2 1.5950272142268309e+00 -5.8237718347215753e+02 1.0000000000000000e+00 5.0480305747289389e+00 5.4920974246455732e+00 8.7836062977893938e+00 
10 1 2 1.5943764216417047e+00 -4.5171746133398420e+02 1.0000000000000000e+00 5.0573223527063833e+00 5.4472914343895003e+00 8.8069750329123764e+00 
9 1 2 1.5951577902115048e+00 -6.1402541033163652e+02 1.0000000000000000e+00 5.0454420011231020e+00 5.4714544589536329e+00 8.7673419313643794e+00 
15 1 2 1.5951667769824402e+00 -6.3065356609042044e+02 1.0000000000000000e+00 5.0459639552241891e+00 5.4775968931872026e+00 8.7688109969490249e+00 
17 1 2 3.9892352272382625e-01 2.2176624250501066e-05 1.0000000000000000e+00 4.9300986903984683e+00 7.2800793735791922e+00 1.3340022507128865e+01 
5 1 2 1.1967705522758674e+00 -5.3687223047444161e+02 1.0000000000000000e+00 5.0368441775299528e+00 1.8474505860086350e+00 1.5184081208688237e+01 
6 1 2 1.1967705597392913e+00 -5.6600677186173175e+02 1.0000000000000000e+00 5.0368951143757901e+00 1.8476135421938962e+00 1.5184175270309083e+01 
11 1 2 1.1967705573585428e+00 -4.3700338922074491e+02 1.0000000000000000e+00 5.0368695884486572e+00 1.8476825377127641e+00 1.5184101683351608e+01 
18 1 2 7.9784704544765239e-01 -3.7938546627975848e+02 1.0000000000000000e+00 4.5946955598246424e+00 5.4386266670406789e+00 1.6293820918804101e+01 
12 1 2 7.9784704544765239e-01 -3.7802104216266645e+02 1.0000000000000000e+00 4.5946955598243520e+00 5.4386266670039669e+00 1.6293820918802737e+01 
25 1 2 7.9784704544765239e-01 -4.1177577017515762e+02 1.0000000000000000e+00 6.2868768276571521e+00 1.3932755551615076e+01 6.8890228971636180e-01 
61 1 2 7.9784704544765239e-01 -4.1622138839782616e+02 1.0000000000000000e+00 6.2868768276513229e+00 1.3932755551611264e+01 6.8890228970890977e-01 
31 1 2 1.1967275912397062e+00 -4.3539227090126127e+02 1.0000000000000000e+00 5.2189971155590982e+00 1.6084668796186449e+01 3.3736573765521540e+00 
26 1 2 1.1967490781803074e+00 -6.1834816134522146e+02 1.0000000000000000e+00 5.2146721241957827e+00 1.6078429502372305e+01 3.3816600474105081e+00 
32 1 2 1.1967490812249928e+00 -6.2481592804823651e+02 1.0000000000000000e+00 5.2146722763050928e+00 1.6078426838499833e+01 3.3816569745047169e+00 
21 1 2 7.9784704544765239e-01 -4.2989596841554265e+02 1.0000000000000000e+00 5.1599986010446806e+00 1.2240002585552601e+01 7.0750197126298122e+00 
27 1 2 7.9784704544765239e-01 -4.2989659167533296e+02 1.0000000000000000e+00 5.1599986010490060e+00 1.2240002585516452e+01 7.0750197126414873e+00 
33 1 2 3.9892352272382625e-01 1.5463134965241367e+00 1.0000000000000000e+00 4.6608507023501309e+00 1.7475546601396530e+01 7.5338148689913993e+00 
22 1 2 1.1966779209640042e+00 -4.3396085961015388e+02 1.0000000000000000e+00 4.6628481884304627e+00 1.2961529580037649e+01 1.1413986354667777e+01 
29 1 2 1.1967236176360037e+00 -6.0596512863290570e+02 1.0000000000000000e+00 4.6585488153649059e+00 1.2974318057289228e+01 1.1423046799089615e+01 
28 1 2 1.1967248549708538e+00 -6.0535603283858120e+02 1.0000000000000000e+00 4.6586057941556582e+00 1.2974147190705093e+01 1.1422927420406344e+01 
34 1 2 7.9784704544765239e-01 -4.2025320633742433e+02 1.0000000000000000e+00 4.8905228202022890e+00 1.9012606317176115e+01 1.0702001097755094e+01 
4 1 2 7.9784704544765239e-01 -4.1951736624146207e+02 1.0000000000000000e+00 4.8905228202018458e+00 1.9012606317193171e+01 1.0702001097764919e+01 
35 1 2 3.9892352272382625e-01 0.0000000000000000e+00 1.0000000000000000e+00 5.7000000000000002e+00 1.6180000000000000e+01 1.4289999999999999e+01 
72 1 2 1.5927110661412776e+00 -6.3990992541351716e+02 1.0000000000000000e+00 6.3260359080386577e+00 1.5969220350275572e+01 1.7617373341282100e+01 
30 1 2 1.5922273885071141e+00 -4.5182979331980783e+02 1.0000000000000000e+00 6.3623630699631386e+00 1.5999154332541044e+01 1.7695259341455948e+01 
66 1 2 1.5933113146269129e+00 -4.4622611267273663e+02 1.0000000000000000e+00 6.3781495972295907e+00 1.5960316749350930e+01 1.7614214773098649e+01 
36 1 2 1.5937328094641667e+00 -5.9681878826708783e+02 1.0000000000000000e+00 6.3915129222207376e+00 1.5989867108528298e+01 1.7649973989576310e+01 
73 1 2 7.9784704544765239e-01 -2.5503586849889339e+02 1.0000000000000000e+00 1.2954970449864268e+01 1.4151701779553261e+00 6.0500524524431731e-01 
109 1 2 7.9784704544765239e-01 -2.5506987278384011e+02 1.0000000000000000e+00 1.2954970449864502e+01 1.4151701779529324e+00 6.0500524523811272e-01 
49 1 2 3.9892352272382625e-01 0.0000000000000000e+00 1.0000000000000000e+00 8.3599999999999994e+00 8.3100000000000005e+00 1.2700000000000000e+00 
85 1 2 7.9784704544765239e-01 -3.4848379124926441e+02 1.0000000000000000e+00 1.1967130185956627e+01 9.2402075855241410e+00 7.3172409006790173e-01 
91 1 2 7.9784704544765239e-01 -3.2033118788861725e+02 1.0000000000000000e+00 1.1967130185964303e+01 9.2402075855346038e+00 7.3172409006793115e-01 
37 1 2 1.1967676565357268e+00 -4.6607073913815805e+02 1.0000000000000000e+00 9.5958179503518846e+00 1.2737866312312482e+00 3.0655329798493032e+00 
38 1 2 1.1967682215328153e+00 -5.0329657749773241e+02 1.0000000000000000e+00 9.5959518831125621e+00 1.2738024127417582e+00 3.0660212023575375e+00 
74 1 2 1.1967654007794690e+00 -4.4005831531752199e+02 1.0000000000000000e+00 9.5982300955071729e+00 1.2724115580369406e+00 3.0684458178510625e+00 
43 1 2 1.5939017871895900e+00 -5.5972260099532150e+02 1.0000000000000000e+00 7.5404112712792379e+00 5.3427055552882496e+00 3.4900976310959688e+00 
44 1 2 1.5949151125863608e+00 -5.9165333325473387e+02 1.0000000000000000e+00 7.5265209341547390e+00 5.3241370643446198e+00 3.4515851316239257e+00 
50 1 2 1.5948843891386990e+00 -5.7776820921920091e+02 1.0000000000000000e+00 7.5525037007865503e+00 5.3165994521490507e+00 3.4584121581348146e+00 
8 1 2 1.5939521395459737e+00 -4.4060625886341319e+02 1.0000000000000000e+00 7.5289929238169133e+00 5.2886941797500491e+00 3.4332596351791382e+00 
79 1 2 1.9887637380612020e+00 -4.9891592886258314e+02 1.0000000000000000e+00 1.3117519773419977e+01 5.5293082412823793e+00 2.9772280880035922e+00 
115 1 2 1.9888310928296977e+00 -7.8327619101090681e+02 1.0000000000000000e+00 1.3131411167816717e+01 5.5823743758269337e+00 2.9722501214727459e+00 
122 1 2 1.9785315004271549e+00 -7.3971341227568507e+02 1.0000000000000000e+00 1.3093314169706774e+01 5.5135632682875020e+00 2.8579831078382285e+00 
116 1 2 1.9847977986690628e+00 -7.3416673240224179e+02 1.0000000000000000e+00 1.3141578985266753e+01 5.5411137437899027e+00 3.0313142310184853e+00 
86 1 2 1.9851026364076712e+00 -6.1437342860645470e+02 1.0000000000000000e+00 1.3195710186250304e+01 5.5924497037659266e+00 2.9417969561053732e+00 
75 1 2 3.9892352272382625e-01 0.0000000000000000e+00 1.0000000000000000e+00 1.1150000000000000e+01 1.3400000000000001e+00 7.1100000000000003e+00 
80 1 2 1.9921504625554303e+00 -6.4321931943359266e+02 1.0000000000000000e+00 1.0003377038543244e+01 5.4589322461879757e+00 6.8156077154006560e+00 
45 1 2 1.9911479378881010e+00 -6.5826551621818294e+02 1.0000000000000000e+00 1.0048941549482350e+01 5.4355627660329517e+00 6.8079018008406349e+00 
87 1 2 1.9890309976202940e+00 -6.8358180955472028e+02 1.0000000000000000e+00 9.9619290935593430e+00 5.4684159410287307e+00 6.8539682484712880e+00 
81 1 2 1.9908719739826972e+00 -4.5090900101750941e+02 1.0000000000000000e+00 1.0000219875525310e+01 5.4103861130200004e+00 6.8467521792827997e+00 
51 1 2 1.9897814509221157e+00 -6.2664769811433041e+02 1.0000000000000000e+00 1.0070505925812373e+01 5.4651463714516337e+00 6.8250423781441087e+00 
39 1 2 1.1967693438140683e+00 -6.5068768159864715e+02 1.0000000000000000e+00 7.0338452860576695e+00 1.1235769003850558e+00 8.6493293260479991e+00 
40 1 2 1.1967679137993290e+00 -4.3967996324869222e+02 1.0000000000000000e+00 7.0330465699321554e+00 1.1227074421294252e+00 8.6471550687894734e+00 
3 1 2 1.1967688700167547e+00 -6.3622313900980862e+02 1.0000000000000000e+00 7.0346401639653466e+00 1.1239288766557984e+00 8.6493360188966442e+00 
46 1 2 3.9892352272382625e-01 3.9633761752599340e-02 1.0000000000000000e+00 8.2501849062906025e+00 5.1304718517995207e+00 9.5991690358020421e+00 
88 1 2 3.9892352272382625e-01 0.0000000000000000e+00 1.0000000000000000e+00 1.1090000000000000e+01 7.8700000000000001e+00 9.8900000000000006e+00 
52 1 2 1.1939918134978156e+00 -4.7299384829507528e+02 1.0000000000000000e+00 8.3195882732054862e+00 9.5313813324130834e+00 9.2643607357314135e+00 
58 1 2 1.1937432413865627e+00 -4.7444806672884755e+02 1.0000000000000000e+00 8.3177388426283247e+00 9.5290181476271645e+00 9.2690094161515564e+00 
57 1 2 1.1909753401318841e+00 -4.3210994432782144e+02 1.0000000000000000e+00 8.3630608256239363e+00 9.5951067562179393e+00 9.1656935707967691e+00 
82 1 2 7.9784704544765239e-01 -3.5648755251725748e+02 1.0000000000000000e+00 1.2618150729969546e+01 4.9748993747954957e+00 1.0909329385523156e+01 
118 1 2 7.9784704544765239e-01 -3.7406595025915146e+02 1.0000000000000000e+00 1.2618150729969583e+01 4.9748993747978494e+00 1.0909329385528638e+01 
89 1 2 7.9784704544765239e-01 -4.3023258176240000e+02 1.0000000000000000e+00 1.3065318108044456e+01 6.8999997105356883e+00 1.3459481159567131e+01 
125 1 2 7.9784704544765239e-01 -4.2756003122120615e+02 1.0000000000000000e+00 1.3065318108034887e+01 6.8999997106080624e+00 1.3459481159652972e+01 
53 1 2 1.1967243384223110e+00 -5.1015319897191603e+02 1.0000000000000000e+00 6.8443166364754697e+00 9.5528614387341779e+00 1.3866143255307616e+01 
59 1 2 1.1967346860943529e+00 -6.7363364662042716e+02 1.0000000000000000e+00 6.8348760433410458e+00 9.5623557126315948e+00 1.3866838143431178e+01 
23 1 2 1.1967520426252081e+00 -5.4532860498203218e+02 1.0000000000000000e+00 6.8391263933442783e+00 9.5602547878109956e+00 1.3866037067787552e+01 
47 1 2 1.1960275954284134e+00 -4.3003952698552945e+02 1.0000000000000000e+00 1.0166737578182873e+01 3.0379031252184410e+00 1.4179621995298461e+01 
83 1 2 1.1963962838253421e+00 -4.9624702582250222e+02 1.0000000000000000e+00 1.0125800730926427e+01 3.0575573935738043e+00 1.4172459297270381e+01 
77 1 2 1.1964018359349045e+00 -4.9928611815595337e+02 1.0000000000000000e+00 1.0126078776185601e+01 3.0573434130471990e+00 1.4172478572709275e+01 
42 1 2 3.9892352272382625e-01 2.1849620214779424e-02 1.0000000000000000e+00 8.1199125406984187e+00 7.9673949075457287e-02 1.6960061645588720e+01 
78 1 2 3.9892352272382625e-01 8.4790337534766558e-01 1.0000000000000000e+00 1.1781382915750548e+01 9.7719606798671355e-01 1.6625440134547862e+01 
48 1 2 1.5948789833046795e+00 -6.1780841835636852e+02 1.0000000000000000e+00 9.8236054785453515e+00 5.8960520013676652e+00 1.7330303814380876e+01 
90 1 2 1.5952441998209774e+00 -5.7727745932228038e+02 1.0000000000000000e+00 9.8436602675373202e+00 5.9043437780288723e+00 1.7345797365763385e+01 
54 1 2 1.5952991353241928e+00 -6.3563854676439473e+02 1.0000000000000000e+00 9.8382557899260288e+00 5.9026261713778378e+00 1.7358463723720394e+01 
84 1 2 1.5947278080402778e+00 -4.4555538980633605e+02 1.0000000000000000e+00 9.8444784634453413e+00 5.8769780490187484e+00 1.7375435096443152e+01 
55 1 2 3.9892352272382625e-01 0.0000000000000000e+00 1.0000000000000000e+00 9.1300000000000008e+00 1.1340000000000000e+01 5.6999999999999995e-01 
103 1 2 7.9784704544765239e-01 -4.2511171392639704e+02 1.0000000000000000e+00 1.1020510222470346e+01 1.5265869634177751e+01 5.2974808021800723e-01 
97 1 2 7.9784704544765239e-01 -4.2711124208796406e+02 1.0000000000000000e+00 1.1020510222512064e+01 1.5265869634055708e+01 5.2974808021310460e-01 
67 1 2 3.9892352272382625e-01 2.0686553917368511e+00 1.0000000000000000e+00 8.8984431313767836e+00 1.7628044698387068e+01 1.1945437442187164e-01 
56 1 2 3.9892352272382625e-01 0.0000000000000000e+00 1.0000000000000000e+00 7.6799999999999997e+00 1.0660000000000000e+01 4.0099999999999998e+00 
92 1 2 1.1967703598493780e+00 -4.8456885853979458e+02 1.0000000000000000e+00 1.1716848526588471e+01 1.1889995793392266e+01 5.1503492062327192e+00 
93 1 2 1.1967701865466449e+00 -4.6027077656610027e+02 1.0000000000000000e+00 1.1716612737071349e+01 1.1890290196095876e+01 5.1493633909037202e+00 
98 1 2 1.1967703737394009e+00 -4.8053045352103931e+02 1.0000000000000000e+00 1.1716882857431234e+01 1.1889797389341748e+01 5.1502119348201134e+00 
62 1 2 1.5873839798399747e+00 -6.7094980085031784e+02 1.0000000000000000e+00 8.9393671344179957e+00 1.4831450969215267e+01 6.2052425403639209e+00 
99 1 2 1.5933053853543662e+00 -4.2932833160321815e+02 1.0000000000000000e+00 8.9463159123852378e+00 1.4916396771710483e+01 6.2339713121680136e+00 
68 1 2 1.5906716441067310e+00 -6.2099355979873235e+02 1.0000000000000000e+00 8.9669395258911617e+00 1.4968874727305096e+01 6.2645470999269284e+00 
63 1 2 1.5924693564710843e+00 -6.2623872793463499e+02 1.0000000000000000e+00 8.9498459383957325e+00 1.4951539056669750e+01 6.2404378255433022e+00 
69 1 2 3.9892352272382625e-01 0.0000000000000000e+00 1.0000000000000000e+00 7.8899999999999997e+00 1.7510000000000002e+01 7.9400000000000004e+00 
104 1 2 1.1965732798449620e+00 -6.5481397031175572e+02 1.0000000000000000e+00 1.2135058983548390e+01 1.7623807389202689e+01 6.5894496981956081e+00 
105 1 2 1.1962553732634729e+00 -4.5482007677403874e+02 1.0000000000000000e+00 1.2125960813811174e+01 1.7620963661965018e+01 6.6169161824307121e+00 
141 1 2 1.1963577523677091e+00 -6.2957086077024246e+02 1.0000000000000000e+00 1.2138980202451926e+01 1.7625228948844381e+01 6.5736341191760745e+00 
94 1 2 7.9784704544765239e-01 -3.7652410566788183e+02 1.0000000000000000e+00 1.2019662754590051e+01 1.2392176394986050e+01 1.0623208802438734e+01 
100 1 2 7.9784704544765239e-01 -3.8043581506172723e+02 1.0000000000000000e+00 1.2019662754572161e+01 1.2392176394986127e+01 1.0623208802437723e+01 
64 1 2 7.9784704544765239e-01 -4.1323284247257641e+02 1.0000000000000000e+00 7.6057911182334044e+00 1.3107224343626958e+01 1.2375479513194961e+01 
65 1 2 7.9784704544765239e-01 -4.1311610454114435e+02 1.0000000000000000e+00 7.6057911182320028e+00 1.3107224343665472e+01 1.2375479513152472e+01 
70 1 2 1.1967702841408496e+00 -4.9725094392734172e+02 1.0000000000000000e+00 8.2101886462291969e+00 1.8330507461844341e+01 1.2823478297148210e+01 
71 1 2 1.1967704497258287e+00 -6.0774632730980659e+02 1.0000000000000000e+00 8.2099527299847015e+00 1.8330017046982498e+01 1.2823215452233717e+01 
41 1 2 1.1967702927997397e+00 -4.7860668874121001e+02 1.0000000000000000e+00 8.2097506469877786e+00 1.8329503893345841e+01 1.2823258192778408e+01 
96 1 2 7.9783323842370213e-01 -4.3210148392769088e+02 1.0000000000000000e+00 1.1300445889077778e+01 1.0925282396163999e+01 1.5905600561340899e+01 
95 1 2 7.9783323842370213e-01 -4.3210148392769088e+02 1.0000000000000000e+00 1.1299554110922223e+01 1.0924717603836003e+01 1.5914399438658878e+01 
107 1 2 2.3247106764757244e+00 -6.0934337348118311e+02 1.0000000000000000e+00 1.2112976544072385e+01 1.5814887905866806e+01 1.5380317886736936e+01 
143 1 2 2.3703078758469673e+00 -5.8669135563672512e+02 1.0000000000000000e+00 1.2270170928076515e+01 1.5833808269438236e+01 1.5195680741394241e+01 
144 1 2 2.3714384592557947e+00 -6.0827040611441191e+02 1.0000000000000000e+00 1.2324788868311906e+01 1.5889162530919643e+01 1.5252096012350684e+01 
101 1 2 2.3682965295998879e+00 -7.7443891389465500e+02 1.0000000000000000e+00 1.2374037176808958e+01 1.5778517218900333e+01 1.5311904468605656e+01 
108 1 2 2.3584988482579767e+00 -6.1704901671798723e+02 1.0000000000000000e+00 1.2418199023179586e+01 1.5749940906459319e+01 1.5247588347365577e+01 
102 1 2 2.3721769683251130e+00 -8.2403497435613622e+02 1.0000000000000000e+00 1.2333668139571156e+01 1.5850308906508483e+01 1.5211565823608641e+01 
24 1 2 7.9784703725461659e-01 -4.3211542091174516e+02 1.0000000000000000e+00 6.8200960910383346e+00 1.0235033098023996e+01 1.7459971528584312e+01 
60 1 2 7.9784703725461659e-01 -4.3211542091174516e+02 1.0000000000000000e+00 6.8199039089621030e+00 1.0234966901976003e+01 1.7460028471415686e+01 
151 1 2 3.9892352272382625e-01 0.0000000000000000e+00 1.0000000000000000e+00 1.8449999999999999e+01 3.6000000000000001e+00 6.8999999999999995e-01 
157 1 2 7.9784704544765239e-01 -3.6526052509012356e+02 1.0000000000000000e+00 1.7381358019699359e+01 7.2097571731326653e+00 2.5441211195101596e+00 
158 1 2 7.9784704544765239e-01 -3.8112466182892223e+02 1.0000000000000000e+00 1.7381358019703303e+01 7.2097571731287067e+00 2.5441211195107414e+00 
146 1 2 7.9784704544765239e-01 -3.8883705104764624e+02 1.0000000000000000e+00 1.7576658822161971e+01 1.5735682118772731e+00 5.9967880395985018e+00 
147 1 2 7.9784704544765239e-01 -3.8794896546669776e+02 1.0000000000000000e+00 1.7576658822167378e+01 1.5735682118887455e+00 5.9967880395907756e+00 
152 1 2 3.9892352272382625e-01 4.7312641075263179e-01 1.0000000000000000e+00 1.8159452946283530e+01 4.5597489154676518e+00 4.3963272747102566e+00 
117 1 2 7.9784704544765239e-01 -4.3293890556664536e+02 1.0000000000000000e+00 1.4520000000106606e+01 5.7699999998493787e+00 7.2499999999844231e+00 
123 1 2 7.9784704544765239e-01 -4.3293890556664536e+02 1.0000000000000000e+00 1.4519999999893395e+01 5.7700000001506222e+00 7.2500000000155769e+00 
159 1 2 3.9892352272382625e-01 3.6805565333079016e-01 1.0000000000000000e+00 1.8020705358590270e+01 6.7319323775117859e+00 7.2826387206981957e+00 
111 1 2 3.9892352272382625e-01 0.0000000000000000e+00 1.0000000000000000e+00 1.3980000000000000e+01 1.1899999999999999e+00 8.1099999999999994e+00 
148 1 2 3.9892352272382625e-01 2.0810680555748734e-03 1.0000000000000000e+00 1.8459988612858020e+01 1.0200056643346818e+00 9.6099773552199181e+00 
153 1 2 7.9784704544765239e-01 -4.0704483611678216e+02 1.0000000000000000e+00 1.8167994192095772e+01 4.0304627671945594e+00 9.2469039224301657e+00 
154 1 2 7.9784704544765239e-01 -4.0829889628300731e+02 1.0000000000000000e+00 1.8167994192126617e+01 4.0304627671929971e+00 9.2469039224623906e+00 
129 1 2 1.9845634433698014e+00 -4.8963975202306489e+02 1.0000000000000000e+00 1.6700683361717058e+01 9.4424896985948550e+00 9.3226553859986065e+00 
124 1 2 1.9914160622178965e+00 -4.9910883231083272e+02 1.0000000000000000e+00 1.6594639497286003e+01 9.4812938038149674e+00 9.2783166030169220e+00 
165 1 2 1.9904522721999764e+00 -6.4712689224847804e+02 1.0000000000000000e+00 1.6597724293048827e+01 9.4972275677713167e+00 9.2641725665166668e+00 
160 1 2 1.9913978794461644e+00 -6.5509206099703772e+02 1.0000000000000000e+00 1.6610156111314282e+01 9.4350587557302621e+00 9.2904708997152277e+00 
166 1 2 1.9912331091787547e+00 -6.4361465122838592e+02 1.0000000000000000e+00 1.6586799091705579e+01 9.4640225541050480e+00 9.2743428685587670e+00 
161 1 2 3.9892352272382625e-01 2.3005174421581454e-01 1.0000000000000000e+00 1.8428853088967330e+01 7.0298279470417686e+00 1.3633581852484701e+01 
113 1 2 1.9926606627893038e+00 -7.6750446201374041e+02 1.0000000000000000e+00 1.6347998315680695e+01 1.3801570741125464e+00 1.5502148736066095e+01 
114 1 2 1.9929386336823709e+00 -8.3078746921586503e+02 1.0000000000000000e+00 1.6352793151166868e+01 1.4012129580000714e+00 1.5509135206834774e+01 
150 1 2 1.9916334644974794e+00 -6.9887561507629573e+02 1.0000000000000000e+00 1.6395508455756339e+01 1.3636057752978175e+00 1.5474867305796581e+01 
149 1 2 1.9930532472124911e+00 -4.5802995483341346e+02 1.0000000000000000e+00 1.6387001546308984e+01 1.4119904825146508e+00 1.5500961420483536e+01 
119 1 2 1.9918170594497673e+00 -5.5808547511960558e+02 1.0000000000000000e+00 1.6399115307464825e+01 1.4038836700166515e+00 1.5541414179441244e+01 
155 1 2 7.9784704544765239e-01 -4.0631915204778392e+02 1.0000000000000000e+00 1.7960444681664772e+01 4.6267570805497940e+00 1.5782792236165941e+01 
156 1 2 7.9784704544765239e-01 -4.4023885912271260e+02 1.0000000000000000e+00 1.7960444681667450e+01 4.6267570805931149e+00 1.5782792236305037e+01 
120 1 2 3.9892352272382625e-01 0.0000000000000000e+00 1.0000000000000000e+00 1.4220000000000001e+01 4.2599999999999998e+00 1.6829999999999998e+01 
145 1 2 3.9892352272382625e-01 4.6509592873398349e+00 1.0000000000000000e+00 1.7685368659485839e+01 6.5038719102784659e-01 1.9766879391889553e+01 
162 1 2 1.1958762519518427e+00 -6.1697498245632676e+02 1.0000000000000000e+00 1.6256700345433352e+01 7.2171184275334666e+00 1.8166111489067685e+01 
126 1 2 1.1963973643559274e+00 -6.4108985094045931e+02 1.0000000000000000e+00 1.6269247246061148e+01 7.2061313227691812e+00 1.8141806790296314e+01 
121 1 2 1.1958111070822464e+00 -4.3110178788127519e+02 1.0000000000000000e+00 1.6284355535957257e+01 7.1929077298801074e+00 1.8112939640282363e+01 
127 1 2 7.9784704544765239e-01 -3.6306015120889117e+02 1.0000000000000000e+00 1.4386379993342945e+01 1.2244642414321783e+01 4.7912781345406696e-01 
133 1 2 7.9784704544765239e-01 -3.9159403284311918e+02 1.0000000000000000e+00 1.4386379993343262e+01 1.2244642414303415e+01 4.7912781345285860e-01 
175 1 2 1.1895268216811210e+00 -6.5428631817191592e+02 1.0000000000000000e+00 1.7827321649703133e+01 1.5808803620188614e+01 1.9618269073702781e+00 
169 1 2 1.1901806193615336e+00 -6.5513132876072541e+02 1.0000000000000000e+00 1.7808383934303688e+01 1.5733980571461343e+01 1.9356938838982041e+00 
176 1 2 1.1852923731968177e+00 -4.4198098574716710e+02 1.0000000000000000e+00 1.7844018675282829e+01 1.5799861655907756e+01 1.7772909192603927e+00 
139 1 2 3.9892352272382625e-01 0.0000000000000000e+00 1.0000000000000000e+00 1.4279999999999999e+01 1.7980000000000000e+01 9.8999999999999999e-01 
163 1 2 7.9784704544765239e-01 -4.2515126290164051e+02 1.0000000000000000e+00 1.7041202444446725e+01 1.0620644779188551e+01 2.3236338077282177e+00 
164 1 2 7.9784704544765239e-01 -4.2222265308684041e+02 1.0000000000000000e+00 1.7041202444445478e+01 1.0620644779274786e+01 2.3236338077571705e+00 
110 1 2 7.9784704544765239e-01 -4.3224432530373082e+02 1.0000000000000000e+00 1.5039999999997915e+01 1.8684999999982612e+01 3.8899999999874328e+00 
140 1 2 7.9784704544765239e-01 -4.3224432530373082e+02 1.0000000000000000e+00 1.5040000000002085e+01 1.8685000000017407e+01 3.8900000000125923e+00 
128 1 2 1.5943124854335604e+00 -7.5726574917331425e+02 1.0000000000000000e+00 1.5471591097493317e+01 1.3105784811613757e+01 4.6162389533646033e+00 
135 1 2 1.5951082283616860e+00 -4.4657875742786450e+02 1.0000000000000000e+00 1.5451978388412762e+01 1.3109313737663260e+01 4.6636541406565062e+00 
134 1 2 1.5948323161623930e+00 -7.6534893340471831e+02 1.0000000000000000e+00 1.5433656199853516e+01 1.3098622510912008e+01 4.6589187009950459e+00 
170 1 2 1.5951495229922632e+00 -6.0498095430338753e+02 1.0000000000000000e+00 1.5463278332571926e+01 1.3112467773277796e+01 4.6575222193251911e+00 
177 1 2 3.9892352272382625e-01 0.0000000000000000e+00 1.0000000000000000e+00 1.6949999999999999e+01 1.7370000000000001e+01 7.4299999999999997e+00 
171 1 2 7.9784704544765239e-01 -4.0737192264884158e+02 1.0000000000000000e+00 1.8659401511001612e+01 1.3954097891660656e+01 9.1748701337436867e+00 
172 1 2 7.9784704544765239e-01 -4.0576590214001527e+02 1.0000000000000000e+00 1.8659401510916396e+01 1.3954097891660041e+01 9.1748701337801783e+00 
136 1 2 3.9892352272382625e-01 6.5379270718167437e-01 1.0000000000000000e+00 1.4993525594462833e+01 1.3345198624975096e+01 1.0311798073523626e+01 
178 1 2 3.9892352272382625e-01 1.6113867547262539e+00 1.0000000000000000e+00 1.7260898269254099e+01 1.6381947443278609e+01 1.0740196678308505e+01 
112 1 2 1.5953906078834141e+00 -6.4942949247243212e+02 1.0000000000000000e+00 1.3427199652757077e+01 1.8923249780245779e+01 1.1026971325968747e+01 
142 1 2 1.5951173638430112e+00 -6.4955019129979701e+02 1.0000000000000000e+00 1.3462521210708994e+01 1.8937637095817806e+01 1.1031929660139857e+01 
106 1 2 1.5955088989225903e+00 -5.9670218423336473e+02 1.0000000000000000e+00 1.3432758231058793e+01 1.8931600985616623e+01 1.1031253628661236e+01 
76 1 2 1.5955218145048835e+00 -6.0694601614102203e+02 1.0000000000000000e+00 1.3434214595893923e+01 1.8930577445807536e+01 1.1030565672762203e+01 
130 1 2 1.1967506369876182e+00 -4.6089542893082256e+02 1.0000000000000000e+00 1.5520824961740788e+01 1.0886945609117543e+01 1.3087307079067577e+01 
131 1 2 1.1967185463227032e+00 -5.9622417527347557e+02 1.0000000000000000e+00 1.5526120952165751e+01 1.0885872338812835e+01 1.3094816413456035e+01 
167 1 2 1.1967289669679393e+00 -5.2210569868078255e+02 1.0000000000000000e+00 1.5518103260498510e+01 1.0887175694847716e+01 1.3082907888830935e+01 
179 1 2 3.9892352272382625e-01 0.0000000000000000e+00 1.0000000000000000e+00 1.8230000000000000e+01 1.6510000000000002e+01 1.3590000000000000e+01 
173 1 2 2.3855935095401777e+00 -6.8356290053875682e+02 1.0000000000000000e+00 1.6198552464848717e+01 1.2530991194099959e+01 1.5877164293566207e+01 
132 1 2 2.3826367629936795e+00 -6.3200910577577656e+02 1.0000000000000000e+00 1.6144229688465419e+01 1.2452668489465754e+01 1.5865841658655709e+01 
137 1 2 2.3857433195803046e+00 -6.0490886612998588e+02 1.0000000000000000e+00 1.6203421361879734e+01 1.2503798342455294e+01 1.5872794917424015e+01 
174 1 2 2.3767684657109811e+00 -7.2600175424803501e+02 1.0000000000000000e+00 1.6130317761929337e+01 1.2594003844102804e+01 1.5946524468976106e+01 
138 1 2 2.3860624118704692e+00 -7.9771891263898499e+02 1.0000000000000000e+00 1.6186915045590652e+01 1.2465926869456048e+01 1.5936593484557511e+01 
168 1 2 2.3834933517310559e+00 -7.2204109442289359e+02 1.0000000000000000e+00 1.6165959227670641e+01 1.2474970405693195e+01 1.5973824825405174e+01 
180 1 2 3.9892352272382625e-01 0.0000000000000000e+00 1.0000000000000000e+00 1.8020000000000000e+01 1.7690000000000001e+01 1.7590000000000000e+01 

Velocities

2 -4.5663277619017152e-02 9.2173068213687981e-02 -2.8381419079115167e-01
1 2.4497996866213057e-02 -4.9302622708661509e-02 1.4679085730091790e-01
7 2.1165280752779212e-02 -4.2870445505038053e-02 1.3702333349006202e-01
14 -2.1904223408430418e-01 -2.5663523876882710e-01 3.9234381081515296e-01
13 4.0096326249349661e-02 1.7232676538309541e-01 -1.5118780130354512e-01
20 -1.9711297673422401e-01 4.4727214957064138e-02 -2.7268432917986857e-01
19 3.7605888456944231e-01 3.9581258428658048e-02 3.1528319667833718e-02
16 -4.7497733568364536e-02 -4.4813960997442454e-01 -2.9056385854055250e-01
10 -2.1983170164573743e-02 5.8649565527175797e-02 -7.0536255568663511e-02
9 8.8702262766311463e-02 5.8896204821010179e-01 5.1796782578125078e-01
15 -1.9221359033603350e-02 -1.9947200376289342e-01 -1.5686771167144659e-01
17 4.6141369275355141e-60 4.8738335024757952e-60 1.1814455070312460e-60
5 -4.0903752171716991e-04 3.1189000284671246e-02 -6.4607295705943011e-03
6 -1.3691538532553077e-03 3.8466129567959015e-02 -1.0050567266685729e-02
11 1.7781913749729508e-03 -6.9655129852668488e-02 1.6511296837265411e-02
18 5.3865983236619850e-13 1.9971869621984748e-11 -1.0626061971320095e-11
12 -5.3865983236619850e-13 -1.9971869621984748e-11 1.0626061971320095e-11
25 1.2732537509958075e-10 3.1333304538591996e-11 3.2554130839837177e-12
61 -1.2732537509958075e-10 -3.1333304538591996e-11 -3.2554130839837177e-12
31 -7.6674715194806037e-02 -1.1063758455222797e-01 1.4184895572314335e-01
26 3.8342813919671606e-02 5.5349051792480557e-02 -7.0912899041452940e-02
32 3.8331901274796701e-02 5.5288532760205122e-02 -7.0936056680920678e-02
21 -5.4206507662579140e-11 -1.1823659077152705e-10 1.1954570054709678e-10
27 5.4206507662579140e-11 1.1823659077152705e-10 -1.1954570054709678e-10
33 8.2128642356134908e-251 2.0324247848296259e-250 9.8509909371683480e-250
22 4.9476067032965504e-02 -1.4716288728776827e-01 -1.0426704502779068e-01
29 -2.4442898592906923e-02 7.2364390739312612e-02 5.1682632441405592e-02
28 -2.5033168440031877e-02 7.4798496548193191e-02 5.2584412586120254e-02
34 -5.1641360210513568e-12 6.9915819142119317e-10 -1.4699025471453837e-10
4 5.1641360210513568e-12 -6.9915819142119317e-10 1.4699025471453837e-10
35 0.0000000000000000e+00 0.0000000000000000e+00 0.0000000000000000e+00
72 4.5655693565175226e-01 2.4329274111347863e-02 1.1884203696100883e-01
30 4.3739593894655421e-01 1.0378424126405039e-01 -3.2178087690023183e-01
66 5.2856917216674147e-02 1.7270132830138826e-01 -1.0738432907272637e-01
36 -9.4680979181523839e-01 -3.0081484367679912e-01 3.1032316901219720e-01
73 1.0214365369695552e-11 6.2173950400747197e-12 -1.1898723900828236e-12
109 -1.0214365369695552e-11 -6.2173950400747197e-12 1.1898723900828236e-12
49 0.0000000000000000e+00 0.0000000000000000e+00 0.0000000000000000e+00
85 3.7671738263742783e-11 1.3690980881628991e-10 1.0986612593596522e-12
91 -3.7671738263742783e-11 -1.3690980881628991e-10 -1.0986612593596522e-12
37 9.3618232428755860e-03 -4.9172197200598421e-03 1.2792032516153585e-02
38 1.0042194932679742e-02 -6.5750579789604175e-03 9.1131524205212439e-03
74 -1.9404018175559454e-02 1.1492277699032551e-02 -2.1905184936666940e-02