LAMMPS data file via write_data, version 30 Jul 2016, timestep = 50000000

180 atoms
2 atom types

0.0000000000000000e+00 2.0000000000000000e+01 xlo xhi
0.0000000000000000e+00 2.0000000000000000e+01 ylo yhi
0.0000000000000000e+00 2.0000000000000000e+01 zlo zhi

Masses

1 3.896
2 4.31

Atoms # meso-molecular

148 1 2 1.0280004539647163e+00 -2.5306739617604094e+02 1.0000000000000000e+00 5.5277399242972525e+00 3.7986394039700184e+00 3.5064223669278016e+00 
153 1 2 1.0280004539647163e+00 -1.9215915418180757e+02 1.0000000000000000e+00 5.5277399242972525e+00 3.7986394039700184e+00 3.5064223669278016e+00 
154 1 2 1.0280004539647163e+00 -2.0365108301145108e+02 1.0000000000000000e+00 5.5277399242972525e+00 3.7986394039700184e+00 3.5064223669278016e+00 
111 1 2 1.0280004539647163e+00 -2.4047554909487698e+02 1.0000000000000000e+00 5.5277399242950205e+00 3.7986394039717095e+00 3.5064223669238475e+00 
117 1 2 1.0280004539647163e+00 -3.0754421505155739e+02 1.0000000000000000e+00 5.5277399242972525e+00 3.7986394039700184e+00 3.5064223669278016e+00 
159 1 2 1.0280004539647163e+00 -1.7754708713070531e+02 1.0000000000000000e+00 5.5277399242972525e+00 3.7986394039700184e+00 3.5064223669278016e+00 
160 1 2 1.0280004539647163e+00 -2.2001389233266198e+02 1.0000000000000000e+00 5.5277399242950205e+00 3.7986394039717095e+00 3.5064223669238475e+00 
112 1 2 1.0280004539647163e+00 -2.9601857372429026e+02 1.0000000000000000e+00 5.5277399242966814e+00 3.7986394039707414e+00 3.5064223669265688e+00 
118 1 2 1.0280004539647163e+00 -2.9180404098140934e+02 1.0000000000000000e+00 5.5277399242937353e+00 3.7986394039731572e+00 3.5064223669212122e+00 
147 1 2 1.0280004539647163e+00 -3.1982504724745331e+02 1.0000000000000000e+00 5.5277399242972525e+00 3.7986394039700184e+00 3.5064223669278016e+00 
51 1 2 1.0279999997928593e+00 -1.7302241979526906e+02 1.0000000000000000e+00 4.4739342739533523e+00 6.2074805139596179e-01 1.3061001772952729e+01 
100 1 2 1.0279999997928593e+00 -1.4863297420830907e+02 1.0000000000000000e+00 4.4739342739533523e+00 6.2074805139596179e-01 1.3061001772952729e+01 
52 1 2 1.0279999997928593e+00 -1.5862814642315288e+02 1.0000000000000000e+00 4.4739342739533523e+00 6.2074805139596179e-01 1.3061001772952729e+01 
93 1 2 1.0279999997928593e+00 -1.5757752987482377e+02 1.0000000000000000e+00 4.4739342739533523e+00 6.2074805139596179e-01 1.3061001772952729e+01 
58 1 2 1.0279999997928593e+00 -2.0150843659289578e+02 1.0000000000000000e+00 4.4739342739533559e+00 6.2074805139594758e-01 1.3061001772952721e+01 
124 1 2 1.0279999997928593e+00 -8.0194720252118202e+01 1.0000000000000000e+00 4.4739342739533523e+00 6.2074805139596179e-01 1.3061001772952729e+01 
88 1 2 1.0279999997928593e+00 -2.0320982253507711e+02 1.0000000000000000e+00 4.4739342739533523e+00 6.2074805139596179e-01 1.3061001772952729e+01 
87 1 2 1.0279999997928593e+00 -1.7819325583222360e+02 1.0000000000000000e+00 4.4739342739533559e+00 6.2074805139594758e-01 1.3061001772952721e+01 
92 1 2 1.0279999997928593e+00 -2.8107045995006291e+02 1.0000000000000000e+00 4.4739342739533523e+00 6.2074805139596179e-01 1.3061001772952729e+01 
57 1 2 1.0279999997928593e+00 -1.8889041475734689e+02 1.0000000000000000e+00 4.4739342739533523e+00 6.2074805139596179e-01 1.3061001772952729e+01 
102 1 2 1.0279999997928573e+00 -3.6102001396471240e+02 1.0000000000000000e+00 5.5770226821401296e+00 2.4769497407422203e+00 1.0001734866606508e+01 
65 1 2 1.0279999997928573e+00 -3.3428014065703496e+02 1.0000000000000000e+00 5.5770228335418723e+00 2.4769497488077312e+00 1.0001734926091482e+01 
125 1 2 1.0279999997928571e+00 -2.1706005379416229e+02 1.0000000000000000e+00 5.5770228335415997e+00 2.4769497488076553e+00 1.0001734926091336e+01 
119 1 2 1.0279999997928571e+00 -2.0713835107298326e+02 1.0000000000000000e+00 5.5770228384509464e+00 2.4769497425013092e+00 1.0001734924035155e+01 
53 1 2 1.0279999997928571e+00 -3.0319293662641292e+02 1.0000000000000000e+00 5.5770228335416006e+00 2.4769497488076313e+00 1.0001734926091322e+01 
83 1 2 1.0279999997928573e+00 -2.1394330057792024e+02 1.0000000000000000e+00 5.5770228335415784e+00 2.4769497488076411e+00 1.0001734926091320e+01 
23 1 2 1.0279999997928573e+00 -3.6553296745658872e+02 1.0000000000000000e+00 5.5770228660321006e+00 2.4769497642948708e+00 1.0001734947203373e+01 
84 1 2 1.0279999997928571e+00 -2.1451087813031936e+02 1.0000000000000000e+00 5.5770228384509686e+00 2.4769497425011759e+00 1.0001734924035082e+01 
89 1 2 1.0279999997928573e+00 -3.1050125552296316e+02 1.0000000000000000e+00 5.5770228660319621e+00 2.4769497642950697e+00 1.0001734947203444e+01 
115 1 2 1.0279999997928573e+00 -2.0432788920515918e+02 1.0000000000000000e+00 5.5770226821400177e+00 2.4769497407420915e+00 1.0001734866606386e+01 
25 1 2 1.0280010491064935e+00 -2.9878850967891026e+02 1.0000000000000000e+00 2.9613948014766374e+00 1.9079942560149263e+01 1.8995188668176874e+00 
32 1 2 1.0280010491064930e+00 -4.1843813037979106e+02 1.0000000000000000e+00 2.9613948014764588e+00 1.9079942560146328e+01 1.8995188668182896e+00 
33 1 2 1.0280010491064937e+00 -3.6177073628776265e+02 1.0000000000000000e+00 2.9613948014768194e+00 1.9079942560145081e+01 1.8995188668170997e+00 
26 1 2 1.0280010491064935e+00 -3.6629382810810694e+02 1.0000000000000000e+00 2.9613948014771587e+00 1.9079942560146378e+01 1.8995188668159577e+00 
68 1 2 1.0280010491064935e+00 -3.5929531503640879e+02 1.0000000000000000e+00 2.9613948014767613e+00 1.9079942560148094e+01 1.8995188668172795e+00 
8 1 2 1.0280006720635915e+00 -2.7554245735606077e+02 1.0000000000000000e+00 4.9866104528123731e+00 1.8897775829064816e+01 1.3910863915468872e+00 
21 1 2 1.0280006918577480e+00 -2.6179091346617497e+02 1.0000000000000000e+00 4.9914462393406058e+00 1.8898846620856730e+01 1.3957291600180723e+00 
16 1 2 1.0280006919452453e+00 -3.2917921456240435e+02 1.0000000000000000e+00 4.9914676055527485e+00 1.8898851344551161e+01 1.3957498559164720e+00 
2 1 2 1.0280006920370508e+00 -2.9551745804834383e+02 1.0000000000000000e+00 4.9914900190447824e+00 1.8898856300261048e+01 1.3957715677725158e+00 
14 1 2 1.0280006932908987e+00 -3.6454279071257668e+02 1.0000000000000000e+00 4.9917961625178329e+00 1.8898924014019158e+01 1.3960682945736751e+00 
9 1 2 1.0280006935544390e+00 -2.9409672585317031e+02 1.0000000000000000e+00 4.9918605004703585e+00 1.8898938278317637e+01 1.3961306823787933e+00 
39 1 2 1.0279991399609913e+00 -2.9276161476210484e+02 1.0000000000000000e+00 3.9556786077274664e+00 1.9252637540349980e+01 3.1854939249353103e+00 
80 1 2 1.0279991399610149e+00 -2.8678849771958249e+02 1.0000000000000000e+00 3.9556785568124377e+00 1.9252637552695163e+01 3.1854939243420688e+00 
129 1 2 1.0279991399610093e+00 -1.7808742632300667e+02 1.0000000000000000e+00 3.9556785839304394e+00 1.9252637550475260e+01 3.1854939239211628e+00 
107 1 2 1.0279991399611494e+00 -2.5077010769561574e+02 1.0000000000000000e+00 3.9556782054131436e+00 1.9252637638368448e+01 3.1854939201680583e+00 
116 1 2 1.0279991399606547e+00 -2.4728904070080361e+02 1.0000000000000000e+00 3.9556794773226716e+00 1.9252637333595377e+01 3.1854939343744348e+00 
66 1 2 1.0280000000150229e+00 -3.0907254464771421e+02 1.0000000000000000e+00 6.0535955504776719e+00 1.1954967375822378e+01 3.5364897564254054e+00 
152 1 2 1.0280000000150229e+00 -3.1105477618473196e+02 1.0000000000000000e+00 6.0535955504776719e+00 1.1954967375822378e+01 3.5364897564254054e+00 
131 1 2 1.0280000000150229e+00 -3.0199532077844282e+02 1.0000000000000000e+00 6.0535955504776719e+00 1.1954967375822378e+01 3.5364897564254054e+00 
101 1 2 1.0280000000150229e+00 -3.3409557194221259e+02 1.0000000000000000e+00 6.0535955504776719e+00 1.1954967375822378e+01 3.5364897564254054e+00 
158 1 2 1.0280000000150229e+00 -3.2861492096958801e+02 1.0000000000000000e+00 6.0535955504776719e+00 1.1954967375822378e+01 3.5364897564254054e+00 
144 1 2 1.0280000000150229e+00 -3.4990556003343664e+02 1.0000000000000000e+00 6.0535955504776719e+00 1.1954967375822378e+01 3.5364897564254054e+00 
157 1 2 1.0280000000150229e+00 -3.7281119956082239e+02 1.0000000000000000e+00 6.0535955504776719e+00 1.1954967375822378e+01 3.5364897564254054e+00 
145 1 2 1.0280000000150229e+00 -2.7450764521328460e+02 1.0000000000000000e+00 6.0535955504776719e+00 1.1954967375822378e+01 3.5364897564254054e+00 
151 1 2 1.0280000000150229e+00 -2.9656593406132316e+02 1.0000000000000000e+00 6.0535955504776719e+00 1.1954967375822378e+01 3.5364897564254054e+00 
138 1 2 1.0280000000150229e+00 -2.7766374096380105e+02 1.0000000000000000e+00 6.0535955504776719e+00 1.1954967375822378e+01 3.5364897564254054e+00 
30 1 2 1.0280000000150229e+00 -3.4502059122219993e+02 1.0000000000000000e+00 5.1565532842408563e+00 1.1103345004588975e+01 7.0708153248375565e+00 
76 1 2 1.0280000000150229e+00 -3.0142405468299114e+02 1.0000000000000000e+00 5.1565532841577921e+00 1.1103345004522943e+01 7.0708153248005612e+00 
7 1 2 1.0280000000150229e+00 -2.9852543072024787e+02 1.0000000000000000e+00 5.1565532842302115e+00 1.1103345004602295e+01 7.0708153248380636e+00 
43 1 2 1.0280000000150229e+00 -2.5709406444889476e+02 1.0000000000000000e+00 5.1565532841586537e+00 1.1103345004521895e+01 7.0708153248005283e+00 
175 1 2 1.0280000000150229e+00 -3.1279423848050845e+02 1.0000000000000000e+00 5.1565532842302044e+00 1.1103345004602295e+01 7.0708153248380619e+00 
12 1 2 1.0280000000150229e+00 -2.8890862289841829e+02 1.0000000000000000e+00 5.1565532842408555e+00 1.1103345004588975e+01 7.0708153248375565e+00 
1 1 2 1.0280000000150229e+00 -3.1395615942874122e+02 1.0000000000000000e+00 5.1565532842408635e+00 1.1103345004588975e+01 7.0708153248375583e+00 
37 1 2 1.0280000000150229e+00 -2.4457680065363670e+02 1.0000000000000000e+00 5.1565532841577912e+00 1.1103345004522945e+01 7.0708153248005621e+00 
109 1 2 1.0280000000150229e+00 -2.4974981133376917e+02 1.0000000000000000e+00 5.1565532841586590e+00 1.1103345004521900e+01 7.0708153248005301e+00 
139 1 2 1.0280000000150229e+00 -2.4498925987747248e+02 1.0000000000000000e+00 5.1565532841588855e+00 1.1103345004521662e+01 7.0708153248005301e+00 
17 1 2 1.0280510802385114e+00 -3.4818667637431639e+02 1.0000000000000000e+00 4.5771399135882895e-01 1.7256519937155332e+01 1.9026075248241593e+01 
35 1 2 1.0280510802385108e+00 -3.5781355737790409e+02 1.0000000000000000e+00 4.5771399136441066e-01 1.7256519937153406e+01 1.9026075248240922e+01 
29 1 2 1.0280510802385101e+00 -4.1234238278986180e+02 1.0000000000000000e+00 4.5771399135997209e-01 1.7256519937151403e+01 1.9026075248243604e+01 
110 1 2 1.0280510802385108e+00 -2.8514185379909912e+02 1.0000000000000000e+00 4.5771399136441066e-01 1.7256519937153406e+01 1.9026075248240922e+01 
34 1 2 1.0280510802385108e+00 -4.1885146254194910e+02 1.0000000000000000e+00 4.5771399136441066e-01 1.7256519937153406e+01 1.9026075248240922e+01 
28 1 2 1.0280510802385108e+00 -3.3652753687968993e+02 1.0000000000000000e+00 4.5771399136441066e-01 1.7256519937153406e+01 1.9026075248240922e+01 
108 1 2 1.0280510802385114e+00 -3.1220276785867793e+02 1.0000000000000000e+00 4.5771399135882895e-01 1.7256519937155332e+01 1.9026075248241593e+01 
71 1 2 1.0280510802385114e+00 -3.3125371004392389e+02 1.0000000000000000e+00 4.5771399135882895e-01 1.7256519937155332e+01 1.9026075248241593e+01 
22 1 2 1.0280510802385114e+00 -3.2110432119923894e+02 1.0000000000000000e+00 4.5771399135882895e-01 1.7256519937155332e+01 1.9026075248241593e+01 
3 1 2 1.0280510802385101e+00 -2.8267168352635650e+02 1.0000000000000000e+00 4.5771399135997209e-01 1.7256519937151403e+01 1.9026075248243604e+01 
95 1 2 1.0280003344857338e+00 -3.6559186780379468e+02 1.0000000000000000e+00 7.9818672251648151e+00 4.0007377448518056e-01 2.4710112971129033e-01 
15 1 2 1.0279993485874626e+00 -3.6464048676441780e+02 1.0000000000000000e+00 8.0260446276351107e+00 2.2031110099790689e+00 1.4113117368712993e+00 
59 1 2 1.0279993512411560e+00 -2.9572131652582533e+02 1.0000000000000000e+00 8.0282218384362061e+00 2.2049230309047596e+00 1.4136383823998417e+00 
60 1 2 1.0279993512411547e+00 -2.8889691596760497e+02 1.0000000000000000e+00 8.0282218384361830e+00 2.2049230309047441e+00 1.4136383823997827e+00 
18 1 2 1.0279993512411549e+00 -4.0493340991157515e+02 1.0000000000000000e+00 8.0282218384363446e+00 2.2049230309048826e+00 1.4136383823998400e+00 
142 1 2 1.0279993512411549e+00 -2.6337984024354944e+02 1.0000000000000000e+00 8.0282218384428177e+00 2.2049230309102592e+00 1.4136383824056156e+00 
24 1 2 1.0279993512411552e+00 -3.4321559618399385e+02 1.0000000000000000e+00 8.0282218384361741e+00 2.2049230309047312e+00 1.4136383823997414e+00 
122 1 2 1.0279993024895244e+00 -1.7683327778583046e+02 1.0000000000000000e+00 1.0006635634346942e+01 7.9036493634555238e-01 3.8983696043851962e-01 
106 1 2 1.0279993975062263e+00 -2.4901307804697007e+02 1.0000000000000000e+00 1.0080139833044486e+01 9.6901381004400611e-01 6.2817404606219707e-01 
64 1 2 1.0279993975062161e+00 -3.4226397036298340e+02 1.0000000000000000e+00 1.0080139856067998e+01 9.6901388198222860e-01 6.2817413933571165e-01 
27 1 2 1.0279993975062149e+00 -2.8702259345881458e+02 1.0000000000000000e+00 1.0080139851541650e+01 9.6901386787150079e-01 6.2817412101702663e-01 
63 1 2 1.0279993975062169e+00 -3.7654126889913323e+02 1.0000000000000000e+00 1.0080139851830245e+01 9.6901386877069673e-01 6.2817412218473090e-01 
70 1 2 1.0279993975062085e+00 -2.1657849855138574e+02 1.0000000000000000e+00 1.0080139837523840e+01 9.6901382400025171e-01 6.2817406418594968e-01 
98 1 2 1.0280000000958820e+00 -2.8715648356906712e+02 1.0000000000000000e+00 1.2712168780771293e+01 7.0184892443443569e+00 2.2770294675772624e+00 
170 1 2 1.0280000000958820e+00 -3.5287192441251869e+02 1.0000000000000000e+00 1.2712168780771293e+01 7.0184892443443569e+00 2.2770294675772624e+00 
99 1 2 1.0280000000958820e+00 -3.2361884451868008e+02 1.0000000000000000e+00 1.2712168780771293e+01 7.0184892443443569e+00 2.2770294675772624e+00 
176 1 2 1.0280000000958820e+00 -3.7676873202958001e+02 1.0000000000000000e+00 1.2712168780771293e+01 7.0184892443443569e+00 2.2770294675772624e+00 
134 1 2 1.0280000000958820e+00 -2.6713831017664654e+02 1.0000000000000000e+00 1.2712168780771286e+01 7.0184892443443623e+00 2.2770294675772722e+00 
141 1 2 1.0280000000958820e+00 -2.4346746862659921e+02 1.0000000000000000e+00 1.2712168780771293e+01 7.0184892443443569e+00 2.2770294675772624e+00 
177 1 2 1.0280000000958820e+00 -3.7978938836320447e+02 1.0000000000000000e+00 1.2712168780771293e+01 7.0184892443443569e+00 2.2770294675772624e+00 
105 1 2 1.0280000000958820e+00 -2.8363339075550988e+02 1.0000000000000000e+00 1.2712168780771293e+01 7.0184892443443569e+00 2.2770294675772624e+00 
171 1 2 1.0280000000958820e+00 -3.5756451410439871e+02 1.0000000000000000e+00 1.2712168780771286e+01 7.0184892443443623e+00 2.2770294675772722e+00 
135 1 2 1.0280000000958820e+00 -3.0416138535843407e+02 1.0000000000000000e+00 1.2712168780771293e+01 7.0184892443443569e+00 2.2770294675772624e+00 
161 1 2 1.0280005359640334e+00 -2.8830643312573807e+02 1.0000000000000000e+00 9.8596290166561200e+00 1.8754118116297445e+00 3.4770033932260858e+00 
82 1 2 1.0280005359564992e+00 -3.1203912869070712e+02 1.0000000000000000e+00 9.8596093873134834e+00 1.8754090117959479e+00 3.4770159082091596e+00 
172 1 2 1.0280005359580311e+00 -2.4593664492586598e+02 1.0000000000000000e+00 9.8596091173770883e+00 1.8754088662494566e+00 3.4770157287801737e+00 
173 1 2 1.0280005359591837e+00 -3.3237500404489219e+02 1.0000000000000000e+00 9.8596106879384831e+00 1.8754090536660417e+00 3.4770146074936235e+00 
168 1 2 1.0280005359640318e+00 -3.3502905184540015e+02 1.0000000000000000e+00 9.8596290161407900e+00 1.8754118115674872e+00 3.4770033935916862e+00 
167 1 2 1.0280005359640327e+00 -1.9371040310989824e+02 1.0000000000000000e+00 9.8596290149457992e+00 1.8754118114249643e+00 3.4770033944454064e+00 
162 1 2 1.0280005359640358e+00 -2.8255843820321832e+02 1.0000000000000000e+00 9.8596290230228067e+00 1.8754118123845878e+00 3.4770033886626601e+00 
81 1 2 1.0279998164893240e+00 -3.7810361244263976e+02 1.0000000000000000e+00 1.0574605855700259e+01 2.4878455391495895e+00 5.2764310585398899e+00 
96 1 2 1.0279998209937384e+00 -3.8824199879756321e+02 1.0000000000000000e+00 1.0594452066159175e+01 2.5107182088974263e+00 5.2892760025531533e+00 
69 1 2 1.0279997221594541e+00 -2.8987296637148296e+02 1.0000000000000000e+00 1.0381882774267998e+01 3.8504797272724516e+00 5.5881866065544870e+00 
128 1 2 1.0279997231750475e+00 -2.3563232098395119e+02 1.0000000000000000e+00 1.0383112713820900e+01 3.8577882434821591e+00 5.5777497260880349e+00 
94 1 2 1.0279997231750977e+00 -2.3490930763527763e+02 1.0000000000000000e+00 1.0383112778372544e+01 3.8577885039767650e+00 5.5777493419856654e+00 
123 1 2 1.0279997231750839e+00 -1.7671688786091786e+02 1.0000000000000000e+00 1.0383112762204190e+01 3.8577884234489539e+00 5.5777494602535604e+00 
86 1 2 1.0279997231750573e+00 -1.9117954802853086e+02 1.0000000000000000e+00 1.0383112707369012e+01 3.8577882007617936e+00 5.5777497885648657e+00 
56 1 2 1.0279997231750471e+00 -1.7276140591973893e+02 1.0000000000000000e+00 1.0383112714884986e+01 3.8577882442462808e+00 5.5777497248524481e+00 
50 1 2 1.0279997231750482e+00 -2.1553777159350128e+02 1.0000000000000000e+00 1.0383112713590553e+01 3.8577882486569157e+00 5.5777497186461007e+00 
130 1 2 1.0279997231750457e+00 -2.0697574534309499e+02 1.0000000000000000e+00 1.0383112713430080e+01 3.8577882464532269e+00 5.5777497218474776e+00 
136 1 2 1.0280004220601824e+00 -2.4447702474111526e+02 1.0000000000000000e+00 6.8334625073023165e+00 4.1371746763541930e+00 1.8582306507647719e+01 
179 1 2 1.0280004220601824e+00 -3.4255811264371232e+02 1.0000000000000000e+00 6.8334625073023307e+00 4.1371746763541291e+00 1.8582306507647669e+01 
166 1 2 1.0280004220601824e+00 -2.1119220623178234e+02 1.0000000000000000e+00 6.8334625073022934e+00 4.1371746763541424e+00 1.8582306507647694e+01 
143 1 2 1.0280004220601824e+00 -2.6768012781947118e+02 1.0000000000000000e+00 6.8334625073022952e+00 4.1371746763541495e+00 1.8582306507647697e+01 
137 1 2 1.0280004220601824e+00 -3.1483669293836772e+02 1.0000000000000000e+00 6.8334625073023449e+00 4.1371746763541699e+00 1.8582306507647690e+01 
132 1 2 1.0280004220601824e+00 -2.3656879022074807e+02 1.0000000000000000e+00 6.8334625073023449e+00 4.1371746763541699e+00 1.8582306507647690e+01 
46 1 2 1.0280004220601824e+00 -3.0437090156440411e+02 1.0000000000000000e+00 6.8334625073022952e+00 4.1371746763541495e+00 1.8582306507647697e+01 
165 1 2 1.0280004220601824e+00 -2.6868714339526736e+02 1.0000000000000000e+00 6.8334625073023325e+00 4.1371746763541362e+00 1.8582306507647672e+01 
178 1 2 1.0280004220601824e+00 -2.4579460826978669e+02 1.0000000000000000e+00 6.8334625073023449e+00 4.1371746763541699e+00 1.8582306507647690e+01 
40 1 2 1.0280004220601824e+00 -3.1579522950431783e+02 1.0000000000000000e+00 6.8334625073023449e+00 4.1371746763541699e+00 1.8582306507647690e+01 
20 1 2 1.0280022422219355e+00 -2.7500892623749985e+02 1.0000000000000000e+00 7.9732104121794301e+00 1.9776656144258688e+01 7.5432739759977541e-01 
19 1 2 1.0280022422093515e+00 -2.4735590805227059e+02 1.0000000000000000e+00 7.9726493871696373e+00 1.9777522235504208e+01 7.5354620537118400e-01 
49 1 2 1.0280022422067683e+00 -2.5528139887087670e+02 1.0000000000000000e+00 7.9725889719534049e+00 1.9777615671984929e+01 7.5346186914870361e-01 
55 1 2 1.0280022421810342e+00 -2.4194557719571304e+02 1.0000000000000000e+00 7.9721520253115168e+00 1.9778292434278310e+01 7.5285058682200845e-01 
13 1 2 1.0280022420584602e+00 -2.7907296104671730e+02 1.0000000000000000e+00 7.9710388414296069e+00 1.9780024551272209e+01 7.5128303067486502e-01 
155 1 2 1.0280004199923058e+00 -2.3535330016976343e+02 1.0000000000000000e+00 8.8265112595349429e+00 1.6845905267905692e+01 3.3013565445099489e+00 
114 1 2 1.0280004199923058e+00 -3.7339935288724212e+02 1.0000000000000000e+00 8.8265112595349429e+00 1.6845905267905692e+01 3.3013565445099489e+00 
113 1 2 1.0280004199923058e+00 -3.4283503933060518e+02 1.0000000000000000e+00 8.8265112595349429e+00 1.6845905267905692e+01 3.3013565445099489e+00 
120 1 2 1.0280004199923058e+00 -3.3729825897663784e+02 1.0000000000000000e+00 8.8265112595349429e+00 1.6845905267905692e+01 3.3013565445099489e+00 
149 1 2 1.0280004199923058e+00 -3.3309499458689999e+02 1.0000000000000000e+00 8.8265112595349429e+00 1.6845905267905692e+01 3.3013565445099489e+00 
78 1 2 1.0280004199923058e+00 -3.2234075639871105e+02 1.0000000000000000e+00 8.8265112595349429e+00 1.6845905267905692e+01 3.3013565445099489e+00 
150 1 2 1.0280004199923058e+00 -2.9765930389986528e+02 1.0000000000000000e+00 8.8265112595349517e+00 1.6845905267905749e+01 3.3013565445099737e+00 
156 1 2 1.0280004199923058e+00 -2.4409752242748303e+02 1.0000000000000000e+00 8.8265112595349429e+00 1.6845905267905692e+01 3.3013565445099489e+00 
54 1 2 1.0280004199923058e+00 -2.6946537159660244e+02 1.0000000000000000e+00 8.8265112595349429e+00 1.6845905267905692e+01 3.3013565445099489e+00 
44 1 2 1.0280004199923058e+00 -3.0134468880871697e+02 1.0000000000000000e+00 8.8265112595349429e+00 1.6845905267905692e+01 3.3013565445099489e+00 
61 1 2 1.0280007944469540e+00 -3.4660122892463738e+02 1.0000000000000000e+00 9.6265284434631848e+00 1.5114201020715338e+01 1.7395855360409673e+01 
62 1 2 1.0280007944469540e+00 -3.0330865854734185e+02 1.0000000000000000e+00 9.6265284434631848e+00 1.5114201020715338e+01 1.7395855360409673e+01 
180 1 2 1.0280007944469540e+00 -3.6643296821479385e+02 1.0000000000000000e+00 9.6265284434632150e+00 1.5114201020715331e+01 1.7395855360409676e+01 
97 1 2 1.0280007944469540e+00 -4.6240935195274625e+02 1.0000000000000000e+00 9.6265284434631795e+00 1.5114201020715321e+01 1.7395855360409694e+01 
104 1 2 1.0280007944469540e+00 -3.3493304597020290e+02 1.0000000000000000e+00 9.6265284434632612e+00 1.5114201020715292e+01 1.7395855360409708e+01 
67 1 2 1.0280007944469540e+00 -4.8207788105045540e+02 1.0000000000000000e+00 9.6265284434631795e+00 1.5114201020715321e+01 1.7395855360409694e+01 
77 1 2 1.0280007944469540e+00 -2.9846385766790968e+02 1.0000000000000000e+00 9.6265284434632203e+00 1.5114201020715292e+01 1.7395855360409719e+01 
140 1 2 1.0280007944469540e+00 -3.1129587567487158e+02 1.0000000000000000e+00 9.6265284434632203e+00 1.5114201020715292e+01 1.7395855360409719e+01 
103 1 2 1.0280007944469540e+00 -4.3250794686268637e+02 1.0000000000000000e+00 9.6265284434632203e+00 1.5114201020715292e+01 1.7395855360409719e+01 
73 1 2 1.0280007944469540e+00 -3.6266707695732634e+02 1.0000000000000000e+00 9.6265284434631848e+00 1.5114201020715338e+01 1.7395855360409673e+01 
75 1 2 1.0279989500864251e+00 -2.2757873311012816e+02 1.0000000000000000e+00 1.0074793190013557e+01 1.7828372502010982e+01 1.9903314927390166e+01 
4 1 2 1.0279989500864246e+00 -3.0144111619154404e+02 1.0000000000000000e+00 1.0074793190013674e+01 1.7828372502011046e+01 1.9903314927390223e+01 
169 1 2 1.0279989500864246e+00 -3.7130916239260802e+02 1.0000000000000000e+00 1.0074793190013548e+01 1.7828372502010929e+01 1.9903314927390259e+01 
133 1 2 1.0279989500864253e+00 -3.5374039862720275e+02 1.0000000000000000e+00 1.0074793190013509e+01 1.7828372502010907e+01 1.9903314927390241e+01 
163 1 2 1.0279989500864251e+00 -3.1876753118010589e+02 1.0000000000000000e+00 1.0074793190013569e+01 1.7828372502010943e+01 1.9903314927390269e+01 
146 1 2 1.0279989500864277e+00 -3.4577116474918756e+02 1.0000000000000000e+00 1.0074793190378495e+01 1.7828372501725518e+01 1.9903314928641002e+01 
174 1 2 1.0279989500864248e+00 -4.0234304847192698e+02 1.0000000000000000e+00 1.0074793190013562e+01 1.7828372502010936e+01 1.9903314927390266e+01 
164 1 2 1.0279989500864253e+00 -3.5131737895024702e+02 1.0000000000000000e+00 1.0074793190013509e+01 1.7828372502010907e+01 1.9903314927390241e+01 
79 1 2 1.0279989500864257e+00 -2.3146963999763187e+02 1.0000000000000000e+00 1.0074793190013597e+01 1.7828372502010975e+01 1.9903314927390252e+01 
48 1 2 1.0280000000958818e+00 -2.7482218505602509e+02 1.0000000000000000e+00 1.3823296656126040e+01 1.0448585067781758e+01 1.2664651762127848e+00 
41 1 2 1.0280000000958818e+00 -3.4204342244196232e+02 1.0000000000000000e+00 1.3823296656125859e+01 1.0448585067782007e+01 1.2664651762134251e+00 
5 1 2 1.0280000000958818e+00 -3.7069365274520271e+02 1.0000000000000000e+00 1.3823296656125859e+01 1.0448585067782007e+01 1.2664651762134251e+00 
72 1 2 1.0280000000958818e+00 -4.2776741147890573e+02 1.0000000000000000e+00 1.3823296656125859e+01 1.0448585067782007e+01 1.2664651762134251e+00 
11 1 2 1.0280000000958818e+00 -3.7506080574841883e+02 1.0000000000000000e+00 1.3823296656125859e+01 1.0448585067782007e+01 1.2664651762134251e+00 
42 1 2 1.0280000000958818e+00 -3.9563741928303170e+02 1.0000000000000000e+00 1.3823296656126040e+01 1.0448585067781758e+01 1.2664651762127848e+00 
36 1 2 1.0280000000958818e+00 -3.7071442637600808e+02 1.0000000000000000e+00 1.3823296656126040e+01 1.0448585067781758e+01 1.2664651762127848e+00 
47 1 2 1.0280000000958818e+00 -3.3757760199676744e+02 1.0000000000000000e+00 1.3823296656126040e+01 1.0448585067781758e+01 1.2664651762127848e+00 
6 1 2 1.0280000000958818e+00 -4.0389399290561840e+02 1.0000000000000000e+00 1.3823296656126040e+01 1.0448585067781758e+01 1.2664651762127848e+00 
31 1 2 1.0280000000958818e+00 -3.1748837075029303e+02 1.0000000000000000e+00 1.3823296656126040e+01 1.0448585067781758e+01 1.2664651762127848e+00 
45 1 2 1.0279505582661352e+00 -3.0847538982422407e+02 1.0000000000000000e+00 1.9400558236900782e+01 1.5410252487441426e+01 1.5943287539495209e+01 
74 1 2 1.0279505582661352e+00 -2.7997144350040878e+02 1.0000000000000000e+00 1.9400558236900782e+01 1.5410252487441426e+01 1.5943287539495209e+01 
10 1 2 1.0279505582661352e+00 -2.9268127163943444e+02 1.0000000000000000e+00 1.9400558236900782e+01 1.5410252487441426e+01 1.5943287539495209e+01 
38 1 2 1.0279505582661352e+00 -3.3426773464100285e+02 1.0000000000000000e+00 1.9400558236900782e+01 1.5410252487441433e+01 1.5943287539495202e+01 
126 1 2 1.0279505582661352e+00 -3.6958501138436156e+02 1.0000000000000000e+00 1.9400558236902118e+01 1.5410252487445543e+01 1.5943287539492285e+01 
90 1 2 1.0279505582661352e+00 -3.1010236198241819e+02 1.0000000000000000e+00 1.9400558236902118e+01 1.5410252487445543e+01 1.5943287539492285e+01 
85 1 2 1.0279505582661352e+00 -2.9738056175382849e+02 1.0000000000000000e+00 1.9400558236902114e+01 1.5410252487445543e+01 1.5943287539492287e+01 
91 1 2 1.0279505582661352e+00 -3.5369399012802359e+02 1.0000000000000000e+00 1.9400558236902118e+01 1.5410252487445543e+01 1.5943287539492285e+01 
121 1 2 1.0279505582661352e+00 -3.9072444552811515e+02 1.0000000000000000e+00 1.9400558236902118e+01 1.5410252487445540e+01 1.5943287539492287e+01 
127 1 2 1.0279505582661352e+00 -2.9612195052681949e+02 1.0000000000000000e+00 1.9400558236902118e+01 1.5410252487445543e+01 1.5943287539492285e+01 

Velocities

148 -7.1784716162364981e-02 -3.6195244998753501e-01 -7.2849056610020987e-02
153 -7.1784716162364981e-02 -3.6195244998753501e-01 -7.2849056610020987e-02
154 -7.1784716162364981e-02 -3.6195244998753501e-01 -7.2849056610020987e-02
111 -7.1784716162365245e-02 -3.6195244998753479e-01 -7.2849056610021515e-02
117 -7.1784716162364981e-02 -3.6195244998753501e-01 -7.2849056610020987e-02
159 -7.1784716162364981e-02 -3.6195244998753501e-01 -7.2849056610020987e-02
160 -7.1784716162365245e-02 -3.6195244998753479e-01 -7.2849056610021515e-02
112 -7.1784716162364939e-02 -3.6195244998753484e-01 -7.2849056610021182e-02
118 -7.1784716162365203e-02 -3.6195244998753479e-01 -7.2849056610022042e-02
147 -7.1784716162364981e-02 -3.6195244998753501e-01 -7.2849056610020987e-02
51 -6.3042546573724531e-02 -3.7253518022285265e-01 -7.8304123292352992e-02
100 -6.3042546573724531e-02 -3.7253518022285265e-01 -7.8304123292352992e-02
52 -6.3042546573724531e-02 -3.7253518022285265e-01 -7.8304123292352992e-02
93 -6.3042546573724531e-02 -3.7253518022285265e-01 -7.8304123292352992e-02
58 -6.3042546573724670e-02 -3.7253518022285287e-01 -7.8304123292352396e-02
124 -6.3042546573724531e-02 -3.7253518022285265e-01 -7.8304123292352992e-02
88 -6.3042546573724531e-02 -3.7253518022285265e-01 -7.8304123292352992e-02
87 -6.3042546573724670e-02 -3.7253518022285287e-01 -7.8304123292352396e-02
92 -6.3042546573724531e-02 -3.7253518022285265e-01 -7.8304123292352992e-02
57 -6.3042546573724531e-02 -3.7253518022285265e-01 -7.8304123292352992e-02
102 -6.3042549066547895e-02 -3.7253518441507505e-01 -7.8304116374419752e-02
65 -6.3042549066554598e-02 -3.7253518441507588e-01 -7.8304116374422264e-02
125 -6.3042549066554626e-02 -3.7253518441507616e-01 -7.8304116374422042e-02
119 -6.3042549066554820e-02 -3.7253518441507572e-01 -7.8304116374422111e-02
53 -6.3042549066554612e-02 -3.7253518441507605e-01 -7.8304116374422056e-02
83 -6.3042549066554571e-02 -3.7253518441507605e-01 -7.8304116374422153e-02
23 -6.3042549066556000e-02 -3.7253518441507677e-01 -7.8304116374422417e-02
84 -6.3042549066554820e-02 -3.7253518441507583e-01 -7.8304116374422139e-02
89 -6.3042549066555958e-02 -3.7253518441507677e-01 -7.8304116374422639e-02
115 -6.3042549066547771e-02 -3.7253518441507472e-01 -7.8304116374420307e-02
25 -7.0967357925022886e-02 -3.6122375433425030e-01 -7.1291474272636601e-02
32 -7.0967357925014171e-02 -3.6122375433425097e-01 -7.1291474272632757e-02
33 -7.0967357925025162e-02 -3.6122375433425080e-01 -7.1291474272636060e-02
26 -7.0967357925032407e-02 -3.6122375433425019e-01 -7.1291474272639058e-02
68 -7.0967357925029367e-02 -3.6122375433425030e-01 -7.1291474272638461e-02
8 -7.0973186494302176e-02 -3.6145280027371862e-01 -7.1628907365538105e-02
21 -7.0971926005569674e-02 -3.6145334671528462e-01 -7.1629305868409099e-02
16 -7.0971920374912484e-02 -3.6145334911199778e-01 -7.1629307508984108e-02
2 -7.0971914467778591e-02 -3.6145335162592346e-01 -7.1629309228875462e-02
14 -7.0971833728432396e-02 -3.6145338594492959e-01 -7.1629332613752164e-02
9 -7.0971816745982769e-02 -3.6145339314913633e-01 -7.1629337509494656e-02