LAMMPS data file via write_data, version 30 Jul 2016, timestep = 50400000

180 atoms
2 atom types

0.0000000000000000e+00 2.0000000000000000e+01 xlo xhi
0.0000000000000000e+00 2.0000000000000000e+01 ylo yhi
0.0000000000000000e+00 2.0000000000000000e+01 zlo zhi

Masses

1 3.896
2 4.31

Atoms # meso-molecular

54 1 2 1.0280003640919260e+00 -2.6946537155112770e+02 1.0000000000000000e+00 5.9674396297719658e+00 2.3691600023124213e+00 3.9328441176951839e-01 
156 1 2 1.0280003640919260e+00 -2.4409752240474566e+02 1.0000000000000000e+00 5.9674396297719658e+00 2.3691600023124213e+00 3.9328441176951839e-01 
150 1 2 1.0280003640919260e+00 -2.9765930385439054e+02 1.0000000000000000e+00 5.9674396297719721e+00 2.3691600023124786e+00 3.9328441176954332e-01 
78 1 2 1.0280003640919260e+00 -3.2234075635323632e+02 1.0000000000000000e+00 5.9674396297719658e+00 2.3691600023124213e+00 3.9328441176951839e-01 
149 1 2 1.0280003640919260e+00 -3.3309499454142525e+02 1.0000000000000000e+00 5.9674396297719658e+00 2.3691600023124213e+00 3.9328441176951839e-01 
44 1 2 1.0280003640919260e+00 -3.0134468876324223e+02 1.0000000000000000e+00 5.9674396297719658e+00 2.3691600023124213e+00 3.9328441176951839e-01 
155 1 2 1.0280003640919260e+00 -2.3535330014702606e+02 1.0000000000000000e+00 5.9674396297719658e+00 2.3691600023124213e+00 3.9328441176951839e-01 
114 1 2 1.0280003640919260e+00 -3.7339935284176738e+02 1.0000000000000000e+00 5.9674396297719658e+00 2.3691600023124213e+00 3.9328441176951839e-01 
113 1 2 1.0280003640919260e+00 -3.4283503928513045e+02 1.0000000000000000e+00 5.9674396297719658e+00 2.3691600023124213e+00 3.9328441176951839e-01 
120 1 2 1.0280003640919260e+00 -3.3729825893116310e+02 1.0000000000000000e+00 5.9674396297719658e+00 2.3691600023124213e+00 3.9328441176951839e-01 
39 1 2 1.0279994599721705e+00 -2.9276161448044292e+02 1.0000000000000000e+00 1.1157005840514407e+00 4.7981177663185157e+00 3.2669710636889032e-01 
80 1 2 1.0279994599721798e+00 -2.8678849743792046e+02 1.0000000000000000e+00 1.1157005334330288e+00 4.7981177786342784e+00 3.2669710590559792e-01 
129 1 2 1.0279994599721747e+00 -1.7808742604189959e+02 1.0000000000000000e+00 1.1157005603930001e+00 4.7981177764044984e+00 3.2669710541828367e-01 
107 1 2 1.0279994599722568e+00 -2.5077010741450860e+02 1.0000000000000000e+00 1.1157001840796539e+00 4.7981178641043281e+00 3.2669710262825929e-01 
116 1 2 1.0279994599719828e+00 -2.4728904041969670e+02 1.0000000000000000e+00 1.1157014485831445e+00 4.7981175600394463e+00 3.2669711359183901e-01 
148 1 2 1.0280003593162343e+00 -2.5306739610782884e+02 1.0000000000000000e+00 2.6579484978109429e+00 9.3214538488323218e+00 5.9316294431942740e-01 
153 1 2 1.0280003593162343e+00 -1.9215915411359546e+02 1.0000000000000000e+00 2.6579484978109429e+00 9.3214538488323218e+00 5.9316294431942740e-01 
154 1 2 1.0280003593162343e+00 -2.0365108294323898e+02 1.0000000000000000e+00 2.6579484978109429e+00 9.3214538488323218e+00 5.9316294431942740e-01 
111 1 2 1.0280003593162343e+00 -2.4047554902666488e+02 1.0000000000000000e+00 2.6579484978087056e+00 9.3214538488340182e+00 5.9316294431544792e-01 
117 1 2 1.0280003593162343e+00 -3.0754421498611623e+02 1.0000000000000000e+00 2.6579484978109429e+00 9.3214538488323218e+00 5.9316294431942740e-01 
159 1 2 1.0280003593162343e+00 -1.7754708706249320e+02 1.0000000000000000e+00 2.6579484978109429e+00 9.3214538488323218e+00 5.9316294431942740e-01 
160 1 2 1.0280003593162343e+00 -2.2001389226444988e+02 1.0000000000000000e+00 2.6579484978087056e+00 9.3214538488340182e+00 5.9316294431544792e-01 
112 1 2 1.0280003593162343e+00 -2.9601857365884911e+02 1.0000000000000000e+00 2.6579484978103696e+00 9.3214538488330465e+00 5.9316294431818750e-01 
118 1 2 1.0280003593162343e+00 -2.9180404091596819e+02 1.0000000000000000e+00 2.6579484978074204e+00 9.3214538488354766e+00 5.9316294431279493e-01 
147 1 2 1.0280003593162343e+00 -3.1982504718201216e+02 1.0000000000000000e+00 2.6579484978109429e+00 9.3214538488323218e+00 5.9316294431942740e-01 
51 1 2 1.0280000002156153e+00 -1.7302241979526906e+02 1.0000000000000000e+00 1.9522319916384205e+00 5.7193385691166911e+00 9.9288365149300883e+00 
57 1 2 1.0280000002156153e+00 -1.8889041475734689e+02 1.0000000000000000e+00 1.9522319916384205e+00 5.7193385691166911e+00 9.9288365149300883e+00 
92 1 2 1.0280000002156153e+00 -2.8107045995006291e+02 1.0000000000000000e+00 1.9522319916384205e+00 5.7193385691166911e+00 9.9288365149300883e+00 
87 1 2 1.0280000002156153e+00 -1.7819325583222360e+02 1.0000000000000000e+00 1.9522319916384254e+00 5.7193385691166805e+00 9.9288365149300830e+00 
88 1 2 1.0280000002156153e+00 -2.0320982253507711e+02 1.0000000000000000e+00 1.9522319916384205e+00 5.7193385691166911e+00 9.9288365149300883e+00 
124 1 2 1.0280000002156153e+00 -8.0194720252118202e+01 1.0000000000000000e+00 1.9522319916384205e+00 5.7193385691166911e+00 9.9288365149300883e+00 
58 1 2 1.0280000002156153e+00 -2.0150843659289578e+02 1.0000000000000000e+00 1.9522319916384254e+00 5.7193385691166805e+00 9.9288365149300830e+00 
93 1 2 1.0280000002156153e+00 -1.5757752987482377e+02 1.0000000000000000e+00 1.9522319916384205e+00 5.7193385691166911e+00 9.9288365149300883e+00 
52 1 2 1.0280000002156153e+00 -1.5862814642315288e+02 1.0000000000000000e+00 1.9522319916384205e+00 5.7193385691166911e+00 9.9288365149300883e+00 
100 1 2 1.0280000002156153e+00 -1.4863297420830907e+02 1.0000000000000000e+00 1.9522319916384205e+00 5.7193385691166911e+00 9.9288365149300883e+00 
89 1 2 1.0280000002156140e+00 -3.1050125552296316e+02 1.0000000000000000e+00 3.0553205808980546e+00 7.5755402773442206e+00 6.8695696971284930e+00 
125 1 2 1.0280000002156142e+00 -2.1706005379416229e+02 1.0000000000000000e+00 3.0553205484076869e+00 7.5755402618568155e+00 6.8695696760163898e+00 
65 1 2 1.0280000002156142e+00 -3.3428014065703496e+02 1.0000000000000000e+00 3.0553205484079617e+00 7.5755402618568937e+00 6.8695696760165363e+00 
119 1 2 1.0280000002156142e+00 -2.0713835107298326e+02 1.0000000000000000e+00 3.0553205533170384e+00 7.5755402555504698e+00 6.8695696739602106e+00 
53 1 2 1.0280000002156142e+00 -3.0319293662641292e+02 1.0000000000000000e+00 3.0553205484076877e+00 7.5755402618567906e+00 6.8695696760163747e+00 
83 1 2 1.0280000002156142e+00 -2.1394330057792024e+02 1.0000000000000000e+00 3.0553205484076686e+00 7.5755402618568013e+00 6.8695696760163738e+00 
23 1 2 1.0280000002156140e+00 -3.6553296745658872e+02 1.0000000000000000e+00 3.0553205808981940e+00 7.5755402773440217e+00 6.8695696971284228e+00 
84 1 2 1.0280000002156142e+00 -2.1451087813031936e+02 1.0000000000000000e+00 3.0553205533170602e+00 7.5755402555503331e+00 6.8695696739601351e+00 
115 1 2 1.0280000002156142e+00 -2.0432788920515918e+02 1.0000000000000000e+00 3.0553203970060907e+00 7.5755402537912602e+00 6.8695696165314359e+00 
102 1 2 1.0280000002156142e+00 -3.6102001396471240e+02 1.0000000000000000e+00 3.0553203970062057e+00 7.5755402537913872e+00 6.8695696165315550e+00 
166 1 2 1.0280000126050761e+00 -2.1119220615218566e+02 1.0000000000000000e+00 3.9604363634803481e+00 9.6609618085641440e+00 1.5676209148507002e+01 
179 1 2 1.0280000126050761e+00 -3.4255811255901602e+02 1.0000000000000000e+00 3.9604363634803810e+00 9.6609618085641333e+00 1.5676209148506979e+01 
40 1 2 1.0280000126050761e+00 -3.1579522941962153e+02 1.0000000000000000e+00 3.9604363634804041e+00 9.6609618085641689e+00 1.5676209148506992e+01 
178 1 2 1.0280000126050761e+00 -2.4579460819019002e+02 1.0000000000000000e+00 3.9604363634804041e+00 9.6609618085641689e+00 1.5676209148506992e+01 
165 1 2 1.0280000126050761e+00 -2.6868714331057106e+02 1.0000000000000000e+00 3.9604363634803836e+00 9.6609618085641333e+00 1.5676209148506977e+01 
46 1 2 1.0280000126050761e+00 -3.0437090147970781e+02 1.0000000000000000e+00 3.9604363634803499e+00 9.6609618085641511e+00 1.5676209148507002e+01 
132 1 2 1.0280000126050761e+00 -2.3656879014115140e+02 1.0000000000000000e+00 3.9604363634804041e+00 9.6609618085641689e+00 1.5676209148506992e+01 
137 1 2 1.0280000126050761e+00 -3.1483669285367142e+02 1.0000000000000000e+00 3.9604363634804005e+00 9.6609618085641724e+00 1.5676209148506995e+01 
136 1 2 1.0280000126050761e+00 -2.4447702466151858e+02 1.0000000000000000e+00 3.9604363634803712e+00 9.6609618085641937e+00 1.5676209148507025e+01 
143 1 2 1.0280000126050761e+00 -2.6768012773477489e+02 1.0000000000000000e+00 3.9604363634803499e+00 9.6609618085641511e+00 1.5676209148507002e+01 
8 1 2 1.0280002923141145e+00 -2.7554245446505939e+02 1.0000000000000000e+00 2.1446246482098177e+00 4.4395731909779821e+00 1.8528187558936963e+01 
21 1 2 1.0280002958127701e+00 -2.6179091056186894e+02 1.0000000000000000e+00 2.1494903395817873e+00 4.4406304018513261e+00 1.8532823500419113e+01 
2 1 2 1.0280002958439605e+00 -2.9551745514391843e+02 1.0000000000000000e+00 2.1495343924103882e+00 4.4406399595004480e+00 1.8532865853419565e+01 
16 1 2 1.0280002958279555e+00 -3.2917921165804000e+02 1.0000000000000000e+00 2.1495118390843051e+00 4.4406350661197962e+00 1.8532844169582027e+01 
14 1 2 1.0280002960621060e+00 -3.6454278780731511e+02 1.0000000000000000e+00 2.1498424468167081e+00 4.4407068224876571e+00 1.8533162200515196e+01 
9 1 2 1.0280002961078545e+00 -2.9409672294773321e+02 1.0000000000000000e+00 2.1499071866236301e+00 4.4407209082487427e+00 1.8533224509036639e+01 
25 1 2 1.0280004035467067e+00 -2.9878851061850031e+02 1.0000000000000000e+00 1.1972424163140521e-01 4.6277704591831705e+00 1.9046254819589446e+01 
32 1 2 1.0280004035467065e+00 -4.1843813131938111e+02 1.0000000000000000e+00 1.1972424163122374e-01 4.6277704591802200e+00 1.9046254819590061e+01 
33 1 2 1.0280004035467070e+00 -3.6177073722735270e+02 1.0000000000000000e+00 1.1972424163157405e-01 4.6277704591789730e+00 1.9046254819588892e+01 
26 1 2 1.0280004035467067e+00 -3.6629382904769699e+02 1.0000000000000000e+00 1.1972424163191842e-01 4.6277704591802795e+00 1.9046254819587730e+01 
68 1 2 1.0280004035467070e+00 -3.5929531597599885e+02 1.0000000000000000e+00 1.1972424163152295e-01 4.6277704591819946e+00 1.9046254819589056e+01 
20 1 2 1.0280010603625114e+00 -2.7500892348107402e+02 1.0000000000000000e+00 5.1119224715795584e+00 5.3027220844034444e+00 1.7850194180828037e+01 
49 1 2 1.0280010607486334e+00 -2.5528139611381283e+02 1.0000000000000000e+00 5.1112932893749186e+00 5.3036918102286137e+00 1.7849317370129373e+01 
19 1 2 1.0280010607115533e+00 -2.4735590529524600e+02 1.0000000000000000e+00 5.1113544558633173e+00 5.3035973790338673e+00 1.7849402806471364e+01 
55 1 2 1.0280010610135342e+00 -2.4194557443836914e+02 1.0000000000000000e+00 5.1108509195399439e+00 5.3043757866803967e+00 1.7848698109949826e+01 
13 1 2 1.0280010616629194e+00 -2.7907295828895496e+02 1.0000000000000000e+00 5.1097240040404346e+00 5.3061264365728666e+00 1.7847110068254050e+01 
95 1 2 1.0280002509273425e+00 -3.6559186656144249e+02 1.0000000000000000e+00 5.1233455519350164e+00 5.9318381397697486e+00 1.7339815851332997e+01 
15 1 2 1.0279997145806354e+00 -3.6464048651214898e+02 1.0000000000000000e+00 5.1654632834650753e+00 7.7326925404401345e+00 1.8503935743096157e+01 
60 1 2 1.0279997158185967e+00 -2.8889691571569028e+02 1.0000000000000000e+00 5.1676285286677546e+00 7.7344976886676040e+00 1.8506251997889887e+01 
142 1 2 1.0279997158185967e+00 -2.6337983999163475e+02 1.0000000000000000e+00 5.1676285286743884e+00 7.7344976886731240e+00 1.8506251997895689e+01 
24 1 2 1.0279997158185961e+00 -3.4321559593207917e+02 1.0000000000000000e+00 5.1676285286677572e+00 7.7344976886676049e+00 1.8506251997889851e+01 
18 1 2 1.0279997158185967e+00 -4.0493340965966047e+02 1.0000000000000000e+00 5.1676285286679313e+00 7.7344976886677488e+00 1.8506251997889944e+01 
59 1 2 1.0279997158185956e+00 -2.9572131627391065e+02 1.0000000000000000e+00 5.1676285286677821e+00 7.7344976886676289e+00 1.8506251997889944e+01 
66 1 2 1.0279999999126701e+00 -3.0907254464771421e+02 1.0000000000000000e+00 3.3676288013490843e+00 1.7079288430303812e+01 1.4638727894659866e+00 
152 1 2 1.0279999999126701e+00 -3.1105477618473196e+02 1.0000000000000000e+00 3.3676288013490843e+00 1.7079288430303812e+01 1.4638727894659866e+00 
131 1 2 1.0279999999126701e+00 -3.0199532077844282e+02 1.0000000000000000e+00 3.3676288013490843e+00 1.7079288430303812e+01 1.4638727894659866e+00 
101 1 2 1.0279999999126701e+00 -3.3409557194221259e+02 1.0000000000000000e+00 3.3676288013490843e+00 1.7079288430303812e+01 1.4638727894659866e+00 
158 1 2 1.0279999999126701e+00 -3.2861492096958801e+02 1.0000000000000000e+00 3.3676288013490843e+00 1.7079288430303812e+01 1.4638727894659866e+00 
144 1 2 1.0279999999126701e+00 -3.4990556003343664e+02 1.0000000000000000e+00 3.3676288013490843e+00 1.7079288430303812e+01 1.4638727894659866e+00 
157 1 2 1.0279999999126701e+00 -3.7281119956082239e+02 1.0000000000000000e+00 3.3676288013490843e+00 1.7079288430303812e+01 1.4638727894659866e+00 
145 1 2 1.0279999999126701e+00 -2.7450764521328460e+02 1.0000000000000000e+00 3.3676288013490843e+00 1.7079288430303812e+01 1.4638727894659866e+00 
151 1 2 1.0279999999126701e+00 -2.9656593406132316e+02 1.0000000000000000e+00 3.3676288013490843e+00 1.7079288430303812e+01 1.4638727894659866e+00 
138 1 2 1.0279999999126701e+00 -2.7766374096380105e+02 1.0000000000000000e+00 3.3676288013490843e+00 1.7079288430303812e+01 1.4638727894659866e+00 
7 1 2 1.0279999999126697e+00 -2.9852543072024787e+02 1.0000000000000000e+00 2.4715519183672972e+00 1.6227642651217423e+01 4.9984376026168826e+00 
43 1 2 1.0279999999126697e+00 -2.5709406444889476e+02 1.0000000000000000e+00 2.4715519182957295e+00 1.6227642651137021e+01 4.9984376025793669e+00 
175 1 2 1.0279999999126697e+00 -3.1279423848050845e+02 1.0000000000000000e+00 2.4715519183672905e+00 1.6227642651217423e+01 4.9984376026168817e+00 
12 1 2 1.0279999999126697e+00 -2.8890862289841829e+02 1.0000000000000000e+00 2.4715519183779411e+00 1.6227642651204103e+01 4.9984376026163728e+00 
30 1 2 1.0279999999126697e+00 -3.4502059122219993e+02 1.0000000000000000e+00 2.4715519183779420e+00 1.6227642651204107e+01 4.9984376026163728e+00 
139 1 2 1.0279999999126697e+00 -2.4498925987747248e+02 1.0000000000000000e+00 2.4715519182959631e+00 1.6227642651136783e+01 4.9984376025793686e+00 
109 1 2 1.0279999999126697e+00 -2.4974981133376917e+02 1.0000000000000000e+00 2.4715519182957348e+00 1.6227642651137028e+01 4.9984376025793695e+00 
37 1 2 1.0279999999126697e+00 -2.4457680065363670e+02 1.0000000000000000e+00 2.4715519182948675e+00 1.6227642651138073e+01 4.9984376025794015e+00 
1 1 2 1.0279999999126697e+00 -3.1395615942874122e+02 1.0000000000000000e+00 2.4715519183779482e+00 1.6227642651204107e+01 4.9984376026163737e+00 
76 1 2 1.0279999999126697e+00 -3.0142405468299114e+02 1.0000000000000000e+00 2.4715519182948689e+00 1.6227642651138066e+01 4.9984376025793997e+00 
162 1 2 1.0280002823272563e+00 -2.8255843811226885e+02 1.0000000000000000e+00 6.9947196149402826e+00 7.4040976531112035e+00 5.7004159883299088e-01 
161 1 2 1.0280002823272552e+00 -2.8830643303478860e+02 1.0000000000000000e+00 6.9947196085432806e+00 7.4040976523570974e+00 5.7004160341418320e-01 
82 1 2 1.0280002823273497e+00 -3.1203912859975765e+02 1.0000000000000000e+00 6.9946998913486045e+00 7.4040948472856396e+00 5.7005417121610091e-01 
172 1 2 1.0280002823282457e+00 -2.4593664482716744e+02 1.0000000000000000e+00 6.9946996215334210e+00 7.4040946999818535e+00 5.7005399208468444e-01 
173 1 2 1.0280002823285437e+00 -3.3237500395394272e+02 1.0000000000000000e+00 6.9947011995768511e+00 7.4040948872416568e+00 5.7005286642599617e-01 
168 1 2 1.0280002823272552e+00 -3.3502905175445068e+02 1.0000000000000000e+00 6.9947196080256164e+00 7.4040976522949205e+00 5.7004160378120217e-01 
167 1 2 1.0280002823272558e+00 -1.9371040301120027e+02 1.0000000000000000e+00 6.9947196068251642e+00 7.4040976521525863e+00 5.7004160463823217e-01 
81 1 2 1.0279999428220170e+00 -3.7810361240103316e+02 1.0000000000000000e+00 7.7076033209223631e+00 8.0190165401873088e+00 2.3724518457685986e+00 
96 1 2 1.0279999453996931e+00 -3.8824199875638305e+02 1.0000000000000000e+00 7.7274100531921119e+00 8.0418663917690925e+00 2.3852880601387141e+00 
69 1 2 1.0279998431104007e+00 -2.8987296637148296e+02 1.0000000000000000e+00 7.5143579490653378e+00 9.3793963153534783e+00 2.6833392840057071e+00 
56 1 2 1.0279998434492026e+00 -1.7276140591973893e+02 1.0000000000000000e+00 7.5155854581492143e+00 9.3866885986994486e+00 2.6729303034886835e+00 
86 1 2 1.0279998434491961e+00 -1.9117954802853086e+02 1.0000000000000000e+00 7.5155854506476416e+00 9.3866885553101902e+00 2.6729303670301592e+00 
94 1 2 1.0279998434492179e+00 -2.3490930763527763e+02 1.0000000000000000e+00 7.5155855215036773e+00 9.3866888578776546e+00 2.6729299216573614e+00 
128 1 2 1.0279998434492008e+00 -2.3563232098395119e+02 1.0000000000000000e+00 7.5155854570876786e+00 9.3866885979362937e+00 2.6729303047204449e+00 
130 1 2 1.0279998434491984e+00 -2.0697574534309499e+02 1.0000000000000000e+00 7.5155854566981226e+00 9.3866886009002233e+00 2.6729303004906875e+00 
50 1 2 1.0279998434492010e+00 -2.1553777159350128e+02 1.0000000000000000e+00 7.5155854568584335e+00 9.3866886030990102e+00 2.6729302972976456e+00 
123 1 2 1.0279998434492179e+00 -1.7671688786091786e+02 1.0000000000000000e+00 7.5155855053676452e+00 9.3866887775238368e+00 2.6729300396072508e+00 
61 1 2 1.0280004511202643e+00 -3.4660122886776799e+02 1.0000000000000000e+00 6.7811574258836451e+00 6.4177783037806468e-01 1.4491696523322100e+01 
62 1 2 1.0280004511202643e+00 -3.0330865849047245e+02 1.0000000000000000e+00 6.7811574258836451e+00 6.4177783037806468e-01 1.4491696523322100e+01 
180 1 2 1.0280004511202643e+00 -3.6643296815792445e+02 1.0000000000000000e+00 6.7811574258836753e+00 6.4177783037805602e-01 1.4491696523322103e+01 
97 1 2 1.0280004511202643e+00 -4.6240935189587685e+02 1.0000000000000000e+00 6.7811574258836398e+00 6.4177783037804537e-01 1.4491696523322121e+01 
104 1 2 1.0280004511202643e+00 -3.3493304591333350e+02 1.0000000000000000e+00 6.7811574258837233e+00 6.4177783037801872e-01 1.4491696523322135e+01 
67 1 2 1.0280004511202643e+00 -4.8207788099358601e+02 1.0000000000000000e+00 6.7811574258836398e+00 6.4177783037804537e-01 1.4491696523322121e+01 
77 1 2 1.0280004511202643e+00 -2.9846385761104028e+02 1.0000000000000000e+00 6.7811574258836842e+00 6.4177783037801517e-01 1.4491696523322146e+01 
140 1 2 1.0280004511202643e+00 -3.1129587561800219e+02 1.0000000000000000e+00 6.7811574258836842e+00 6.4177783037801517e-01 1.4491696523322146e+01 
103 1 2 1.0280004511202643e+00 -4.3250794680581697e+02 1.0000000000000000e+00 6.7811574258836842e+00 6.4177783037801517e-01 1.4491696523322146e+01 
73 1 2 1.0280004511202643e+00 -3.6266707690045695e+02 1.0000000000000000e+00 6.7811574258836451e+00 6.4177783037806468e-01 1.4491696523322100e+01 
164 1 2 1.0279994080197776e+00 -3.5131737884955112e+02 1.0000000000000000e+00 7.2190603937440034e+00 3.3583250004702032e+00 1.6998426313096196e+01 
79 1 2 1.0279994080197792e+00 -2.3146963990332230e+02 1.0000000000000000e+00 7.2190603937441011e+00 3.3583250004702760e+00 1.6998426313096211e+01 
174 1 2 1.0279994080197778e+00 -4.0234304837123108e+02 1.0000000000000000e+00 7.2190603937440478e+00 3.3583250004702321e+00 1.6998426313096214e+01 
146 1 2 1.0279994080197745e+00 -3.4577116464849166e+02 1.0000000000000000e+00 7.2190603941048561e+00 3.3583250001868428e+00 1.6998426314335632e+01 
163 1 2 1.0279994080197783e+00 -3.1876753107940999e+02 1.0000000000000000e+00 7.2190603937440665e+00 3.3583250004702467e+00 1.6998426313096211e+01 
133 1 2 1.0279994080197776e+00 -3.5374039852650685e+02 1.0000000000000000e+00 7.2190603937440034e+00 3.3583250004702032e+00 1.6998426313096196e+01 
169 1 2 1.0279994080197774e+00 -3.7130916229191212e+02 1.0000000000000000e+00 7.2190603937440549e+00 3.3583250004702321e+00 1.6998426313096225e+01 
4 1 2 1.0279994080197776e+00 -3.0144111609084814e+02 1.0000000000000000e+00 7.2190603937441669e+00 3.3583250004703458e+00 1.6998426313096175e+01 
75 1 2 1.0279994080197776e+00 -2.2757873301581859e+02 1.0000000000000000e+00 7.2190603937440443e+00 3.3583250004702738e+00 1.6998426313096115e+01 
122 1 2 1.0279996819689119e+00 -1.7683327784999932e+02 1.0000000000000000e+00 7.1469121048368134e+00 6.3183045458562059e+00 1.7484431921423724e+01 
63 1 2 1.0279997175980224e+00 -3.7654126893722798e+02 1.0000000000000000e+00 7.2196526682601352e+00 6.4970793470582571e+00 1.7721798941065646e+01 
27 1 2 1.0279997175980136e+00 -2.8702259349690934e+02 1.0000000000000000e+00 7.2196526679745618e+00 6.4970793461587890e+00 1.7721798939902751e+01 
70 1 2 1.0279997175979976e+00 -2.1657849858597459e+02 1.0000000000000000e+00 7.2196526541014201e+00 6.4970793022736055e+00 1.7721798883301897e+01 
106 1 2 1.0279997175979869e+00 -2.4901307808155897e+02 1.0000000000000000e+00 7.2196526496683235e+00 6.4970792883128912e+00 1.7721798865251753e+01 
64 1 2 1.0279997175980078e+00 -3.4226397040107815e+02 1.0000000000000000e+00 7.2196526724544059e+00 6.4970793602740544e+00 1.7721798958147406e+01 
98 1 2 1.0280000000162715e+00 -2.8715648356906712e+02 1.0000000000000000e+00 9.8325294474116731e+00 1.2297946002537790e+01 1.9309808536814270e+01 
170 1 2 1.0280000000162715e+00 -3.5287192441251869e+02 1.0000000000000000e+00 9.8325294474116731e+00 1.2297946002537790e+01 1.9309808536814270e+01 
99 1 2 1.0280000000162715e+00 -3.2361884451868008e+02 1.0000000000000000e+00 9.8325294474116731e+00 1.2297946002537790e+01 1.9309808536814270e+01 
176 1 2 1.0280000000162715e+00 -3.7676873202958001e+02 1.0000000000000000e+00 9.8325294474116731e+00 1.2297946002537790e+01 1.9309808536814270e+01 
134 1 2 1.0280000000162715e+00 -2.6713831017664654e+02 1.0000000000000000e+00 9.8325294474116660e+00 1.2297946002537797e+01 1.9309808536814280e+01 
141 1 2 1.0280000000162715e+00 -2.4346746862659921e+02 1.0000000000000000e+00 9.8325294474116731e+00 1.2297946002537790e+01 1.9309808536814270e+01 
177 1 2 1.0280000000162715e+00 -3.7978938836320447e+02 1.0000000000000000e+00 9.8325294474116731e+00 1.2297946002537790e+01 1.9309808536814270e+01 
105 1 2 1.0280000000162715e+00 -2.8363339075550988e+02 1.0000000000000000e+00 9.8325294474116731e+00 1.2297946002537790e+01 1.9309808536814270e+01 
171 1 2 1.0280000000162715e+00 -3.5756451410439871e+02 1.0000000000000000e+00 9.8325294474116660e+00 1.2297946002537797e+01 1.9309808536814280e+01 
135 1 2 1.0280000000162715e+00 -3.0416138535843407e+02 1.0000000000000000e+00 9.8325294474116731e+00 1.2297946002537790e+01 1.9309808536814270e+01 
41 1 2 1.0280000000162717e+00 -3.4204342244196232e+02 1.0000000000000000e+00 1.0943657323491529e+01 1.5728041827630548e+01 1.8299244245143942e+01 
5 1 2 1.0280000000162717e+00 -3.7069365274520271e+02 1.0000000000000000e+00 1.0943657323491529e+01 1.5728041827630548e+01 1.8299244245143942e+01 
72 1 2 1.0280000000162717e+00 -4.2776741147890573e+02 1.0000000000000000e+00 1.0943657323491529e+01 1.5728041827630548e+01 1.8299244245143942e+01 
11 1 2 1.0280000000162717e+00 -3.7506080574841883e+02 1.0000000000000000e+00 1.0943657323491529e+01 1.5728041827630548e+01 1.8299244245143942e+01 
42 1 2 1.0280000000162717e+00 -3.9563741928303170e+02 1.0000000000000000e+00 1.0943657323491712e+01 1.5728041827630300e+01 1.8299244245143299e+01 
48 1 2 1.0280000000162717e+00 -2.7482218505602509e+02 1.0000000000000000e+00 1.0943657323491712e+01 1.5728041827630300e+01 1.8299244245143299e+01 
31 1 2 1.0280000000162717e+00 -3.1748837075029303e+02 1.0000000000000000e+00 1.0943657323491712e+01 1.5728041827630300e+01 1.8299244245143299e+01 
6 1 2 1.0280000000162717e+00 -4.0389399290561840e+02 1.0000000000000000e+00 1.0943657323491712e+01 1.5728041827630300e+01 1.8299244245143299e+01 
47 1 2 1.0280000000162717e+00 -3.3757760199676744e+02 1.0000000000000000e+00 1.0943657323491712e+01 1.5728041827630300e+01 1.8299244245143299e+01 
36 1 2 1.0280000000162717e+00 -3.7071442637600808e+02 1.0000000000000000e+00 1.0943657323491712e+01 1.5728041827630300e+01 1.8299244245143299e+01 
45 1 2 1.0279846342963515e+00 -3.0847538947199712e+02 1.0000000000000000e+00 1.6679969861544979e+01 7.9585664210896157e-01 1.3002076838055311e+01 
74 1 2 1.0279846342963515e+00 -2.7997144314818183e+02 1.0000000000000000e+00 1.6679969861544976e+01 7.9585664210896045e-01 1.3002076838055313e+01 
10 1 2 1.0279846342963515e+00 -2.9268127128720749e+02 1.0000000000000000e+00 1.6679969861544976e+01 7.9585664210896045e-01 1.3002076838055313e+01 
38 1 2 1.0279846342963515e+00 -3.3426773428877590e+02 1.0000000000000000e+00 1.6679969861544972e+01 7.9585664210896800e-01 1.3002076838055309e+01 
126 1 2 1.0279846342963515e+00 -3.6958501103213462e+02 1.0000000000000000e+00 1.6679969861545811e+01 7.9585664211154850e-01 1.3002076838053473e+01 
90 1 2 1.0279846342963515e+00 -3.1010236163019124e+02 1.0000000000000000e+00 1.6679969861545811e+01 7.9585664211154850e-01 1.3002076838053473e+01 
85 1 2 1.0279846342963515e+00 -2.9738056140160154e+02 1.0000000000000000e+00 1.6679969861545811e+01 7.9585664211155249e-01 1.3002076838053469e+01 
91 1 2 1.0279846342963515e+00 -3.5369398977579664e+02 1.0000000000000000e+00 1.6679969861545811e+01 7.9585664211154850e-01 1.3002076838053473e+01 
121 1 2 1.0279846342963515e+00 -3.9072444517588821e+02 1.0000000000000000e+00 1.6679969861545811e+01 7.9585664211155105e-01 1.3002076838053471e+01 
127 1 2 1.0279846342963515e+00 -2.9612195017459254e+02 1.0000000000000000e+00 1.6679969861545811e+01 7.9585664211154850e-01 1.3002076838053473e+01 
35 1 2 1.0280155976506002e+00 -3.5781355770935511e+02 1.0000000000000000e+00 1.7712204957322680e+01 2.6478845379877090e+00 1.6088905529238115e+01 
17 1 2 1.0280155976506000e+00 -3.4818667670576741e+02 1.0000000000000000e+00 1.7712204957314061e+01 2.6478845379906351e+00 1.6088905529239199e+01 
3 1 2 1.0280155976505998e+00 -2.8267168385780752e+02 1.0000000000000000e+00 1.7712204957315898e+01 2.6478845379846394e+00 1.6088905529242194e+01 
22 1 2 1.0280155976506000e+00 -3.2110432153068996e+02 1.0000000000000000e+00 1.7712204957314061e+01 2.6478845379906351e+00 1.6088905529239199e+01 
71 1 2 1.0280155976506000e+00 -3.3125371037537491e+02 1.0000000000000000e+00 1.7712204957314061e+01 2.6478845379906351e+00 1.6088905529239199e+01 
108 1 2 1.0280155976506000e+00 -3.1220276819012895e+02 1.0000000000000000e+00 1.7712204957314061e+01 2.6478845379906351e+00 1.6088905529239199e+01 
28 1 2 1.0280155976506002e+00 -3.3652753721114095e+02 1.0000000000000000e+00 1.7712204957322680e+01 2.6478845379877090e+00 1.6088905529238115e+01 
34 1 2 1.0280155976506002e+00 -4.1885146287340012e+02 1.0000000000000000e+00 1.7712204957322680e+01 2.6478845379877090e+00 1.6088905529238115e+01 
110 1 2 1.0280155976506002e+00 -2.8514185413055014e+02 1.0000000000000000e+00 1.7712204957322680e+01 2.6478845379877090e+00 1.6088905529238115e+01 
29 1 2 1.0280155976505998e+00 -4.1234238312131282e+02 1.0000000000000000e+00 1.7712204957315898e+01 2.6478845379846394e+00 1.6088905529242194e+01 

Velocities

54 -7.1442388911900592e-02 -3.6191655738026007e-01 -7.2682440408806531e-02
156 -7.1442388911900592e-02 -3.6191655738026007e-01 -7.2682440408806531e-02
150 -7.1442388911900634e-02 -3.6191655738025991e-01 -7.2682440408806503e-02
78 -7.1442388911900592e-02 -3.6191655738026007e-01 -7.2682440408806531e-02
149 -7.1442388911900592e-02 -3.6191655738026007e-01 -7.2682440408806531e-02
44 -7.1442388911900592e-02 -3.6191655738026007e-01 -7.2682440408806531e-02
155 -7.1442388911900592e-02 -3.6191655738026007e-01 -7.2682440408806531e-02
114 -7.1442388911900592e-02 -3.6191655738026007e-01 -7.2682440408806531e-02
113 -7.1442388911900592e-02 -3.6191655738026007e-01 -7.2682440408806531e-02
120 -7.1442388911900592e-02 -3.6191655738026007e-01 -7.2682440408806531e-02
39 -7.1089389662632729e-02 -3.6141448199860238e-01 -7.1510623412828156e-02
80 -7.1089389656686180e-02 -3.6141448199941290e-01 -7.1510623410543400e-02
129 -7.1089389659857477e-02 -3.6141448199951437e-01 -7.1510623411721846e-02
107 -7.1089389615652573e-02 -3.6141448200508924e-01 -7.1510623394898692e-02
116 -7.1089389764184149e-02 -3.6141448198520648e-01 -7.1510623451523536e-02
148 -7.1711547286631330e-02 -3.6190497553942474e-01 -7.2809012220335381e-02
153 -7.1711547286631330e-02 -3.6190497553942474e-01 -7.2809012220335381e-02
154 -7.1711547286631330e-02 -3.6190497553942474e-01 -7.2809012220335381e-02
111 -7.1711547286631483e-02 -3.6190497553942469e-01 -7.2809012220335936e-02
117 -7.1711547286631330e-02 -3.6190497553942474e-01 -7.2809012220335381e-02
159 -7.1711547286631330e-02 -3.6190497553942474e-01 -7.2809012220335381e-02
160 -7.1711547286631483e-02 -3.6190497553942469e-01 -7.2809012220335936e-02
112 -7.1711547286631316e-02 -3.6190497553942474e-01 -7.2809012220335603e-02
118 -7.1711547286631469e-02 -3.6190497553942469e-01 -7.2809012220336380e-02
147 -7.1711547286631330e-02 -3.6190497553942474e-01 -7.2809012220335381e-02
51 -6.3042568130720553e-02 -3.7253529955963360e-01 -7.8304142420166797e-02
57 -6.3042568130720553e-02 -3.7253529955963360e-01 -7.8304142420166797e-02
92 -6.3042568130720553e-02 -3.7253529955963360e-01 -7.8304142420166797e-02
87 -6.3042568130720608e-02 -3.7253529955963349e-01 -7.8304142420166645e-02
88 -6.3042568130720553e-02 -3.7253529955963360e-01 -7.8304142420166797e-02
124 -6.3042568130720553e-02 -3.7253529955963360e-01 -7.8304142420166797e-02
58 -6.3042568130720608e-02 -3.7253529955963349e-01 -7.8304142420166645e-02
93 -6.3042568130720553e-02 -3.7253529955963360e-01 -7.8304142420166797e-02
52 -6.3042568130720553e-02 -3.7253529955963360e-01 -7.8304142420166797e-02
100 -6.3042568130720553e-02 -3.7253529955963360e-01 -7.8304142420166797e-02
89 -6.3042566814953335e-02 -3.7253529734434004e-01 -7.8304146067198377e-02
125 -6.3042566814953585e-02 -3.7253529734433977e-01 -7.8304146067199695e-02
65 -6.3042566814953585e-02 -3.7253529734433971e-01 -7.8304146067199668e-02
119 -6.3042566814953446e-02 -3.7253529734433999e-01 -7.8304146067199987e-02
53 -6.3042566814953599e-02 -3.7253529734433988e-01 -7.8304146067199543e-02
83 -6.3042566814953668e-02 -3.7253529734433999e-01 -7.8304146067199279e-02