LAMMPS data file via write_data, version 30 Jul 2016, timestep = 1000000

2080 atoms
8 atom types

0.0000000000000000e+00 4.0000000000000000e+01 xlo xhi
0.0000000000000000e+00 4.0000000000000000e+01 ylo yhi
0.0000000000000000e+00 1.0000000000000000e+02 zlo zhi

Masses

1 3.896
2 10.72
3 1058.08
4 8.378
5 8.378
6 8.378
7 8.378
8 8.378

Atoms # meso-molecular

1 2 4 2.2559723595316457e+00 6.0915179169885758e-01 4.2000000000000000e+03 0.0000000000000000e+00 0.0000000000000000e+00 2.5000000000000000e+00 
2 2 4 2.2559723595316457e+00 9.5401888591467354e-01 4.2000000000000000e+03 0.0000000000000000e+00 2.0000000000000000e+00 2.5000000000000000e+00 
3 2 4 2.2559723595316457e+00 8.7431435357836107e-01 4.2000000000000000e+03 0.0000000000000000e+00 4.0000000000000000e+00 2.5000000000000000e+00 
4 2 4 2.2559723595316457e+00 9.6346829988452110e-01 4.2000000000000000e+03 0.0000000000000000e+00 6.0000000000000000e+00 2.5000000000000000e+00 
21 2 4 2.2559723595316457e+00 1.0098573203717787e+00 4.2000000000000000e+03 2.0000000000000000e+00 0.0000000000000000e+00 2.5000000000000000e+00 
22 2 4 2.2559723595316457e+00 9.5614893215393759e-01 4.2000000000000000e+03 2.0000000000000000e+00 2.0000000000000000e+00 2.5000000000000000e+00 
23 2 4 2.2559723595316457e+00 1.0061093598506901e+00 4.2000000000000000e+03 2.0000000000000000e+00 4.0000000000000000e+00 2.5000000000000000e+00 
24 2 4 2.2559723595316457e+00 1.0415332230919345e+00 4.2000000000000000e+03 2.0000000000000000e+00 6.0000000000000000e+00 2.5000000000000000e+00 
41 2 4 2.2559723595316457e+00 9.8951421619913038e-01 4.2000000000000000e+03 4.0000000000000000e+00 0.0000000000000000e+00 2.5000000000000000e+00 
42 2 4 2.2559723595316457e+00 1.0005665336173282e+00 4.2000000000000000e+03 4.0000000000000000e+00 2.0000000000000000e+00 2.5000000000000000e+00 
43 2 4 2.2559723595316457e+00 9.9822325692355651e-01 4.2000000000000000e+03 4.0000000000000000e+00 4.0000000000000000e+00 2.5000000000000000e+00 
44 2 4 2.2559723595316457e+00 1.0127696271615640e+00 4.2000000000000000e+03 4.0000000000000000e+00 6.0000000000000000e+00 2.5000000000000000e+00 
61 2 4 2.2559723595316457e+00 9.5896395069501217e-01 4.2000000000000000e+03 6.0000000000000000e+00 0.0000000000000000e+00 2.5000000000000000e+00 
62 2 4 2.2559723595316457e+00 1.0075973433887508e+00 4.2000000000000000e+03 6.0000000000000000e+00 2.0000000000000000e+00 2.5000000000000000e+00 
63 2 4 2.2559723595316457e+00 9.9392026759973873e-01 4.2000000000000000e+03 6.0000000000000000e+00 4.0000000000000000e+00 2.5000000000000000e+00 
64 2 4 2.2559723595316457e+00 1.0048332249980279e+00 4.2000000000000000e+03 6.0000000000000000e+00 6.0000000000000000e+00 2.5000000000000000e+00 
81 2 4 2.2559723595316457e+00 8.9363602663542152e-01 4.2000000000000000e+03 8.0000000000000000e+00 0.0000000000000000e+00 2.5000000000000000e+00 
82 2 4 2.2559723595316457e+00 9.7354040751873738e-01 4.2000000000000000e+03 8.0000000000000000e+00 2.0000000000000000e+00 2.5000000000000000e+00 
83 2 4 2.2559723595316457e+00 9.8528600605324423e-01 4.2000000000000000e+03 8.0000000000000000e+00 4.0000000000000000e+00 2.5000000000000000e+00 
84 2 4 2.2559723595316457e+00 1.0128430237391988e+00 4.2000000000000000e+03 8.0000000000000000e+00 6.0000000000000000e+00 2.5000000000000000e+00 
101 2 4 2.2559723595316457e+00 9.3098279672820450e-01 4.2000000000000000e+03 1.0000000000000000e+01 0.0000000000000000e+00 2.5000000000000000e+00 
102 2 4 2.2559723595316457e+00 9.3653208808305610e-01 4.2000000000000000e+03 1.0000000000000000e+01 2.0000000000000000e+00 2.5000000000000000e+00 
103 2 4 2.2559723595316457e+00 9.6157364833146775e-01 4.2000000000000000e+03 1.0000000000000000e+01 4.0000000000000000e+00 2.5000000000000000e+00 
104 2 4 2.2559723595316457e+00 9.5349051283678543e-01 4.2000000000000000e+03 1.0000000000000000e+01 6.0000000000000000e+00 2.5000000000000000e+00 
121 2 4 2.2559723595316457e+00 8.6811343778557593e-01 4.2000000000000000e+03 1.2000000000000000e+01 0.0000000000000000e+00 2.5000000000000000e+00 
122 2 4 2.2559723595316457e+00 9.7580939807594425e-01 4.2000000000000000e+03 1.2000000000000000e+01 2.0000000000000000e+00 2.5000000000000000e+00 
123 2 4 2.2559723595316457e+00 1.0110626828792766e+00 4.2000000000000000e+03 1.2000000000000000e+01 4.0000000000000000e+00 2.5000000000000000e+00 
124 2 4 2.2559723595316457e+00 -3.7974838581111221e+01 4.2000000000000000e+03 1.2000000000000000e+01 6.0000000000000000e+00 2.5000000000000000e+00 
141 2 4 2.2559723595316457e+00 9.0764456825081175e-01 4.2000000000000000e+03 1.4000000000000000e+01 0.0000000000000000e+00 2.5000000000000000e+00 
142 2 4 2.2559723595316457e+00 9.9464135991401681e-01 4.2000000000000000e+03 1.4000000000000000e+01 2.0000000000000000e+00 2.5000000000000000e+00 
143 2 4 2.2559723595316457e+00 -2.3179704134726470e-01 4.2000000000000000e+03 1.4000000000000000e+01 4.0000000000000000e+00 2.5000000000000000e+00 
144 2 4 2.2559723595316457e+00 -3.9526408480236205e+02 4.2000000000000000e+03 1.4000000000000000e+01 6.0000000000000000e+00 2.5000000000000000e+00 
161 2 4 2.2559723595316457e+00 9.7697211657047434e-01 4.2000000000000000e+03 1.6000000000000000e+01 0.0000000000000000e+00 2.5000000000000000e+00 
162 2 4 2.2559723595316457e+00 1.0208612940278465e+00 4.2000000000000000e+03 1.6000000000000000e+01 2.0000000000000000e+00 2.5000000000000000e+00 
163 2 4 2.2559723595316457e+00 -1.1067005217937499e+01 4.2000000000000000e+03 1.6000000000000000e+01 4.0000000000000000e+00 2.5000000000000000e+00 
164 2 4 2.2559723595316457e+00 -1.0132449312965717e+03 4.2000000000000000e+03 1.6000000000000000e+01 6.0000000000000000e+00 2.5000000000000000e+00 
181 2 4 2.2559723595316457e+00 9.0566816565509023e-01 4.2000000000000000e+03 1.8000000000000000e+01 0.0000000000000000e+00 2.5000000000000000e+00 
182 2 4 2.2559723595316457e+00 9.8756808608634894e-01 4.2000000000000000e+03 1.8000000000000000e+01 2.0000000000000000e+00 2.5000000000000000e+00 
183 2 4 2.2559723595316457e+00 -1.2801264191122881e+01 4.2000000000000000e+03 1.8000000000000000e+01 4.0000000000000000e+00 2.5000000000000000e+00 
184 2 4 2.2559723595316457e+00 -1.3936809702608562e+03 4.2000000000000000e+03 1.8000000000000000e+01 6.0000000000000000e+00 2.5000000000000000e+00 
5 2 4 2.2559723595316457e+00 1.0000000000000000e+00 4.2000000000000000e+03 0.0000000000000000e+00 8.0000000000000000e+00 2.5000000000000000e+00 
6 2 4 2.2559723595316457e+00 1.0000000000098961e+00 4.2000000000000000e+03 0.0000000000000000e+00 1.0000000000000000e+01 2.5000000000000000e+00 
7 2 4 2.2559723595316457e+00 1.0266190088698344e+00 4.2000000000000000e+03 0.0000000000000000e+00 1.2000000000000000e+01 2.5000000000000000e+00 
25 2 4 2.2559723595316457e+00 1.0037641340919552e+00 4.2000000000000000e+03 2.0000000000000000e+00 8.0000000000000000e+00 2.5000000000000000e+00 
26 2 4 2.2559723595316457e+00 9.9347975626997020e-01 4.2000000000000000e+03 2.0000000000000000e+00 1.0000000000000000e+01 2.5000000000000000e+00 
27 2 4 2.2559723595316457e+00 9.5491154172069370e-01 4.2000000000000000e+03 2.0000000000000000e+00 1.2000000000000000e+01 2.5000000000000000e+00 
45 2 4 2.2559723595316457e+00 9.8321365496986823e-01 4.2000000000000000e+03 4.0000000000000000e+00 8.0000000000000000e+00 2.5000000000000000e+00 
46 2 4 2.2559723595316457e+00 9.2778789466495537e-01 4.2000000000000000e+03 4.0000000000000000e+00 1.0000000000000000e+01 2.5000000000000000e+00 
47 2 4 2.2559723595316457e+00 9.1465199837428313e-01 4.2000000000000000e+03 4.0000000000000000e+00 1.2000000000000000e+01 2.5000000000000000e+00 
65 2 4 2.2559723595316457e+00 9.9483078314597129e-01 4.2000000000000000e+03 6.0000000000000000e+00 8.0000000000000000e+00 2.5000000000000000e+00 
66 2 4 2.2559723595316457e+00 9.6996697965426371e-01 4.2000000000000000e+03 6.0000000000000000e+00 1.0000000000000000e+01 2.5000000000000000e+00 
67 2 4 2.2559723595316457e+00 9.8582167334633120e-01 4.2000000000000000e+03 6.0000000000000000e+00 1.2000000000000000e+01 2.5000000000000000e+00 
85 2 4 2.2559723595316457e+00 9.8466444449213064e-01 4.2000000000000000e+03 8.0000000000000000e+00 8.0000000000000000e+00 2.5000000000000000e+00 
86 2 4 2.2559723595316457e+00 9.8762738993731969e-01 4.2000000000000000e+03 8.0000000000000000e+00 1.0000000000000000e+01 2.5000000000000000e+00 
87 2 4 2.2559723595316457e+00 9.9608726450198648e-01 4.2000000000000000e+03 8.0000000000000000e+00 1.2000000000000000e+01 2.5000000000000000e+00 
105 2 4 2.2559723595316457e+00 -3.0362314661265716e-01 4.2000000000000000e+03 1.0000000000000000e+01 8.0000000000000000e+00 2.5000000000000000e+00 
106 2 4 2.2559723595316457e+00 -1.1321464762855715e+01 4.2000000000000000e+03 1.0000000000000000e+01 1.0000000000000000e+01 2.5000000000000000e+00 
107 2 4 2.2559723595316457e+00 -1.2885202704606534e+01 4.2000000000000000e+03 1.0000000000000000e+01 1.2000000000000000e+01 2.5000000000000000e+00 
125 2 4 2.2559723595316457e+00 -3.9528015970175653e+02 4.2000000000000000e+03 1.2000000000000000e+01 8.0000000000000000e+00 2.5000000000000000e+00 
126 2 4 2.2559723595316457e+00 -1.0138301608012390e+03 4.2000000000000000e+03 1.2000000000000000e+01 1.0000000000000000e+01 2.5000000000000000e+00 
127 2 4 2.2559723595316457e+00 -1.3987883269707556e+03 4.2000000000000000e+03 1.2000000000000000e+01 1.2000000000000000e+01 2.5000000000000000e+00 
145 2 4 2.2559723595316457e+00 -2.2109804355987580e+03 4.2000000000000000e+03 1.4000000000000000e+01 8.0000000000000000e+00 2.5000000000000000e+00 
146 2 4 2.2559723595316457e+00 -5.0526890338119410e+03 4.2000000000000000e+03 1.4000000000000000e+01 1.0000000000000000e+01 2.5000000000000000e+00 
147 2 4 2.2559723595316457e+00 -7.0167595720915933e+03 4.2000000000000000e+03 1.4000000000000000e+01 1.2000000000000000e+01 2.5000000000000000e+00 
165 2 4 2.2559723595316457e+00 -5.0488397443379617e+03 4.2000000000000000e+03 1.6000000000000000e+01 8.0000000000000000e+00 2.5000000000000000e+00 
166 2 4 2.2559723595316457e+00 -1.1275458173104347e+04 4.2000000000000000e+03 1.6000000000000000e+01 1.0000000000000000e+01 2.5000000000000000e+00 
167 2 4 2.2559723595316457e+00 -1.5766526217687415e+04 4.2000000000000000e+03 1.6000000000000000e+01 1.2000000000000000e+01 2.5000000000000000e+00 
185 2 4 2.2559723595316457e+00 -6.9866712369796687e+03 4.2000000000000000e+03 1.8000000000000000e+01 8.0000000000000000e+00 2.5000000000000000e+00 
186 2 4 2.2559723595316457e+00 -1.5700437243958724e+04 4.2000000000000000e+03 1.8000000000000000e+01 1.0000000000000000e+01 2.5000000000000000e+00 
187 2 4 2.2559723595316457e+00 -2.2060547842418713e+04 4.2000000000000000e+03 1.8000000000000000e+01 1.2000000000000000e+01 2.5000000000000000e+00 
8 2 4 2.2559723595316457e+00 1.0121508868314104e+00 4.2000000000000000e+03 0.0000000000000000e+00 1.4000000000000000e+01 2.5000000000000000e+00 
9 2 4 2.2559723595316457e+00 9.9877641088785862e-01 4.2000000000000000e+03 0.0000000000000000e+00 1.6000000000000000e+01 2.5000000000000000e+00 
10 2 4 2.2559723595316457e+00 1.0199074470022174e+00 4.2000000000000000e+03 0.0000000000000000e+00 1.8000000000000000e+01 2.5000000000000000e+00 
28 2 4 2.2559723595316457e+00 9.1945845868967524e-01 4.2000000000000000e+03 2.0000000000000000e+00 1.4000000000000000e+01 2.5000000000000000e+00 
29 2 4 2.2559723595316457e+00 9.9396956613787402e-01 4.2000000000000000e+03 2.0000000000000000e+00 1.6000000000000000e+01 2.5000000000000000e+00 
30 2 4 2.2559723595316457e+00 9.5740132635210795e-01 4.2000000000000000e+03 2.0000000000000000e+00 1.8000000000000000e+01 2.5000000000000000e+00 
48 2 4 2.2559723595316457e+00 9.7011336091759803e-01 4.2000000000000000e+03 4.0000000000000000e+00 1.4000000000000000e+01 2.5000000000000000e+00 
49 2 4 2.2559723595316457e+00 9.9992031948472437e-01 4.2000000000000000e+03 4.0000000000000000e+00 1.6000000000000000e+01 2.5000000000000000e+00 
50 2 4 2.2559723595316457e+00 9.4189836027961704e-01 4.2000000000000000e+03 4.0000000000000000e+00 1.8000000000000000e+01 2.5000000000000000e+00 
68 2 4 2.2559723595316457e+00 1.0119146684101992e+00 4.2000000000000000e+03 6.0000000000000000e+00 1.4000000000000000e+01 2.5000000000000000e+00 
69 2 4 2.2559723595316457e+00 9.9221758939885807e-01 4.2000000000000000e+03 6.0000000000000000e+00 1.6000000000000000e+01 2.5000000000000000e+00 
70 2 4 2.2559723595316457e+00 9.1174364287581722e-01 4.2000000000000000e+03 6.0000000000000000e+00 1.8000000000000000e+01 2.5000000000000000e+00 
88 2 4 2.2559723595316457e+00 9.4799147823069152e-01 4.2000000000000000e+03 8.0000000000000000e+00 1.4000000000000000e+01 2.5000000000000000e+00 
89 2 4 2.2559723595316457e+00 9.7564336328788048e-01 4.2000000000000000e+03 8.0000000000000000e+00 1.6000000000000000e+01 2.5000000000000000e+00 
90 2 4 2.2559723595316457e+00 9.9127361864158869e-01 4.2000000000000000e+03 8.0000000000000000e+00 1.8000000000000000e+01 2.5000000000000000e+00 
108 2 4 2.2559723595316457e+00 -1.3002735212066757e+01 4.2000000000000000e+03 1.0000000000000000e+01 1.4000000000000000e+01 2.5000000000000000e+00 
109 2 4 2.2559723595316457e+00 -1.3009574765934353e+01 4.2000000000000000e+03 1.0000000000000000e+01 1.6000000000000000e+01 2.5000000000000000e+00 
110 2 4 2.2559723595316457e+00 -1.3015153421352988e+01 4.2000000000000000e+03 1.0000000000000000e+01 1.8000000000000000e+01 2.5000000000000000e+00 
128 2 4 2.2559723595316457e+00 -1.4577726228907882e+03 4.2000000000000000e+03 1.2000000000000000e+01 1.4000000000000000e+01 2.5000000000000000e+00 
129 2 4 2.2559723595316457e+00 -1.4628317064041605e+03 4.2000000000000000e+03 1.2000000000000000e+01 1.6000000000000000e+01 2.5000000000000000e+00 
130 2 4 2.2559723595316457e+00 -1.4630572887380642e+03 4.2000000000000000e+03 1.2000000000000000e+01 1.8000000000000000e+01 2.5000000000000000e+00 
148 2 4 2.2559723595316457e+00 -7.5113430149020078e+03 4.2000000000000000e+03 1.4000000000000000e+01 1.4000000000000000e+01 2.5000000000000000e+00 
149 2 4 2.2559723595316457e+00 -7.5425380550751452e+03 4.2000000000000000e+03 1.4000000000000000e+01 1.6000000000000000e+01 2.5000000000000000e+00 
150 2 4 2.2559723595316457e+00 -7.5443294172227725e+03 4.2000000000000000e+03 1.4000000000000000e+01 1.8000000000000000e+01 2.5000000000000000e+00 
168 2 4 2.2559723595316457e+00 -1.7029653258521888e+04 4.2000000000000000e+03 1.6000000000000000e+01 1.4000000000000000e+01 2.5000000000000000e+00 
169 2 4 2.2559723595316457e+00 -1.7100162182581651e+04 4.2000000000000000e+03 1.6000000000000000e+01 1.6000000000000000e+01 2.5000000000000000e+00 
170 2 4 2.2559723595316457e+00 -1.7102730926013777e+04 4.2000000000000000e+03 1.6000000000000000e+01 1.8000000000000000e+01 2.5000000000000000e+00 
188 2 4 2.2559723595316457e+00 -2.3847974608241595e+04 4.2000000000000000e+03 1.8000000000000000e+01 1.4000000000000000e+01 2.5000000000000000e+00 
189 2 4 2.2559723595316457e+00 -2.3936319160782889e+04 4.2000000000000000e+03 1.8000000000000000e+01 1.6000000000000000e+01 2.5000000000000000e+00 
190 2 4 2.2559723595316457e+00 -2.3935835585468245e+04 4.2000000000000000e+03 1.8000000000000000e+01 1.8000000000000000e+01 2.5000000000000000e+00 
775 377 2 1.0279999867000753e+00 2.6010982116589651e+02 4.2000000000000000e+03 5.4242314596478911e+00 4.5953534552920877e-01 3.2701219771580924e+01 
1027 629 2 1.0280000080792753e+00 -1.3239422588375264e+03 4.2000000000000000e+03 5.8779213615745114e+00 1.0146401437101560e+00 3.2701501732558668e+01 
1256 858 2 1.0279999996647002e+00 -6.8277777466437931e+02 4.2000000000000000e+03 5.2567251761135330e+00 7.0426248894370913e-01 3.2828198939883585e+01 
725 327 2 1.0280000317946811e+00 6.4774567040724173e+02 4.2000000000000000e+03 5.8290413344466003e+00 1.5232003100508937e+00 3.2850371422365939e+01 
1640 1242 2 1.0280000320456586e+00 4.7991524055450536e+03 4.2000000000000000e+03 4.8991078950636213e+00 1.5456777635259416e+00 3.3169257081413519e+01 
1339 941 2 1.0280000519123260e+00 -3.3313328448333709e+03 4.2000000000000000e+03 5.0245432572365534e+00 2.3044735761099058e+00 3.3273995087515374e+01 
537 139 2 1.0279999854872472e+00 -1.4531776983007369e+03 4.2000000000000000e+03 7.0038630036928851e+00 8.4873959155844270e-01 3.2750846263187093e+01 
1803 1405 2 1.0280000192849570e+00 2.6836663357529474e+03 4.2000000000000000e+03 4.3554138251751882e+00 2.4857362590195065e+00 3.3595029848641261e+01 
1277 879 2 1.0280000087602505e+00 2.1392984594234817e+03 4.2000000000000000e+03 4.4909496251271372e+00 3.5103598459986767e+00 3.3811297156889090e+01 
1569 1171 2 1.0279999933585666e+00 -1.0367116260457690e+03 4.2000000000000000e+03 4.2261330620037043e+00 3.2157936913107026e+00 3.3810135052659284e+01 
1066 668 2 1.0279999542406699e+00 6.2886050121743892e+02 4.2000000000000000e+03 4.0405849473741018e+00 3.6745027932965169e+00 3.4024761602456962e+01 
1648 1250 2 1.0279997962295060e+00 -6.3573450513934768e+02 4.2000000000000000e+03 2.9562524727351631e+00 3.5929247430331497e+00 3.4433241591466142e+01 
1483 1085 2 1.0279997811146506e+00 -3.4808250188677869e+02 4.2000000000000000e+03 2.9410130920066093e+00 3.7421674593232956e+00 3.4471952294696074e+01 
614 216 2 1.0279997025784335e+00 -7.0469096352647540e+01 4.2000000000000000e+03 2.5763620376255298e+00 3.8307206504645519e+00 3.4634510904876997e+01 
568 170 2 1.0279994757859485e+00 -4.3079154533662877e+03 4.2000000000000000e+03 1.9395487838953493e+00 4.4583877394936797e+00 3.5004667180504910e+01 
489 91 2 1.0279995564595850e+00 1.9212912364327383e+03 4.2000000000000000e+03 2.9370692057531884e+00 5.2587510531909549e+00 3.5087532141780969e+01 
669 271 2 1.0279990522851676e+00 2.0450909045024568e+02 4.2000000000000000e+03 3.3140475941292813e-01 4.2552757189332358e+00 3.5429876851237644e+01 
1546 1148 2 1.0279987955536425e+00 1.5004429396701223e+03 4.2000000000000000e+03 9.2687878702125237e-01 5.4455985494318329e+00 3.5504585166366965e+01 
439 41 2 1.0279988856366926e+00 2.8674675697567964e+03 4.2000000000000000e+03 2.8170185595322000e-01 5.0858811286204411e+00 3.5518078158077230e+01 
1272 874 2 1.0279992710432748e+00 6.3126597543499174e+03 4.2000000000000000e+03 1.3322505324086249e+00 1.6788462412978650e-01 3.5634070224067067e+01 
2074 1676 2 1.0279989523254895e+00 -4.4722886967554005e+03 4.2000000000000000e+03 5.6702768508645984e-01 5.4942206309161101e-01 3.5965293554954847e+01 
852 454 2 1.0280019796542530e+00 2.2434188456180468e+03 4.2000000000000000e+03 2.6483623379197663e-01 3.6796555828524280e+00 3.6110349578165639e+01 
2014 1616 2 1.0280007088839558e+00 -7.3570283674062568e+02 4.2000000000000000e+03 2.0518087410015822e+00 4.8497739415447381e+00 3.6505345535853500e+01 
1297 899 2 1.0280002079167299e+00 1.4138042718352219e+03 4.2000000000000000e+03 3.9741925230994135e+00 6.4787644057093949e+00 3.6560496457116336e+01 
427 29 2 1.0280012696073935e+00 4.4550430515751341e+03 4.2000000000000000e+03 7.1455934482951000e-01 5.1350777118944937e-02 3.6637588419822052e+01 
1344 946 2 1.0280008356003334e+00 1.6498372879392372e+02 4.2000000000000000e+03 1.1042437152398543e+00 1.3826846843955218e-01 3.6785515939580200e+01 
1401 1003 2 1.0280004628836195e+00 -1.7592011943496243e+03 4.2000000000000000e+03 3.8267963181538822e+00 5.1889936775074901e+00 3.7089975038436094e+01 
573 175 2 1.0280004536325207e+00 -5.1242657708815914e+03 4.2000000000000000e+03 4.4991510376277972e+00 5.9844190073313355e+00 3.7159176466249129e+01 
848 450 2 1.0280004114796581e+00 1.9650319098726538e+03 4.2000000000000000e+03 3.2551496389141139e+00 1.6783780810544846e+00 3.7422124779518697e+01 
1852 1454 2 1.0280003639897788e+00 5.9835358953542755e+02 4.2000000000000000e+03 3.1208197894560508e+00 9.4694071545307212e-01 3.7448267737095868e+01 
870 472 2 1.0280003433497085e+00 2.6492264975111671e+03 4.2000000000000000e+03 3.1109764032165552e+00 7.6741130677837188e-01 3.7467376234925851e+01 
1311 913 2 1.0280003695975015e+00 -1.4376607732080010e+03 4.2000000000000000e+03 3.3920646242969545e+00 1.3400187694751362e+00 3.7515299027910210e+01 
1942 1544 2 1.0280003601808052e+00 2.0759710904201902e+03 4.2000000000000000e+03 3.3713841023688409e+00 1.2152239973694470e+00 3.7520012347381233e+01 
1428 1030 2 1.0280005601474049e+00 5.9837407582884066e+02 4.2000000000000000e+03 5.5529185034961657e+00 6.6242843045635071e+00 3.7644701927459586e+01 
1009 611 2 1.0280003961439625e+00 1.8235544949410980e+03 4.2000000000000000e+03 4.8272223854125320e+00 5.3117278278550941e+00 3.7628790741571365e+01 
525 127 2 1.0280005267447061e+00 1.6622774180627056e+02 4.2000000000000000e+03 5.5539170147822698e+00 6.4285540040285527e+00 3.7724411422843808e+01 
1325 927 2 1.0280004034468726e+00 5.9997321664535139e+02 4.2000000000000000e+03 5.0993518826555988e+00 5.5139068480166147e+00 3.7745066879935600e+01 
1100 702 2 1.0280003200661607e+00 5.2319770063660053e+03 4.2000000000000000e+03 4.1457784660940078e+00 1.7631580342464594e+00 3.7843305552061004e+01 
1205 807 2 1.0280002393402328e+00 1.1551165727913406e+03 4.2000000000000000e+03 5.6075787966882480e+00 3.4684995242098036e+00 3.8734085636423409e+01 
1830 1432 2 1.0280000450896900e+00 1.9208252008728605e+03 4.2000000000000000e+03 6.7973677550664204e+00 2.7421531476501175e+00 3.3378568311690302e+01 
1362 964 2 1.0280000434369736e+00 -2.8940604471080678e+03 4.2000000000000000e+03 6.8364105130446093e+00 2.8596627573884268e+00 3.3444547150958421e+01 
964 566 2 1.0279999676967040e+00 4.7265518733694425e+03 4.2000000000000000e+03 6.9139592184461725e+00 4.3323036986561974e+00 3.4313932207052979e+01 
866 468 2 1.0279997154357068e+00 1.4445609564895608e+03 4.2000000000000000e+03 9.1735024637468570e+00 4.5834934447191183e-01 3.4510032875279698e+01 
1597 1199 2 1.0279998786852662e+00 4.7331801229178536e+03 4.2000000000000000e+03 8.4604867155078090e+00 2.8493503003867513e+00 3.4635092086332065e+01 
1512 1114 2 1.0279996997034337e+00 -2.7874171407305107e+02 4.2000000000000000e+03 9.2471894772906271e+00 8.8639276536199096e-01 3.4725022054914419e+01 
1312 914 2 1.0279998724686437e+00 -3.0654634326494892e+02 4.2000000000000000e+03 8.2580478200667429e+00 3.4647647743560732e+00 3.4763735421563894e+01 
1996 1598 2 1.0279997767121909e+00 -6.0015529428106902e+02 4.2000000000000000e+03 9.0134262867256147e+00 2.3119839396227650e+00 3.5014142591841164e+01 
826 428 2 1.0279997525014575e+00 2.1851900230501014e+03 4.2000000000000000e+03 7.9299114236388961e+00 4.8101284614335409e+00 3.5353040984203673e+01 
1744 1346 2 1.0279997507772904e+00 -1.3854850983177939e+03 4.2000000000000000e+03 7.9245252815146463e+00 4.8261971255911504e+00 3.5359896555618569e+01 
532 134 2 1.0279997377722641e+00 1.3131064116090477e+03 4.2000000000000000e+03 8.1532834840478454e+00 4.6338582724744795e+00 3.5434649264539289e+01 
1574 1176 2 1.0279997336610158e+00 -5.7157968218330177e+02 4.2000000000000000e+03 8.0156067180107318e+00 4.8238331104332488e+00 3.5439610017644839e+01 
667 269 2 1.0279997321132535e+00 1.6508018876612925e+03 4.2000000000000000e+03 7.9839174020212145e+00 4.8689502875007653e+00 3.5443270935543268e+01 
1298 900 2 1.0279997235056908e+00 6.0829610304346613e+02 4.2000000000000000e+03 7.9747120137442042e+00 4.9296225739646244e+00 3.5478450285543687e+01 
1825 1427 2 1.0279988751638613e+00 -3.9943790652812261e+01 4.2000000000000000e+03 1.0790050155519403e+01 4.5776494817580310e-01 3.6072011196560609e+01 
1402 1004 2 1.0279995728288789e+00 2.3262942125586969e+03 4.2000000000000000e+03 7.8678617931450763e+00 6.0386941660316387e+00 3.6153448747260299e+01 
811 413 2 1.0279993474590385e+00 2.6659737532136010e+03 4.2000000000000000e+03 9.7897793605071595e+00 3.2843312215447367e+00 3.6348034091783582e+01 
1406 1008 2 1.0279992385358392e+00 8.6240238209116058e+02 4.2000000000000000e+03 9.9582865807165177e+00 3.3129590403297571e+00 3.6502935858908955e+01 
2058 1660 2 1.0279992502167492e+00 -2.4411287791715495e+03 4.2000000000000000e+03 1.2222061630514469e+01 9.1051780830713552e-02 3.6590890547885053e+01 
756 358 2 1.0279993177105797e+00 5.4893561742807160e+03 4.2000000000000000e+03 1.2753136406208672e+01 9.2186044457707325e-02 3.6872932153508856e+01 
743 345 2 1.0279990130611385e+00 -2.7457633165135471e+03 4.2000000000000000e+03 1.3041716021147503e+01 1.7634391195417389e+00 3.7347010029375276e+01 
1755 1357 2 1.0279995256575958e+00 -6.3147703128962667e+03 4.2000000000000000e+03 1.0282981108741840e+01 5.9257910574436039e+00 3.7541726101303404e+01 
606 208 2 1.0280038357611658e+00 -1.5226783710319075e+03 4.2000000000000000e+03 1.1301483396091919e+01 2.2034665091590875e+00 3.7559090983555876e+01 
755 357 2 1.0279988877532009e+00 3.9704944289291229e+03 4.2000000000000000e+03 1.2725311163759729e+01 3.0143813126915693e+00 3.7560031760256216e+01 
432 34 2 1.0279995286107066e+00 4.9120674349749070e+03 4.2000000000000000e+03 1.0469752379127414e+01 6.0471273360745199e+00 3.7621134948799181e+01 
1601 1203 2 1.0279990453916794e+00 5.6476136672306766e+03 4.2000000000000000e+03 1.3291264990729491e+01 2.6453152048237185e+00 3.7668146093491380e+01 
1490 1092 2 1.0279990665623902e+00 6.4598020171365738e+02 4.2000000000000000e+03 1.3279083988120105e+01 2.8706281450344351e+00 3.7722909488289616e+01 
1605 1207 2 1.0279990858919617e+00 4.8735339024878058e+03 4.2000000000000000e+03 1.3269768145939867e+01 2.9856254641488404e+00 3.7751603828788170e+01 
1775 1377 2 1.0279995762728558e+00 4.1466771160005574e+03 4.2000000000000000e+03 1.1336889439503283e+01 5.8685287713994159e+00 3.7834278917253741e+01 
555 157 2 1.0280023039080044e+00 -2.6441817753922481e+02 4.2000000000000000e+03 1.2279660157419231e+01 1.6086014125728916e+00 3.7885627079516297e+01 
1002 604 2 1.0279996295438725e+00 3.3060885823819495e+02 4.2000000000000000e+03 1.1665358174184973e+01 5.7702157765900139e+00 3.7905553518390555e+01 
1515 1117 2 1.0279992614579900e+00 -1.6465789431858339e+03 4.2000000000000000e+03 1.4500968488905562e+01 1.7548847151001494e+00 3.8128598685757780e+01 
447 49 2 1.0279992839988132e+00 9.3006876467261020e+02 4.2000000000000000e+03 1.4240558333353018e+01 3.2545280972133215e+00 3.8238879833733343e+01 
1957 1559 2 1.0279998044136744e+00 1.5263142745654173e+02 4.2000000000000000e+03 1.4437750695302984e+01 5.3447759800600458e+00 3.8403125633389031e+01 
1620 1222 2 1.0279997310261133e+00 1.5798533054347463e+03 4.2000000000000000e+03 1.4659892946053938e+01 5.3752695771636603e+00 3.8447507312813585e+01 
1488 1090 2 1.0279997767365119e+00 -2.1787125820121810e+02 4.2000000000000000e+03 1.4764132972750160e+01 5.8833449860224700e+00 3.8488704663585445e+01 
1922 1524 2 1.0279994201621374e+00 -3.9602535435379036e+03 4.2000000000000000e+03 1.5266629329616578e+01 1.2841734218084994e-01 3.8507034196356223e+01 
1804 1406 2 1.0279994341128063e+00 9.9860741498080415e+02 4.2000000000000000e+03 1.5125539788859429e+01 4.6691237228635760e+00 3.8584169972617225e+01 
1994 1596 2 1.0280026188996314e+00 -1.0013133713680586e+03 4.2000000000000000e+03 1.4417197462740315e+01 3.3516802332193860e+00 3.8809691094540455e+01 
1580 1182 2 1.0279991322885658e+00 -3.1696611716845046e+03 4.2000000000000000e+03 1.5807119263142015e+01 2.7846442879629336e+00 3.8823329404688010e+01 
1736 1338 2 1.0279999254336816e+00 4.5322350185729583e+03 4.2000000000000000e+03 1.5313944435500557e+00 1.0596631786626908e+01 3.5336018232973991e+01 
679 281 2 1.0279998674972948e+00 5.9788359938997750e+01 4.2000000000000000e+03 1.5922951391672635e+00 1.0336895254036756e+01 3.5533422381817729e+01 
1415 1017 2 1.0279999091211616e+00 1.5993525557109449e+03 4.2000000000000000e+03 2.1455038531176713e+00 1.0688439625468069e+01 3.5638802311524891e+01 
501 103 2 1.0279997382138029e+00 1.4352215864914931e+03 4.2000000000000000e+03 1.0440313867035127e+00 9.7304130761814687e+00 3.5658047373802233e+01 
541 143 2 1.0279997673051544e+00 -7.0032827254977576e+01 4.2000000000000000e+03 1.2021717412214261e+00 9.8434494942533686e+00 3.5676864707413863e+01 
887 489 2 1.0279996687248341e+00 -1.7179159064089683e+02 4.2000000000000000e+03 8.1871950390471904e-01 9.5005285982002103e+00 3.5690667922353853e+01 
705 307 2 1.0279995964274073e+00 2.2845216028253863e+03 4.2000000000000000e+03 6.5091787062920692e-01 9.3286582766535346e+00 3.5704061931995902e+01 
1334 936 2 1.0279998833056920e+00 -1.6168399463971132e+03 4.2000000000000000e+03 2.0017880670416979e+00 1.0440595084442604e+01 3.5752415513631860e+01 
1359 961 2 1.0280000238704492e+00 -2.2768183785468177e+03 4.2000000000000000e+03 3.3700212885532403e+00 1.1974366128540966e+01 3.5795628445927576e+01 
1568 1170 2 1.0280008614394505e+00 2.1056320962162558e+03 4.2000000000000000e+03 2.8704958272749453e-01 8.8289747941094987e+00 3.5952019134353520e+01 
1587 1189 2 1.0279998707912374e+00 5.0576759308132996e+03 4.2000000000000000e+03 5.1211667588833523e+00 1.1923961765160824e+01 3.6031618306686724e+01 
939 541 2 1.0279987394411925e+00 1.9631456086581736e+03 4.2000000000000000e+03 4.1768107360591289e+00 1.2348361472702457e+01 3.6085262584850092e+01 
1410 1012 2 1.0280001745734857e+00 -1.0353276620827628e+04 4.2000000000000000e+03 3.9774140030055731e+00 1.1402414633051517e+01 3.6184449585350450e+01 
885 487 2 1.0280000909497635e+00 5.2453231643825557e+03 4.2000000000000000e+03 4.4899319737560859e+00 1.0443999139472810e+01 3.6397487474433845e+01 
997 599 2 1.0279996045551192e+00 1.7010799478727286e+03 4.2000000000000000e+03 5.1905094043460327e+00 9.9150700393733917e+00 3.6486632637176427e+01 
864 466 2 1.0280000341988491e+00 2.7330236253588714e+03 4.2000000000000000e+03 4.2751642495345139e-02 1.3218598105945176e+01 3.6565782181905789e+01 
485 87 2 1.0279982606820446e+00 5.4340972091732272e+02 4.2000000000000000e+03 5.2022661729463628e+00 7.6729952878136940e+00 3.6597717060949748e+01 
1521 1123 2 1.0280009752781749e+00 2.3926233365865778e+03 4.2000000000000000e+03 4.8822473605598615e+00 1.0168944270352805e+01 3.6940876070417438e+01 
522 124 2 1.0280005689523755e+00 -2.1846087029190776e+03 4.2000000000000000e+03 5.4824836914622024e+00 6.6993402077048598e+00 3.7561905098516618e+01 
1290 892 2 1.0280002389955232e+00 -1.9663574794617036e+03 4.2000000000000000e+03 6.6216323203631182e+00 1.1830851541306048e+01 3.7618987212527145e+01 