LAMMPS data file via write_data, version 30 Jul 2016, timestep = 50000000

2080 atoms
8 atom types

0.0000000000000000e+00 4.0000000000000000e+01 xlo xhi
0.0000000000000000e+00 4.0000000000000000e+01 ylo yhi
0.0000000000000000e+00 1.0000000000000000e+02 zlo zhi

Masses

1 3.896
2 5.36
3 20.064
4 8.378
5 8.378
6 8.378
7 8.378
8 8.378

Atoms # meso-molecular

1 2 4 2.2559723595316457e+00 0.0000000000000000e+00 1.0000000000000000e+00 0.0000000000000000e+00 0.0000000000000000e+00 2.5000000000000000e+00 
2 2 4 2.2559723595316457e+00 2.6905284056253320e-08 1.0000000000000000e+00 0.0000000000000000e+00 2.0000000000000000e+00 2.5000000000000000e+00 
21 2 4 2.2559723595316457e+00 0.0000000000000000e+00 1.0000000000000000e+00 2.0000000000000000e+00 0.0000000000000000e+00 2.5000000000000000e+00 
22 2 4 2.2559723595316457e+00 1.9992635829998739e-08 1.0000000000000000e+00 2.0000000000000000e+00 2.0000000000000000e+00 2.5000000000000000e+00 
41 2 4 2.2559723595316457e+00 0.0000000000000000e+00 1.0000000000000000e+00 4.0000000000000000e+00 0.0000000000000000e+00 2.5000000000000000e+00 
42 2 4 2.2559723595316457e+00 7.4403180545604258e-09 1.0000000000000000e+00 4.0000000000000000e+00 2.0000000000000000e+00 2.5000000000000000e+00 
61 2 4 2.2559723595316457e+00 1.6957611686413610e-10 1.0000000000000000e+00 6.0000000000000000e+00 0.0000000000000000e+00 2.5000000000000000e+00 
62 2 4 2.2559723595316457e+00 2.2782859325359842e-08 1.0000000000000000e+00 6.0000000000000000e+00 2.0000000000000000e+00 2.5000000000000000e+00 
81 2 4 2.2559723595316457e+00 2.6058196163627678e-08 1.0000000000000000e+00 8.0000000000000000e+00 0.0000000000000000e+00 2.5000000000000000e+00 
82 2 4 2.2559723595316457e+00 1.8728107352374329e-11 1.0000000000000000e+00 8.0000000000000000e+00 2.0000000000000000e+00 2.5000000000000000e+00 
101 2 4 2.2559723595316457e+00 1.5274260400884443e-10 1.0000000000000000e+00 1.0000000000000000e+01 0.0000000000000000e+00 2.5000000000000000e+00 
102 2 4 2.2559723595316457e+00 1.5387827833058382e-09 1.0000000000000000e+00 1.0000000000000000e+01 2.0000000000000000e+00 2.5000000000000000e+00 
121 2 4 2.2559723595316457e+00 1.0939644686712021e-10 1.0000000000000000e+00 1.2000000000000000e+01 0.0000000000000000e+00 2.5000000000000000e+00 
122 2 4 2.2559723595316457e+00 5.2768214980308137e-08 1.0000000000000000e+00 1.2000000000000000e+01 2.0000000000000000e+00 2.5000000000000000e+00 
141 2 4 2.2559723595316457e+00 8.6171465672112462e-09 1.0000000000000000e+00 1.4000000000000000e+01 0.0000000000000000e+00 2.5000000000000000e+00 
142 2 4 2.2559723595316457e+00 4.1497177944078665e-10 1.0000000000000000e+00 1.4000000000000000e+01 2.0000000000000000e+00 2.5000000000000000e+00 
161 2 4 2.2559723595316457e+00 0.0000000000000000e+00 1.0000000000000000e+00 1.6000000000000000e+01 0.0000000000000000e+00 2.5000000000000000e+00 
162 2 4 2.2559723595316457e+00 0.0000000000000000e+00 1.0000000000000000e+00 1.6000000000000000e+01 2.0000000000000000e+00 2.5000000000000000e+00 
181 2 4 2.2559723595316457e+00 -9.8339719498118205e-09 1.0000000000000000e+00 1.8000000000000000e+01 0.0000000000000000e+00 2.5000000000000000e+00 
182 2 4 2.2559723595316457e+00 1.8179595493861820e-09 1.0000000000000000e+00 1.8000000000000000e+01 2.0000000000000000e+00 2.5000000000000000e+00 
3 2 4 2.2559723595316457e+00 0.0000000000000000e+00 1.0000000000000000e+00 0.0000000000000000e+00 4.0000000000000000e+00 2.5000000000000000e+00 
4 2 4 2.2559723595316457e+00 0.0000000000000000e+00 1.0000000000000000e+00 0.0000000000000000e+00 6.0000000000000000e+00 2.5000000000000000e+00 
23 2 4 2.2559723595316457e+00 0.0000000000000000e+00 1.0000000000000000e+00 2.0000000000000000e+00 4.0000000000000000e+00 2.5000000000000000e+00 
24 2 4 2.2559723595316457e+00 0.0000000000000000e+00 1.0000000000000000e+00 2.0000000000000000e+00 6.0000000000000000e+00 2.5000000000000000e+00 
43 2 4 2.2559723595316457e+00 6.7174774217692661e-08 1.0000000000000000e+00 4.0000000000000000e+00 4.0000000000000000e+00 2.5000000000000000e+00 
44 2 4 2.2559723595316457e+00 0.0000000000000000e+00 1.0000000000000000e+00 4.0000000000000000e+00 6.0000000000000000e+00 2.5000000000000000e+00 
63 2 4 2.2559723595316457e+00 0.0000000000000000e+00 1.0000000000000000e+00 6.0000000000000000e+00 4.0000000000000000e+00 2.5000000000000000e+00 
64 2 4 2.2559723595316457e+00 0.0000000000000000e+00 1.0000000000000000e+00 6.0000000000000000e+00 6.0000000000000000e+00 2.5000000000000000e+00 
83 2 4 2.2559723595316457e+00 0.0000000000000000e+00 1.0000000000000000e+00 8.0000000000000000e+00 4.0000000000000000e+00 2.5000000000000000e+00 
84 2 4 2.2559723595316457e+00 0.0000000000000000e+00 1.0000000000000000e+00 8.0000000000000000e+00 6.0000000000000000e+00 2.5000000000000000e+00 
103 2 4 2.2559723595316457e+00 5.6014890751286851e-08 1.0000000000000000e+00 1.0000000000000000e+01 4.0000000000000000e+00 2.5000000000000000e+00 
104 2 4 2.2559723595316457e+00 0.0000000000000000e+00 1.0000000000000000e+00 1.0000000000000000e+01 6.0000000000000000e+00 2.5000000000000000e+00 
123 2 4 2.2559723595316457e+00 6.8529845444047421e-09 1.0000000000000000e+00 1.2000000000000000e+01 4.0000000000000000e+00 2.5000000000000000e+00 
124 2 4 2.2559723595316457e+00 0.0000000000000000e+00 1.0000000000000000e+00 1.2000000000000000e+01 6.0000000000000000e+00 2.5000000000000000e+00 
143 2 4 2.2559723595316457e+00 3.8380629046402935e-08 1.0000000000000000e+00 1.4000000000000000e+01 4.0000000000000000e+00 2.5000000000000000e+00 
144 2 4 2.2559723595316457e+00 2.9727325448367613e-08 1.0000000000000000e+00 1.4000000000000000e+01 6.0000000000000000e+00 2.5000000000000000e+00 
163 2 4 2.2559723595316457e+00 0.0000000000000000e+00 1.0000000000000000e+00 1.6000000000000000e+01 4.0000000000000000e+00 2.5000000000000000e+00 
164 2 4 2.2559723595316457e+00 0.0000000000000000e+00 1.0000000000000000e+00 1.6000000000000000e+01 6.0000000000000000e+00 2.5000000000000000e+00 
183 2 4 2.2559723595316457e+00 1.1746915966023852e-07 1.0000000000000000e+00 1.8000000000000000e+01 4.0000000000000000e+00 2.5000000000000000e+00 
184 2 4 2.2559723595316457e+00 7.7494810019862559e-13 1.0000000000000000e+00 1.8000000000000000e+01 6.0000000000000000e+00 2.5000000000000000e+00 
5 2 4 2.2559723595316457e+00 0.0000000000000000e+00 1.0000000000000000e+00 0.0000000000000000e+00 8.0000000000000000e+00 2.5000000000000000e+00 
25 2 4 2.2559723595316457e+00 0.0000000000000000e+00 1.0000000000000000e+00 2.0000000000000000e+00 8.0000000000000000e+00 2.5000000000000000e+00 
45 2 4 2.2559723595316457e+00 3.5935835310026449e-08 1.0000000000000000e+00 4.0000000000000000e+00 8.0000000000000000e+00 2.5000000000000000e+00 
65 2 4 2.2559723595316457e+00 0.0000000000000000e+00 1.0000000000000000e+00 6.0000000000000000e+00 8.0000000000000000e+00 2.5000000000000000e+00 
85 2 4 2.2559723595316457e+00 0.0000000000000000e+00 1.0000000000000000e+00 8.0000000000000000e+00 8.0000000000000000e+00 2.5000000000000000e+00 
105 2 4 2.2559723595316457e+00 0.0000000000000000e+00 1.0000000000000000e+00 1.0000000000000000e+01 8.0000000000000000e+00 2.5000000000000000e+00 
125 2 4 2.2559723595316457e+00 0.0000000000000000e+00 1.0000000000000000e+00 1.2000000000000000e+01 8.0000000000000000e+00 2.5000000000000000e+00 
145 2 4 2.2559723595316457e+00 0.0000000000000000e+00 1.0000000000000000e+00 1.4000000000000000e+01 8.0000000000000000e+00 2.5000000000000000e+00 
165 2 4 2.2559723595316457e+00 -2.8051847686545900e-01 1.0000000000000000e+00 1.6000000000000000e+01 8.0000000000000000e+00 2.5000000000000000e+00 
185 2 4 2.2559723595316465e+00 -3.1375157978880580e-01 1.0000000000000000e+00 1.8000000000000000e+01 8.0000000000000000e+00 2.5000000000000000e+00 
6 2 4 2.2559723595316457e+00 0.0000000000000000e+00 1.0000000000000000e+00 0.0000000000000000e+00 1.0000000000000000e+01 2.5000000000000000e+00 
7 2 4 2.2559723595316457e+00 0.0000000000000000e+00 1.0000000000000000e+00 0.0000000000000000e+00 1.2000000000000000e+01 2.5000000000000000e+00 
26 2 4 2.2559723595316457e+00 0.0000000000000000e+00 1.0000000000000000e+00 2.0000000000000000e+00 1.0000000000000000e+01 2.5000000000000000e+00 
27 2 4 2.2559723595316457e+00 2.3135302752300146e-08 1.0000000000000000e+00 2.0000000000000000e+00 1.2000000000000000e+01 2.5000000000000000e+00 
46 2 4 2.2559723595316457e+00 6.5261721871578203e-09 1.0000000000000000e+00 4.0000000000000000e+00 1.0000000000000000e+01 2.5000000000000000e+00 
47 2 4 2.2559723595316457e+00 3.3303171935097635e-08 1.0000000000000000e+00 4.0000000000000000e+00 1.2000000000000000e+01 2.5000000000000000e+00 
66 2 4 2.2559723595316457e+00 0.0000000000000000e+00 1.0000000000000000e+00 6.0000000000000000e+00 1.0000000000000000e+01 2.5000000000000000e+00 
67 2 4 2.2559723595316461e+00 3.5808603290870876e-07 1.0000000000000000e+00 6.0000000000000000e+00 1.2000000000000000e+01 2.5000000000000000e+00 
86 2 4 2.2559723595316457e+00 0.0000000000000000e+00 1.0000000000000000e+00 8.0000000000000000e+00 1.0000000000000000e+01 2.5000000000000000e+00 
87 2 4 2.2559723595316457e+00 0.0000000000000000e+00 1.0000000000000000e+00 8.0000000000000000e+00 1.2000000000000000e+01 2.5000000000000000e+00 
106 2 4 2.2559723595316457e+00 0.0000000000000000e+00 1.0000000000000000e+00 1.0000000000000000e+01 1.0000000000000000e+01 2.5000000000000000e+00 
107 2 4 2.2559723595316457e+00 0.0000000000000000e+00 1.0000000000000000e+00 1.0000000000000000e+01 1.2000000000000000e+01 2.5000000000000000e+00 
126 2 4 2.2559723595316457e+00 0.0000000000000000e+00 1.0000000000000000e+00 1.2000000000000000e+01 1.0000000000000000e+01 2.5000000000000000e+00 
127 2 4 2.2559723595316457e+00 0.0000000000000000e+00 1.0000000000000000e+00 1.2000000000000000e+01 1.2000000000000000e+01 2.5000000000000000e+00 
146 2 4 2.2559723595316457e+00 -2.8051835056698077e-01 1.0000000000000000e+00 1.4000000000000000e+01 1.0000000000000000e+01 2.5000000000000000e+00 
147 2 4 2.2559723595316457e+00 -3.1373870098367296e-01 1.0000000000000000e+00 1.4000000000000000e+01 1.2000000000000000e+01 2.5000000000000000e+00 
166 2 4 2.2559723595316457e+00 -8.0280898985587868e+01 1.0000000000000000e+00 1.6000000000000000e+01 1.0000000000000000e+01 2.5000000000000000e+00 
167 2 4 2.2559723595316457e+00 -8.7940854669254477e+01 1.0000000000000000e+00 1.6000000000000000e+01 1.2000000000000000e+01 2.5000000000000000e+00 
186 2 4 2.2559723595316457e+00 -8.7978966479716803e+01 1.0000000000000000e+00 1.8000000000000000e+01 1.0000000000000000e+01 2.5000000000000000e+00 
187 2 4 2.2559723595316457e+00 -9.2764614764924673e+01 1.0000000000000000e+00 1.8000000000000000e+01 1.2000000000000000e+01 2.5000000000000000e+00 
8 2 4 2.2559723595316457e+00 5.0619918075585435e-08 1.0000000000000000e+00 0.0000000000000000e+00 1.4000000000000000e+01 2.5000000000000000e+00 
9 2 4 2.2559723595316457e+00 0.0000000000000000e+00 1.0000000000000000e+00 0.0000000000000000e+00 1.6000000000000000e+01 2.5000000000000000e+00 
28 2 4 2.2559723595316457e+00 0.0000000000000000e+00 1.0000000000000000e+00 2.0000000000000000e+00 1.4000000000000000e+01 2.5000000000000000e+00 
29 2 4 2.2559723595316457e+00 0.0000000000000000e+00 1.0000000000000000e+00 2.0000000000000000e+00 1.6000000000000000e+01 2.5000000000000000e+00 
48 2 4 2.2559723595316457e+00 0.0000000000000000e+00 1.0000000000000000e+00 4.0000000000000000e+00 1.4000000000000000e+01 2.5000000000000000e+00 
49 2 4 2.2559723595316457e+00 0.0000000000000000e+00 1.0000000000000000e+00 4.0000000000000000e+00 1.6000000000000000e+01 2.5000000000000000e+00 
68 2 4 2.2559723595316457e+00 0.0000000000000000e+00 1.0000000000000000e+00 6.0000000000000000e+00 1.4000000000000000e+01 2.5000000000000000e+00 
69 2 4 2.2559723595316457e+00 0.0000000000000000e+00 1.0000000000000000e+00 6.0000000000000000e+00 1.6000000000000000e+01 2.5000000000000000e+00 
88 2 4 2.2559723595316457e+00 0.0000000000000000e+00 1.0000000000000000e+00 8.0000000000000000e+00 1.4000000000000000e+01 2.5000000000000000e+00 
89 2 4 2.2559723595316457e+00 0.0000000000000000e+00 1.0000000000000000e+00 8.0000000000000000e+00 1.6000000000000000e+01 2.5000000000000000e+00 
108 2 4 2.2559723595316457e+00 0.0000000000000000e+00 1.0000000000000000e+00 1.0000000000000000e+01 1.4000000000000000e+01 2.5000000000000000e+00 
109 2 4 2.2559723595316457e+00 0.0000000000000000e+00 1.0000000000000000e+00 1.0000000000000000e+01 1.6000000000000000e+01 2.5000000000000000e+00 
128 2 4 2.2559723595316457e+00 0.0000000000000000e+00 1.0000000000000000e+00 1.2000000000000000e+01 1.4000000000000000e+01 2.5000000000000000e+00 
129 2 4 2.2559723595316457e+00 0.0000000000000000e+00 1.0000000000000000e+00 1.2000000000000000e+01 1.6000000000000000e+01 2.5000000000000000e+00 
148 2 4 2.2559723595316457e+00 -3.1389872723247375e-01 1.0000000000000000e+00 1.4000000000000000e+01 1.4000000000000000e+01 2.5000000000000000e+00 
149 2 4 2.2559723595316457e+00 -3.1388874575799408e-01 1.0000000000000000e+00 1.4000000000000000e+01 1.6000000000000000e+01 2.5000000000000000e+00 
168 2 4 2.2559723595316457e+00 -8.7587094626929755e+01 1.0000000000000000e+00 1.6000000000000000e+01 1.4000000000000000e+01 2.5000000000000000e+00 
169 2 4 2.2559723595316457e+00 -8.7550841762826508e+01 1.0000000000000000e+00 1.6000000000000000e+01 1.6000000000000000e+01 2.5000000000000000e+00 
188 2 4 2.2559723595316474e+00 -9.2474967212529094e+01 1.0000000000000000e+00 1.8000000000000000e+01 1.4000000000000000e+01 2.5000000000000000e+00 
189 2 4 2.2559723595316457e+00 -9.2461949143310122e+01 1.0000000000000000e+00 1.8000000000000000e+01 1.6000000000000000e+01 2.5000000000000000e+00 
10 2 4 2.2559723595316457e+00 -3.5454073279433895e-02 1.0000000000000000e+00 0.0000000000000000e+00 1.8000000000000000e+01 2.5000000000000000e+00 
30 2 4 2.2559723595316457e+00 2.2797663821585725e-05 1.0000000000000000e+00 2.0000000000000000e+00 1.8000000000000000e+01 2.5000000000000000e+00 
50 2 4 2.2559723595316457e+00 7.1892014404366828e-07 1.0000000000000000e+00 4.0000000000000000e+00 1.8000000000000000e+01 2.5000000000000000e+00 
70 2 4 2.2559723595316457e+00 1.0753761666158675e-07 1.0000000000000000e+00 6.0000000000000000e+00 1.8000000000000000e+01 2.5000000000000000e+00 
90 2 4 2.2559723595316457e+00 0.0000000000000000e+00 1.0000000000000000e+00 8.0000000000000000e+00 1.8000000000000000e+01 2.5000000000000000e+00 
110 2 4 2.2559723595316457e+00 0.0000000000000000e+00 1.0000000000000000e+00 1.0000000000000000e+01 1.8000000000000000e+01 2.5000000000000000e+00 
130 2 4 2.2559723595316457e+00 -3.6600050587722267e-08 1.0000000000000000e+00 1.2000000000000000e+01 1.8000000000000000e+01 2.5000000000000000e+00 
150 2 4 2.2559723595316457e+00 -3.1389925266952867e-01 1.0000000000000000e+00 1.4000000000000000e+01 1.8000000000000000e+01 2.5000000000000000e+00 
170 2 4 2.2559723595316457e+00 -8.7573401027261710e+01 1.0000000000000000e+00 1.6000000000000000e+01 1.8000000000000000e+01 2.5000000000000000e+00 
190 2 4 2.2559723595316457e+00 -9.2478897605430063e+01 1.0000000000000000e+00 1.8000000000000000e+01 1.8000000000000000e+01 2.5000000000000000e+00 
2044 1646 2 1.0280000175203223e+00 -2.4952037517647805e+03 1.0000000000000000e+00 5.0741268753159907e-01 1.3207999761771581e+00 7.4273234848870215e+00 
441 43 2 1.0280000313846709e+00 -8.2244152607077594e+03 1.0000000000000000e+00 1.9721327762958021e+00 2.7216409251005840e+00 7.4472810617825216e+00 
1640 1242 2 1.0280000079066627e+00 8.2936704855854805e+03 1.0000000000000000e+00 1.1173983128725080e-01 1.1847763348681861e+00 7.4316028750238488e+00 
941 543 2 1.0279999956886239e+00 -4.5280093529929167e+02 1.0000000000000000e+00 2.2484110192035094e+00 1.2836468468310647e+00 7.6402821002206833e+00 
1013 615 2 1.0279999931523265e+00 2.4229154901135635e+03 1.0000000000000000e+00 2.1025724718285294e-01 7.0665066960254075e-01 7.5630432173538127e+00 
715 317 2 1.0280000069323632e+00 -5.2521390231827695e+02 1.0000000000000000e+00 2.9496800062129185e+00 1.1134604518131150e+00 8.0971115262532933e+00 
1949 1551 2 1.0279999977581951e+00 -3.4966505864463934e+03 1.0000000000000000e+00 2.1979173484189283e+00 3.1705375374649853e+00 8.5452012589781816e+00 
474 76 2 1.0280000020468232e+00 9.3120614136811801e+03 1.0000000000000000e+00 2.2003179677542555e+00 1.2949122996638600e+00 8.6124586992925529e+00 
1561 1163 2 1.0279999976547953e+00 4.3560670329664990e+03 1.0000000000000000e+00 2.0866747610997090e+00 2.8944675032934866e+00 8.6670389107803665e+00 
846 448 2 1.0279999973559255e+00 -2.1778750547766340e+03 1.0000000000000000e+00 1.2536803521646616e+00 2.6732064922753125e+00 8.8440344952705967e+00 
829 431 2 1.0279999970103317e+00 6.3223268290834221e+03 1.0000000000000000e+00 1.9421572525187402e-03 3.1589838720495136e+00 8.9785913243563531e+00 
1368 970 2 1.0279999986194581e+00 -6.1238830738476383e+02 1.0000000000000000e+00 3.0186788774138817e-01 9.7962335953690982e-01 9.5599386166783535e+00 
635 237 2 1.0279999872153649e+00 -1.0385624016608863e+03 1.0000000000000000e+00 5.3464791675744721e+00 8.3376330114524777e-01 7.4344041737963442e+00 
937 539 2 1.0279999688105024e+00 3.2447790405713204e+03 1.0000000000000000e+00 3.9295027500162347e+00 1.0872113718028382e+00 7.6853187334364224e+00 
1542 1144 2 1.0280000114467305e+00 -2.0242834091008408e+03 1.0000000000000000e+00 4.1876425685615475e+00 2.9294123320701422e+00 7.4090649894436638e+00 
972 574 2 1.0279999929542536e+00 4.5467610026906177e+03 1.0000000000000000e+00 3.5562928209870250e+00 1.1436553275805963e+00 8.0324291019792575e+00 
1322 924 2 1.0279999948862986e+00 -5.3975355285574665e+02 1.0000000000000000e+00 3.4851795074016643e+00 1.1602515738280301e+00 8.0535421663950455e+00 
1933 1535 2 1.0279999945423119e+00 4.3946722625786642e+03 1.0000000000000000e+00 8.8200596770876842e+00 6.0718046258107250e-01 7.5416053664870830e+00 
2038 1640 2 1.0279999986427477e+00 3.4163956722362541e+03 1.0000000000000000e+00 8.7036097596217346e+00 6.3862943531997107e-01 7.5047014074031093e+00 
984 586 2 1.0279999894091463e+00 3.3416103985153713e+03 1.0000000000000000e+00 8.8187551420004446e+00 7.4442397780559155e-01 7.5601050377271886e+00 
1948 1550 2 1.0279999707406104e+00 1.6629432154201679e+03 1.0000000000000000e+00 9.0611284995066299e+00 1.3118544858999006e+00 7.6927733715758047e+00 
1290 892 2 1.0280000624828656e+00 1.4051470657412272e+03 1.0000000000000000e+00 8.2037591287011935e+00 9.7574491548627684e-01 7.3993817653596032e+00 
1006 608 2 1.0280000690880435e+00 -3.4553148669175209e+02 1.0000000000000000e+00 6.7718263500954627e+00 1.1421628446650767e+00 7.3647098518711447e+00 
1172 774 2 1.0279999790517225e+00 -9.6651199690962278e+02 1.0000000000000000e+00 6.7324606945130814e+00 2.2892412829122777e+00 7.6597968240630054e+00 
1504 1106 2 1.0279999435340024e+00 3.0770427497813134e+03 1.0000000000000000e+00 6.7241115173694519e+00 2.5002300255429564e+00 7.7753750551072054e+00 
483 85 2 1.0280000057207339e+00 5.7689028640761808e+03 1.0000000000000000e+00 7.9131173473572423e+00 2.7538967046343781e+00 8.1243427366912950e+00 
639 241 2 1.0280000331971577e+00 -2.3099850130860714e+03 1.0000000000000000e+00 6.8911418824444350e+00 2.8091968982500539e+00 7.8860464545038518e+00 
1359 961 2 1.0280000098457232e+00 -7.9728267679280407e+02 1.0000000000000000e+00 7.3726199922765696e+00 2.7856351589692006e+00 8.0566722282429843e+00 
1882 1484 2 1.0279999894830814e+00 -8.3597246984982885e+03 1.0000000000000000e+00 1.0721589341354997e+01 1.0284520632638141e+00 7.5104770859685264e+00 
1829 1431 2 1.0280000358395240e+00 -7.2461378976516480e+03 1.0000000000000000e+00 1.2780572502391264e+01 1.8244938715486172e+00 7.4352947093789465e+00 
1958 1560 2 1.0279999853951738e+00 3.5796143957393510e+03 1.0000000000000000e+00 1.0539267296854423e+01 1.0636213761563660e+00 7.5739702055284859e+00 
1792 1394 2 1.0280000326085650e+00 -3.2020103001493444e+03 1.0000000000000000e+00 1.2741302738930811e+01 1.9418242798855727e+00 7.4441285563214343e+00 
631 233 2 1.0279999985482913e+00 -4.4525425013141794e+03 1.0000000000000000e+00 1.2862111400222730e+01 1.7874674828549943e+00 7.4664665813829361e+00 
430 32 2 1.0279999965203765e+00 1.8994524854876197e+03 1.0000000000000000e+00 1.2905702029478642e+01 1.8310138560511542e+00 8.1623780187466135e+00 
451 53 2 1.0279999946886045e+00 6.1873412301552808e+03 1.0000000000000000e+00 1.1745500501473421e+01 9.1906316278028000e-01 8.3255477868907519e+00 
1227 829 2 1.0279999908209054e+00 -5.3285416997905704e+03 1.0000000000000000e+00 1.1870073383404236e+01 2.8224509701156322e+00 8.6557826558009019e+00 
1976 1578 2 1.0280000007350005e+00 -2.5432545297820025e+03 1.0000000000000000e+00 1.3221749586888677e+01 1.2648735255019348e+00 7.4055905920192249e+00 
712 314 2 1.0280000011532837e+00 -1.4221958685920420e+03 1.0000000000000000e+00 1.4322194182337100e+01 3.5354050465582254e-01 7.5483797481622981e+00 
1955 1557 2 1.0279999997730644e+00 3.0226198107742175e+03 1.0000000000000000e+00 1.4091622126305417e+01 5.3623695031773777e-01 7.5265749031368445e+00 
663 265 2 1.0280000019856756e+00 -1.4152991960929639e+03 1.0000000000000000e+00 1.4436298307998964e+01 2.6763363810534857e-01 7.5484632982376523e+00 
1228 830 2 1.0280000035492094e+00 2.1095986419651722e+03 1.0000000000000000e+00 1.4699832364647863e+01 8.3155120299692631e-02 7.5266612069941141e+00 
1696 1298 2 1.0280000127019102e+00 7.3888791301656784e+03 1.0000000000000000e+00 1.5036470294555599e+01 2.5570541153850422e-03 7.6661831690121325e+00 
1170 772 2 1.0279999957320813e+00 1.0554550614393147e+03 1.0000000000000000e+00 1.9020558084373715e+01 8.3056731366025016e-01 7.6051583044161388e+00 
1171 773 2 1.0279999957320813e+00 1.0554567901100620e+03 1.0000000000000000e+00 1.9020558084373945e+01 8.3056731366039382e-01 7.6051583044161495e+00 
1118 720 2 1.0280000042264463e+00 -2.2763989340410922e+02 1.0000000000000000e+00 1.7613366233112529e+01 1.3443209849471929e+00 8.4629107345474779e+00 
1442 1044 2 1.0280000011586978e+00 -9.6024063061443678e+02 1.0000000000000000e+00 1.9727284854857100e+01 1.0207008604502266e+00 9.3378249617951248e+00 
1443 1045 2 1.0280000013842900e+00 -9.6023229778299981e+02 1.0000000000000000e+00 1.8285715538791273e+01 1.0198367818015543e+00 9.3524720095544449e+00 
583 185 2 1.0280000029946361e+00 -5.3787122955306204e+03 1.0000000000000000e+00 1.7939351551757849e+01 1.9838759005644664e+00 8.8921725256182196e+00 
1125 727 2 1.0280000007392109e+00 -2.3902333691944364e+02 1.0000000000000000e+00 1.9621070094779306e+01 1.7178732036073940e+00 9.3804132088189984e+00 
1128 730 2 1.0280000009512593e+00 -2.3902629517943478e+02 1.0000000000000000e+00 1.8387163588179632e+01 1.7204887790200665e+00 9.3878571021888888e+00 
966 568 2 1.0280000008242169e+00 -5.1415902289330336e+02 1.0000000000000000e+00 1.9663827143858878e+01 2.0082111061149730e+00 9.3328156557616868e+00 
967 569 2 1.0280000010084387e+00 -5.1416560227714251e+02 1.0000000000000000e+00 1.8342600655384910e+01 2.0110599712016102e+00 9.3373847480002414e+00 
1689 1291 2 1.0279999999069618e+00 8.3850980107222913e+03 1.0000000000000000e+00 1.7065209381820704e+01 1.9093153482411898e-01 7.8620462049408957e+00 
1833 1435 2 1.0280000002560219e+00 -7.2309461305840841e+03 1.0000000000000000e+00 1.6961356953923488e+01 6.1131717489344629e-02 7.8087939060689155e+00 
2011 1613 2 1.0279999991404651e+00 7.1000227382577268e+03 1.0000000000000000e+00 1.7867058453491183e-01 3.6259843801505047e+00 7.8967692881974916e+00 
1856 1458 2 1.0279999758108382e+00 -3.2408815752744922e+03 1.0000000000000000e+00 3.1591941278719262e+00 6.6236347355902785e+00 7.4209425118821031e+00 
1800 1402 2 1.0280001006215909e+00 -6.6518635970874511e+03 1.0000000000000000e+00 3.8624485866266354e+00 3.5147664880806149e+00 7.4740657238508001e+00 
1319 921 2 1.0280000127767530e+00 8.1024702139251860e+02 1.0000000000000000e+00 5.3693052602925002e+00 3.3942990889721223e+00 8.1488072690980573e+00 
1168 770 2 1.0279999892847629e+00 1.0979870080467631e+03 1.0000000000000000e+00 5.4833965120890520e+00 3.4842612605224739e+00 7.7531173778965083e+00 
1710 1312 2 1.0279999763807388e+00 -1.4649757804536043e+03 1.0000000000000000e+00 3.7255374697038151e+00 5.0125731192807201e+00 7.6811630562210809e+00 
1898 1500 2 1.0280000203094040e+00 -2.6757805684623609e+03 1.0000000000000000e+00 3.8112363513185432e+00 4.7676838169529825e+00 8.0942555506220533e+00 
1492 1094 2 1.0279999375360447e+00 8.4597071079281886e+03 1.0000000000000000e+00 3.5397882504846745e+00 4.7369086290165319e+00 7.8724458511630653e+00 
531 133 2 1.0279999476731707e+00 3.4809446424802891e+03 1.0000000000000000e+00 3.5371343935137065e+00 4.8418119351527507e+00 7.8626417424727872e+00 
2002 1604 2 1.0280000311059008e+00 6.7134826678932004e+03 1.0000000000000000e+00 3.6964593920853726e+00 5.3858580491924277e+00 8.1154564765859494e+00 
1248 850 2 1.0280000758832308e+00 -3.9521742299862086e+02 1.0000000000000000e+00 4.0330777134342908e+00 6.4378498179981420e+00 7.9953097281515078e+00 
674 276 2 1.0279999772576407e+00 -3.8865635858189589e+03 1.0000000000000000e+00 7.3631748332588822e+00 4.3563197752303342e+00 7.9075724917984545e+00 
1044 646 2 1.0280000055728200e+00 -1.0020008346495470e+03 1.0000000000000000e+00 7.0661684738229864e+00 4.5686452610125450e+00 8.4568158259701054e+00 
2024 1626 2 1.0280000422598174e+00 -1.7035702307683557e+03 1.0000000000000000e+00 6.8451246358923585e+00 4.8972668780799280e+00 8.4806647582580297e+00 
647 249 2 1.0280000032154828e+00 -4.2330657069278805e+03 1.0000000000000000e+00 7.1193588861285741e+00 6.3566706680462426e+00 8.2962788597199904e+00 
1207 809 2 1.0280000167615790e+00 -1.8162671499491598e+03 1.0000000000000000e+00 6.9886565861930698e+00 6.4224011042265614e+00 8.9225608113284309e+00 
823 425 2 1.0280000071416964e+00 -1.0132154297920641e+03 1.0000000000000000e+00 7.1002624470213194e+00 6.4770836036188948e+00 9.0650686282548953e+00 
1817 1419 2 1.0280000040821904e+00 -9.0531516011446056e+03 1.0000000000000000e+00 7.1590476839746948e+00 6.5189452124713201e+00 9.1244892110560194e+00 
625 227 2 1.0279999926836503e+00 -1.5085110449711640e+03 1.0000000000000000e+00 7.7764449645941074e+00 5.9179803383841314e+00 9.2399937961487062e+00 
1755 1357 2 1.0279999991031050e+00 -2.4963379784856879e+03 1.0000000000000000e+00 9.8243679313766368e+00 4.2153012544167137e+00 7.4921408396061837e+00 
751 353 2 1.0280000063331241e+00 -1.1344259618147046e+03 1.0000000000000000e+00 1.0046926828187871e+01 4.3676207277974450e+00 7.4860677233807102e+00 
1387 989 2 1.0280000069573567e+00 -2.3497852115439837e+03 1.0000000000000000e+00 1.1187585589801536e+01 4.9629997682244174e+00 7.3384697977613067e+00 
2049 1651 2 1.0280000098305622e+00 1.8859534555586868e+03 1.0000000000000000e+00 1.0158593798886951e+01 4.4360761028187383e+00 7.4782233541160226e+00 
957 559 2 1.0280000215472536e+00 1.4921769464401098e+03 1.0000000000000000e+00 1.0553114202017710e+01 4.6444348045770454e+00 7.4270845985728231e+00 
1619 1221 2 1.0280000155558104e+00 -2.4926103793061620e+03 1.0000000000000000e+00 1.0343035208220876e+01 4.5398847785858250e+00 7.4586859904940068e+00 
520 122 2 1.0280000096131894e+00 -5.5896904183332445e+03 1.0000000000000000e+00 1.0151722817310709e+01 4.4319923788823283e+00 7.4787947145620191e+00 
866 468 2 1.0280000144924544e+00 -2.1138965050447468e+03 1.0000000000000000e+00 1.0308207769506074e+01 4.5211255248954982e+00 7.4629837721899612e+00 
1688 1290 2 1.0279999921657088e+00 9.2913600031698843e+03 1.0000000000000000e+00 1.0842203924318481e+01 3.9482095008412887e+00 8.6899746952522978e+00 
633 235 2 1.0279999926786472e+00 -8.5284778202030338e+03 1.0000000000000000e+00 1.2581150558926693e+01 3.8823844916844168e+00 9.0100164754814465e+00 
1357 959 2 1.0279999952617593e+00 2.7696943905480390e+02 1.0000000000000000e+00 1.2784941722978266e+01 4.8068970130007429e+00 9.1530817630817563e+00 
1802 1404 2 1.0279999954131835e+00 -4.7558813160646878e+03 1.0000000000000000e+00 1.2949952837788201e+01 4.9710668687837583e+00 9.1536231694720662e+00 
741 343 2 1.0279999974507270e+00 2.5953881517445197e+03 1.0000000000000000e+00 1.2906704984928876e+01 5.4314779483973057e+00 9.1593041671632243e+00 
1484 1086 2 1.0280000004362939e+00 5.2289636451091428e+03 1.0000000000000000e+00 1.2715131945451539e+01 5.7639117254669152e+00 9.1207178381851524e+00 
1022 624 2 1.0279999946306182e+00 4.0186047540718545e+02 1.0000000000000000e+00 1.3108832182402791e+01 4.8570766250473953e+00 9.1251443297246198e+00 
409 11 2 1.0280000421295195e+00 3.7183089407885609e+03 1.0000000000000000e+00 1.3830665704133713e+01 4.6570912555101316e+00 7.4533816971328291e+00 
1724 1326 2 1.0279999965604298e+00 8.8324932572554153e+03 1.0000000000000000e+00 1.3909443445206907e+01 4.7917084711524991e+00 7.4418201542876998e+00 
1615 1217 2 1.0280000345531193e+00 -2.4576182761288906e+03 1.0000000000000000e+00 1.4244369530591403e+01 5.2230532002395442e+00 7.4328857304950278e+00 
962 564 2 1.0279999962544941e+00 1.4353910748485948e+03 1.0000000000000000e+00 1.4331561933182522e+01 5.0554518719861390e+00 7.5219278546624473e+00 
473 75 2 1.0279999955613117e+00 -7.2894385995603352e+03 1.0000000000000000e+00 1.4859978236337252e+01 5.1822005538687153e+00 7.7185922820137360e+00 
964 566 2 1.0280000008028045e+00 3.8601848378483660e+03 1.0000000000000000e+00 1.5319371895929701e+01 5.4862941566607724e+00 7.7239211573086388e+00 
1307 909 2 1.0280000186364711e+00 -7.1562135904145680e+02 1.0000000000000000e+00 1.5663977088770343e+01 6.2978427125132015e+00 7.6047816348654615e+00 
730 332 2 1.0279999940915607e+00 -1.1503963648292474e+04 1.0000000000000000e+00 1.6222521740491608e+01 6.2776110993978760e+00 8.6463576738669037e+00 
1558 1160 2 1.0280000830480565e+00 -2.7271133489674903e+03 1.0000000000000000e+00 1.8999850674823477e+01 4.9361387761395630e+00 7.3083097504469343e+00 
1559 1161 2 1.0280000830480582e+00 -2.7271145947884443e+03 1.0000000000000000e+00 1.8999850674823474e+01 4.9361387761396651e+00 7.3083097504469183e+00 
1652 1254 2 1.0279999973066807e+00 9.4196956224450150e+03 1.0000000000000000e+00 1.7837383347174708e+01 4.4070688827824105e+00 7.7975243527208908e+00 