LAMMPS data file via write_data, version 30 Jul 2016, timestep = 50400000

2080 atoms
8 atom types

0.0000000000000000e+00 4.0000000000000000e+01 xlo xhi
0.0000000000000000e+00 4.0000000000000000e+01 ylo yhi
0.0000000000000000e+00 1.0000000000000000e+02 zlo zhi

Masses

1 3.896
2 5.36
3 20.064
4 8.378
5 8.378
6 8.378
7 8.378
8 8.378

Atoms # meso-molecular

1 2 4 2.2559723595316457e+00 0.0000000000000000e+00 1.0000000000000000e+00 0.0000000000000000e+00 0.0000000000000000e+00 2.5000000000000000e+00 
2 2 4 2.2559723595316457e+00 2.7106742867870708e-08 1.0000000000000000e+00 0.0000000000000000e+00 2.0000000000000000e+00 2.5000000000000000e+00 
21 2 4 2.2559723595316457e+00 0.0000000000000000e+00 1.0000000000000000e+00 2.0000000000000000e+00 0.0000000000000000e+00 2.5000000000000000e+00 
22 2 4 2.2559723595316457e+00 1.9283995283311561e-08 1.0000000000000000e+00 2.0000000000000000e+00 2.0000000000000000e+00 2.5000000000000000e+00 
41 2 4 2.2559723595316457e+00 0.0000000000000000e+00 1.0000000000000000e+00 4.0000000000000000e+00 0.0000000000000000e+00 2.5000000000000000e+00 
42 2 4 2.2559723595316457e+00 6.4449102458659576e-09 1.0000000000000000e+00 4.0000000000000000e+00 2.0000000000000000e+00 2.5000000000000000e+00 
61 2 4 2.2559723595316457e+00 1.6957611686413610e-10 1.0000000000000000e+00 6.0000000000000000e+00 0.0000000000000000e+00 2.5000000000000000e+00 
62 2 4 2.2559723595316457e+00 2.4036389255342684e-08 1.0000000000000000e+00 6.0000000000000000e+00 2.0000000000000000e+00 2.5000000000000000e+00 
81 2 4 2.2559723595316457e+00 2.7333352931742231e-08 1.0000000000000000e+00 8.0000000000000000e+00 0.0000000000000000e+00 2.5000000000000000e+00 
82 2 4 2.2559723595316457e+00 1.8728107352374329e-11 1.0000000000000000e+00 8.0000000000000000e+00 2.0000000000000000e+00 2.5000000000000000e+00 
101 2 4 2.2559723595316457e+00 1.5274260400884443e-10 1.0000000000000000e+00 1.0000000000000000e+01 0.0000000000000000e+00 2.5000000000000000e+00 
102 2 4 2.2559723595316457e+00 1.5387827833058382e-09 1.0000000000000000e+00 1.0000000000000000e+01 2.0000000000000000e+00 2.5000000000000000e+00 
121 2 4 2.2559723595316457e+00 1.0939644686712021e-10 1.0000000000000000e+00 1.2000000000000000e+01 0.0000000000000000e+00 2.5000000000000000e+00 
122 2 4 2.2559723595316457e+00 5.2899341241479540e-08 1.0000000000000000e+00 1.2000000000000000e+01 2.0000000000000000e+00 2.5000000000000000e+00 
141 2 4 2.2559723595316457e+00 8.6171465672112462e-09 1.0000000000000000e+00 1.4000000000000000e+01 0.0000000000000000e+00 2.5000000000000000e+00 
142 2 4 2.2559723595316457e+00 4.1497177944078665e-10 1.0000000000000000e+00 1.4000000000000000e+01 2.0000000000000000e+00 2.5000000000000000e+00 
161 2 4 2.2559723595316457e+00 0.0000000000000000e+00 1.0000000000000000e+00 1.6000000000000000e+01 0.0000000000000000e+00 2.5000000000000000e+00 
162 2 4 2.2559723595316457e+00 0.0000000000000000e+00 1.0000000000000000e+00 1.6000000000000000e+01 2.0000000000000000e+00 2.5000000000000000e+00 
181 2 4 2.2559723595316457e+00 -9.8339719498118205e-09 1.0000000000000000e+00 1.8000000000000000e+01 0.0000000000000000e+00 2.5000000000000000e+00 
182 2 4 2.2559723595316457e+00 1.8179595493861820e-09 1.0000000000000000e+00 1.8000000000000000e+01 2.0000000000000000e+00 2.5000000000000000e+00 
3 2 4 2.2559723595316457e+00 0.0000000000000000e+00 1.0000000000000000e+00 0.0000000000000000e+00 4.0000000000000000e+00 2.5000000000000000e+00 
4 2 4 2.2559723595316457e+00 0.0000000000000000e+00 1.0000000000000000e+00 0.0000000000000000e+00 6.0000000000000000e+00 2.5000000000000000e+00 
23 2 4 2.2559723595316457e+00 0.0000000000000000e+00 1.0000000000000000e+00 2.0000000000000000e+00 4.0000000000000000e+00 2.5000000000000000e+00 
24 2 4 2.2559723595316457e+00 0.0000000000000000e+00 1.0000000000000000e+00 2.0000000000000000e+00 6.0000000000000000e+00 2.5000000000000000e+00 
43 2 4 2.2559723595316457e+00 6.9577412327153771e-08 1.0000000000000000e+00 4.0000000000000000e+00 4.0000000000000000e+00 2.5000000000000000e+00 
44 2 4 2.2559723595316457e+00 0.0000000000000000e+00 1.0000000000000000e+00 4.0000000000000000e+00 6.0000000000000000e+00 2.5000000000000000e+00 
63 2 4 2.2559723595316457e+00 0.0000000000000000e+00 1.0000000000000000e+00 6.0000000000000000e+00 4.0000000000000000e+00 2.5000000000000000e+00 
64 2 4 2.2559723595316457e+00 0.0000000000000000e+00 1.0000000000000000e+00 6.0000000000000000e+00 6.0000000000000000e+00 2.5000000000000000e+00 
83 2 4 2.2559723595316457e+00 0.0000000000000000e+00 1.0000000000000000e+00 8.0000000000000000e+00 4.0000000000000000e+00 2.5000000000000000e+00 
84 2 4 2.2559723595316457e+00 0.0000000000000000e+00 1.0000000000000000e+00 8.0000000000000000e+00 6.0000000000000000e+00 2.5000000000000000e+00 
103 2 4 2.2559723595316457e+00 5.5863482081600100e-08 1.0000000000000000e+00 1.0000000000000000e+01 4.0000000000000000e+00 2.5000000000000000e+00 
104 2 4 2.2559723595316457e+00 0.0000000000000000e+00 1.0000000000000000e+00 1.0000000000000000e+01 6.0000000000000000e+00 2.5000000000000000e+00 
123 2 4 2.2559723595316457e+00 6.5372441747754235e-09 1.0000000000000000e+00 1.2000000000000000e+01 4.0000000000000000e+00 2.5000000000000000e+00 
124 2 4 2.2559723595316457e+00 0.0000000000000000e+00 1.0000000000000000e+00 1.2000000000000000e+01 6.0000000000000000e+00 2.5000000000000000e+00 
143 2 4 2.2559723595316457e+00 3.6334571531839130e-08 1.0000000000000000e+00 1.4000000000000000e+01 4.0000000000000000e+00 2.5000000000000000e+00 
144 2 4 2.2559723595316457e+00 3.0655445238888118e-08 1.0000000000000000e+00 1.4000000000000000e+01 6.0000000000000000e+00 2.5000000000000000e+00 
163 2 4 2.2559723595316457e+00 0.0000000000000000e+00 1.0000000000000000e+00 1.6000000000000000e+01 4.0000000000000000e+00 2.5000000000000000e+00 
164 2 4 2.2559723595316457e+00 0.0000000000000000e+00 1.0000000000000000e+00 1.6000000000000000e+01 6.0000000000000000e+00 2.5000000000000000e+00 
183 2 4 2.2559723595316457e+00 1.1046017155428307e-07 1.0000000000000000e+00 1.8000000000000000e+01 4.0000000000000000e+00 2.5000000000000000e+00 
184 2 4 2.2559723595316457e+00 7.7494810019862559e-13 1.0000000000000000e+00 1.8000000000000000e+01 6.0000000000000000e+00 2.5000000000000000e+00 
5 2 4 2.2559723595316457e+00 0.0000000000000000e+00 1.0000000000000000e+00 0.0000000000000000e+00 8.0000000000000000e+00 2.5000000000000000e+00 
25 2 4 2.2559723595316457e+00 0.0000000000000000e+00 1.0000000000000000e+00 2.0000000000000000e+00 8.0000000000000000e+00 2.5000000000000000e+00 
45 2 4 2.2559723595316457e+00 3.5850450127911641e-08 1.0000000000000000e+00 4.0000000000000000e+00 8.0000000000000000e+00 2.5000000000000000e+00 
65 2 4 2.2559723595316457e+00 0.0000000000000000e+00 1.0000000000000000e+00 6.0000000000000000e+00 8.0000000000000000e+00 2.5000000000000000e+00 
85 2 4 2.2559723595316457e+00 0.0000000000000000e+00 1.0000000000000000e+00 8.0000000000000000e+00 8.0000000000000000e+00 2.5000000000000000e+00 
105 2 4 2.2559723595316457e+00 0.0000000000000000e+00 1.0000000000000000e+00 1.0000000000000000e+01 8.0000000000000000e+00 2.5000000000000000e+00 
125 2 4 2.2559723595316457e+00 0.0000000000000000e+00 1.0000000000000000e+00 1.2000000000000000e+01 8.0000000000000000e+00 2.5000000000000000e+00 
145 2 4 2.2559723595316457e+00 0.0000000000000000e+00 1.0000000000000000e+00 1.4000000000000000e+01 8.0000000000000000e+00 2.5000000000000000e+00 
165 2 4 2.2559723595316457e+00 -2.8051847686545900e-01 1.0000000000000000e+00 1.6000000000000000e+01 8.0000000000000000e+00 2.5000000000000000e+00 
185 2 4 2.2559723595316465e+00 -3.1375152713543758e-01 1.0000000000000000e+00 1.8000000000000000e+01 8.0000000000000000e+00 2.5000000000000000e+00 
6 2 4 2.2559723595316457e+00 0.0000000000000000e+00 1.0000000000000000e+00 0.0000000000000000e+00 1.0000000000000000e+01 2.5000000000000000e+00 
7 2 4 2.2559723595316457e+00 0.0000000000000000e+00 1.0000000000000000e+00 0.0000000000000000e+00 1.2000000000000000e+01 2.5000000000000000e+00 
26 2 4 2.2559723595316457e+00 0.0000000000000000e+00 1.0000000000000000e+00 2.0000000000000000e+00 1.0000000000000000e+01 2.5000000000000000e+00 
27 2 4 2.2559723595316457e+00 2.3242475950836448e-08 1.0000000000000000e+00 2.0000000000000000e+00 1.2000000000000000e+01 2.5000000000000000e+00 
46 2 4 2.2559723595316457e+00 6.4585871438171997e-09 1.0000000000000000e+00 4.0000000000000000e+00 1.0000000000000000e+01 2.5000000000000000e+00 
47 2 4 2.2559723595316457e+00 3.3735655989520258e-08 1.0000000000000000e+00 4.0000000000000000e+00 1.2000000000000000e+01 2.5000000000000000e+00 
66 2 4 2.2559723595316457e+00 0.0000000000000000e+00 1.0000000000000000e+00 6.0000000000000000e+00 1.0000000000000000e+01 2.5000000000000000e+00 
67 2 4 2.2559723595316461e+00 3.5731532862798188e-07 1.0000000000000000e+00 6.0000000000000000e+00 1.2000000000000000e+01 2.5000000000000000e+00 
86 2 4 2.2559723595316457e+00 0.0000000000000000e+00 1.0000000000000000e+00 8.0000000000000000e+00 1.0000000000000000e+01 2.5000000000000000e+00 
87 2 4 2.2559723595316457e+00 0.0000000000000000e+00 1.0000000000000000e+00 8.0000000000000000e+00 1.2000000000000000e+01 2.5000000000000000e+00 
106 2 4 2.2559723595316457e+00 0.0000000000000000e+00 1.0000000000000000e+00 1.0000000000000000e+01 1.0000000000000000e+01 2.5000000000000000e+00 
107 2 4 2.2559723595316457e+00 0.0000000000000000e+00 1.0000000000000000e+00 1.0000000000000000e+01 1.2000000000000000e+01 2.5000000000000000e+00 
126 2 4 2.2559723595316457e+00 0.0000000000000000e+00 1.0000000000000000e+00 1.2000000000000000e+01 1.0000000000000000e+01 2.5000000000000000e+00 
127 2 4 2.2559723595316457e+00 0.0000000000000000e+00 1.0000000000000000e+00 1.2000000000000000e+01 1.2000000000000000e+01 2.5000000000000000e+00 
146 2 4 2.2559723595316457e+00 -2.8051835056698077e-01 1.0000000000000000e+00 1.4000000000000000e+01 1.0000000000000000e+01 2.5000000000000000e+00 
147 2 4 2.2559723595316457e+00 -3.1373870098367296e-01 1.0000000000000000e+00 1.4000000000000000e+01 1.2000000000000000e+01 2.5000000000000000e+00 
166 2 4 2.2559723595316457e+00 -8.0280898985587868e+01 1.0000000000000000e+00 1.6000000000000000e+01 1.0000000000000000e+01 2.5000000000000000e+00 
167 2 4 2.2559723595316457e+00 -8.7940854669254477e+01 1.0000000000000000e+00 1.6000000000000000e+01 1.2000000000000000e+01 2.5000000000000000e+00 
186 2 4 2.2559723595316457e+00 -8.7978966495556563e+01 1.0000000000000000e+00 1.8000000000000000e+01 1.0000000000000000e+01 2.5000000000000000e+00 
187 2 4 2.2559723595316457e+00 -9.2764614764924673e+01 1.0000000000000000e+00 1.8000000000000000e+01 1.2000000000000000e+01 2.5000000000000000e+00 
8 2 4 2.2559723595316457e+00 5.0743635360166668e-08 1.0000000000000000e+00 0.0000000000000000e+00 1.4000000000000000e+01 2.5000000000000000e+00 
9 2 4 2.2559723595316457e+00 0.0000000000000000e+00 1.0000000000000000e+00 0.0000000000000000e+00 1.6000000000000000e+01 2.5000000000000000e+00 
28 2 4 2.2559723595316457e+00 0.0000000000000000e+00 1.0000000000000000e+00 2.0000000000000000e+00 1.4000000000000000e+01 2.5000000000000000e+00 
29 2 4 2.2559723595316457e+00 0.0000000000000000e+00 1.0000000000000000e+00 2.0000000000000000e+00 1.6000000000000000e+01 2.5000000000000000e+00 
48 2 4 2.2559723595316457e+00 0.0000000000000000e+00 1.0000000000000000e+00 4.0000000000000000e+00 1.4000000000000000e+01 2.5000000000000000e+00 
49 2 4 2.2559723595316457e+00 0.0000000000000000e+00 1.0000000000000000e+00 4.0000000000000000e+00 1.6000000000000000e+01 2.5000000000000000e+00 
68 2 4 2.2559723595316457e+00 0.0000000000000000e+00 1.0000000000000000e+00 6.0000000000000000e+00 1.4000000000000000e+01 2.5000000000000000e+00 
69 2 4 2.2559723595316457e+00 0.0000000000000000e+00 1.0000000000000000e+00 6.0000000000000000e+00 1.6000000000000000e+01 2.5000000000000000e+00 
88 2 4 2.2559723595316457e+00 0.0000000000000000e+00 1.0000000000000000e+00 8.0000000000000000e+00 1.4000000000000000e+01 2.5000000000000000e+00 
89 2 4 2.2559723595316457e+00 0.0000000000000000e+00 1.0000000000000000e+00 8.0000000000000000e+00 1.6000000000000000e+01 2.5000000000000000e+00 
108 2 4 2.2559723595316457e+00 0.0000000000000000e+00 1.0000000000000000e+00 1.0000000000000000e+01 1.4000000000000000e+01 2.5000000000000000e+00 
109 2 4 2.2559723595316457e+00 0.0000000000000000e+00 1.0000000000000000e+00 1.0000000000000000e+01 1.6000000000000000e+01 2.5000000000000000e+00 
128 2 4 2.2559723595316457e+00 0.0000000000000000e+00 1.0000000000000000e+00 1.2000000000000000e+01 1.4000000000000000e+01 2.5000000000000000e+00 
129 2 4 2.2559723595316457e+00 0.0000000000000000e+00 1.0000000000000000e+00 1.2000000000000000e+01 1.6000000000000000e+01 2.5000000000000000e+00 
148 2 4 2.2559723595316457e+00 -3.1389872723247375e-01 1.0000000000000000e+00 1.4000000000000000e+01 1.4000000000000000e+01 2.5000000000000000e+00 
149 2 4 2.2559723595316457e+00 -3.1388874575799408e-01 1.0000000000000000e+00 1.4000000000000000e+01 1.6000000000000000e+01 2.5000000000000000e+00 
168 2 4 2.2559723595316457e+00 -8.7587094626929755e+01 1.0000000000000000e+00 1.6000000000000000e+01 1.4000000000000000e+01 2.5000000000000000e+00 
169 2 4 2.2559723595316457e+00 -8.7550841762826508e+01 1.0000000000000000e+00 1.6000000000000000e+01 1.6000000000000000e+01 2.5000000000000000e+00 
188 2 4 2.2559723595316474e+00 -9.2474967227611074e+01 1.0000000000000000e+00 1.8000000000000000e+01 1.4000000000000000e+01 2.5000000000000000e+00 
189 2 4 2.2559723595316457e+00 -9.2461949143310122e+01 1.0000000000000000e+00 1.8000000000000000e+01 1.6000000000000000e+01 2.5000000000000000e+00 
10 2 4 2.2559723595316457e+00 -3.5454073279433895e-02 1.0000000000000000e+00 0.0000000000000000e+00 1.8000000000000000e+01 2.5000000000000000e+00 
30 2 4 2.2559723595316457e+00 2.2797663821585725e-05 1.0000000000000000e+00 2.0000000000000000e+00 1.8000000000000000e+01 2.5000000000000000e+00 
50 2 4 2.2559723595316457e+00 7.1892014404366828e-07 1.0000000000000000e+00 4.0000000000000000e+00 1.8000000000000000e+01 2.5000000000000000e+00 
70 2 4 2.2559723595316457e+00 1.0753761666158675e-07 1.0000000000000000e+00 6.0000000000000000e+00 1.8000000000000000e+01 2.5000000000000000e+00 
90 2 4 2.2559723595316457e+00 0.0000000000000000e+00 1.0000000000000000e+00 8.0000000000000000e+00 1.8000000000000000e+01 2.5000000000000000e+00 
110 2 4 2.2559723595316457e+00 0.0000000000000000e+00 1.0000000000000000e+00 1.0000000000000000e+01 1.8000000000000000e+01 2.5000000000000000e+00 
130 2 4 2.2559723595316457e+00 -3.6600050587722267e-08 1.0000000000000000e+00 1.2000000000000000e+01 1.8000000000000000e+01 2.5000000000000000e+00 
150 2 4 2.2559723595316457e+00 -3.1389925266952867e-01 1.0000000000000000e+00 1.4000000000000000e+01 1.8000000000000000e+01 2.5000000000000000e+00 
170 2 4 2.2559723595316457e+00 -8.7573401027261710e+01 1.0000000000000000e+00 1.6000000000000000e+01 1.8000000000000000e+01 2.5000000000000000e+00 
190 2 4 2.2559723595316457e+00 -9.2478897605430063e+01 1.0000000000000000e+00 1.8000000000000000e+01 1.8000000000000000e+01 2.5000000000000000e+00 
2044 1646 2 1.0280000172199510e+00 -2.4952037517647805e+03 1.0000000000000000e+00 5.0691677482188235e-01 1.3202207662961030e+00 7.4272958376294103e+00 
441 43 2 1.0280000305063177e+00 -8.2244152607077594e+03 1.0000000000000000e+00 1.9706587103505422e+00 2.7229789769394932e+00 7.4470806504845051e+00 
1640 1242 2 1.0280000080680047e+00 8.2936704855854805e+03 1.0000000000000000e+00 1.1098147747146989e-01 1.1843939592639670e+00 7.4315550822781828e+00 
941 543 2 1.0279999956923196e+00 -4.5280093525381693e+02 1.0000000000000000e+00 2.2473973288034830e+00 1.2834121302980628e+00 7.6398898366094246e+00 
1013 615 2 1.0279999930510366e+00 2.4229154901135635e+03 1.0000000000000000e+00 2.0943020646887242e-01 7.0664087932960740e-01 7.5626495588281211e+00 
715 317 2 1.0280000072538715e+00 -5.2521390231827695e+02 1.0000000000000000e+00 2.9485674296009421e+00 1.1129796592235224e+00 8.0967326956070806e+00 
1949 1551 2 1.0279999976919381e+00 -3.4966505864463934e+03 1.0000000000000000e+00 2.1964756155299345e+00 3.1710810553018587e+00 8.5448342143619129e+00 
474 76 2 1.0280000021749547e+00 9.3120614136811801e+03 1.0000000000000000e+00 2.1993527988092678e+00 1.2947080065300949e+00 8.6121443265013102e+00 
1561 1163 2 1.0279999976509993e+00 4.3560670329664990e+03 1.0000000000000000e+00 2.0853049146801244e+00 2.8949552416105999e+00 8.6666617624290900e+00 
846 448 2 1.0279999973083713e+00 -2.1778750547766340e+03 1.0000000000000000e+00 1.2525099437592595e+00 2.6737832258522158e+00 8.8435022023564898e+00 
829 431 2 1.0279999969665228e+00 6.3223268290834221e+03 1.0000000000000000e+00 9.8568876681024093e-04 3.1598882352508446e+00 8.9777899626637030e+00 
1368 970 2 1.0279999986398944e+00 -6.1238830729381436e+02 1.0000000000000000e+00 3.0106067253648350e-01 9.7968173951569604e-01 9.5590530588093507e+00 
635 237 2 1.0279999868546512e+00 -1.0385624016608863e+03 1.0000000000000000e+00 5.3451586362962074e+00 8.3308552676528680e-01 7.4343837867758022e+00 
937 539 2 1.0279999686043275e+00 3.2447790405713204e+03 1.0000000000000000e+00 3.9280285721953039e+00 1.0872558929319127e+00 7.6854923753413686e+00 
1542 1144 2 1.0280000093341815e+00 -2.0242834091008408e+03 1.0000000000000000e+00 4.1863255799038059e+00 2.9295780101215141e+00 7.4090936151479658e+00 
972 574 2 1.0279999930914767e+00 4.5467610026906177e+03 1.0000000000000000e+00 3.5549381724306719e+00 1.1434565581930372e+00 8.0319292428005280e+00 
1322 924 2 1.0279999950640859e+00 -5.3975355285574665e+02 1.0000000000000000e+00 3.4838628100442790e+00 1.1600201980070666e+00 8.0530616174265504e+00 
1933 1535 2 1.0279999939584685e+00 4.3946722625786642e+03 1.0000000000000000e+00 8.8188740914202466e+00 6.0693746515228786e-01 7.5417918732403644e+00 
2038 1640 2 1.0279999984742265e+00 3.4163956722362541e+03 1.0000000000000000e+00 8.7024344988881346e+00 6.3833535457934298e-01 7.5048427735126113e+00 
984 586 2 1.0279999893452931e+00 3.3416103985153713e+03 1.0000000000000000e+00 8.8175942816116510e+00 7.4416233824443612e-01 7.5603004970387468e+00 
1948 1550 2 1.0279999728464824e+00 1.6629432154201679e+03 1.0000000000000000e+00 9.0599787776532015e+00 1.3115441070163472e+00 7.6926898690937104e+00 
1290 892 2 1.0280000550492587e+00 1.4051470655593282e+03 1.0000000000000000e+00 8.2025924845695748e+00 9.7569888548825667e-01 7.3994541669830740e+00 
1006 608 2 1.0280000718370925e+00 -3.4553148679942586e+02 1.0000000000000000e+00 6.7707760224828899e+00 1.1410858961918777e+00 7.3646808045048671e+00 
1172 774 2 1.0279999788652110e+00 -9.6651199700057225e+02 1.0000000000000000e+00 6.7310942705804919e+00 2.2888848739659839e+00 7.6596166543085253e+00 
1504 1106 2 1.0279999431047508e+00 3.0770427497813134e+03 1.0000000000000000e+00 6.7228665093518218e+00 2.4998227250987335e+00 7.7750773627214329e+00 
483 85 2 1.0280000058099952e+00 5.7689028640761808e+03 1.0000000000000000e+00 7.9116146545650556e+00 2.7533786851461075e+00 8.1241046672062627e+00 
639 241 2 1.0280000343473514e+00 -2.3099850130860714e+03 1.0000000000000000e+00 6.8893881854339298e+00 2.8088811100111246e+00 7.8854751845769755e+00 
1359 961 2 1.0280000100120914e+00 -7.9728267679280407e+02 1.0000000000000000e+00 7.3710194333358103e+00 2.7851900347257934e+00 8.0563479767017885e+00 
1882 1484 2 1.0279999892529856e+00 -8.3597246984982885e+03 1.0000000000000000e+00 1.0720545048092385e+01 1.0283264482938774e+00 7.5105052442613216e+00 
1829 1431 2 1.0280000359187220e+00 -7.2461378976516480e+03 1.0000000000000000e+00 1.2780374354665511e+01 1.8239136136454792e+00 7.4353047434584996e+00 
1958 1560 2 1.0279999847881769e+00 3.5796143957393510e+03 1.0000000000000000e+00 1.0538262666064275e+01 1.0635038650990469e+00 7.5740391971210803e+00 
1792 1394 2 1.0280000324993757e+00 -3.2020103001493444e+03 1.0000000000000000e+00 1.2740970158193960e+01 1.9412553631816218e+00 7.4441716321349753e+00 
631 233 2 1.0279999983732959e+00 -4.4525425013141794e+03 1.0000000000000000e+00 1.2860911068937099e+01 1.7866906074999283e+00 7.4658306491642792e+00 
430 32 2 1.0279999961888351e+00 1.8994524856695186e+03 1.0000000000000000e+00 1.2904350715091537e+01 1.8303452862436829e+00 8.1619501053388888e+00 
451 53 2 1.0279999948397669e+00 6.1873412301552808e+03 1.0000000000000000e+00 1.1744323128866673e+01 9.1883387743697409e-01 8.3249456000719970e+00 
1227 829 2 1.0279999907528423e+00 -5.3285416997905704e+03 1.0000000000000000e+00 1.1868490746993999e+01 2.8218746438343598e+00 8.6551874820446209e+00 
1976 1578 2 1.0280000006833996e+00 -2.5432545297820025e+03 1.0000000000000000e+00 1.3220862813970291e+01 1.2641830110138705e+00 7.4045391450520333e+00 
712 314 2 1.0280000010807242e+00 -1.4221958684101430e+03 1.0000000000000000e+00 1.4321885175365852e+01 3.5333081488686174e-01 7.5467028582804270e+00 
1955 1557 2 1.0279999997140341e+00 3.0226198107742175e+03 1.0000000000000000e+00 1.4091209340492997e+01 5.3588346432003686e-01 7.5250466937048737e+00 
663 265 2 1.0280000019092379e+00 -1.4152991959110650e+03 1.0000000000000000e+00 1.4436039049221357e+01 2.6749225543194394e-01 7.5467089381871508e+00 
1228 830 2 1.0280000034740928e+00 2.1095986419651722e+03 1.0000000000000000e+00 1.4699671498573091e+01 8.3142951271261006e-02 7.5247177780930201e+00 
1696 1298 2 1.0280000126139581e+00 7.3888791301656784e+03 1.0000000000000000e+00 1.5036509153299173e+01 2.8975369769717878e-03 7.6641078302408667e+00 
1170 772 2 1.0279999958171073e+00 1.0554550614393147e+03 1.0000000000000000e+00 1.9020047160253558e+01 8.3055263490548614e-01 7.6033217925841479e+00 
1171 773 2 1.0279999958171084e+00 1.0554567901100620e+03 1.0000000000000000e+00 1.9020047160253789e+01 8.3055263490563247e-01 7.6033217925841630e+00 
1118 720 2 1.0280000043065516e+00 -2.2763989331315975e+02 1.0000000000000000e+00 1.7612626263006646e+01 1.3445233599560369e+00 8.4610849222702029e+00 
1442 1044 2 1.0280000012491859e+00 -9.6024063052348731e+02 1.0000000000000000e+00 1.9726813313982056e+01 1.0209443413878145e+00 9.3361843530308377e+00 
1443 1045 2 1.0280000015167925e+00 -9.6023229769205034e+02 1.0000000000000000e+00 1.8285192113999646e+01 1.0200597163846055e+00 9.3508578232096546e+00 
583 185 2 1.0280000028400067e+00 -5.3787122955306204e+03 1.0000000000000000e+00 1.7938529010413532e+01 1.9838237112780659e+00 8.8910109319271875e+00 
1125 727 2 1.0280000006468086e+00 -2.3902333682849417e+02 1.0000000000000000e+00 1.9620684531918858e+01 1.7179491202681714e+00 9.3791129573458161e+00 
1128 730 2 1.0280000009242296e+00 -2.3902629508848531e+02 1.0000000000000000e+00 1.8386596664017357e+01 1.7205652440825985e+00 9.3865833543048449e+00 
966 568 2 1.0280000005962024e+00 -5.1415902280235389e+02 1.0000000000000000e+00 1.9663495264666501e+01 2.0081907717581013e+00 9.3317097195774448e+00 
967 569 2 1.0280000008753289e+00 -5.1416560218619304e+02 1.0000000000000000e+00 1.8341992090315493e+01 2.0110498682497013e+00 9.3363045305386887e+00 
1689 1291 2 1.0280000000141425e+00 8.3850980107222913e+03 1.0000000000000000e+00 1.7065009550432976e+01 1.9126487939716741e-01 7.8596985652611684e+00 
1833 1435 2 1.0280000003013066e+00 -7.2309461305840841e+03 1.0000000000000000e+00 1.6961170149561156e+01 6.1458859869072673e-02 7.8064137021268287e+00 
2011 1613 2 1.0279999988881157e+00 7.1000227382577268e+03 1.0000000000000000e+00 1.7768242349715296e-01 3.6270440336607561e+00 7.8960874434316715e+00 
1856 1458 2 1.0279999757669542e+00 -3.2408815752744922e+03 1.0000000000000000e+00 3.1582959093855814e+00 6.6243714900535666e+00 7.4200727205854422e+00 
1800 1402 2 1.0280001034053261e+00 -6.6518635970874511e+03 1.0000000000000000e+00 3.8605181931235810e+00 3.5151882308588784e+00 7.4740479996096463e+00 
1319 921 2 1.0280000123299813e+00 8.1024702148346807e+02 1.0000000000000000e+00 5.3677966437795765e+00 3.3941235993811785e+00 8.1484304193209951e+00 
1168 770 2 1.0279999890062803e+00 1.0979870080467631e+03 1.0000000000000000e+00 5.4818080268674558e+00 3.4840934883576979e+00 7.7524339348009503e+00 
1710 1312 2 1.0279999765243830e+00 -1.4649757804536043e+03 1.0000000000000000e+00 3.7237848050217992e+00 5.0129771283554971e+00 7.6806161183437451e+00 
1898 1500 2 1.0280000201947961e+00 -2.6757805684623609e+03 1.0000000000000000e+00 3.8091759387199922e+00 4.7681383602861569e+00 8.0937089187806794e+00 
1492 1094 2 1.0279999368604467e+00 8.4597071079281886e+03 1.0000000000000000e+00 3.5387460410980998e+00 4.7373993074844210e+00 7.8717155902673381e+00 
531 133 2 1.0279999470983088e+00 3.4809446424802891e+03 1.0000000000000000e+00 3.5359794351643896e+00 4.8422291267590198e+00 7.8618651751758692e+00 
2002 1604 2 1.0280000309522543e+00 6.7134826678932004e+03 1.0000000000000000e+00 3.6943616984973464e+00 5.3861483791437026e+00 8.1150732562365828e+00 
1248 850 2 1.0280000761561499e+00 -3.9521742268029772e+02 1.0000000000000000e+00 4.0327042793146246e+00 6.4390323005687513e+00 7.9950458099756903e+00 
674 276 2 1.0279999770578605e+00 -3.8865635858189589e+03 1.0000000000000000e+00 7.3611963031608196e+00 4.3558445007706297e+00 7.9066537903356870e+00 
1044 646 2 1.0280000050197515e+00 -1.0020008344676480e+03 1.0000000000000000e+00 7.0639917942775288e+00 4.5682178782874905e+00 8.4553708558538645e+00 
2024 1626 2 1.0280000414396924e+00 -1.7035702305864568e+03 1.0000000000000000e+00 6.8422839584797650e+00 4.8967563283821818e+00 8.4796009399537926e+00 
647 249 2 1.0280000031633398e+00 -4.2330657069278805e+03 1.0000000000000000e+00 7.1164194104625258e+00 6.3574745520633593e+00 8.2931447563101823e+00 
1207 809 2 1.0280000167294936e+00 -1.8162671495853619e+03 1.0000000000000000e+00 6.9851791751965928e+00 6.4233656019996292e+00 8.9202809948837984e+00 
823 425 2 1.0280000070922510e+00 -1.0132154295192157e+03 1.0000000000000000e+00 7.0971239806752813e+00 6.4779914463881632e+00 9.0626591831526397e+00 
1817 1419 2 1.0280000040374546e+00 -9.0531516011446056e+03 1.0000000000000000e+00 7.1560135231416124e+00 6.5198623942131491e+00 9.1219769574481688e+00 
625 227 2 1.0279999925608407e+00 -1.5085110447892650e+03 1.0000000000000000e+00 7.7737390275154157e+00 5.9184919342754272e+00 9.2372289964785939e+00 
1755 1357 2 1.0279999998146221e+00 -2.4963379784856879e+03 1.0000000000000000e+00 9.8222259669550738e+00 4.2145977154190266e+00 7.4920908135513491e+00 
751 353 2 1.0280000066467772e+00 -1.1344259618147046e+03 1.0000000000000000e+00 1.0044792746466701e+01 4.3671787798196195e+00 7.4861187480078017e+00 
1387 989 2 1.0280000067258881e+00 -2.3497852115439837e+03 1.0000000000000000e+00 1.1185748207336493e+01 4.9633419104849636e+00 7.3380967616172033e+00 
2049 1651 2 1.0280000100135038e+00 1.8859534555586868e+03 1.0000000000000000e+00 1.0156502283921808e+01 4.4357990311757609e+00 7.4783135969512742e+00 
957 559 2 1.0280000214214386e+00 1.4921769466220087e+03 1.0000000000000000e+00 1.0551325507036040e+01 4.6448677447856941e+00 7.4272301872229791e+00 
1619 1221 2 1.0280000155807669e+00 -2.4926103793061620e+03 1.0000000000000000e+00 1.0341063274177014e+01 4.5399236252271216e+00 7.4588186636779747e+00 
520 122 2 1.0280000098031497e+00 -5.5896904183332445e+03 1.0000000000000000e+00 1.0149627967096455e+01 4.4317045159811350e+00 7.4788828186479819e+00 
866 468 2 1.0280000145441426e+00 -2.1138965050447468e+03 1.0000000000000000e+00 1.0306208938391329e+01 4.5211012304616700e+00 7.4631107544628419e+00 
1688 1290 2 1.0279999922357008e+00 9.2913600031698843e+03 1.0000000000000000e+00 1.0840822715747384e+01 3.9474796308628290e+00 8.6895489388219342e+00 
633 235 2 1.0279999925810654e+00 -8.5284778202030338e+03 1.0000000000000000e+00 1.2579572864786627e+01 3.8819635322641419e+00 9.0094834278829961e+00 
1357 959 2 1.0279999950929752e+00 2.7696943928217758e+02 1.0000000000000000e+00 1.2783281103839672e+01 4.8062186143932930e+00 9.1523017849985120e+00 
1802 1404 2 1.0279999952164529e+00 -4.7558813160646878e+03 1.0000000000000000e+00 1.2948224802664134e+01 4.9702890593522628e+00 9.1527508367954393e+00 
741 343 2 1.0279999971814198e+00 2.5953881521083176e+03 1.0000000000000000e+00 1.2904909223502660e+01 5.4304528043973512e+00 9.1582200226732624e+00 
1484 1086 2 1.0280000000961469e+00 5.2289636458367386e+03 1.0000000000000000e+00 1.2713258937380534e+01 5.7627862308378521e+00 9.1195079806652011e+00 
1022 624 2 1.0279999944491436e+00 4.0186047563455912e+02 1.0000000000000000e+00 1.3107079125091651e+01 4.8563537629426738e+00 9.1243052962201983e+00 
409 11 2 1.0280000407566410e+00 3.7183089411523588e+03 1.0000000000000000e+00 1.3830679887210747e+01 4.6556030108507809e+00 7.4535858922202340e+00 
1724 1326 2 1.0279999968474895e+00 8.8324932572554153e+03 1.0000000000000000e+00 1.3908373187022061e+01 4.7909231464496678e+00 7.4411686146870899e+00 
1615 1217 2 1.0280000357459755e+00 -2.4576182757650927e+03 1.0000000000000000e+00 1.4244378797305496e+01 5.2212146510912376e+00 7.4325919222262060e+00 
962 564 2 1.0279999967459361e+00 1.4353910750304938e+03 1.0000000000000000e+00 1.4330665454262402e+01 5.0546361116210070e+00 7.5212141486876662e+00 
473 75 2 1.0279999966067228e+00 -7.2894385995603352e+03 1.0000000000000000e+00 1.4859118221958012e+01 5.1813601290246236e+00 7.7179822430101162e+00 
964 566 2 1.0280000024436442e+00 3.8601848382121639e+03 1.0000000000000000e+00 1.5318471050370277e+01 5.4852239481050153e+00 7.7231568197426546e+00 
1307 909 2 1.0280000200928874e+00 -7.1562135874161811e+02 1.0000000000000000e+00 1.5662817961318465e+01 6.2966438244081475e+00 7.6027916204227806e+00 
730 332 2 1.0279999928737551e+00 -1.1503963648292474e+04 1.0000000000000000e+00 1.6221658519032637e+01 6.2767589466075284e+00 8.6459894621885507e+00 
1558 1160 2 1.0280000812246770e+00 -2.7271133489674903e+03 1.0000000000000000e+00 1.8999872430386443e+01 4.9357554491582070e+00 7.3083885605735377e+00 
1559 1161 2 1.0280000812246775e+00 -2.7271145947884443e+03 1.0000000000000000e+00 1.8999872430386439e+01 4.9357554491583135e+00 7.3083885605735164e+00 
1652 1254 2 1.0279999976896144e+00 9.4196956224450150e+03 1.0000000000000000e+00 1.7836079180854174e+01 4.4062626272667540e+00 7.7982522604533591e+00 