LAMMPS data file via write_data, version 30 Jul 2016, timestep = 100000000

644 atoms
2 atom types

0.0000000000000000e+00 2.0000000000000000e+01 xlo xhi
0.0000000000000000e+00 2.0000000000000000e+01 ylo yhi
0.0000000000000000e+00 2.0000000000000000e+01 zlo zhi

Masses

1 4.31
2 3.896

Atoms # meso-molecular

2 0 1 1.0279999999922806e+00 -3.7306019431435296e+00 1.0000000000000000e+00 5.6880613059751424e+00 2.6811782110056299e+00 3.2120789917707100e+00 
9 0 1 1.0280000000066993e+00 -9.1204582930069023e-01 1.0000000000000000e+00 6.4081861402382820e+00 3.2118874817025849e+00 2.8813797146400502e+00 
8 0 1 1.0279999999978477e+00 -7.9710540093235971e-01 1.0000000000000000e+00 4.8343287334051732e+00 3.4646669484239765e+00 3.0067766208546054e+00 
15 0 1 1.0280000000055372e+00 -4.9740808977785189e+00 1.0000000000000000e+00 4.3491838320883787e+00 5.0558833501304914e+00 3.1921042793230785e+00 
16 0 1 1.0279999999935086e+00 -5.5749852714159998e-01 1.0000000000000000e+00 5.2354161971231452e+00 4.9923800297444769e+00 2.7716409478749142e+00 
22 0 1 1.0279999999892186e+00 -1.3559856044255683e+00 1.0000000000000000e+00 4.5327045324290989e+00 6.6162243088871469e+00 2.7520194187431253e+00 
100 0 1 1.0279999999816498e+00 4.6767458385307954e+00 1.0000000000000000e+00 4.4731505154503370e+00 6.0372245714993049e+00 2.9195259561097409e+00 
93 0 1 1.0280000000266485e+00 1.0753053389234877e+00 1.0000000000000000e+00 6.6545724114927314e+00 4.8124509159222013e+00 3.1577231713371430e+00 
23 0 1 1.0280000000008973e+00 -5.0036275357942683e-01 1.0000000000000000e+00 6.0853278704399143e+00 6.6900054355404865e+00 2.7032319907121947e+00 
29 0 1 1.0280000000091967e+00 -5.7985698646883916e+00 1.0000000000000000e+00 4.0956246613122858e+00 8.0829370075159712e+00 2.8692507959427371e+00 
30 0 1 1.0280000000042659e+00 -1.0773529384131546e+00 1.0000000000000000e+00 5.1071294790352120e+00 8.0810577488213902e+00 2.3593369057601121e+00 
36 0 1 1.0280000000159022e+00 -2.0251541537384288e+00 1.0000000000000000e+00 4.3831783104628643e+00 9.4230327991322653e+00 2.4630909282241920e+00 
37 0 1 1.0280000000121692e+00 -1.7960591928273582e+00 1.0000000000000000e+00 5.9466529915048687e+00 9.4299489569988513e+00 2.4672445423270006e+00 
114 0 1 1.0280000000167999e+00 5.2134021134729682e+00 1.0000000000000000e+00 4.2289605622836453e+00 8.9954081479182531e+00 2.5973312663457926e+00 
107 0 1 1.0280000000005840e+00 2.1906164616877097e+00 1.0000000000000000e+00 6.4313330042476116e+00 7.4070764645654021e+00 2.7123815179203832e+00 
1 0 1 1.0279999999984895e+00 -6.8624122984299714e+00 1.0000000000000000e+00 4.7489285909605812e+00 2.9093815111343582e+00 3.4018072855775245e+00 
85 0 1 1.0280000000012830e+00 -2.6475819367629310e+00 1.0000000000000000e+00 4.2341177467982618e+00 3.1631007075693813e+00 4.0779725491095444e+00 
162 0 1 1.0280000000025418e+00 -7.2072599871154512e+00 1.0000000000000000e+00 4.5193733994227285e+00 2.7649293249044455e+00 5.3714933538337934e+00 
86 0 1 1.0279999999935918e+00 4.5181446128039902e+00 1.0000000000000000e+00 5.3519673134227741e+00 2.4118352151275997e+00 3.7439507846626685e+00 
163 0 1 1.0279999999942226e+00 -4.6290791004516709e+00 1.0000000000000000e+00 5.4809441759341571e+00 2.3916033376778620e+00 5.3192923843848208e+00 
170 0 1 1.0280000000161666e+00 1.0866982983273510e+00 1.0000000000000000e+00 6.5517980701698724e+00 2.6155550969168311e+00 5.4317460708792735e+00 
169 0 1 1.0280000000010843e+00 1.9677819510732768e+00 1.0000000000000000e+00 4.2867143189581576e+00 3.1599199589641644e+00 5.3862181284531756e+00 
99 0 1 1.0280000000074714e+00 -3.1972895592683050e+00 1.0000000000000000e+00 4.1191948994183862e+00 6.1429228143568047e+00 3.8871599734242546e+00 
176 0 1 1.0280000000129261e+00 -4.6200539501370734e+00 1.0000000000000000e+00 4.5277452988270221e+00 4.9388570950254342e+00 5.0906822972497388e+00 
92 0 1 1.0280000000018492e+00 3.2314511539673916e+00 1.0000000000000000e+00 4.1108373261894204e+00 4.4268750634232843e+00 3.7654836925833051e+00 
177 0 1 1.0280000000051577e+00 1.5587453138488064e-01 1.0000000000000000e+00 5.4545953867302526e+00 5.1543223354122487e+00 5.3101510728732553e+00 
183 0 1 1.0280000000063327e+00 4.6855047234951808e-01 1.0000000000000000e+00 4.5935281309368516e+00 6.5564768766708701e+00 5.0319495441235000e+00 
184 0 1 1.0279999999113065e+00 1.4811007276245021e+00 1.0000000000000000e+00 6.5521258568953851e+00 6.5360557627292017e+00 5.4884893781593567e+00 
261 0 1 1.0279999999818565e+00 2.4466185348025418e+00 1.0000000000000000e+00 5.1504469529179504e+00 5.7079633929906626e+00 6.3334300651975513e+00 
113 0 1 1.0279999999772647e+00 -4.0521345675622218e+00 1.0000000000000000e+00 3.9540211128484257e+00 9.0236605674943444e+00 3.6695267883822775e+00 
190 0 1 1.0279999999694076e+00 -5.2247587249928165e+00 1.0000000000000000e+00 4.7017160091467707e+00 7.9447796890255269e+00 4.9060654211352572e+00 
274 0 1 1.0280000000018474e+00 -4.5953177417428765e+00 1.0000000000000000e+00 4.6330726790542291e+00 9.0515469899103440e+00 6.5684441555166702e+00 
106 0 1 1.0280000000024236e+00 2.8889943832545226e+00 1.0000000000000000e+00 4.0164183544152987e+00 7.5051964489878200e+00 3.5716812092227084e+00 
191 0 1 1.0280000001343270e+00 1.0156309306154250e+00 1.0000000000000000e+00 5.5147937901379160e+00 8.1200284155505660e+00 5.1507205382260048e+00 
197 0 1 1.0279999999382998e+00 4.7302264617500184e-01 1.0000000000000000e+00 4.5885595601255122e+00 9.5120398207423040e+00 4.9393481800667507e+00 
198 0 1 1.0280000001335934e+00 1.5547311993679709e+00 1.0000000000000000e+00 6.5142199108265793e+00 9.4978923140678795e+00 5.7132544910161887e+00 
267 0 1 1.0280000000050260e+00 1.1495764767862926e+00 1.0000000000000000e+00 4.7561888439323923e+00 7.3472427070014481e+00 6.6106186023130986e+00 
275 0 1 1.0279999999829486e+00 2.5346256006745156e+00 1.0000000000000000e+00 4.6302778230475949e+00 9.0678985745506022e+00 6.5099372320852078e+00 
247 0 1 1.0279999999834528e+00 1.8793599691135017e+00 1.0000000000000000e+00 5.2457234833991597e+00 2.4476640642683742e+00 6.6848738721268726e+00 
246 0 1 1.0280000000005316e+00 -3.7554081604948379e+00 1.0000000000000000e+00 4.2997442531527978e+00 3.1416730130702493e+00 6.7567172902081882e+00 
323 0 1 1.0279999999960221e+00 -7.1306578626690316e+00 1.0000000000000000e+00 4.4575686169587749e+00 2.8122638567180966e+00 7.9668924206294536e+00 
407 0 1 1.0280000000034051e+00 -4.4167190647043277e+00 1.0000000000000000e+00 4.2349195717711448e+00 3.1865131513066980e+00 9.3428895164343650e+00 
324 0 1 1.0279999999855964e+00 -3.9746471791018152e+00 1.0000000000000000e+00 5.4529475758154202e+00 2.4370687760462149e+00 7.9988025751012986e+00 
331 0 1 1.0279999999700564e+00 2.5927057967819360e+00 1.0000000000000000e+00 6.5640584712250423e+00 2.6061502594646302e+00 8.1372449058847476e+00 
408 0 1 1.0280000000064942e+00 1.3404100905859984e+00 1.0000000000000000e+00 5.3044329774365027e+00 2.4573128320969850e+00 9.4362160695071076e+00 
330 0 1 1.0280000000013600e+00 2.4817520535170896e+00 1.0000000000000000e+00 4.2430102769503435e+00 3.2089213184054461e+00 7.9886561411917727e+00 
260 0 1 1.0279999999857459e+00 -4.3973597625058076e+00 1.0000000000000000e+00 4.8932510664970819e+00 6.2790582881514627e+00 6.6847591022229906e+00 
253 0 1 1.0280000000001408e+00 1.2805246675453836e+00 1.0000000000000000e+00 4.3896361049257706e+00 4.1126831654350049e+00 6.7485765503444526e+00 
337 0 1 1.0280000000163514e+00 -4.5370358492224421e+00 1.0000000000000000e+00 4.6286908249055658e+00 4.6644319320370364e+00 8.0455911917707734e+00 
421 0 1 1.0280000000399203e+00 -4.8272637801058460e+00 1.0000000000000000e+00 4.5627997684642292e+00 6.2091358408635751e+00 9.5647914148217250e+00 
338 0 1 1.0279999999848553e+00 1.4302008078879158e+00 1.0000000000000000e+00 5.4701486796744510e+00 5.0218984790624344e+00 8.3317944841636749e+00 
344 0 1 1.0280000000104561e+00 1.2042174007969919e+00 1.0000000000000000e+00 4.6725490246955603e+00 6.5819329953263468e+00 8.1052007692328658e+00 
414 0 1 1.0280000000249552e+00 4.0725664614254063e-03 1.0000000000000000e+00 4.2657458575745659e+00 4.2445965908196897e+00 9.3855235692083028e+00 
415 0 1 1.0279999999596747e+00 -1.3755300542744169e+00 1.0000000000000000e+00 6.5618736671245728e+00 3.8622527607344979e+00 9.4434034037248438e+00 
422 0 1 1.0279999999087464e+00 7.7885272825692065e-01 1.0000000000000000e+00 5.4342643306339022e+00 5.8237425455547518e+00 9.3667788791439399e+00 
428 0 1 1.0279999999895970e+00 3.1721850282487263e-01 1.0000000000000000e+00 4.4518979039088196e+00 7.2442712635625854e+00 9.6275212204524401e+00 
429 0 1 1.0280000000739318e+00 1.1101936997719910e+00 1.0000000000000000e+00 6.4384360198558843e+00 7.3062151244688920e+00 9.1982711392093410e+00 
436 0 1 1.0280000000176293e+00 1.0540175595564025e+00 1.0000000000000000e+00 5.3686936180614033e+00 8.9911522483630737e+00 9.5571074338712503e+00 
351 0 1 1.0280000000109948e+00 -4.7999874361763650e+00 1.0000000000000000e+00 4.6553471183300017e+00 7.7463029591256785e+00 8.0759505541241374e+00 
435 0 1 1.0280000000018863e+00 -5.0451424342085236e+00 1.0000000000000000e+00 4.6351061732563528e+00 8.9305654739013942e+00 9.9278475964357966e+00 
352 0 1 1.0280000000099927e+00 2.5152187634195373e+00 1.0000000000000000e+00 4.6515560987960978e+00 7.8605703048744360e+00 8.2143948637860085e+00 
358 0 1 1.0280000000211267e+00 1.6413721220983830e+00 1.0000000000000000e+00 4.6781834716169923e+00 9.5409901426431798e+00 8.0548912702520958e+00 
359 0 1 1.0279999998311145e+00 2.3135288420016780e+00 1.0000000000000000e+00 6.5682422648841632e+00 9.4548743210761508e+00 8.3926720963423449e+00 
484 0 1 1.0280000000032032e+00 -5.7890566960282417e+00 1.0000000000000000e+00 4.5218503811525590e+00 2.8114945449041349e+00 1.0533235640645731e+01 
485 0 1 1.0280000000059131e+00 -3.2738520005816065e+00 1.0000000000000000e+00 5.5432142337470456e+00 2.4310587794568717e+00 1.0741664997219024e+01 
492 0 1 1.0280000000141249e+00 5.3955483919364564e+00 1.0000000000000000e+00 6.4882002918692034e+00 2.6062607838176541e+00 1.1371618937434146e+01 
569 0 1 1.0280000000021645e+00 -2.0167459380689574e+00 1.0000000000000000e+00 5.6019492517932905e+00 3.1308184671746848e+00 1.1824763549256964e+01 
491 0 1 1.0279999999927274e+00 4.7292286058112190e+00 1.0000000000000000e+00 4.3075137524209017e+00 3.2276396320591547e+00 1.0894540428987295e+01 
568 0 1 1.0279999999904201e+00 -4.8230110671889230e+00 1.0000000000000000e+00 4.5237560745906373e+00 3.3850069137682741e+00 1.1437023858922696e+01 
498 0 1 1.0280000000279392e+00 -3.5042697804916063e+00 1.0000000000000000e+00 4.1724543392972997e+00 4.9345275059514870e+00 1.0780981658842792e+01 
582 0 1 1.0280000000032730e+00 -4.3945436483008926e+00 1.0000000000000000e+00 4.2876501411957886e+00 6.1326693612635266e+00 1.1614868751682403e+01 
499 0 1 1.0280000000089116e+00 4.4627994270587479e+00 1.0000000000000000e+00 4.7494028592041451e+00 4.9841442910353599e+00 1.1831532019599397e+01 
505 0 1 1.0280000000012406e+00 3.1066015109723728e+00 1.0000000000000000e+00 4.0652602975027952e+00 6.5587586005219531e+00 1.1018789388630799e+01 
506 0 1 1.0279999999577221e+00 1.8368437191540850e+00 1.0000000000000000e+00 6.4732197333488282e+00 6.3203804471253040e+00 1.1644874040249043e+01 
575 0 1 1.0279999999987317e+00 -6.0901224421414479e-01 1.0000000000000000e+00 4.7691219261150408e+00 4.3767411796596356e+00 1.1842090864454358e+01 
576 0 1 1.0280000000008593e+00 -1.2566446812986094e+00 1.0000000000000000e+00 6.3431401146045356e+00 4.1473465232245932e+00 1.1956214347997172e+01 
583 0 1 1.0280000000101077e+00 2.3394359579034735e-01 1.0000000000000000e+00 5.2554178011883366e+00 6.0649898126408495e+00 1.2064536750309445e+01 
512 0 1 1.0279999999922924e+00 -4.0876702798881235e+00 1.0000000000000000e+00 3.9949970688613670e+00 7.8732566277071125e+00 1.0954131908910711e+01 
596 0 1 1.0280000000097755e+00 -5.7017571245465062e+00 1.0000000000000000e+00 4.0875802710613183e+00 8.9694038965164449e+00 1.1826870005880016e+01 
513 0 1 1.0279999999958516e+00 5.5620358690243794e+00 1.0000000000000000e+00 4.3651459910074255e+00 7.8393487403122890e+00 1.2014266253267724e+01 
519 0 1 1.0280000000052025e+00 2.7621669933180089e+00 1.0000000000000000e+00 3.9391019935071512e+00 9.4935519943044469e+00 1.1172167656843571e+01 
520 0 1 1.0279999999803255e+00 1.6831141294816812e+00 1.0000000000000000e+00 6.3462464798788680e+00 9.4003693888961610e+00 1.1869631874839259e+01 
589 0 1 1.0279999999826628e+00 -1.5698057456250876e+00 1.0000000000000000e+00 4.5002470557314886e+00 7.4183640675675058e+00 1.2066450009813600e+01 
590 0 1 1.0280000000045353e+00 -1.5829413815744839e+00 1.0000000000000000e+00 6.0506052412644067e+00 7.4316202702965164e+00 1.2054519340463521e+01 
597 0 1 1.0280000000117278e+00 -1.0002395423155772e+00 1.0000000000000000e+00 5.1070235716986794e+00 8.9142062668600452e+00 1.2306935736685409e+01 
43 0 1 1.0280000000031118e+00 -5.6825591986274127e+00 1.0000000000000000e+00 4.0280431689554979e+00 1.0818738014567639e+01 2.7893122127079732e+00 
44 0 1 1.0280000000100742e+00 -1.0501007643955340e+00 1.0000000000000000e+00 5.0993459980878901e+00 1.0863774926493562e+01 2.2952241076602644e+00 
50 0 1 1.0279999999928353e+00 -2.1427679725787856e+00 1.0000000000000000e+00 4.4252701603216869e+00 1.2302361836437459e+01 2.4656848442325878e+00 
51 0 1 1.0279999999909160e+00 -1.8526287038872482e+00 1.0000000000000000e+00 5.9819926402923400e+00 1.2274425616921324e+01 2.5211529500789522e+00 
121 0 1 1.0280000000457554e+00 1.9189624174336308e+00 1.0000000000000000e+00 6.3910691868256704e+00 1.0362278955458796e+01 2.7585202432228071e+00 
128 0 1 1.0279999999920675e+00 5.1480400640226041e+00 1.0000000000000000e+00 4.2555161927194005e+00 1.1867658038688916e+01 2.5612095837612894e+00 
135 0 1 1.0280000000360612e+00 1.9602939422507351e+00 1.0000000000000000e+00 6.4420987714890465e+00 1.3350283814743984e+01 2.7947109408919175e+00 
57 0 1 1.0279999999899041e+00 -5.3989294533043175e+00 1.0000000000000000e+00 4.1884442162663484e+00 1.3578059102074720e+01 2.8665274725808478e+00 
58 0 1 1.0280000000004288e+00 -6.7742985756992835e-01 1.0000000000000000e+00 5.1628457707244539e+00 1.3624900104711729e+01 2.4289673850988374e+00 
64 0 1 1.0280000000001779e+00 -1.7361250650767222e+00 1.0000000000000000e+00 4.6799643403201845e+00 1.5286407196752842e+01 2.7240716371027571e+00 
65 0 1 1.0280000000335761e+00 -3.0022578651742393e-01 1.0000000000000000e+00 6.1655675540082759e+00 1.5282437188922898e+01 2.7423924117204761e+00 
142 0 1 1.0280000000002858e+00 3.7313030634489337e+00 1.0000000000000000e+00 4.5226003014123863e+00 1.4765639903976203e+01 2.7914275642001205e+00 
71 0 1 1.0279999999936467e+00 -4.6948079847844886e+00 1.0000000000000000e+00 4.4392448437792575e+00 1.6627415580714374e+01 3.0204253896607312e+00 
72 0 1 1.0280000000052478e+00 3.0600999455967626e-01 1.0000000000000000e+00 5.4667230176602803e+00 1.6921309900013679e+01 2.6330693175515747e+00 
78 0 1 1.0279999999975582e+00 -5.0316304076368503e+00 1.0000000000000000e+00 5.2096649636070724e+00 1.7623792188748816e+01 3.1222496693446447e+00 
79 0 1 1.0280000000115102e+00 -4.3451973070538701e+00 1.0000000000000000e+00 6.5973054304876610e+00 1.7784955088070468e+01 3.1542251301231019e+00 
127 0 1 1.0280000000045844e+00 -4.2269655041338545e+00 1.0000000000000000e+00 3.9246746318286503e+00 1.1840227288179216e+01 3.6639063975081916e+00 
204 0 1 1.0279999999844172e+00 -5.2644351604232842e+00 1.0000000000000000e+00 4.5281760476385386e+00 1.0866006466324558e+01 4.9468711670524366e+00 
288 0 1 1.0280000000103580e+00 -4.9550325644613054e+00 1.0000000000000000e+00 4.5195727496780567e+00 1.1868153078769490e+01 6.5590052546413116e+00 
120 0 1 1.0279999999827307e+00 2.8350401513028229e+00 1.0000000000000000e+00 3.9055773156810716e+00 1.0300288844390867e+01 3.5058679530363137e+00 
205 0 1 1.0280000000324225e+00 9.1824498282336031e-01 1.0000000000000000e+00 5.5440408991604233e+00 1.0806165295085073e+01 4.9628250957068101e+00 
211 0 1 1.0280000000208154e+00 1.0058973632668018e-01 1.0000000000000000e+00 4.4807996234337581e+00 1.2311833092686619e+01 4.9431455223816547e+00 
212 0 1 1.0280000000050635e+00 1.1762845695121213e+00 1.0000000000000000e+00 6.3237739890142715e+00 1.2350945487895236e+01 5.5016772570028429e+00 
281 0 1 1.0279999999609617e+00 1.3218956866730429e+00 1.0000000000000000e+00 4.4915774107115398e+00 1.0318821769488800e+01 6.5630843181494267e+00 
282 0 1 1.0279999999199241e+00 2.2425527203621458e+00 1.0000000000000000e+00 6.5645772972457515e+00 1.0476250514921995e+01 6.4346563176893667e+00 
289 0 1 1.0280000000106475e+00 2.2755332287233028e+00 1.0000000000000000e+00 4.5264992009938965e+00 1.2013960742418856e+01 6.4689328618503454e+00 
134 0 1 1.0279999999932097e+00 2.8315743421706614e+00 1.0000000000000000e+00 3.9768666164561464e+00 1.3145311344962424e+01 3.4728442427409441e+00 
295 0 1 1.0280000000075382e+00 1.2579573079826685e+00 1.0000000000000000e+00 4.6802021061521968e+00 1.3127129688632532e+01 6.5935859308475031e+00 
296 0 1 1.0280000000118334e+00 2.0876127903265225e+00 1.0000000000000000e+00 6.5652890819362089e+00 1.3327311442217971e+01 6.2972889305333561e+00 
218 0 1 1.0280000000431613e+00 -5.0557471719066776e+00 1.0000000000000000e+00 4.6395496468792672e+00 1.3501069218080916e+01 4.8129803052603606e+00 
141 0 1 1.0279999999854861e+00 -3.7655663131779677e+00 1.0000000000000000e+00 4.1574787046747748e+00 1.4741780772134586e+01 3.6623710097046449e+00 
219 0 1 1.0279999999540541e+00 4.7834845281027516e-01 1.0000000000000000e+00 5.3098233292330210e+00 1.3926126350048618e+01 5.2006111092803673e+00 
225 0 1 1.0280000000183498e+00 -7.2770460838110629e-01 1.0000000000000000e+00 4.4340339810320666e+00 1.5553270065223241e+01 4.9513023393896560e+00 
226 0 1 1.0279999999874767e+00 -5.4958437910795144e-01 1.0000000000000000e+00 5.8683382341835006e+00 1.5676530978090323e+01 4.9857807357915105e+00 
303 0 1 1.0279999999649874e+00 1.0965661145611465e+00 1.0000000000000000e+00 5.0215175195610904e+00 1.4966661776449866e+01 6.3517072943550925e+00 
148 0 1 1.0279999999816434e+00 3.8424956588340584e+00 1.0000000000000000e+00 4.0928584657651559e+00 1.6389100580662273e+01 3.6212915572921278e+00 
155 0 1 1.0279999999902896e+00 -3.9609964356126124e+00 1.0000000000000000e+00 4.3746696557799520e+00 1.7428370691160659e+01 3.9077755479196976e+00 
232 0 1 1.0280000000195915e+00 -3.6957874503315340e+00 1.0000000000000000e+00 4.1984662784287092e+00 1.6757525377778748e+01 5.1351259217772682e+00 
156 0 1 1.0280000000559639e+00 1.3682145643589549e+00 1.0000000000000000e+00 5.6139691416132722e+00 1.8037137338593556e+01 3.7091352068104015e+00 
233 0 1 1.0280000000131988e+00 4.3245042980273931e+00 1.0000000000000000e+00 4.9400660467067992e+00 1.7801965141159478e+01 5.3128593559525301e+00 
239 0 1 1.0280000000114888e+00 -3.0988679738953362e+00 1.0000000000000000e+00 4.9695318330741918e+00 1.7847292894235572e+01 5.1484843770807656e+00 
240 0 1 1.0279999999190141e+00 -4.4084635434935606e+00 1.0000000000000000e+00 6.4901112230635380e+00 1.7867772505471667e+01 5.0425082639966785e+00 
317 0 1 1.0279999999580356e+00 1.3496241369939057e+00 1.0000000000000000e+00 5.5087456565028132e+00 1.7787024970788607e+01 6.6614240868465364e+00 
365 0 1 1.0280000000233600e+00 -4.5755746076911148e+00 1.0000000000000000e+00 4.6529509690342206e+00 1.0778784646529903e+01 8.0782981542689747e+00 
449 0 1 1.0280000000428928e+00 -5.2525909227225043e+00 1.0000000000000000e+00 4.6647162616012130e+00 1.1825972775838022e+01 9.8978180859336913e+00 
366 0 1 1.0280000000265752e+00 2.5042606258389268e+00 1.0000000000000000e+00 4.6631634332550593e+00 1.0743872525244933e+01 8.1878422937150255e+00 
372 0 1 1.0280000000062590e+00 1.1572443143100308e+00 1.0000000000000000e+00 4.6488773900035216e+00 1.2413958890413632e+01 8.0674077820697327e+00 
373 0 1 1.0280000000171277e+00 1.9970308407988488e+00 1.0000000000000000e+00 6.4558813670897672e+00 1.2377750020270300e+01 8.3106572140035730e+00 
442 0 1 1.0280000000247782e+00 4.6394813904052973e-01 1.0000000000000000e+00 4.5764564815010438e+00 1.0363114664717509e+01 9.9058948015120620e+00 
443 0 1 1.0280000001190410e+00 1.3057621532961550e+00 1.0000000000000000e+00 6.5558555888943699e+00 1.0393530659338644e+01 9.1836540671408091e+00 
450 0 1 1.0279999999365381e+00 8.4368305474672756e-01 1.0000000000000000e+00 5.4575899180285132e+00 1.1928809429132640e+01 9.5951997941237348e+00 
456 0 1 1.0279999999960576e+00 3.2729014467877993e-01 1.0000000000000000e+00 4.5102795399718945e+00 1.3325242985361893e+01 9.7394504881863728e+00 
309 0 1 1.0280000000181524e+00 1.9927150715629769e+00 1.0000000000000000e+00 4.3136204795618873e+00 1.6475124501841087e+01 6.6803458247060616e+00 
302 0 1 1.0279999999670568e+00 -4.5305808427671614e+00 1.0000000000000000e+00 4.9512438169523652e+00 1.4900572884244839e+01 6.7249119185778232e+00 
457 0 1 1.0279999999468330e+00 1.0313509027637386e+00 1.0000000000000000e+00 6.4525318604853350e+00 1.3464838582157727e+01 9.0674186744938137e+00 
379 0 1 1.0279999999737957e+00 -4.7116791426876761e+00 1.0000000000000000e+00 4.6543932822526743e+00 1.3639853645785662e+01 8.1188872426464709e+00 
463 0 1 1.0279999999369893e+00 -5.0369732327456846e+00 1.0000000000000000e+00 4.5794515811580254e+00 1.4676869453961013e+01 9.7182448407292270e+00 
380 0 1 1.0279999999589622e+00 2.1271189028881756e+00 1.0000000000000000e+00 4.6713967616578644e+00 1.3952375080922957e+01 8.2617138684498546e+00 
386 0 1 1.0279999999804530e+00 4.0185360466049957e-01 1.0000000000000000e+00 4.5067949830218152e+00 1.5499075168088023e+01 8.0761240471831108e+00 
387 0 1 1.0280000000355431e+00 4.4183873407125829e-01 1.0000000000000000e+00 6.3808737112993175e+00 1.5556704564522063e+01 7.9786827197514967e+00 
464 0 1 1.0280000001434728e+00 -8.9672629549578331e-02 1.0000000000000000e+00 5.4448938030520431e+00 1.4824547836331655e+01 9.3795227520098905e+00 
470 0 1 1.0279999999788281e+00 9.8447909677758216e-01 1.0000000000000000e+00 4.2547579611743975e+00 1.6426005966736426e+01 9.4346565298604705e+00 
471 0 1 1.0280000000426637e+00 -1.5842959424350285e+00 1.0000000000000000e+00 6.6110603769589931e+00 1.6463869577250914e+01 9.2745583118932569e+00 
401 0 1 1.0279999999707969e+00 -3.3303280752564666e+00 1.0000000000000000e+00 6.4495697725327972e+00 1.7749808399845790e+01 8.0374583917212572e+00 
478 0 1 1.0279999999324481e+00 3.1744663977531090e-01 1.0000000000000000e+00 5.4545317922240208e+00 1.7858924916804156e+01 9.5006591604555908e+00 
316 0 1 1.0280000000226928e+00 -3.6110335375150875e+00 1.0000000000000000e+00 4.4548424024667721e+00 1.7266924324862941e+01 6.7227208489850856e+00 
393 0 1 1.0280000000061507e+00 -3.2330952502136832e+00 1.0000000000000000e+00 4.2440531162299235e+00 1.6719547591754488e+01 8.0570304858935540e+00 
477 0 1 1.0279999999795626e+00 -4.4666003372072716e+00 1.0000000000000000e+00 4.3996122038620022e+00 1.7286504505983395e+01 9.4485220573592859e+00 
394 0 1 1.0280000000058862e+00 5.9030832749770408e+00 1.0000000000000000e+00 4.8714339656961112e+00 1.7714116981852900e+01 8.1551800624323540e+00 
400 0 1 1.0280000000060512e+00 -2.4374537308823427e+00 1.0000000000000000e+00 4.9035034541051479e+00 1.7728215344622523e+01 8.0749962932540491e+00 
526 0 1 1.0280000000013474e+00 -4.1783351584692188e+00 1.0000000000000000e+00 3.9523371397055844e+00 1.0783642908510153e+01 1.1018694837983782e+01 
610 0 1 1.0280000000175182e+00 -5.8335687398844778e+00 1.0000000000000000e+00 4.0985166477918806e+00 1.1783573248507107e+01 1.1855296591958368e+01 
527 0 1 1.0280000000048126e+00 5.1202519012758865e+00 1.0000000000000000e+00 4.2657770036858125e+00 1.0816707177819545e+01 1.2115298296228962e+01 
533 0 1 1.0280000000045462e+00 2.6390643031274004e+00 1.0000000000000000e+00 3.9841860148500539e+00 1.2326503139496475e+01 1.1180849826839356e+01 
534 0 1 1.0280000000101235e+00 1.6846937523882932e+00 1.0000000000000000e+00 6.3547206414391910e+00 1.2348747535369858e+01 1.1887953425156180e+01 
603 0 1 1.0280000000036917e+00 -2.0775123157987707e+00 1.0000000000000000e+00 4.4049285859314375e+00 1.0350377129731365e+01 1.2214997691169932e+01 
604 0 1 1.0279999999814824e+00 -1.8162002571650668e+00 1.0000000000000000e+00 5.9722646327227391e+00 1.0403480413026786e+01 1.2206940603049222e+01 
611 0 1 1.0279999999630927e+00 -1.1078586299208575e+00 1.0000000000000000e+00 5.1233795953890384e+00 1.1758155073424225e+01 1.2341109229917983e+01 
617 0 1 1.0280000000198395e+00 -1.9216474625055744e+00 1.0000000000000000e+00 4.4970753369491936e+00 1.3265290050498619e+01 1.2092597908453328e+01 
618 0 1 1.0279999999802216e+00 -1.5887481193463242e+00 1.0000000000000000e+00 6.0552368259331715e+00 1.3306862075568711e+01 1.2075737648790300e+01 
540 0 1 1.0280000000030973e+00 -3.9380379435769957e+00 1.0000000000000000e+00 4.0382005690526688e+00 1.3713141590721738e+01 1.0947265089275383e+01 
624 0 1 1.0279999999992726e+00 -5.8136772078542922e+00 1.0000000000000000e+00 4.2949893674354129e+00 1.4709529034197329e+01 1.1706283762543944e+01 
541 0 1 1.0280000000119798e+00 4.8027215504309364e+00 1.0000000000000000e+00 4.4269210305463353e+00 1.3848811362811917e+01 1.1983876180647266e+01 
547 0 1 1.0279999999956295e+00 1.8882710691359814e+00 1.0000000000000000e+00 4.1219887993884265e+00 1.5202797192203153e+01 1.1110121076727868e+01 
548 0 1 1.0279999999686056e+00 -3.6126305395382924e-01 1.0000000000000000e+00 6.5482166606667587e+00 1.5191287274412799e+01 1.1592505170196151e+01 
625 0 1 1.0280000000146889e+00 -1.5076507618156976e+00 1.0000000000000000e+00 5.2676375129266351e+00 1.4762864890457980e+01 1.2131292985581711e+01 
631 0 1 1.0280000000246983e+00 -1.5404415635983568e+00 1.0000000000000000e+00 4.7470034983239016e+00 1.6226375947910032e+01 1.1974313459855853e+01 
632 0 1 1.0279999999570377e+00 -1.9854296055520102e+00 1.0000000000000000e+00 6.2993183815499458e+00 1.6439707149783704e+01 1.2073061620544141e+01 
554 0 1 1.0280000000007634e+00 -2.2435636504359957e+00 1.0000000000000000e+00 4.1256078018506726e+00 1.6639670126984083e+01 1.0837661053927043e+01 
638 0 1 1.0280000000183021e+00 -3.9672335909772558e+00 1.0000000000000000e+00 4.5527367714094575e+00 1.7108871942838334e+01 1.1558243338430149e+01 
555 0 1 1.0280000000404710e+00 1.0759549829704801e+01 1.0000000000000000e+00 4.9665989899072382e+00 1.7550492522522632e+01 1.1525930381718567e+01 
561 0 1 1.0279999999904108e+00 -8.9771888543765299e-01 1.0000000000000000e+00 4.8801888336011494e+00 1.7778768394820958e+01 1.0791794968043378e+01 
562 0 1 1.0279999999397844e+00 -2.2071478764498238e+00 1.0000000000000000e+00 6.4053062640594085e+00 1.7950456301405719e+01 1.0872173964887953e+01 
639 0 1 1.0280000000426333e+00 -7.4900148464826399e-01 1.0000000000000000e+00 5.5917073376545332e+00 1.7421730430546308e+01 1.1881763478355074e+01 
3 0 1 1.0280000000064937e+00 -5.4134315365384298e+00 1.0000000000000000e+00 7.4336439330735447e+00 2.6488938476494397e+00 3.2045951595546089e+00 
4 0 1 1.0279999999877718e+00 -6.2664612047232984e+00 1.0000000000000000e+00 9.1052536128755914e+00 2.5225011796186134e+00 3.0520223960654898e+00 
11 0 1 1.0279999999899185e+00 -1.3765641192471507e+00 1.0000000000000000e+00 9.9171537194336246e+00 3.0098093645933521e+00 2.7017074347359782e+00 
10 0 1 1.0279999999955314e+00 -1.0087716883426725e+00 1.0000000000000000e+00 8.3097363973671321e+00 3.0683021035758844e+00 2.7824498837153500e+00 
5 0 1 1.0280000000046190e+00 -5.9951832448333544e+00 1.0000000000000000e+00 1.0726890608467503e+01 2.5598893731663903e+00 3.0293874879251295e+00 
6 0 1 1.0279999999928968e+00 -5.6580515639199973e+00 1.0000000000000000e+00 1.2420397573494597e+01 2.6250567055935838e+00 3.0018709240958250e+00 
12 0 1 1.0280000000046441e+00 -1.8604755469709660e+00 1.0000000000000000e+00 1.1631396031449114e+01 3.1130473650275148e+00 2.7402915296341015e+00 
17 0 1 1.0280000000267135e+00 2.5813306688814636e-01 1.0000000000000000e+00 7.3296645069819935e+00 4.7081147816673488e+00 3.1567161149649099e+00 
18 0 1 1.0279999999709026e+00 -6.3006051985997813e-01 1.0000000000000000e+00 9.1092846533979532e+00 4.6744962893110369e+00 2.8264644195576074e+00 
102 0 1 1.0279999999551466e+00 3.9607566511437731e+00 1.0000000000000000e+00 9.0913853747928961e+00 5.8930386072774326e+00 2.7592142251194884e+00 
94 0 1 1.0279999999966465e+00 2.2974086192711596e+00 1.0000000000000000e+00 7.9834804592439799e+00 4.5983063217209974e+00 2.9110384747023184e+00 
101 0 1 1.0279999999713605e+00 3.6893239843013719e+00 1.0000000000000000e+00 7.1464419727696527e+00 6.0225670805821920e+00 3.2014285406325151e+00 
95 0 1 1.0279999999983900e+00 2.2442785803217906e+00 1.0000000000000000e+00 1.0026482383285087e+01 4.4800729483479795e+00 2.8186508564115540e+00 
19 0 1 1.0280000000269922e+00 -6.7679223259640042e-01 1.0000000000000000e+00 1.0752904541243014e+01 4.6731752134230247e+00 2.9757607658351208e+00 
20 0 1 1.0279999999899301e+00 -1.6536501559531982e+00 1.0000000000000000e+00 1.2922708764968329e+01 4.7059121668872166e+00 2.6678126974530496e+00 
103 0 1 1.0280000000143397e+00 3.5806546951685574e+00 1.0000000000000000e+00 1.1058181612283187e+01 5.8543308463350252e+00 2.8395158170928649e+00 
104 0 1 1.0279999999916023e+00 1.6025339835289087e+00 1.0000000000000000e+00 1.2654018259161871e+01 5.9695379601010430e+00 3.0624198430848204e+00 
24 0 1 1.0279999999785152e+00 -6.0009486324044725e-01 1.0000000000000000e+00 8.2457937207263221e+00 6.7815608061283861e+00 2.4512699329218308e+00 
31 0 1 1.0280000000534830e+00 -1.6083433288500122e+00 1.0000000000000000e+00 7.2919422440102108e+00 8.0122614975535367e+00 2.4868142567687248e+00 
32 0 1 1.0280000000064793e+00 -2.5738117119320814e+00 1.0000000000000000e+00 9.0541997707051092e+00 7.8861347773968209e+00 2.2704086880104910e+00 
38 0 1 1.0280000000565110e+00 -2.0420844477014253e+00 1.0000000000000000e+00 8.1091027553640007e+00 9.4571280673481031e+00 2.3452779705160478e+00 
116 0 1 1.0280000000334599e+00 2.8650498508214071e+00 1.0000000000000000e+00 9.0599428165290483e+00 8.9488194724409933e+00 2.4126111856719583e+00 