LAMMPS data file via write_data, version 30 Jul 2016, timestep = 50000000

3696 atoms
8 atom types

0.0000000000000000e+00 1.0000000000000000e+02 xlo xhi
0.0000000000000000e+00 4.0000000000000000e+01 ylo yhi
0.0000000000000000e+00 4.0000000000000000e+01 zlo zhi

Masses

1 3.896
2 5.36
3 20.064
4 8.378
5 8.378
6 8.378
7 8.378
8 8.378

Atoms # meso-molecular

508 509 2 1.0280000000000442e+00 -1.8772763820010496e+03 1.0000000000000000e+00 2.5702576152823706e+01 1.0486174111856976e+00 2.0862685560934729e-01 
3119 3120 2 1.0279999999999996e+00 -2.4952117313027156e+03 1.0000000000000000e+00 2.5835047874858983e+01 1.6039673539455271e-01 3.1433904946806862e-01 
2830 2831 2 1.0279999999999736e+00 3.6857224552214103e+02 1.0000000000000000e+00 2.9026337240029584e+01 4.8538884930922349e-01 6.7555463560637441e-01 
2332 2333 2 1.0280000000001226e+00 -3.0061142284845037e+03 1.0000000000000000e+00 3.2229952060041398e+01 1.2923888405389974e+00 1.2171949308677619e+00 
1485 1486 2 1.0280000000000209e+00 -2.8113450749796348e+03 1.0000000000000000e+00 2.6603609680339503e+01 3.5620315645406255e+00 1.3171727458342031e+00 
978 979 2 1.0279999999999787e+00 8.7247869881889801e+02 1.0000000000000000e+00 2.7602518841911316e+01 3.3855591452947733e+00 1.5001408861202341e+00 
1573 1574 2 1.0280000000001306e+00 -5.2238091077833519e+02 1.0000000000000000e+00 2.8785495912814483e+01 3.8788905472520248e+00 1.1695545979075541e+00 
3420 3421 2 1.0280000000000762e+00 8.6500194983772963e+02 1.0000000000000000e+00 3.0234310361911508e+01 2.8228868838178145e+00 1.4310720264571688e+00 
1534 1535 2 1.0280000000000538e+00 -1.3312544109008645e+03 1.0000000000000000e+00 3.1450702323258575e+01 2.1987421411027137e+00 1.1267504880678954e+00 
1351 1352 2 1.0280000000000569e+00 -2.3904780224830556e+03 1.0000000000000000e+00 2.6513224775131995e+01 4.1088243584578130e+00 3.6413863883222769e-01 
3375 3376 2 1.0279999999997986e+00 2.6746891957296129e+03 1.0000000000000000e+00 2.9366335345941710e+01 4.3297974613006076e+00 3.8266361900716217e-01 
2797 2798 2 1.0280000000000105e+00 -1.3312280702031353e+03 1.0000000000000000e+00 3.2163023890852308e+01 4.3247748861942279e+00 6.5075025406639830e-01 
1448 1449 2 1.0280000000000833e+00 -1.7880202030372914e+02 1.0000000000000000e+00 3.1774700392017944e+01 5.7599904688723562e+00 1.7951372401751318e+00 
67 68 2 1.0279999999999767e+00 -2.1788843660604052e+03 1.0000000000000000e+00 3.0791056938506962e+01 6.0458562213283171e+00 1.3838468185621655e+00 
3374 3375 2 1.0279999999999507e+00 9.2248081199670037e+02 1.0000000000000000e+00 3.0518970058300717e+01 7.3102603138522868e+00 1.5712280918005050e+00 
1491 1492 2 1.0279999999995348e+00 -3.1623007219175724e+03 1.0000000000000000e+00 2.9651434741317523e+01 7.7114627775903077e+00 6.2204944848287713e-01 
219 220 2 1.0279999999999239e+00 -4.8544551084375325e+03 1.0000000000000000e+00 2.4636922406691379e+01 9.0075834949043720e+00 1.0494357046302876e+00 
1599 1600 2 1.0279999999999414e+00 6.8742766573293659e+02 1.0000000000000000e+00 2.3725271947333614e+01 9.4833315106068490e+00 1.0819297611588006e+00 
2078 2079 2 1.0280000000001797e+00 1.6297846756645340e+03 1.0000000000000000e+00 2.5672013910444015e+01 9.5272420591149736e+00 6.1345831761000125e-01 
847 848 2 1.0279999999997114e+00 1.0985129176327628e+03 1.0000000000000000e+00 2.7311271288805408e+01 8.3492766685282458e+00 9.9257589577962146e-01 
511 512 2 1.0280000000006067e+00 1.0984961172307462e+03 1.0000000000000000e+00 2.7381536076922956e+01 8.3070071127365068e+00 6.4528656510050686e-01 
1914 1915 2 1.0279999999999159e+00 4.0028477440420793e+03 1.0000000000000000e+00 3.1862789427896502e+01 8.3540578233351965e+00 1.6466381534168311e+00 
3396 3397 2 1.0279999999998373e+00 2.6164941374476466e+03 1.0000000000000000e+00 3.2150983946467591e+01 9.5788424401917442e+00 7.6033548565372910e-01 
496 497 2 1.0279999999999685e+00 1.5037803910924695e+03 1.0000000000000000e+00 3.3261954091186681e+01 9.2685319353325468e+00 1.0387544878290103e+00 
2549 2550 2 1.0280000000000826e+00 -8.3613640403199788e+03 1.0000000000000000e+00 2.3827875005853159e+01 1.0597951467184259e+01 5.8006276559040071e-01 
2085 2086 2 1.0280000000000484e+00 1.6386259274190879e+03 1.0000000000000000e+00 2.4558525601379255e+01 1.1337432073825294e+01 1.5253777316007482e+00 
1624 1625 2 1.0279999999996272e+00 1.5902860918910915e+03 1.0000000000000000e+00 2.5287533149898461e+01 1.1373477833613215e+01 3.9152844252209446e-01 
1615 1616 2 1.0280000000005207e+00 1.6968316716757690e+03 1.0000000000000000e+00 2.6803392378230843e+01 1.0654730053288356e+01 1.5395086555455226e+00 
1063 1064 2 1.0279999999997063e+00 3.3661243726036309e+03 1.0000000000000000e+00 2.7953771133355875e+01 1.0439035864077878e+01 1.0563785375838377e+00 
1151 1152 2 1.0280000000002154e+00 -9.1533287607861948e+03 1.0000000000000000e+00 2.8344131283121417e+01 1.1923134059056949e+01 1.0128415464970724e+00 
1455 1456 2 1.0279999999998080e+00 3.6967270192955584e+03 1.0000000000000000e+00 3.1560973333849983e+01 1.1397332797481257e+01 1.7799119905587657e+00 
1627 1628 2 1.0280000000002265e+00 1.8773781455856711e+03 1.0000000000000000e+00 2.6032007349410218e+01 1.3053549629686763e+01 1.7406113266066847e+00 
2532 2533 2 1.0279999999997511e+00 4.0406628750641289e+02 1.0000000000000000e+00 2.7122607781699951e+01 1.2292010622132382e+01 4.4421876556114198e-01 
2083 2084 2 1.0280000000008345e+00 1.4204964593308191e+03 1.0000000000000000e+00 2.7154674420235434e+01 1.3879654411670669e+01 1.8893303762623390e-01 
2322 2323 2 1.0280000000001210e+00 -2.5956773191057887e+03 1.0000000000000000e+00 2.5470949872892124e+01 1.4852062875314985e+01 1.0160215222279190e+00 
517 518 2 1.0279999999992444e+00 9.2614610269852301e+02 1.0000000000000000e+00 2.5547585447087680e+01 1.4111465215920935e+01 3.3391390620874534e-01 
2014 2015 2 1.0279999999997660e+00 -3.5315441330427184e+03 1.0000000000000000e+00 2.9943898796802888e+01 1.5649221220908927e+01 1.8266877292668624e+00 
462 463 2 1.0280000000000509e+00 3.5093587845444081e+03 1.0000000000000000e+00 2.2619965008292990e+01 1.7522530096163116e+01 1.5211799538277608e+00 
458 459 2 1.0280000000000085e+00 6.0460023104305969e+02 1.0000000000000000e+00 2.2620014489355256e+01 1.7522584409710532e+01 1.5211458375867897e+00 
3696 3697 2 1.0279999999999077e+00 3.4716167895735662e+03 1.0000000000000000e+00 2.4078317148704549e+01 1.6210046214095065e+01 1.8123348957321199e+00 
3692 3693 2 1.0279999999999878e+00 6.7182687312560211e+02 1.0000000000000000e+00 2.4208037736183055e+01 1.6459305248479176e+01 1.8904005356182707e+00 
337 338 2 1.0280000000000626e+00 4.7224420565673772e+03 1.0000000000000000e+00 2.6674529243223780e+01 1.6217172738023297e+01 2.4721674251200196e-01 
3571 3572 2 1.0280000000000640e+00 4.7227303289350375e+03 1.0000000000000000e+00 2.6674529221961382e+01 1.6217172732128983e+01 2.4721673282914958e-01 
1425 1426 2 1.0279999999998917e+00 -3.5134470655305877e+03 1.0000000000000000e+00 3.2141329691599957e+01 1.6233310438281947e+01 4.4855915234947574e-01 
1006 1007 2 1.0279999999998752e+00 7.0518344299829323e+01 1.0000000000000000e+00 3.2141342413554113e+01 1.6233312222729666e+01 4.4852237090679670e-01 
1272 1273 2 1.0279999999999727e+00 -1.7217117226766386e+03 1.0000000000000000e+00 2.6099694683549917e+01 5.4264253514852823e-01 2.8966182514150152e+00 
477 478 2 1.0279999999999472e+00 -2.5140701399699092e+03 1.0000000000000000e+00 2.8796939849918651e+01 5.7835765302502296e-01 2.4662353815600193e+00 
603 604 2 1.0280000000000120e+00 -4.3672599230770993e+03 1.0000000000000000e+00 2.7997025271267610e+01 4.6778298914232436e-01 2.6983488718554431e+00 
570 571 2 1.0279999999998832e+00 2.2219911045224706e+02 1.0000000000000000e+00 3.2427387944932484e+01 1.0963988387089374e+00 3.8135865797069166e+00 
1452 1453 2 1.0280000000000051e+00 3.9299959873701682e+03 1.0000000000000000e+00 3.3149062185252468e+01 1.5395253754941702e+00 3.2895034724678442e+00 
1574 1575 2 1.0280000000000793e+00 -1.8710263389927184e+02 1.0000000000000000e+00 3.1375609826352530e+01 2.2430672936385293e-01 2.9407457271308615e+00 
3294 3295 2 1.0279999999999818e+00 -2.0913301214893509e+03 1.0000000000000000e+00 3.0570430941828715e+01 2.3647461528857732e+00 2.7518307385881542e+00 
1996 1997 2 1.0279999999999154e+00 -1.3286609215041615e+03 1.0000000000000000e+00 3.1213756800551035e+01 3.0385887315919295e+00 2.6126795015654696e+00 
3688 3689 2 1.0279999999999834e+00 1.4487824614312512e+03 1.0000000000000000e+00 2.2020498171511445e+01 5.1247558209626689e+00 3.4901495287818136e+00 
1919 1920 2 1.0280000000000118e+00 3.5187636710949459e+03 1.0000000000000000e+00 2.2135620504782576e+01 5.3743074551449972e+00 3.5041786003443063e+00 
394 395 2 1.0280000000000329e+00 -2.3487069150925731e+02 1.0000000000000000e+00 2.9011048670129878e+01 5.6546246731723526e+00 3.1098680289498435e+00 
488 489 2 1.0280000000000564e+00 -2.6788481506851931e+03 1.0000000000000000e+00 3.2414114820834136e+01 4.6707851812358427e+00 2.9291658529629396e+00 
937 938 2 1.0279999999999494e+00 -2.2549319825139964e+03 1.0000000000000000e+00 2.7779598719415624e+01 6.0579279009467744e+00 3.8379022080942788e+00 
1400 1401 2 1.0280000000000780e+00 -5.0681663215831747e+02 1.0000000000000000e+00 2.7884258768065305e+01 6.3387758332916180e+00 2.4386624096855471e+00 
597 598 2 1.0279999999998632e+00 -6.2582541222853579e+03 1.0000000000000000e+00 2.8437352139753436e+01 7.4042534499195858e+00 2.2918063060745024e+00 
980 981 2 1.0279999999999236e+00 7.2491248745769531e+02 1.0000000000000000e+00 2.8793155379581357e+01 7.9707006370250379e+00 3.5062430084273788e+00 
608 609 2 1.0280000000000635e+00 -3.9918865616863495e+03 1.0000000000000000e+00 3.0084680038633422e+01 6.1929957470658605e+00 3.9372018918062155e+00 
2920 2921 2 1.0279999999998379e+00 -4.1920783719857882e+03 1.0000000000000000e+00 3.3038792054441814e+01 6.3076069918558915e+00 3.6374771275396749e+00 
1076 1077 2 1.0280000000000460e+00 6.3606146815344050e+02 1.0000000000000000e+00 3.3274111764980397e+01 7.7450489055703740e+00 2.6014077101454522e+00 
1142 1143 2 1.0280000000000700e+00 -1.2884300747084012e+03 1.0000000000000000e+00 2.8208517585264879e+01 9.7448725554860580e+00 3.4991187087957458e+00 
524 525 2 1.0280000000002749e+00 8.1517212841388732e+02 1.0000000000000000e+00 3.0192529249839684e+01 8.4223890780708661e+00 3.9583549805557681e+00 
1997 1998 2 1.0280000000000542e+00 -1.3075685848060707e+03 1.0000000000000000e+00 3.1923663563535253e+01 8.3218332017575243e+00 2.9294706853197896e+00 
57 58 2 1.0279999999998795e+00 -1.6427336845879590e+03 1.0000000000000000e+00 3.1468248792054446e+01 9.9288110697473737e+00 3.6553505047432671e+00 
690 691 2 1.0280000000000615e+00 -1.5877207760222516e+03 1.0000000000000000e+00 2.5713935490841429e+01 1.1956374019341384e+01 2.0883759784185645e+00 
1231 1232 2 1.0279999999999769e+00 3.3658725272476713e+03 1.0000000000000000e+00 2.7438266711685841e+01 1.0761324195962017e+01 3.8286652602174449e+00 
222 223 2 1.0279999999996872e+00 -2.3588078587806585e+03 1.0000000000000000e+00 2.8438759138157707e+01 1.0276256426561700e+01 2.6858852777840361e+00 
1490 1491 2 1.0280000000000920e+00 -2.8191006320484958e+03 1.0000000000000000e+00 3.1242141856517883e+01 1.0960798026039148e+01 2.2835570737946127e+00 
103 104 2 1.0279999999999945e+00 1.3595539315771248e+03 1.0000000000000000e+00 3.2807589151601789e+01 1.0138431585633835e+01 3.9880297054995810e+00 
693 694 2 1.0279999999996186e+00 -9.5712878066245889e+02 1.0000000000000000e+00 2.7723781364874519e+01 1.2498765230110491e+01 2.0879039077985495e+00 
312 313 2 1.0279999999999818e+00 -2.1806879268665070e+03 1.0000000000000000e+00 2.7675555715551685e+01 1.2015206787112403e+01 3.8321644163239763e+00 
250 251 2 1.0279999999998441e+00 -2.2335149134911999e+03 1.0000000000000000e+00 2.8839696869472952e+01 1.3871639977178576e+01 2.8318851230679032e+00 
368 369 2 1.0280000000001619e+00 -5.6962802771476117e+02 1.0000000000000000e+00 2.9481421013019339e+01 1.3079856164273755e+01 2.3299860233890959e+00 
3476 3477 2 1.0280000000000771e+00 1.0509842136151258e+02 1.0000000000000000e+00 2.9660845325555879e+01 1.2034421302830692e+01 3.4204368371131548e+00 
1027 1028 2 1.0279999999998872e+00 2.8932057685081072e+03 1.0000000000000000e+00 3.1352600408727810e+01 1.2740963950114363e+01 3.6467710372384388e+00 
912 913 2 1.0280000000000493e+00 -1.2436663884012296e+03 1.0000000000000000e+00 3.3077472193325193e+01 1.2435722731943210e+01 3.1591809626326350e+00 
1021 1022 2 1.0280000000000584e+00 2.7147182077067509e+03 1.0000000000000000e+00 3.1434683638986797e+01 1.2743415718096571e+01 2.3604631138345069e+00 
1542 1543 2 1.0279999999998799e+00 -1.6861245755165996e+03 1.0000000000000000e+00 2.6389748683788561e+01 1.4818134833318634e+01 2.6908475670675389e+00 
2004 2005 2 1.0279999999998857e+00 -1.6878596365946582e+03 1.0000000000000000e+00 2.6389772852897327e+01 1.4818076309965303e+01 2.6908676030842122e+00 
2182 2183 2 1.0280000000000069e+00 -3.5301990794434760e+03 1.0000000000000000e+00 2.9675804895088824e+01 1.4935324709279785e+01 3.0412073967492126e+00 
573 574 2 1.0279999999998617e+00 -1.6658692037384185e+01 1.0000000000000000e+00 3.3138071962862668e+01 1.4205014658049420e+01 2.7956131209740418e+00 
3199 3200 2 1.0280000000000848e+00 9.0350797305132869e+02 1.0000000000000000e+00 3.2020977937181492e+01 1.5401580552304868e+01 3.4682507527225401e+00 
3024 3025 2 1.0280000000000664e+00 2.5425896497955564e+03 1.0000000000000000e+00 2.9827976645655696e+01 1.6110744662158130e+01 2.3713431860338043e+00 
1686 1687 2 1.0279999999999487e+00 -6.2284670413790468e+02 1.0000000000000000e+00 3.2185797039472725e+01 1.6494358101495632e+01 2.7126050152511683e+00 
2564 2565 2 1.0279999999999716e+00 -3.9128028655735608e+02 1.0000000000000000e+00 3.1383270475197797e+01 1.7472611640594842e+01 3.5686485472873861e+00 
1812 1813 2 1.0280000000000065e+00 -1.1877898971827531e+03 1.0000000000000000e+00 3.2592971524619557e+01 1.7779188144885964e+01 2.1810859207737514e+00 
291 292 2 1.0280000000000167e+00 1.2157962905607683e+03 1.0000000000000000e+00 2.9373401619023383e+01 1.9602421407696163e+01 3.0625741412493324e+00 
636 637 2 1.0279999999999994e+00 5.4208662642717036e+02 1.0000000000000000e+00 3.0662374411047541e+01 1.9903444127373021e+01 2.8850450918453765e+00 
894 895 2 1.0280000000000289e+00 1.3199771766401113e+03 1.0000000000000000e+00 3.2385262977898357e+01 1.9060676709374906e+01 3.8144091741306485e+00 
2480 2481 2 1.0279999999999845e+00 -3.8509805190401471e+02 1.0000000000000000e+00 3.1974679461062582e+01 1.9294317986787181e+01 2.4935621279299722e+00 
1349 1350 2 1.0280000000000067e+00 -8.5164791081678209e+02 1.0000000000000000e+00 2.7424281733867755e+01 6.2096655323594663e-01 4.4696293016474700e+00 
1484 1485 2 1.0279999999999929e+00 -7.1028611406685377e+02 1.0000000000000000e+00 2.7571484252577747e+01 1.6079931038121733e+00 4.9047570483335150e+00 
3662 3663 2 1.0279999999999319e+00 -1.3895141936242735e+03 1.0000000000000000e+00 3.0006806668452679e+01 8.9007255532341556e-01 5.1273269778073036e+00 
2872 2873 2 1.0279999999999481e+00 -4.4694768286566921e+02 1.0000000000000000e+00 3.0966205548738703e+01 1.4143675337845825e+00 4.5670051566106578e+00 
3370 3371 2 1.0280000000000660e+00 8.0208310295662204e+02 1.0000000000000000e+00 3.1114715017637039e+01 7.2806027552272079e-01 5.6820118676649312e+00 
976 977 2 1.0279999999999847e+00 1.2115549491913039e+03 1.0000000000000000e+00 2.7391929146408764e+01 3.1336164356141953e+00 5.2858899968959250e+00 
143 144 2 1.0280000000000342e+00 -3.3676466176203658e+03 1.0000000000000000e+00 2.9086640606328128e+01 3.6525673569944694e+00 5.2659846304971403e+00 
1115 1116 2 1.0279999999998799e+00 1.0532871983170883e+03 1.0000000000000000e+00 3.2848050349982238e+01 3.5524333620889954e+00 4.7624289622940923e+00 
3359 3360 2 1.0279999999999909e+00 -2.3839683425145680e+02 1.0000000000000000e+00 2.3406153517374655e+01 4.1589211376053452e+00 4.4485299785480512e+00 
125 126 2 1.0280000000000105e+00 -2.3892266624578917e+02 1.0000000000000000e+00 2.3556889149892154e+01 4.8313483768554093e+00 4.5258045946259671e+00 
1438 1439 2 1.0279999999999656e+00 1.9240658812652691e+03 1.0000000000000000e+00 2.7814966367915595e+01 4.4677736976454954e+00 5.4487902852171812e+00 
3331 3332 2 1.0279999999999105e+00 -2.0774481288583220e+03 1.0000000000000000e+00 2.9921045306062950e+01 4.9819520764544345e+00 5.1649174467604215e+00 
1069 1070 2 1.0279999999999501e+00 8.1477691724712804e+02 1.0000000000000000e+00 3.0914708234279324e+01 5.4075839803371357e+00 5.2745963571027845e+00 
1909 1910 2 1.0280000000000877e+00 3.9624281827709729e+03 1.0000000000000000e+00 3.1585313402269396e+01 5.6932065893769810e+00 4.2849973474018084e+00 
3337 3338 2 1.0280000000000427e+00 1.4186241177938546e+03 1.0000000000000000e+00 3.3226432907274173e+01 4.2630770958615809e+00 5.7028070568033815e+00 
939 940 2 1.0280000000000558e+00 -1.9162756338278332e+03 1.0000000000000000e+00 2.8652784950588220e+01 6.7288287977898813e+00 4.4521675900559661e+00 
90 91 2 1.0279999999996119e+00 5.5561343659719637e+02 1.0000000000000000e+00 3.0250342947973941e+01 8.5882376965999221e+00 4.8151467945752602e+00 
1113 1114 2 1.0279999999999458e+00 1.0492519818819744e+03 1.0000000000000000e+00 3.2891893939357296e+01 8.4154250565366375e+00 4.4616255657799710e+00 
60 61 2 1.0280000000002325e+00 -1.9268268911817306e+03 1.0000000000000000e+00 3.1675048272376340e+01 9.8390815157277665e+00 5.0288095617703901e+00 
1451 1452 2 1.0279999999998755e+00 -2.5437167271377703e+02 1.0000000000000000e+00 3.3079776054007318e+01 8.7061596527028566e+00 5.8522866916527141e+00 
2861 2862 2 1.0280000000000251e+00 -4.7270657255277547e+03 1.0000000000000000e+00 2.6785776975922879e+01 1.1950296208993265e+01 5.7930209748510313e+00 
1519 1520 2 1.0279999999998573e+00 -1.3318162348700764e+02 1.0000000000000000e+00 2.8816234531334537e+01 1.0846361506894866e+01 5.3573079824879919e+00 
601 602 2 1.0279999999999787e+00 -3.9575275249367678e+03 1.0000000000000000e+00 2.9882846623131424e+01 1.1362195704873024e+01 4.8483799218255736e+00 
1167 1168 2 1.0279999999998091e+00 -1.0402467032131226e+03 1.0000000000000000e+00 2.6677008615489097e+01 1.2049852790330288e+01 5.5931433262127070e+00 
116 117 2 1.0279999999999476e+00 -5.7605145928057414e+02 1.0000000000000000e+00 2.8736102103998395e+01 1.2754882690290918e+01 4.3682127433711830e+00 
642 643 2 1.0280000000000014e+00 2.7957822945535672e+03 1.0000000000000000e+00 3.1130772113734665e+01 1.2310243792390214e+01 5.1632940474880593e+00 
1512 1513 2 1.0280000000001304e+00 2.4800185670846549e+03 1.0000000000000000e+00 3.0257353335139925e+01 1.3884059947633110e+01 5.2818518750183614e+00 
942 943 2 1.0279999999999359e+00 -2.4769398435824241e+03 1.0000000000000000e+00 3.2284816911790806e+01 1.2076543164619133e+01 5.5478040859190303e+00 
395 396 2 1.0280000000000242e+00 2.3244891839698821e+03 1.0000000000000000e+00 3.2973822501884442e+01 1.3580213097415697e+01 4.0516171128794110e+00 
1465 1466 2 1.0279999999999052e+00 -7.6473870925772735e+02 1.0000000000000000e+00 2.9938362781186225e+01 1.4057306784207533e+01 5.1055260604318962e+00 
3577 3578 2 1.0279999999998486e+00 1.2087540314577952e+03 1.0000000000000000e+00 3.2686707138667920e+01 1.5729980604385018e+01 4.3319775662701057e+00 
48 49 2 1.0279999999998155e+00 -1.1022587351606307e+03 1.0000000000000000e+00 3.2742745516312723e+01 1.6952726031253754e+01 5.8800578472536849e+00 
1308 1309 2 1.0280000000000107e+00 -1.1079151373979817e+03 1.0000000000000000e+00 3.1695163154160369e+01 1.8172741240417739e+01 4.2817975675267670e+00 
2788 2789 2 1.0279999999999907e+00 -3.3833115505191445e+03 1.0000000000000000e+00 2.8692824914498203e+01 5.7335761164591126e-01 6.0527643735544761e+00 
941 942 2 1.0279999999999838e+00 -2.3272094908310592e+03 1.0000000000000000e+00 2.9167993128585120e+01 8.5635708063959082e-01 7.6887460465031428e+00 
14 15 2 1.0279999999999940e+00 6.2552467156421358e+02 1.0000000000000000e+00 2.9212996592180655e+01 1.7845488253685822e+00 7.2140886098759811e+00 
1940 1941 2 1.0279999999998801e+00 1.9537203700229079e+03 1.0000000000000000e+00 3.1836193165266856e+01 1.5806877992516557e+00 7.1194948741455502e+00 
79 80 2 1.0280000000000211e+00 -1.1021342659914944e+03 1.0000000000000000e+00 2.2986672219043228e+01 3.3366681604656043e+00 6.1249212287967474e+00 
415 416 2 1.0280000000000271e+00 -1.1034986036757041e+03 1.0000000000000000e+00 2.3128822204868023e+01 3.3416191652628533e+00 6.2497904390993604e+00 
1398 1399 2 1.0280000000000171e+00 -9.0325204678240493e+02 1.0000000000000000e+00 2.8074573694745549e+01 2.0780626095318024e+00 6.3465380248107257e+00 
1402 1403 2 1.0279999999999880e+00 -1.0538257848349754e+03 1.0000000000000000e+00 2.8161487288343618e+01 3.9719567527446968e+00 6.4465312263984700e+00 
609 610 2 1.0280000000001639e+00 -4.2279006246887075e+03 1.0000000000000000e+00 3.0708540116733158e+01 3.3319678688088921e+00 7.0128902239584923e+00 
2785 2786 2 1.0279999999999423e+00 -5.7022870444002365e+02 1.0000000000000000e+00 3.0127323885276120e+01 3.5083706424133023e+00 6.6468302638044889e+00 
1994 1995 2 1.0279999999998883e+00 -1.2441081507057320e+03 1.0000000000000000e+00 3.2432540147050254e+01 2.8215782598421164e+00 6.1205340805784640e+00 
1782 1783 2 1.0279999999999772e+00 3.7736899020581604e+03 1.0000000000000000e+00 3.2304478663136074e+01 3.3096832774660720e+00 7.5080526471202917e+00 
3313 3314 2 1.0280000000000113e+00 -1.1013991792395022e+03 1.0000000000000000e+00 2.4385968213725874e+01 4.8275170088121238e+00 6.2907188258194404e+00 
3649 3650 2 1.0279999999999945e+00 -1.1010954789874536e+03 1.0000000000000000e+00 2.4912365872775784e+01 5.0801607348178859e+00 6.5659350522633915e+00 
3611 3612 2 1.0279999999999856e+00 -2.3806172334971941e+02 1.0000000000000000e+00 2.5791542681768231e+01 5.9691854940027600e+00 7.8686304706246792e+00 
377 378 2 1.0280000000000635e+00 -2.3504785883251688e+02 1.0000000000000000e+00 2.6021673046035275e+01 6.4290393615499051e+00 7.7173687025029203e+00 
1022 1023 2 1.0279999999999867e+00 4.1112719652222322e+03 1.0000000000000000e+00 3.0544019317139060e+01 7.8158972189513563e+00 6.7511114110032011e+00 
565 566 2 1.0280000000002076e+00 1.9049097166500434e+02 1.0000000000000000e+00 3.3205564503981840e+01 7.7680547291119408e+00 7.1943182184099319e+00 
850 851 2 1.0279999999999114e+00 -4.6430213561679972e+02 1.0000000000000000e+00 2.8807901077315634e+01 9.9331977397025000e+00 6.6372166590051016e+00 
518 519 2 1.0280000000002507e+00 1.2597215692081001e+01 1.0000000000000000e+00 3.0243772662416951e+01 9.8445328240221937e+00 6.0053525699208494e+00 
931 932 2 1.0279999999999188e+00 -2.3308347921349050e+03 1.0000000000000000e+00 2.9416865506531376e+01 8.1286762129326924e+00 7.2386411209029990e+00 
475 476 2 1.0279999999998108e+00 -4.1775632467565845e+02 1.0000000000000000e+00 3.2229399653047629e+01 8.1303129066676476e+00 7.9938466587732311e+00 
184 185 2 1.0280000000000096e+00 4.7691486399759333e+03 1.0000000000000000e+00 3.1600898365718372e+01 8.1899468770963324e+00 6.4031741900404731e+00 
562 563 2 1.0280000000000635e+00 -4.9839805894847348e+02 1.0000000000000000e+00 3.3054898710975323e+01 9.2403147709370277e+00 7.9463998316221129e+00 
975 976 2 1.0279999999999732e+00 6.7998394698832749e+02 1.0000000000000000e+00 2.9372574830602154e+01 1.0728884086141424e+01 6.9129945718426233e+00 
16 17 2 1.0279999999999812e+00 -1.2578860187191779e+03 1.0000000000000000e+00 3.2300237152078807e+01 1.0231406757023183e+01 7.7051074327277558e+00 
1441 1442 2 1.0279999999999707e+00 2.6297173072899718e+03 1.0000000000000000e+00 3.2730365895377787e+01 1.1533965583005445e+01 6.6085240094028590e+00 
3144 3145 2 1.0280000000000908e+00 -2.3082462680077069e+03 1.0000000000000000e+00 2.7491939884537512e+01 1.3436729359072316e+01 6.7668916389511171e+00 
3444 3445 2 1.0279999999999074e+00 -1.4440601509353510e+03 1.0000000000000000e+00 2.8197121895012913e+01 1.3624910629823288e+01 6.0983303395504711e+00 
2059 2060 2 1.0280000000001654e+00 -2.1425361270491740e+03 1.0000000000000000e+00 2.8941628313401765e+01 1.2547831989309735e+01 7.6933099870583304e+00 
2562 2563 2 1.0279999999999372e+00 -2.5007188541511002e+02 1.0000000000000000e+00 2.8869045528731633e+01 1.3428821309707455e+01 7.5837057896884508e+00 
984 985 2 1.0280000000000049e+00 1.8838236309932386e+03 1.0000000000000000e+00 3.2299833947888139e+01 1.2461986846893595e+01 7.8940102881399143e+00 
985 986 2 1.0279999999999925e+00 6.1791894067359567e+02 1.0000000000000000e+00 3.2332168395208846e+01 1.3168955234409944e+01 7.0031250956868032e+00 
234 235 2 1.0280000000000111e+00 7.5504739440559803e+01 1.0000000000000000e+00 2.7905271523330121e+01 1.5543000131121842e+01 6.8328521192294547e+00 
235 236 2 1.0280000000000309e+00 2.9082595856029120e+03 1.0000000000000000e+00 2.8276742471066385e+01 1.5568426732704220e+01 7.4268375636345381e+00 
1486 1487 2 1.0280000000000495e+00 -2.3482128270517796e+03 1.0000000000000000e+00 3.3084989247851453e+01 1.5876653461708091e+01 7.8022618248065747e+00 
651 652 2 1.0280000000000591e+00 3.0669134205119826e+03 1.0000000000000000e+00 3.3085073500763379e+01 1.5876735970039682e+01 7.8023261424802532e+00 
384 385 2 1.0279999999999967e+00 -1.1013226539314101e+03 1.0000000000000000e+00 3.2343257039504287e+01 1.6668654812215610e+01 6.2531016861701580e+00 
3072 3073 2 1.0279999999999643e+00 -3.0998483387147724e+02 1.0000000000000000e+00 2.8076652429022772e+01 4.0610968899494410e-01 9.3403141074233247e+00 
3578 3579 2 1.0279999999999725e+00 -1.5582729165291812e+03 1.0000000000000000e+00 3.1836275475432782e+01 1.4679735618420193e+00 8.2436503286484815e+00 
476 477 2 1.0279999999999168e+00 -2.9681331156848028e+03 1.0000000000000000e+00 3.1639706626395519e+01 8.6419185756293315e-01 9.3455261602219508e+00 
1108 1109 2 1.0280000000000522e+00 1.1632806351720631e+03 1.0000000000000000e+00 3.3260632452640316e+01 1.1724318236376403e+00 9.9967888086016785e+00 
876 877 2 1.0280000000000193e+00 1.1023801609853165e+03 1.0000000000000000e+00 2.9101057526680105e+01 3.0737748627167014e+00 9.3912471861592728e+00 
2244 2245 2 1.0279999999999108e+00 3.9104774312644377e+03 1.0000000000000000e+00 3.2862680473499744e+01 3.8786305485392769e+00 8.9911321705579503e+00 
2754 2755 2 1.0280000000000098e+00 -1.6895781880885152e+03 1.0000000000000000e+00 2.4677454222321266e+01 4.3208947033862533e+00 8.4018689068760377e+00 
2209 2210 2 1.0280000000000111e+00 -2.4571607769983921e+03 1.0000000000000000e+00 2.4678389779050178e+01 4.3220207930408083e+00 8.4029851463652534e+00 
2539 2540 2 1.0279999999999678e+00 6.9390563864139258e+03 1.0000000000000000e+00 2.9773657331704744e+01 4.5388189142332935e+00 8.9172960423653542e+00 
1685 1686 2 1.0279999999999998e+00 5.3702738038993557e+03 1.0000000000000000e+00 2.9603017501561009e+01 4.9034968641227055e+00 9.9513761617511136e+00 
1341 1342 2 1.0279999999999705e+00 3.1587179722692254e+03 1.0000000000000000e+00 3.1198951265664700e+01 5.2536156953653075e+00 8.7583166847065410e+00 
1510 1511 2 1.0280000000000757e+00 3.7917384902497843e+03 1.0000000000000000e+00 3.1531186759149719e+01 5.1251871879372697e+00 9.2682554193030526e+00 
1386 1387 2 1.0279999999999663e+00 -2.2614823497288526e+02 1.0000000000000000e+00 2.7136538205955087e+01 7.8733236635701651e+00 8.0489119446263597e+00 
2772 2773 2 1.0279999999999674e+00 -2.2609192979651826e+02 1.0000000000000000e+00 2.7133854804378206e+01 7.8755845270744347e+00 8.0407664588713477e+00 
513 514 2 1.0280000000000942e+00 -1.4380391041328417e+03 1.0000000000000000e+00 2.9253183998903715e+01 7.1500016431147486e+00 8.1541068185250136e+00 
1397 1398 2 1.0279999999998723e+00 1.1129910783646669e+03 1.0000000000000000e+00 2.9789197569934991e+01 7.6108393594153236e+00 8.7046014583829425e+00 
1560 1561 2 1.0280000000001621e+00 1.6796483959746183e+03 1.0000000000000000e+00 3.1310388213060634e+01 8.1504695647029415e+00 9.6612306890774420e+00 
241 242 2 1.0279999999998710e+00 -2.9646333940140394e+03 1.0000000000000000e+00 2.8331716946326679e+01 1.1542273311254657e+01 9.0356561116081053e+00 
228 229 2 1.0279999999995901e+00 2.5889936341009357e+03 1.0000000000000000e+00 2.8327934389783408e+01 1.1620106904115850e+01 9.1598435009102257e+00 
1270 1271 2 1.0279999999999889e+00 3.1795619645812039e+03 1.0000000000000000e+00 3.1243805188548109e+01 1.1452894958520199e+01 9.4311147597466647e+00 
604 605 2 1.0280000000000293e+00 -3.8913137961580287e+03 1.0000000000000000e+00 3.2061269066014297e+01 1.0501966770745076e+01 8.8259859743726636e+00 
1099 1100 2 1.0279999999999967e+00 4.1943078939970164e+03 1.0000000000000000e+00 2.7159730011339477e+01 1.3960769322852837e+01 9.8209704562199409e+00 
344 345 2 1.0280000000000780e+00 -1.5388780288841094e+03 1.0000000000000000e+00 2.7471935970434053e+01 1.3778697534685783e+01 9.6888776145530624e+00 
644 645 2 1.0279999999999874e+00 2.1635550644958248e+03 1.0000000000000000e+00 3.1485867001576803e+01 1.2119027362437969e+01 9.2026819825618293e+00 
1012 1013 2 1.0279999999999825e+00 -1.9174967190058987e+02 1.0000000000000000e+00 2.7017329589082362e+01 1.6579551651779145e+01 8.0448504397612997e+00 
815 816 2 1.0279999999999767e+00 -2.8907918170095957e+02 1.0000000000000000e+00 2.6722626614161872e+01 1.6121017107181586e+01 8.0456275301434541e+00 
1345 1346 2 1.0279999999998897e+00 -2.2754322106607313e+02 1.0000000000000000e+00 3.2546283202694283e+01 1.8093383031261606e+01 8.8180524113172378e+00 
2731 2732 2 1.0279999999999168e+00 -2.2760428504110959e+02 1.0000000000000000e+00 3.2547460246093550e+01 1.8153666928214882e+01 8.8243623638953217e+00 
3655 3656 2 1.0280000000000269e+00 3.3990203656537196e+03 1.0000000000000000e+00 2.7701616449203822e+01 4.3299511438465749e-01 1.0240222578464872e+01 
3659 3660 2 1.0279999999999905e+00 5.8584329680495875e+02 1.0000000000000000e+00 2.9311780513293538e+01 1.5463528119564280e+00 1.0089220818381843e+01 
2894 2895 2 1.0279999999999985e+00 -4.7701810428704885e+03 1.0000000000000000e+00 3.0368980692576002e+01 9.0218807256036238e-01 1.0794709422791703e+01 