LAMMPS data file via write_data, version 30 Jul 2016, timestep = 50400000

3696 atoms
8 atom types

0.0000000000000000e+00 1.0000000000000000e+02 xlo xhi
0.0000000000000000e+00 4.0000000000000000e+01 ylo yhi
0.0000000000000000e+00 4.0000000000000000e+01 zlo zhi

Masses

1 3.896
2 5.36
3 20.064
4 8.378
5 8.378
6 8.378
7 8.378
8 8.378

Atoms # meso-molecular

508 509 2 1.0280000000000122e+00 -1.8772763820010496e+03 1.0000000000000000e+00 2.5702576115175596e+01 1.0486174092553027e+00 2.0862690399790790e-01 
3119 3120 2 1.0280000000000133e+00 -2.4952117313027156e+03 1.0000000000000000e+00 2.5835047835425250e+01 1.6039673285068848e-01 3.1433909978906821e-01 
2830 2831 2 1.0279999999999505e+00 3.6857224552214103e+02 1.0000000000000000e+00 2.9026337195376577e+01 4.8538885266871346e-01 6.7555469245478383e-01 
2332 2333 2 1.0280000000000959e+00 -3.0061142284845037e+03 1.0000000000000000e+00 3.2229952026755832e+01 1.2923888422397181e+00 1.2171949843842631e+00 
1485 1486 2 1.0280000000000034e+00 -2.8113450749796348e+03 1.0000000000000000e+00 2.6603609664296638e+01 3.5620315542408618e+00 1.3171727764059993e+00 
978 979 2 1.0279999999999816e+00 8.7247869881889801e+02 1.0000000000000000e+00 2.7602518823522484e+01 3.3855591362814845e+00 1.5001409159317769e+00 
1573 1574 2 1.0280000000001386e+00 -5.2238091077833519e+02 1.0000000000000000e+00 2.8785495898171686e+01 3.8788905433002343e+00 1.1695546293550358e+00 
3420 3421 2 1.0280000000000478e+00 8.6500194983772963e+02 1.0000000000000000e+00 3.0234310336670600e+01 2.8228868823088713e+00 1.4310720743926968e+00 
1534 1535 2 1.0280000000000351e+00 -1.3312544109008645e+03 1.0000000000000000e+00 3.1450702295073491e+01 2.1987421429894014e+00 1.1267505375647520e+00 
1351 1352 2 1.0280000000000282e+00 -2.3904780224830556e+03 1.0000000000000000e+00 2.6513224762460080e+01 4.1088243496179215e+00 3.6413866713442022e-01 
3375 3376 2 1.0279999999998319e+00 2.6746891957296129e+03 1.0000000000000000e+00 2.9366335332842851e+01 4.3297974452969408e+00 3.8266364678432147e-01 
2797 2798 2 1.0279999999999878e+00 -1.3312280702031353e+03 1.0000000000000000e+00 3.2163023887674882e+01 4.3247748749159056e+00 6.5075028421967007e-01 
1448 1449 2 1.0280000000000764e+00 -1.7880202030372914e+02 1.0000000000000000e+00 3.1774700384893130e+01 5.7599904620907871e+00 1.7951372620646995e+00 
67 68 2 1.0279999999999951e+00 -2.1788843660604052e+03 1.0000000000000000e+00 3.0791056936093824e+01 6.0458562077190656e+00 1.3838468269069029e+00 
3374 3375 2 1.0279999999999470e+00 9.2248081199670037e+02 1.0000000000000000e+00 3.0518970059115588e+01 7.3102602994034838e+00 1.5712280819310245e+00 
1491 1492 2 1.0279999999996610e+00 -3.1623007219175724e+03 1.0000000000000000e+00 2.9651434770248724e+01 7.7114627306629187e+00 6.2204941661818824e-01 
219 220 2 1.0280000000000067e+00 -4.8544551084375325e+03 1.0000000000000000e+00 2.4636922489859433e+01 9.0075834396772620e+00 1.0494355187199920e+00 
1599 1600 2 1.0279999999999889e+00 6.8742766573293659e+02 1.0000000000000000e+00 2.3725272037576762e+01 9.4833314569280986e+00 1.0819295717702702e+00 
2078 2079 2 1.0280000000001486e+00 1.6297846756645340e+03 1.0000000000000000e+00 2.5672013998613959e+01 9.5272420093430821e+00 6.1345813150324335e-01 
847 848 2 1.0279999999997411e+00 1.0985129176327628e+03 1.0000000000000000e+00 2.7311271355567651e+01 8.3492766335421660e+00 9.9257580979349413e-01 
511 512 2 1.0280000000005212e+00 1.0984961172307462e+03 1.0000000000000000e+00 2.7381536138237795e+01 8.3070070708150752e+00 6.4528646784192223e-01 
1914 1915 2 1.0279999999999117e+00 4.0028477440420793e+03 1.0000000000000000e+00 3.1862789427933020e+01 8.3540578237723029e+00 1.6466381590298711e+00 
3396 3397 2 1.0279999999998783e+00 2.6164941374476466e+03 1.0000000000000000e+00 3.2150983960993422e+01 9.5788424328666117e+00 7.6033549836210401e-01 
496 497 2 1.0279999999999685e+00 1.5037803910924695e+03 1.0000000000000000e+00 3.3261954093988734e+01 9.2685319331710723e+00 1.0387545085323640e+00 
2549 2550 2 1.0280000000000558e+00 -8.3613640403199788e+03 1.0000000000000000e+00 2.3827875106258638e+01 1.0597951417172387e+01 5.8006256976667570e-01 
2085 2086 2 1.0280000000000176e+00 1.6386259274190879e+03 1.0000000000000000e+00 2.4558525693553271e+01 1.1337432020228620e+01 1.5253775402598613e+00 
1624 1625 2 1.0279999999996157e+00 1.5902860918910915e+03 1.0000000000000000e+00 2.5287533261140791e+01 1.1373477760595559e+01 3.9152825562076177e-01 
1615 1616 2 1.0280000000004696e+00 1.6968316716757690e+03 1.0000000000000000e+00 2.6803392447164146e+01 1.0654730002135897e+01 1.5395085354062352e+00 
1063 1064 2 1.0279999999996929e+00 3.3661243726036309e+03 1.0000000000000000e+00 2.7953771193099563e+01 1.0439035831710752e+01 1.0563784268618088e+00 
1151 1152 2 1.0280000000001897e+00 -9.1533287607861948e+03 1.0000000000000000e+00 2.8344131340592732e+01 1.1923134013034907e+01 1.0128414424515517e+00 
1455 1456 2 1.0279999999998242e+00 3.6967270192955584e+03 1.0000000000000000e+00 3.1560973329586727e+01 1.1397332795765273e+01 1.7799119909908205e+00 
1627 1628 2 1.0280000000001108e+00 1.8773781455856711e+03 1.0000000000000000e+00 2.6032007422112926e+01 1.3053549590697409e+01 1.7406111681184078e+00 
2532 2533 2 1.0279999999997973e+00 4.0406628750641289e+02 1.0000000000000000e+00 2.7122607846093921e+01 1.2292010557877255e+01 4.4421864356758872e-01 
2083 2084 2 1.0280000000007221e+00 1.4204964593308191e+03 1.0000000000000000e+00 2.7154674493403970e+01 1.3879654388777446e+01 1.8893289455203605e-01 
2322 2323 2 1.0280000000000877e+00 -2.5956773191057887e+03 1.0000000000000000e+00 2.5470949949914036e+01 1.4852062833365348e+01 1.0160213349757643e+00 
517 518 2 1.0279999999993117e+00 9.2614610269852301e+02 1.0000000000000000e+00 2.5547585560780728e+01 1.4111465190280374e+01 3.3391372016913995e-01 
2014 2015 2 1.0279999999997702e+00 -3.5315441330427184e+03 1.0000000000000000e+00 2.9943898796790268e+01 1.5649221210623168e+01 1.8266876917089943e+00 
462 463 2 1.0280000000000422e+00 3.5093587845444081e+03 1.0000000000000000e+00 2.2619965081998078e+01 1.7522530060049977e+01 1.5211797608980688e+00 
458 459 2 1.0280000000000293e+00 6.0460023104305969e+02 1.0000000000000000e+00 2.2620014563059822e+01 1.7522584373596199e+01 1.5211456446560385e+00 
3696 3697 2 1.0279999999999676e+00 3.4716167895735662e+03 1.0000000000000000e+00 2.4078317222907742e+01 1.6210046179783376e+01 1.8123347048374328e+00 
3692 3693 2 1.0279999999999243e+00 6.7182687312560211e+02 1.0000000000000000e+00 2.4208037809391868e+01 1.6459305211172115e+01 1.8904003439579231e+00 
337 338 2 1.0280000000000644e+00 4.7224420565673772e+03 1.0000000000000000e+00 2.6674529305347999e+01 1.6217172731876932e+01 2.4721658791621912e-01 
3571 3572 2 1.0280000000000744e+00 4.7227303289350375e+03 1.0000000000000000e+00 2.6674529284089022e+01 1.6217172725983431e+01 2.4721657823336890e-01 
1425 1426 2 1.0279999999999099e+00 -3.5134470655305877e+03 1.0000000000000000e+00 3.2141329706333323e+01 1.6233310459116609e+01 4.4855916186584355e-01 
1006 1007 2 1.0279999999998977e+00 7.0518344299829323e+01 1.0000000000000000e+00 3.2141342428297598e+01 1.6233312243570438e+01 4.4852238039884457e-01 
1272 1273 2 1.0279999999999905e+00 -1.7217117226766386e+03 1.0000000000000000e+00 2.6099694634812217e+01 5.4264254402824463e-01 2.8966183100354477e+00 
477 478 2 1.0279999999999607e+00 -2.5140701399699092e+03 1.0000000000000000e+00 2.8796939800389076e+01 5.7835766309342795e-01 2.4662354395381847e+00 
603 604 2 1.0280000000000176e+00 -4.3672599230770993e+03 1.0000000000000000e+00 2.7997025222207196e+01 4.6778300176211418e-01 2.6983489293364986e+00 
570 571 2 1.0279999999998999e+00 2.2219911045224706e+02 1.0000000000000000e+00 3.2427387900594631e+01 1.0963988524550194e+00 3.8135866353279804e+00 
1452 1453 2 1.0279999999999936e+00 3.9299959873701682e+03 1.0000000000000000e+00 3.3149062143632136e+01 1.5395253843373817e+00 3.2895035317409334e+00 
1574 1575 2 1.0280000000000658e+00 -1.8710263389927184e+02 1.0000000000000000e+00 3.1375609779780962e+01 2.2430674203208625e-01 2.9407457906316350e+00 
3294 3295 2 1.0279999999999712e+00 -2.0913301214893509e+03 1.0000000000000000e+00 3.0570430914948783e+01 2.3647461568203116e+00 2.7518307960174746e+00 
1996 1997 2 1.0279999999999030e+00 -1.3286609215041615e+03 1.0000000000000000e+00 3.1213756773869047e+01 3.0385887304634096e+00 2.6126795546118879e+00 
3688 3689 2 1.0279999999999863e+00 1.4487824614312512e+03 1.0000000000000000e+00 2.2020498122968636e+01 5.1247558638236255e+00 3.4901495566585563e+00 
1919 1920 2 1.0279999999999920e+00 3.5187636710949459e+03 1.0000000000000000e+00 2.2135620456226128e+01 5.3743074979583039e+00 3.5041786282414806e+00 
394 395 2 1.0280000000000293e+00 -2.3487069150925731e+02 1.0000000000000000e+00 2.9011048664394561e+01 5.6546246741132160e+00 3.1098680213694045e+00 
488 489 2 1.0280000000000835e+00 -2.6788481506851931e+03 1.0000000000000000e+00 3.2414114801151321e+01 4.6707851770304485e+00 2.9291658947950188e+00 
937 938 2 1.0279999999999319e+00 -2.2549319825139964e+03 1.0000000000000000e+00 2.7779598718847161e+01 6.0579279073512540e+00 3.8379021972865868e+00 
1400 1401 2 1.0280000000000589e+00 -5.0681663215831747e+02 1.0000000000000000e+00 2.7884258770907671e+01 6.3387758368166995e+00 2.4386623911561340e+00 
597 598 2 1.0279999999998706e+00 -6.2582541222853579e+03 1.0000000000000000e+00 2.8437352156179180e+01 7.4042534393650294e+00 2.2918062818658482e+00 
980 981 2 1.0279999999999319e+00 7.2491248745769531e+02 1.0000000000000000e+00 2.8793155375409889e+01 7.9707006324837737e+00 3.5062429875541810e+00 
608 609 2 1.0280000000000400e+00 -3.9918865616863495e+03 1.0000000000000000e+00 3.0084680022042026e+01 6.1929957496175989e+00 3.9372019029520051e+00 
2920 2921 2 1.0279999999998677e+00 -4.1920783719857882e+03 1.0000000000000000e+00 3.3038792034050104e+01 6.3076069929084708e+00 3.6374771616072312e+00 
1076 1077 2 1.0280000000000051e+00 6.3606146815344050e+02 1.0000000000000000e+00 3.3274111749069434e+01 7.7450489066090906e+00 2.6014077325990512e+00 
1142 1143 2 1.0280000000000697e+00 -1.2884300747084012e+03 1.0000000000000000e+00 2.8208517602536535e+01 9.7448725544260615e+00 3.4991186361678492e+00 
524 525 2 1.0280000000002401e+00 8.1517212841388732e+02 1.0000000000000000e+00 3.0192529237357444e+01 8.4223890831490031e+00 3.9583549834213749e+00 
1997 1998 2 1.0280000000000373e+00 -1.3075685848060707e+03 1.0000000000000000e+00 3.1923663554054325e+01 8.3218332048798178e+00 2.9294706943682240e+00 
57 58 2 1.0279999999999083e+00 -1.6427336845879590e+03 1.0000000000000000e+00 3.1468248779984787e+01 9.9288110732031338e+00 3.6553505084651055e+00 
690 691 2 1.0280000000000598e+00 -1.5877207760222516e+03 1.0000000000000000e+00 2.5713935563837335e+01 1.1956373972822822e+01 2.0883758213294441e+00 
1231 1232 2 1.0279999999999971e+00 3.3658725272476713e+03 1.0000000000000000e+00 2.7438266733386818e+01 1.0761324192119170e+01 3.8286651900198314e+00 
222 223 2 1.0279999999997156e+00 -2.3588078587806585e+03 1.0000000000000000e+00 2.8438759153995967e+01 1.0276256419714215e+01 2.6858852003879323e+00 
1490 1491 2 1.0280000000000831e+00 -2.8191006320484958e+03 1.0000000000000000e+00 3.1242141852256225e+01 1.0960798021051563e+01 2.2835570677134158e+00 
103 104 2 1.0279999999999818e+00 1.3595539315771248e+03 1.0000000000000000e+00 3.2807589132663942e+01 1.0138431592631219e+01 3.9880297187298210e+00 
693 694 2 1.0279999999996430e+00 -9.5712878066245889e+02 1.0000000000000000e+00 2.7723781410771153e+01 1.2498765188290049e+01 2.0879038043561344e+00 
312 313 2 1.0279999999999645e+00 -2.1806879268665070e+03 1.0000000000000000e+00 2.7675555726463283e+01 1.2015206778104332e+01 3.8321643479407377e+00 
250 251 2 1.0279999999999281e+00 -2.2335149134911999e+03 1.0000000000000000e+00 2.8839696867690396e+01 1.3871639957758747e+01 2.8318850623991669e+00 
368 369 2 1.0280000000001144e+00 -5.6962802771476117e+02 1.0000000000000000e+00 2.9481421010177797e+01 1.3079856151181033e+01 2.3299859625936818e+00 
3476 3477 2 1.0280000000000422e+00 1.0509842136151258e+02 1.0000000000000000e+00 2.9660845314883296e+01 1.2034421292440491e+01 3.4204367988345967e+00 
1027 1028 2 1.0279999999999141e+00 2.8932057685081072e+03 1.0000000000000000e+00 3.1352600396034802e+01 1.2740963951561687e+01 3.6467710328594447e+00 
912 913 2 1.0280000000000535e+00 -1.2436663884012296e+03 1.0000000000000000e+00 3.3077472176237379e+01 1.2435722740911661e+01 3.1591809828991964e+00 
1021 1022 2 1.0280000000000360e+00 2.7147182077067509e+03 1.0000000000000000e+00 3.1434683631871994e+01 1.2743415719163481e+01 2.3604631078223832e+00 
1542 1543 2 1.0279999999999345e+00 -1.6861245755165996e+03 1.0000000000000000e+00 2.6389748758875381e+01 1.4818134795171005e+01 2.6908473913528272e+00 
2004 2005 2 1.0279999999999341e+00 -1.6878596365946582e+03 1.0000000000000000e+00 2.6389772927983230e+01 1.4818076271820248e+01 2.6908674273709661e+00 
2182 2183 2 1.0280000000000182e+00 -3.5301990794434760e+03 1.0000000000000000e+00 2.9675804889404482e+01 1.4935324697857499e+01 3.0412073454703750e+00 
573 574 2 1.0279999999998881e+00 -1.6658692037384185e+01 1.0000000000000000e+00 3.3138071942938424e+01 1.4205014670613428e+01 2.7956131517134528e+00 
3199 3200 2 1.0280000000001071e+00 9.0350797305132869e+02 1.0000000000000000e+00 3.2020977911524966e+01 1.5401580567476113e+01 3.4682507847463127e+00 
3024 3025 2 1.0280000000000775e+00 2.5425896497955564e+03 1.0000000000000000e+00 2.9827976643220239e+01 1.6110744652294482e+01 2.3713431410255059e+00 
1686 1687 2 1.0279999999999536e+00 -6.2284670413790468e+02 1.0000000000000000e+00 3.2185797014524567e+01 1.6494358116588018e+01 2.7126050507055774e+00 
2564 2565 2 1.0279999999999814e+00 -3.9128028655735608e+02 1.0000000000000000e+00 3.1383270446907563e+01 1.7472611653133633e+01 3.5686485880127896e+00 
1812 1813 2 1.0279999999999994e+00 -1.1877898971827531e+03 1.0000000000000000e+00 3.2592971489945171e+01 1.7779188158050612e+01 2.1810859685482349e+00 
291 292 2 1.0279999999999898e+00 1.2157962905607683e+03 1.0000000000000000e+00 2.9373401579287268e+01 1.9602421424256459e+01 3.0625741951696228e+00 
636 637 2 1.0280000000000120e+00 5.4208662642717036e+02 1.0000000000000000e+00 3.0662374371260157e+01 1.9903444143650383e+01 2.8850451450231280e+00 
894 895 2 1.0280000000000196e+00 1.3199771766401113e+03 1.0000000000000000e+00 3.2385262938729944e+01 1.9060676725828646e+01 3.8144092246815156e+00 
2480 2481 2 1.0279999999999905e+00 -3.8509805190401471e+02 1.0000000000000000e+00 3.1974679420856138e+01 1.9294318003339658e+01 2.4935621800284280e+00 
1349 1350 2 1.0279999999999869e+00 -8.5164791081678209e+02 1.0000000000000000e+00 2.7424281682623082e+01 6.2096657160991220e-01 4.4696293604429442e+00 
1484 1485 2 1.0280000000000105e+00 -7.1028611406685377e+02 1.0000000000000000e+00 2.7571484203083511e+01 1.6079931247919022e+00 4.9047571032440294e+00 
3662 3663 2 1.0279999999999321e+00 -1.3895141936242735e+03 1.0000000000000000e+00 3.0006806616902509e+01 8.9007257881300106e-01 5.1273270363021686e+00 
2872 2873 2 1.0279999999999432e+00 -4.4694768286566921e+02 1.0000000000000000e+00 3.0966205500516239e+01 1.4143675520408030e+00 4.5670052146482893e+00 
3370 3371 2 1.0280000000000593e+00 8.0208310295662204e+02 1.0000000000000000e+00 3.1114714962463729e+01 7.2806030118337639e-01 5.6820119300912264e+00 
976 977 2 1.0279999999999847e+00 1.2115549491913039e+03 1.0000000000000000e+00 2.7391929103738541e+01 3.1336164592723437e+00 5.2858900428117188e+00 
143 144 2 1.0280000000000178e+00 -3.3676466176203658e+03 1.0000000000000000e+00 2.9086640567351463e+01 3.6525673802545962e+00 5.2659846697800807e+00 
1115 1116 2 1.0279999999999332e+00 1.0532871983170883e+03 1.0000000000000000e+00 3.2848050311150757e+01 3.5524333751085386e+00 4.7624290159676024e+00 
3359 3360 2 1.0280000000000018e+00 -2.3839683425145680e+02 1.0000000000000000e+00 2.3406153468903749e+01 4.1589211801791484e+00 4.4485300062140123e+00 
125 126 2 1.0280000000000040e+00 -2.3892266624578917e+02 1.0000000000000000e+00 2.3556889101425845e+01 4.8313484195001353e+00 4.5258046222467474e+00 
1438 1439 2 1.0279999999999461e+00 1.9240658812652691e+03 1.0000000000000000e+00 2.7814966331996722e+01 4.4677737171823937e+00 5.4487903239291295e+00 
3331 3332 2 1.0279999999998872e+00 -2.0774481288583220e+03 1.0000000000000000e+00 2.9921045276458255e+01 4.9819520868947897e+00 5.1649174769232387e+00 
1069 1070 2 1.0279999999999747e+00 8.1477691724712804e+02 1.0000000000000000e+00 3.0914708199911669e+01 5.4075839845126845e+00 5.2745963875039807e+00 
1909 1910 2 1.0280000000000709e+00 3.9624281827709729e+03 1.0000000000000000e+00 3.1585313378274410e+01 5.6932065951268678e+00 4.2849973798549730e+00 
3337 3338 2 1.0280000000000118e+00 1.4186241177938546e+03 1.0000000000000000e+00 3.3226432858872947e+01 4.2630771075203500e+00 5.7028071120633026e+00 
939 940 2 1.0280000000000653e+00 -1.9162756338278332e+03 1.0000000000000000e+00 2.8652784940048136e+01 6.7288288028033314e+00 4.4521675866590531e+00 
90 91 2 1.0279999999996314e+00 5.5561343659719637e+02 1.0000000000000000e+00 3.0250342932229227e+01 8.5882377048959988e+00 4.8151467965193699e+00 
1113 1114 2 1.0279999999999692e+00 1.0492519818819744e+03 1.0000000000000000e+00 3.2891893919230512e+01 8.4154250644831929e+00 4.4616255886088734e+00 
60 61 2 1.0280000000002198e+00 -1.9268268911817306e+03 1.0000000000000000e+00 3.1675048250801602e+01 9.8390815261299096e+00 5.0288095722458888e+00 
1451 1452 2 1.0279999999998808e+00 -2.5437167271377703e+02 1.0000000000000000e+00 3.3079776020819352e+01 8.7061596666819572e+00 5.8522867114743686e+00 
2861 2862 2 1.0280000000000489e+00 -4.7270657255277547e+03 1.0000000000000000e+00 2.6785776980186135e+01 1.1950296210166961e+01 5.7930209195807150e+00 
1519 1520 2 1.0279999999998710e+00 -1.3318162348700764e+02 1.0000000000000000e+00 2.8816234510312132e+01 1.0846361516660734e+01 5.3573079556115015e+00 
601 602 2 1.0279999999999982e+00 -3.9575275249367678e+03 1.0000000000000000e+00 2.9882846596437101e+01 1.1362195710172351e+01 4.8483798998677905e+00 
1167 1168 2 1.0279999999998193e+00 -1.0402467032131226e+03 1.0000000000000000e+00 2.6677008626714866e+01 1.2049852791767792e+01 5.5931432718179259e+00 
116 117 2 1.0279999999999847e+00 -5.7605145928057414e+02 1.0000000000000000e+00 2.8736102093558127e+01 1.2754882684789401e+01 4.3682126993125268e+00 
642 643 2 1.0280000000000220e+00 2.7957822945535672e+03 1.0000000000000000e+00 3.1130772092773309e+01 1.2310243798570154e+01 5.1632940410517039e+00 
1512 1513 2 1.0280000000001075e+00 2.4800185670846549e+03 1.0000000000000000e+00 3.0257353314177841e+01 1.3884059952858125e+01 5.2818518507632506e+00 
942 943 2 1.0279999999999658e+00 -2.4769398435824241e+03 1.0000000000000000e+00 3.2284816879072174e+01 1.2076543179891456e+01 5.5478041006930869e+00 
395 396 2 1.0280000000000045e+00 2.3244891839698821e+03 1.0000000000000000e+00 3.2973822477638826e+01 1.3580213112892839e+01 4.0516171374741958e+00 
1465 1466 2 1.0279999999999145e+00 -7.6473870925772735e+02 1.0000000000000000e+00 2.9938362757346372e+01 1.4057306783116308e+01 5.1055260307616095e+00 
3577 3578 2 1.0279999999998266e+00 1.2087540314577952e+03 1.0000000000000000e+00 3.2686707107859398e+01 1.5729980624940621e+01 4.3319776009978632e+00 
48 49 2 1.0279999999998197e+00 -1.1022587351606307e+03 1.0000000000000000e+00 3.2742745469739070e+01 1.6952726050527058e+01 5.8800578968057540e+00 
1308 1309 2 1.0280000000000278e+00 -1.1079151373979817e+03 1.0000000000000000e+00 3.1695163118001364e+01 1.8172741252171630e+01 4.2817976151763437e+00 
2788 2789 2 1.0280000000000196e+00 -3.3833115505191445e+03 1.0000000000000000e+00 2.8692824862066864e+01 5.7335763477179047e-01 6.0527644317065175e+00 
941 942 2 1.0279999999999707e+00 -2.3272094908310592e+03 1.0000000000000000e+00 2.9167993068741186e+01 8.5635710860747793e-01 7.6887461089941338e+00 
14 15 2 1.0279999999999938e+00 6.2552467156421358e+02 1.0000000000000000e+00 2.9212996536327829e+01 1.7845488493666593e+00 7.2140886673284914e+00 
1940 1941 2 1.0279999999998930e+00 1.9537203700229079e+03 1.0000000000000000e+00 3.1836193104023241e+01 1.5806878300953364e+00 7.1194949429909808e+00 
79 80 2 1.0279999999999958e+00 -1.1021342659914944e+03 1.0000000000000000e+00 2.2986672170816554e+01 3.3366682028659449e+00 6.1249212563639146e+00 
415 416 2 1.0279999999999974e+00 -1.1034986036757041e+03 1.0000000000000000e+00 2.3128822156689161e+01 3.3416192076193414e+00 6.2497904666652540e+00 
1398 1399 2 1.0280000000000271e+00 -9.0325204678240493e+02 1.0000000000000000e+00 2.8074573645253221e+01 2.0780626324848690e+00 6.3465380781726912e+00 
1402 1403 2 1.0280000000000249e+00 -1.0538257848349754e+03 1.0000000000000000e+00 2.8161487246335266e+01 3.9719567768246642e+00 6.4465312692231267e+00 
609 610 2 1.0280000000001392e+00 -4.2279006246887075e+03 1.0000000000000000e+00 3.0708540063573839e+01 3.3319678957761045e+00 7.0128902789841359e+00 
2785 2786 2 1.0279999999999587e+00 -5.7022870444002365e+02 1.0000000000000000e+00 3.0127323833141620e+01 3.5083706684897611e+00 6.6468303107273590e+00 
1994 1995 2 1.0279999999999125e+00 -1.2441081507057320e+03 1.0000000000000000e+00 3.2432540093058101e+01 2.8215782854219644e+00 6.1205341421698902e+00 
1782 1783 2 1.0279999999999963e+00 3.7736899020581604e+03 1.0000000000000000e+00 3.2304478604977817e+01 3.3096833051605601e+00 7.5080527111036277e+00 
3313 3314 2 1.0279999999999998e+00 -1.1013991792395022e+03 1.0000000000000000e+00 2.4385968166534958e+01 4.8275170503599201e+00 6.2907188527824118e+00 
3649 3650 2 1.0280000000000080e+00 -1.1010954789874536e+03 1.0000000000000000e+00 2.4912365825907063e+01 5.0801607757548926e+00 6.5659350788134025e+00 
3611 3612 2 1.0279999999999807e+00 -2.3806172334971941e+02 1.0000000000000000e+00 2.5791542636159555e+01 5.9691855330418271e+00 7.8686304965131129e+00 
377 378 2 1.0280000000000553e+00 -2.3504785883251688e+02 1.0000000000000000e+00 2.6021673002160856e+01 6.4290394016896144e+00 7.7173687280784886e+00 
1022 1023 2 1.0279999999999858e+00 4.1112719652222322e+03 1.0000000000000000e+00 3.0544019276557584e+01 7.8158972413255485e+00 6.7511114281452258e+00 
565 566 2 1.0280000000001874e+00 1.9049097166500434e+02 1.0000000000000000e+00 3.3205564459359586e+01 7.7680547498936035e+00 7.1943182500466998e+00 
850 851 2 1.0279999999999547e+00 -4.6430213561679972e+02 1.0000000000000000e+00 2.8807901041624095e+01 9.9331977583019473e+00 6.6372166448023133e+00 
518 519 2 1.0280000000002203e+00 1.2597215692081001e+01 1.0000000000000000e+00 3.0243772631138363e+01 9.8445328327321473e+00 6.0053525659347784e+00 
931 932 2 1.0279999999999292e+00 -2.3308347921349050e+03 1.0000000000000000e+00 2.9416865468902635e+01 8.1286762369765704e+00 7.2386411416334679e+00 
475 476 2 1.0279999999998568e+00 -4.1775632467565845e+02 1.0000000000000000e+00 3.2229399601857821e+01 8.1303129375909382e+00 7.9938466805336983e+00 
184 185 2 1.0280000000000185e+00 4.7691486399759333e+03 1.0000000000000000e+00 3.1600898325737369e+01 8.1899468938672371e+00 6.4031742076347129e+00 
562 563 2 1.0280000000000551e+00 -4.9839805894847348e+02 1.0000000000000000e+00 3.3054898663070553e+01 9.2403147957383993e+00 7.9463998588221374e+00 
975 976 2 1.0279999999999634e+00 6.7998394698832749e+02 1.0000000000000000e+00 2.9372574789613996e+01 1.0728884100111738e+01 6.9129945565490631e+00 
16 17 2 1.0279999999999838e+00 -1.2578860187191779e+03 1.0000000000000000e+00 3.2300237104489945e+01 1.0231406779873701e+01 7.7051074554921781e+00 
1441 1442 2 1.0279999999999498e+00 2.6297173072899718e+03 1.0000000000000000e+00 3.2730365853361718e+01 1.1533965603075256e+01 6.6085240293995042e+00 
3144 3145 2 1.0280000000000773e+00 -2.3082462680077069e+03 1.0000000000000000e+00 2.7491939864284138e+01 1.3436729365509519e+01 6.7668916022771439e+00 
3444 3445 2 1.0279999999999316e+00 -1.4440601509353510e+03 1.0000000000000000e+00 2.8197121877229385e+01 1.3624910633364573e+01 6.0983303069616666e+00 
2059 2060 2 1.0280000000001515e+00 -2.1425361270491740e+03 1.0000000000000000e+00 2.8941628283158927e+01 1.2547832001054353e+01 7.6933099771929090e+00 
2562 2563 2 1.0279999999999165e+00 -2.5007188541511002e+02 1.0000000000000000e+00 2.8869045498660327e+01 1.3428821321522680e+01 7.5837057658737308e+00 
984 985 2 1.0280000000000029e+00 1.8838236309932386e+03 1.0000000000000000e+00 3.2299833902412942e+01 1.2461986865757195e+01 7.8940103103506534e+00 
985 986 2 1.0279999999999900e+00 6.1791894067359567e+02 1.0000000000000000e+00 3.2332168351423540e+01 1.3168955250578710e+01 7.0031251169590707e+00 
234 235 2 1.0280000000000082e+00 7.5504739440559803e+01 1.0000000000000000e+00 2.7905271504536792e+01 1.5543000133910716e+01 6.8328520848178878e+00 
235 236 2 1.0280000000000080e+00 2.9082595856029120e+03 1.0000000000000000e+00 2.8276742453613252e+01 1.5568426735552642e+01 7.4268375305651571e+00 
1486 1487 2 1.0280000000000200e+00 -2.3482128270517796e+03 1.0000000000000000e+00 3.3084989196706445e+01 1.5876653487624495e+01 7.8022618767798404e+00 
651 652 2 1.0280000000000227e+00 3.0669134205119826e+03 1.0000000000000000e+00 3.3085073449626975e+01 1.5876735995956707e+01 7.8023261944539737e+00 
384 385 2 1.0280000000000065e+00 -1.1013226539314101e+03 1.0000000000000000e+00 3.2343256996128950e+01 1.6668654836039796e+01 6.2531017290088888e+00 
3072 3073 2 1.0279999999999472e+00 -3.0998483387147724e+02 1.0000000000000000e+00 2.8076652363096084e+01 4.0610971937927653e-01 9.3403141780797476e+00 
3578 3579 2 1.0279999999999683e+00 -1.5582729165291812e+03 1.0000000000000000e+00 3.1836275409065660e+01 1.4679735923894504e+00 8.2436503960299454e+00 
476 477 2 1.0279999999999345e+00 -2.9681331156848028e+03 1.0000000000000000e+00 3.1639706557856186e+01 8.6419189027232257e-01 9.3455262307360023e+00 
1108 1109 2 1.0280000000000407e+00 1.1632806351720631e+03 1.0000000000000000e+00 3.3260632380863036e+01 1.1724318563874874e+00 9.9967888825453208e+00 
876 877 2 1.0279999999999812e+00 1.1023801609853165e+03 1.0000000000000000e+00 2.9101057460373635e+01 3.0737748949675439e+00 9.3912472527925193e+00 
2244 2245 2 1.0279999999998959e+00 3.9104774312644377e+03 1.0000000000000000e+00 3.2862680407177386e+01 3.8786305806332755e+00 8.9911322397006543e+00 
2754 2755 2 1.0280000000000111e+00 -1.6895781880885152e+03 1.0000000000000000e+00 2.4677454176367316e+01 4.3208947445118531e+00 8.4018689342078581e+00 
2209 2210 2 1.0280000000000014e+00 -2.4571607769983921e+03 1.0000000000000000e+00 2.4678389733108119e+01 4.3220208341695594e+00 8.4029851737042147e+00 
2539 2540 2 1.0279999999999727e+00 6.9390563864139258e+03 1.0000000000000000e+00 2.9773657266295668e+01 4.5388189456764021e+00 8.9172961088229066e+00 
1685 1686 2 1.0279999999999909e+00 5.3702738038993557e+03 1.0000000000000000e+00 2.9603017435981368e+01 4.9034968963433521e+00 9.9513762248805104e+00 
1341 1342 2 1.0279999999999785e+00 3.1587179722692254e+03 1.0000000000000000e+00 3.1198951200220275e+01 5.2536157253377249e+00 8.7583167503098309e+00 
1510 1511 2 1.0280000000000573e+00 3.7917384902497843e+03 1.0000000000000000e+00 3.1531186695565030e+01 5.1251872190281595e+00 9.2682554860060122e+00 
1386 1387 2 1.0279999999999703e+00 -2.2614823497288526e+02 1.0000000000000000e+00 2.7136538164310156e+01 7.8733237005488936e+00 8.0489119687544743e+00 
2772 2773 2 1.0279999999999516e+00 -2.2609192979651826e+02 1.0000000000000000e+00 2.7133854762974757e+01 7.8755845640007056e+00 8.0407664830415300e+00 
513 514 2 1.0280000000001028e+00 -1.4380391041328417e+03 1.0000000000000000e+00 2.9253183956773377e+01 7.1500016730368898e+00 8.1541068432373027e+00 
1397 1398 2 1.0279999999998926e+00 1.1129910783646669e+03 1.0000000000000000e+00 2.9789197523561750e+01 7.6108393917638244e+00 8.7046014814034880e+00 
1560 1561 2 1.0280000000001550e+00 1.6796483959746183e+03 1.0000000000000000e+00 3.1310388153669763e+01 8.1504695942680900e+00 9.6612307154965329e+00 
241 242 2 1.0279999999999210e+00 -2.9646333940140394e+03 1.0000000000000000e+00 2.8331716904162437e+01 1.1542273351423679e+01 9.0356561135849063e+00 
228 229 2 1.0279999999996385e+00 2.5889936341009357e+03 1.0000000000000000e+00 2.8327934347209546e+01 1.1620106945382679e+01 9.1598434965352915e+00 
1270 1271 2 1.0279999999999909e+00 3.1795619645812039e+03 1.0000000000000000e+00 3.1243805139955473e+01 1.1452894982671610e+01 9.4311147840335003e+00 
604 605 2 1.0280000000000400e+00 -3.8913137961580287e+03 1.0000000000000000e+00 3.2061269017578248e+01 1.0501966794143827e+01 8.8259859991194620e+00 
1099 1100 2 1.0279999999999865e+00 4.1943078939970164e+03 1.0000000000000000e+00 2.7159729947327651e+01 1.3960769345082346e+01 9.8209704876185917e+00 
344 345 2 1.0280000000000618e+00 -1.5388780288841094e+03 1.0000000000000000e+00 2.7471935910444245e+01 1.3778697556433347e+01 9.6888776397015768e+00 
644 645 2 1.0279999999999869e+00 2.1635550644958248e+03 1.0000000000000000e+00 3.1485866953428836e+01 1.2119027385158359e+01 9.2026820062237675e+00 
1012 1013 2 1.0279999999999963e+00 -1.9174967190058987e+02 1.0000000000000000e+00 2.7017329569873816e+01 1.6579551654559634e+01 8.0448504058050236e+00 
815 816 2 1.0280000000000000e+00 -2.8907918170095957e+02 1.0000000000000000e+00 2.6722626595562989e+01 1.6121017111094016e+01 8.0456274960370813e+00 
1345 1346 2 1.0279999999999117e+00 -2.2754322106607313e+02 1.0000000000000000e+00 3.2546283148837681e+01 1.8093383059587715e+01 8.8180524740296189e+00 
2731 2732 2 1.0279999999998959e+00 -2.2760428504110959e+02 1.0000000000000000e+00 3.2547460191933219e+01 1.8153666955296792e+01 8.8243624269915912e+00 
3655 3656 2 1.0280000000000165e+00 3.3990203656537196e+03 1.0000000000000000e+00 2.7701616381165927e+01 4.3299514614155321e-01 1.0240222647368618e+01 
3659 3660 2 1.0279999999999423e+00 5.8584329680495875e+02 1.0000000000000000e+00 2.9311780445162199e+01 1.5463528438527707e+00 1.0089220886690791e+01 
2894 2895 2 1.0280000000000016e+00 -4.7701810428704885e+03 1.0000000000000000e+00 3.0368980623472087e+01 9.0218810612170175e-01 1.0794709493269087e+01 