LAMMPS data file via write_data, version 30 Jul 2016, timestep = 600000

2080 atoms
8 atom types

0.0000000000000000e+00 4.0000000000000000e+01 xlo xhi
0.0000000000000000e+00 4.0000000000000000e+01 ylo yhi
0.0000000000000000e+00 1.0000000000000000e+02 zlo zhi

Masses

1 3.896
2 5.36
3 1058.08
4 8.378
5 8.378
6 8.378
7 8.378
8 8.378

Atoms # meso-molecular

1 2 4 2.2559723595316457e+00 9.9992301782769766e-01 4.2000000000000000e+03 0.0000000000000000e+00 0.0000000000000000e+00 2.5000000000000000e+00 
21 2 4 2.2559723595316621e+00 1.0000053795838000e+00 4.2000000000000000e+03 2.0000000000000000e+00 0.0000000000000000e+00 2.5000000000000000e+00 
41 2 4 2.2559723595316457e+00 9.1991338641397957e-01 4.2000000000000000e+03 4.0000000000000000e+00 0.0000000000000000e+00 2.5000000000000000e+00 
61 2 4 2.2559723595316457e+00 1.0000000000000000e+00 4.2000000000000000e+03 6.0000000000000000e+00 0.0000000000000000e+00 2.5000000000000000e+00 
81 2 4 2.2559723595316457e+00 1.0341387373046658e+00 4.2000000000000000e+03 8.0000000000000000e+00 0.0000000000000000e+00 2.5000000000000000e+00 
101 2 4 2.2559723595316457e+00 1.0000000000000000e+00 4.2000000000000000e+03 1.0000000000000000e+01 0.0000000000000000e+00 2.5000000000000000e+00 
121 2 4 2.2559723595316457e+00 1.0000000000000000e+00 4.2000000000000000e+03 1.2000000000000000e+01 0.0000000000000000e+00 2.5000000000000000e+00 
141 2 4 2.2559723595316457e+00 1.0000000000000000e+00 4.2000000000000000e+03 1.4000000000000000e+01 0.0000000000000000e+00 2.5000000000000000e+00 
161 2 4 2.2559723595316457e+00 1.0000000000000000e+00 4.2000000000000000e+03 1.6000000000000000e+01 0.0000000000000000e+00 2.5000000000000000e+00 
181 2 4 2.2559723595316457e+00 -1.9508368248291948e+01 4.2000000000000000e+03 1.8000000000000000e+01 0.0000000000000000e+00 2.5000000000000000e+00 
2 2 4 2.2559723595316457e+00 9.9999960068826788e-01 4.2000000000000000e+03 0.0000000000000000e+00 2.0000000000000000e+00 2.5000000000000000e+00 
22 2 4 2.2559723595316457e+00 1.0000000316983093e+00 4.2000000000000000e+03 2.0000000000000000e+00 2.0000000000000000e+00 2.5000000000000000e+00 
42 2 4 2.2559723595316457e+00 1.0000000000000000e+00 4.2000000000000000e+03 4.0000000000000000e+00 2.0000000000000000e+00 2.5000000000000000e+00 
62 2 4 2.2559723595316457e+00 1.0000000000000000e+00 4.2000000000000000e+03 6.0000000000000000e+00 2.0000000000000000e+00 2.5000000000000000e+00 
82 2 4 2.2559723595316457e+00 9.9326014939230101e-01 4.2000000000000000e+03 8.0000000000000000e+00 2.0000000000000000e+00 2.5000000000000000e+00 
102 2 4 2.2559723595316457e+00 1.0000000000000000e+00 4.2000000000000000e+03 1.0000000000000000e+01 2.0000000000000000e+00 2.5000000000000000e+00 
122 2 4 2.2559723595316457e+00 1.0000000000000000e+00 4.2000000000000000e+03 1.2000000000000000e+01 2.0000000000000000e+00 2.5000000000000000e+00 
142 2 4 2.2559723595316457e+00 1.0000000000000000e+00 4.2000000000000000e+03 1.4000000000000000e+01 2.0000000000000000e+00 2.5000000000000000e+00 
162 2 4 2.2559723595316457e+00 1.0000000000000000e+00 4.2000000000000000e+03 1.6000000000000000e+01 2.0000000000000000e+00 2.5000000000000000e+00 
182 2 4 2.2559723595316457e+00 1.0000000000000000e+00 4.2000000000000000e+03 1.8000000000000000e+01 2.0000000000000000e+00 2.5000000000000000e+00 
3 2 4 2.2559723595316457e+00 9.9905182249071933e-01 4.2000000000000000e+03 0.0000000000000000e+00 4.0000000000000000e+00 2.5000000000000000e+00 
23 2 4 2.2559723595316457e+00 1.0000000000000000e+00 4.2000000000000000e+03 2.0000000000000000e+00 4.0000000000000000e+00 2.5000000000000000e+00 
43 2 4 2.2559723595316457e+00 1.0000000000000000e+00 4.2000000000000000e+03 4.0000000000000000e+00 4.0000000000000000e+00 2.5000000000000000e+00 
63 2 4 2.2559723595316457e+00 1.0000000000000000e+00 4.2000000000000000e+03 6.0000000000000000e+00 4.0000000000000000e+00 2.5000000000000000e+00 
83 2 4 2.2559723595316457e+00 1.0000000000000000e+00 4.2000000000000000e+03 8.0000000000000000e+00 4.0000000000000000e+00 2.5000000000000000e+00 
103 2 4 2.2559723595316457e+00 1.0000000000000000e+00 4.2000000000000000e+03 1.0000000000000000e+01 4.0000000000000000e+00 2.5000000000000000e+00 
123 2 4 2.2559723595316457e+00 1.0000000000000000e+00 4.2000000000000000e+03 1.2000000000000000e+01 4.0000000000000000e+00 2.5000000000000000e+00 
143 2 4 2.2559723595316457e+00 1.0000000000000000e+00 4.2000000000000000e+03 1.4000000000000000e+01 4.0000000000000000e+00 2.5000000000000000e+00 
163 2 4 2.2559723595316457e+00 1.0000000950900643e+00 4.2000000000000000e+03 1.6000000000000000e+01 4.0000000000000000e+00 2.5000000000000000e+00 
183 2 4 2.2559723595316457e+00 1.0000002966114439e+00 4.2000000000000000e+03 1.8000000000000000e+01 4.0000000000000000e+00 2.5000000000000000e+00 
4 2 4 2.2559723595316457e+00 1.0000000000000000e+00 4.2000000000000000e+03 0.0000000000000000e+00 6.0000000000000000e+00 2.5000000000000000e+00 
24 2 4 2.2559723595316457e+00 1.0000000000000000e+00 4.2000000000000000e+03 2.0000000000000000e+00 6.0000000000000000e+00 2.5000000000000000e+00 
44 2 4 2.2559723595316457e+00 1.0000000000000000e+00 4.2000000000000000e+03 4.0000000000000000e+00 6.0000000000000000e+00 2.5000000000000000e+00 
64 2 4 2.2559723595316457e+00 1.0000000000000000e+00 4.2000000000000000e+03 6.0000000000000000e+00 6.0000000000000000e+00 2.5000000000000000e+00 
84 2 4 2.2559723595316457e+00 1.0000000000000000e+00 4.2000000000000000e+03 8.0000000000000000e+00 6.0000000000000000e+00 2.5000000000000000e+00 
104 2 4 2.2559723595316457e+00 1.0000000000000000e+00 4.2000000000000000e+03 1.0000000000000000e+01 6.0000000000000000e+00 2.5000000000000000e+00 
124 2 4 2.2559723595316457e+00 1.0000000000000000e+00 4.2000000000000000e+03 1.2000000000000000e+01 6.0000000000000000e+00 2.5000000000000000e+00 
144 2 4 2.2559723595316457e+00 1.0000000000000000e+00 4.2000000000000000e+03 1.4000000000000000e+01 6.0000000000000000e+00 2.5000000000000000e+00 
164 2 4 2.2559723595316457e+00 1.0000000000000000e+00 4.2000000000000000e+03 1.6000000000000000e+01 6.0000000000000000e+00 2.5000000000000000e+00 
184 2 4 2.2559723595316457e+00 9.9797290352049606e-01 4.2000000000000000e+03 1.8000000000000000e+01 6.0000000000000000e+00 2.5000000000000000e+00 
5 2 4 2.2559723595316457e+00 1.0000000000000000e+00 4.2000000000000000e+03 0.0000000000000000e+00 8.0000000000000000e+00 2.5000000000000000e+00 
25 2 4 2.2559723595316457e+00 8.7434764170581158e-01 4.2000000000000000e+03 2.0000000000000000e+00 8.0000000000000000e+00 2.5000000000000000e+00 
45 2 4 2.2559723595316457e+00 1.0000000000000000e+00 4.2000000000000000e+03 4.0000000000000000e+00 8.0000000000000000e+00 2.5000000000000000e+00 
65 2 4 2.2559723595316457e+00 1.0000000000000000e+00 4.2000000000000000e+03 6.0000000000000000e+00 8.0000000000000000e+00 2.5000000000000000e+00 
85 2 4 2.2559723595316457e+00 1.0000000000000000e+00 4.2000000000000000e+03 8.0000000000000000e+00 8.0000000000000000e+00 2.5000000000000000e+00 
105 2 4 2.2559723595316457e+00 1.0000000000000000e+00 4.2000000000000000e+03 1.0000000000000000e+01 8.0000000000000000e+00 2.5000000000000000e+00 
125 2 4 2.2559723595316457e+00 1.0000000000000000e+00 4.2000000000000000e+03 1.2000000000000000e+01 8.0000000000000000e+00 2.5000000000000000e+00 
145 2 4 2.2559723595316457e+00 1.0000000000000000e+00 4.2000000000000000e+03 1.4000000000000000e+01 8.0000000000000000e+00 2.5000000000000000e+00 
165 2 4 2.2559723595316457e+00 1.0201615384020432e-01 4.2000000000000000e+03 1.6000000000000000e+01 8.0000000000000000e+00 2.5000000000000000e+00 
185 2 4 2.2559723595316457e+00 -2.8792232148360126e+00 4.2000000000000000e+03 1.8000000000000000e+01 8.0000000000000000e+00 2.5000000000000000e+00 
6 2 4 2.2559723595316457e+00 1.0410413620960302e+00 4.2000000000000000e+03 0.0000000000000000e+00 1.0000000000000000e+01 2.5000000000000000e+00 
26 2 4 2.2559723595316457e+00 2.6148823328039041e+00 4.2000000000000000e+03 2.0000000000000000e+00 1.0000000000000000e+01 2.5000000000000000e+00 
46 2 4 2.2559723595316457e+00 1.0000000000000000e+00 4.2000000000000000e+03 4.0000000000000000e+00 1.0000000000000000e+01 2.5000000000000000e+00 
66 2 4 2.2559723595316457e+00 1.0000000000000000e+00 4.2000000000000000e+03 6.0000000000000000e+00 1.0000000000000000e+01 2.5000000000000000e+00 
86 2 4 2.2559723595316457e+00 1.0000000000000000e+00 4.2000000000000000e+03 8.0000000000000000e+00 1.0000000000000000e+01 2.5000000000000000e+00 
106 2 4 2.2559723595316457e+00 1.0000000000000000e+00 4.2000000000000000e+03 1.0000000000000000e+01 1.0000000000000000e+01 2.5000000000000000e+00 
126 2 4 2.2559723595316457e+00 1.0000000000000000e+00 4.2000000000000000e+03 1.2000000000000000e+01 1.0000000000000000e+01 2.5000000000000000e+00 
146 2 4 2.2559723595316457e+00 1.0000000000000000e+00 4.2000000000000000e+03 1.4000000000000000e+01 1.0000000000000000e+01 2.5000000000000000e+00 
166 2 4 2.2559723595316457e+00 1.0000000000000000e+00 4.2000000000000000e+03 1.6000000000000000e+01 1.0000000000000000e+01 2.5000000000000000e+00 
186 2 4 2.2559723595316457e+00 9.9224483993495305e-01 4.2000000000000000e+03 1.8000000000000000e+01 1.0000000000000000e+01 2.5000000000000000e+00 
7 2 4 2.2559723595316457e+00 1.4125421182587581e+00 4.2000000000000000e+03 0.0000000000000000e+00 1.2000000000000000e+01 2.5000000000000000e+00 
27 2 4 2.2559723595316457e+00 1.0000000000000000e+00 4.2000000000000000e+03 2.0000000000000000e+00 1.2000000000000000e+01 2.5000000000000000e+00 
47 2 4 2.2559723595316457e+00 1.0000000000000000e+00 4.2000000000000000e+03 4.0000000000000000e+00 1.2000000000000000e+01 2.5000000000000000e+00 
67 2 4 2.2559723595316457e+00 1.0000000000000000e+00 4.2000000000000000e+03 6.0000000000000000e+00 1.2000000000000000e+01 2.5000000000000000e+00 
87 2 4 2.2559723595316457e+00 1.0000000000000000e+00 4.2000000000000000e+03 8.0000000000000000e+00 1.2000000000000000e+01 2.5000000000000000e+00 
107 2 4 2.2559723595316457e+00 1.0000000000000000e+00 4.2000000000000000e+03 1.0000000000000000e+01 1.2000000000000000e+01 2.5000000000000000e+00 
127 2 4 2.2559723595316457e+00 1.0000000000000000e+00 4.2000000000000000e+03 1.2000000000000000e+01 1.2000000000000000e+01 2.5000000000000000e+00 
147 2 4 2.2559723595316457e+00 1.0000000000000000e+00 4.2000000000000000e+03 1.4000000000000000e+01 1.2000000000000000e+01 2.5000000000000000e+00 
167 2 4 2.2559723595316457e+00 1.0000000000000000e+00 4.2000000000000000e+03 1.6000000000000000e+01 1.2000000000000000e+01 2.5000000000000000e+00 
187 2 4 2.2559723595316457e+00 3.8558680840164197e+00 4.2000000000000000e+03 1.8000000000000000e+01 1.2000000000000000e+01 2.5000000000000000e+00 
8 2 4 2.2559723595316457e+00 2.0596011795143268e+00 4.2000000000000000e+03 0.0000000000000000e+00 1.4000000000000000e+01 2.5000000000000000e+00 
28 2 4 2.2559723595316457e+00 1.0000000000000000e+00 4.2000000000000000e+03 2.0000000000000000e+00 1.4000000000000000e+01 2.5000000000000000e+00 
48 2 4 2.2559723595316457e+00 1.0000000000000000e+00 4.2000000000000000e+03 4.0000000000000000e+00 1.4000000000000000e+01 2.5000000000000000e+00 
68 2 4 2.2559723595316457e+00 1.0000000000000000e+00 4.2000000000000000e+03 6.0000000000000000e+00 1.4000000000000000e+01 2.5000000000000000e+00 
88 2 4 2.2559723595316457e+00 1.0000000000000000e+00 4.2000000000000000e+03 8.0000000000000000e+00 1.4000000000000000e+01 2.5000000000000000e+00 
108 2 4 2.2559723595316457e+00 1.0000000000000000e+00 4.2000000000000000e+03 1.0000000000000000e+01 1.4000000000000000e+01 2.5000000000000000e+00 
128 2 4 2.2559723595316457e+00 1.0000000000000000e+00 4.2000000000000000e+03 1.2000000000000000e+01 1.4000000000000000e+01 2.5000000000000000e+00 
148 2 4 2.2559723595316457e+00 1.0000000000000000e+00 4.2000000000000000e+03 1.4000000000000000e+01 1.4000000000000000e+01 2.5000000000000000e+00 
168 2 4 2.2559723595316457e+00 1.0000000000000000e+00 4.2000000000000000e+03 1.6000000000000000e+01 1.4000000000000000e+01 2.5000000000000000e+00 
188 2 4 2.2559723595316457e+00 4.5088803656656822e+00 4.2000000000000000e+03 1.8000000000000000e+01 1.4000000000000000e+01 2.5000000000000000e+00 
9 2 4 2.2559723595316457e+00 9.9999143423279602e-01 4.2000000000000000e+03 0.0000000000000000e+00 1.6000000000000000e+01 2.5000000000000000e+00 
29 2 4 2.2559723595316457e+00 1.0000000000000000e+00 4.2000000000000000e+03 2.0000000000000000e+00 1.6000000000000000e+01 2.5000000000000000e+00 
49 2 4 2.2559723595316457e+00 1.0000000000000000e+00 4.2000000000000000e+03 4.0000000000000000e+00 1.6000000000000000e+01 2.5000000000000000e+00 
69 2 4 2.2559723595316457e+00 1.0000000000000000e+00 4.2000000000000000e+03 6.0000000000000000e+00 1.6000000000000000e+01 2.5000000000000000e+00 
89 2 4 2.2559723595316457e+00 1.0000000000000000e+00 4.2000000000000000e+03 8.0000000000000000e+00 1.6000000000000000e+01 2.5000000000000000e+00 
109 2 4 2.2559723595316457e+00 1.0000000000000000e+00 4.2000000000000000e+03 1.0000000000000000e+01 1.6000000000000000e+01 2.5000000000000000e+00 
129 2 4 2.2559723595316457e+00 1.0000000000000000e+00 4.2000000000000000e+03 1.2000000000000000e+01 1.6000000000000000e+01 2.5000000000000000e+00 
149 2 4 2.2559723595316457e+00 1.0000000000000000e+00 4.2000000000000000e+03 1.4000000000000000e+01 1.6000000000000000e+01 2.5000000000000000e+00 
169 2 4 2.2559723595316457e+00 1.0000000000000000e+00 4.2000000000000000e+03 1.6000000000000000e+01 1.6000000000000000e+01 2.5000000000000000e+00 
189 2 4 2.2559723595316457e+00 -8.5059824138833804e+00 4.2000000000000000e+03 1.8000000000000000e+01 1.6000000000000000e+01 2.5000000000000000e+00 
10 2 4 2.2559723595316457e+00 9.9993493955015589e-01 4.2000000000000000e+03 0.0000000000000000e+00 1.8000000000000000e+01 2.5000000000000000e+00 
30 2 4 2.2559723595316457e+00 -5.9571348569751121e+00 4.2000000000000000e+03 2.0000000000000000e+00 1.8000000000000000e+01 2.5000000000000000e+00 
50 2 4 2.2559723595316457e+00 1.0183909393455726e+00 4.2000000000000000e+03 4.0000000000000000e+00 1.8000000000000000e+01 2.5000000000000000e+00 
70 2 4 2.2559723595316457e+00 1.0000000000000000e+00 4.2000000000000000e+03 6.0000000000000000e+00 1.8000000000000000e+01 2.5000000000000000e+00 
90 2 4 2.2559723595316457e+00 1.0000000000000000e+00 4.2000000000000000e+03 8.0000000000000000e+00 1.8000000000000000e+01 2.5000000000000000e+00 
110 2 4 2.2559723595316457e+00 8.9832299684322048e-01 4.2000000000000000e+03 1.0000000000000000e+01 1.8000000000000000e+01 2.5000000000000000e+00 
130 2 4 2.2559723595316457e+00 1.8756161214829854e+00 4.2000000000000000e+03 1.2000000000000000e+01 1.8000000000000000e+01 2.5000000000000000e+00 
150 2 4 2.2559723595316457e+00 1.0000000000000000e+00 4.2000000000000000e+03 1.4000000000000000e+01 1.8000000000000000e+01 2.5000000000000000e+00 
170 2 4 2.2559723595316457e+00 9.9963015066200001e-01 4.2000000000000000e+03 1.6000000000000000e+01 1.8000000000000000e+01 2.5000000000000000e+00 
190 2 4 2.2559723595316457e+00 -2.0531721256761109e+01 4.2000000000000000e+03 1.8000000000000000e+01 1.8000000000000000e+01 2.5000000000000000e+00 
1111 713 2 1.0279717382952611e+00 -5.8875096843700057e+03 4.2000000000000000e+03 1.7939554581876916e+01 7.9598842010897757e+00 5.5516839748511853e+00 
780 382 2 1.0279577361809293e+00 1.9884563670406069e+03 4.2000000000000000e+03 1.9732381421690413e+01 7.2733226523295622e+00 5.5511910622851879e+00 
777 379 2 1.0279811175652804e+00 1.9884745839104098e+03 4.2000000000000000e+03 1.8290503353580881e+01 7.2854087019541014e+00 5.5584649128593693e+00 
1095 697 2 1.0279931992606759e+00 -1.0952886730514881e+03 4.2000000000000000e+03 1.9368911245381252e+01 9.1152342803820083e+00 6.0825136147878149e+00 
1094 696 2 1.0280301237117973e+00 -1.0952683265117576e+03 4.2000000000000000e+03 1.8660964496851673e+01 9.1228704091536716e+00 6.0846390700911517e+00 
1235 837 2 1.0280022410573901e+00 1.4251562444632489e+03 4.2000000000000000e+03 5.5478487525932767e+00 1.7791266147017623e+01 1.7536655364680346e+01 
1403 1005 2 1.0280026807692042e+00 1.4252933579959638e+03 4.2000000000000000e+03 5.5505188014011138e+00 1.7757792419507197e+01 1.7527261055727148e+01 
715 317 2 1.0280040440307254e+00 1.1910110094421420e+03 4.2000000000000000e+03 5.1393723185205236e+00 1.5505282042713441e+01 1.8243198463276688e+01 
552 154 2 1.0280023767520163e+00 2.3012938849301338e+02 4.2000000000000000e+03 5.1029814213372235e+00 1.5321708433286792e+01 1.8329110396243056e+01 
1577 1179 2 1.0279969937711464e+00 -2.0652056897300822e+03 4.2000000000000000e+03 6.3364603559987600e+00 1.4588585215156513e+01 1.9504129687780789e+01 
737 339 2 1.0279997062256263e+00 -2.0638271583554674e+03 4.2000000000000000e+03 6.3394555859877073e+00 1.4665936113853482e+01 1.9523557415543245e+01 
2079 1681 2 1.0279995889775027e+00 2.5832710913638641e+02 4.2000000000000000e+03 4.7820889524737629e+00 1.7745394471125454e+01 1.8911591379175693e+01 
567 169 2 1.0279909968154233e+00 2.6078058025449093e+02 4.2000000000000000e+03 4.8289018426895849e+00 1.7050885839647208e+01 1.9189388381378304e+01 
750 352 2 1.0280002768269252e+00 -3.0191817434014229e+03 4.2000000000000000e+03 1.4314833008405447e+01 1.7791756927076573e+01 1.8971277183179655e+01 
891 493 2 1.0280000492352905e+00 -2.9569145688238063e+03 4.2000000000000000e+03 1.4193633332137095e+01 1.6722186643214144e+01 1.9391557290698941e+01 
887 489 2 1.0279999051515527e+00 -3.5829498081899742e+03 4.2000000000000000e+03 1.4380414943362506e+01 1.8806448222005528e+01 1.8057723274398231e+01 
751 353 2 1.0279999168092202e+00 -2.9760449976531536e+03 4.2000000000000000e+03 1.4371307703025563e+01 1.8823237085045164e+01 1.8076687329262331e+01 
886 488 2 1.0279997316891034e+00 -3.6105744207343882e+03 4.2000000000000000e+03 1.1257284863721738e+01 1.1803866070738307e+01 2.1225067341048522e+01 
1951 1553 2 1.0279980916922480e+00 -8.8558773515125574e+02 4.2000000000000000e+03 5.8007971589717453e+00 1.2812763564600630e+01 2.0966560031761922e+01 
574 176 2 1.0280013707926379e+00 3.8498966250903572e+03 4.2000000000000000e+03 7.0086508461306876e+00 1.3721732617740573e+01 2.1050379068540543e+01 
1594 1196 2 1.0280031497771400e+00 -3.5996047447851906e+03 4.2000000000000000e+03 9.0951786856396222e+00 1.2498238998631512e+01 2.1090311169392432e+01 
1591 1193 2 1.0279919494827052e+00 -3.0268232744648558e+03 4.2000000000000000e+03 8.6794740405240471e+00 1.2320506613445721e+01 2.1255961043503518e+01 
1930 1532 2 1.0280004925243931e+00 -5.5095674558935377e+02 4.2000000000000000e+03 1.0691082154655788e+01 1.3315615236420930e+01 2.1495952949150187e+01 
443 45 2 1.0280004383827865e+00 -1.7301033671130510e+03 4.2000000000000000e+03 1.2166322994262686e+01 1.3930723656200989e+01 2.0441666947360371e+01 
1955 1557 2 1.0280003725853273e+00 -1.7298137529278072e+03 4.2000000000000000e+03 1.2512729447474349e+01 1.4963175958166566e+01 2.0454591455724266e+01 
2064 1666 2 1.0279880177471963e+00 2.3121446253070434e+02 4.2000000000000000e+03 4.5811864370908602e+00 1.7516309310265004e+01 2.1190264453247831e+01 
1891 1493 2 1.0279953308698060e+00 1.1927821324256117e+03 4.2000000000000000e+03 4.6063250137102640e+00 1.7571631327411676e+01 2.1211026069064978e+01 
890 492 2 1.0280002980239924e+00 -2.9769498391476054e+03 4.2000000000000000e+03 1.3208339636893996e+01 1.6310013159054474e+01 2.0512425462466602e+01 
1896 1498 2 1.0279999479110333e+00 1.9802002827542719e+03 4.2000000000000000e+03 1.4779784736145201e+01 1.6558179317392238e+01 2.0580964505454887e+01 
1726 1328 2 1.0279998668812038e+00 -3.6078986192013549e+03 4.2000000000000000e+03 1.4183277635722293e+01 1.6002668394982962e+01 2.1080046007023910e+01 
1595 1197 2 1.0280002585961074e+00 -3.6251322411940855e+03 4.2000000000000000e+03 9.2013058143567967e+00 1.1565736608880409e+01 2.2695159051231897e+01 
1730 1332 2 1.0280005493250843e+00 -2.9668064064481528e+03 4.2000000000000000e+03 9.2213377481637941e+00 1.1580267729532816e+01 2.2704551304292377e+01 
720 322 2 1.0280017840628124e+00 1.9692385046113695e+03 4.2000000000000000e+03 1.1242217498933124e+01 1.1667148727129756e+01 2.1788065360524548e+01 
903 505 2 1.0280009449500205e+00 -1.2002038214631341e+03 4.2000000000000000e+03 5.8641871717459457e+00 1.2636851531566126e+01 2.1775146530753883e+01 
1385 987 2 1.0280024080360277e+00 2.5205161879868106e+03 4.2000000000000000e+03 6.4377799462456924e+00 1.3707926901298583e+01 2.1948854035719297e+01 
1590 1192 2 1.0279986024297980e+00 -3.0084763110069680e+03 4.2000000000000000e+03 1.1114405164477567e+01 1.3392621740945975e+01 2.3230633763864102e+01 
1731 1333 2 1.0279997962486604e+00 -2.9717627946815333e+03 4.2000000000000000e+03 1.1312753366168042e+01 1.3656286178501702e+01 2.3356837873872063e+01 
754 356 2 1.0279999904294084e+00 -3.6018380657611247e+03 4.2000000000000000e+03 1.2564489745241262e+01 1.2710350884447124e+01 2.1695649815299330e+01 
755 357 2 1.0279997679424673e+00 -3.5955077525902593e+03 4.2000000000000000e+03 1.3056757821394886e+01 1.3719874864361737e+01 2.1703550026474336e+01 
418 20 2 1.0280000690660056e+00 -5.5639166389417619e+02 4.2000000000000000e+03 1.1327353130146204e+01 1.4829742033766347e+01 2.1696499523510493e+01 
1169 771 2 1.0280003133575029e+00 1.5635699530171814e+03 4.2000000000000000e+03 1.2190387680580232e+01 1.4756255523182858e+01 2.2433217030127921e+01 
922 524 2 1.0280006704758424e+00 -3.7093514875424233e+02 4.2000000000000000e+03 4.2937599922581917e+00 1.7533212286901890e+01 2.2715664379592475e+01 
1172 774 2 1.0280004431261267e+00 1.5261777337447288e+03 4.2000000000000000e+03 1.7462283274640804e+01 1.3207132254052347e+01 2.4574127966505799e+01 
2032 1634 2 1.0279989614328293e+00 1.3537983844474038e+03 4.2000000000000000e+03 1.8070186186863971e+01 1.3471851302913704e+01 2.5153138626905104e+01 
1964 1566 2 1.0280002762198781e+00 1.3733435022933202e+03 4.2000000000000000e+03 1.7750116172072044e+01 1.4023081017585518e+01 2.4546032698642591e+01 
550 152 2 1.0279866509384725e+00 -5.4350129122135274e+02 4.2000000000000000e+03 4.2168128160352101e+00 1.7546886333327382e+01 2.3597307727963109e+01 
1273 875 2 1.0280012702871728e+00 1.6348016002450929e+03 4.2000000000000000e+03 4.1837269568905846e+00 1.7809405306640759e+01 2.4599875613493030e+01 
1128 730 2 1.0280002828467698e+00 1.4153464980569549e+03 4.2000000000000000e+03 2.1440747934489063e-01 4.1634381292847467e+00 2.6158714176122345e+01 
468 70 2 1.0280006053534712e+00 3.1793844115638888e+02 4.2000000000000000e+03 5.0431408474343264e-01 4.3266525123030535e+00 2.6188823710884932e+01 
2029 1631 2 1.0279993065617454e+00 1.3596437456630194e+03 4.2000000000000000e+03 1.9661156031228430e+01 1.2818369922660510e+01 2.6981731323057303e+01 
1961 1563 2 1.0280002928953140e+00 1.3927493436831608e+03 4.2000000000000000e+03 1.9772270929069375e+01 1.2853579707232687e+01 2.7240783647422649e+01 
1984 1586 2 1.0279917529362441e+00 4.5564388655718494e+02 4.2000000000000000e+03 3.8870053617595564e+00 1.7581522506244344e+01 2.5632177137512695e+01 
1229 831 2 1.0279994967872805e+00 1.9259643900182298e+03 4.2000000000000000e+03 3.4863069868381373e+00 1.6689362557819521e+01 2.6023617493519655e+01 
723 325 2 1.0279977373909641e+00 1.7028382288772384e+03 4.2000000000000000e+03 3.5139298234590224e+00 1.6374590051577119e+01 2.7055611969819093e+01 
1407 1009 2 1.0280000760127259e+00 -1.1743684208928221e+03 4.2000000000000000e+03 2.6238829096212263e-01 3.8762699874145272e+00 2.7960037021309962e+01 
1137 739 2 1.0279992140373866e+00 1.8565569788576556e+03 4.2000000000000000e+03 9.5437330653117922e-02 4.5724131408129809e+00 2.7637229181495986e+01 
1907 1509 2 1.0280023075591618e+00 3.6286686646941989e+03 4.2000000000000000e+03 2.0258614248457802e+00 1.6515426045185926e+01 2.7836234176314537e+01 
1906 1508 2 1.0280021924330629e+00 3.6285208839400734e+03 4.2000000000000000e+03 2.0281093497791707e+00 1.6503343925740126e+01 2.7827524805897013e+01 
1105 707 2 1.0279970088744381e+00 1.6485323638283892e+03 4.2000000000000000e+03 3.3874850280117128e+00 1.7823312276377841e+01 2.7761773229877232e+01 
1092 694 2 1.0280024430905446e+00 1.2664983570284533e+03 4.2000000000000000e+03 1.5877413170382468e+00 1.9287508882950878e+01 2.8781851187348895e+01 
1767 1369 2 1.0279993710717106e+00 1.3007345546241258e+03 4.2000000000000000e+03 3.1091651027090981e+00 1.8531185050474427e+01 2.8309260453977107e+01 
1929 1531 2 1.0279984794542840e+00 1.4718369672141475e+02 4.2000000000000000e+03 2.2868400858457072e+00 1.8729014209789071e+01 2.9147558797038549e+01 
417 19 2 1.0280007998335343e+00 1.4619449296743815e+02 4.2000000000000000e+03 2.8178103217276890e-01 1.3120761400346423e+01 3.0082338523298478e+01 
591 193 2 1.0279975632809448e+00 1.2991265796937748e+03 4.2000000000000000e+03 1.3055140372845353e+00 1.2937246843665189e+01 3.0353463705615113e+01 
1089 691 2 1.0279974338943962e+00 1.2662099203011330e+03 4.2000000000000000e+03 7.8726755087049127e-01 1.9742755416017431e+01 2.9524799850154920e+01 
1921 1523 2 1.0280008646041794e+00 -4.2983879842719552e+03 4.2000000000000000e+03 1.2994156403282011e+00 1.1921316051066587e+01 3.1442938206186575e+01 
409 11 2 1.0280005896293531e+00 -4.3001345835178417e+03 4.2000000000000000e+03 1.1457910185529254e+00 1.1993735616101988e+01 3.1560944084984168e+01 
1297 899 2 1.0280005396461209e+00 1.1126659335146844e+03 4.2000000000000000e+03 1.6855841463093849e+01 1.7809597931811803e+00 3.5863881091212463e+01 
1286 888 2 1.0279989696448382e+00 -5.6228844425657617e+03 4.2000000000000000e+03 1.6312907499216276e+01 1.2451203088525253e+00 3.6544519119388923e+01 
1300 902 2 1.0280001562308412e+00 1.1123512188569384e+03 4.2000000000000000e+03 1.8778317010414064e+01 1.8016139116872090e+00 3.6406099923924465e+01 
1287 889 2 1.0280018857632511e+00 -5.6233835682534891e+03 4.2000000000000000e+03 1.9262297404411992e+01 5.4897927195625806e-01 3.6591199280657456e+01 
1280 882 2 1.0279981840315067e+00 9.9425795635510678e+02 4.2000000000000000e+03 1.9034199322123015e+01 1.8248691898207221e+00 3.6939001421387431e+01 
1277 879 2 1.0279999217548919e+00 9.9481621477493786e+02 4.2000000000000000e+03 1.6383448533256711e+01 2.1610749577877408e+00 3.6536154625730049e+01 
1915 1517 2 1.0279943746917750e+00 -2.1407005118802905e+02 4.2000000000000000e+03 1.7130370702927561e+01 1.3642854940823286e+00 3.8563325648685080e+01 
402 4 2 1.0280109072700585e+00 -2.1494214647715651e+02 4.2000000000000000e+03 1.7689183136248364e+01 1.2114830069079001e+00 3.8619453969407040e+01 
824 426 2 1.0279916380632357e+00 1.3466811754343166e+03 4.2000000000000000e+03 1.9463772796699054e+01 5.4063614016681638e-01 3.8991100791433361e+01 
965 567 2 1.0280036763134823e+00 2.6608605459320452e+03 4.2000000000000000e+03 1.5412665288207327e+01 1.4924676569310675e+00 3.9577661590386278e+01 
621 223 2 1.0280004789883082e+00 -1.1345362110216224e+03 4.2000000000000000e+03 1.5164675392761989e+01 4.4628242088615550e-01 4.0753006460270356e+01 
978 580 2 1.0279972271877482e+00 4.8450491942271456e+03 4.2000000000000000e+03 1.6853462418936683e+01 1.0885968434709308e+00 4.0944720822255803e+01 
454 56 2 1.0280058450964507e+00 -1.0864124588761845e+03 4.2000000000000000e+03 1.9312838509176355e+01 5.3722922116488059e-01 4.0814352413754513e+01 
464 66 2 1.0279971555116487e+00 8.9584645387320006e+02 4.2000000000000000e+03 1.6157764878386249e+01 2.0047429127350838e+00 3.9848529776295386e+01 
403 5 2 1.0279990022168704e+00 -2.1494702563375637e+02 4.2000000000000000e+03 1.7302743479843514e+01 3.1968269568728189e+00 4.0932793016396289e+01 
461 63 2 1.0280004001699967e+00 8.9411669148553653e+02 4.2000000000000000e+03 1.9700735295288769e+01 2.4452483744396263e+00 3.9267266212582605e+01 
968 570 2 1.0280007176581025e+00 2.6590821145381237e+03 4.2000000000000000e+03 1.9746452444551906e+01 2.4651589905977382e+00 3.9254532046569160e+01 
661 263 2 1.0280043946912825e+00 -9.2283480741233450e+02 4.2000000000000000e+03 1.5549473127991842e+01 9.9568539918130416e-01 4.2982309955525018e+01 
753 355 2 1.0279938752291111e+00 2.5935708998455943e+03 4.2000000000000000e+03 1.6382531413402777e+01 8.3192284576352682e-01 4.2729140027821188e+01 
1914 1516 2 1.0280025270005275e+00 -2.1320064344668955e+02 4.2000000000000000e+03 1.8129053485786052e+01 1.7129350618858046e+00 4.1260773319014341e+01 
413 15 2 1.0280007544921004e+00 7.9008269883009336e+02 4.2000000000000000e+03 1.3515996552681838e+01 2.0146471257336369e+00 4.2529941201415468e+01 
586 188 2 1.0279987332453129e+00 3.7684240792346905e+03 4.2000000000000000e+03 1.2349508321567427e+01 2.3651160347258768e+00 4.2701824700496338e+01 
1138 740 2 1.0280023704025780e+00 -6.3239454145226746e+03 4.2000000000000000e+03 1.6721998429316965e+01 2.4418198302226295e+00 4.2226991681581858e+01 
1149 751 2 1.0279972168855573e+00 2.4211455584860223e+03 4.2000000000000000e+03 1.6954477642541118e+01 3.8000409259157832e+00 4.2068073488171621e+01 
979 581 2 1.0280070945796547e+00 4.8444848792105977e+03 4.2000000000000000e+03 1.8729497700792898e+01 3.8568874420698758e+00 4.1925876162811321e+01 
1139 741 2 1.0279913754849503e+00 -6.3244419303698978e+03 4.2000000000000000e+03 1.8909735894186092e+01 2.9418862501016250e+00 4.1278087023534923e+01 
756 358 2 1.0279922651665356e+00 2.5972466972479260e+03 4.2000000000000000e+03 1.9809211014553242e+01 4.0145647217346268e+00 4.2451089086718142e+01 
1597 1199 2 1.0279999562888613e+00 2.5901840124093378e+03 4.2000000000000000e+03 1.7781734135096492e+01 7.4446761705763445e+00 4.2711090815723601e+01 
1600 1202 2 1.0280001452081988e+00 2.5909050964637768e+03 4.2000000000000000e+03 1.8078497976138014e+01 7.6169020280352111e+00 4.2704266304830973e+01 
1077 679 2 1.0279923444717922e+00 1.8646604634572586e+02 4.2000000000000000e+03 1.4220513075334038e+00 1.7645928254757257e+00 4.4850998214099015e+01 
414 16 2 1.0279995524401027e+00 -1.7688851608654027e+03 4.2000000000000000e+03 3.1132332200137367e+00 7.9972397170227094e-01 4.4317477483804673e+01 
1919 1521 2 1.0279995346178059e+00 2.1188436989910605e+02 4.2000000000000000e+03 3.1140086270937468e+00 7.9893939671401526e-01 4.4318569623813794e+01 