LAMMPS data file via write_data, version 30 Jul 2016, timestep = 50000000

180 atoms
2 atom types

0.0000000000000000e+00 2.0000000000000000e+01 xlo xhi
0.0000000000000000e+00 2.0000000000000000e+01 ylo yhi
0.0000000000000000e+00 2.0000000000000000e+01 zlo zhi

Masses

1 3.896
2 4.31

Atoms # meso-molecular

148 1 2 1.0280001455695345e+00 -4.9940970507909208e+02 1.0000000000000000e+00 5.7661815311105036e+00 7.6587159936667168e+00 1.7098453941308380e+00 
152 1 2 1.0280001440423081e+00 -3.5466385058154424e+02 1.0000000000000000e+00 5.7704939468545620e+00 7.6603685617994532e+00 1.7051068392061102e+00 
123 1 2 1.0280001422945499e+00 -3.4579103555616376e+02 1.0000000000000000e+00 5.7752387619244319e+00 7.6622982962245922e+00 1.6998665745353516e+00 
158 1 2 1.0280001422945495e+00 -3.2996331396467298e+02 1.0000000000000000e+00 5.7752387619215346e+00 7.6622982962233586e+00 1.6998665745385695e+00 
159 1 2 1.0280001422945486e+00 -3.9335249516681989e+02 1.0000000000000000e+00 5.7752387619215177e+00 7.6622982962233825e+00 1.6998665745385695e+00 
122 1 2 1.0280001422945577e+00 -3.6122155254630121e+02 1.0000000000000000e+00 5.7752387617609546e+00 7.6622982961569877e+00 1.6998665747159241e+00 
128 1 2 1.0280001422945582e+00 -3.0201261293790174e+02 1.0000000000000000e+00 5.7752387617559329e+00 7.6622982961548605e+00 1.6998665747214954e+00 
146 1 2 1.0280001422521095e+00 -4.0817676741140315e+02 1.0000000000000000e+00 5.7753526110735685e+00 7.6623458430268627e+00 1.6997406040319922e+00 
153 1 2 1.0280007485145255e+00 -4.4045943724581372e+02 1.0000000000000000e+00 5.3419232653279316e+00 7.5000138662765359e+00 2.3600458769707440e+00 
47 1 2 1.0279780856945457e+00 -3.3455205006301918e+02 1.0000000000000000e+00 9.4082486835758250e-01 6.8990363448179997e+00 3.9041031816794969e+00 
76 1 2 1.0279780856945455e+00 -2.6632893880692251e+02 1.0000000000000000e+00 9.4082486835758272e-01 6.8990363448180023e+00 3.9041031816794938e+00 
77 1 2 1.0279780856945451e+00 -3.1887968985203344e+02 1.0000000000000000e+00 9.4082486835758816e-01 6.8990363448180032e+00 3.9041031816794867e+00 
83 1 2 1.0279780856945446e+00 -3.1919459226659734e+02 1.0000000000000000e+00 9.4082486835761103e-01 6.8990363448179908e+00 3.9041031816795018e+00 
41 1 2 1.0279780856945444e+00 -3.5212900308606618e+02 1.0000000000000000e+00 9.4082486835758106e-01 6.8990363448180112e+00 3.9041031816794898e+00 
40 1 2 1.0279780856945444e+00 -3.3787760133992873e+02 1.0000000000000000e+00 9.4082486835760704e-01 6.8990363448179952e+00 3.9041031816794911e+00 
84 1 2 1.0279780856945449e+00 -2.8622923963504491e+02 1.0000000000000000e+00 9.4082486835757928e-01 6.8990363448180103e+00 3.9041031816794871e+00 
119 1 2 1.0279780856952270e+00 -4.1201728840637497e+02 1.0000000000000000e+00 9.4082482362461761e-01 6.8990363707886289e+00 3.9041031728613440e+00 
107 1 2 1.0279780859589416e+00 -4.0813295903378008e+02 1.0000000000000000e+00 9.4080820689523270e-01 6.8990460187948033e+00 3.9040998897870307e+00 
64 1 2 1.0280012162347565e+00 -5.2178848076118913e+02 1.0000000000000000e+00 5.3998789830422718e+00 9.6096201494681850e+00 5.3341334088041403e+00 
100 1 2 1.0280012162347565e+00 -3.3863306460558647e+02 1.0000000000000000e+00 5.3998789830422718e+00 9.6096201494681850e+00 5.3341334088041403e+00 
106 1 2 1.0280012162347565e+00 -4.0735383233155130e+02 1.0000000000000000e+00 5.3998789830422718e+00 9.6096201494681850e+00 5.3341334088041403e+00 
70 1 2 1.0280012162347565e+00 -5.0375535759580612e+02 1.0000000000000000e+00 5.3998789830422718e+00 9.6096201494681850e+00 5.3341334088041403e+00 
35 1 2 1.0280012162347565e+00 -5.1588574753521084e+02 1.0000000000000000e+00 5.3998789830422718e+00 9.6096201494681850e+00 5.3341334088041403e+00 
28 1 2 1.0280012162347565e+00 -4.5683719949560702e+02 1.0000000000000000e+00 5.3998789830422718e+00 9.6096201494681850e+00 5.3341334088041403e+00 
34 1 2 1.0280012162347565e+00 -5.2349094601808849e+02 1.0000000000000000e+00 5.3998789830422718e+00 9.6096201494681850e+00 5.3341334088041403e+00 
27 1 2 1.0280012162347565e+00 -3.6773072024452745e+02 1.0000000000000000e+00 5.3998789830422718e+00 9.6096201494681850e+00 5.3341334088041403e+00 
125 1 2 1.0279954376083855e+00 -3.9812777920220390e+02 1.0000000000000000e+00 3.5500614541451725e+00 9.2394076905446525e+00 4.3027933537269405e+00 
131 1 2 1.0279954374150813e+00 -3.0805654890313991e+02 1.0000000000000000e+00 3.5500571778067318e+00 9.2393971711712375e+00 4.3027929385874417e+00 
94 1 2 1.0279954357287020e+00 -3.4406217869507776e+02 1.0000000000000000e+00 3.5500199934617265e+00 9.2393049658076549e+00 4.3027880256253175e+00 
138 1 2 1.0279954373052915e+00 -2.5896663342112447e+02 1.0000000000000000e+00 3.5500547423365689e+00 9.2393912266374603e+00 4.3027927861980837e+00 
137 1 2 1.0279954372963842e+00 -2.7642852074310065e+02 1.0000000000000000e+00 3.5500545475472891e+00 9.2393907305498502e+00 4.3027927368025880e+00 
132 1 2 1.0279954373672058e+00 -2.9453269758788861e+02 1.0000000000000000e+00 3.5500561034970253e+00 9.2393946250986776e+00 4.3027930085759047e+00 
102 1 2 1.0279954373338687e+00 -2.5588340931373349e+02 1.0000000000000000e+00 3.5500553722171548e+00 9.2393927889278924e+00 4.3027928704263063e+00 
95 1 2 1.0279954375423794e+00 -3.3451094329650687e+02 1.0000000000000000e+00 3.5500599941713058e+00 9.2394040993604438e+00 4.3027932123102648e+00 
96 1 2 1.0279954373870028e+00 -3.0259621525373478e+02 1.0000000000000000e+00 3.5500565418558625e+00 9.2393957006271901e+00 4.3027930460606099e+00 
147 1 2 1.0280014880917476e+00 -4.3203468808542891e+02 1.0000000000000000e+00 6.5962679675887017e+00 7.3578816623563279e+00 4.5513455022705820e+00 
124 1 2 1.0280014826060417e+00 -4.9151199049921763e+02 1.0000000000000000e+00 6.5976540825654899e+00 7.3581101981048080e+00 4.5513768980277050e+00 
16 1 2 1.0280014805812698e+00 -3.3795235768533195e+02 1.0000000000000000e+00 6.5981795257611804e+00 7.3582603565375111e+00 4.5514384557968377e+00 
117 1 2 1.0280014446968233e+00 -4.0744899368683133e+02 1.0000000000000000e+00 6.6076046148668324e+00 7.3615493548161464e+00 4.5529678874339492e+00 
118 1 2 1.0280014381001350e+00 -4.7029770144662865e+02 1.0000000000000000e+00 6.6093173374675631e+00 7.3620739017575776e+00 4.5531800962121052e+00 
160 1 2 1.0280014340531411e+00 -4.2853015387720694e+02 1.0000000000000000e+00 6.6104214473593368e+00 7.3626654365116062e+00 4.5535123969480464e+00 
42 1 2 1.0279995411308263e+00 -5.6833391019688429e+02 1.0000000000000000e+00 8.2280238015248361e+00 7.1125197061923977e+00 3.0010451861190712e+00 
37 1 2 1.0279995412361229e+00 -4.4735309406026386e+02 1.0000000000000000e+00 8.2279924157491333e+00 7.1124700515861301e+00 3.0009779014688123e+00 
43 1 2 1.0279995413170702e+00 -5.7800367101517679e+02 1.0000000000000000e+00 8.2279682182564695e+00 7.1124317992078403e+00 3.0009262639907655e+00 
12 1 2 1.0279995413931913e+00 -4.8988088144982601e+02 1.0000000000000000e+00 8.2279454571806934e+00 7.1123958289915938e+00 3.0008777522118177e+00 
48 1 2 1.0279995413970715e+00 -4.3532861839165037e+02 1.0000000000000000e+00 8.2279443044040317e+00 7.1123940073287955e+00 3.0008752949294291e+00 
8 1 2 1.0279995414343612e+00 -5.0284363661168294e+02 1.0000000000000000e+00 8.2279331462084944e+00 7.1123763727593090e+00 3.0008514819512691e+00 
2 1 2 1.0279995384724958e+00 -5.1933931961023143e+02 1.0000000000000000e+00 8.2287116862130638e+00 7.1136441165497208e+00 3.0028608068681333e+00 
173 1 2 1.0279983382867302e+00 -3.8985893698842841e+02 1.0000000000000000e+00 7.6426589449369500e+00 9.9930024441868266e+00 1.9797072211506646e+00 
172 1 2 1.0279983382866753e+00 -4.8934335308894606e+02 1.0000000000000000e+00 7.6426588763767915e+00 9.9930024656636558e+00 1.9797072082896243e+00 
130 1 2 1.0279983382857076e+00 -4.2656479886598470e+02 1.0000000000000000e+00 7.6426580312651895e+00 9.9930027005983479e+00 1.9797069521738018e+00 
167 1 2 1.0279983382857076e+00 -3.5013174071949214e+02 1.0000000000000000e+00 7.6426580312631645e+00 9.9930027005990762e+00 1.9797069521737318e+00 
165 1 2 1.0279983382857101e+00 -5.6138667508457820e+02 1.0000000000000000e+00 7.6426580312762962e+00 9.9930027005950759e+00 1.9797069521765984e+00 
129 1 2 1.0279983382857087e+00 -3.9342241105126527e+02 1.0000000000000000e+00 7.6426580312638910e+00 9.9930027005993143e+00 1.9797069521753994e+00 
166 1 2 1.0279983382859861e+00 -3.8788508690281026e+02 1.0000000000000000e+00 7.6426583310594998e+00 9.9930026226867703e+00 1.9797070608039831e+00 
177 1 2 1.0279983382863338e+00 -2.5547811111856478e+02 1.0000000000000000e+00 7.6426585819212578e+00 9.9930025427143452e+00 1.9797071033167220e+00 
171 1 2 1.0279983382857101e+00 -3.6993505723048099e+02 1.0000000000000000e+00 7.6426580312639061e+00 9.9930027005993267e+00 1.9797069521754727e+00 
136 1 2 1.0279983382857101e+00 -5.1032002011891348e+02 1.0000000000000000e+00 7.6426580312632924e+00 9.9930027005994546e+00 1.9797069521751449e+00 
178 1 2 1.0279983382857119e+00 -2.5705531847491420e+02 1.0000000000000000e+00 7.6426580312686925e+00 9.9930027005979056e+00 1.9797069521766466e+00 
7 1 2 1.0279992823763842e+00 -5.9949851059854666e+02 1.0000000000000000e+00 8.2628627117770090e+00 7.2149151473769750e+00 3.2058520610751242e+00 
145 1 2 1.0280004923294270e+00 -5.2916193053415418e+02 1.0000000000000000e+00 1.2965163269214184e+01 6.3724038039944677e+00 1.2289551733891503e+01 
79 1 2 1.0280004923294268e+00 -4.2162080764615382e+02 1.0000000000000000e+00 1.2965163269214328e+01 6.3724038039944704e+00 1.2289551733891322e+01 
109 1 2 1.0280004923294266e+00 -4.2053208208112818e+02 1.0000000000000000e+00 1.2965163269214196e+01 6.3724038039944704e+00 1.2289551733891484e+01 
115 1 2 1.0280004923294273e+00 -4.4421674855409918e+02 1.0000000000000000e+00 1.2965163269214244e+01 6.3724038039944944e+00 1.2289551733891445e+01 
120 1 2 1.0280004923294281e+00 -5.2997852182196243e+02 1.0000000000000000e+00 1.2965163269214226e+01 6.3724038039944428e+00 1.2289551733891440e+01 
73 1 2 1.0280004923294281e+00 -3.4408309497595110e+02 1.0000000000000000e+00 1.2965163269214274e+01 6.3724038039945539e+00 1.2289551733891454e+01 
151 1 2 1.0280004923294266e+00 -5.0677172301071403e+02 1.0000000000000000e+00 1.2965163269214228e+01 6.3724038039945841e+00 1.2289551733891527e+01 
98 1 2 1.0280005029715706e+00 -3.3366245366906651e+02 1.0000000000000000e+00 1.3007005332128195e+01 6.4143747392738586e+00 1.2266715421968351e+01 
141 1 2 1.0280005126240164e+00 -3.4000769457842654e+02 1.0000000000000000e+00 1.3282035446492166e+01 6.6629058649301269e+00 1.2188116046403819e+01 
139 1 2 1.0280005132338317e+00 -3.5713836088337484e+02 1.0000000000000000e+00 1.3289202061104078e+01 6.6668602527993182e+00 1.2184719328846457e+01 
68 1 2 1.0279995932178301e+00 -3.3941304991762672e+02 1.0000000000000000e+00 1.3190158244804675e+01 5.0573420322598661e+00 1.4049005304942948e+01 
63 1 2 1.0279995932178301e+00 -2.8850655607441934e+02 1.0000000000000000e+00 1.3190158244804675e+01 5.0573420322598661e+00 1.4049005304942948e+01 
32 1 2 1.0279995932178301e+00 -2.6964117313375078e+02 1.0000000000000000e+00 1.3190158244804675e+01 5.0573420322598661e+00 1.4049005304942948e+01 
33 1 2 1.0279995932178301e+00 -4.1828523827189207e+02 1.0000000000000000e+00 1.3190158244804675e+01 5.0573420322598661e+00 1.4049005304942948e+01 
62 1 2 1.0279995932178301e+00 -2.9683027165689793e+02 1.0000000000000000e+00 1.3190158244804675e+01 5.0573420322598661e+00 1.4049005304942948e+01 
3 1 2 1.0279995932178301e+00 -4.4000753808223470e+02 1.0000000000000000e+00 1.3190158244804675e+01 5.0573420322598661e+00 1.4049005304942948e+01 
69 1 2 1.0279995932178301e+00 -3.9270635740307904e+02 1.0000000000000000e+00 1.3190158244804675e+01 5.0573420322598661e+00 1.4049005304942948e+01 
13 1 2 1.0280012460881054e+00 -4.2290254776345989e+02 1.0000000000000000e+00 9.6678613104023388e+00 1.6594153166454998e+01 1.6404831692248482e+01 
61 1 2 1.0280012460881458e+00 -4.5490381752075922e+02 1.0000000000000000e+00 9.6678613043281008e+00 1.6594153163968052e+01 1.6404831698534959e+01 
49 1 2 1.0280012460881267e+00 -4.9443624626670265e+02 1.0000000000000000e+00 9.6678613091197185e+00 1.6594153165770919e+01 1.6404831693461151e+01 
55 1 2 1.0280012460881098e+00 -4.2408921939306782e+02 1.0000000000000000e+00 9.6678613129455435e+00 1.6594153167675632e+01 1.6404831689746231e+01 
20 1 2 1.0280012460881358e+00 -5.2928098990595174e+02 1.0000000000000000e+00 9.6678613082219798e+00 1.6594153165414898e+01 1.6404831694398624e+01 
26 1 2 1.0280012460880810e+00 -3.9975636902535643e+02 1.0000000000000000e+00 9.6678613159835098e+00 1.6594153168708907e+01 1.6404831686449885e+01 
19 1 2 1.0280012460881467e+00 -4.7582065352583669e+02 1.0000000000000000e+00 9.6678613117426124e+00 1.6594153167065848e+01 1.6404831690906672e+01 
14 1 2 1.0280012460881318e+00 -3.8245659988200197e+02 1.0000000000000000e+00 9.6678613109831932e+00 1.6594153166712573e+01 1.6404831691661858e+01 
163 1 2 1.0280012474839908e+00 -3.1288058917172435e+02 1.0000000000000000e+00 9.6677426877238464e+00 1.6593966720446680e+01 1.6404854887741507e+01 
164 1 2 1.0280012474839881e+00 -3.6707971701817047e+02 1.0000000000000000e+00 9.6677426877237647e+00 1.6593966720446716e+01 1.6404854887741617e+01 
157 1 2 1.0280012474839908e+00 -3.8690072189061135e+02 1.0000000000000000e+00 9.6677426877238464e+00 1.6593966720446680e+01 1.6404854887741507e+01 
21 1 2 1.0279996931799962e+00 -3.6352877677266804e+02 1.0000000000000000e+00 1.3300872657253469e+01 1.3407899519732119e+01 1.9186254820393216e+01 
108 1 2 1.0279997068006466e+00 -4.0980210026890160e+02 1.0000000000000000e+00 1.3300841191468983e+01 1.3407560931947433e+01 1.9186589419667108e+01 
58 1 2 1.0279997378430032e+00 -3.5410002295493416e+02 1.0000000000000000e+00 1.3300776250290914e+01 1.3406776070064303e+01 1.9187342706687758e+01 
66 1 2 1.0279982140811879e+00 -4.2915599722161170e+02 1.0000000000000000e+00 1.3306398904497168e+01 1.3440652692347051e+01 1.9156537021899677e+01 
36 1 2 1.0279957565113125e+00 -5.7296527214541732e+02 1.0000000000000000e+00 1.3325105758039166e+01 1.3486894649488235e+01 1.9121863627395637e+01 
6 1 2 1.0279957564363527e+00 -4.0459484942485392e+02 1.0000000000000000e+00 1.3325105144365429e+01 1.3486896568898789e+01 1.9121864821847936e+01 
5 1 2 1.0279957564341153e+00 -3.9006505610706665e+02 1.0000000000000000e+00 1.3325105126160409e+01 1.3486896625864851e+01 1.9121864857286930e+01 
67 1 2 1.0279957569310740e+00 -4.0036968800193017e+02 1.0000000000000000e+00 1.3325109182512167e+01 1.3486883906555351e+01 1.9121856957458334e+01 
1 1 2 1.0279957568486833e+00 -5.0085419950957095e+02 1.0000000000000000e+00 1.3325108512109264e+01 1.3486886015171233e+01 1.9121858264037300e+01 
31 1 2 1.0279957569315161e+00 -3.4508880550707005e+02 1.0000000000000000e+00 1.3325109186037777e+01 1.3486883895452182e+01 1.9121856950585116e+01 
88 1 2 1.0279986077977472e+00 -2.8175944762066223e+02 1.0000000000000000e+00 1.1579004653478101e+01 1.5737167220678071e+01 1.7477615192323295e+01 
89 1 2 1.0279970606615754e+00 -3.2097817863211662e+02 1.0000000000000000e+00 1.1520955702307944e+01 1.5574113383617851e+01 1.7786012357016915e+01 
18 1 2 1.0279973692432289e+00 -4.0028457312763197e+02 1.0000000000000000e+00 1.1481533197878532e+01 1.5581218987614498e+01 1.7832201951277401e+01 
17 1 2 1.0279973377229712e+00 -3.2636806271176278e+02 1.0000000000000000e+00 1.1484650777560665e+01 1.5580594680169899e+01 1.7829131387563660e+01 
60 1 2 1.0279973384986685e+00 -3.9964857696967454e+02 1.0000000000000000e+00 1.1484572704616205e+01 1.5580608482234828e+01 1.7829209429312233e+01 
23 1 2 1.0279973393715447e+00 -3.1755417192971470e+02 1.0000000000000000e+00 1.1484485064653748e+01 1.5580624606378830e+01 1.7829296915663107e+01 
90 1 2 1.0279973494496788e+00 -4.5322960344704165e+02 1.0000000000000000e+00 1.1483481313087553e+01 1.5580825068879982e+01 1.7830292905985694e+01 
54 1 2 1.0279973523120192e+00 -3.8436997799389417e+02 1.0000000000000000e+00 1.1483198172835767e+01 1.5580883650098100e+01 1.7830572166287542e+01 
53 1 2 1.0279973355317396e+00 -3.5052640215933059e+02 1.0000000000000000e+00 1.1484872889910504e+01 1.5580560972592036e+01 1.7828908574489049e+01 
111 1 2 1.0280160010092310e+00 -3.5066978815384579e+02 1.0000000000000000e+00 1.9686746651385494e+01 5.1307953190997155e+00 3.5960326295863250e+00 
75 1 2 1.0280160010092296e+00 -4.6928454789939013e+02 1.0000000000000000e+00 1.9686746651384340e+01 5.1307953191013871e+00 3.5960326295813942e+00 
81 1 2 1.0280160010092296e+00 -4.7412431476955925e+02 1.0000000000000000e+00 1.9686746651384340e+01 5.1307953191013871e+00 3.5960326295813942e+00 
38 1 2 1.0280160010092296e+00 -3.0874986910539832e+02 1.0000000000000000e+00 1.9686746651384340e+01 5.1307953191013871e+00 3.5960326295813942e+00 
110 1 2 1.0280160010092303e+00 -4.3995470572861666e+02 1.0000000000000000e+00 1.9686746651383977e+01 5.1307953191000504e+00 3.5960326295905611e+00 
44 1 2 1.0280160010092296e+00 -4.3196895210176893e+02 1.0000000000000000e+00 1.9686746651384340e+01 5.1307953191013871e+00 3.5960326295813942e+00 
116 1 2 1.0280160010092296e+00 -3.8378360297378640e+02 1.0000000000000000e+00 1.9686746651384340e+01 5.1307953191013871e+00 3.5960326295813942e+00 
74 1 2 1.0280160010092276e+00 -4.2162318096476866e+02 1.0000000000000000e+00 1.9686746651383416e+01 5.1307953191013294e+00 3.5960326295854337e+00 
80 1 2 1.0280160010092276e+00 -3.9180623878961580e+02 1.0000000000000000e+00 1.9686746651383416e+01 5.1307953191013294e+00 3.5960326295854337e+00 
39 1 2 1.0280160010092314e+00 -3.4823339991159656e+02 1.0000000000000000e+00 1.9686746651387185e+01 5.1307953190974347e+00 3.5960326295925467e+00 
114 1 2 1.0280004234903981e+00 -3.8207926753293543e+02 1.0000000000000000e+00 1.6137421493051498e+01 6.6438099641855262e+00 1.0220782118256672e+01 
56 1 2 1.0280004239915406e+00 -3.1726692039635867e+02 1.0000000000000000e+00 1.6138625036065950e+01 6.6467526775400394e+00 1.0219082649795871e+01 
50 1 2 1.0280004239919849e+00 -3.2376303878392753e+02 1.0000000000000000e+00 1.6138622335879955e+01 6.6467521980068893e+00 1.0219082143203947e+01 
57 1 2 1.0280004239937890e+00 -3.4867400334503247e+02 1.0000000000000000e+00 1.6138608719187996e+01 6.6467497742321413e+00 1.0219079592605773e+01 
93 1 2 1.0280004239979141e+00 -3.2584921316307623e+02 1.0000000000000000e+00 1.6138579815503373e+01 6.6467445742252735e+00 1.0219074218266117e+01 
51 1 2 1.0280004240007019e+00 -3.4414908403531138e+02 1.0000000000000000e+00 1.6138559531989685e+01 6.6467408944177269e+00 1.0219070469097371e+01 
87 1 2 1.0280004240010241e+00 -3.2069860452389833e+02 1.0000000000000000e+00 1.6138557436695258e+01 6.6467405123205605e+00 1.0219070083229953e+01 
86 1 2 1.0280004240137979e+00 -3.0451215235913082e+02 1.0000000000000000e+00 1.6138464311836756e+01 6.6467231233196733e+00 1.0219053226296722e+01 
91 1 2 1.0279995762038763e+00 -3.1762031170057247e+02 1.0000000000000000e+00 1.6239549417025298e+01 7.5233820401675020e+00 1.1089779469490201e+01 
127 1 2 1.0279995762038754e+00 -3.2488640273286359e+02 1.0000000000000000e+00 1.6239549417024115e+01 7.5233820401656208e+00 1.1089779469495335e+01 
92 1 2 1.0279995762035066e+00 -3.3415256844877587e+02 1.0000000000000000e+00 1.6239549908941800e+01 7.5233820320952187e+00 1.1089778897676529e+01 
85 1 2 1.0279995762038792e+00 -3.5416440975276197e+02 1.0000000000000000e+00 1.6239549417025437e+01 7.5233820401671041e+00 1.1089779469490791e+01 
97 1 2 1.0279995762038783e+00 -2.6898301380377546e+02 1.0000000000000000e+00 1.6239549417024389e+01 7.5233820401660099e+00 1.1089779469494207e+01 
121 1 2 1.0279995762038774e+00 -3.4336896509537547e+02 1.0000000000000000e+00 1.6239549417026574e+01 7.5233820401661626e+00 1.1089779469491310e+01 
25 1 2 1.0279995762038434e+00 -4.8221658357634618e+02 1.0000000000000000e+00 1.6239549461922461e+01 7.5233820360208163e+00 1.1089779424036781e+01 
112 1 2 1.0279999053678215e+00 -2.9055655448364894e+02 1.0000000000000000e+00 1.6185309369494750e+01 3.0979113034313732e+00 1.6194420432366258e+01 
24 1 2 1.0279999117374992e+00 -3.8580182740496463e+02 1.0000000000000000e+00 1.6180730070975841e+01 3.0994773137376779e+00 1.6199171967605533e+01 
30 1 2 1.0279999117357834e+00 -4.1060685275567135e+02 1.0000000000000000e+00 1.6180731478783144e+01 3.0994769626424179e+00 1.6199170758442779e+01 
71 1 2 1.0279999117341929e+00 -4.1363732333880449e+02 1.0000000000000000e+00 1.6180732838787289e+01 3.0994766247343146e+00 1.6199169592526431e+01 
65 1 2 1.0279999117350762e+00 -4.1805737980476289e+02 1.0000000000000000e+00 1.6180732045785408e+01 3.0994768108088140e+00 1.6199170253305446e+01 
29 1 2 1.0279999117343903e+00 -3.9505702880339987e+02 1.0000000000000000e+00 1.6180732649979834e+01 3.0994766728400318e+00 1.6199169756467263e+01 
59 1 2 1.0279999117855703e+00 -4.1759384618648147e+02 1.0000000000000000e+00 1.6180691896502797e+01 3.0994878695517247e+00 1.6199206551382293e+01 
22 1 2 1.0279999118068353e+00 -3.1700294394520614e+02 1.0000000000000000e+00 1.6180677511119260e+01 3.0994935845691995e+00 1.6199222601965104e+01 
101 1 2 1.0279999596299689e+00 -4.1434362938780856e+02 1.0000000000000000e+00 1.6145435878246431e+01 3.1135818852787085e+00 1.6234028691788911e+01 
154 1 2 1.0280000957255446e+00 -5.2697693518357733e+02 1.0000000000000000e+00 1.6377520369173929e+01 3.4484255662675336e+00 1.6385982596612156e+01 
15 1 2 1.0280000968152969e+00 -4.2062277154000139e+02 1.0000000000000000e+00 1.6376988939066518e+01 3.4498782835521102e+00 1.6386819287857648e+01 
103 1 2 1.0280000982687145e+00 -3.7937291892985485e+02 1.0000000000000000e+00 1.6376253829992294e+01 3.4518069163726541e+00 1.6387940050111741e+01 
52 1 2 1.0280003622041156e+00 -3.3677968386488612e+02 1.0000000000000000e+00 1.5541340460300452e+01 5.2527803663874746e+00 1.4598131591933296e+01 
4 1 2 1.0280003611199060e+00 -4.7784040176609335e+02 1.0000000000000000e+00 1.5541468559520519e+01 5.2527993582879171e+00 1.4598665640592142e+01 
10 1 2 1.0280003611199522e+00 -4.3676509414325108e+02 1.0000000000000000e+00 1.5541468558694739e+01 5.2527993574540917e+00 1.4598665634442717e+01 
11 1 2 1.0280003611198942e+00 -4.7297869557049785e+02 1.0000000000000000e+00 1.5541468559545139e+01 5.2527993583133163e+00 1.4598665640777307e+01 
82 1 2 1.0280003611192998e+00 -3.1774174725861013e+02 1.0000000000000000e+00 1.5541468600471198e+01 5.2527994004675804e+00 1.4598665948736169e+01 
46 1 2 1.0280003611198500e+00 -3.4431111063767685e+02 1.0000000000000000e+00 1.5541468564137601e+01 5.2527993630024454e+00 1.4598665675178465e+01 
9 1 2 1.0280003611199104e+00 -3.5658900629525345e+02 1.0000000000000000e+00 1.5541468556865677e+01 5.2527993555930239e+00 1.4598665620765029e+01 
45 1 2 1.0280003611199153e+00 -3.5057975042710581e+02 1.0000000000000000e+00 1.5541468557469813e+01 5.2527993562068351e+00 1.4598665625279144e+01 
78 1 2 1.0279985951914163e+00 -3.9802659401679648e+02 1.0000000000000000e+00 1.5486121687314666e+01 1.2011268128903964e+01 4.3798616671495699e-01 
143 1 2 1.0279985951864661e+00 -4.5482029968619298e+02 1.0000000000000000e+00 1.5486117926652835e+01 1.2011269154351183e+01 4.3798382864191299e-01 
142 1 2 1.0279985951869601e+00 -4.7814819373389048e+02 1.0000000000000000e+00 1.5486118173774280e+01 1.2011269126520890e+01 4.3798396024012592e-01 
180 1 2 1.0279985951844381e+00 -3.7254047477389202e+02 1.0000000000000000e+00 1.5486116880193416e+01 1.2011269254760952e+01 4.3798328109635232e-01 
113 1 2 1.0279985951859592e+00 -3.5935921072970376e+02 1.0000000000000000e+00 1.5486117653850322e+01 1.2011269180793422e+01 4.3798368575346541e-01 
179 1 2 1.0279985951848385e+00 -4.7166103103215357e+02 1.0000000000000000e+00 1.5486117076877850e+01 1.2011269237013437e+01 4.3798338338211462e-01 
144 1 2 1.0279985951841426e+00 -4.2024094623215296e+02 1.0000000000000000e+00 1.5486116720315984e+01 1.2011269270020657e+01 4.3798319748781922e-01 
174 1 2 1.0279985951639825e+00 -4.1969273958054947e+02 1.0000000000000000e+00 1.5486100029933533e+01 1.2011274287038825e+01 4.3797256103588522e-01 
150 1 2 1.0279985951546875e+00 -3.6509819525758775e+02 1.0000000000000000e+00 1.5486090553718210e+01 1.2011277739143592e+01 4.3796618557984285e-01 
176 1 2 1.0279987157458332e+00 -4.5737463327785042e+02 1.0000000000000000e+00 1.7091435585656694e+01 1.0891437691609131e+01 1.9912386335021250e+00 
135 1 2 1.0279987621797320e+00 -2.7493019664736471e+02 1.0000000000000000e+00 1.7616157381950206e+01 1.1265706252454569e+01 3.0827521765417063e+00 
104 1 2 1.0279987603710454e+00 -3.6252753697642646e+02 1.0000000000000000e+00 1.7611409068105537e+01 1.1265207206807066e+01 3.0966318763650937e+00 
175 1 2 1.0279987601132710e+00 -4.4346054600728684e+02 1.0000000000000000e+00 1.7610942366109466e+01 1.1265113580854164e+01 3.0979021394688746e+00 
133 1 2 1.0279987597004030e+00 -3.2478375055785864e+02 1.0000000000000000e+00 1.7610051796835393e+01 1.1264963894751720e+01 3.1003464654867852e+00 
170 1 2 1.0279987594107751e+00 -4.1423212727575589e+02 1.0000000000000000e+00 1.7609397069951353e+01 1.1264856241941715e+01 3.1021327547511555e+00 
99 1 2 1.0279987593644397e+00 -2.6208259427113961e+02 1.0000000000000000e+00 1.7609315111523305e+01 1.1264838314703583e+01 3.1023499419734701e+00 
105 1 2 1.0279987593224620e+00 -3.1126768681130392e+02 1.0000000000000000e+00 1.7609220744753845e+01 1.1264822376316406e+01 3.1026057188393481e+00 
169 1 2 1.0279987575101630e+00 -4.0080634395874080e+02 1.0000000000000000e+00 1.7646595410673761e+01 1.1247941180494246e+01 2.9182603598831647e+00 
140 1 2 1.0279986513502704e+00 -3.3080213658990550e+02 1.0000000000000000e+00 1.7289188916573487e+01 1.0929712563378864e+01 2.1933582546876442e+00 
149 1 2 1.0280016466743767e+00 -5.0686239359751397e+02 1.0000000000000000e+00 1.5781902881389902e+01 1.2302190146299010e+01 3.3979597872300755e+00 
161 1 2 1.0280016466743827e+00 -3.6638829902565385e+02 1.0000000000000000e+00 1.5781902881391023e+01 1.2302190146299546e+01 3.3979597872306790e+00 
155 1 2 1.0280016466743824e+00 -4.2478765304397217e+02 1.0000000000000000e+00 1.5781902881389996e+01 1.2302190146298612e+01 3.3979597872304006e+00 
126 1 2 1.0280016466743815e+00 -4.4556187946816493e+02 1.0000000000000000e+00 1.5781902881391241e+01 1.2302190146299713e+01 3.3979597872307652e+00 
168 1 2 1.0280016466743767e+00 -4.1056898426110649e+02 1.0000000000000000e+00 1.5781902881390266e+01 1.2302190146298992e+01 3.3979597872304090e+00 
156 1 2 1.0280016466743809e+00 -5.4548713600629208e+02 1.0000000000000000e+00 1.5781902881391069e+01 1.2302190146299210e+01 3.3979597872309522e+00 
162 1 2 1.0280016466743773e+00 -3.6891454037483646e+02 1.0000000000000000e+00 1.5781902881390835e+01 1.2302190146299735e+01 3.3979597872304099e+00 
134 1 2 1.0280016466103803e+00 -3.7828600257927309e+02 1.0000000000000000e+00 1.5781873178832118e+01 1.2302157286397520e+01 3.3979556052622382e+00 
72 1 2 1.0280030895539105e+00 -4.6883660352257675e+02 1.0000000000000000e+00 1.3605837384191499e+01 1.2789331928887350e+01 1.9684414674535603e+01 

Velocities

148 -1.9613880747695711e-02 -4.5209632875005802e-04 -2.5533338761582796e-02
152 -1.9607671838083270e-02 -4.4470959294350414e-04 -2.5535035301381778e-02
123 -1.9600878696476486e-02 -4.3663900608471721e-04 -2.5536834496933242e-02
158 -1.9600878696502021e-02 -4.3663900610426055e-04 -2.5536834496959229e-02
159 -1.9600878696487568e-02 -4.3663900609427515e-04 -2.5536834496940889e-02
122 -1.9600878696765401e-02 -4.3663900639967778e-04 -2.5536834496943953e-02
128 -1.9600878696755850e-02 -4.3663900639725095e-04 -2.5536834496921432e-02
146 -1.9600716265716075e-02 -4.3644612034321489e-04 -2.5536876951114035e-02
153 -2.0841247023678289e-02 -1.8357237915707944e-03 -2.5171997310821901e-02
47 -1.3982553914150044e-02 -3.0682472232584090e-02 -1.4650728670017937e-02
76 -1.3982553914150471e-02 -3.0682472232585759e-02 -1.4650728670018386e-02
77 -1.3982553914146349e-02 -3.0682472232576582e-02 -1.4650728670016494e-02
83 -1.3982553914147721e-02 -3.0682472232578379e-02 -1.4650728670017137e-02
41 -1.3982553914142689e-02 -3.0682472232569605e-02 -1.4650728670015286e-02
40 -1.3982553914146737e-02 -3.0682472232575374e-02 -1.4650728670016525e-02
84 -1.3982553914146189e-02 -3.0682472232576554e-02 -1.4650728670016606e-02
119 -1.3982552733404563e-02 -3.0682472774530057e-02 -1.4650728386591089e-02
107 -1.3982114096173658e-02 -3.0682674002077012e-02 -1.4650622888506583e-02
64 -2.4882047982030295e-02 -9.4866847636018922e-03 -2.3434563475707430e-02
100 -2.4882047982030295e-02 -9.4866847636018922e-03 -2.3434563475707430e-02
106 -2.4882047982030295e-02 -9.4866847636018922e-03 -2.3434563475707430e-02
70 -2.4882047982030295e-02 -9.4866847636018922e-03 -2.3434563475707430e-02
35 -2.4882047982030295e-02 -9.4866847636018922e-03 -2.3434563475707430e-02
28 -2.4882047982030295e-02 -9.4866847636018922e-03 -2.3434563475707430e-02
34 -2.4882047982030295e-02 -9.4866847636018922e-03 -2.3434563475707430e-02
27 -2.4882047982030295e-02 -9.4866847636018922e-03 -2.3434563475707430e-02
125 -2.5588658474758993e-02 -1.6463585559237385e-02 -2.2179605727103740e-02
131 -2.5588625187981291e-02 -1.6463603928414030e-02 -2.2179598092517783e-02
94 -2.5588335298346344e-02 -1.6463762688649578e-02 -2.2179527055556418e-02
138 -2.5588606254828561e-02 -1.6463614448792744e-02 -2.2179594044281808e-02
137 -2.5588604729297637e-02 -1.6463615263991056e-02 -2.2179593587733745e-02
132 -2.5588616877187234e-02 -1.6463608666078738e-02 -2.2179596796295005e-02
102 -2.5588611164714919e-02 -1.6463611759694810e-02 -2.2179595251132993e-02
95 -2.5588647110744246e-02 -1.6463591830960425e-02 -2.2179603121738018e-02
96 -2.5588620287908568e-02 -1.6463606779626674e-02 -2.2179597560805817e-02
147 -2.0621971603592571e-02 -3.0771796039379970e-03 -2.4231333685799425e-02
124 -2.0619668338135593e-02 -3.0737665600656643e-03 -2.4233498844876293e-02
16 -2.0618850405890808e-02 -3.0725537300408477e-03 -2.4234229165931719e-02
117 -2.0604778370995735e-02 -3.0515491386868643e-03 -2.4246597045697926e-02
118 -2.0602177811850333e-02 -3.0476392228173305e-03 -2.4248972068832510e-02
160 -2.0600719785298535e-02 -3.0454359735521560e-03 -2.4250152502283080e-02