LAMMPS data file via write_data, version 30 Jul 2016, timestep = 600000

2080 atoms
8 atom types

0.0000000000000000e+00 4.0000000000000000e+01 xlo xhi
0.0000000000000000e+00 4.0000000000000000e+01 ylo yhi
0.0000000000000000e+00 1.0000000000000000e+02 zlo zhi

Masses

1 3.896
2 10.72
3 1058.08
4 8.378
5 8.378
6 8.378
7 8.378
8 8.378

Atoms # meso-molecular

1 2 4 2.2559723595316457e+00 1.0000000000000000e+00 4.2000000000000000e+03 0.0000000000000000e+00 0.0000000000000000e+00 2.5000000000000000e+00 
2 2 4 2.2559723595316457e+00 1.0000000000000000e+00 4.2000000000000000e+03 0.0000000000000000e+00 2.0000000000000000e+00 2.5000000000000000e+00 
3 2 4 2.2559723595316457e+00 1.0000000000000000e+00 4.2000000000000000e+03 0.0000000000000000e+00 4.0000000000000000e+00 2.5000000000000000e+00 
4 2 4 2.2559723595316457e+00 1.0000000000000000e+00 4.2000000000000000e+03 0.0000000000000000e+00 6.0000000000000000e+00 2.5000000000000000e+00 
21 2 4 2.2559723595316457e+00 1.0000000000000000e+00 4.2000000000000000e+03 2.0000000000000000e+00 0.0000000000000000e+00 2.5000000000000000e+00 
22 2 4 2.2559723595316457e+00 9.9999999999998257e-01 4.2000000000000000e+03 2.0000000000000000e+00 2.0000000000000000e+00 2.5000000000000000e+00 
23 2 4 2.2559723595316457e+00 1.0000303750644088e+00 4.2000000000000000e+03 2.0000000000000000e+00 4.0000000000000000e+00 2.5000000000000000e+00 
24 2 4 2.2559723595316457e+00 9.9979594993560783e-01 4.2000000000000000e+03 2.0000000000000000e+00 6.0000000000000000e+00 2.5000000000000000e+00 
41 2 4 2.2559723595316457e+00 9.9748408420989931e-01 4.2000000000000000e+03 4.0000000000000000e+00 0.0000000000000000e+00 2.5000000000000000e+00 
42 2 4 2.2559723595316457e+00 1.0008273387977482e+00 4.2000000000000000e+03 4.0000000000000000e+00 2.0000000000000000e+00 2.5000000000000000e+00 
43 2 4 2.2559723595316457e+00 1.0015820620329050e+00 4.2000000000000000e+03 4.0000000000000000e+00 4.0000000000000000e+00 2.5000000000000000e+00 
44 2 4 2.2559723595316457e+00 1.0005800000138971e+00 4.2000000000000000e+03 4.0000000000000000e+00 6.0000000000000000e+00 2.5000000000000000e+00 
61 2 4 2.2559723595316457e+00 9.9668590710194271e-01 4.2000000000000000e+03 6.0000000000000000e+00 0.0000000000000000e+00 2.5000000000000000e+00 
62 2 4 2.2559723595316457e+00 9.9494568222537938e-01 4.2000000000000000e+03 6.0000000000000000e+00 2.0000000000000000e+00 2.5000000000000000e+00 
63 2 4 2.2559723595316457e+00 1.0071949182799615e+00 4.2000000000000000e+03 6.0000000000000000e+00 4.0000000000000000e+00 2.5000000000000000e+00 
64 2 4 2.2559723595316457e+00 1.0190414924293671e+00 4.2000000000000000e+03 6.0000000000000000e+00 6.0000000000000000e+00 2.5000000000000000e+00 
81 2 4 2.2559723595316457e+00 9.9961604177716934e-01 4.2000000000000000e+03 8.0000000000000000e+00 0.0000000000000000e+00 2.5000000000000000e+00 
82 2 4 2.2559723595316457e+00 9.9838858474887360e-01 4.2000000000000000e+03 8.0000000000000000e+00 2.0000000000000000e+00 2.5000000000000000e+00 
83 2 4 2.2559723595316457e+00 9.7732455032564980e-01 4.2000000000000000e+03 8.0000000000000000e+00 4.0000000000000000e+00 2.5000000000000000e+00 
84 2 4 2.2559723595316457e+00 9.2913239461154817e-01 4.2000000000000000e+03 8.0000000000000000e+00 6.0000000000000000e+00 2.5000000000000000e+00 
101 2 4 2.2559723595316457e+00 1.0000000000000000e+00 4.2000000000000000e+03 1.0000000000000000e+01 0.0000000000000000e+00 2.5000000000000000e+00 
102 2 4 2.2559723595316457e+00 1.0016098454303375e+00 4.2000000000000000e+03 1.0000000000000000e+01 2.0000000000000000e+00 2.5000000000000000e+00 
103 2 4 2.2559723595316457e+00 1.0202312903814517e+00 4.2000000000000000e+03 1.0000000000000000e+01 4.0000000000000000e+00 2.5000000000000000e+00 
104 2 4 2.2559723595316457e+00 -4.4047158649084608e+00 4.2000000000000000e+03 1.0000000000000000e+01 6.0000000000000000e+00 2.5000000000000000e+00 
121 2 4 2.2559723595316457e+00 1.0007199153158570e+00 4.2000000000000000e+03 1.2000000000000000e+01 0.0000000000000000e+00 2.5000000000000000e+00 
122 2 4 2.2559723595316457e+00 1.0009633872827104e+00 4.2000000000000000e+03 1.2000000000000000e+01 2.0000000000000000e+00 2.5000000000000000e+00 
123 2 4 2.2559723595316457e+00 -4.2896804066667356e+00 4.2000000000000000e+03 1.2000000000000000e+01 4.0000000000000000e+00 2.5000000000000000e+00 
124 2 4 2.2559723595316457e+00 -2.2666501243327539e+02 4.2000000000000000e+03 1.2000000000000000e+01 6.0000000000000000e+00 2.5000000000000000e+00 
141 2 4 2.2559723595316457e+00 9.9367233341851280e-01 4.2000000000000000e+03 1.4000000000000000e+01 0.0000000000000000e+00 2.5000000000000000e+00 
142 2 4 2.2559723595316457e+00 9.9823387331414359e-01 4.2000000000000000e+03 1.4000000000000000e+01 2.0000000000000000e+00 2.5000000000000000e+00 
143 2 4 2.2559723595316457e+00 -8.1008492227278452e+01 4.2000000000000000e+03 1.4000000000000000e+01 4.0000000000000000e+00 2.5000000000000000e+00 
144 2 4 2.2559723595316457e+00 -1.0400167972201939e+03 4.2000000000000000e+03 1.4000000000000000e+01 6.0000000000000000e+00 2.5000000000000000e+00 
161 2 4 2.2559723595316457e+00 1.0036196671344408e+00 4.2000000000000000e+03 1.6000000000000000e+01 0.0000000000000000e+00 2.5000000000000000e+00 
162 2 4 2.2559723595316457e+00 9.7017704312711717e-01 4.2000000000000000e+03 1.6000000000000000e+01 2.0000000000000000e+00 2.5000000000000000e+00 
163 2 4 2.2559723595316457e+00 -2.1764730367465776e+02 4.2000000000000000e+03 1.6000000000000000e+01 4.0000000000000000e+00 2.5000000000000000e+00 
164 2 4 2.2559723595316457e+00 -2.2337836372885477e+03 4.2000000000000000e+03 1.6000000000000000e+01 6.0000000000000000e+00 2.5000000000000000e+00 
181 2 4 2.2559723595316457e+00 1.0003654027051896e+00 4.2000000000000000e+03 1.8000000000000000e+01 0.0000000000000000e+00 2.5000000000000000e+00 
182 2 4 2.2559723595316457e+00 9.0528400180792501e-01 4.2000000000000000e+03 1.8000000000000000e+01 2.0000000000000000e+00 2.5000000000000000e+00 
183 2 4 2.2559723595316457e+00 -2.9955772525986430e+02 4.2000000000000000e+03 1.8000000000000000e+01 4.0000000000000000e+00 2.5000000000000000e+00 
184 2 4 2.2559723595316457e+00 -3.0771044289725987e+03 4.2000000000000000e+03 1.8000000000000000e+01 6.0000000000000000e+00 2.5000000000000000e+00 
5 2 4 2.2559723595316457e+00 1.0000000000000000e+00 4.2000000000000000e+03 0.0000000000000000e+00 8.0000000000000000e+00 2.5000000000000000e+00 
6 2 4 2.2559723595316457e+00 1.0000000000000000e+00 4.2000000000000000e+03 0.0000000000000000e+00 1.0000000000000000e+01 2.5000000000000000e+00 
7 2 4 2.2559723595316457e+00 1.0000000000000000e+00 4.2000000000000000e+03 0.0000000000000000e+00 1.2000000000000000e+01 2.5000000000000000e+00 
25 2 4 2.2559723595316457e+00 9.9421933384575700e-01 4.2000000000000000e+03 2.0000000000000000e+00 8.0000000000000000e+00 2.5000000000000000e+00 
26 2 4 2.2559723595316457e+00 9.9770283251254299e-01 4.2000000000000000e+03 2.0000000000000000e+00 1.0000000000000000e+01 2.5000000000000000e+00 
27 2 4 2.2559723595316457e+00 9.9999014829408583e-01 4.2000000000000000e+03 2.0000000000000000e+00 1.2000000000000000e+01 2.5000000000000000e+00 
45 2 4 2.2559723595316457e+00 9.9498669178051424e-01 4.2000000000000000e+03 4.0000000000000000e+00 8.0000000000000000e+00 2.5000000000000000e+00 
46 2 4 2.2559723595316457e+00 9.9794389063834332e-01 4.2000000000000000e+03 4.0000000000000000e+00 1.0000000000000000e+01 2.5000000000000000e+00 
47 2 4 2.2559723595316457e+00 9.9521878909562833e-01 4.2000000000000000e+03 4.0000000000000000e+00 1.2000000000000000e+01 2.5000000000000000e+00 
65 2 4 2.2559723595316457e+00 1.0061547966134889e+00 4.2000000000000000e+03 6.0000000000000000e+00 8.0000000000000000e+00 2.5000000000000000e+00 
66 2 4 2.2559723595316457e+00 1.0005803146406467e+00 4.2000000000000000e+03 6.0000000000000000e+00 1.0000000000000000e+01 2.5000000000000000e+00 
67 2 4 2.2559723595316457e+00 9.9110643443105362e-01 4.2000000000000000e+03 6.0000000000000000e+00 1.2000000000000000e+01 2.5000000000000000e+00 
85 2 4 2.2559723595316457e+00 9.8607577972875071e-01 4.2000000000000000e+03 8.0000000000000000e+00 8.0000000000000000e+00 2.5000000000000000e+00 
86 2 4 2.2559723595316457e+00 1.0050081353941087e+00 4.2000000000000000e+03 8.0000000000000000e+00 1.0000000000000000e+01 2.5000000000000000e+00 
87 2 4 2.2559723595316457e+00 1.0160372001429088e+00 4.2000000000000000e+03 8.0000000000000000e+00 1.2000000000000000e+01 2.5000000000000000e+00 
105 2 4 2.2559723595316457e+00 -8.1056150120069518e+01 4.2000000000000000e+03 1.0000000000000000e+01 8.0000000000000000e+00 2.5000000000000000e+00 
106 2 4 2.2559723595316457e+00 -2.1790773366888845e+02 4.2000000000000000e+03 1.0000000000000000e+01 1.0000000000000000e+01 2.5000000000000000e+00 
107 2 4 2.2559723595316457e+00 -3.0133342814265689e+02 4.2000000000000000e+03 1.0000000000000000e+01 1.2000000000000000e+01 2.5000000000000000e+00 
125 2 4 2.2559723595316457e+00 -1.0402165121667958e+03 4.2000000000000000e+03 1.2000000000000000e+01 8.0000000000000000e+00 2.5000000000000000e+00 
126 2 4 2.2559723595316457e+00 -2.2378772779559058e+03 4.2000000000000000e+03 1.2000000000000000e+01 1.0000000000000000e+01 2.5000000000000000e+00 
127 2 4 2.2559723595316457e+00 -3.1049962353542987e+03 4.2000000000000000e+03 1.2000000000000000e+01 1.2000000000000000e+01 2.5000000000000000e+00 
145 2 4 2.2559723595316457e+00 -3.8135708363118561e+03 4.2000000000000000e+03 1.4000000000000000e+01 8.0000000000000000e+00 2.5000000000000000e+00 
146 2 4 2.2559723595316457e+00 -7.7161447207559795e+03 4.2000000000000000e+03 1.4000000000000000e+01 1.0000000000000000e+01 2.5000000000000000e+00 
147 2 4 2.2559723595316457e+00 -1.0731515459038883e+04 4.2000000000000000e+03 1.4000000000000000e+01 1.2000000000000000e+01 2.5000000000000000e+00 
165 2 4 2.2559723595316457e+00 -7.7035470545750304e+03 4.2000000000000000e+03 1.6000000000000000e+01 8.0000000000000000e+00 2.5000000000000000e+00 
166 2 4 2.2559723595316457e+00 -1.5412415598966432e+04 4.2000000000000000e+03 1.6000000000000000e+01 1.0000000000000000e+01 2.5000000000000000e+00 
167 2 4 2.2559723595316457e+00 -2.1587053312793832e+04 4.2000000000000000e+03 1.6000000000000000e+01 1.2000000000000000e+01 2.5000000000000000e+00 
185 2 4 2.2559723595316457e+00 -1.0572072575572320e+04 4.2000000000000000e+03 1.8000000000000000e+01 8.0000000000000000e+00 2.5000000000000000e+00 
186 2 4 2.2559723595316457e+00 -2.1237076268240860e+04 4.2000000000000000e+03 1.8000000000000000e+01 1.0000000000000000e+01 2.5000000000000000e+00 
187 2 4 2.2559723595316457e+00 -2.9937860873776204e+04 4.2000000000000000e+03 1.8000000000000000e+01 1.2000000000000000e+01 2.5000000000000000e+00 
8 2 4 2.2559723595316457e+00 1.0000000000000000e+00 4.2000000000000000e+03 0.0000000000000000e+00 1.4000000000000000e+01 2.5000000000000000e+00 
9 2 4 2.2559723595316457e+00 1.0000000000000000e+00 4.2000000000000000e+03 0.0000000000000000e+00 1.6000000000000000e+01 2.5000000000000000e+00 
10 2 4 2.2559723595316457e+00 1.0000000000000000e+00 4.2000000000000000e+03 0.0000000000000000e+00 1.8000000000000000e+01 2.5000000000000000e+00 
28 2 4 2.2559723595316457e+00 1.0000000000000000e+00 4.2000000000000000e+03 2.0000000000000000e+00 1.4000000000000000e+01 2.5000000000000000e+00 
29 2 4 2.2559723595316457e+00 1.0000000000000000e+00 4.2000000000000000e+03 2.0000000000000000e+00 1.6000000000000000e+01 2.5000000000000000e+00 
30 2 4 2.2559723595316457e+00 1.0000000000000000e+00 4.2000000000000000e+03 2.0000000000000000e+00 1.8000000000000000e+01 2.5000000000000000e+00 
48 2 4 2.2559723595316457e+00 9.9835412406777335e-01 4.2000000000000000e+03 4.0000000000000000e+00 1.4000000000000000e+01 2.5000000000000000e+00 
49 2 4 2.2559723595316457e+00 9.9723266753063378e-01 4.2000000000000000e+03 4.0000000000000000e+00 1.6000000000000000e+01 2.5000000000000000e+00 
50 2 4 2.2559723595316457e+00 9.9981383159838455e-01 4.2000000000000000e+03 4.0000000000000000e+00 1.8000000000000000e+01 2.5000000000000000e+00 
68 2 4 2.2559723595316457e+00 9.5506673662633190e-01 4.2000000000000000e+03 6.0000000000000000e+00 1.4000000000000000e+01 2.5000000000000000e+00 
69 2 4 2.2559723595316457e+00 8.9694297376252852e-01 4.2000000000000000e+03 6.0000000000000000e+00 1.6000000000000000e+01 2.5000000000000000e+00 
70 2 4 2.2559723595316457e+00 9.1923323960735637e-01 4.2000000000000000e+03 6.0000000000000000e+00 1.8000000000000000e+01 2.5000000000000000e+00 
88 2 4 2.2559723595316457e+00 8.7165717083484107e-01 4.2000000000000000e+03 8.0000000000000000e+00 1.4000000000000000e+01 2.5000000000000000e+00 
89 2 4 2.2559723595316457e+00 6.0163690283537274e-01 4.2000000000000000e+03 8.0000000000000000e+00 1.6000000000000000e+01 2.5000000000000000e+00 
90 2 4 2.2559723595316457e+00 6.5930835929552267e-01 4.2000000000000000e+03 8.0000000000000000e+00 1.8000000000000000e+01 2.5000000000000000e+00 
108 2 4 2.2559723595316457e+00 -3.1198583141323712e+02 4.2000000000000000e+03 1.0000000000000000e+01 1.4000000000000000e+01 2.5000000000000000e+00 
109 2 4 2.2559723595316457e+00 -3.1362173684793203e+02 4.2000000000000000e+03 1.0000000000000000e+01 1.6000000000000000e+01 2.5000000000000000e+00 
110 2 4 2.2559723595316457e+00 -3.1356851419412465e+02 4.2000000000000000e+03 1.0000000000000000e+01 1.8000000000000000e+01 2.5000000000000000e+00 
128 2 4 2.2559723595316457e+00 -3.3754779638542350e+03 4.2000000000000000e+03 1.2000000000000000e+01 1.4000000000000000e+01 2.5000000000000000e+00 
129 2 4 2.2559723595316457e+00 -3.3998734443574649e+03 4.2000000000000000e+03 1.2000000000000000e+01 1.6000000000000000e+01 2.5000000000000000e+00 
130 2 4 2.2559723595316457e+00 -3.4029661597731456e+03 4.2000000000000000e+03 1.2000000000000000e+01 1.8000000000000000e+01 2.5000000000000000e+00 
148 2 4 2.2559723595316457e+00 -1.1882616249549539e+04 4.2000000000000000e+03 1.4000000000000000e+01 1.4000000000000000e+01 2.5000000000000000e+00 
149 2 4 2.2559723595316457e+00 -1.2034077384889177e+04 4.2000000000000000e+03 1.4000000000000000e+01 1.6000000000000000e+01 2.5000000000000000e+00 
150 2 4 2.2559723595316457e+00 -1.2047481485701355e+04 4.2000000000000000e+03 1.4000000000000000e+01 1.8000000000000000e+01 2.5000000000000000e+00 
168 2 4 2.2559723595316457e+00 -2.4116918159060770e+04 4.2000000000000000e+03 1.6000000000000000e+01 1.4000000000000000e+01 2.5000000000000000e+00 
169 2 4 2.2559723595316457e+00 -2.4485351148267404e+04 4.2000000000000000e+03 1.6000000000000000e+01 1.6000000000000000e+01 2.5000000000000000e+00 
170 2 4 2.2559723595316457e+00 -2.4509096995293570e+04 4.2000000000000000e+03 1.6000000000000000e+01 1.8000000000000000e+01 2.5000000000000000e+00 
188 2 4 2.2559723595316457e+00 -3.3561913401379585e+04 4.2000000000000000e+03 1.8000000000000000e+01 1.4000000000000000e+01 2.5000000000000000e+00 
189 2 4 2.2559723595316457e+00 -3.4081158782636994e+04 4.2000000000000000e+03 1.8000000000000000e+01 1.6000000000000000e+01 2.5000000000000000e+00 
190 2 4 2.2559723595316457e+00 -3.4108636035978030e+04 4.2000000000000000e+03 1.8000000000000000e+01 1.8000000000000000e+01 2.5000000000000000e+00 
1266 868 2 1.0279878039056713e+00 1.3385089162543277e+03 4.2000000000000000e+03 1.0470557915369595e+01 2.6964893673562615e+00 7.6194353706938315e+01 
1162 764 2 1.0279873116361662e+00 -4.8434024698037513e+02 4.2000000000000000e+03 1.0398590400434911e+01 2.6287628294667620e+00 7.6202227588068553e+01 
1516 1118 2 1.0279873932536379e+00 2.9960162395290431e+03 4.2000000000000000e+03 1.1377374562790516e+01 3.0700408811755433e+00 7.6302598145451626e+01 
1602 1204 2 1.0279738711584476e+00 5.0829276491157625e+03 4.2000000000000000e+03 1.0289764925463313e+01 4.8767700901118936e+00 7.6480958724696094e+01 
2045 1647 2 1.0279905489307875e+00 1.6100491018068003e+03 4.2000000000000000e+03 9.5025767621887738e+00 2.1100555514272750e+00 7.6466663430348362e+01 
1096 698 2 1.0279864118583149e+00 -3.2975458816633077e+03 4.2000000000000000e+03 1.2114923870498721e+01 3.5781788349600392e+00 7.6538722406990445e+01 
1029 631 2 1.0279876997802324e+00 -2.7745225200403985e+02 4.2000000000000000e+03 1.2089680608015703e+01 2.9980808990804242e+00 7.6541132923864041e+01 
1414 1016 2 1.0279934663414017e+00 -7.6557144922953448e+03 4.2000000000000000e+03 9.8289587389686162e+00 1.5990995061174762e+00 7.6566422213375304e+01 
1419 1021 2 1.0279855593904921e+00 3.3941316676846709e+03 4.2000000000000000e+03 8.8218742286577587e+00 3.7163781020614213e+00 7.6680379984749081e+01 
1563 1165 2 1.0279740310765761e+00 -1.9671916992107222e+03 4.2000000000000000e+03 1.0111181393986021e+01 5.3382324708678111e+00 7.6784435778074823e+01 
1335 937 2 1.0279893570481373e+00 4.3086022321217951e+02 4.2000000000000000e+03 9.0553879729750673e+00 1.9499816407098498e+00 7.6783391084599501e+01 
1582 1184 2 1.0279806393344642e+00 -6.5491910057418527e+03 4.2000000000000000e+03 9.0267796340140301e+00 4.6558054306884253e+00 7.6956219703737574e+01 
1761 1363 2 1.0279772950269506e+00 3.0288896369048539e+03 4.2000000000000000e+03 9.0000480382546986e+00 4.7940849031509432e+00 7.7108783990794819e+01 
1566 1168 2 1.0279838723930927e+00 5.6532918893087208e+03 4.2000000000000000e+03 8.5359160062898560e+00 3.9721203134117875e+00 7.7101734023036443e+01 
1683 1285 2 1.0279821390565422e+00 -2.0523132810973298e+03 4.2000000000000000e+03 8.6011007757804272e+00 4.1698565394954485e+00 7.7123979779758287e+01 
1280 882 2 1.0279816646775231e+00 5.5684424713814224e+03 4.2000000000000000e+03 8.7439995085473470e+00 4.4496457393931355e+00 7.7129372746733850e+01 
1231 833 2 1.0279867549561696e+00 4.8470765992349043e+03 4.2000000000000000e+03 1.1329767700259712e+01 3.0766362650732276e-01 7.7114610349752482e+01 
1291 893 2 1.0279882044747699e+00 -2.5936149542548819e+03 4.2000000000000000e+03 8.3870098324081432e+00 3.2402773852109643e+00 7.7128974941778310e+01 
1461 1063 2 1.0279839037159217e+00 -4.2514664692468580e+02 4.2000000000000000e+03 8.4923044240910777e+00 3.9397263034700032e+00 7.7153844906209599e+01 
1487 1089 2 1.0279876053769064e+00 -1.1973572380133321e+03 4.2000000000000000e+03 8.2715152502495268e+00 3.1217621068016048e+00 7.7355559058654919e+01 
1392 994 2 1.0279845063891633e+00 1.8661774628639789e+03 4.2000000000000000e+03 8.2890061468125236e+00 3.5741674988243597e+00 7.7379791040572997e+01 
1523 1125 2 1.0279875695382010e+00 2.7047298282596432e+02 4.2000000000000000e+03 1.3150297154270191e+01 6.0568403156064425e+00 7.7526555847987837e+01 
985 587 2 1.0279879631891444e+00 7.5989510264614876e+02 4.2000000000000000e+03 8.2227640456585416e+00 3.2328775371444460e+00 7.7472675333267603e+01 
651 253 2 1.0279805445804782e+00 7.6092803727010141e+02 4.2000000000000000e+03 8.5576953071280961e+00 4.4812376036399426e+00 7.7511023895599578e+01 
1152 754 2 1.0279833544963954e+00 1.0310808567943136e+03 4.2000000000000000e+03 8.2552507785699110e+00 3.6293347481696809e+00 7.7488152941309892e+01 
1842 1444 2 1.0279865636657819e+00 -1.1402579108552711e+03 4.2000000000000000e+03 8.2446086938224834e+00 2.7948649208974903e+00 7.7499114873059995e+01 
1963 1565 2 1.0279872277995787e+00 -3.7736045348175667e+03 4.2000000000000000e+03 8.1891862119832552e+00 2.8954097701555099e+00 7.7621578444142614e+01 
413 15 2 1.0279822400938812e+00 -4.7161550419273044e+03 4.2000000000000000e+03 8.2147078788732486e+00 3.8452415918796023e+00 7.7783412445335102e+01 
664 266 2 1.0279806221836194e+00 1.7074625960315334e+03 4.2000000000000000e+03 8.2522395378184594e+00 3.9739039896197963e+00 7.7783219913507892e+01 
1637 1239 2 1.0279947177362960e+00 4.6418785143172381e+03 4.2000000000000000e+03 9.3565955969522694e+00 5.2950455604279190e-01 7.7766118326793418e+01 
1830 1432 2 1.0279878217961700e+00 9.2725313424478361e+02 4.2000000000000000e+03 8.2221622559119840e+00 2.4523556207948256e+00 7.7818968361059845e+01 
694 296 2 1.0279878806286302e+00 4.1096930426125255e+01 4.2000000000000000e+03 8.4452371284902625e+00 1.7629130451746187e+00 7.8056981642609600e+01 
1234 836 2 1.0279731696613910e+00 1.6037695393187437e+03 4.2000000000000000e+03 9.8337480756780913e+00 6.1032897012885767e+00 7.8150058832487460e+01 
872 474 2 1.0279861654318789e+00 1.5115519040521344e+03 4.2000000000000000e+03 8.7073796773770766e+00 1.4741539990213257e+00 7.9136997265172184e+01 
2057 1659 2 1.0279747889496147e+00 2.6147181006589143e+01 4.2000000000000000e+03 8.4702723873209589e+00 4.4520479788189515e+00 7.9475331674120810e+01 
1598 1200 2 1.0279880103280972e+00 8.1050014958594784e+03 4.2000000000000000e+03 1.4462095012789305e+01 4.6017060384722317e+00 7.7844863475919396e+01 
1003 605 2 1.0280469218715638e+00 8.6902986378448645e+01 4.2000000000000000e+03 1.9874130080132911e+01 3.8590552490977079e+00 7.8111276217685827e+01 
851 453 2 1.0280433153250292e+00 -2.1197530430365728e+02 4.2000000000000000e+03 1.9040455066071793e+01 3.4288333568076714e+00 7.8101263517414822e+01 
850 452 2 1.0280432576268264e+00 -2.1196152370523055e+02 4.2000000000000000e+03 1.8985651126917350e+01 3.4300857686717459e+00 7.8100761103817689e+01 
1002 604 2 1.0280393766318994e+00 8.7545138575536384e+01 4.2000000000000000e+03 1.8117056173060725e+01 3.8836788732821814e+00 7.8105373132515183e+01 
1066 668 2 1.0280333531131569e+00 3.0196327887818707e+03 4.2000000000000000e+03 1.7997118875115966e+01 5.9083686024876432e+00 7.8136204918035631e+01 
643 245 2 1.0280379388613248e+00 -1.0977121236948390e+03 4.2000000000000000e+03 1.7685665801308861e+01 3.2958705207792200e+00 7.8135629061913207e+01 
1407 1009 2 1.0279595918918010e+00 -1.1071424773437939e+03 4.2000000000000000e+03 1.5019713596520651e+01 2.8388937021753691e+00 7.8115496613565540e+01 
1067 669 2 1.0280349529063468e+00 3.0187313342926191e+03 4.2000000000000000e+03 1.9955681335339584e+01 6.0099607068692027e+00 7.8167174585033209e+01 
691 293 2 1.0278994537461348e+00 -1.0875017131144671e+03 4.2000000000000000e+03 1.4318390524751480e+01 4.7483913538775402e-01 7.8082976483335926e+01 
1510 1112 2 1.0279747459113342e+00 -1.0382870409269426e+03 4.2000000000000000e+03 1.5435091937652025e+01 3.5398495270423438e+00 7.8357784075526666e+01 
1746 1348 2 1.0279852097897202e+00 -3.4808542758755398e+03 4.2000000000000000e+03 1.6141204250963842e+01 2.0857977918596493e+00 7.8343770561156589e+01 
1743 1345 2 1.0278918412669067e+00 2.3005681162516262e+03 4.2000000000000000e+03 1.5092961566205547e+01 5.7471737051277116e-01 7.8255956420833115e+01 
2059 1661 2 1.0280500452075703e+00 3.3627374530989874e+02 4.2000000000000000e+03 1.6053379998202189e+01 4.8694949254624840e+00 7.8393699652766941e+01 
502 104 2 1.0280217874895150e+00 -1.0904138781675920e+03 4.2000000000000000e+03 1.8240984924049190e+01 1.0457824789212162e+00 7.8486151895137056e+01 
554 156 2 1.0279722440521577e+00 2.4249870335607225e+03 4.2000000000000000e+03 1.6578236336807645e+01 2.3510044961189646e-02 7.8435880693052056e+01 
503 105 2 1.0280322078239617e+00 -1.0907898504142925e+03 4.2000000000000000e+03 1.9951553673178577e+01 1.0449720127852904e+00 7.8530877278030488e+01 
871 473 2 1.0279867568485463e+00 2.8725304683530840e+03 4.2000000000000000e+03 1.6721008907913326e+01 2.0953617198971811e-01 7.8460046806228689e+01 
1923 1525 2 1.0278652629484286e+00 -5.4404496662684624e+03 4.2000000000000000e+03 1.5879930823490227e+01 4.3751632198555983e+00 7.8625347511364396e+01 
2064 1666 2 1.0280580303103926e+00 -9.8567497165727707e+02 4.2000000000000000e+03 1.5164021577169887e+01 4.2867276162188608e+00 7.8575193627040619e+01 
1184 786 2 1.0280625045113654e+00 9.3299585422751920e+02 4.2000000000000000e+03 1.5143710146535074e+01 4.3319005824247840e+00 7.8580606926446464e+01 
446 48 2 1.0280128074669936e+00 -1.1848079608414631e+02 4.2000000000000000e+03 1.7600571302853275e+01 2.3208626418071718e-01 7.8654444296001330e+01 
1443 1045 2 1.0282778060934537e+00 3.6977035476078900e+03 4.2000000000000000e+03 1.4668734084877354e+01 3.0936607701091590e-01 7.8824743578903451e+01 
1250 852 2 1.0280546033323048e+00 1.4141795192720792e+03 4.2000000000000000e+03 1.4593534903441423e+01 3.1156232544554041e+00 7.8816809015439972e+01 
457 59 2 1.0280560641973930e+00 5.8862218219485812e+03 4.2000000000000000e+03 1.4573313749613996e+01 2.9233830655696806e+00 7.8822658511087567e+01 
984 586 2 1.0280384912886025e+00 2.1916385358364237e+03 4.2000000000000000e+03 1.4504217822309862e+01 3.0549639554632249e+00 7.8846012375328456e+01 
1154 756 2 1.0280554009309815e+00 1.1466526051455151e+03 4.2000000000000000e+03 1.3985460792089585e+01 1.3603633784194349e+00 7.8883703405040976e+01 
614 216 2 1.0280248698162371e+00 -1.6215864973680204e+03 4.2000000000000000e+03 1.7067213177444497e+01 5.6836687362128471e+00 7.9260305169869881e+01 
812 414 2 1.0280074562736763e+00 2.4872101256255714e+03 4.2000000000000000e+03 1.9886178616089506e+01 5.9144522341251307e+00 7.9439888750035536e+01 
809 411 2 1.0280069567592365e+00 2.4870651449059728e+03 4.2000000000000000e+03 1.7918528350397583e+01 5.7735023126774276e+00 7.9460676627758644e+01 
1945 1547 2 1.0280062473045446e+00 6.0995905456414785e+03 4.2000000000000000e+03 1.9035112348166443e+01 5.9442037783938995e+00 7.9517813781078530e+01 
1948 1550 2 1.0280068366946207e+00 6.0996911909795417e+03 4.2000000000000000e+03 1.8765774953300458e+01 5.9258632974349457e+00 7.9521945935797234e+01 
1855 1457 2 1.0280241371607144e+00 1.3389063218435947e+03 4.2000000000000000e+03 1.1486551594139600e+01 1.2267774740780295e+01 7.7756302837436735e+01 
564 166 2 1.0280230517355105e+00 -1.0230814437357297e+03 4.2000000000000000e+03 1.1384696979730814e+01 1.1714007955231695e+01 7.7823067432519267e+01 
732 334 2 1.0280169157956700e+00 5.3791901011746809e+01 4.2000000000000000e+03 1.1631167981427243e+01 1.0593752840668218e+01 7.7867970428495966e+01 
1588 1190 2 1.0279776870491824e+00 -2.8787024657917518e+03 4.2000000000000000e+03 1.0947794097696628e+01 6.6815765194328964e+00 7.7792603844762951e+01 
1987 1589 2 1.0280135164209858e+00 8.8941253974134071e+01 4.2000000000000000e+03 1.1643213593675286e+01 1.0358791561679567e+01 7.7944487936390303e+01 
1648 1250 2 1.0280109893271021e+00 2.4434948643780481e+03 4.2000000000000000e+03 1.1837860329773520e+01 1.0015263896374945e+01 7.7941467126688678e+01 
1482 1084 2 1.0280210766484055e+00 -1.7599896271835280e+03 4.2000000000000000e+03 1.1220301982835656e+01 1.1492784675520014e+01 7.8001820045813119e+01 
1857 1459 2 1.0280058455834022e+00 1.3575959129822222e+03 4.2000000000000000e+03 1.2147096927457786e+01 9.3700402447657289e+00 7.8028590047388562e+01 
526 128 2 1.0280240175260000e+00 2.6647057092630575e+02 4.2000000000000000e+03 1.1263041707110942e+01 1.2803789450090365e+01 7.8056156250335547e+01 
1525 1127 2 1.0279997798254430e+00 1.6852871126597604e+03 4.2000000000000000e+03 1.2462271853881044e+01 9.0103714913587503e+00 7.8026591807521626e+01 
2008 1610 2 1.0280201465212111e+00 2.2094952750390257e+03 4.2000000000000000e+03 1.1133348405006721e+01 1.1619210219385204e+01 7.8082431551051542e+01 
483 85 2 1.0280081440435245e+00 5.5296110173500733e+02 4.2000000000000000e+03 1.1832058610908609e+01 9.6784556524650025e+00 7.8100101951380466e+01 
1247 849 2 1.0280019402473373e+00 -2.3990213370223755e+03 4.2000000000000000e+03 1.1994606089965112e+01 9.3078691101647237e+00 7.8160149170167713e+01 
970 572 2 1.0280221106089498e+00 1.5724942951129581e+03 4.2000000000000000e+03 1.1033092884929127e+01 1.2600448043115188e+01 7.8273146139075266e+01 
531 133 2 1.0280099973465915e+00 -4.1337781099912326e+02 4.2000000000000000e+03 1.1553578122446206e+01 9.9012974069232698e+00 7.8250493702861348e+01 
1976 1578 2 1.0279793844794634e+00 3.2154555397263648e+03 4.2000000000000000e+03 1.2256091406100088e+01 7.5647394116062259e+00 7.8211867601309933e+01 
1956 1558 2 1.0279721707933440e+00 1.4658898459368795e+03 4.2000000000000000e+03 1.1917160231492176e+01 7.4764585016686187e+00 7.8351884726505205e+01 
603 205 2 1.0280203101870080e+00 1.2291921853406914e+03 4.2000000000000000e+03 1.1066054283355903e+01 1.3235616572450756e+01 7.8491999423392869e+01 
1974 1576 2 1.0279628353548940e+00 -1.1607391604737024e+03 4.2000000000000000e+03 1.2314015218470374e+01 7.9772026339517828e+00 7.8453591357704042e+01 
443 45 2 1.0280103333532604e+00 -5.1488694453323421e+02 4.2000000000000000e+03 1.2144335053199761e+01 8.4842525492895859e+00 7.8541373440155354e+01 
479 81 2 1.0280308799519837e+00 -6.3724217012011434e+02 4.2000000000000000e+03 1.2738047151204412e+01 7.6671640397385268e+00 7.8792844891862515e+01 
1608 1210 2 1.0280051192320205e+00 1.2627100694912058e+03 4.2000000000000000e+03 1.2107714325059339e+01 8.5484590538272425e+00 7.8822007839087490e+01 
1998 1600 2 1.0280226084697481e+00 1.7860147258010022e+03 4.2000000000000000e+03 1.2682570860996343e+01 9.4494270084428962e+00 7.9719140211101362e+01 
2055 1657 2 1.0280291700476023e+00 -5.4779757422816272e+02 4.2000000000000000e+03 1.8306622879143760e+01 6.8375301459014501e+00 7.8171462909143997e+01 
2054 1656 2 1.0280208322829765e+00 -5.4898780484518522e+02 4.2000000000000000e+03 1.9848753562682479e+01 6.9465710858627867e+00 7.8217114090162241e+01 
1345 947 2 1.0279848583309954e+00 1.7629567195827128e+03 4.2000000000000000e+03 1.5553112813370186e+01 7.0408163542344084e+00 7.8319584150688399e+01 
2063 1665 2 1.0280123157642516e+00 1.1473108790777003e+03 4.2000000000000000e+03 1.5650496004853418e+01 8.1991987791157932e+00 7.8343340167569821e+01 
499 101 2 1.0280113835884177e+00 9.4737178583010603e+01 4.2000000000000000e+03 1.9121726634564549e+01 8.5046294421702981e+00 7.8403085443780270e+01 
498 100 2 1.0280098353307754e+00 9.4438008589349863e+01 4.2000000000000000e+03 1.8791883155039336e+01 8.5573775404153469e+00 7.8401628564050867e+01 
836 438 2 1.0280244918095229e+00 -1.7029244077609633e+02 4.2000000000000000e+03 1.5239149910701880e+01 7.5482128277048846e+00 7.8347204043613203e+01 
1359 961 2 1.0280010157307651e+00 -2.1668264522108706e+02 4.2000000000000000e+03 1.6362890209720707e+01 1.0556901078781515e+01 7.8452148718856250e+01 
1252 854 2 1.0281097333015128e+00 3.2784442567529072e+03 4.2000000000000000e+03 1.4424172143169592e+01 6.7912403729181605e+00 7.8656195442385325e+01 