LAMMPS data file via write_data, version 30 Jul 2016, timestep = 1000000

2080 atoms
8 atom types

0.0000000000000000e+00 4.0000000000000000e+01 xlo xhi
0.0000000000000000e+00 4.0000000000000000e+01 ylo yhi
0.0000000000000000e+00 1.0000000000000000e+02 zlo zhi

Masses

1 3.896
2 10.72
3 1058.08
4 8.378
5 8.378
6 8.378
7 8.378
8 8.378

Atoms # meso-molecular

1 2 4 2.2559723595316457e+00 1.0000000000000000e+00 4.2000000000000000e+03 0.0000000000000000e+00 0.0000000000000000e+00 2.5000000000000000e+00 
2 2 4 2.2559723595316457e+00 1.0000000000000000e+00 4.2000000000000000e+03 0.0000000000000000e+00 2.0000000000000000e+00 2.5000000000000000e+00 
3 2 4 2.2559723595316457e+00 1.0000000000000000e+00 4.2000000000000000e+03 0.0000000000000000e+00 4.0000000000000000e+00 2.5000000000000000e+00 
4 2 4 2.2559723595316457e+00 1.0000000000000000e+00 4.2000000000000000e+03 0.0000000000000000e+00 6.0000000000000000e+00 2.5000000000000000e+00 
21 2 4 2.2559723595316457e+00 1.0000000000000000e+00 4.2000000000000000e+03 2.0000000000000000e+00 0.0000000000000000e+00 2.5000000000000000e+00 
22 2 4 2.2559723595316457e+00 9.9999999999998257e-01 4.2000000000000000e+03 2.0000000000000000e+00 2.0000000000000000e+00 2.5000000000000000e+00 
23 2 4 2.2559723595316457e+00 1.0000303750644088e+00 4.2000000000000000e+03 2.0000000000000000e+00 4.0000000000000000e+00 2.5000000000000000e+00 
24 2 4 2.2559723595316457e+00 9.9979594993560783e-01 4.2000000000000000e+03 2.0000000000000000e+00 6.0000000000000000e+00 2.5000000000000000e+00 
41 2 4 2.2559723595316457e+00 9.9748408420989931e-01 4.2000000000000000e+03 4.0000000000000000e+00 0.0000000000000000e+00 2.5000000000000000e+00 
42 2 4 2.2559723595316457e+00 1.0008273387977482e+00 4.2000000000000000e+03 4.0000000000000000e+00 2.0000000000000000e+00 2.5000000000000000e+00 
43 2 4 2.2559723595316457e+00 1.0015820620329050e+00 4.2000000000000000e+03 4.0000000000000000e+00 4.0000000000000000e+00 2.5000000000000000e+00 
44 2 4 2.2559723595316457e+00 1.0005800000138971e+00 4.2000000000000000e+03 4.0000000000000000e+00 6.0000000000000000e+00 2.5000000000000000e+00 
61 2 4 2.2559723595316457e+00 9.9668590710194271e-01 4.2000000000000000e+03 6.0000000000000000e+00 0.0000000000000000e+00 2.5000000000000000e+00 
62 2 4 2.2559723595316457e+00 9.9494568222537938e-01 4.2000000000000000e+03 6.0000000000000000e+00 2.0000000000000000e+00 2.5000000000000000e+00 
63 2 4 2.2559723595316457e+00 1.0071949182799615e+00 4.2000000000000000e+03 6.0000000000000000e+00 4.0000000000000000e+00 2.5000000000000000e+00 
64 2 4 2.2559723595316457e+00 1.0190414924293671e+00 4.2000000000000000e+03 6.0000000000000000e+00 6.0000000000000000e+00 2.5000000000000000e+00 
81 2 4 2.2559723595316457e+00 9.9961604177716934e-01 4.2000000000000000e+03 8.0000000000000000e+00 0.0000000000000000e+00 2.5000000000000000e+00 
82 2 4 2.2559723595316457e+00 9.9838858474887360e-01 4.2000000000000000e+03 8.0000000000000000e+00 2.0000000000000000e+00 2.5000000000000000e+00 
83 2 4 2.2559723595316457e+00 9.7732455032564980e-01 4.2000000000000000e+03 8.0000000000000000e+00 4.0000000000000000e+00 2.5000000000000000e+00 
84 2 4 2.2559723595316457e+00 9.2913239461154817e-01 4.2000000000000000e+03 8.0000000000000000e+00 6.0000000000000000e+00 2.5000000000000000e+00 
101 2 4 2.2559723595316457e+00 1.0000000000000000e+00 4.2000000000000000e+03 1.0000000000000000e+01 0.0000000000000000e+00 2.5000000000000000e+00 
102 2 4 2.2559723595316457e+00 1.0016098454303375e+00 4.2000000000000000e+03 1.0000000000000000e+01 2.0000000000000000e+00 2.5000000000000000e+00 
103 2 4 2.2559723595316457e+00 1.0202312903814517e+00 4.2000000000000000e+03 1.0000000000000000e+01 4.0000000000000000e+00 2.5000000000000000e+00 
104 2 4 2.2559723595316457e+00 -4.4047158649084608e+00 4.2000000000000000e+03 1.0000000000000000e+01 6.0000000000000000e+00 2.5000000000000000e+00 
121 2 4 2.2559723595316457e+00 1.0007199153158570e+00 4.2000000000000000e+03 1.2000000000000000e+01 0.0000000000000000e+00 2.5000000000000000e+00 
122 2 4 2.2559723595316457e+00 1.0009633872827104e+00 4.2000000000000000e+03 1.2000000000000000e+01 2.0000000000000000e+00 2.5000000000000000e+00 
123 2 4 2.2559723595316457e+00 -4.2896804066667356e+00 4.2000000000000000e+03 1.2000000000000000e+01 4.0000000000000000e+00 2.5000000000000000e+00 
124 2 4 2.2559723595316457e+00 -2.2666501243327539e+02 4.2000000000000000e+03 1.2000000000000000e+01 6.0000000000000000e+00 2.5000000000000000e+00 
141 2 4 2.2559723595316457e+00 9.9367233341851280e-01 4.2000000000000000e+03 1.4000000000000000e+01 0.0000000000000000e+00 2.5000000000000000e+00 
142 2 4 2.2559723595316457e+00 9.9823387331414359e-01 4.2000000000000000e+03 1.4000000000000000e+01 2.0000000000000000e+00 2.5000000000000000e+00 
143 2 4 2.2559723595316457e+00 -8.1008492227278452e+01 4.2000000000000000e+03 1.4000000000000000e+01 4.0000000000000000e+00 2.5000000000000000e+00 
144 2 4 2.2559723595316457e+00 -1.0400167972201939e+03 4.2000000000000000e+03 1.4000000000000000e+01 6.0000000000000000e+00 2.5000000000000000e+00 
161 2 4 2.2559723595316457e+00 1.0036196671344408e+00 4.2000000000000000e+03 1.6000000000000000e+01 0.0000000000000000e+00 2.5000000000000000e+00 
162 2 4 2.2559723595316457e+00 9.7017704312711717e-01 4.2000000000000000e+03 1.6000000000000000e+01 2.0000000000000000e+00 2.5000000000000000e+00 
163 2 4 2.2559723595316457e+00 -2.1764730367465776e+02 4.2000000000000000e+03 1.6000000000000000e+01 4.0000000000000000e+00 2.5000000000000000e+00 
164 2 4 2.2559723595316457e+00 -2.2337836372885477e+03 4.2000000000000000e+03 1.6000000000000000e+01 6.0000000000000000e+00 2.5000000000000000e+00 
181 2 4 2.2559723595316457e+00 1.0003654027051896e+00 4.2000000000000000e+03 1.8000000000000000e+01 0.0000000000000000e+00 2.5000000000000000e+00 
182 2 4 2.2559723595316457e+00 9.0528400180792501e-01 4.2000000000000000e+03 1.8000000000000000e+01 2.0000000000000000e+00 2.5000000000000000e+00 
183 2 4 2.2559723595316457e+00 -2.9955772525986430e+02 4.2000000000000000e+03 1.8000000000000000e+01 4.0000000000000000e+00 2.5000000000000000e+00 
184 2 4 2.2559723595316457e+00 -3.0771044289725987e+03 4.2000000000000000e+03 1.8000000000000000e+01 6.0000000000000000e+00 2.5000000000000000e+00 
5 2 4 2.2559723595316457e+00 1.0000000000000000e+00 4.2000000000000000e+03 0.0000000000000000e+00 8.0000000000000000e+00 2.5000000000000000e+00 
6 2 4 2.2559723595316457e+00 1.0000000000000000e+00 4.2000000000000000e+03 0.0000000000000000e+00 1.0000000000000000e+01 2.5000000000000000e+00 
7 2 4 2.2559723595316457e+00 1.0000000000000000e+00 4.2000000000000000e+03 0.0000000000000000e+00 1.2000000000000000e+01 2.5000000000000000e+00 
25 2 4 2.2559723595316457e+00 9.9421933384575700e-01 4.2000000000000000e+03 2.0000000000000000e+00 8.0000000000000000e+00 2.5000000000000000e+00 
26 2 4 2.2559723595316457e+00 9.9770283251254299e-01 4.2000000000000000e+03 2.0000000000000000e+00 1.0000000000000000e+01 2.5000000000000000e+00 
27 2 4 2.2559723595316457e+00 9.9999014829408583e-01 4.2000000000000000e+03 2.0000000000000000e+00 1.2000000000000000e+01 2.5000000000000000e+00 
45 2 4 2.2559723595316457e+00 9.9498669178051424e-01 4.2000000000000000e+03 4.0000000000000000e+00 8.0000000000000000e+00 2.5000000000000000e+00 
46 2 4 2.2559723595316457e+00 9.9794389063834332e-01 4.2000000000000000e+03 4.0000000000000000e+00 1.0000000000000000e+01 2.5000000000000000e+00 
47 2 4 2.2559723595316457e+00 9.9521878909562833e-01 4.2000000000000000e+03 4.0000000000000000e+00 1.2000000000000000e+01 2.5000000000000000e+00 
65 2 4 2.2559723595316457e+00 1.0061547966134889e+00 4.2000000000000000e+03 6.0000000000000000e+00 8.0000000000000000e+00 2.5000000000000000e+00 
66 2 4 2.2559723595316457e+00 1.0005803146406467e+00 4.2000000000000000e+03 6.0000000000000000e+00 1.0000000000000000e+01 2.5000000000000000e+00 
67 2 4 2.2559723595316457e+00 9.9110643443105362e-01 4.2000000000000000e+03 6.0000000000000000e+00 1.2000000000000000e+01 2.5000000000000000e+00 
85 2 4 2.2559723595316457e+00 9.8607577972875071e-01 4.2000000000000000e+03 8.0000000000000000e+00 8.0000000000000000e+00 2.5000000000000000e+00 
86 2 4 2.2559723595316457e+00 1.0050081353941087e+00 4.2000000000000000e+03 8.0000000000000000e+00 1.0000000000000000e+01 2.5000000000000000e+00 
87 2 4 2.2559723595316457e+00 1.0160372001429088e+00 4.2000000000000000e+03 8.0000000000000000e+00 1.2000000000000000e+01 2.5000000000000000e+00 
105 2 4 2.2559723595316457e+00 -8.1056150120069518e+01 4.2000000000000000e+03 1.0000000000000000e+01 8.0000000000000000e+00 2.5000000000000000e+00 
106 2 4 2.2559723595316457e+00 -2.1790773366888845e+02 4.2000000000000000e+03 1.0000000000000000e+01 1.0000000000000000e+01 2.5000000000000000e+00 
107 2 4 2.2559723595316457e+00 -3.0133342814265689e+02 4.2000000000000000e+03 1.0000000000000000e+01 1.2000000000000000e+01 2.5000000000000000e+00 
125 2 4 2.2559723595316457e+00 -1.0402165121667958e+03 4.2000000000000000e+03 1.2000000000000000e+01 8.0000000000000000e+00 2.5000000000000000e+00 
126 2 4 2.2559723595316457e+00 -2.2378772779559058e+03 4.2000000000000000e+03 1.2000000000000000e+01 1.0000000000000000e+01 2.5000000000000000e+00 
127 2 4 2.2559723595316457e+00 -3.1049962353542987e+03 4.2000000000000000e+03 1.2000000000000000e+01 1.2000000000000000e+01 2.5000000000000000e+00 
145 2 4 2.2559723595316457e+00 -3.8135708363118561e+03 4.2000000000000000e+03 1.4000000000000000e+01 8.0000000000000000e+00 2.5000000000000000e+00 
146 2 4 2.2559723595316457e+00 -7.7161447207559795e+03 4.2000000000000000e+03 1.4000000000000000e+01 1.0000000000000000e+01 2.5000000000000000e+00 
147 2 4 2.2559723595316457e+00 -1.0731515459038883e+04 4.2000000000000000e+03 1.4000000000000000e+01 1.2000000000000000e+01 2.5000000000000000e+00 
165 2 4 2.2559723595316457e+00 -7.7035470545750304e+03 4.2000000000000000e+03 1.6000000000000000e+01 8.0000000000000000e+00 2.5000000000000000e+00 
166 2 4 2.2559723595316457e+00 -1.5412415598966432e+04 4.2000000000000000e+03 1.6000000000000000e+01 1.0000000000000000e+01 2.5000000000000000e+00 
167 2 4 2.2559723595316457e+00 -2.1587053312793832e+04 4.2000000000000000e+03 1.6000000000000000e+01 1.2000000000000000e+01 2.5000000000000000e+00 
185 2 4 2.2559723595316457e+00 -1.0572072575572320e+04 4.2000000000000000e+03 1.8000000000000000e+01 8.0000000000000000e+00 2.5000000000000000e+00 
186 2 4 2.2559723595316457e+00 -2.1237076268240860e+04 4.2000000000000000e+03 1.8000000000000000e+01 1.0000000000000000e+01 2.5000000000000000e+00 
187 2 4 2.2559723595316457e+00 -2.9937860873776204e+04 4.2000000000000000e+03 1.8000000000000000e+01 1.2000000000000000e+01 2.5000000000000000e+00 
8 2 4 2.2559723595316457e+00 1.0000000000000000e+00 4.2000000000000000e+03 0.0000000000000000e+00 1.4000000000000000e+01 2.5000000000000000e+00 
9 2 4 2.2559723595316457e+00 1.0000000000000000e+00 4.2000000000000000e+03 0.0000000000000000e+00 1.6000000000000000e+01 2.5000000000000000e+00 
10 2 4 2.2559723595316457e+00 1.0000000000000000e+00 4.2000000000000000e+03 0.0000000000000000e+00 1.8000000000000000e+01 2.5000000000000000e+00 
28 2 4 2.2559723595316457e+00 1.0000000000000000e+00 4.2000000000000000e+03 2.0000000000000000e+00 1.4000000000000000e+01 2.5000000000000000e+00 
29 2 4 2.2559723595316457e+00 1.0000000000000000e+00 4.2000000000000000e+03 2.0000000000000000e+00 1.6000000000000000e+01 2.5000000000000000e+00 
30 2 4 2.2559723595316457e+00 1.0000000000000000e+00 4.2000000000000000e+03 2.0000000000000000e+00 1.8000000000000000e+01 2.5000000000000000e+00 
48 2 4 2.2559723595316457e+00 9.9835412406777335e-01 4.2000000000000000e+03 4.0000000000000000e+00 1.4000000000000000e+01 2.5000000000000000e+00 
49 2 4 2.2559723595316457e+00 9.9723266753063378e-01 4.2000000000000000e+03 4.0000000000000000e+00 1.6000000000000000e+01 2.5000000000000000e+00 
50 2 4 2.2559723595316457e+00 9.9981383159838455e-01 4.2000000000000000e+03 4.0000000000000000e+00 1.8000000000000000e+01 2.5000000000000000e+00 
68 2 4 2.2559723595316457e+00 9.5506673662633190e-01 4.2000000000000000e+03 6.0000000000000000e+00 1.4000000000000000e+01 2.5000000000000000e+00 
69 2 4 2.2559723595316457e+00 8.9694297376252852e-01 4.2000000000000000e+03 6.0000000000000000e+00 1.6000000000000000e+01 2.5000000000000000e+00 
70 2 4 2.2559723595316457e+00 9.1923323960735637e-01 4.2000000000000000e+03 6.0000000000000000e+00 1.8000000000000000e+01 2.5000000000000000e+00 
88 2 4 2.2559723595316457e+00 8.7165717083484107e-01 4.2000000000000000e+03 8.0000000000000000e+00 1.4000000000000000e+01 2.5000000000000000e+00 
89 2 4 2.2559723595316457e+00 6.0163690283537274e-01 4.2000000000000000e+03 8.0000000000000000e+00 1.6000000000000000e+01 2.5000000000000000e+00 
90 2 4 2.2559723595316457e+00 6.5930835929552267e-01 4.2000000000000000e+03 8.0000000000000000e+00 1.8000000000000000e+01 2.5000000000000000e+00 
108 2 4 2.2559723595316457e+00 -3.1198583141323712e+02 4.2000000000000000e+03 1.0000000000000000e+01 1.4000000000000000e+01 2.5000000000000000e+00 
109 2 4 2.2559723595316457e+00 -3.1362173684793203e+02 4.2000000000000000e+03 1.0000000000000000e+01 1.6000000000000000e+01 2.5000000000000000e+00 
110 2 4 2.2559723595316457e+00 -3.1356851419412465e+02 4.2000000000000000e+03 1.0000000000000000e+01 1.8000000000000000e+01 2.5000000000000000e+00 
128 2 4 2.2559723595316457e+00 -3.3754779638542350e+03 4.2000000000000000e+03 1.2000000000000000e+01 1.4000000000000000e+01 2.5000000000000000e+00 
129 2 4 2.2559723595316457e+00 -3.3998734443574649e+03 4.2000000000000000e+03 1.2000000000000000e+01 1.6000000000000000e+01 2.5000000000000000e+00 
130 2 4 2.2559723595316457e+00 -3.4029661597731456e+03 4.2000000000000000e+03 1.2000000000000000e+01 1.8000000000000000e+01 2.5000000000000000e+00 
148 2 4 2.2559723595316457e+00 -1.1882616249549539e+04 4.2000000000000000e+03 1.4000000000000000e+01 1.4000000000000000e+01 2.5000000000000000e+00 
149 2 4 2.2559723595316457e+00 -1.2034077384889177e+04 4.2000000000000000e+03 1.4000000000000000e+01 1.6000000000000000e+01 2.5000000000000000e+00 
150 2 4 2.2559723595316457e+00 -1.2047481485701355e+04 4.2000000000000000e+03 1.4000000000000000e+01 1.8000000000000000e+01 2.5000000000000000e+00 
168 2 4 2.2559723595316457e+00 -2.4116918159060770e+04 4.2000000000000000e+03 1.6000000000000000e+01 1.4000000000000000e+01 2.5000000000000000e+00 
169 2 4 2.2559723595316457e+00 -2.4485351148267404e+04 4.2000000000000000e+03 1.6000000000000000e+01 1.6000000000000000e+01 2.5000000000000000e+00 
170 2 4 2.2559723595316457e+00 -2.4509096995293570e+04 4.2000000000000000e+03 1.6000000000000000e+01 1.8000000000000000e+01 2.5000000000000000e+00 
188 2 4 2.2559723595316457e+00 -3.3561913401379585e+04 4.2000000000000000e+03 1.8000000000000000e+01 1.4000000000000000e+01 2.5000000000000000e+00 
189 2 4 2.2559723595316457e+00 -3.4081158782636994e+04 4.2000000000000000e+03 1.8000000000000000e+01 1.6000000000000000e+01 2.5000000000000000e+00 
190 2 4 2.2559723595316457e+00 -3.4108636035978030e+04 4.2000000000000000e+03 1.8000000000000000e+01 1.8000000000000000e+01 2.5000000000000000e+00 
1266 868 2 1.0279999955387527e+00 1.3385085714226402e+03 4.2000000000000000e+03 1.0474186644849555e+01 2.7084345166383845e+00 6.9842696146727789e+01 
1162 764 2 1.0279999709942640e+00 -4.8434044462188501e+02 4.2000000000000000e+03 1.0403061727121596e+01 2.6410728102209875e+00 6.9848827280060334e+01 
1516 1118 2 1.0280005530272180e+00 2.9960168139386037e+03 4.2000000000000000e+03 1.1367243936198337e+01 3.0749695511685458e+00 6.9965407530772083e+01 
2045 1647 2 1.0279997088534434e+00 1.6100479294297920e+03 4.2000000000000000e+03 9.5091020046578887e+00 2.1246260831311496e+00 7.0091261469003740e+01 
1602 1204 2 1.0280000570616794e+00 5.0829160052233246e+03 4.2000000000000000e+03 1.0288315954395815e+01 4.9091621490437367e+00 7.0153580115994941e+01 
1096 698 2 1.0280010292803154e+00 -3.2975446606253117e+03 4.2000000000000000e+03 1.2089161486368923e+01 3.5766971167338006e+00 7.0210260476565622e+01 
1029 631 2 1.0280011629220536e+00 -2.7744958815805813e+02 4.2000000000000000e+03 1.2066676993073314e+01 2.9948863499753791e+00 7.0209209132221076e+01 
1414 1016 2 1.0279999241240498e+00 -7.6557126372369930e+03 4.2000000000000000e+03 9.8359377557689029e+00 1.6154319308650327e+00 7.0189308337826731e+01 
1419 1021 2 1.0279996356834631e+00 3.3941219329698174e+03 4.2000000000000000e+03 8.8225155711636258e+00 3.7518570806811500e+00 7.0313671573719745e+01 
1335 937 2 1.0279996880828812e+00 4.3085684807126853e+02 4.2000000000000000e+03 9.0552605822507939e+00 1.9641998689325486e+00 7.0396973714285480e+01 
1563 1165 2 1.0280002349366117e+00 -1.9672059855877592e+03 4.2000000000000000e+03 1.0113832829356539e+01 5.3680383384901704e+00 7.0460090553613199e+01 
1582 1184 2 1.0279998672307868e+00 -6.5492049126706188e+03 4.2000000000000000e+03 9.0349180860167078e+00 4.6963140582378351e+00 7.0605985087649970e+01 
1566 1168 2 1.0279997115994266e+00 5.6532802585262234e+03 4.2000000000000000e+03 8.5341089280326212e+00 4.0118256547807132e+00 7.0735919314893465e+01 
1761 1363 2 1.0279999116255243e+00 3.0288748349079938e+03 4.2000000000000000e+03 9.0093757668075529e+00 4.8333953376468273e+00 7.0758284239702931e+01 
1231 833 2 1.0280013413063938e+00 4.8470844419460418e+03 4.2000000000000000e+03 1.1326552805421212e+01 3.3422951814382401e-01 7.0742022074083565e+01 
1291 893 2 1.0279996617585880e+00 -2.5936244011939807e+03 4.2000000000000000e+03 8.3763152716351996e+00 3.2696378859409041e+00 7.0752280096770136e+01 
1683 1285 2 1.0279997422746534e+00 -2.0523256816042144e+03 4.2000000000000000e+03 8.6020883966785604e+00 4.2109832253465687e+00 7.0761470064401593e+01 
1280 882 2 1.0279998014311478e+00 5.5684289832797576e+03 4.2000000000000000e+03 8.7491853032053015e+00 4.4912688152142506e+00 7.0771893013768235e+01 
1461 1063 2 1.0279997130134264e+00 -4.2515828918936700e+02 4.2000000000000000e+03 8.4894396442370574e+00 3.9791850354073519e+00 7.0787188092688609e+01 
1487 1089 2 1.0279997315589109e+00 -1.1973672320281908e+03 4.2000000000000000e+03 8.2565942841332127e+00 3.1493645738502738e+00 7.0976465786831511e+01 
1392 994 2 1.0279997303417900e+00 1.8661663176023319e+03 4.2000000000000000e+03 8.2783105961200345e+00 3.6092746721114017e+00 7.1006713894109794e+01 
985 587 2 1.0279997631516424e+00 7.5988443398269794e+02 4.2000000000000000e+03 8.2071484361104829e+00 3.2625667222524424e+00 7.1094317657608443e+01 
1152 754 2 1.0279997528534721e+00 1.0310692181883151e+03 4.2000000000000000e+03 8.2441193667970207e+00 3.6653303923419838e+00 7.1115384112389677e+01 
1842 1444 2 1.0279998049795187e+00 -1.1402679671451563e+03 4.2000000000000000e+03 8.2259406080227162e+00 2.8173483612114412e+00 7.1114684441490482e+01 
651 253 2 1.0279998234404937e+00 7.6091344733183178e+02 4.2000000000000000e+03 8.5605235542063181e+00 4.5214087401192229e+00 7.1149020224635365e+01 
1523 1125 2 1.0280030370469049e+00 2.7048683374417709e+02 4.2000000000000000e+03 1.3094100800649493e+01 6.0548906071260431e+00 7.1234029308369031e+01 
1963 1565 2 1.0279998425138399e+00 -3.7736152963775112e+03 4.2000000000000000e+03 8.1690819540104549e+00 2.9197426870480365e+00 7.1237312529562530e+01 
1637 1239 2 1.0280002722615551e+00 4.6418686661059173e+03 4.2000000000000000e+03 9.3260601244060641e+00 5.4115320959862157e-01 7.1330306043126782e+01 
413 15 2 1.0279998118435079e+00 -4.7161682525290707e+03 4.2000000000000000e+03 8.2041743343632394e+00 3.8836433350156296e+00 7.1411715670686036e+01 
664 266 2 1.0279998130338395e+00 1.7074490027495026e+03 4.2000000000000000e+03 8.2439642115710718e+00 4.0129786373674845e+00 7.1413032843727663e+01 
1830 1432 2 1.0279999949660050e+00 9.2724159428277062e+02 4.2000000000000000e+03 8.1966179038237712e+00 2.4708695707610819e+00 7.1425665752101551e+01 
694 296 2 1.0280002767113188e+00 4.1083085099231255e+01 4.2000000000000000e+03 8.4099233049934181e+00 1.7757759967975704e+00 7.1647564048213056e+01 
1234 836 2 1.0280006971150013e+00 1.6037463875089425e+03 4.2000000000000000e+03 9.8405211886100421e+00 6.1124145641742098e+00 7.1777741484769052e+01 
872 474 2 1.0280011718241697e+00 1.5115239372743363e+03 4.2000000000000000e+03 8.6147130732102664e+00 1.4701784741724166e+00 7.2713386113707557e+01 
2057 1659 2 1.0280008509311640e+00 2.6124294641491215e+01 4.2000000000000000e+03 8.4380892907986738e+00 4.4746578642299184e+00 7.3078159595672105e+01 
1598 1200 2 1.0280052145795444e+00 8.1050234030028523e+03 4.2000000000000000e+03 1.4416522894695394e+01 4.5886322425420829e+00 7.1550631082299873e+01 
691 293 2 1.0280102396029973e+00 -1.0875168071558744e+03 4.2000000000000000e+03 1.4235021898072553e+01 4.6462987105597614e-01 7.1752407716282846e+01 
851 453 2 1.0280000590902136e+00 -2.1184364385608603e+02 4.2000000000000000e+03 1.9020635784867959e+01 3.4227322625486654e+00 7.1750919873969607e+01 
850 452 2 1.0280000798944593e+00 -2.1183086655496314e+02 4.2000000000000000e+03 1.8965013657675854e+01 3.4240820508199419e+00 7.1750076336055542e+01 
1002 604 2 1.0280008127593501e+00 8.7659072401332423e+01 4.2000000000000000e+03 1.8089829255262295e+01 3.8758993932006560e+00 7.1751468710901307e+01 
1003 605 2 1.0280003712966177e+00 8.7040973466469396e+01 4.2000000000000000e+03 1.9862149176113448e+01 3.8442998172425189e+00 7.1767768697946224e+01 
643 245 2 1.0280009589041590e+00 -1.0976197028558279e+03 4.2000000000000000e+03 1.7663091716207617e+01 3.2946250561709478e+00 7.1779715333259432e+01 
1407 1009 2 1.0280071725873372e+00 -1.1071495629412275e+03 4.2000000000000000e+03 1.4994315178442205e+01 2.8479906037743339e+00 7.1805346865209572e+01 
1066 668 2 1.0280021153766423e+00 3.0197666017618312e+03 4.2000000000000000e+03 1.7971970037453584e+01 5.8976269165257706e+00 7.1807632413708404e+01 
1067 669 2 1.0280025674191517e+00 3.0188606410897619e+03 4.2000000000000000e+03 1.9943091773255599e+01 6.0081976608762186e+00 7.1848864269594330e+01 
1743 1345 2 1.0280131751159638e+00 2.3005540743663028e+03 4.2000000000000000e+03 1.5025139393863091e+01 5.5756984180066393e-01 7.1932169862762564e+01 
1746 1348 2 1.0280046186048195e+00 -3.4808513163779553e+03 4.2000000000000000e+03 1.6149976525528508e+01 2.0943547360223023e+00 7.1985016645787610e+01 
1510 1112 2 1.0280200466445137e+00 -1.0382865402956008e+03 4.2000000000000000e+03 1.5481127892168898e+01 3.5461737585398287e+00 7.2023173762987895e+01 
2059 1661 2 1.0280060083012981e+00 3.3633987247852531e+02 4.2000000000000000e+03 1.6086011465955959e+01 4.8564920745361810e+00 7.2017512907769429e+01 
1184 786 2 1.0280070467936135e+00 9.3301398139084199e+02 4.2000000000000000e+03 1.5517683222254082e+01 4.4926476206103372e+00 7.2140548456952700e+01 
554 156 2 1.0280081988367940e+00 2.4250049157177223e+03 4.2000000000000000e+03 1.6559921882784817e+01 1.9745413870649649e-02 7.2110083831262756e+01 
871 473 2 1.0280074187233592e+00 2.8725497818233093e+03 4.2000000000000000e+03 1.6704906150337465e+01 2.0768328267523092e-01 7.2131187649589251e+01 
502 104 2 1.0279998777892521e+00 -1.0903410044266500e+03 4.2000000000000000e+03 1.8190508924234781e+01 1.0678028956151220e+00 7.2129358619481309e+01 
503 105 2 1.0279970604616473e+00 -1.0906583141068331e+03 4.2000000000000000e+03 1.9909210816507375e+01 1.1176173623475734e+00 7.2174005510897103e+01 
2064 1666 2 1.0279902661854916e+00 -9.8568325208572435e+02 4.2000000000000000e+03 1.5217870150551999e+01 4.2696970830489702e+00 7.2284853356777560e+01 
446 48 2 1.0280036775011960e+00 -1.1844842188037480e+02 4.2000000000000000e+03 1.7565004460031215e+01 2.4258476584921312e-01 7.2308705840445910e+01 
1923 1525 2 1.0279822327643366e+00 -5.4405035305198699e+03 4.2000000000000000e+03 1.5857551330051244e+01 4.2515561265144042e+00 7.2460471152664070e+01 
1250 852 2 1.0279931077376083e+00 1.4141093474234062e+03 4.2000000000000000e+03 1.4670757539672403e+01 3.1243625346885984e+00 7.2472499690414850e+01 
457 59 2 1.0279927733207117e+00 5.8861481923174961e+03 4.2000000000000000e+03 1.4649690881534825e+01 2.9270007535676656e+00 7.2477424356130697e+01 
1443 1045 2 1.0279726048288516e+00 3.6976295183723259e+03 4.2000000000000000e+03 1.4676472068504578e+01 3.4401995458234219e-01 7.2493092752415606e+01 
984 586 2 1.0279941676099404e+00 2.1915637847260286e+03 4.2000000000000000e+03 1.4575055266529322e+01 3.0624158201204845e+00 7.2500002921806640e+01 
1154 756 2 1.0279913441892365e+00 1.1465640833647706e+03 4.2000000000000000e+03 1.4011850962666912e+01 1.3352304801881545e+00 7.2528836206200623e+01 
614 216 2 1.0279955206494564e+00 -1.6215584324760459e+03 4.2000000000000000e+03 1.7050100958807533e+01 5.6501267384188072e+00 7.3081266180645571e+01 
812 414 2 1.0279932726463306e+00 2.4872387027626992e+03 4.2000000000000000e+03 1.9877180115296433e+01 5.8883098782677736e+00 7.3278647277074327e+01 
809 411 2 1.0279958551957133e+00 2.4870864574230545e+03 4.2000000000000000e+03 1.7911272766981039e+01 5.7408721836804579e+00 7.3301948763659652e+01 
1588 1190 2 1.0280017648283626e+00 -2.8787185476591894e+03 4.2000000000000000e+03 1.0951188050523388e+01 6.6738117821717076e+00 7.1464520767233310e+01 
1855 1457 2 1.0279997136563475e+00 1.3389022767475587e+03 4.2000000000000000e+03 1.1483294481384343e+01 1.2249370088543108e+01 7.1515846850365051e+01 
564 166 2 1.0279998915941759e+00 -1.0230864225863008e+03 4.2000000000000000e+03 1.1384412463966896e+01 1.1695272660513757e+01 7.1572428116908782e+01 
732 334 2 1.0280003589648552e+00 5.3788354153484228e+01 4.2000000000000000e+03 1.1632381535260837e+01 1.0577550443545986e+01 7.1600241458359662e+01 
1987 1589 2 1.0280005106742214e+00 8.8937798096027365e+01 4.2000000000000000e+03 1.1645997498518756e+01 1.0345692933888349e+01 7.1670133825394629e+01 
1648 1250 2 1.0280007687276214e+00 2.4434932161105748e+03 4.2000000000000000e+03 1.1837655675491236e+01 1.0006443650311821e+01 7.1664616684101816e+01 
1482 1084 2 1.0280000394819888e+00 -1.7599954710123952e+03 4.2000000000000000e+03 1.1224102112512497e+01 1.1475751701243958e+01 7.1741685848462595e+01 
1857 1459 2 1.0280015369759772e+00 1.3575974151952221e+03 4.2000000000000000e+03 1.2140380315794665e+01 9.3735549439634944e+00 7.1744700843998643e+01 
1525 1127 2 1.0280022257261878e+00 1.6852926722035550e+03 4.2000000000000000e+03 1.2443771311571069e+01 9.0220586910865102e+00 7.1745959006084647e+01 
526 128 2 1.0279997920624568e+00 2.6646685210898903e+02 4.2000000000000000e+03 1.1265353703531067e+01 1.2791365787166232e+01 7.1821147240944953e+01 
483 85 2 1.0280011040737276e+00 5.5295893253554289e+02 4.2000000000000000e+03 1.1834549692877774e+01 9.6763873001076703e+00 7.1810192164040956e+01 
2008 1610 2 1.0280000383517232e+00 2.2094891953222364e+03 4.2000000000000000e+03 1.1137883764585505e+01 1.1603213081000490e+01 7.1822082940820906e+01 
1247 849 2 1.0280016204512028e+00 -2.3990222665346050e+03 4.2000000000000000e+03 1.1994318369679091e+01 9.3133877226246415e+00 7.1864950605091693e+01 
1976 1578 2 1.0280096426401490e+00 3.2154527283307043e+03 4.2000000000000000e+03 1.2249086136775480e+01 7.5680120271800737e+00 7.1959023264739727e+01 
531 133 2 1.0280008475243665e+00 -4.1338295949152780e+02 4.2000000000000000e+03 1.1560621359550829e+01 9.8965248393996728e+00 7.1951067980217289e+01 
970 572 2 1.0279999460074347e+00 1.5724896267604183e+03 4.2000000000000000e+03 1.1038684075454867e+01 1.2588986046194657e+01 7.2029757890514546e+01 
1956 1558 2 1.0280086912631476e+00 1.4658805156306230e+03 4.2000000000000000e+03 1.1938174234126931e+01 7.4658292909012456e+00 7.2051327347147989e+01 
1974 1576 2 1.0280121597976351e+00 -1.1607419179329356e+03 4.2000000000000000e+03 1.2326748123673244e+01 8.0106240168349423e+00 7.2171346683837527e+01 
443 45 2 1.0280041424165722e+00 -5.1489068149697698e+02 4.2000000000000000e+03 1.2137940729495183e+01 8.5072838761622158e+00 7.2201258149673137e+01 
603 205 2 1.0279999949164131e+00 1.2291884374870101e+03 4.2000000000000000e+03 1.1075532420344320e+01 1.3229010222327632e+01 7.2261101378578857e+01 
479 81 2 1.0279598803407883e+00 -6.3724409077434564e+02 4.2000000000000000e+03 1.2721910537162810e+01 7.6534058266959661e+00 7.2491668665368508e+01 
1608 1210 2 1.0280002699599753e+00 1.2627033734359322e+03 4.2000000000000000e+03 1.2047508204814504e+01 8.5484736849432785e+00 7.2447896577000620e+01 
2055 1657 2 1.0280025476554224e+00 -5.4765910009594484e+02 4.2000000000000000e+03 1.8287895462796307e+01 6.8349002200128206e+00 7.1863715692745458e+01 
2054 1656 2 1.0280034290742288e+00 -5.4885892759035085e+02 4.2000000000000000e+03 1.9838202562058417e+01 6.9528596451808644e+00 7.1919951052555845e+01 
1345 947 2 1.0280137962101452e+00 1.7630392609906287e+03 4.2000000000000000e+03 1.5558046787534284e+01 7.0444238634244929e+00 7.2048235099196106e+01 
2063 1665 2 1.0280105586309156e+00 1.1473874929345316e+03 4.2000000000000000e+03 1.5634425690968129e+01 8.2064782485235455e+00 7.2076201037830558e+01 
836 438 2 1.0280172734948010e+00 -1.7022284876372845e+02 4.2000000000000000e+03 1.5226394580873988e+01 7.5618946447975794e+00 7.2089181933992066e+01 
1491 1093 2 1.0280505838325529e+00 -1.4724918576852326e+03 4.2000000000000000e+03 1.4521638712336511e+01 7.0496718997311811e+00 7.2123653977755978e+01 
499 101 2 1.0280042932327949e+00 9.4856769479203507e+01 4.2000000000000000e+03 1.9112494161087437e+01 8.5076919335297543e+00 7.2134197557207557e+01 
498 100 2 1.0280040058409279e+00 9.4557735736104590e+01 4.2000000000000000e+03 1.8781627610888389e+01 8.5608772852589716e+00 7.2132521548412967e+01 
1359 961 2 1.0280043728970480e+00 -2.1663835816361797e+02 4.2000000000000000e+03 1.6360735826111629e+01 1.0547157524248421e+01 7.2197020501922111e+01 
1252 854 2 1.0279234795039549e+00 3.2784752183802871e+03 4.2000000000000000e+03 1.4536367520149938e+01 6.8378216033769883e+00 7.2322709901859227e+01 
1452 1054 2 1.0280023110559762e+00 4.4097944017514956e+03 4.2000000000000000e+03 1.9146753890887592e+01 1.2300572210866161e+01 7.2398480605729475e+01 
1734 1336 2 1.0280066928186875e+00 1.0939643286169941e+04 4.2000000000000000e+03 1.7151778430918068e+01 1.1900292771675167e+01 7.2430840521886424e+01 