LAMMPS data file via write_data, version 30 Jul 2016, timestep = 1000000

2080 atoms
8 atom types

0.0000000000000000e+00 4.0000000000000000e+01 xlo xhi
0.0000000000000000e+00 4.0000000000000000e+01 ylo yhi
0.0000000000000000e+00 1.0000000000000000e+02 zlo zhi

Masses

1 3.896
2 4.306
3 20.064
4 8.378
5 8.378
6 8.378
7 8.378
8 8.378

Atoms # meso-molecular

1 2 4 2.2559723595316457e+00 0.0000000000000000e+00 1.0000000000000000e+00 0.0000000000000000e+00 0.0000000000000000e+00 2.5000000000000000e+00 
2 2 4 2.2559723595316457e+00 0.0000000000000000e+00 1.0000000000000000e+00 0.0000000000000000e+00 2.0000000000000000e+00 2.5000000000000000e+00 
21 2 4 2.2559723595316457e+00 0.0000000000000000e+00 1.0000000000000000e+00 2.0000000000000000e+00 0.0000000000000000e+00 2.5000000000000000e+00 
22 2 4 2.2559723595316457e+00 0.0000000000000000e+00 1.0000000000000000e+00 2.0000000000000000e+00 2.0000000000000000e+00 2.5000000000000000e+00 
41 2 4 2.2559723595316457e+00 0.0000000000000000e+00 1.0000000000000000e+00 4.0000000000000000e+00 0.0000000000000000e+00 2.5000000000000000e+00 
42 2 4 2.2559723595316457e+00 0.0000000000000000e+00 1.0000000000000000e+00 4.0000000000000000e+00 2.0000000000000000e+00 2.5000000000000000e+00 
61 2 4 2.2559723595316457e+00 0.0000000000000000e+00 1.0000000000000000e+00 6.0000000000000000e+00 0.0000000000000000e+00 2.5000000000000000e+00 
62 2 4 2.2559723595316457e+00 0.0000000000000000e+00 1.0000000000000000e+00 6.0000000000000000e+00 2.0000000000000000e+00 2.5000000000000000e+00 
81 2 4 2.2559723595316457e+00 0.0000000000000000e+00 1.0000000000000000e+00 8.0000000000000000e+00 0.0000000000000000e+00 2.5000000000000000e+00 
82 2 4 2.2559723595316457e+00 0.0000000000000000e+00 1.0000000000000000e+00 8.0000000000000000e+00 2.0000000000000000e+00 2.5000000000000000e+00 
101 2 4 2.2559723595316457e+00 0.0000000000000000e+00 1.0000000000000000e+00 1.0000000000000000e+01 0.0000000000000000e+00 2.5000000000000000e+00 
102 2 4 2.2559723595316457e+00 0.0000000000000000e+00 1.0000000000000000e+00 1.0000000000000000e+01 2.0000000000000000e+00 2.5000000000000000e+00 
121 2 4 2.2559723595316457e+00 0.0000000000000000e+00 1.0000000000000000e+00 1.2000000000000000e+01 0.0000000000000000e+00 2.5000000000000000e+00 
122 2 4 2.2559723595316457e+00 0.0000000000000000e+00 1.0000000000000000e+00 1.2000000000000000e+01 2.0000000000000000e+00 2.5000000000000000e+00 
141 2 4 2.2559723595316457e+00 0.0000000000000000e+00 1.0000000000000000e+00 1.4000000000000000e+01 0.0000000000000000e+00 2.5000000000000000e+00 
142 2 4 2.2559723595316457e+00 0.0000000000000000e+00 1.0000000000000000e+00 1.4000000000000000e+01 2.0000000000000000e+00 2.5000000000000000e+00 
161 2 4 2.2559723595316457e+00 0.0000000000000000e+00 1.0000000000000000e+00 1.6000000000000000e+01 0.0000000000000000e+00 2.5000000000000000e+00 
162 2 4 2.2559723595316457e+00 0.0000000000000000e+00 1.0000000000000000e+00 1.6000000000000000e+01 2.0000000000000000e+00 2.5000000000000000e+00 
181 2 4 2.2559723595316457e+00 0.0000000000000000e+00 1.0000000000000000e+00 1.8000000000000000e+01 0.0000000000000000e+00 2.5000000000000000e+00 
182 2 4 2.2559723595316457e+00 0.0000000000000000e+00 1.0000000000000000e+00 1.8000000000000000e+01 2.0000000000000000e+00 2.5000000000000000e+00 
3 2 4 2.2559723595316457e+00 0.0000000000000000e+00 1.0000000000000000e+00 0.0000000000000000e+00 4.0000000000000000e+00 2.5000000000000000e+00 
4 2 4 2.2559723595316457e+00 0.0000000000000000e+00 1.0000000000000000e+00 0.0000000000000000e+00 6.0000000000000000e+00 2.5000000000000000e+00 
23 2 4 2.2559723595316457e+00 0.0000000000000000e+00 1.0000000000000000e+00 2.0000000000000000e+00 4.0000000000000000e+00 2.5000000000000000e+00 
24 2 4 2.2559723595316457e+00 0.0000000000000000e+00 1.0000000000000000e+00 2.0000000000000000e+00 6.0000000000000000e+00 2.5000000000000000e+00 
43 2 4 2.2559723595316457e+00 0.0000000000000000e+00 1.0000000000000000e+00 4.0000000000000000e+00 4.0000000000000000e+00 2.5000000000000000e+00 
44 2 4 2.2559723595316457e+00 0.0000000000000000e+00 1.0000000000000000e+00 4.0000000000000000e+00 6.0000000000000000e+00 2.5000000000000000e+00 
63 2 4 2.2559723595316457e+00 0.0000000000000000e+00 1.0000000000000000e+00 6.0000000000000000e+00 4.0000000000000000e+00 2.5000000000000000e+00 
64 2 4 2.2559723595316457e+00 0.0000000000000000e+00 1.0000000000000000e+00 6.0000000000000000e+00 6.0000000000000000e+00 2.5000000000000000e+00 
83 2 4 2.2559723595316457e+00 0.0000000000000000e+00 1.0000000000000000e+00 8.0000000000000000e+00 4.0000000000000000e+00 2.5000000000000000e+00 
84 2 4 2.2559723595316457e+00 0.0000000000000000e+00 1.0000000000000000e+00 8.0000000000000000e+00 6.0000000000000000e+00 2.5000000000000000e+00 
103 2 4 2.2559723595316457e+00 0.0000000000000000e+00 1.0000000000000000e+00 1.0000000000000000e+01 4.0000000000000000e+00 2.5000000000000000e+00 
104 2 4 2.2559723595316457e+00 0.0000000000000000e+00 1.0000000000000000e+00 1.0000000000000000e+01 6.0000000000000000e+00 2.5000000000000000e+00 
123 2 4 2.2559723595316457e+00 0.0000000000000000e+00 1.0000000000000000e+00 1.2000000000000000e+01 4.0000000000000000e+00 2.5000000000000000e+00 
124 2 4 2.2559723595316457e+00 0.0000000000000000e+00 1.0000000000000000e+00 1.2000000000000000e+01 6.0000000000000000e+00 2.5000000000000000e+00 
143 2 4 2.2559723595316457e+00 0.0000000000000000e+00 1.0000000000000000e+00 1.4000000000000000e+01 4.0000000000000000e+00 2.5000000000000000e+00 
144 2 4 2.2559723595316457e+00 0.0000000000000000e+00 1.0000000000000000e+00 1.4000000000000000e+01 6.0000000000000000e+00 2.5000000000000000e+00 
163 2 4 2.2559723595316457e+00 0.0000000000000000e+00 1.0000000000000000e+00 1.6000000000000000e+01 4.0000000000000000e+00 2.5000000000000000e+00 
164 2 4 2.2559723595316457e+00 0.0000000000000000e+00 1.0000000000000000e+00 1.6000000000000000e+01 6.0000000000000000e+00 2.5000000000000000e+00 
183 2 4 2.2559723595316457e+00 0.0000000000000000e+00 1.0000000000000000e+00 1.8000000000000000e+01 4.0000000000000000e+00 2.5000000000000000e+00 
184 2 4 2.2559723595316457e+00 0.0000000000000000e+00 1.0000000000000000e+00 1.8000000000000000e+01 6.0000000000000000e+00 2.5000000000000000e+00 
5 2 4 2.2559723595316457e+00 0.0000000000000000e+00 1.0000000000000000e+00 0.0000000000000000e+00 8.0000000000000000e+00 2.5000000000000000e+00 
25 2 4 2.2559723595316457e+00 0.0000000000000000e+00 1.0000000000000000e+00 2.0000000000000000e+00 8.0000000000000000e+00 2.5000000000000000e+00 
45 2 4 2.2559723595316457e+00 0.0000000000000000e+00 1.0000000000000000e+00 4.0000000000000000e+00 8.0000000000000000e+00 2.5000000000000000e+00 
65 2 4 2.2559723595316457e+00 0.0000000000000000e+00 1.0000000000000000e+00 6.0000000000000000e+00 8.0000000000000000e+00 2.5000000000000000e+00 
85 2 4 2.2559723595316457e+00 0.0000000000000000e+00 1.0000000000000000e+00 8.0000000000000000e+00 8.0000000000000000e+00 2.5000000000000000e+00 
105 2 4 2.2559723595316457e+00 0.0000000000000000e+00 1.0000000000000000e+00 1.0000000000000000e+01 8.0000000000000000e+00 2.5000000000000000e+00 
125 2 4 2.2559723595316457e+00 0.0000000000000000e+00 1.0000000000000000e+00 1.2000000000000000e+01 8.0000000000000000e+00 2.5000000000000000e+00 
145 2 4 2.2559723595316457e+00 0.0000000000000000e+00 1.0000000000000000e+00 1.4000000000000000e+01 8.0000000000000000e+00 2.5000000000000000e+00 
165 2 4 2.2559723595316457e+00 -1.8992642818344263e-01 1.0000000000000000e+00 1.6000000000000000e+01 8.0000000000000000e+00 2.5000000000000000e+00 
185 2 4 2.2559723595316457e+00 -2.3121770850361356e-01 1.0000000000000000e+00 1.8000000000000000e+01 8.0000000000000000e+00 2.5000000000000000e+00 
6 2 4 2.2559723595316457e+00 0.0000000000000000e+00 1.0000000000000000e+00 0.0000000000000000e+00 1.0000000000000000e+01 2.5000000000000000e+00 
7 2 4 2.2559723595316457e+00 0.0000000000000000e+00 1.0000000000000000e+00 0.0000000000000000e+00 1.2000000000000000e+01 2.5000000000000000e+00 
26 2 4 2.2559723595316457e+00 0.0000000000000000e+00 1.0000000000000000e+00 2.0000000000000000e+00 1.0000000000000000e+01 2.5000000000000000e+00 
27 2 4 2.2559723595316457e+00 0.0000000000000000e+00 1.0000000000000000e+00 2.0000000000000000e+00 1.2000000000000000e+01 2.5000000000000000e+00 
46 2 4 2.2559723595316457e+00 0.0000000000000000e+00 1.0000000000000000e+00 4.0000000000000000e+00 1.0000000000000000e+01 2.5000000000000000e+00 
47 2 4 2.2559723595316457e+00 0.0000000000000000e+00 1.0000000000000000e+00 4.0000000000000000e+00 1.2000000000000000e+01 2.5000000000000000e+00 
66 2 4 2.2559723595316457e+00 0.0000000000000000e+00 1.0000000000000000e+00 6.0000000000000000e+00 1.0000000000000000e+01 2.5000000000000000e+00 
67 2 4 2.2559723595316457e+00 0.0000000000000000e+00 1.0000000000000000e+00 6.0000000000000000e+00 1.2000000000000000e+01 2.5000000000000000e+00 
86 2 4 2.2559723595316457e+00 0.0000000000000000e+00 1.0000000000000000e+00 8.0000000000000000e+00 1.0000000000000000e+01 2.5000000000000000e+00 
87 2 4 2.2559723595316457e+00 0.0000000000000000e+00 1.0000000000000000e+00 8.0000000000000000e+00 1.2000000000000000e+01 2.5000000000000000e+00 
106 2 4 2.2559723595316457e+00 0.0000000000000000e+00 1.0000000000000000e+00 1.0000000000000000e+01 1.0000000000000000e+01 2.5000000000000000e+00 
107 2 4 2.2559723595316457e+00 0.0000000000000000e+00 1.0000000000000000e+00 1.0000000000000000e+01 1.2000000000000000e+01 2.5000000000000000e+00 
126 2 4 2.2559723595316457e+00 0.0000000000000000e+00 1.0000000000000000e+00 1.2000000000000000e+01 1.0000000000000000e+01 2.5000000000000000e+00 
127 2 4 2.2559723595316457e+00 0.0000000000000000e+00 1.0000000000000000e+00 1.2000000000000000e+01 1.2000000000000000e+01 2.5000000000000000e+00 
146 2 4 2.2559723595316457e+00 -1.8992625701748259e-01 1.0000000000000000e+00 1.4000000000000000e+01 1.0000000000000000e+01 2.5000000000000000e+00 
147 2 4 2.2559723595316457e+00 -2.3120024814106063e-01 1.0000000000000000e+00 1.4000000000000000e+01 1.2000000000000000e+01 2.5000000000000000e+00 
166 2 4 2.2559723595316457e+00 -5.6498406971442058e+01 1.0000000000000000e+00 1.6000000000000000e+01 1.0000000000000000e+01 2.5000000000000000e+00 
167 2 4 2.2559723595316457e+00 -6.5821543394083662e+01 1.0000000000000000e+00 1.6000000000000000e+01 1.2000000000000000e+01 2.5000000000000000e+00 
186 2 4 2.2559723595316457e+00 -6.5871653915121186e+01 1.0000000000000000e+00 1.8000000000000000e+01 1.0000000000000000e+01 2.5000000000000000e+00 
187 2 4 2.2559723595316457e+00 -7.1574468087344954e+01 1.0000000000000000e+00 1.8000000000000000e+01 1.2000000000000000e+01 2.5000000000000000e+00 
8 2 4 2.2559723595316457e+00 0.0000000000000000e+00 1.0000000000000000e+00 0.0000000000000000e+00 1.4000000000000000e+01 2.5000000000000000e+00 
9 2 4 2.2559723595316457e+00 0.0000000000000000e+00 1.0000000000000000e+00 0.0000000000000000e+00 1.6000000000000000e+01 2.5000000000000000e+00 
28 2 4 2.2559723595316457e+00 0.0000000000000000e+00 1.0000000000000000e+00 2.0000000000000000e+00 1.4000000000000000e+01 2.5000000000000000e+00 
29 2 4 2.2559723595316457e+00 0.0000000000000000e+00 1.0000000000000000e+00 2.0000000000000000e+00 1.6000000000000000e+01 2.5000000000000000e+00 
48 2 4 2.2559723595316457e+00 0.0000000000000000e+00 1.0000000000000000e+00 4.0000000000000000e+00 1.4000000000000000e+01 2.5000000000000000e+00 
49 2 4 2.2559723595316457e+00 0.0000000000000000e+00 1.0000000000000000e+00 4.0000000000000000e+00 1.6000000000000000e+01 2.5000000000000000e+00 
68 2 4 2.2559723595316457e+00 0.0000000000000000e+00 1.0000000000000000e+00 6.0000000000000000e+00 1.4000000000000000e+01 2.5000000000000000e+00 
69 2 4 2.2559723595316457e+00 0.0000000000000000e+00 1.0000000000000000e+00 6.0000000000000000e+00 1.6000000000000000e+01 2.5000000000000000e+00 
88 2 4 2.2559723595316457e+00 0.0000000000000000e+00 1.0000000000000000e+00 8.0000000000000000e+00 1.4000000000000000e+01 2.5000000000000000e+00 
89 2 4 2.2559723595316457e+00 0.0000000000000000e+00 1.0000000000000000e+00 8.0000000000000000e+00 1.6000000000000000e+01 2.5000000000000000e+00 
108 2 4 2.2559723595316457e+00 0.0000000000000000e+00 1.0000000000000000e+00 1.0000000000000000e+01 1.4000000000000000e+01 2.5000000000000000e+00 
109 2 4 2.2559723595316457e+00 0.0000000000000000e+00 1.0000000000000000e+00 1.0000000000000000e+01 1.6000000000000000e+01 2.5000000000000000e+00 
128 2 4 2.2559723595316457e+00 0.0000000000000000e+00 1.0000000000000000e+00 1.2000000000000000e+01 1.4000000000000000e+01 2.5000000000000000e+00 
129 2 4 2.2559723595316457e+00 0.0000000000000000e+00 1.0000000000000000e+00 1.2000000000000000e+01 1.6000000000000000e+01 2.5000000000000000e+00 
148 2 4 2.2559723595316457e+00 -2.3139153547216304e-01 1.0000000000000000e+00 1.4000000000000000e+01 1.4000000000000000e+01 2.5000000000000000e+00 
149 2 4 2.2559723595316457e+00 -2.3137788450741292e-01 1.0000000000000000e+00 1.4000000000000000e+01 1.6000000000000000e+01 2.5000000000000000e+00 
168 2 4 2.2559723595316457e+00 -6.5373067635981982e+01 1.0000000000000000e+00 1.6000000000000000e+01 1.4000000000000000e+01 2.5000000000000000e+00 
169 2 4 2.2559723595316457e+00 -6.5324276681453398e+01 1.0000000000000000e+00 1.6000000000000000e+01 1.6000000000000000e+01 2.5000000000000000e+00 
188 2 4 2.2559723595316457e+00 -7.1302949268809385e+01 1.0000000000000000e+00 1.8000000000000000e+01 1.4000000000000000e+01 2.5000000000000000e+00 
189 2 4 2.2559723595316457e+00 -7.1272975089897173e+01 1.0000000000000000e+00 1.8000000000000000e+01 1.6000000000000000e+01 2.5000000000000000e+00 
10 2 4 2.2559723595316457e+00 0.0000000000000000e+00 1.0000000000000000e+00 0.0000000000000000e+00 1.8000000000000000e+01 2.5000000000000000e+00 
30 2 4 2.2559723595316457e+00 0.0000000000000000e+00 1.0000000000000000e+00 2.0000000000000000e+00 1.8000000000000000e+01 2.5000000000000000e+00 
50 2 4 2.2559723595316457e+00 0.0000000000000000e+00 1.0000000000000000e+00 4.0000000000000000e+00 1.8000000000000000e+01 2.5000000000000000e+00 
70 2 4 2.2559723595316457e+00 0.0000000000000000e+00 1.0000000000000000e+00 6.0000000000000000e+00 1.8000000000000000e+01 2.5000000000000000e+00 
90 2 4 2.2559723595316457e+00 0.0000000000000000e+00 1.0000000000000000e+00 8.0000000000000000e+00 1.8000000000000000e+01 2.5000000000000000e+00 
110 2 4 2.2559723595316457e+00 0.0000000000000000e+00 1.0000000000000000e+00 1.0000000000000000e+01 1.8000000000000000e+01 2.5000000000000000e+00 
130 2 4 2.2559723595316457e+00 0.0000000000000000e+00 1.0000000000000000e+00 1.2000000000000000e+01 1.8000000000000000e+01 2.5000000000000000e+00 
150 2 4 2.2559723595316457e+00 -2.3139180992738126e-01 1.0000000000000000e+00 1.4000000000000000e+01 1.8000000000000000e+01 2.5000000000000000e+00 
170 2 4 2.2559723595316457e+00 -6.5352556034749512e+01 1.0000000000000000e+00 1.6000000000000000e+01 1.8000000000000000e+01 2.5000000000000000e+00 
190 2 4 2.2559723595316457e+00 -7.1431820088547980e+01 1.0000000000000000e+00 1.8000000000000000e+01 1.8000000000000000e+01 2.5000000000000000e+00 
1886 1488 2 1.0280000000000014e+00 -1.4341068285256576e+03 1.0000000000000000e+00 1.8849647409355789e+01 7.2712604767709479e-02 2.9133699034494587e+01 
1887 1489 2 1.0280000000000002e+00 -1.4341066375106034e+03 1.0000000000000000e+00 1.8823676708637798e+01 7.2532726546749957e-02 2.9134113793671016e+01 
510 112 2 1.0279999999999996e+00 -4.9293857688613957e+02 1.0000000000000000e+00 1.8946310344498006e+01 6.9944172466869584e-02 2.9146064209387497e+01 
511 113 2 1.0280000000000011e+00 -4.9294027907360118e+02 1.0000000000000000e+00 1.8727328416203587e+01 6.8330896229422761e-02 2.9149444395594134e+01 
1795 1397 2 1.0280000000000002e+00 -7.6032596735647348e+03 1.0000000000000000e+00 1.9075742103662627e+01 9.2528078852934195e-02 2.9314084268633302e+01 
1794 1396 2 1.0280000000000000e+00 -7.6032497957144296e+03 1.0000000000000000e+00 1.8605484150896466e+01 8.9881848630780276e-02 2.9319572745550541e+01 
1095 697 2 1.0279999002607974e+00 -8.9380741842405214e+01 1.0000000000000000e+00 1.5705386518287412e+01 1.9125072687771874e-01 4.1816266569811582e+01 
1178 780 2 1.0279997252260853e+00 -1.1821826787584682e+03 1.0000000000000000e+00 1.6390983122596165e+01 2.1471116061941003e-02 4.1753740644588291e+01 
1018 620 2 1.0279998798321743e+00 -5.7066515345326377e+02 1.0000000000000000e+00 1.5920894778522609e+01 2.5188918744457778e-01 4.1869242883142824e+01 
1877 1479 2 1.0279998873686507e+00 -5.1186399085041430e+03 1.0000000000000000e+00 1.5955544191826254e+01 2.8088324709501711e-01 4.1904357593373931e+01 
2035 1637 2 1.0280001418555720e+00 2.6743258978702479e+03 1.0000000000000000e+00 1.4830137581207962e+01 1.6403504648166678e-01 4.2218998381252192e+01 
1373 975 2 1.0279998929159311e+00 -9.1617775932146251e+03 1.0000000000000000e+00 1.6129299633487886e+01 3.4627613459944312e-01 4.2009303265574800e+01 
1835 1437 2 1.0280001168765560e+00 -2.2923319515086555e+03 1.0000000000000000e+00 1.5574438096251740e+01 5.0282414720031676e-01 4.2308277002979850e+01 
682 284 2 1.0280002754568496e+00 -6.6622699565961029e+03 1.0000000000000000e+00 1.4098861359358171e+01 2.5089305170328857e-01 4.3218251880510806e+01 
1811 1413 2 1.0280003322237110e+00 -5.7392085910044316e+03 1.0000000000000000e+00 1.3861365189704378e+01 5.7536199734582807e-02 4.3328648113325009e+01 
1510 1112 2 1.0279996871835915e+00 1.5716697945141516e+03 1.0000000000000000e+00 1.6676227056100270e+01 1.0596483633276080e-01 4.1962638705165652e+01 
1401 1003 2 1.0279999195083094e+00 -3.7041380823229770e+03 1.0000000000000000e+00 1.6714633732980001e+01 4.8705988175174686e-01 4.2479444393225762e+01 
979 581 2 1.0279997450302498e+00 -1.7507006686422251e+03 1.0000000000000000e+00 1.9635560830525446e+01 7.8380134115410738e-01 4.2924618583213707e+01 
978 580 2 1.0279997417019231e+00 -1.7506843294164016e+03 1.0000000000000000e+00 1.8268282383854963e+01 7.9258310804061971e-01 4.2940565162733613e+01 
1804 1406 2 1.0280000596275944e+00 -2.0070675907887510e+03 1.0000000000000000e+00 1.5748947462857885e+01 5.8232114716121286e+00 4.2925846997310096e+01 
1978 1580 2 1.0280002520202620e+00 2.7981786706528596e+03 1.0000000000000000e+00 1.6472800790668568e+01 5.9007158161759916e+00 4.2570149051606066e+01 
1096 698 2 1.0279999565545102e+00 -3.2552635855931244e+03 1.0000000000000000e+00 1.5496747321044419e+01 5.5725134099276268e+00 4.3187538021091861e+01 
1220 822 2 1.0280003637342496e+00 -4.2742978264372714e+03 1.0000000000000000e+00 1.8108730956237210e+01 5.6562013365077810e+00 4.2404543257595968e+01 
1217 819 2 1.0280003595753051e+00 -4.2743358928694597e+03 1.0000000000000000e+00 1.9857191893094424e+01 5.6793584494557399e+00 4.2377483657761800e+01 
1839 1441 2 1.0280003753028557e+00 -2.6743637893398286e+03 1.0000000000000000e+00 1.7759905895665547e+01 5.7598321460159658e+00 4.2390004048758101e+01 
915 517 2 1.0280000516222272e+00 6.7124083817688586e+02 1.0000000000000000e+00 1.8829668297024661e+01 5.1882097890631433e+00 4.2635139621812058e+01 
914 516 2 1.0280000561913423e+00 6.7126327251260329e+02 1.0000000000000000e+00 1.9116996618601000e+01 5.1920387360346272e+00 4.2629200067068851e+01 
694 296 2 1.0279999738828085e+00 -1.3545209951984441e+03 1.0000000000000000e+00 1.8966012090570242e+01 5.1348772144895491e+00 4.2679777777101862e+01 
695 297 2 1.0279999739577625e+00 -1.3545214222811649e+03 1.0000000000000000e+00 1.8976498415820853e+01 5.1349335974045465e+00 4.2679626833985353e+01 
1917 1519 2 1.0280002876908052e+00 -7.9644395041089556e+03 1.0000000000000000e+00 1.8015218168909129e+01 6.1551222521133235e+00 4.2353196266068664e+01 
1920 1522 2 1.0280002717328733e+00 -7.9644497960754197e+03 1.0000000000000000e+00 1.9957284620329983e+01 6.1830776756962562e+00 4.2333561150426817e+01 
632 234 2 1.0279997079916283e+00 -9.6427428945940744e+02 1.0000000000000000e+00 1.9869121285585951e+01 4.9218320391167465e+00 4.3070892431211377e+01 
629 231 2 1.0279996727779317e+00 -9.6428936733006367e+02 1.0000000000000000e+00 1.8072441122358612e+01 4.9116021928925271e+00 4.3117341605825246e+01 
1566 1168 2 1.0280000178521513e+00 4.6798831481278976e+03 1.0000000000000000e+00 1.6459117142884832e+01 6.9821377383319128e+00 4.2710798408041093e+01 
1099 701 2 1.0280001898214306e+00 1.8458478414413603e+03 1.0000000000000000e+00 1.4167290875717912e+01 3.8476051696156938e-01 4.3358064452877279e+01 
1101 703 2 1.0280001115823283e+00 -5.8644153942044413e+03 1.0000000000000000e+00 1.3722635439215905e+01 2.7130905117548992e-01 4.3928004890515460e+01 
1773 1375 2 1.0279987682856804e+00 2.0058556112980345e+03 1.0000000000000000e+00 1.3734728685497281e+01 5.9850929502581784e-01 4.4893848326838068e+01 
1447 1049 2 1.0279992967277771e+00 1.1401133092518481e+02 1.0000000000000000e+00 1.3636215162020862e+01 4.7089364078036183e-01 4.4820892630191089e+01 
1878 1480 2 1.0279992959374129e+00 -4.5547348453330005e+03 1.0000000000000000e+00 1.3622889528838662e+01 4.5742186259711498e-01 4.4883736172699059e+01 
676 278 2 1.0279991476615797e+00 -1.5311501619563098e+03 1.0000000000000000e+00 1.3650877546520368e+01 4.9685781446921845e-01 4.4911864710203453e+01 
1490 1092 2 1.0279993372549177e+00 -9.0740408288593585e+02 1.0000000000000000e+00 1.3633919226693795e+01 3.9146633592630758e-01 4.5348255109363713e+01 
1807 1409 2 1.0279999530971267e+00 -6.8756768693782578e+03 1.0000000000000000e+00 1.4613506338223747e+01 2.9198787439249583e+00 4.5875184858753045e+01 
1174 776 2 1.0279996125462683e+00 -2.2131028337996040e+03 1.0000000000000000e+00 1.3678014985142095e+01 3.1013412759738568e-01 4.5597361670050645e+01 
505 107 2 1.0280001605137401e+00 1.9264931437744206e+03 1.0000000000000000e+00 1.4330399492754690e+01 4.2342666325379280e-01 4.6398954079644994e+01 
1122 724 2 1.0280006633857925e+00 -1.7394376432050358e+03 1.0000000000000000e+00 1.7546493723407853e+01 7.9075645770451009e-01 4.3393689819003860e+01 
1245 847 2 1.0280004693408082e+00 -2.2355974657054009e+02 1.0000000000000000e+00 1.7805671722325854e+01 1.0687029187758164e+00 4.3638519406082139e+01 
1318 920 2 1.0279987805128836e+00 -1.5307051986854071e+03 1.0000000000000000e+00 1.8982162688925872e+01 1.7853827462708241e+00 4.4171421830074287e+01 
1319 921 2 1.0279987787926435e+00 -1.5307307734407916e+03 1.0000000000000000e+00 1.8947323033772882e+01 1.7857578740950988e+00 4.4172334867861402e+01 
928 530 2 1.0279988518529983e+00 -1.9550770669416841e+03 1.0000000000000000e+00 1.8856869315356064e+01 1.7776364791091044e+00 4.4198990179913935e+01 
925 527 2 1.0279988657964312e+00 -1.9551303649316656e+03 1.0000000000000000e+00 1.9072801857536604e+01 1.7748955485311626e+00 4.4197323916548136e+01 
1539 1141 2 1.0279993251233841e+00 -1.6473260189279697e+03 1.0000000000000000e+00 1.8852063326362394e+01 1.7201094402364336e+00 4.4516664299521544e+01 
1538 1140 2 1.0279993463274699e+00 -1.6473312822470282e+03 1.0000000000000000e+00 1.9076779195931771e+01 1.7161806653036249e+00 4.4519884263943744e+01 
1130 732 2 1.0280001698212569e+00 -2.4245559013942684e+03 1.0000000000000000e+00 1.9229760966373366e+01 4.0381195235628353e-01 4.4715554498882739e+01 
1131 733 2 1.0280001741700253e+00 -2.4245460449487100e+03 1.0000000000000000e+00 1.8702027903981612e+01 4.0537801099096782e-01 4.4717664839112210e+01 
1963 1565 2 1.0280010409276414e+00 4.6122123288743223e+03 1.0000000000000000e+00 1.9313553331545318e+01 5.7063514768774104e-01 4.4821993444428117e+01 
1962 1564 2 1.0280010278953671e+00 4.6122356282036444e+03 1.0000000000000000e+00 1.8621797860202758e+01 5.7072623189847405e-01 4.4824655547910602e+01 
1117 719 2 1.0280011944370637e+00 -7.5690355111720119e+03 1.0000000000000000e+00 1.3250925791046042e+01 4.7963278464092998e+00 4.6188916097769066e+01 
1845 1447 2 1.0279997882022702e+00 -6.0066897490429164e+02 1.0000000000000000e+00 1.5278165102040360e+01 6.0295930371883548e+00 4.3343326448809854e+01 
610 212 2 1.0279971615291528e+00 -2.4890958935003988e+02 1.0000000000000000e+00 1.3636271203132809e+01 3.3421207458586371e+00 4.5471022293987389e+01 
1504 1106 2 1.0279996907531568e+00 -1.1428207707716215e+03 1.0000000000000000e+00 1.5165399718043757e+01 5.4841491038871881e+00 4.3517094047721315e+01 
1147 749 2 1.0279994895795657e+00 -1.8314408029687690e+03 1.0000000000000000e+00 1.4949889270487416e+01 5.2583603258882778e+00 4.3848477683112328e+01 
1734 1336 2 1.0279995836523459e+00 1.7315315336800272e+03 1.0000000000000000e+00 1.4746825882375939e+01 5.1107405257322132e+00 4.4148946111061917e+01 
434 36 2 1.0280004556971409e+00 4.7627305065730216e+03 1.0000000000000000e+00 1.4471082522792123e+01 4.7583259023020696e+00 4.4495338077678468e+01 
735 337 2 1.0280003112561877e+00 2.6174762817468732e+01 1.0000000000000000e+00 1.4597788851735395e+01 4.5335445946106967e+00 4.4526731303035120e+01 
1530 1132 2 1.0279982801958623e+00 -2.6051724189796064e+03 1.0000000000000000e+00 1.3731266747279790e+01 3.5733236328547013e+00 4.5272042115121863e+01 
1475 1077 2 1.0279991077633464e+00 1.5011515507586150e+03 1.0000000000000000e+00 1.3810496607028110e+01 3.7828211219235452e+00 4.5132792816405555e+01 
1167 769 2 1.0280006832523996e+00 -2.1489960497266652e+03 1.0000000000000000e+00 1.4243265981987088e+01 4.4920889230209644e+00 4.4698158811948353e+01 
1186 788 2 1.0280007664329527e+00 -1.3899882654349624e+03 1.0000000000000000e+00 1.4226542975844961e+01 4.5230195306386287e+00 4.4704385352994777e+01 
1611 1213 2 1.0280008384980199e+00 7.8510572895259356e+03 1.0000000000000000e+00 1.4282283477025839e+01 4.6350845478482228e+00 4.4655429551986053e+01 
527 129 2 1.0280004098288982e+00 3.2907345534510114e+03 1.0000000000000000e+00 1.7048992712083042e+01 4.9554518604180133e+00 4.3973398381387305e+01 
1994 1596 2 1.0279952267308581e+00 7.9204182873782213e+02 1.0000000000000000e+00 1.8986049444374910e+01 5.8371948200400103e+00 4.5679067843411246e+01 
1995 1597 2 1.0279952414145954e+00 7.9203783477789409e+02 1.0000000000000000e+00 1.8998862490739043e+01 5.8368152727416671e+00 4.5678947514866294e+01 
1306 908 2 1.0280037855840483e+00 -2.8800523392038112e+03 1.0000000000000000e+00 1.7688074837952531e+01 5.4141961207716331e+00 4.6106518916532096e+01 
1047 649 2 1.0280000090019092e+00 8.3959322946399516e+02 1.0000000000000000e+00 1.9708899559244177e+01 5.6013416374997629e+00 4.5218006952597186e+01 
1046 648 2 1.0279998901394392e+00 8.3955598144881139e+02 1.0000000000000000e+00 1.8287895888417516e+01 5.6255483529226282e+00 4.5260876114162528e+01 
609 211 2 1.0280030192117955e+00 -1.3801483622667872e+03 1.0000000000000000e+00 1.8404038410085263e+01 5.2078985237167688e+00 4.6281331282242142e+01 
612 214 2 1.0280030306491152e+00 -1.3801218849171948e+03 1.0000000000000000e+00 1.9608233727740338e+01 5.1395201352362472e+00 4.6295831856190858e+01 
1107 709 2 1.0279995887667108e+00 -1.6205661324419189e+03 1.0000000000000000e+00 1.6456927101310985e+01 7.7486857829840927e+00 4.3352560920649701e+01 
1226 828 2 1.0279995298147884e+00 6.7354041674908485e+03 1.0000000000000000e+00 1.6059549108141123e+01 7.5158875128724567e+00 4.3424975787071432e+01 
1991 1593 2 1.0279993887672791e+00 9.4620612127327001e+02 1.0000000000000000e+00 1.6115279111160270e+01 7.6407532211404492e+00 4.3536418571473817e+01 
1836 1438 2 1.0279991915071001e+00 1.3673008522639980e+03 1.0000000000000000e+00 1.6024549617476101e+01 7.6460400161952160e+00 4.3721263385123265e+01 
675 277 2 1.0279991678605478e+00 -5.0779825191602986e+03 1.0000000000000000e+00 1.6599142264929590e+01 8.1271499919918266e+00 4.3757075864237187e+01 
1417 1019 2 1.0279988197091818e+00 4.9950518054693730e+03 1.0000000000000000e+00 1.6383923211646696e+01 8.9983205009502090e+00 4.4685540506974547e+01 
419 21 2 1.0279994334074742e+00 3.0015330914207921e+03 1.0000000000000000e+00 1.6433615449773235e+01 9.4104122507484238e+00 4.4893923777770929e+01 
1078 680 2 1.0279994757648647e+00 -1.9141889896678387e+02 1.0000000000000000e+00 1.4781117651519207e+01 9.9028763918736562e+00 4.6554864777410316e+01 
1728 1330 2 1.0279997051542464e+00 3.8359838364291600e+03 1.0000000000000000e+00 1.5506857974694233e+01 9.7160666637001167e+00 4.5865327083745946e+01 
834 436 2 1.0279998404584514e+00 4.7401375976307518e+03 1.0000000000000000e+00 1.5382176556326046e+01 9.9556911026170685e+00 4.6077176287052410e+01 
480 82 2 1.0279995044147827e+00 4.7606531199972724e+03 1.0000000000000000e+00 1.6948103440727373e+01 8.1534547690662862e+00 4.3662603917648561e+01 
2076 1678 2 1.0279996195248933e+00 1.8520355417979506e+03 1.0000000000000000e+00 1.7344019117266733e+01 8.4307227954279398e+00 4.3953728461829350e+01 
1586 1188 2 1.0279995295203717e+00 -7.5081076320106388e+02 1.0000000000000000e+00 1.7230005092764834e+01 8.6633234431017048e+00 4.4152720794252858e+01 
1846 1448 2 1.0280006188533430e+00 -5.4070540395174039e+03 1.0000000000000000e+00 1.8982743794962694e+01 8.7242140226015721e+00 4.4399585142042433e+01 
1847 1449 2 1.0280006206989134e+00 -5.4070235453210871e+03 1.0000000000000000e+00 1.8995098753502294e+01 8.7261605823246047e+00 4.4400539818793334e+01 
601 203 2 1.0280104871771558e+00 -4.5327157942584799e+03 1.0000000000000000e+00 1.9540806163113317e+01 7.8800305674690536e+00 4.6439465503881443e+01 
604 206 2 1.0280088076626737e+00 -4.5327835673771961e+03 1.0000000000000000e+00 1.8405428652427453e+01 7.8584956348029600e+00 4.6442964349193815e+01 
1380 982 2 1.0279998844228027e+00 -4.8150814108341865e+03 1.0000000000000000e+00 1.5372839048982353e+01 1.0028084615472604e+01 4.6120535103211623e+01 
1588 1190 2 1.0279997863358554e+00 7.7110292047049261e+03 1.0000000000000000e+00 1.5126710429165374e+01 1.0173509212613208e+01 4.6379480336832678e+01 
725 327 2 1.0279995816658130e+00 -2.4505186419506931e+03 1.0000000000000000e+00 1.7872874920466796e+01 1.0069098657942995e+01 4.5231212346410580e+01 
1454 1056 2 1.0280001124052909e+00 -2.1243894424846858e+03 1.0000000000000000e+00 1.7120208148075996e+01 1.0568530277944244e+01 4.5737093142898971e+01 
1001 603 2 1.0279977727359400e+00 1.8669810382328585e+03 1.0000000000000000e+00 1.8573159959767807e+01 1.0332149783129507e+01 4.5473674681385326e+01 