LAMMPS data file via write_data, version 30 Jul 2016, timestep = 50000000

180 atoms
2 atom types

0.0000000000000000e+00 2.0000000000000000e+01 xlo xhi
0.0000000000000000e+00 2.0000000000000000e+01 ylo yhi
0.0000000000000000e+00 2.0000000000000000e+01 zlo zhi

Masses

1 3.896
2 4.31

Atoms # meso-molecular

16 1 2 1.0281325457436095e+00 -3.0007274107380033e+02 1.0000000000000000e+00 1.2968127627797932e-01 1.4005430388916279e+01 1.5104687498002495e+01 
65 1 2 1.0281325457436092e+00 -4.7037831459896245e+02 1.0000000000000000e+00 1.2968127627792958e-01 1.4005430388916308e+01 1.5104687498002484e+01 
97 1 2 1.0281325457436112e+00 -5.0140795355245217e+02 1.0000000000000000e+00 1.2968127631879969e-01 1.4005430388903319e+01 1.5104687498006960e+01 
176 1 2 1.0281325457435841e+00 -6.0139312914354127e+02 1.0000000000000000e+00 1.2968128043573854e-01 1.4005430387604063e+01 1.5104687498452753e+01 
133 1 2 1.0281325457435671e+00 -5.1593704662194330e+02 1.0000000000000000e+00 1.2968128207599922e-01 1.4005430387089644e+01 1.5104687498627607e+01 
53 1 2 1.0281325457436097e+00 -3.9331380051858309e+02 1.0000000000000000e+00 1.2968127627801460e-01 1.4005430388916386e+01 1.5104687498002395e+01 
22 1 2 1.0281325457436090e+00 -4.7317040215010815e+02 1.0000000000000000e+00 1.2968127627788018e-01 1.4005430388916377e+01 1.5104687498002432e+01 
34 1 2 1.0281325457436237e+00 -4.3230160451460364e+02 1.0000000000000000e+00 1.2968127622597783e-01 1.4005430388932140e+01 1.5104687497997185e+01 
60 1 2 1.0281325457436090e+00 -4.3484572488321061e+02 1.0000000000000000e+00 1.2968127627788018e-01 1.4005430388916377e+01 1.5104687498002432e+01 
95 1 2 1.0281325457436092e+00 -3.8532062535156064e+02 1.0000000000000000e+00 1.2968127627798337e-01 1.4005430388916325e+01 1.5104687498002459e+01 
52 1 2 1.0281325457436092e+00 -3.4977750607489867e+02 1.0000000000000000e+00 1.2968127627800588e-01 1.4005430388916421e+01 1.5104687498002368e+01 
72 1 2 1.0281325457436092e+00 -4.2887579182670055e+02 1.0000000000000000e+00 1.2968127627795845e-01 1.4005430388916359e+01 1.5104687498002432e+01 
27 1 2 1.0281325457436163e+00 -6.0327694959924906e+02 1.0000000000000000e+00 1.2968127620164993e-01 1.4005430388938992e+01 1.5104687497995362e+01 
102 1 2 1.0281325457436090e+00 -4.1131023448688148e+02 1.0000000000000000e+00 1.2968127627789480e-01 1.4005430388916253e+01 1.5104687498002539e+01 
24 1 2 1.0281325457436090e+00 -5.2780336782307620e+02 1.0000000000000000e+00 1.2968127627796525e-01 1.4005430388916260e+01 1.5104687498002521e+01 
171 1 2 1.0281325457436041e+00 -5.5597598019853297e+02 1.0000000000000000e+00 1.2968127628921650e-01 1.4005430388912705e+01 1.5104687498003798e+01 
17 1 2 1.0281325457436095e+00 -4.5642481304984352e+02 1.0000000000000000e+00 1.2968127627790207e-01 1.4005430388916245e+01 1.5104687498002539e+01 
30 1 2 1.0281325457436092e+00 -5.8854668723654231e+02 1.0000000000000000e+00 1.2968127627798881e-01 1.4005430388916288e+01 1.5104687498002491e+01 
93 1 2 1.0281325457436099e+00 -4.3404214985089692e+02 1.0000000000000000e+00 1.2968127627719248e-01 1.4005430388916542e+01 1.5104687498002393e+01 
107 1 2 1.0281325457436099e+00 -4.1664501194142122e+02 1.0000000000000000e+00 1.2968127627802775e-01 1.4005430388916404e+01 1.5104687498002374e+01 
103 1 2 1.0281325457436155e+00 -4.2427823020034572e+02 1.0000000000000000e+00 1.2968127627184933e-01 1.4005430388918397e+01 1.5104687498001603e+01 
36 1 2 1.0281325457436099e+00 -4.2260570018668653e+02 1.0000000000000000e+00 1.2968127627797629e-01 1.4005430388916272e+01 1.5104687498002498e+01 
66 1 2 1.0281325457436103e+00 -4.2734307278651630e+02 1.0000000000000000e+00 1.2968127627798468e-01 1.4005430388916364e+01 1.5104687498002409e+01 
58 1 2 1.0281325457436099e+00 -3.9035993449495294e+02 1.0000000000000000e+00 1.2968127627788115e-01 1.4005430388916414e+01 1.5104687498002390e+01 
101 1 2 1.0281325457436090e+00 -3.7902094461564133e+02 1.0000000000000000e+00 1.2968127627795487e-01 1.4005430388916382e+01 1.5104687498002415e+01 
139 1 2 1.0281325457436208e+00 -5.1746526740094669e+02 1.0000000000000000e+00 1.2968127497065737e-01 1.4005430389327483e+01 1.5104687497862107e+01 
35 1 2 1.0281325457436086e+00 -4.5517536158114768e+02 1.0000000000000000e+00 1.2968127627804094e-01 1.4005430388916363e+01 1.5104687498002423e+01 
71 1 2 1.0281325457436092e+00 -4.2233258393340321e+02 1.0000000000000000e+00 1.2968127627786932e-01 1.4005430388916331e+01 1.5104687498002471e+01 
18 1 2 1.0281325457436099e+00 -6.3382473916409538e+02 1.0000000000000000e+00 1.2968127627789233e-01 1.4005430388916402e+01 1.5104687498002399e+01 
29 1 2 1.0281325457436090e+00 -5.3085810205757355e+02 1.0000000000000000e+00 1.2968127627794734e-01 1.4005430388916432e+01 1.5104687498002372e+01 
28 1 2 1.0281325457436101e+00 -6.1704676044805387e+02 1.0000000000000000e+00 1.2968127627797943e-01 1.4005430388916407e+01 1.5104687498002376e+01 
106 1 2 1.0281325457436135e+00 -4.1221850549987067e+02 1.0000000000000000e+00 1.2968127627015971e-01 1.4005430388918729e+01 1.5104687498001621e+01 
23 1 2 1.0281325457436088e+00 -4.7626346902804465e+02 1.0000000000000000e+00 1.2968127627794326e-01 1.4005430388916249e+01 1.5104687498002535e+01 
59 1 2 1.0281325457436095e+00 -4.5851612171834068e+02 1.0000000000000000e+00 1.2968127627797957e-01 1.4005430388916325e+01 1.5104687498002455e+01 
84 1 2 1.0278257119614111e+00 -5.0652765982656257e+02 1.0000000000000000e+00 1.3099324053903565e+01 1.3422092586697270e+01 4.5363455191914319e+00 
54 1 2 1.0278264625624980e+00 -3.8579228494696218e+02 1.0000000000000000e+00 1.3195801483814158e+01 1.3423408622326102e+01 4.6066117786411436e+00 
4 1 2 1.0278264937703276e+00 -6.0473696196824278e+02 1.0000000000000000e+00 1.3196493453571392e+01 1.3423900977576524e+01 4.6073716516751100e+00 
48 1 2 1.0278264954265812e+00 -4.8732950092610980e+02 1.0000000000000000e+00 1.3197906264376437e+01 1.3422261262877127e+01 4.6070298799194136e+00 
12 1 2 1.0278264969666240e+00 -5.3905895467178095e+02 1.0000000000000000e+00 1.3198103978523154e+01 1.3422065873706723e+01 4.6070057848195667e+00 
78 1 2 1.0278265567982208e+00 -4.7005900164419842e+02 1.0000000000000000e+00 1.3198619569015115e+01 1.3424060772009440e+01 4.6087325114228461e+00 
40 1 2 1.0278265858282416e+00 -4.3402893144470727e+02 1.0000000000000000e+00 1.3200315344354150e+01 1.3423244784334724e+01 4.6091391798769985e+00 
89 1 2 1.0278266265180218e+00 -4.3263181958518243e+02 1.0000000000000000e+00 1.3200674537420793e+01 1.3424615274224939e+01 4.6103211978884291e+00 
83 1 2 1.0278266287236504e+00 -4.7632029595430475e+02 1.0000000000000000e+00 1.3200818462862097e+01 1.3424539087206243e+01 4.6103505297286915e+00 
150 1 2 1.0278266284685982e+00 -6.5060741496793946e+02 1.0000000000000000e+00 1.3201976467544304e+01 1.3423085727173744e+01 4.6099875365443648e+00 
11 1 2 1.0278266144879191e+00 -5.3828005576724058e+02 1.0000000000000000e+00 1.3202638448037332e+01 1.3421562172509137e+01 4.6092820308142883e+00 
10 1 2 1.0278266140666454e+00 -4.1056276193344286e+02 1.0000000000000000e+00 1.3202650703141003e+01 1.3421524779583635e+01 4.6092623378129920e+00 
47 1 2 1.0278266162082439e+00 -5.0242926347857303e+02 1.0000000000000000e+00 1.3202700612685209e+01 1.3421563679288813e+01 4.6093189483114916e+00 
5 1 2 1.0278266468267498e+00 -5.1494604234753012e+02 1.0000000000000000e+00 1.3203193407727527e+01 1.3422440781748271e+01 4.6102290052726476e+00 
77 1 2 1.0278266648254224e+00 -5.2991977311544508e+02 1.0000000000000000e+00 1.3203143378979286e+01 1.3423419173750942e+01 4.6108963813283523e+00 
42 1 2 1.0278266556344238e+00 -4.8952941806911969e+02 1.0000000000000000e+00 1.3204239996609022e+01 1.3421574902364236e+01 4.6102117004083434e+00 
46 1 2 1.0278266593473868e+00 -3.9623368448816404e+02 1.0000000000000000e+00 1.3204396287765155e+01 1.3421577394094955e+01 4.6103030095334452e+00 
41 1 2 1.0278266629153168e+00 -5.2097802784049622e+02 1.0000000000000000e+00 1.3204480855319042e+01 1.3421664787431514e+01 4.6104138478680712e+00 
6 1 2 1.0278266631341979e+00 -6.3872464693690051e+02 1.0000000000000000e+00 1.3204492862970127e+01 1.3421661722367400e+01 4.6104185323296187e+00 
113 1 2 1.0278267569285249e+00 -5.7138854019066639e+02 1.0000000000000000e+00 1.3215414611291617e+01 1.3414809519355083e+01 4.6116282719005390e+00 
96 1 2 1.0278279677404614e+00 -3.5393337781582210e+02 1.0000000000000000e+00 1.3226316547857266e+01 1.3368811623076953e+01 4.5813671726543159e+00 
119 1 2 1.0281739986340594e+00 -6.2068939300473255e+02 1.0000000000000000e+00 1.3846796238754488e+01 1.4257795244496076e+01 3.4112595003971364e+00 
149 1 2 1.0281753117628696e+00 -6.7416894188592380e+02 1.0000000000000000e+00 1.3852150614346895e+01 1.4259254185191145e+01 3.4148932136124741e+00 
155 1 2 1.0281762707737261e+00 -7.6626579246560800e+02 1.0000000000000000e+00 1.3857236435886715e+01 1.4258667855143370e+01 3.4170603642117277e+00 
125 1 2 1.0281763821757222e+00 -5.2755156951003812e+02 1.0000000000000000e+00 1.3857560829943901e+01 1.4258833069515287e+01 3.4173387428920821e+00 
131 1 2 1.0281763987180188e+00 -4.6380819503097149e+02 1.0000000000000000e+00 1.3857696954672646e+01 1.4258776649626352e+01 3.4173697008879205e+00 
76 1 2 1.0281768702156360e+00 -4.1211447826804198e+02 1.0000000000000000e+00 1.3858033097629207e+01 1.4260485557955844e+01 3.4187133174413296e+00 
81 1 2 1.0281769438957893e+00 -3.9401481238626491e+02 1.0000000000000000e+00 1.3858369329216483e+01 1.4260489937143237e+01 3.4188887058403075e+00 
111 1 2 1.0281769435526120e+00 -3.9062130251707981e+02 1.0000000000000000e+00 1.3858367686026924e+01 1.4260489981680912e+01 3.4188878935276459e+00 
154 1 2 1.0281769458388048e+00 -5.3888975898361059e+02 1.0000000000000000e+00 1.3858379175141232e+01 1.4260489166441241e+01 3.4188932266567953e+00 
118 1 2 1.0281769452206260e+00 -5.0620299615348927e+02 1.0000000000000000e+00 1.3858376753140247e+01 1.4260488727327319e+01 3.4188916820262469e+00 
82 1 2 1.0281769438653230e+00 -4.4218957601218960e+02 1.0000000000000000e+00 1.3858370797116114e+01 1.4260488388822717e+01 3.4188883936503691e+00 
160 1 2 1.0281769453488239e+00 -5.8723347634189076e+02 1.0000000000000000e+00 1.3858377339303086e+01 1.4260488737634999e+01 3.4188919898276531e+00 
117 1 2 1.0281769452946539e+00 -4.5921071228084475e+02 1.0000000000000000e+00 1.3858376171773431e+01 1.4260489617781296e+01 3.4188919964006761e+00 
147 1 2 1.0281769442057085e+00 -4.3632681555726623e+02 1.0000000000000000e+00 1.3858370831908681e+01 1.4260489878866657e+01 3.4188894366305718e+00 
112 1 2 1.0281769455363012e+00 -4.8282105717640610e+02 1.0000000000000000e+00 1.3858377453704565e+01 1.4260489467098532e+01 3.4188925503807561e+00 
124 1 2 1.0281769450842331e+00 -4.9523922289639279e+02 1.0000000000000000e+00 1.3858376194996657e+01 1.4260488653488279e+01 3.4188913448906857e+00 
148 1 2 1.0281769456384533e+00 -5.3422591360036347e+02 1.0000000000000000e+00 1.3858378438021473e+01 1.4260488977981908e+01 3.4188927188434683e+00 
159 1 2 1.0281769455481720e+00 -4.5406519990909288e+02 1.0000000000000000e+00 1.3858377379123937e+01 1.4260489591938958e+01 3.4188925980089202e+00 
123 1 2 1.0281769458788208e+00 -4.0142461262601302e+02 1.0000000000000000e+00 1.3858379020273876e+01 1.4260489494433518e+01 3.4188933728630393e+00 
153 1 2 1.0281769442434692e+00 -4.2847613296374101e+02 1.0000000000000000e+00 1.3858370983032296e+01 1.4260489902403119e+01 3.4188895303506284e+00 
88 1 2 1.0281770026579775e+00 -4.6751386685553513e+02 1.0000000000000000e+00 1.3858646834750008e+01 1.4260492423399445e+01 3.4190328407676729e+00 
94 1 2 1.0281067800229746e+00 -4.2310079502230400e+02 1.0000000000000000e+00 1.9802965850696953e+01 1.1836991652156369e+01 9.5025627442801408e+00 
166 1 2 1.0281342074102797e+00 -5.5980323979440857e+02 1.0000000000000000e+00 1.9536678113409344e+01 1.1769313147624326e+01 9.3684055608408041e+00 
140 1 2 1.0281345045732866e+00 -5.7430246505307321e+02 1.0000000000000000e+00 1.9531924475840224e+01 1.1768606251359376e+01 9.3670686825370524e+00 
64 1 2 1.0281352435341293e+00 -4.1576361739039919e+02 1.0000000000000000e+00 1.9520870193453941e+01 1.1768283026402578e+01 9.3623374821334675e+00 
136 1 2 1.0281361977166505e+00 -4.2569875032061043e+02 1.0000000000000000e+00 1.9506128895453141e+01 1.1767493700350547e+01 9.3569779083837759e+00 
130 1 2 1.0281418285775457e+00 -4.4342022381710683e+02 1.0000000000000000e+00 1.9412849467294315e+01 1.1768756439308682e+01 9.3260017278398095e+00 
165 1 2 1.0281441029129890e+00 -5.2070199133091762e+02 1.0000000000000000e+00 1.9359933806620152e+01 1.1773167870141901e+01 9.3119707246958328e+00 
137 1 2 1.0281441525556188e+00 -3.9571221271178069e+02 1.0000000000000000e+00 1.9357918167369302e+01 1.1773300066853515e+01 9.3116112728383804e+00 
178 1 2 1.0281441525556236e+00 -4.3903998882306735e+02 1.0000000000000000e+00 1.9357918167351659e+01 1.1773300066856249e+01 9.3116112728330513e+00 
143 1 2 1.0281441525556327e+00 -4.6516479823842138e+02 1.0000000000000000e+00 1.9357918167351428e+01 1.1773300066856354e+01 9.3116112728329909e+00 
173 1 2 1.0281441525556299e+00 -5.5464079690305186e+02 1.0000000000000000e+00 1.9357918167357134e+01 1.1773300066855413e+01 9.3116112728347744e+00 
108 1 2 1.0281441525556290e+00 -3.2617274359803889e+02 1.0000000000000000e+00 1.9357918167351841e+01 1.1773300066856061e+01 9.3116112728334173e+00 
144 1 2 1.0281441525556312e+00 -4.0745036118174443e+02 1.0000000000000000e+00 1.9357918167352924e+01 1.1773300066855880e+01 9.3116112728337566e+00 
138 1 2 1.0281441525556276e+00 -4.6794889886678510e+02 1.0000000000000000e+00 1.9357918167349577e+01 1.1773300066856470e+01 9.3116112728326481e+00 
180 1 2 1.0281441525556259e+00 -5.1899043515494736e+02 1.0000000000000000e+00 1.9357918167342753e+01 1.1773300066857612e+01 9.3116112728303850e+00 
179 1 2 1.0281441525556290e+00 -4.9690412576569179e+02 1.0000000000000000e+00 1.9357918167349460e+01 1.1773300066856624e+01 9.3116112728324154e+00 
142 1 2 1.0281441525556259e+00 -4.3253481307687201e+02 1.0000000000000000e+00 1.9357918167357070e+01 1.1773300066855398e+01 9.3116112728347371e+00 
174 1 2 1.0281441525556327e+00 -5.1955280394930776e+02 1.0000000000000000e+00 1.9357918167350231e+01 1.1773300066856390e+01 9.3116112728328329e+00 
167 1 2 1.0281441525556296e+00 -5.4428072038790367e+02 1.0000000000000000e+00 1.9357918167349695e+01 1.1773300066856741e+01 9.3116112728322733e+00 
175 1 2 1.0281145494822421e+00 -6.7323595910393794e+02 1.0000000000000000e+00 1.8921812562094601e+01 1.1923253103409136e+01 9.2846907435160233e+00 
126 1 2 1.0278617899395510e+00 -4.7675960901936685e+02 1.0000000000000000e+00 1.8790803512985701e+01 1.5017443854307023e+01 7.3706107357859212e+00 
116 1 2 1.0278617899395539e+00 -4.4198560018870654e+02 1.0000000000000000e+00 1.8790803512985672e+01 1.5017443854306991e+01 7.3706107357859842e+00 
85 1 2 1.0278617899395552e+00 -3.7788895597093943e+02 1.0000000000000000e+00 1.8790803512985665e+01 1.5017443854306958e+01 7.3706107357860065e+00 
132 1 2 1.0278617899395552e+00 -4.8631678655814159e+02 1.0000000000000000e+00 1.8790803512985665e+01 1.5017443854306958e+01 7.3706107357860065e+00 
145 1 2 1.0278617899395557e+00 -5.1363576635582058e+02 1.0000000000000000e+00 1.8790803512985683e+01 1.5017443854306970e+01 7.3706107357859976e+00 
151 1 2 1.0278617899395552e+00 -4.5925706509223795e+02 1.0000000000000000e+00 1.8790803512985651e+01 1.5017443854306917e+01 7.3706107357860571e+00 
152 1 2 1.0278617899395548e+00 -5.1265606195667044e+02 1.0000000000000000e+00 1.8790803512985686e+01 1.5017443854306983e+01 7.3706107357859860e+00 
80 1 2 1.0278617899395557e+00 -3.7988492694058084e+02 1.0000000000000000e+00 1.8790803512985683e+01 1.5017443854306970e+01 7.3706107357859976e+00 
162 1 2 1.0278617899395552e+00 -4.9895764843909978e+02 1.0000000000000000e+00 1.8790803512985665e+01 1.5017443854306958e+01 7.3706107357860065e+00 
115 1 2 1.0278617899395552e+00 -4.6021745781436130e+02 1.0000000000000000e+00 1.8790803512985676e+01 1.5017443854306945e+01 7.3706107357860269e+00 
168 1 2 1.0278617899395550e+00 -5.0340891856865710e+02 1.0000000000000000e+00 1.8790803512985672e+01 1.5017443854306958e+01 7.3706107357860056e+00 
49 1 2 1.0278617899395517e+00 -3.3241530648551952e+02 1.0000000000000000e+00 1.8790803512985693e+01 1.5017443854307043e+01 7.3706107357859194e+00 
110 1 2 1.0278617899395550e+00 -3.9565434224858257e+02 1.0000000000000000e+00 1.8790803512985633e+01 1.5017443854306897e+01 7.3706107357860722e+00 
157 1 2 1.0278617899395555e+00 -5.3939342771191957e+02 1.0000000000000000e+00 1.8790803512985686e+01 1.5017443854306963e+01 7.3706107357860029e+00 
86 1 2 1.0278617899395552e+00 -4.0042848110178863e+02 1.0000000000000000e+00 1.8790803512985676e+01 1.5017443854306947e+01 7.3706107357860242e+00 
158 1 2 1.0278617899395552e+00 -5.3502829207062780e+02 1.0000000000000000e+00 1.8790803512985676e+01 1.5017443854306945e+01 7.3706107357860242e+00 
127 1 2 1.0278617899395552e+00 -4.5772779801439299e+02 1.0000000000000000e+00 1.8790803512985676e+01 1.5017443854306945e+01 7.3706107357860242e+00 
109 1 2 1.0278617899395517e+00 -4.1875854101764025e+02 1.0000000000000000e+00 1.8790803512985718e+01 1.5017443854307031e+01 7.3706107357859603e+00 
156 1 2 1.0278617899395552e+00 -4.7046173026072734e+02 1.0000000000000000e+00 1.8790803512985676e+01 1.5017443854306952e+01 7.3706107357860136e+00 
90 1 2 1.0278617899395550e+00 -3.1111103609839972e+02 1.0000000000000000e+00 1.8790803512985633e+01 1.5017443854306897e+01 7.3706107357860722e+00 
163 1 2 1.0278617899395557e+00 -5.3730863383932012e+02 1.0000000000000000e+00 1.8790803512985683e+01 1.5017443854306951e+01 7.3706107357860322e+00 
121 1 2 1.0278617899395552e+00 -4.8537531672979475e+02 1.0000000000000000e+00 1.8790803512985676e+01 1.5017443854306945e+01 7.3706107357860242e+00 
122 1 2 1.0278617899395550e+00 -4.2321170496153968e+02 1.0000000000000000e+00 1.8790803512985690e+01 1.5017443854306961e+01 7.3706107357860073e+00 
32 1 2 1.0281216356935541e+00 -6.3865545720221439e+02 1.0000000000000000e+00 1.7868389119326341e+01 1.9149286575292191e+01 6.4312961089528287e+00 
170 1 2 1.0281216995299847e+00 -5.8110147726759192e+02 1.0000000000000000e+00 1.7869942348694185e+01 1.9148315456234808e+01 6.4247146856532487e+00 
87 1 2 1.0281216987610802e+00 -4.0969250046607999e+02 1.0000000000000000e+00 1.7869907383387723e+01 1.9148334587316253e+01 6.4248457822138834e+00 
33 1 2 1.0281216986972888e+00 -5.2934531389939207e+02 1.0000000000000000e+00 1.7869904743134917e+01 1.9148336218961088e+01 6.4248566042988156e+00 
105 1 2 1.0281216987121213e+00 -3.8322457985012619e+02 1.0000000000000000e+00 1.7869905394786542e+01 1.9148335853322926e+01 6.4248541150212741e+00 
172 1 2 1.0281216987390658e+00 -4.5813482748075336e+02 1.0000000000000000e+00 1.7869906583133638e+01 1.9148335184335831e+01 6.4248495648621313e+00 
57 1 2 1.0281216989357320e+00 -4.4950656365321657e+02 1.0000000000000000e+00 1.7869915333884805e+01 1.9148330307889026e+01 6.4248163077720291e+00 
134 1 2 1.0281216987420583e+00 -5.3085010852021958e+02 1.0000000000000000e+00 1.7869906712646447e+01 1.9148335111409949e+01 6.4248490688941535e+00 
69 1 2 1.0281216986764643e+00 -4.5247936848074403e+02 1.0000000000000000e+00 1.7869903836195036e+01 1.9148336740472821e+01 6.4248601308170805e+00 
141 1 2 1.0281216987721729e+00 -5.4865067329271324e+02 1.0000000000000000e+00 1.7869908044908655e+01 1.9148334364527489e+01 6.4248439832135258e+00 
19 1 2 1.0281216987187429e+00 -5.2017622109992840e+02 1.0000000000000000e+00 1.7869905685930142e+01 1.9148335688458140e+01 6.4248529954954696e+00 
56 1 2 1.0281216987759014e+00 -4.6690935647678543e+02 1.0000000000000000e+00 1.7869908207872843e+01 1.9148334271782105e+01 6.4248433543441283e+00 
128 1 2 1.0281216987996427e+00 -4.5187325103131815e+02 1.0000000000000000e+00 1.7869909270211711e+01 1.9148333681927930e+01 6.4248393271936806e+00 
25 1 2 1.0281216987419437e+00 -5.0087710376784037e+02 1.0000000000000000e+00 1.7869906709912595e+01 1.9148335113039249e+01 6.4248490798024944e+00 
63 1 2 1.0281216988216271e+00 -4.3099126207212919e+02 1.0000000000000000e+00 1.7869910354375296e+01 1.9148333166848268e+01 6.4248356435817131e+00 
31 1 2 1.0281216987417918e+00 -5.2782538605608988e+02 1.0000000000000000e+00 1.7869906703079401e+01 1.9148335117024082e+01 6.4248491066434550e+00 
61 1 2 1.0281216987420809e+00 -4.9005675571117820e+02 1.0000000000000000e+00 1.7869906715879527e+01 1.9148335109359607e+01 6.4248490553833619e+00 
177 1 2 1.0281216987415946e+00 -5.8586781555142159e+02 1.0000000000000000e+00 1.7869906692369394e+01 1.9148335122560749e+01 6.4248491452362657e+00 
104 1 2 1.0281216987400918e+00 -4.9130226951883230e+02 1.0000000000000000e+00 1.7869906630839019e+01 1.9148335157697556e+01 6.4248493832685138e+00 
98 1 2 1.0281216987411241e+00 -4.9772521210851585e+02 1.0000000000000000e+00 1.7869906674733286e+01 1.9148335132983075e+01 6.4248492151836611e+00 
55 1 2 1.0281216987538571e+00 -4.5545967050063928e+02 1.0000000000000000e+00 1.7869907237847613e+01 1.9148334818423756e+01 6.4248470711057628e+00 
62 1 2 1.0281216987360851e+00 -5.1090499952327980e+02 1.0000000000000000e+00 1.7869906451425194e+01 1.9148335258397108e+01 6.4248500687476584e+00 
21 1 2 1.0281216987355326e+00 -4.6405577538377827e+02 1.0000000000000000e+00 1.7869906429617640e+01 1.9148335270427925e+01 6.4248501510387026e+00 
20 1 2 1.0281216987397817e+00 -5.0596892888486940e+02 1.0000000000000000e+00 1.7869906613633258e+01 1.9148335167798624e+01 6.4248494511868115e+00 
67 1 2 1.0281216987392376e+00 -4.4167722802654862e+02 1.0000000000000000e+00 1.7869906595127407e+01 1.9148335177899309e+01 6.4248495204824883e+00 
70 1 2 1.0281216987355728e+00 -4.1551723890858835e+02 1.0000000000000000e+00 1.7869906428581061e+01 1.9148335271782404e+01 6.4248501587922746e+00 
135 1 2 1.0281216987734851e+00 -5.1475445263307836e+02 1.0000000000000000e+00 1.7869908297074389e+01 1.9148334387477369e+01 6.4248438265285941e+00 
68 1 2 1.0281216985523878e+00 -4.8136675185998115e+02 1.0000000000000000e+00 1.7869898342376310e+01 1.9148339797360077e+01 6.4248809935556981e+00 
129 1 2 1.0281216986908093e+00 -4.6710478467863533e+02 1.0000000000000000e+00 1.7869904581725493e+01 1.9148336421965006e+01 6.4248577723988038e+00 
91 1 2 1.0281217077383340e+00 -3.7561752961829700e+02 1.0000000000000000e+00 1.7869987209490784e+01 1.9148006049628190e+01 6.4231598265584866e+00 
92 1 2 1.0281217124291462e+00 -4.4750980632826594e+02 1.0000000000000000e+00 1.7871206524054461e+01 1.9147922390526915e+01 6.4214840342027095e+00 
114 1 2 1.0281217318630893e+00 -5.2018800014698479e+02 1.0000000000000000e+00 1.7872169424569030e+01 1.9147421822974579e+01 6.4181367726158376e+00 
169 1 2 1.0281160263401874e+00 -5.1401831182937576e+02 1.0000000000000000e+00 1.7858058440136851e+01 1.9114360472597820e+01 6.3170261230315656e+00 
161 1 2 1.0280477525912175e+00 -6.2737726637277456e+02 1.0000000000000000e+00 1.7846017918286410e+01 1.8607311460310662e+01 5.8344945416574978e+00 
164 1 2 1.0281057474616504e+00 -4.9046260849177162e+02 1.0000000000000000e+00 1.8821709926837208e+01 1.5153603513647084e+01 7.8264235636802590e+00 
26 1 2 1.0278656015350538e+00 -5.6599204018342323e+02 1.0000000000000000e+00 1.8785750129906678e+01 1.5007611380716227e+01 7.3798849329268821e+00 
120 1 2 1.0278617899395530e+00 -4.8654517985642588e+02 1.0000000000000000e+00 1.8790803512985672e+01 1.5017443854306999e+01 7.3706107357859780e+00 
79 1 2 1.0278617899395550e+00 -3.8198701078906555e+02 1.0000000000000000e+00 1.8790803512985676e+01 1.5017443854306956e+01 7.3706107357860109e+00 
146 1 2 1.0278617899395550e+00 -4.5323427083540741e+02 1.0000000000000000e+00 1.8790803512985644e+01 1.5017443854306913e+01 7.3706107357860553e+00 
15 1 2 1.0278583917352286e+00 -3.6952751487893693e+02 1.0000000000000000e+00 1.9615250231143396e+01 1.1273999303152932e+01 1.2098229479383987e+01 
3 1 2 1.0278583917352302e+00 -4.4483596276391825e+02 1.0000000000000000e+00 1.9615250231143406e+01 1.1273999303152946e+01 1.2098229479384036e+01 
38 1 2 1.0278583917352286e+00 -4.4515863788413549e+02 1.0000000000000000e+00 1.9615250231143389e+01 1.1273999303152937e+01 1.2098229479384024e+01 
73 1 2 1.0278583917352289e+00 -3.7220226821741653e+02 1.0000000000000000e+00 1.9615250231143385e+01 1.1273999303152923e+01 1.2098229479383958e+01 
13 1 2 1.0278583917352277e+00 -4.2985292066962307e+02 1.0000000000000000e+00 1.9615250231143396e+01 1.1273999303152925e+01 1.2098229479383994e+01 
50 1 2 1.0278583917352277e+00 -4.1486888408126401e+02 1.0000000000000000e+00 1.9615250231143396e+01 1.1273999303152925e+01 1.2098229479383994e+01 
7 1 2 1.0278583917352277e+00 -5.5428201975291461e+02 1.0000000000000000e+00 1.9615250231143396e+01 1.1273999303152925e+01 1.2098229479383994e+01 
8 1 2 1.0278583917352277e+00 -5.2368753264740178e+02 1.0000000000000000e+00 1.9615250231143396e+01 1.1273999303152925e+01 1.2098229479383994e+01 
1 1 2 1.0278583917352277e+00 -6.4654103982663264e+02 1.0000000000000000e+00 1.9615250231143396e+01 1.1273999303152925e+01 1.2098229479383994e+01 
2 1 2 1.0278583917352277e+00 -5.0458803452249231e+02 1.0000000000000000e+00 1.9615250231143396e+01 1.1273999303152925e+01 1.2098229479383994e+01 
74 1 2 1.0278583917352277e+00 -3.8870256184713787e+02 1.0000000000000000e+00 1.9615250231143396e+01 1.1273999303152925e+01 1.2098229479383994e+01 
9 1 2 1.0278583917352277e+00 -4.4537563316523244e+02 1.0000000000000000e+00 1.9615250231143396e+01 1.1273999303152925e+01 1.2098229479383994e+01 
45 1 2 1.0278583917352277e+00 -4.2916951208488433e+02 1.0000000000000000e+00 1.9615250231143396e+01 1.1273999303152925e+01 1.2098229479383994e+01 
39 1 2 1.0278583917352286e+00 -3.6673133187767547e+02 1.0000000000000000e+00 1.9615250231143346e+01 1.1273999303152934e+01 1.2098229479383994e+01 
43 1 2 1.0278583917352286e+00 -4.5592511640051987e+02 1.0000000000000000e+00 1.9615250231143346e+01 1.1273999303152934e+01 1.2098229479383994e+01 
37 1 2 1.0278583917352280e+00 -4.8906310713385193e+02 1.0000000000000000e+00 1.9615250231143374e+01 1.1273999303152928e+01 1.2098229479383990e+01 
14 1 2 1.0278583917352315e+00 -3.8438117813529288e+02 1.0000000000000000e+00 1.9615250231143392e+01 1.1273999303152946e+01 1.2098229479383992e+01 
51 1 2 1.0278583917352315e+00 -4.2220605749181379e+02 1.0000000000000000e+00 1.9615250231143392e+01 1.1273999303152946e+01 1.2098229479383992e+01 
44 1 2 1.0278583917352302e+00 -4.6206203557349323e+02 1.0000000000000000e+00 1.9615250231143374e+01 1.1273999303152936e+01 1.2098229479383971e+01 
75 1 2 1.0278583917352295e+00 -3.2252088178806406e+02 1.0000000000000000e+00 1.9615250231143374e+01 1.1273999303152944e+01 1.2098229479384031e+01 
99 1 2 1.0278583690950671e+00 -3.8725459263507128e+02 1.0000000000000000e+00 1.9614839823362964e+01 1.1274099334660416e+01 1.2098617327139189e+01 
100 1 2 1.0280789360751412e+00 -3.7235603764102348e+02 1.0000000000000000e+00 1.9262135547705878e+01 1.1408347592450411e+01 1.0028285547192057e+01 

Velocities

16 2.5999465210105658e-02 -2.0844520161515820e-02 -1.2028346452997673e-02
65 2.5999465210108538e-02 -2.0844520161503163e-02 -1.2028346452982851e-02
97 2.5999465209556635e-02 -2.0844520161392856e-02 -1.2028346453106820e-02
176 2.5999465154839807e-02 -2.0844520147559380e-02 -1.2028346462140058e-02
133 2.5999465133097539e-02 -2.0844520141714364e-02 -1.2028346465264841e-02
53 2.5999465210108073e-02 -2.0844520161501116e-02 -1.2028346452978267e-02
22 2.5999465210109929e-02 -2.0844520161502608e-02 -1.2028346452979210e-02
34 2.5999465210819455e-02 -2.0844520161659115e-02 -1.2028346452855377e-02
60 2.5999465210109929e-02 -2.0844520161502608e-02 -1.2028346452979210e-02
95 2.5999465210106806e-02 -2.0844520161511108e-02 -1.2028346452991471e-02
52 2.5999465210107590e-02 -2.0844520161506223e-02 -1.2028346452982721e-02
72 2.5999465210109096e-02 -2.0844520161501845e-02 -1.2028346452979006e-02
27 2.5999465211138863e-02 -2.0844520161748953e-02 -1.2028346452836179e-02
102 2.5999465210107178e-02 -2.0844520161512579e-02 -1.2028346452995262e-02
24 2.5999465210106550e-02 -2.0844520161511247e-02 -1.2028346452993218e-02
171 2.5999465209954685e-02 -2.0844520161489480e-02 -1.2028346453035823e-02
17 2.5999465210106175e-02 -2.0844520161517398e-02 -1.2028346453000893e-02
30 2.5999465210106362e-02 -2.0844520161511660e-02 -1.2028346452993508e-02
93 2.5999465210114110e-02 -2.0844520161518169e-02 -1.2028346452995560e-02
107 2.5999465210107441e-02 -2.0844520161504981e-02 -1.2028346452981393e-02
103 2.5999465210194896e-02 -2.0844520161503378e-02 -1.2028346452941326e-02
36 2.5999465210107011e-02 -2.0844520161506463e-02 -1.2028346452987849e-02
66 2.5999465210107011e-02 -2.0844520161508596e-02 -1.2028346452986645e-02
58 2.5999465210108409e-02 -2.0844520161508909e-02 -1.2028346452987206e-02
101 2.5999465210106730e-02 -2.0844520161513346e-02 -1.2028346452993213e-02
139 2.5999465227525949e-02 -2.0844520165766496e-02 -1.2028346449996639e-02
35 2.5999465210107771e-02 -2.0844520161502126e-02 -1.2028346452978216e-02
71 2.5999465210107126e-02 -2.0844520161515046e-02 -1.2028346452996577e-02
18 2.5999465210108711e-02 -2.0844520161507719e-02 -1.2028346452985303e-02
29 2.5999465210107462e-02 -2.0844520161511344e-02 -1.2028346452988699e-02
28 2.5999465210107993e-02 -2.0844520161504888e-02 -1.2028346452981897e-02
106 2.5999465210217204e-02 -2.0844520161506050e-02 -1.2028346452938725e-02
23 2.5999465210106092e-02 -2.0844520161513811e-02 -1.2028346452997048e-02
59 2.5999465210105890e-02 -2.0844520161514828e-02 -1.2028346452995426e-02
84 -4.4627432072865764e-02 4.3408206082462132e-02 8.3191530660551797e-03
54 -4.6695846738461201e-02 4.4958797951041678e-02 7.9091931151956396e-03
4 -4.6711628581427266e-02 4.4948533746282743e-02 7.8926367656513043e-03
48 -4.6697411445451940e-02 4.4935693524201792e-02 7.8918600029673578e-03
12 -4.6696035833976135e-02 4.4933776808179164e-02 7.8912890973245019e-03
78 -4.6736836281621341e-02 4.4921191729296747e-02 7.8585783528558710e-03
40 -4.6740592130518739e-02 4.4902465141572256e-02 7.8432525084534497e-03
89 -4.6768225644807565e-02 4.4894222661476045e-02 7.8215177054657154e-03