LAMMPS data file via write_data, version 30 Jul 2016, timestep = 50400000

180 atoms
2 atom types

0.0000000000000000e+00 2.0000000000000000e+01 xlo xhi
0.0000000000000000e+00 2.0000000000000000e+01 ylo yhi
0.0000000000000000e+00 2.0000000000000000e+01 zlo zhi

Masses

1 3.896
2 4.31

Atoms # meso-molecular

94 1 2 1.0280637908982722e+00 -4.2310056256316437e+02 1.0000000000000000e+00 4.9964941273076113e-01 1.1334159584571037e+01 9.1644532778031085e+00 
166 1 2 1.0280847038627750e+00 -5.5980301314470103e+02 1.0000000000000000e+00 1.8977153009616907e-01 1.1257748906074738e+01 9.0068446792661394e+00 
140 1 2 1.0280850542704674e+00 -5.7430223850247739e+02 1.0000000000000000e+00 1.8448124381422032e-01 1.1257008925497562e+01 9.0052924955417133e+00 
64 1 2 1.0280859496162582e+00 -4.1576339097213224e+02 1.0000000000000000e+00 1.7200068029022758e-01 1.1257010621567748e+01 9.0000843037852611e+00 
136 1 2 1.0280870548298491e+00 -4.2569852411902241e+02 1.0000000000000000e+00 1.5551211131132042e-01 1.1256509615499910e+01 8.9941233973800276e+00 
130 1 2 1.0280921190552093e+00 -4.4341999877187658e+02 1.0000000000000000e+00 5.2385776631306398e-02 1.1260508451504231e+01 8.9601322027916872e+00 
16 1 2 1.0280857369001037e+00 -3.0007271887895428e+02 1.0000000000000000e+00 1.1644889026701133e+00 1.3182798242302042e+01 1.4654435490593411e+01 
65 1 2 1.0280857369001037e+00 -4.7037829240411639e+02 1.0000000000000000e+00 1.1644889026700451e+00 1.3182798242302097e+01 1.4654435490593382e+01 
97 1 2 1.0280857369001020e+00 -5.0140793135760612e+02 1.0000000000000000e+00 1.1644889027107133e+00 1.3182798242287639e+01 1.4654435490596164e+01 
176 1 2 1.0280857369001297e+00 -6.0139310694876633e+02 1.0000000000000000e+00 1.1644889068042883e+00 1.3182798240834632e+01 1.4654435490872208e+01 
133 1 2 1.0280857369001235e+00 -5.1593702442716835e+02 1.0000000000000000e+00 1.1644889084349579e+00 1.3182798240259196e+01 1.4654435490979534e+01 
53 1 2 1.0280857369001042e+00 -3.9331377832373704e+02 1.0000000000000000e+00 1.1644889026701335e+00 1.3182798242302161e+01 1.4654435490593301e+01 
22 1 2 1.0280857369001040e+00 -4.7317037995526209e+02 1.0000000000000000e+00 1.1644889026700009e+00 1.3182798242302146e+01 1.4654435490593345e+01 
34 1 2 1.0280857369001120e+00 -4.3230158231975759e+02 1.0000000000000000e+00 1.1644889026187009e+00 1.3182798242319899e+01 1.4654435490590174e+01 
60 1 2 1.0280857369001040e+00 -4.3484570268836455e+02 1.0000000000000000e+00 1.1644889026700009e+00 1.3182798242302146e+01 1.4654435490593345e+01 
95 1 2 1.0280857369001035e+00 -3.8532060315671458e+02 1.0000000000000000e+00 1.1644889026701151e+00 1.3182798242302093e+01 1.4654435490593370e+01 
52 1 2 1.0280857369001040e+00 -3.4977748388005261e+02 1.0000000000000000e+00 1.1644889026701295e+00 1.3182798242302189e+01 1.4654435490593281e+01 
72 1 2 1.0280857369001029e+00 -4.2887576963185450e+02 1.0000000000000000e+00 1.1644889026700809e+00 1.3182798242302148e+01 1.4654435490593331e+01 
27 1 2 1.0280857369001108e+00 -6.0327692740447412e+02 1.0000000000000000e+00 1.1644889025944780e+00 1.3182798242327655e+01 1.4654435490589265e+01 
102 1 2 1.0280857369001037e+00 -4.1131021229203543e+02 1.0000000000000000e+00 1.1644889026700227e+00 1.3182798242302008e+01 1.4654435490593459e+01 
24 1 2 1.0280857369001042e+00 -5.2780334562830126e+02 1.0000000000000000e+00 1.1644889026700922e+00 1.3182798242302029e+01 1.4654435490593420e+01 
171 1 2 1.0280857369001013e+00 -5.5597595800375802e+02 1.0000000000000000e+00 1.1644889026812901e+00 1.3182798242298029e+01 1.4654435490594228e+01 
17 1 2 1.0280857369001049e+00 -4.5642479085499747e+02 1.0000000000000000e+00 1.1644889026700274e+00 1.3182798242302004e+01 1.4654435490593453e+01 
30 1 2 1.0280857369001037e+00 -5.8854666504176737e+02 1.0000000000000000e+00 1.1644889026701131e+00 1.3182798242302068e+01 1.4654435490593391e+01 
93 1 2 1.0280857369001033e+00 -4.3404212765605087e+02 1.0000000000000000e+00 1.1644889026692855e+00 1.3182798242302344e+01 1.4654435490593347e+01 
107 1 2 1.0280857369001029e+00 -4.1664498974657516e+02 1.0000000000000000e+00 1.1644889026701473e+00 1.3182798242302166e+01 1.4654435490593302e+01 
103 1 2 1.0280857369001075e+00 -4.2427820800549966e+02 1.0000000000000000e+00 1.1644889026640826e+00 1.3182798242304468e+01 1.4654435490592720e+01 
36 1 2 1.0280857369001040e+00 -4.2260567799184048e+02 1.0000000000000000e+00 1.1644889026701015e+00 1.3182798242302050e+01 1.4654435490593400e+01 
66 1 2 1.0280857369001042e+00 -4.2734305059167025e+02 1.0000000000000000e+00 1.1644889026701053e+00 1.3182798242302121e+01 1.4654435490593341e+01 
58 1 2 1.0280857369001042e+00 -3.9035991230010688e+02 1.0000000000000000e+00 1.1644889026700109e+00 1.3182798242302200e+01 1.4654435490593297e+01 
101 1 2 1.0280857369001044e+00 -3.7902092242079527e+02 1.0000000000000000e+00 1.1644889026700864e+00 1.3182798242302145e+01 1.4654435490593318e+01 
139 1 2 1.0280857369001009e+00 -5.1746524520617174e+02 1.0000000000000000e+00 1.1644889013706745e+00 1.3182798242761828e+01 1.4654435490506936e+01 
35 1 2 1.0280857369001026e+00 -4.5517533938630163e+02 1.0000000000000000e+00 1.1644889026701641e+00 1.3182798242302132e+01 1.4654435490593327e+01 
71 1 2 1.0280857369001037e+00 -4.2233256173855716e+02 1.0000000000000000e+00 1.1644889026699925e+00 1.3182798242302102e+01 1.4654435490593388e+01 
18 1 2 1.0280857369001037e+00 -6.3382471696932043e+02 1.0000000000000000e+00 1.1644889026700134e+00 1.3182798242302168e+01 1.4654435490593327e+01 
29 1 2 1.0280857369001031e+00 -5.3085807986279860e+02 1.0000000000000000e+00 1.1644889026700793e+00 1.3182798242302221e+01 1.4654435490593269e+01 
28 1 2 1.0280857369001029e+00 -6.1704673825327893e+02 1.0000000000000000e+00 1.1644889026700975e+00 1.3182798242302180e+01 1.4654435490593299e+01 
106 1 2 1.0280857369001071e+00 -4.1221848330502462e+02 1.0000000000000000e+00 1.1644889026623868e+00 1.3182798242304820e+01 1.4654435490592816e+01 
23 1 2 1.0280857369001035e+00 -4.7626344683319860e+02 1.0000000000000000e+00 1.1644889026700642e+00 1.3182798242302006e+01 1.4654435490593455e+01 
59 1 2 1.0280857369001051e+00 -4.5851609952349463e+02 1.0000000000000000e+00 1.1644889026701093e+00 1.3182798242302082e+01 1.4654435490593364e+01 
15 1 2 1.0279072125731457e+00 -3.6952740970078202e+02 1.0000000000000000e+00 4.5561020677674041e-01 1.0491606716081693e+01 1.1638840200103280e+01 
3 1 2 1.0279072125731481e+00 -4.4483585758576334e+02 1.0000000000000000e+00 4.5561020677681408e-01 1.0491606716081701e+01 1.1638840200103242e+01 
75 1 2 1.0279072125731443e+00 -3.2252077660990915e+02 1.0000000000000000e+00 4.5561020677662167e-01 1.0491606716081684e+01 1.1638840200103244e+01 
44 1 2 1.0279072125731521e+00 -4.6206193039533832e+02 1.0000000000000000e+00 4.5561020677683273e-01 1.0491606716081730e+01 1.1638840200103280e+01 
51 1 2 1.0279072125731423e+00 -4.2220595231365888e+02 1.0000000000000000e+00 4.5561020677676206e-01 1.0491606716081675e+01 1.1638840200103292e+01 
14 1 2 1.0279072125731423e+00 -3.8438107295713797e+02 1.0000000000000000e+00 4.5561020677676206e-01 1.0491606716081675e+01 1.1638840200103292e+01 
37 1 2 1.0279072125731525e+00 -4.8906300195569702e+02 1.0000000000000000e+00 4.5561020677659014e-01 1.0491606716081728e+01 1.1638840200103211e+01 
43 1 2 1.0279072125731505e+00 -4.5592501122236496e+02 1.0000000000000000e+00 4.5561020677651076e-01 1.0491606716081726e+01 1.1638840200103267e+01 
39 1 2 1.0279072125731505e+00 -3.6673122669952056e+02 1.0000000000000000e+00 4.5561020677651076e-01 1.0491606716081726e+01 1.1638840200103267e+01 
45 1 2 1.0279072125731472e+00 -4.2916940690672942e+02 1.0000000000000000e+00 4.5561020677678810e-01 1.0491606716081694e+01 1.1638840200103239e+01 
9 1 2 1.0279072125731472e+00 -4.4537552798707753e+02 1.0000000000000000e+00 4.5561020677678810e-01 1.0491606716081694e+01 1.1638840200103239e+01 
74 1 2 1.0279072125731472e+00 -3.8870245666898296e+02 1.0000000000000000e+00 4.5561020677678810e-01 1.0491606716081694e+01 1.1638840200103239e+01 
2 1 2 1.0279072125731472e+00 -5.0458792934433740e+02 1.0000000000000000e+00 4.5561020677678810e-01 1.0491606716081694e+01 1.1638840200103239e+01 
1 1 2 1.0279072125731472e+00 -6.4654093464857078e+02 1.0000000000000000e+00 4.5561020677678810e-01 1.0491606716081694e+01 1.1638840200103239e+01 
8 1 2 1.0279072125731472e+00 -5.2368742746933992e+02 1.0000000000000000e+00 4.5561020677678810e-01 1.0491606716081694e+01 1.1638840200103239e+01 
7 1 2 1.0279072125731472e+00 -5.5428191457485275e+02 1.0000000000000000e+00 4.5561020677678810e-01 1.0491606716081694e+01 1.1638840200103239e+01 
50 1 2 1.0279072125731472e+00 -4.1486877890310910e+02 1.0000000000000000e+00 4.5561020677678810e-01 1.0491606716081694e+01 1.1638840200103239e+01 
13 1 2 1.0279072125731472e+00 -4.2985281549146816e+02 1.0000000000000000e+00 4.5561020677678810e-01 1.0491606716081694e+01 1.1638840200103239e+01 
73 1 2 1.0279072125731454e+00 -3.7220216303926162e+02 1.0000000000000000e+00 4.5561020677672659e-01 1.0491606716081700e+01 1.1638840200103335e+01 
38 1 2 1.0279072125731485e+00 -4.4515853270598058e+02 1.0000000000000000e+00 4.5561020677670699e-01 1.0491606716081701e+01 1.1638840200103212e+01 
99 1 2 1.0279072586423947e+00 -3.8725448770106209e+02 1.0000000000000000e+00 4.5284150973187920e-01 1.0491614024045582e+01 1.1638441366568356e+01 
96 1 2 1.0279993749873524e+00 -3.5393329195953550e+02 1.0000000000000000e+00 1.1390722375701595e+01 1.5216728497868186e+01 4.9664519158108860e+00 
84 1 2 1.0279983691906533e+00 -5.0652762041149964e+02 1.0000000000000000e+00 1.1369072603483335e+01 1.5217301215539360e+01 4.9530049333333963e+00 
113 1 2 1.0279992883191402e+00 -5.7138844304548479e+02 1.0000000000000000e+00 1.1374701576150843e+01 1.5234918093458770e+01 4.9708144219975914e+00 
54 1 2 1.0279992019950270e+00 -3.8579219576496860e+02 1.0000000000000000e+00 1.1369052715505141e+01 1.5240377801145739e+01 4.9713514601101227e+00 
4 1 2 1.0279992108541489e+00 -6.0473687221367902e+02 1.0000000000000000e+00 1.1369056782729009e+01 1.5240361060113949e+01 4.9713412860872452e+00 
48 1 2 1.0279992118686987e+00 -4.8732941095808002e+02 1.0000000000000000e+00 1.1369692502352368e+01 1.5239720498735034e+01 4.9712670092293987e+00 
12 1 2 1.0279992122097557e+00 -5.3905886466153936e+02 1.0000000000000000e+00 1.1369773006943962e+01 1.5239638359046131e+01 4.9712567099593619e+00 
78 1 2 1.0279992266919138e+00 -4.7005891061305618e+02 1.0000000000000000e+00 1.1369383525313806e+01 1.5240000572647599e+01 4.9712793665693038e+00 
40 1 2 1.0279992359430472e+00 -4.3402883973644828e+02 1.0000000000000000e+00 1.1369864782741567e+01 1.5239499957857465e+01 4.9712105896427836e+00 
89 1 2 1.0279992432863525e+00 -4.3263172717290684e+02 1.0000000000000000e+00 1.1369605081057069e+01 1.5239755121638829e+01 4.9712362792797551e+00 
83 1 2 1.0279992441484862e+00 -4.7632020348712342e+02 1.0000000000000000e+00 1.1369647720847770e+01 1.5239711371066901e+01 4.9712306432554083e+00 
150 1 2 1.0279992486445715e+00 -6.5060732236269189e+02 1.0000000000000000e+00 1.1370184347195682e+01 1.5239160252752844e+01 4.9711587728478426e+00 
11 1 2 1.0279992481609510e+00 -5.3827996333855788e+02 1.0000000000000000e+00 1.1370655666753553e+01 1.5238685970857496e+01 4.9711022030082894e+00 
10 1 2 1.0279992481108002e+00 -4.1056266951156624e+02 1.0000000000000000e+00 1.1370666619608405e+01 1.5238675056230353e+01 4.9711009602304195e+00 
47 1 2 1.0279992487106251e+00 -5.0242917101379845e+02 1.0000000000000000e+00 1.1370665780203243e+01 1.5238674969356666e+01 4.9711003439901349e+00 
5 1 2 1.0279992562386944e+00 -5.1494594927924879e+02 1.0000000000000000e+00 1.1370544866992994e+01 1.5238790628061732e+01 4.9711102717969018e+00 
77 1 2 1.0279992584055218e+00 -5.2991967972226280e+02 1.0000000000000000e+00 1.1370315072705308e+01 1.5239035240126080e+01 4.9711480416122757e+00 
42 1 2 1.0279992616806874e+00 -4.8952932471700223e+02 1.0000000000000000e+00 1.1370928629444116e+01 1.5238399638092256e+01 4.9710599857127429e+00 
46 1 2 1.0279992629144716e+00 -3.9623359104569386e+02 1.0000000000000000e+00 1.1370955779500839e+01 1.5238372392383400e+01 4.9710567140258632e+00 
41 1 2 1.0279992638368112e+00 -5.2097793431789535e+02 1.0000000000000000e+00 1.1370950864304024e+01 1.5238378130080818e+01 4.9710579088029831e+00 
6 1 2 1.0279992639187712e+00 -6.3872455340858698e+02 1.0000000000000000e+00 1.1370953716426866e+01 1.5238375275856583e+01 4.9710575716098324e+00 
76 1 2 1.0280007870385279e+00 -4.1211445577854857e+02 1.0000000000000000e+00 1.2096380282739991e+01 1.6099782157746539e+01 3.8447783022358624e+00 
81 1 2 1.0280007882689073e+00 -3.9401479018499651e+02 1.0000000000000000e+00 1.2096112078358791e+01 1.6098632514836293e+01 3.8437296630202566e+00 
111 1 2 1.0280007882638020e+00 -3.9062128031446332e+02 1.0000000000000000e+00 1.2096113030025490e+01 1.6098638382337889e+01 3.8437347364044023e+00 
117 1 2 1.0280007882890709e+00 -4.5921069008506481e+02 1.0000000000000000e+00 1.2096108893544828e+01 1.6098607584305785e+01 3.8437086563814340e+00 
147 1 2 1.0280007882734623e+00 -4.3632679335723225e+02 1.0000000000000000e+00 1.2096111309804094e+01 1.6098627083791165e+01 3.8437250388652489e+00 
112 1 2 1.0280007882919768e+00 -4.8282103498158676e+02 1.0000000000000000e+00 1.2096108824472262e+01 1.6098602576020447e+01 3.8437048011087671e+00 
159 1 2 1.0280007882929161e+00 -4.5406517771428616e+02 1.0000000000000000e+00 1.2096108155277518e+01 1.6098603299112192e+01 3.8437049239716887e+00 
123 1 2 1.0280007882975213e+00 -4.0142459043248425e+02 1.0000000000000000e+00 1.2096107514237222e+01 1.6098597242504834e+01 3.8436999057640104e+00 
153 1 2 1.0280007882742028e+00 -4.2847611076384811e+02 1.0000000000000000e+00 1.2096111061993941e+01 1.6098626646926895e+01 3.8437245481222222e+00 
154 1 2 1.0280007882949829e+00 -5.3888973678990283e+02 1.0000000000000000e+00 1.2096109302558297e+01 1.6098595485198857e+01 3.8436997106603266e+00 
118 1 2 1.0280007882827198e+00 -5.0620297395766227e+02 1.0000000000000000e+00 1.2096113630433289e+01 1.6098602255294161e+01 3.8437076264283476e+00 
82 1 2 1.0280007882594768e+00 -4.4218955381121759e+02 1.0000000000000000e+00 1.2096119978666504e+01 1.6098621663132615e+01 3.8437264502983450e+00 
160 1 2 1.0280007882847879e+00 -5.8723345414643973e+02 1.0000000000000000e+00 1.2096113139388116e+01 1.6098600259816799e+01 3.8437057943291997e+00 
124 1 2 1.0280007882801749e+00 -4.9523920070007443e+02 1.0000000000000000e+00 1.2096114469418001e+01 1.6098603917289466e+01 3.8437094269904377e+00 
148 1 2 1.0280007882907407e+00 -5.3422589140594721e+02 1.0000000000000000e+00 1.2096110937360544e+01 1.6098597341631031e+01 3.8437021673750875e+00 
88 1 2 1.0280007891356735e+00 -4.6751384487759475e+02 1.0000000000000000e+00 1.2095910839248639e+01 1.6097684871904953e+01 3.8428815156721350e+00 
125 1 2 1.0280007685380945e+00 -5.2755154540758554e+02 1.0000000000000000e+00 1.2106143814255645e+01 1.6095120352608330e+01 3.8475866799315450e+00 
131 1 2 1.0280007683512393e+00 -4.6380817101602355e+02 1.0000000000000000e+00 1.2106384842737548e+01 1.6094436089321061e+01 3.8472270980710528e+00 
155 1 2 1.0280007656093835e+00 -7.6626576790620129e+02 1.0000000000000000e+00 1.2107245285132127e+01 1.6095578523845091e+01 3.8486674863314829e+00 
149 1 2 1.0280007489308394e+00 -6.7416891229544422e+02 1.0000000000000000e+00 1.2104018245764598e+01 1.6114639616910683e+01 3.8615735711280212e+00 
119 1 2 1.0280007175865113e+00 -6.2068935630409464e+02 1.0000000000000000e+00 1.2105939373500311e+01 1.6125085115965746e+01 3.8716521093425111e+00 
165 1 2 1.0280934076356663e+00 -5.2070176682538965e+02 1.0000000000000000e+00 1.9994785133075336e+01 1.1266653871475835e+01 8.9448374542773053e+00 
137 1 2 1.0280934379885742e+00 -3.9571198823128219e+02 1.0000000000000000e+00 1.9992610825556486e+01 1.1266825868724622e+01 8.9444325609324142e+00 
178 1 2 1.0280934379885718e+00 -4.3903976434256884e+02 1.0000000000000000e+00 1.9992610825537323e+01 1.1266825868728084e+01 8.9444325609267885e+00 
143 1 2 1.0280934379885720e+00 -4.6516457375792288e+02 1.0000000000000000e+00 1.9992610825537071e+01 1.1266825868728148e+01 8.9444325609266890e+00 
173 1 2 1.0280934379885707e+00 -5.5464057242271645e+02 1.0000000000000000e+00 1.9992610825543178e+01 1.1266825868726958e+01 8.9444325609285737e+00 
108 1 2 1.0280934379885702e+00 -3.2617251911754039e+02 1.0000000000000000e+00 1.9992610825537543e+01 1.1266825868727793e+01 8.9444325609270958e+00 
144 1 2 1.0280934379885711e+00 -4.0745013670124592e+02 1.0000000000000000e+00 1.9992610825538680e+01 1.1266825868727578e+01 8.9444325609274671e+00 
138 1 2 1.0280934379885716e+00 -4.6794867438628660e+02 1.0000000000000000e+00 1.9992610825535042e+01 1.1266825868728326e+01 8.9444325609262965e+00 
180 1 2 1.0280934379885756e+00 -5.1899021067461194e+02 1.0000000000000000e+00 1.9992610825527414e+01 1.1266825868729875e+01 8.9444325609239144e+00 
179 1 2 1.0280934379885713e+00 -4.9690390128519329e+02 1.0000000000000000e+00 1.9992610825534882e+01 1.1266825868728535e+01 8.9444325609260584e+00 
142 1 2 1.0280934379885716e+00 -4.3253458859637351e+02 1.0000000000000000e+00 1.9992610825543093e+01 1.1266825868726956e+01 8.9444325609285720e+00 
174 1 2 1.0280934379885696e+00 -5.1955257946897234e+02 1.0000000000000000e+00 1.9992610825535738e+01 1.1266825868728198e+01 8.9444325609264919e+00 
167 1 2 1.0280934379885731e+00 -5.4428049590756825e+02 1.0000000000000000e+00 1.9992610825535134e+01 1.1266825868728684e+01 8.9444325609259341e+00 
175 1 2 1.0280731250131396e+00 -6.7323574103683484e+02 1.0000000000000000e+00 1.9491259871490705e+01 1.1449119322651068e+01 8.9189217291701297e+00 
26 1 2 1.0279467754178486e+00 -5.6599180062700793e+02 1.0000000000000000e+00 1.9044837724798093e+01 1.4657257517548031e+01 7.5047241580268444e+00 
126 1 2 1.0279432845740903e+00 -4.7675937292890143e+02 1.0000000000000000e+00 1.9046016321955921e+01 1.4678381787639864e+01 7.4784018320446330e+00 
116 1 2 1.0279432845740926e+00 -4.4198536409824112e+02 1.0000000000000000e+00 1.9046016321956039e+01 1.4678381787639738e+01 7.4784018320448249e+00 
85 1 2 1.0279432845740923e+00 -3.7788871988047401e+02 1.0000000000000000e+00 1.9046016321956039e+01 1.4678381787639680e+01 7.4784018320448924e+00 
132 1 2 1.0279432845740923e+00 -4.8631655046767617e+02 1.0000000000000000e+00 1.9046016321956039e+01 1.4678381787639680e+01 7.4784018320448924e+00 
145 1 2 1.0279432845740919e+00 -5.1363553026529701e+02 1.0000000000000000e+00 1.9046016321956007e+01 1.4678381787639708e+01 7.4784018320448391e+00 
151 1 2 1.0279432845740910e+00 -4.5925682900177253e+02 1.0000000000000000e+00 1.9046016321956081e+01 1.4678381787639564e+01 7.4784018320450460e+00 
152 1 2 1.0279432845740923e+00 -5.1265582586614687e+02 1.0000000000000000e+00 1.9046016321956021e+01 1.4678381787639733e+01 7.4784018320448187e+00 
80 1 2 1.0279432845740919e+00 -3.7988469085011542e+02 1.0000000000000000e+00 1.9046016321956007e+01 1.4678381787639708e+01 7.4784018320448391e+00 
162 1 2 1.0279432845740923e+00 -4.9895741234863436e+02 1.0000000000000000e+00 1.9046016321956039e+01 1.4678381787639680e+01 7.4784018320448924e+00 
115 1 2 1.0279432845740910e+00 -4.6021722172389588e+02 1.0000000000000000e+00 1.9046016321956060e+01 1.4678381787639632e+01 7.4784018320449563e+00 
168 1 2 1.0279432845740921e+00 -5.0340868247819168e+02 1.0000000000000000e+00 1.9046016321956046e+01 1.4678381787639690e+01 7.4784018320448782e+00 
49 1 2 1.0279432845740910e+00 -3.3241507039505410e+02 1.0000000000000000e+00 1.9046016321955882e+01 1.4678381787639916e+01 7.4784018320445611e+00 
110 1 2 1.0279432845740903e+00 -3.9565410615811714e+02 1.0000000000000000e+00 1.9046016321956031e+01 1.4678381787639523e+01 7.4784018320450834e+00 
157 1 2 1.0279432845740923e+00 -5.3939319162139600e+02 1.0000000000000000e+00 1.9046016321956049e+01 1.4678381787639703e+01 7.4784018320448666e+00 
86 1 2 1.0279432845740910e+00 -4.0042824501132321e+02 1.0000000000000000e+00 1.9046016321956056e+01 1.4678381787639635e+01 7.4784018320449510e+00 
158 1 2 1.0279432845740908e+00 -5.3502805598010423e+02 1.0000000000000000e+00 1.9046016321956071e+01 1.4678381787639633e+01 7.4784018320449483e+00 
127 1 2 1.0279432845740908e+00 -4.5772756192392757e+02 1.0000000000000000e+00 1.9046016321956071e+01 1.4678381787639633e+01 7.4784018320449483e+00 
109 1 2 1.0279432845740897e+00 -4.1875830492717483e+02 1.0000000000000000e+00 1.9046016321956049e+01 1.4678381787639823e+01 7.4784018320447174e+00 
156 1 2 1.0279432845740921e+00 -4.7046149417026191e+02 1.0000000000000000e+00 1.9046016321956081e+01 1.4678381787639674e+01 7.4784018320449057e+00 
90 1 2 1.0279432845740903e+00 -3.1111080000793430e+02 1.0000000000000000e+00 1.9046016321956031e+01 1.4678381787639523e+01 7.4784018320450834e+00 
163 1 2 1.0279432845740917e+00 -5.3730839774879655e+02 1.0000000000000000e+00 1.9046016321956092e+01 1.4678381787639633e+01 7.4784018320449688e+00 
121 1 2 1.0279432845740906e+00 -4.8537508063932933e+02 1.0000000000000000e+00 1.9046016321956071e+01 1.4678381787639633e+01 7.4784018320449475e+00 
122 1 2 1.0279432845740923e+00 -4.2321146887107426e+02 1.0000000000000000e+00 1.9046016321956053e+01 1.4678381787639690e+01 7.4784018320448808e+00 
120 1 2 1.0279432845740906e+00 -4.8654494376596045e+02 1.0000000000000000e+00 1.9046016321956017e+01 1.4678381787639763e+01 7.4784018320447849e+00 
79 1 2 1.0279432845740919e+00 -3.8198677469860013e+02 1.0000000000000000e+00 1.9046016321956046e+01 1.4678381787639664e+01 7.4784018320449048e+00 
146 1 2 1.0279432845740908e+00 -4.5323403474494199e+02 1.0000000000000000e+00 1.9046016321956071e+01 1.4678381787639566e+01 7.4784018320450416e+00 
164 1 2 1.0271561128937485e+00 -4.9046220339183202e+02 1.0000000000000000e+00 1.9114906537788485e+01 1.4528321977436413e+01 7.7416960854641088e+00 
100 1 2 1.0280371372159891e+00 -3.7235585174600436e+02 1.0000000000000000e+00 1.9920426818446156e+01 1.0751698760202570e+01 9.7431625453775403e+00 
134 1 2 1.0280711485566305e+00 -5.3085007654249057e+02 1.0000000000000000e+00 1.7924139285566266e+01 1.8802639002000731e+01 6.8106889563896491e+00 
69 1 2 1.0280711484992648e+00 -4.5247933650292407e+02 1.0000000000000000e+00 1.7924136524298881e+01 1.8802639794010247e+01 6.8107004711315788e+00 
141 1 2 1.0280711485830083e+00 -5.4865064131495444e+02 1.0000000000000000e+00 1.7924140565002951e+01 1.8802638640436836e+01 6.8106836624143581e+00 
19 1 2 1.0280711485362239e+00 -5.2017618912221531e+02 1.0000000000000000e+00 1.7924138299662964e+01 1.8802639281642065e+01 6.8106930437878388e+00 
56 1 2 1.0280711485862928e+00 -4.6690932449889908e+02 1.0000000000000000e+00 1.7924140721411639e+01 1.8802638595248911e+01 6.8106830078069995e+00 
31 1 2 1.0280711485564225e+00 -5.2782535407835996e+02 1.0000000000000000e+00 1.7924139276396634e+01 1.8802639004770885e+01 6.8106889956816588e+00 
128 1 2 1.0280711486072012e+00 -4.5187321905341895e+02 1.0000000000000000e+00 1.7924141742017703e+01 1.8802638310877704e+01 6.8106788156269733e+00 
63 1 2 1.0280711486264502e+00 -4.3099123009422544e+02 1.0000000000000000e+00 1.7924142789449171e+01 1.8802638080824959e+01 6.8106749798375565e+00 
25 1 2 1.0280711485564906e+00 -5.0087707178997482e+02 1.0000000000000000e+00 1.7924139282947529e+01 1.8802639002810043e+01 6.8106889677433653e+00 
169 1 2 1.0280700259966491e+00 -5.1401827594600502e+02 1.0000000000000000e+00 1.7910599766562854e+01 1.8773340828465034e+01 6.6953707676539542e+00 
114 1 2 1.0280711708306043e+00 -5.2018796815650705e+02 1.0000000000000000e+00 1.7926344174103310e+01 1.8802257008320218e+01 6.8036821834885890e+00 
92 1 2 1.0280711652429675e+00 -4.4750977435005245e+02 1.0000000000000000e+00 1.7925411045846506e+01 1.8802501464967925e+01 6.8071779979581590e+00 
91 1 2 1.0280711559426108e+00 -3.7561749762338411e+02 1.0000000000000000e+00 1.7924197692802899e+01 1.8802419708859809e+01 6.8089337186074799e+00 
21 1 2 1.0280711485510086e+00 -4.6405574340592045e+02 1.0000000000000000e+00 1.7924139013785762e+01 1.8802639079051488e+01 6.8106900828497761e+00 
62 1 2 1.0280711485514664e+00 -5.1090496754542005e+02 1.0000000000000000e+00 1.7924139034741220e+01 1.8802639073268139e+01 6.8106899971857731e+00 
55 1 2 1.0280711485669753e+00 -4.5545963852276611e+02 1.0000000000000000e+00 1.7924139790039451e+01 1.8802638860470363e+01 6.8106868767592550e+00 
98 1 2 1.0280711485558771e+00 -4.9772518013065098e+02 1.0000000000000000e+00 1.7924139249177312e+01 1.8802639012509843e+01 6.8106891086666650e+00 
129 1 2 1.0280711485116119e+00 -4.6710475270080764e+02 1.0000000000000000e+00 1.7924137246962513e+01 1.8802639660557187e+01 6.8106980147376026e+00 
68 1 2 1.0280711483906233e+00 -4.8136671988224839e+02 1.0000000000000000e+00 1.7924131246842283e+01 1.8802641268766159e+01 6.8107221886522513e+00 
135 1 2 1.0280711485841638e+00 -5.1475442065532866e+02 1.0000000000000000e+00 1.7924140818242691e+01 1.8802638685779222e+01 6.8106834970226524e+00 
104 1 2 1.0280711485549769e+00 -4.9130223754096733e+02 1.0000000000000000e+00 1.7924139207031057e+01 1.8802639024496106e+01 6.8106892836338915e+00 
177 1 2 1.0280711485561453e+00 -5.8586778357369121e+02 1.0000000000000000e+00 1.7924139266079067e+01 1.8802639007354308e+01 6.8106890358615146e+00 
70 1 2 1.0280711485509046e+00 -4.1551720693073054e+02 1.0000000000000000e+00 1.7924139012840346e+01 1.8802639079868666e+01 6.8106900909095778e+00 
67 1 2 1.0280711485543408e+00 -4.4167719604868432e+02 1.0000000000000000e+00 1.7924139172748465e+01 1.8802639034312641e+01 6.8106894264652702e+00 
20 1 2 1.0280711485546365e+00 -5.0596889690700397e+02 1.0000000000000000e+00 1.7924139190538611e+01 1.8802639029481277e+01 6.8106893543276508e+00 
61 1 2 1.0280711485565994e+00 -4.9005672373331299e+02 1.0000000000000000e+00 1.7924139288655432e+01 1.8802639000959243e+01 6.8106889423289756e+00 
161 1 2 1.0280200062283442e+00 -6.2737714998600302e+02 1.0000000000000000e+00 1.7924401670900078e+01 1.8170323424173702e+01 6.1285874646739726e+00 
32 1 2 1.0280711105486380e+00 -6.3865542524556679e+02 1.0000000000000000e+00 1.7922691198534000e+01 1.8803109083509771e+01 6.8174004948557769e+00 
170 1 2 1.0280711492523504e+00 -5.8110144528930675e+02 1.0000000000000000e+00 1.7924173532794551e+01 1.8802629549001797e+01 6.8105490598052052e+00 
87 1 2 1.0280711485734946e+00 -4.0969246848819807e+02 1.0000000000000000e+00 1.7924139919734024e+01 1.8802638717441095e+01 6.8106855371606594e+00 
33 1 2 1.0280711485176042e+00 -5.2934528192169171e+02 1.0000000000000000e+00 1.7924137394390282e+01 1.8802639538847913e+01 6.8106968003650978e+00 
105 1 2 1.0280711485304115e+00 -3.8322454787228259e+02 1.0000000000000000e+00 1.7924138020176244e+01 1.8802639361791329e+01 6.8106942091418201e+00 
172 1 2 1.0280711485540408e+00 -4.5813479550288986e+02 1.0000000000000000e+00 1.7924139161209702e+01 1.8802639037369300e+01 6.8106894726661356e+00 
57 1 2 1.0280711487266492e+00 -4.4950653167522847e+02 1.0000000000000000e+00 1.7924147567079093e+01 1.8802636682532221e+01 6.8106548528197202e+00 

Velocities

94 1.5237118043704806e-02 -1.2556278144938303e-02 -8.8486155460647722e-03
166 1.5125285068554440e-02 -1.1992204776287792e-02 -8.4301274684967370e-03
140 1.5134734128681432e-02 -1.1984396766562348e-02 -8.4252380044079461e-03
64 1.5152330746148546e-02 -1.1964252753172580e-02 -8.4055927121317164e-03
136 1.5180299259727761e-02 -1.1939141723240045e-02 -8.3833688747914636e-03
130 1.5400679094380349e-02 -1.1806145844490802e-02 -8.2491094604694136e-03
16 2.5563797886640739e-02 -2.0316871483862530e-02 -1.1211532653138036e-02
65 2.5563797886642335e-02 -2.0316871483856858e-02 -1.1211532653130261e-02
97 2.5563797886438006e-02 -2.0316871483835999e-02 -1.1211532653198955e-02
176 2.5563797866015280e-02 -2.0316871480873099e-02 -1.1211532658944045e-02
133 2.5563797857936169e-02 -2.0316871479502029e-02 -1.1211532660969867e-02
53 2.5563797886640510e-02 -2.0316871483861017e-02 -1.1211532653135001e-02
22 2.5563797886643404e-02 -2.0316871483853079e-02 -1.1211532653125003e-02
34 2.5563797886893745e-02 -2.0316871483918617e-02 -1.1211532653092913e-02
60 2.5563797886643404e-02 -2.0316871483853079e-02 -1.1211532653125003e-02
95 2.5563797886642488e-02 -2.0316871483856486e-02 -1.1211532653130185e-02
52 2.5563797886640080e-02 -2.0316871483865528e-02 -1.1211532653139620e-02
72 2.5563797886642214e-02 -2.0316871483856976e-02 -1.1211532653129975e-02
27 2.5563797887021830e-02 -2.0316871483905968e-02 -1.1211532653028220e-02
102 2.5563797886640368e-02 -2.0316871483866527e-02 -1.1211532653142531e-02
24 2.5563797886639990e-02 -2.0316871483865278e-02 -1.1211532653142224e-02
171 2.5563797886586571e-02 -2.0316871483849561e-02 -1.1211532653146757e-02
17 2.5563797886640389e-02 -2.0316871483865434e-02 -1.1211532653141716e-02
30 2.5563797886642273e-02 -2.0316871483856355e-02 -1.1211532653131183e-02
93 2.5563797886644320e-02 -2.0316871483864081e-02 -1.1211532653137790e-02
107 2.5563797886641374e-02 -2.0316871483859310e-02 -1.1211532653133349e-02
103 2.5563797886673855e-02 -2.0316871483857336e-02 -1.1211532653114965e-02
36 2.5563797886640503e-02 -2.0316871483863352e-02 -1.1211532653139808e-02
66 2.5563797886640871e-02 -2.0316871483861604e-02 -1.1211532653135771e-02
58 2.5563797886639185e-02 -2.0316871483873396e-02 -1.1211532653149227e-02
101 2.5563797886640111e-02 -2.0316871483865826e-02 -1.1211532653140567e-02
139 2.5563797893176830e-02 -2.0316871484617569e-02 -1.1211532651097226e-02
35 2.5563797886642023e-02 -2.0316871483856708e-02 -1.1211532653129552e-02
71 2.5563797886641999e-02 -2.0316871483859921e-02 -1.1211532653133982e-02
18 2.5563797886641690e-02 -2.0316871483861472e-02 -1.1211532653134676e-02
29 2.5563797886640583e-02 -2.0316871483866045e-02 -1.1211532653140050e-02
28 2.5563797886642287e-02 -2.0316871483856497e-02 -1.1211532653128881e-02
106 2.5563797886683701e-02 -2.0316871483852812e-02 -1.1211532653106362e-02
23 2.5563797886642349e-02 -2.0316871483856906e-02 -1.1211532653131488e-02
59 2.5563797886641922e-02 -2.0316871483858970e-02 -1.1211532653132369e-02
15 2.0654206242874958e-02 -1.9099187264647984e-02 -1.1302385503515176e-02
3 2.0654206242875697e-02 -1.9099187264658476e-02 -1.1302385503514138e-02