LAMMPS data file via write_data, version 30 Jul 2016, timestep = 50000000

180 atoms
2 atom types

0.0000000000000000e+00 2.0000000000000000e+01 xlo xhi
0.0000000000000000e+00 2.0000000000000000e+01 ylo yhi
0.0000000000000000e+00 2.0000000000000000e+01 zlo zhi

Masses

1 3.896
2 4.31

Atoms # meso-molecular

1 1 2 1.0279999999998346e+00 -2.1648353143932758e+02 1.0000000000000000e+00 6.2050147075168356e+00 1.6697272880821881e+01 1.1992689321571013e+00 
67 1 2 1.0279999999998688e+00 -2.4423994517290390e+02 1.0000000000000000e+00 6.2050147075055087e+00 1.6697272880818705e+01 1.1992689320611691e+00 
2 1 2 1.0279999999998688e+00 -2.3384960486886237e+02 1.0000000000000000e+00 6.2050147075055087e+00 1.6697272880818705e+01 1.1992689320611691e+00 
32 1 2 1.0279999999998846e+00 -2.7648323173194098e+02 1.0000000000000000e+00 6.2050147075032243e+00 1.6697272880820531e+01 1.1992689319841183e+00 
6 1 2 1.0279999999998688e+00 -2.0535474231931730e+02 1.0000000000000000e+00 6.2050147075055087e+00 1.6697272880818705e+01 1.1992689320611691e+00 
31 1 2 1.0279999999998679e+00 -2.5453620959630058e+02 1.0000000000000000e+00 6.2050147075022570e+00 1.6697272880817522e+01 1.1992689320409897e+00 
59 1 2 1.0280000000002079e+00 -2.0361852340336827e+02 1.0000000000000000e+00 8.9309438509616470e+00 4.3097025088927221e-01 2.3068025331458908e+00 
58 1 2 1.0280000000002076e+00 -1.2596558038263730e+02 1.0000000000000000e+00 8.9309438509619987e+00 4.3097025088754271e-01 2.3068025331401740e+00 
52 1 2 1.0280000000002079e+00 -1.2476501121235830e+02 1.0000000000000000e+00 8.9309438509629420e+00 4.3097025088746582e-01 2.3068025331376618e+00 
60 1 2 1.0280000000002081e+00 -2.2938164097762012e+02 1.0000000000000000e+00 8.9309438509635086e+00 4.3097025088759994e-01 2.3068025331366582e+00 
95 1 2 1.0280000000002079e+00 -1.8339506204035251e+02 1.0000000000000000e+00 8.9309438509629420e+00 4.3097025088746582e-01 2.3068025331376618e+00 
137 1 2 1.0280000000000122e+00 -1.3496684037788538e+02 1.0000000000000000e+00 1.2921716836620220e+01 2.2727742422537247e+00 1.9667848012762235e+00 
17 1 2 1.0280000000000125e+00 -2.6429944295699124e+02 1.0000000000000000e+00 1.2921002717942581e+01 2.2730034356346591e+00 1.9667587649835425e+00 
47 1 2 1.0280000000000125e+00 -2.6793936901132508e+02 1.0000000000000000e+00 1.2920139082304502e+01 2.2732812479056106e+00 1.9667044410873020e+00 
11 1 2 1.0280000000000125e+00 -2.6085882460024681e+02 1.0000000000000000e+00 1.2920175409666294e+01 2.2732695524596447e+00 1.9667071927944872e+00 
18 1 2 1.0280000000000125e+00 -2.7463204326699770e+02 1.0000000000000000e+00 1.2920194331742701e+01 2.2732634623865922e+00 1.9667085964314235e+00 
12 1 2 1.0280000000000125e+00 -1.8930027031116276e+02 1.0000000000000000e+00 1.2920267840404435e+01 2.2732398353006076e+00 1.9667136754040653e+00 
134 1 2 1.0280000000000151e+00 -1.9821291730518925e+02 1.0000000000000000e+00 1.2191530890008472e+01 3.7178151281248040e-01 1.7561703920688518e+00 
103 1 2 1.0279999999999814e+00 -3.4718626223635681e+02 1.0000000000000000e+00 1.2220289612195140e+01 3.4258338956882700e-01 1.7466893455262213e+00 
27 1 2 1.0280000000002045e+00 -2.4663516050822955e+02 1.0000000000000000e+00 1.2381259809694576e+01 1.9460969635902153e-01 1.7403414314163372e+00 
21 1 2 1.0280000000001841e+00 -2.2297334852228312e+02 1.0000000000000000e+00 1.2398047893858939e+01 1.7885283217553077e-01 1.7445147866756701e+00 
108 1 2 1.0280000000000324e+00 -2.1871546266461419e+02 1.0000000000000000e+00 8.3244911215335460e+00 1.6265169401417029e-01 5.6943153086980463e+00 
36 1 2 1.0280000000000171e+00 -2.4035869809367540e+02 1.0000000000000000e+00 8.3244911215314339e+00 1.6265169401881613e-01 5.6943153086977443e+00 
30 1 2 1.0280000000000320e+00 -2.4025130308081805e+02 1.0000000000000000e+00 8.3244911215247477e+00 1.6265169402537918e-01 5.6943153086898333e+00 
66 1 2 1.0280000000000695e+00 -2.2965157966100367e+02 1.0000000000000000e+00 8.3244911215289275e+00 1.6265169401621987e-01 5.6943153086905225e+00 
72 1 2 1.0280000000000196e+00 -2.0676137220878690e+02 1.0000000000000000e+00 8.3244911215273927e+00 1.6265169402536486e-01 5.6943153086952760e+00 
128 1 2 1.0279999999999017e+00 -1.6674009833237514e+02 1.0000000000000000e+00 7.6258407366429433e+00 9.0533775311128917e+00 1.3872602236211112e+01 
164 1 2 1.0279999999997980e+00 -9.8995459482950963e+01 1.0000000000000000e+00 7.6258404690757811e+00 9.0533774668070919e+00 1.3872602044883372e+01 
129 1 2 1.0279999999997975e+00 -1.3754355655184958e+02 1.0000000000000000e+00 7.6258409878378162e+00 9.0533775916872976e+00 1.3872602416183355e+01 
135 1 2 1.0279999999999023e+00 -1.3796986271972685e+02 1.0000000000000000e+00 7.6258411713976768e+00 9.0533776359188369e+00 1.3872602547641957e+01 
144 1 2 1.0279999999999674e+00 -1.9793874868224378e+02 1.0000000000000000e+00 7.4606662339216721e+00 8.1571810443933721e+00 1.4310891972112922e+01 
138 1 2 1.0279999999999105e+00 -1.8677903472489066e+02 1.0000000000000000e+00 7.4606662339116641e+00 8.1571810443925727e+00 1.4310891972106766e+01 
102 1 2 1.0279999999999463e+00 -1.7301737546280270e+02 1.0000000000000000e+00 7.4606662339152656e+00 8.1571810443892812e+00 1.4310891972100015e+01 
101 1 2 1.0279999999999603e+00 -1.3979980406133117e+02 1.0000000000000000e+00 7.4606662339120877e+00 8.1571810443944965e+00 1.4310891972111149e+01 
156 1 2 1.0279999999999812e+00 -2.1657067202612049e+02 1.0000000000000000e+00 8.3398203528924544e+00 9.9783133833805930e+00 1.7199464608128039e+01 
162 1 2 1.0279999999999101e+00 -2.2487706153967531e+02 1.0000000000000000e+00 8.3398199691686195e+00 9.9783133648678959e+00 1.7199464487365116e+01 
126 1 2 1.0279999999998988e+00 -2.0289564062503089e+02 1.0000000000000000e+00 8.3398202846610801e+00 9.9783133835391826e+00 1.7199464580532236e+01 
119 1 2 1.0279999999999054e+00 -1.7995538701590641e+02 1.0000000000000000e+00 8.3398047143534590e+00 9.9783118925806917e+00 1.7199460993452885e+01 
161 1 2 1.0279999999999061e+00 -2.0130027031179856e+02 1.0000000000000000e+00 8.3398153611356829e+00 9.9783130900983732e+00 1.7199463130286979e+01 
167 1 2 1.0279999999998783e+00 -2.0505138348668549e+02 1.0000000000000000e+00 8.3398158311614576e+00 9.9783131200871953e+00 1.7199463265225084e+01 
16 1 2 1.0279999999999361e+00 -2.4645320178934946e+02 1.0000000000000000e+00 8.7946317775859786e+00 1.2054636538022789e+01 7.7774933345375996e-01 
10 1 2 1.0279999999999507e+00 -1.9578723691720461e+02 1.0000000000000000e+00 8.7946317775868774e+00 1.2054636538065791e+01 7.7774933346830655e-01 
46 1 2 1.0279999999999350e+00 -2.2005567663478769e+02 1.0000000000000000e+00 8.7946317775871474e+00 1.2054636538051954e+01 7.7774933346342967e-01 
51 1 2 1.0279999999999361e+00 -2.2082826801431048e+02 1.0000000000000000e+00 8.7946317775859786e+00 1.2054636538022789e+01 7.7774933345375996e-01 
15 1 2 1.0279999999999350e+00 -2.5103930956198633e+02 1.0000000000000000e+00 8.7946317775871474e+00 1.2054636538051954e+01 7.7774933346342967e-01 
9 1 2 1.0279999999999361e+00 -2.2982935221306346e+02 1.0000000000000000e+00 8.7946317775859786e+00 1.2054636538022789e+01 7.7774933345375996e-01 
111 1 2 1.0280000000000344e+00 -2.2084909758796948e+02 1.0000000000000000e+00 7.5006165927570008e+00 1.4672585586878210e+01 1.3786762851682346e+00 
146 1 2 1.0279999999999687e+00 -2.4271387586771033e+02 1.0000000000000000e+00 7.5006165927629844e+00 1.4672585586884614e+01 1.3786762851797625e+00 
147 1 2 1.0279999999999780e+00 -2.5301958827847849e+02 1.0000000000000000e+00 7.5006165927437536e+00 1.4672585586875950e+01 1.3786762851653209e+00 
153 1 2 1.0279999999999687e+00 -2.0085506688342420e+02 1.0000000000000000e+00 7.5006165927629844e+00 1.4672585586884614e+01 1.3786762851797625e+00 
173 1 2 1.0279999999999263e+00 -1.0160545594002571e+01 1.0000000000000000e+00 6.7875929542732987e+00 1.4989397612623938e+01 8.3289016706655317e-01 
82 1 2 1.0280000000001648e+00 -1.6183874317360147e+02 1.0000000000000000e+00 8.9391818014897062e+00 1.5389918888470124e+01 5.9515676062368052e-02 
124 1 2 1.0280000000002509e+00 -1.4890058618809147e+02 1.0000000000000000e+00 8.9391818013631283e+00 1.5389918888471119e+01 5.9515676054003916e-02 
88 1 2 1.0280000000002785e+00 -1.3789571685244181e+02 1.0000000000000000e+00 8.9391818014281395e+00 1.5389918888474339e+01 5.9515676050093183e-02 
81 1 2 1.0279999999998606e+00 -6.0369531824449112e+01 1.0000000000000000e+00 9.8904351427961146e+00 1.9229187038610867e+01 2.6420961604990421e+00 
75 1 2 1.0279999999998484e+00 -1.0319221464693157e+02 1.0000000000000000e+00 9.8904351428531427e+00 1.9229187038613212e+01 2.6420961604986535e+00 
122 1 2 1.0279999999998446e+00 -1.4730699675420576e+02 1.0000000000000000e+00 9.8904351113675748e+00 1.9229187169170480e+01 2.6420965713289584e+00 
45 1 2 1.0279999999998484e+00 -7.6082829218788618e+01 1.0000000000000000e+00 9.8904351428126311e+00 1.9229187038613070e+01 2.6420961605037658e+00 
42 1 2 1.0279999999999210e+00 -1.5317701761331446e+02 1.0000000000000000e+00 1.2603154078333928e+01 1.8086561998191815e+01 3.2533636755641466e+00 
48 1 2 1.0279999999999214e+00 -1.5515431500966938e+02 1.0000000000000000e+00 1.2603154078336333e+01 1.8086561998185630e+01 3.2533636755639508e+00 
41 1 2 1.0279999999999210e+00 -1.5522045372947451e+02 1.0000000000000000e+00 1.2603154078335105e+01 1.8086561998197482e+01 3.2533636755609896e+00 
53 1 2 1.0279999999998821e+00 -2.8616514447759153e+02 1.0000000000000000e+00 1.2724880755998743e+01 1.8383437629048110e+01 2.7116448193121636e+00 
23 1 2 1.0279999999999381e+00 -2.6501497043224845e+02 1.0000000000000000e+00 1.2725841472038731e+01 1.8386523566655839e+01 2.7094310829765029e+00 
24 1 2 1.0279999999999347e+00 -2.4127802982355001e+02 1.0000000000000000e+00 1.2726026111556322e+01 1.8387115393973993e+01 2.7090100749833361e+00 
79 1 2 1.0280000000000347e+00 -1.5842404940344900e+02 1.0000000000000000e+00 7.8808823470534675e+00 1.3313624507504553e+01 3.9703728332044959e+00 
115 1 2 1.0280000000000225e+00 -1.5710093785583410e+02 1.0000000000000000e+00 7.8807723167135446e+00 1.3313513978825039e+01 3.9705617058817637e+00 
116 1 2 1.0280000000000269e+00 -1.9064683668299722e+02 1.0000000000000000e+00 7.8792185140035285e+00 1.3311969754666817e+01 3.9732076972991708e+00 
80 1 2 1.0279999999999891e+00 -1.3942032177225283e+02 1.0000000000000000e+00 7.8779460914026513e+00 1.3310712276799959e+01 3.9753964881430353e+00 
92 1 2 1.0279999999998113e+00 -2.6725776371224964e+02 1.0000000000000000e+00 9.7537728204295320e+00 1.5960164202764552e+01 5.1544819857252229e+00 
98 1 2 1.0279999999998124e+00 -2.1243991251747963e+02 1.0000000000000000e+00 9.7536907010530722e+00 1.5960234045972721e+01 5.1544608514994552e+00 
97 1 2 1.0279999999998151e+00 -2.3769423415904137e+02 1.0000000000000000e+00 9.7535438821898737e+00 1.5960420410769565e+01 5.1544115210623449e+00 
61 1 2 1.0279999999998159e+00 -2.3793072722488495e+02 1.0000000000000000e+00 9.7534574673152736e+00 1.5960513290818172e+01 5.1543857141251976e+00 
91 1 2 1.0279999999998157e+00 -2.4849626037280206e+02 1.0000000000000000e+00 9.7535118601697661e+00 1.5960453584098246e+01 5.1544021883943270e+00 
120 1 2 1.0279999999997258e+00 -1.9251705647482231e+02 1.0000000000000000e+00 9.9366366278876743e+00 1.6321324438398452e+01 6.1783169766281230e+00 
34 1 2 1.0279999999999305e+00 -2.4834503096111123e+02 1.0000000000000000e+00 7.4010990282620366e+00 1.4093918799203205e+01 4.6213308500593469e+00 
65 1 2 1.0279999999999789e+00 -2.3359709433010721e+02 1.0000000000000000e+00 7.4010990282613944e+00 1.4093918799193430e+01 4.6213308500654824e+00 
29 1 2 1.0280000000000065e+00 -3.0755784252200135e+02 1.0000000000000000e+00 7.4010990282666613e+00 1.4093918799195984e+01 4.6213308500693699e+00 
28 1 2 1.0279999999999805e+00 -2.6376469656748719e+02 1.0000000000000000e+00 7.3973795861118088e+00 1.4088420207824987e+01 4.6211288290130490e+00 
133 1 2 1.0279999999998837e+00 -2.7707183793276050e+02 1.0000000000000000e+00 1.2281889762614197e+01 1.6450882438057167e+01 4.9618865909908338e+00 
69 1 2 1.0279999999998697e+00 -1.3998731371519909e+02 1.0000000000000000e+00 1.2351070841162208e+01 1.6370981416090967e+01 4.9852087335866706e+00 
105 1 2 1.0279999999998701e+00 -1.3341567373188175e+02 1.0000000000000000e+00 1.2351070841154579e+01 1.6370981416106698e+01 4.9852087335834954e+00 
22 1 2 1.0280000000003457e+00 -1.6190624865785006e+02 1.0000000000000000e+00 1.2410933472062842e+01 1.6327268012888226e+01 4.9946361081822408e+00 
139 1 2 1.0280000000001859e+00 -3.5239700317778158e+02 1.0000000000000000e+00 1.2529786953291847e+01 1.6254807636327502e+01 5.0045133593916882e+00 
8 1 2 1.0280000000001110e+00 -2.3460132390168883e+02 1.0000000000000000e+00 6.8667689449370375e+00 1.9550188852416227e+01 6.5223573296331967e+00 
7 1 2 1.0280000000000424e+00 -2.3201950804941811e+02 1.0000000000000000e+00 6.8667689449389346e+00 1.9550188852397749e+01 6.5223573296261588e+00 
14 1 2 1.0280000000001031e+00 -1.8418535217178146e+02 1.0000000000000000e+00 6.8667689449379186e+00 1.9550188852408176e+01 6.5223573296300863e+00 
20 1 2 1.0280000000000633e+00 -1.7675158392875250e+02 1.0000000000000000e+00 6.8667689449411178e+00 1.9550188852398797e+01 6.5223573296307835e+00 
13 1 2 1.0280000000000902e+00 -2.6101070991754341e+02 1.0000000000000000e+00 6.8667689449390803e+00 1.9550188852407921e+01 6.5223573296322197e+00 
104 1 2 1.0280000000000287e+00 -2.5969704319998363e+02 1.0000000000000000e+00 8.2546421078144192e+00 1.6477105256709109e+01 7.1579335658562213e+00 
109 1 2 1.0280000000000289e+00 -1.4405688323851140e+02 1.0000000000000000e+00 8.2543281293536612e+00 1.6475550749749114e+01 7.1575477332631072e+00 
176 1 2 1.0280000000000291e+00 -1.9876854014286045e+02 1.0000000000000000e+00 8.2543425819970331e+00 1.6475917689145096e+01 7.1575705083268355e+00 
73 1 2 1.0280000000000280e+00 -1.5739421803458359e+02 1.0000000000000000e+00 8.2543281460968387e+00 1.6475550786190453e+01 7.1575477532427554e+00 
110 1 2 1.0280000000000289e+00 -1.4333163986753939e+02 1.0000000000000000e+00 8.2543281683973984e+00 1.6475551597531144e+01 7.1575477928838724e+00 
140 1 2 1.0280000000000289e+00 -2.3906912534424347e+02 1.0000000000000000e+00 8.2543386813651640e+00 1.6475760457783618e+01 7.1575634491788316e+00 
121 1 2 1.0279999999998579e+00 -1.8204850433683174e+02 1.0000000000000000e+00 7.9939666746773819e+00 1.7897306087931387e+01 1.0044281242344615e+01 
127 1 2 1.0279999999998579e+00 -2.0929182547167227e+02 1.0000000000000000e+00 7.9939666746083136e+00 1.7897306087843479e+01 1.0044281242400023e+01 
85 1 2 1.0279999999998577e+00 -1.7317215947249230e+02 1.0000000000000000e+00 7.9939666748430271e+00 1.7897306088139693e+01 1.0044281242213160e+01 
90 1 2 1.0279999999998577e+00 -1.5354143612797282e+02 1.0000000000000000e+00 7.9939666747879068e+00 1.7897306088069129e+01 1.0044281242257606e+01 
96 1 2 1.0279999999998579e+00 -1.8207956345667517e+02 1.0000000000000000e+00 7.9939666747284699e+00 1.7897306087994998e+01 1.0044281242304429e+01 
177 1 2 1.0279999999999854e+00 -1.3011871299341297e+02 1.0000000000000000e+00 7.9298203637923734e+00 1.7868186693992634e+01 1.0042044065701594e+01 
178 1 2 1.0279999999999785e+00 -1.3342595981566575e+02 1.0000000000000000e+00 7.9277900894884619e+00 1.7871272329713744e+01 1.0039966679062969e+01 
143 1 2 1.0280000000001313e+00 -1.7382387221521827e+02 1.0000000000000000e+00 9.0926554219109104e+00 1.6341079834338355e+01 1.6231614624630236e+01 
5 1 2 1.0280000000001313e+00 -3.7668539239263694e+01 1.0000000000000000e+00 9.0926554219109104e+00 1.6341079834338355e+01 1.6231614624630236e+01 
71 1 2 1.0280000000001313e+00 -1.7886271114941212e+02 1.0000000000000000e+00 9.0926554219109104e+00 1.6341079834338355e+01 1.6231614624630236e+01 
106 1 2 1.0280000000001313e+00 -1.9731416168139236e+02 1.0000000000000000e+00 9.0926554219109104e+00 1.6341079834338355e+01 1.6231614624630236e+01 
107 1 2 1.0280000000001313e+00 -2.4555955670398191e+02 1.0000000000000000e+00 9.0926554219109104e+00 1.6341079834338355e+01 1.6231614624630236e+01 
4 1 2 1.0280000000001313e+00 -2.1137608000744478e+01 1.0000000000000000e+00 9.0926554219109104e+00 1.6341079834338355e+01 1.6231614624630236e+01 
70 1 2 1.0280000000001313e+00 -2.0549567110360078e+02 1.0000000000000000e+00 9.0926554219109104e+00 1.6341079834338355e+01 1.6231614624630236e+01 
136 1 2 1.0280000000000373e+00 -1.5977108224836309e+02 1.0000000000000000e+00 9.5054221593558061e+00 1.2772961671631611e+01 1.7884779967465875e+01 
142 1 2 1.0279999999999900e+00 -8.9386539865117953e+01 1.0000000000000000e+00 9.5048331293129706e+00 1.2771834337954337e+01 1.7883749554061389e+01 
171 1 2 1.0280000000000080e+00 -1.4363611012957438e+02 1.0000000000000000e+00 9.5096531989356254e+00 1.2780636658444370e+01 1.7892213740094796e+01 
141 1 2 1.0279999999999938e+00 -1.4545379602781810e+02 1.0000000000000000e+00 9.5096332665597227e+00 1.2780600791197353e+01 1.7892178613071071e+01 
131 1 2 1.0280000000000502e+00 -1.2482281990369714e+02 1.0000000000000000e+00 7.9535356852544012e+00 1.1258847615536604e+01 1.9179912822529388e+01 
130 1 2 1.0280000000000860e+00 -1.3312028713348985e+02 1.0000000000000000e+00 7.9535356852853356e+00 1.1258847615537276e+01 1.9179912822577840e+01 
54 1 2 1.0279999999998990e+00 -1.7571471450959524e+02 1.0000000000000000e+00 7.5815578193314117e+00 1.1703687154040219e+01 1.7899820260365477e+01 
49 1 2 1.0279999999997838e+00 -1.8511328474224015e+02 1.0000000000000000e+00 7.5815578193314908e+00 1.1703687154039685e+01 1.7899820260363263e+01 
33 1 2 1.0279999999999694e+00 -1.4098668706864845e+02 1.0000000000000000e+00 8.3800393790642751e+00 1.3510878181623193e+01 1.8116946765846972e+01 
39 1 2 1.0280000000000353e+00 -2.4899161250109023e+02 1.0000000000000000e+00 8.3800393790621719e+00 1.3510878181621614e+01 1.8116946765848983e+01 
3 1 2 1.0280000000000438e+00 -2.5560763743728245e+02 1.0000000000000000e+00 8.3800393790598768e+00 1.3510878181624305e+01 1.8116946765856870e+01 
172 1 2 1.0280000000000358e+00 -1.5493393979877999e+02 1.0000000000000000e+00 1.0260391749504254e+01 1.5405950288641789e+01 1.9089148963459138e+01 
165 1 2 1.0280000000000062e+00 -1.5629094668730900e+02 1.0000000000000000e+00 1.0259340952822779e+01 1.5408784111830482e+01 1.9088678476113259e+01 
159 1 2 1.0280000000000120e+00 -1.7626752322690749e+02 1.0000000000000000e+00 1.0259340952826044e+01 1.5408784111820456e+01 1.9088678476126340e+01 
166 1 2 1.0280000000000220e+00 -1.8436585299121447e+02 1.0000000000000000e+00 1.0259340952824319e+01 1.5408784111824783e+01 1.9088678476126713e+01 
160 1 2 1.0280000000000435e+00 -1.5403976405495465e+02 1.0000000000000000e+00 1.0259340952823154e+01 1.5408784111831235e+01 1.9088678476091541e+01 
40 1 2 1.0280000000000449e+00 -2.2189336371136596e+02 1.0000000000000000e+00 1.3015005486700087e+01 1.6421344725045927e+01 1.8683590192446680e+01 
113 1 2 1.0280000000000931e+00 -2.6875580127158366e+02 1.0000000000000000e+00 1.3015005486692448e+01 1.6421344725032558e+01 1.8683590192460290e+01 
76 1 2 1.0279999999999916e+00 -2.9760688395190806e+02 1.0000000000000000e+00 1.3015005486694008e+01 1.6421344725051256e+01 1.8683590192445415e+01 
112 1 2 1.0280000000000793e+00 -1.6934136424388763e+02 1.0000000000000000e+00 1.3015005486695079e+01 1.6421344725025019e+01 1.8683590192464504e+01 
77 1 2 1.0280000000000924e+00 -2.8499509671823603e+02 1.0000000000000000e+00 1.3015005486682721e+01 1.6421344725039788e+01 1.8683590192459583e+01 
175 1 2 1.0279999999998950e+00 -2.6758731118103185e+02 1.0000000000000000e+00 1.2856792605951144e+01 1.8942281456311928e+01 1.9068266679243596e+01 
174 1 2 1.0279999999999148e+00 -1.8905052013492696e+02 1.0000000000000000e+00 1.2856792605950899e+01 1.8942281456316834e+01 1.9068266679241656e+01 
150 1 2 1.0279999999998692e+00 -1.9598423669260828e+02 1.0000000000000000e+00 1.2856792605950730e+01 1.8942281456343199e+01 1.9068266679233311e+01 
180 1 2 1.0279999999998504e+00 -2.6556464264815969e+02 1.0000000000000000e+00 1.2856792605950798e+01 1.8942281456313133e+01 1.9068266679242981e+01 
50 1 2 1.0280000000001255e+00 -2.1200354879312999e+02 1.0000000000000000e+00 1.3875369746153144e+01 1.5245465731352079e-01 1.7463374213872093e+01 
56 1 2 1.0280000000001275e+00 -2.2832620661489707e+02 1.0000000000000000e+00 1.3873122639108871e+01 1.5319243813764771e-01 1.7463503594600489e+01 
145 1 2 1.0280000000000444e+00 -9.7084540773531600e+01 1.0000000000000000e+00 1.3758859219047530e+01 1.4207599200196960e-01 1.7430595936070507e+01 
179 1 2 1.0280000000000564e+00 -1.4581177438533979e+02 1.0000000000000000e+00 1.3691763991835440e+01 1.4017888952530907e-01 1.7430162905422218e+01 
149 1 2 1.0280000000000489e+00 -1.4739605530407130e+02 1.0000000000000000e+00 1.3691763991836462e+01 1.4017888948278470e-01 1.7430162905378552e+01 
114 1 2 1.0279999999999618e+00 -1.3927009863494095e+02 1.0000000000000000e+00 1.4677194712245331e+01 1.6011017110715471e+01 7.2110487519688582e-01 
78 1 2 1.0279999999999638e+00 -1.3136262610961452e+02 1.0000000000000000e+00 1.4677194712235512e+01 1.6011017110711084e+01 7.2110487519447364e-01 
83 1 2 1.0280000000002407e+00 -2.1603606275315514e+02 1.0000000000000000e+00 1.4214590227964049e+01 1.5855104360219345e+01 4.9866643356032997e-01 
84 1 2 1.0280000000000946e+00 -1.9797158882997221e+02 1.0000000000000000e+00 1.4212307444902871e+01 1.5843360366910158e+01 4.7410781503493593e-01 
89 1 2 1.0280000000000320e+00 -2.0143129939758708e+02 1.0000000000000000e+00 1.4210113557443844e+01 1.5839239085038827e+01 4.6454600732574547e-01 
26 1 2 1.0280000000002443e+00 -1.6869184520468247e+02 1.0000000000000000e+00 1.6582181533440476e+01 1.8692766217995597e+01 2.0619950733839896e+00 
25 1 2 1.0280000000001888e+00 -1.8916690789929800e+02 1.0000000000000000e+00 1.6582181533443379e+01 1.8692766217995832e+01 2.0619950733837866e+00 
132 1 2 1.0280000000002665e+00 -9.5935277903999335e+01 1.0000000000000000e+00 1.6582181533519897e+01 1.8692766218042941e+01 2.0619950733229215e+00 
168 1 2 1.0280000000001632e+00 -9.4296994404720493e+01 1.0000000000000000e+00 1.6582181533522878e+01 1.8692766218064236e+01 2.0619950732989363e+00 
19 1 2 1.0280000000001661e+00 -2.3466468755656143e+02 1.0000000000000000e+00 1.6582181533437332e+01 1.8692766217984857e+01 2.0619950733969712e+00 
55 1 2 1.0280000000001426e+00 -2.1683706080308917e+02 1.0000000000000000e+00 1.6582181533437897e+01 1.8692766217988467e+01 2.0619950733929344e+00 
125 1 2 1.0280000000001750e+00 -1.7869409167854468e+02 1.0000000000000000e+00 1.4665762064845930e+01 1.7308780858303450e+01 6.5529585927727385e-01 
117 1 2 1.0279999999997920e+00 -2.0245151658038236e+02 1.0000000000000000e+00 1.6533480011363181e+01 1.7335074497135693e+01 1.2617755392965654e-01 
155 1 2 1.0279999999997909e+00 -2.0378874838022898e+02 1.0000000000000000e+00 1.6533480011355120e+01 1.7335074497138560e+01 1.2617755392146868e-01 
148 1 2 1.0279999999996989e+00 -2.3990555974965196e+02 1.0000000000000000e+00 1.6530116394084203e+01 1.7345760131058960e+01 1.1999026143603241e-01 
118 1 2 1.0279999999997091e+00 -2.0302955835751015e+02 1.0000000000000000e+00 1.6530116394087482e+01 1.7345760131086024e+01 1.1999026143125134e-01 
154 1 2 1.0279999999996841e+00 -2.4470493938475448e+02 1.0000000000000000e+00 1.6530116394086306e+01 1.7345760131107660e+01 1.1999026142393648e-01 
37 1 2 1.0279999999996334e+00 -1.4290501831188485e+02 1.0000000000000000e+00 1.3720757940325214e+01 1.5089004685647698e+01 3.3903805548732984e+00 
74 1 2 1.0279999999996654e+00 -1.7125848073082776e+02 1.0000000000000000e+00 1.3720758470319865e+01 1.5089005270001547e+01 3.3903796106878779e+00 
38 1 2 1.0279999999996450e+00 -1.7656734935530343e+02 1.0000000000000000e+00 1.3720758470321631e+01 1.5089005269989210e+01 3.3903796107199948e+00 
68 1 2 1.0279999999996676e+00 -1.8966388587473662e+02 1.0000000000000000e+00 1.3720758470325560e+01 1.5089005269984904e+01 3.3903796107348168e+00 
44 1 2 1.0279999999996681e+00 -1.4415765517491855e+02 1.0000000000000000e+00 1.3720757940324315e+01 1.5089004685682319e+01 3.3903805547867414e+00 
43 1 2 1.0279999999996343e+00 -1.4085406937323697e+02 1.0000000000000000e+00 1.3720757940327712e+01 1.5089004685670016e+01 3.3903805548201555e+00 
35 1 2 1.0280000000000917e+00 -1.7383906475394994e+02 1.0000000000000000e+00 1.6700449043544410e+01 1.4924860596854353e+01 3.9833258888112049e+00 
170 1 2 1.0279999999999565e+00 -1.6009220953089888e+02 1.0000000000000000e+00 1.6863295882851585e+01 1.4908793869119162e+01 4.2574094738158426e+00 
163 1 2 1.0279999999998557e+00 -1.7083433159522676e+02 1.0000000000000000e+00 1.6863295882864481e+01 1.4908793869108401e+01 4.2574094737713715e+00 
169 1 2 1.0279999999999536e+00 -1.9559328014394049e+02 1.0000000000000000e+00 1.6863295882876827e+01 1.4908793869121142e+01 4.2574094738288730e+00 
57 1 2 1.0279999999997482e+00 -2.5018516588380908e+02 1.0000000000000000e+00 1.6959399721110241e+01 1.5627812775483230e+01 4.8318489356679093e+00 
100 1 2 1.0279999999999858e+00 -1.4981836004892540e+02 1.0000000000000000e+00 1.7242246672877972e+01 1.6275662970978139e+01 3.8560850024073474e+00 
99 1 2 1.0279999999999048e+00 -1.4942789572271357e+02 1.0000000000000000e+00 1.7242246672882555e+01 1.6275662970955008e+01 3.8560850023340083e+00 
93 1 2 1.0279999999999929e+00 -1.7252112678243839e+02 1.0000000000000000e+00 1.7242246672887298e+01 1.6275662970961687e+01 3.8560850023673501e+00 
94 1 2 1.0279999999998379e+00 -1.3650446483772129e+02 1.0000000000000000e+00 1.7242246672878281e+01 1.6275662970968455e+01 3.8560850023718873e+00 
123 1 2 1.0279999999997511e+00 -2.1545288814921611e+02 1.0000000000000000e+00 1.5019896167633199e+01 1.6611000416272219e+01 6.9624353982445886e+00 
151 1 2 1.0279999999997511e+00 -1.8632242602621903e+02 1.0000000000000000e+00 1.5019896167633199e+01 1.6611000416272219e+01 6.9624353982445886e+00 
157 1 2 1.0279999999997511e+00 -1.9598904677823262e+02 1.0000000000000000e+00 1.5019896167633199e+01 1.6611000416272219e+01 6.9624353982445886e+00 
86 1 2 1.0279999999997511e+00 -2.1405348454489126e+02 1.0000000000000000e+00 1.5019896167633199e+01 1.6611000416272219e+01 6.9624353982445886e+00 
87 1 2 1.0279999999997511e+00 -2.2183223789140931e+02 1.0000000000000000e+00 1.5019896167633199e+01 1.6611000416272219e+01 6.9624353982445886e+00 
158 1 2 1.0279999999997511e+00 -1.6954377257806098e+02 1.0000000000000000e+00 1.5019896167633199e+01 1.6611000416272219e+01 6.9624353982445886e+00 
152 1 2 1.0279999999997511e+00 -2.1263518551841477e+02 1.0000000000000000e+00 1.5019896167633199e+01 1.6611000416272219e+01 6.9624353982445886e+00 
62 1 2 1.0280000000003056e+00 -1.7087091971098485e+02 1.0000000000000000e+00 1.4484958187490426e+01 1.9429001278035646e+01 1.7885302499355738e+01 
64 1 2 1.0279999999998832e+00 -1.9719248059445329e+02 1.0000000000000000e+00 1.4320094684260065e+01 1.8241746171860264e+01 1.8437955654087041e+01 
63 1 2 1.0279999999999763e+00 -2.1201655265535223e+02 1.0000000000000000e+00 1.4320024657768938e+01 1.8243041162376112e+01 1.8436708498390519e+01 

Velocities

1 2.2608791436952355e-01 5.6265727419459351e-02 2.9844432534073068e-01
67 2.2608791436952741e-01 5.6265727419458511e-02 2.9844432534073712e-01
2 2.2608791436952741e-01 5.6265727419458511e-02 2.9844432534073712e-01
32 2.2608791436952075e-01 5.6265727419457373e-02 2.9844432534073634e-01
6 2.2608791436952741e-01 5.6265727419458511e-02 2.9844432534073712e-01
31 2.2608791436952297e-01 5.6265727419459163e-02 2.9844432534073712e-01
59 2.2608791435569761e-01 5.6265727420690519e-02 2.9844432534524851e-01
58 2.2608791435569911e-01 5.6265727420688784e-02 2.9844432534524884e-01
52 2.2608791435569861e-01 5.6265727420689325e-02 2.9844432534524862e-01
60 2.2608791435569855e-01 5.6265727420689450e-02 2.9844432534524873e-01
95 2.2608791435569861e-01 5.6265727420689325e-02 2.9844432534524862e-01
137 2.2608791435963244e-01 5.6265727426243660e-02 2.9844432534293619e-01
17 2.2608791435963946e-01 5.6265727426246234e-02 2.9844432534293647e-01
47 2.2608791435964759e-01 5.6265727426249190e-02 2.9844432534293686e-01
11 2.2608791435964729e-01 5.6265727426249343e-02 2.9844432534293674e-01
18 2.2608791435964701e-01 5.6265727426248767e-02 2.9844432534293680e-01
12 2.2608791435964642e-01 5.6265727426248739e-02 2.9844432534293680e-01
134 2.2608791435976497e-01 5.6265727426280152e-02 2.9844432534426707e-01
103 2.2608791435976849e-01 5.6265727426197835e-02 2.9844432534433774e-01
27 2.2608791436000808e-01 5.6265727425465421e-02 2.9844432534289350e-01
21 2.2608791436015152e-01 5.6265727425341173e-02 2.9844432534276616e-01
108 2.2608791436248307e-01 5.6265727421442382e-02 2.9844432534270515e-01
36 2.2608791436235168e-01 5.6265727421379627e-02 2.9844432534275234e-01
30 2.2608791436247797e-01 5.6265727421439371e-02 2.9844432534270698e-01
66 2.2608791436288769e-01 5.6265727421615681e-02 2.9844432534257953e-01
72 2.2608791436237555e-01 5.6265727421390035e-02 2.9844432534274473e-01
128 2.2608791436137027e-01 5.6265727422627851e-02 2.9844432534545240e-01
164 2.2608791436124323e-01 5.6265727421836657e-02 2.9844432534597098e-01
129 2.2608791436124345e-01 5.6265727421836734e-02 2.9844432534596915e-01
135 2.2608791436137052e-01 5.6265727422630085e-02 2.9844432534545157e-01
144 2.2608791436232481e-01 5.6265727427696498e-02 2.9844432534280352e-01
138 2.2608791436232378e-01 5.6265727428081551e-02 2.9844432534267235e-01
102 2.2608791436233877e-01 5.6265727427823251e-02 2.9844432534276572e-01
101 2.2608791436232409e-01 5.6265727427718737e-02 2.9844432534280341e-01
156 2.2608791436276035e-01 5.6265727426801214e-02 2.9844432534171161e-01
162 2.2608791436274486e-01 5.6265727426868271e-02 2.9844432534171439e-01
126 2.2608791436274592e-01 5.6265727426876209e-02 2.9844432534172782e-01
119 2.2608791436273645e-01 5.6265727426877625e-02 2.9844432534170917e-01
161 2.2608791436273701e-01 5.6265727426904888e-02 2.9844432534172499e-01
167 2.2608791436273917e-01 5.6265727426921028e-02 2.9844432534176590e-01
16 2.2608791436408021e-01 5.6265727426132582e-02 2.9844432534209586e-01
10 2.2608791436411266e-01 5.6265727426107935e-02 2.9844432534216786e-01
46 2.2608791436407749e-01 5.6265727426135330e-02 2.9844432534209064e-01