LAMMPS data file via write_data, version 30 Jul 2016, timestep = 50400000

180 atoms
2 atom types

0.0000000000000000e+00 2.0000000000000000e+01 xlo xhi
0.0000000000000000e+00 2.0000000000000000e+01 ylo yhi
0.0000000000000000e+00 2.0000000000000000e+01 zlo zhi

Masses

1 3.896
2 4.31

Atoms # meso-molecular

145 1 2 1.0280000000000780e+00 -9.7084540773531600e+01 1.0000000000000000e+00 2.8023757934856031e+00 2.3927050889647412e+00 9.3683689495744531e+00 
149 1 2 1.0280000000000935e+00 -1.4739605530407130e+02 1.0000000000000000e+00 2.7352805662785236e+00 2.3908079864458629e+00 9.3679359188842959e+00 
179 1 2 1.0280000000000864e+00 -1.4581177438533979e+02 1.0000000000000000e+00 2.7352805662775079e+00 2.3908079864888450e+00 9.3679359189283673e+00 
50 1 2 1.0280000000001019e+00 -2.1200354879312999e+02 1.0000000000000000e+00 2.9188863205880642e+00 2.4030837542767918e+00 9.4011472273668009e+00 
56 1 2 1.0280000000001073e+00 -2.2832620661489707e+02 1.0000000000000000e+00 2.9166392135439523e+00 2.4038215351003500e+00 9.4012766080945553e+00 
62 1 2 1.0279999999998894e+00 -1.7087091971098485e+02 1.0000000000000000e+00 3.5284747619396670e+00 1.6796303750689856e+00 9.8230755129374430e+00 
180 1 2 1.0280000000001424e+00 -2.6556464264815969e+02 1.0000000000000000e+00 1.9003091804305865e+00 1.1929105534442028e+00 1.1006039692903142e+01 
150 1 2 1.0280000000001377e+00 -1.9598423669260828e+02 1.0000000000000000e+00 1.9003091804306429e+00 1.1929105534757327e+00 1.1006039692893262e+01 
175 1 2 1.0280000000001424e+00 -2.6758731118103185e+02 1.0000000000000000e+00 1.9003091804309560e+00 1.1929105534434772e+00 1.1006039692903823e+01 
174 1 2 1.0280000000001379e+00 -1.8905052013492696e+02 1.0000000000000000e+00 1.9003091804308010e+00 1.1929105534487920e+00 1.1006039692901973e+01 
64 1 2 1.0279999999997558e+00 -1.9719248059445329e+02 1.0000000000000000e+00 3.3636112586868263e+00 4.9237526895449529e-01 1.0375728667824596e+01 
63 1 2 1.0279999999997493e+00 -2.1201655265535223e+02 1.0000000000000000e+00 3.3635412321957872e+00 4.9367025946951359e-01 1.0374481512127254e+01 
21 1 2 1.0279999999990714e+00 -2.2297334852228312e+02 1.0000000000000000e+00 1.4415644683718882e+00 2.4294819291881584e+00 1.3682287800345218e+01 
27 1 2 1.0279999999990899e+00 -2.4663516050822955e+02 1.0000000000000000e+00 1.4247763842108032e+00 2.4452387933707134e+00 1.3678114445085029e+01 
103 1 2 1.0280000000007903e+00 -3.4718626223635681e+02 1.0000000000000000e+00 1.2638061867161661e+00 2.5932124865848332e+00 1.3684462359196813e+01 
134 1 2 1.0280000000011067e+00 -1.9821291730518925e+02 1.0000000000000000e+00 1.2350474645246330e+00 2.6224106098396716e+00 1.3693943405741161e+01 
24 1 2 1.0279999999994960e+00 -2.4127802982355001e+02 1.0000000000000000e+00 1.7695426860909111e+00 6.3774449104087527e-01 1.4646783088657799e+01 
23 1 2 1.0279999999994960e+00 -2.6501497043224845e+02 1.0000000000000000e+00 1.7693580465731866e+00 6.3715266372158852e-01 1.4647204096652183e+01 
53 1 2 1.0279999999994962e+00 -2.8616514447759153e+02 1.0000000000000000e+00 1.7683973305329204e+00 6.3406672611420301e-01 1.4649417832987185e+01 
41 1 2 1.0280000000004168e+00 -1.5522045372947451e+02 1.0000000000000000e+00 1.6466706528680235e+00 3.3719109511446321e-01 1.5191136689234318e+01 
42 1 2 1.0280000000004166e+00 -1.5317701761331446e+02 1.0000000000000000e+00 1.6466706528668453e+00 3.3719109510878975e-01 1.5191136689237476e+01 
48 1 2 1.0280000000004168e+00 -1.5515431500966938e+02 1.0000000000000000e+00 1.6466706528692505e+00 3.3719109510260481e-01 1.5191136689237279e+01 
55 1 2 1.0280000000000364e+00 -2.1683706080308917e+02 1.0000000000000000e+00 5.6256981077535499e+00 9.4339531491496387e-01 1.3999768087141796e+01 
19 1 2 1.0280000000000367e+00 -2.3466468755656143e+02 1.0000000000000000e+00 5.6256981077530446e+00 9.4339531491159945e-01 1.3999768087145680e+01 
168 1 2 1.0280000000000367e+00 -9.4296994404720493e+01 1.0000000000000000e+00 5.6256981078385833e+00 9.4339531499140028e-01 1.3999768087047148e+01 
132 1 2 1.0280000000000362e+00 -9.5935277903999335e+01 1.0000000000000000e+00 5.6256981078354755e+00 9.4339531496934448e-01 1.3999768087072601e+01 
25 1 2 1.0280000000000369e+00 -1.8916690789929800e+02 1.0000000000000000e+00 5.6256981077589696e+00 9.4339531492225581e-01 1.3999768087132999e+01 
26 1 2 1.0280000000000362e+00 -1.6869184520468247e+02 1.0000000000000000e+00 5.6256981077561310e+00 9.4339531492223683e-01 1.3999768087133267e+01 
137 1 2 1.0279999999998481e+00 -1.3496684037788538e+02 1.0000000000000000e+00 1.9652334110981955e+00 4.5234033392836963e+00 1.3904557814946964e+01 
17 1 2 1.0279999999998419e+00 -2.6429944295699124e+02 1.0000000000000000e+00 1.9645192924204697e+00 4.5236325326646734e+00 1.3904531778654283e+01 
12 1 2 1.0279999999998424e+00 -1.8930027031116276e+02 1.0000000000000000e+00 1.9637844148822865e+00 4.5238689323306147e+00 1.3904486689074806e+01 
18 1 2 1.0279999999998406e+00 -2.7463204326699770e+02 1.0000000000000000e+00 1.9637109062205267e+00 4.5238925594166153e+00 1.3904481610102165e+01 
11 1 2 1.0279999999998424e+00 -2.6085882460024681e+02 1.0000000000000000e+00 1.9636919841441363e+00 4.5238986494896523e+00 1.3904480206465228e+01 
47 1 2 1.0279999999998410e+00 -2.6793936901132508e+02 1.0000000000000000e+00 1.9636556567823333e+00 4.5239103449356275e+00 1.3904477454758043e+01 
83 1 2 1.0280000000000546e+00 -2.1603606275315514e+02 1.0000000000000000e+00 3.2581068024044950e+00 1.8105733457058683e+01 1.2436439447323878e+01 
84 1 2 1.0280000000000220e+00 -1.9797158882997221e+02 1.0000000000000000e+00 3.2558240193433310e+00 1.8093989463753328e+01 1.2411880828795235e+01 
89 1 2 1.0280000000000362e+00 -2.0143129939758708e+02 1.0000000000000000e+00 3.2536301318844316e+00 1.8089868181883798e+01 1.2402319021084859e+01 
40 1 2 1.0280000000001830e+00 -2.2189336371136596e+02 1.0000000000000000e+00 2.0585220611549317e+00 1.8671973822132724e+01 1.0621363206208200e+01 
113 1 2 1.0280000000001790e+00 -2.6875580127158366e+02 1.0000000000000000e+00 2.0585220611470212e+00 1.8671973822121466e+01 1.0621363206220156e+01 
76 1 2 1.0280000000001774e+00 -2.9760688395190806e+02 1.0000000000000000e+00 2.0585220611500681e+00 1.8671973822138192e+01 1.0621363206206466e+01 
112 1 2 1.0280000000001879e+00 -1.6934136424388763e+02 1.0000000000000000e+00 2.0585220611507862e+00 1.8671973822110800e+01 1.0621363206226224e+01 
77 1 2 1.0280000000001919e+00 -2.8499509671823603e+02 1.0000000000000000e+00 2.0585220611378428e+00 1.8671973822126049e+01 1.0621363206221188e+01 
125 1 2 1.0279999999996743e+00 -1.7869409167854468e+02 1.0000000000000000e+00 3.7092786392829118e+00 1.9559409955272528e+01 1.2593068873010761e+01 
78 1 2 1.0280000000000704e+00 -1.3136262610961452e+02 1.0000000000000000e+00 3.7207112866636307e+00 1.8261646207444421e+01 1.2658877888965266e+01 
114 1 2 1.0279999999999816e+00 -1.3927009863494095e+02 1.0000000000000000e+00 3.7207112866736769e+00 1.8261646207448269e+01 1.2658877888967512e+01 
117 1 2 1.0280000000001921e+00 -2.0245151658038236e+02 1.0000000000000000e+00 5.5769965856922958e+00 1.9585703593939105e+01 1.2063950567685986e+01 
155 1 2 1.0280000000001948e+00 -2.0378874838022898e+02 1.0000000000000000e+00 5.5769965856836015e+00 1.9585703593935243e+01 1.2063950567679319e+01 
154 1 2 1.0280000000002110e+00 -2.4470493938475448e+02 1.0000000000000000e+00 5.5736329684142296e+00 1.9596389227877815e+01 1.2057763275189300e+01 
118 1 2 1.0280000000002003e+00 -2.0302955835751015e+02 1.0000000000000000e+00 5.5736329684148354e+00 1.9596389227856815e+01 1.2057763275195791e+01 
148 1 2 1.0280000000002210e+00 -2.3990555974965196e+02 1.0000000000000000e+00 5.5736329684113386e+00 1.9596389227828006e+01 1.2057763275200996e+01 
37 1 2 1.0280000000000626e+00 -1.4290501831188485e+02 1.0000000000000000e+00 2.7642745147794971e+00 1.7339633782515836e+01 1.5328153568552864e+01 
74 1 2 1.0280000000000551e+00 -1.7125848073082776e+02 1.0000000000000000e+00 2.7642750447741533e+00 1.7339634366869731e+01 1.5328152624366775e+01 
38 1 2 1.0279999999999800e+00 -1.7656734935530343e+02 1.0000000000000000e+00 2.7642750447759310e+00 1.7339634366856824e+01 1.5328152624399561e+01 
68 1 2 1.0280000000001197e+00 -1.8966388587473662e+02 1.0000000000000000e+00 2.7642750447798523e+00 1.7339634366853456e+01 1.5328152624413692e+01 
44 1 2 1.0280000000000813e+00 -1.4415765517491855e+02 1.0000000000000000e+00 2.7642745147785943e+00 1.7339633782550649e+01 1.5328153568465609e+01 
43 1 2 1.0280000000000584e+00 -1.4085406937323697e+02 1.0000000000000000e+00 2.7642745147819863e+00 1.7339633782538126e+01 1.5328153568499721e+01 
99 1 2 1.0280000000001159e+00 -1.4942789572271357e+02 1.0000000000000000e+00 6.2857632470987177e+00 1.8526292068101469e+01 1.5793858016007249e+01 
93 1 2 1.0279999999999996e+00 -1.7252112678243839e+02 1.0000000000000000e+00 6.2857632471029703e+00 1.8526292068109111e+01 1.5793858016039851e+01 
94 1 2 1.0280000000001557e+00 -1.3650446483772129e+02 1.0000000000000000e+00 6.2857632470939002e+00 1.8526292068114717e+01 1.5793858016045117e+01 
100 1 2 1.0279999999999867e+00 -1.4981836004892540e+02 1.0000000000000000e+00 6.2857632470939677e+00 1.8526292068125532e+01 1.5793858016080216e+01 
35 1 2 1.0279999999999625e+00 -1.7383906475394994e+02 1.0000000000000000e+00 5.7439656178309502e+00 1.7175489693884625e+01 1.5921098902481452e+01 
170 1 2 1.0279999999999072e+00 -1.6009220953089888e+02 1.0000000000000000e+00 5.9068124570572795e+00 1.7159422966198097e+01 1.6195182487497952e+01 
163 1 2 1.0279999999998481e+00 -1.7083433159522676e+02 1.0000000000000000e+00 5.9068124571056861e+00 1.7159422966186156e+01 1.6195182487453483e+01 
169 1 2 1.0279999999998897e+00 -1.9559328014394049e+02 1.0000000000000000e+00 5.9068124570870886e+00 1.7159422966199859e+01 1.6195182487510984e+01 
133 1 2 1.0279999999999465e+00 -2.7707183793276050e+02 1.0000000000000000e+00 1.3254063371413294e+00 1.8701511535096063e+01 1.6899659604696829e+01 
22 1 2 1.0279999999999130e+00 -1.6190624865785006e+02 1.0000000000000000e+00 1.4544500465855539e+00 1.8577897109922795e+01 1.6932409121872045e+01 
69 1 2 1.0279999999999323e+00 -1.3998731371519909e+02 1.0000000000000000e+00 1.3945874156867166e+00 1.8621610513199180e+01 1.6922981747269471e+01 
105 1 2 1.0279999999998575e+00 -1.3341567373188175e+02 1.0000000000000000e+00 1.3945874156790843e+00 1.8621610513216556e+01 1.6922981747266331e+01 
139 1 2 1.0279999999999472e+00 -3.5239700317778158e+02 1.0000000000000000e+00 1.5733035278108762e+00 1.8505436733420197e+01 1.6942286373065372e+01 
57 1 2 1.0279999999999629e+00 -2.5018516588380908e+02 1.0000000000000000e+00 6.0029162953790314e+00 1.7878441872475861e+01 1.6769621949304753e+01 
158 1 2 1.0280000000000804e+00 -1.6954377257806098e+02 1.0000000000000000e+00 4.0634127420360056e+00 1.8861629513573067e+01 1.8900208411979833e+01 
87 1 2 1.0280000000000804e+00 -2.2183223789140931e+02 1.0000000000000000e+00 4.0634127420360056e+00 1.8861629513573067e+01 1.8900208411979833e+01 
86 1 2 1.0280000000000804e+00 -2.1405348454489126e+02 1.0000000000000000e+00 4.0634127420360056e+00 1.8861629513573067e+01 1.8900208411979833e+01 
152 1 2 1.0280000000000804e+00 -2.1263518551841477e+02 1.0000000000000000e+00 4.0634127420360056e+00 1.8861629513573067e+01 1.8900208411979833e+01 
123 1 2 1.0280000000000804e+00 -2.1545288814921611e+02 1.0000000000000000e+00 4.0634127420360056e+00 1.8861629513573067e+01 1.8900208411979833e+01 
151 1 2 1.0280000000000804e+00 -1.8632242602621903e+02 1.0000000000000000e+00 4.0634127420360056e+00 1.8861629513573067e+01 1.8900208411979833e+01 
157 1 2 1.0280000000000804e+00 -1.9598904677823262e+02 1.0000000000000000e+00 4.0634127420360056e+00 1.8861629513573067e+01 1.8900208411979833e+01 
178 1 2 1.0279999999999574e+00 -1.3342595981566575e+02 1.0000000000000000e+00 1.6971306664024631e+01 1.2190142694144843e-01 1.9777396926418493e+00 
177 1 2 1.0279999999999947e+00 -1.3011871299341297e+02 1.0000000000000000e+00 1.6973336938328544e+01 1.1881579122581921e-01 1.9798170792789689e+00 
127 1 2 1.0280000000000005e+00 -2.0929182547167227e+02 1.0000000000000000e+00 1.7037483249144483e+01 1.4793518505707587e-01 1.9820542559794947e+00 
121 1 2 1.0280000000000005e+00 -1.8204850433683174e+02 1.0000000000000000e+00 1.7037483249213551e+01 1.4793518514555209e-01 1.9820542559237726e+00 
96 1 2 1.0280000000000005e+00 -1.8207956345667517e+02 1.0000000000000000e+00 1.7037483249264639e+01 1.4793518520891882e-01 1.9820542558837198e+00 
85 1 2 1.0280000000000031e+00 -1.7317215947249230e+02 1.0000000000000000e+00 1.7037483249379196e+01 1.4793518535246414e-01 1.9820542557930461e+00 
90 1 2 1.0280000000000034e+00 -1.5354143612797282e+02 1.0000000000000000e+00 1.7037483249324076e+01 1.4793518528240845e-01 1.9820542558372056e+00 
59 1 2 1.0279999999998910e+00 -2.0361852340336827e+02 1.0000000000000000e+00 1.7974460425497817e+01 2.6815993478381155e+00 1.4244575546821466e+01 
95 1 2 1.0279999999998968e+00 -1.8339506204035251e+02 1.0000000000000000e+00 1.7974460425499114e+01 2.6815993478362827e+00 1.4244575546813238e+01 
60 1 2 1.0279999999998914e+00 -2.2938164097762012e+02 1.0000000000000000e+00 1.7974460425499679e+01 2.6815993478364417e+00 1.4244575546812236e+01 
52 1 2 1.0279999999998968e+00 -1.2476501121235830e+02 1.0000000000000000e+00 1.7974460425499114e+01 2.6815993478362827e+00 1.4244575546813238e+01 
58 1 2 1.0279999999998997e+00 -1.2596558038263730e+02 1.0000000000000000e+00 1.7974460425498169e+01 2.6815993478363449e+00 1.4244575546815751e+01 
75 1 2 1.0280000000003122e+00 -1.0319221464693157e+02 1.0000000000000000e+00 1.8933951717389498e+01 1.4798161355652590e+00 1.4579869174179978e+01 
81 1 2 1.0280000000003122e+00 -6.0369531824449112e+01 1.0000000000000000e+00 1.8933951717332480e+01 1.4798161355628692e+00 1.4579869174180361e+01 
45 1 2 1.0280000000003118e+00 -7.6082829218788618e+01 1.0000000000000000e+00 1.8933951717349338e+01 1.4798161355651283e+00 1.4579869174185086e+01 
122 1 2 1.0280000000003120e+00 -1.4730699675420576e+02 1.0000000000000000e+00 1.8933951685904315e+01 1.4798162661225511e+00 1.4579869585010256e+01 
7 1 2 1.0280000000001066e+00 -2.3201950804941811e+02 1.0000000000000000e+00 1.5910285519438238e+01 1.8008179494116345e+00 1.8460130343361733e+01 
8 1 2 1.0280000000000789e+00 -2.3460132390168883e+02 1.0000000000000000e+00 1.5910285519436108e+01 1.8008179494302037e+00 1.8460130343369030e+01 
13 1 2 1.0280000000000060e+00 -2.6101070991754341e+02 1.0000000000000000e+00 1.5910285519438004e+01 1.8008179494218890e+00 1.8460130343368117e+01 
14 1 2 1.0280000000000147e+00 -1.8418535217178146e+02 1.0000000000000000e+00 1.5910285519437011e+01 1.8008179494217837e+00 1.8460130343366117e+01 
20 1 2 1.0280000000000715e+00 -1.7675158392875250e+02 1.0000000000000000e+00 1.5910285519440412e+01 1.8008179494125840e+00 1.8460130343366657e+01 
72 1 2 1.0280000000000500e+00 -2.0676137220878690e+02 1.0000000000000000e+00 1.7368007696062438e+01 2.4132807909222680e+00 1.7632088322415786e+01 
108 1 2 1.0280000000000409e+00 -2.1871546266461419e+02 1.0000000000000000e+00 1.7368007696068592e+01 2.4132807909111214e+00 1.7632088322418426e+01 
36 1 2 1.0280000000000862e+00 -2.4035869809367540e+02 1.0000000000000000e+00 1.7368007696066474e+01 2.4132807909156995e+00 1.7632088322418532e+01 
30 1 2 1.0280000000000458e+00 -2.4025130308081805e+02 1.0000000000000000e+00 1.7368007696059795e+01 2.4132807909223311e+00 1.7632088322410262e+01 
66 1 2 1.0280000000000307e+00 -2.2965157966100367e+02 1.0000000000000000e+00 1.7368007696063966e+01 2.4132807909131468e+00 1.7632088322410489e+01 
144 1 2 1.0280000000000180e+00 -1.9793874868224378e+02 1.0000000000000000e+00 1.6504182808457841e+01 1.0407810141279027e+01 6.2486649861033738e+00 
101 1 2 1.0280000000000216e+00 -1.3979980406133117e+02 1.0000000000000000e+00 1.6504182808448260e+01 1.0407810141279899e+01 6.2486649861008621e+00 
102 1 2 1.0280000000000225e+00 -1.7301737546280270e+02 1.0000000000000000e+00 1.6504182808451436e+01 1.0407810141274661e+01 6.2486649860895014e+00 
138 1 2 1.0280000000000256e+00 -1.8677903472489066e+02 1.0000000000000000e+00 1.6504182808447833e+01 1.0407810141277844e+01 6.2486649860955570e+00 
128 1 2 1.0280000000001821e+00 -1.6674009833237514e+02 1.0000000000000000e+00 1.6669357311179112e+01 1.1304006627992617e+01 5.8103752501555288e+00 
164 1 2 1.0280000000002232e+00 -9.8995459482950963e+01 1.0000000000000000e+00 1.6669357043611953e+01 1.1304006563685657e+01 5.8103750588269847e+00 
129 1 2 1.0280000000001677e+00 -1.3754355655184958e+02 1.0000000000000000e+00 1.6669357562373985e+01 1.1304006688566583e+01 5.8103754301277526e+00 
135 1 2 1.0280000000001515e+00 -1.3796986271972685e+02 1.0000000000000000e+00 1.6669357745933848e+01 1.1304006732798641e+01 5.8103755615862536e+00 
156 1 2 1.0279999999995344e+00 -2.1657067202612049e+02 1.0000000000000000e+00 1.7383336927428626e+01 1.2228942480350602e+01 9.1372376218110354e+00 
167 1 2 1.0279999999995266e+00 -2.0505138348668549e+02 1.0000000000000000e+00 1.7383332405697629e+01 1.2228942217059315e+01 9.1372362789051831e+00 
161 1 2 1.0279999999995282e+00 -2.0130027031179856e+02 1.0000000000000000e+00 1.7383331935671855e+01 1.2228942187068370e+01 9.1372361439706111e+00 
119 1 2 1.0279999999995559e+00 -1.7995538701590641e+02 1.0000000000000000e+00 1.7383321288889629e+01 1.2228940989550489e+01 9.1372340071371259e+00 
126 1 2 1.0279999999995633e+00 -2.0289564062503089e+02 1.0000000000000000e+00 1.7383336859197250e+01 1.2228942480509074e+01 9.1372375942164350e+00 
162 1 2 1.0279999999995471e+00 -2.2487706153967531e+02 1.0000000000000000e+00 1.7383336543704790e+01 1.2228942461835878e+01 9.1372375010524571e+00 
54 1 2 1.0280000000010427e+00 -1.7571471450959524e+02 1.0000000000000000e+00 1.6625074393864036e+01 1.3954316250997048e+01 9.8375932740702918e+00 
49 1 2 1.0280000000010532e+00 -1.8511328474224015e+02 1.0000000000000000e+00 1.6625074393865244e+01 1.3954316250998232e+01 9.8375932740649645e+00 
171 1 2 1.0280000000000364e+00 -1.4363611012957438e+02 1.0000000000000000e+00 1.8553169773471797e+01 1.5031265755496715e+01 9.8299867538864092e+00 
141 1 2 1.0280000000000369e+00 -1.4545379602781810e+02 1.0000000000000000e+00 1.8553149841095895e+01 1.5031229888247742e+01 9.8299516268627940e+00 
136 1 2 1.0280000000000076e+00 -1.5977108224836309e+02 1.0000000000000000e+00 1.8548938733891976e+01 1.5023590768757858e+01 9.8225529812539172e+00 
142 1 2 1.0280000000000256e+00 -8.9386539865117953e+01 1.0000000000000000e+00 1.8548349703849141e+01 1.5022463435074718e+01 9.8215225678496818e+00 
143 1 2 1.0279999999998755e+00 -1.7382387221521827e+02 1.0000000000000000e+00 1.8136171996447082e+01 1.8591708931827210e+01 8.1693876385309725e+00 
5 1 2 1.0279999999998755e+00 -3.7668539239263694e+01 1.0000000000000000e+00 1.8136171996447082e+01 1.8591708931827210e+01 8.1693876385309725e+00 
4 1 2 1.0279999999998755e+00 -2.1137608000744478e+01 1.0000000000000000e+00 1.8136171996447082e+01 1.8591708931827210e+01 8.1693876385309725e+00 
71 1 2 1.0279999999998755e+00 -1.7886271114941212e+02 1.0000000000000000e+00 1.8136171996447082e+01 1.8591708931827210e+01 8.1693876385309725e+00 
106 1 2 1.0279999999998755e+00 -1.9731416168139236e+02 1.0000000000000000e+00 1.8136171996447082e+01 1.8591708931827210e+01 8.1693876385309725e+00 
70 1 2 1.0279999999998755e+00 -2.0549567110360078e+02 1.0000000000000000e+00 1.8136171996447082e+01 1.8591708931827210e+01 8.1693876385309725e+00 
107 1 2 1.0279999999998755e+00 -2.4555955670398191e+02 1.0000000000000000e+00 1.8136171996447082e+01 1.8591708931827210e+01 8.1693876385309725e+00 
131 1 2 1.0279999999997700e+00 -1.2482281990369714e+02 1.0000000000000000e+00 1.6997052259790571e+01 1.3509476712477985e+01 1.1117685836212763e+01 
130 1 2 1.0279999999998062e+00 -1.3312028713348985e+02 1.0000000000000000e+00 1.6997052259821505e+01 1.3509476712478865e+01 1.1117685836261488e+01 
16 1 2 1.0279999999996872e+00 -2.4645320178934946e+02 1.0000000000000000e+00 1.7838148352122150e+01 1.4305265635017463e+01 1.2715522347145118e+01 
10 1 2 1.0279999999997105e+00 -1.9578723691720461e+02 1.0000000000000000e+00 1.7838148352123049e+01 1.4305265635064050e+01 1.2715522347160869e+01 
46 1 2 1.0279999999997007e+00 -2.2005567663478769e+02 1.0000000000000000e+00 1.7838148352123319e+01 1.4305265635047556e+01 1.2715522347155037e+01 
51 1 2 1.0279999999996872e+00 -2.2082826801431048e+02 1.0000000000000000e+00 1.7838148352122150e+01 1.4305265635017463e+01 1.2715522347145118e+01 
15 1 2 1.0279999999997007e+00 -2.5103930956198633e+02 1.0000000000000000e+00 1.7838148352123319e+01 1.4305265635047556e+01 1.2715522347155037e+01 
9 1 2 1.0279999999996872e+00 -2.2982935221306346e+02 1.0000000000000000e+00 1.7838148352122150e+01 1.4305265635017463e+01 1.2715522347145118e+01 
33 1 2 1.0279999999997138e+00 -1.4098668706864845e+02 1.0000000000000000e+00 1.7423555953600445e+01 1.5761507278501877e+01 1.0054719779589284e+01 
39 1 2 1.0279999999997844e+00 -2.4899161250109023e+02 1.0000000000000000e+00 1.7423555953598342e+01 1.5761507278500307e+01 1.0054719779591334e+01 
3 1 2 1.0279999999997533e+00 -2.5560763743728245e+02 1.0000000000000000e+00 1.7423555953596047e+01 1.5761507278502691e+01 1.0054719779598544e+01 
111 1 2 1.0280000000001854e+00 -2.2084909758796948e+02 1.0000000000000000e+00 1.6544133167376604e+01 1.6923214683945847e+01 1.3316449298853895e+01 
146 1 2 1.0280000000003788e+00 -2.4271387586771033e+02 1.0000000000000000e+00 1.6544133167349074e+01 1.6923214683952914e+01 1.3316449298864789e+01 
147 1 2 1.0280000000002032e+00 -2.5301958827847849e+02 1.0000000000000000e+00 1.6544133167359373e+01 1.6923214683943659e+01 1.3316449298850433e+01 
153 1 2 1.0280000000003788e+00 -2.0085506688342420e+02 1.0000000000000000e+00 1.6544133167349074e+01 1.6923214683952914e+01 1.3316449298864789e+01 
173 1 2 1.0280000000005749e+00 -1.0160545594002571e+01 1.0000000000000000e+00 1.5831109529006294e+01 1.7240026709652845e+01 1.2770663180772083e+01 
2 1 2 1.0279999999996541e+00 -2.3384960486886237e+02 1.0000000000000000e+00 1.5248531282309720e+01 1.8947901978009810e+01 1.3137041945754918e+01 
1 1 2 1.0279999999996687e+00 -2.1648353143932758e+02 1.0000000000000000e+00 1.5248531282320812e+01 1.8947901978012620e+01 1.3137041945850848e+01 
67 1 2 1.0279999999996541e+00 -2.4423994517290390e+02 1.0000000000000000e+00 1.5248531282309720e+01 1.8947901978009810e+01 1.3137041945754918e+01 
6 1 2 1.0279999999996541e+00 -2.0535474231931730e+02 1.0000000000000000e+00 1.5248531282309720e+01 1.8947901978009810e+01 1.3137041945754918e+01 
31 1 2 1.0279999999997353e+00 -2.5453620959630058e+02 1.0000000000000000e+00 1.5248531282306278e+01 1.8947901978008140e+01 1.3137041945734735e+01 
32 1 2 1.0279999999996710e+00 -2.7648323173194098e+02 1.0000000000000000e+00 1.5248531282307258e+01 1.8947901978011519e+01 1.3137041945677865e+01 
124 1 2 1.0279999999998382e+00 -1.4890058618809147e+02 1.0000000000000000e+00 1.7982698375904274e+01 1.7640547985717724e+01 1.1997288689732025e+01 
82 1 2 1.0279999999998632e+00 -1.6183874317360147e+02 1.0000000000000000e+00 1.7982698376030338e+01 1.7640547985715781e+01 1.1997288689740888e+01 
88 1 2 1.0279999999998131e+00 -1.3789571685244181e+02 1.0000000000000000e+00 1.7982698375968361e+01 1.7640547985720886e+01 1.1997288689728823e+01 
172 1 2 1.0279999999999485e+00 -1.5493393979877999e+02 1.0000000000000000e+00 1.9303908324039078e+01 1.7656579385883063e+01 1.1026921977175011e+01 
160 1 2 1.0279999999999405e+00 -1.5403976405495465e+02 1.0000000000000000e+00 1.9302857527357311e+01 1.7659413209073914e+01 1.1026451489825007e+01 
159 1 2 1.0279999999999385e+00 -1.7626752322690749e+02 1.0000000000000000e+00 1.9302857527360544e+01 1.7659413209063018e+01 1.1026451489848164e+01 
166 1 2 1.0279999999999454e+00 -1.8436585299121447e+02 1.0000000000000000e+00 1.9302857527359407e+01 1.7659413209067296e+01 1.1026451489834914e+01 
165 1 2 1.0279999999999638e+00 -1.5629094668730900e+02 1.0000000000000000e+00 1.9302857527356554e+01 1.7659413209072799e+01 1.1026451489850910e+01 
34 1 2 1.0280000000004557e+00 -2.4834503096111123e+02 1.0000000000000000e+00 1.6444615602818203e+01 1.6344547896244038e+01 1.6559103863696564e+01 
29 1 2 1.0280000000005678e+00 -3.0755784252200135e+02 1.0000000000000000e+00 1.6444615602824271e+01 1.6344547896238719e+01 1.6559103863706586e+01 
65 1 2 1.0280000000005227e+00 -2.3359709433010721e+02 1.0000000000000000e+00 1.6444615602819329e+01 1.6344547896236818e+01 1.6559103863702699e+01 
28 1 2 1.0280000000004357e+00 -2.6376469656748719e+02 1.0000000000000000e+00 1.6440896160673354e+01 1.6339049304875161e+01 1.6558901842650275e+01 
115 1 2 1.0279999999994269e+00 -1.5710093785583410e+02 1.0000000000000000e+00 1.6924288891294697e+01 1.5564143075849229e+01 1.5908334719576768e+01 
79 1 2 1.0279999999994300e+00 -1.5842404940344900e+02 1.0000000000000000e+00 1.6924398921635198e+01 1.5564253604529261e+01 1.5908145846898554e+01 
116 1 2 1.0279999999993921e+00 -1.9064683668299722e+02 1.0000000000000000e+00 1.6922735088584982e+01 1.5562598851690947e+01 1.5910980710994508e+01 
80 1 2 1.0279999999993672e+00 -1.3942032177225283e+02 1.0000000000000000e+00 1.6921462665985771e+01 1.5561341373825169e+01 1.5913169501837739e+01 
98 1 2 1.0279999999996492e+00 -2.1243991251747963e+02 1.0000000000000000e+00 1.8797207275589241e+01 1.8210863143106078e+01 1.7092233865158434e+01 
92 1 2 1.0279999999996943e+00 -2.6725776371224964e+02 1.0000000000000000e+00 1.8797289394965702e+01 1.8210793299898306e+01 1.7092254999384334e+01 
61 1 2 1.0279999999996743e+00 -2.3793072722488495e+02 1.0000000000000000e+00 1.8796974041851442e+01 1.8211142387951728e+01 1.7092158727784287e+01 
91 1 2 1.0279999999996883e+00 -2.4849626037280206e+02 1.0000000000000000e+00 1.8797028434705936e+01 1.8211082681231769e+01 1.7092175202053483e+01 
97 1 2 1.0279999999997167e+00 -2.3769423415904137e+02 1.0000000000000000e+00 1.8797060456726044e+01 1.8211049507903155e+01 1.7092184534721618e+01 
140 1 2 1.0280000000001337e+00 -2.3906912534424347e+02 1.0000000000000000e+00 1.7297855255901332e+01 1.8726389554767103e+01 1.9095336462878194e+01 
176 1 2 1.0280000000001426e+00 -1.9876854014286045e+02 1.0000000000000000e+00 1.7297859156533203e+01 1.8726546786104151e+01 1.9095343522025757e+01 
109 1 2 1.0280000000001335e+00 -1.4405688323851140e+02 1.0000000000000000e+00 1.7297844703889830e+01 1.8726179846692524e+01 1.9095320746961772e+01 
73 1 2 1.0280000000000304e+00 -1.5739421803458359e+02 1.0000000000000000e+00 1.7297844720633009e+01 1.8726179883168530e+01 1.9095320766942805e+01 
110 1 2 1.0279999999999483e+00 -1.4333163986753939e+02 1.0000000000000000e+00 1.7297844742933567e+01 1.8726180694509203e+01 1.9095320806584564e+01 
104 1 2 1.0280000000001577e+00 -2.5969704319998363e+02 1.0000000000000000e+00 1.7298158682350589e+01 1.8727734353703042e+01 1.9095706579555618e+01 
120 1 2 1.0280000000005440e+00 -1.9251705647482231e+02 1.0000000000000000e+00 1.8980153202423324e+01 1.8571953535377020e+01 1.8116089990353498e+01 

Velocities

145 2.2608791435998590e-01 5.6265727426119030e-02 2.9844432534088339e-01
149 2.2608791435980161e-01 5.6265727426082331e-02 2.9844432534086746e-01
179 2.2608791435981249e-01 5.6265727426113438e-02 2.9844432534088183e-01
50 2.2608791436029080e-01 5.6265727426085085e-02 2.9844432534099413e-01
56 2.2608791436028150e-01 5.6265727426096257e-02 2.9844432534098475e-01
62 2.2608791435839540e-01 5.6265727424271036e-02 2.9844432534251830e-01
180 2.2608791435801004e-01 5.6265727425713098e-02 2.9844432534410026e-01
150 2.2608791435804584e-01 5.6265727425702079e-02 2.9844432534407439e-01
175 2.2608791435800099e-01 5.6265727425715679e-02 2.9844432534410614e-01
174 2.2608791435804484e-01 5.6265727425702551e-02 2.9844432534407561e-01
64 2.2608791435675885e-01 5.6265727425117554e-02 2.9844432534250215e-01
63 2.2608791435682091e-01 5.6265727425106299e-02 2.9844432534253046e-01
21 2.2608791436190140e-01 5.6265727425729786e-02 2.9844432534476822e-01
27 2.2608791436217190e-01 5.6265727425614961e-02 2.9844432534468968e-01
103 2.2608791436150788e-01 5.6265727425273318e-02 2.9844432533680343e-01
134 2.2608791436043843e-01 5.6265727425739688e-02 2.9844432533563220e-01
24 2.2608791436147122e-01 5.6265727425382162e-02 2.9844432534036591e-01
23 2.2608791436147374e-01 5.6265727425384285e-02 2.9844432534036514e-01
53 2.2608791436149192e-01 5.6265727425395748e-02 2.9844432534035797e-01
41 2.2608791436422015e-01 5.6265727424622533e-02 2.9844432534076565e-01
42 2.2608791436422043e-01 5.6265727424622568e-02 2.9844432534076581e-01
48 2.2608791436422038e-01 5.6265727424622561e-02 2.9844432534076587e-01
55 2.2608791435513018e-01 5.6265727422006202e-02 2.9844432534584170e-01
19 2.2608791435513018e-01 5.6265727422006653e-02 2.9844432534584220e-01
168 2.2608791435513029e-01 5.6265727422007361e-02 2.9844432534584248e-01
132 2.2608791435513018e-01 5.6265727422006806e-02 2.9844432534584164e-01
25 2.2608791435513026e-01 5.6265727422007944e-02 2.9844432534584325e-01
26 2.2608791435513020e-01 5.6265727422007361e-02 2.9844432534584214e-01
137 2.2608791436222134e-01 5.6265727423926576e-02 2.9844432533889265e-01
17 2.2608791436222281e-01 5.6265727423916882e-02 2.9844432533888926e-01
12 2.2608791436222722e-01 5.6265727423917472e-02 2.9844432533888959e-01
18 2.2608791436222697e-01 5.6265727423914884e-02 2.9844432533888871e-01
11 2.2608791436222792e-01 5.6265727423917701e-02 2.9844432533888976e-01
47 2.2608791436222744e-01 5.6265727423915647e-02 2.9844432533888898e-01
83 2.2608791435821463e-01 5.6265727419462515e-02 2.9844432534401233e-01
84 2.2608791435824105e-01 5.6265727419459247e-02 2.9844432534398907e-01
89 2.2608791435824910e-01 5.6265727419459836e-02 2.9844432534400545e-01
40 2.2608791435838418e-01 5.6265727419459149e-02 2.9844432533961218e-01
113 2.2608791435838796e-01 5.6265727419457977e-02 2.9844432533961429e-01
76 2.2608791435838410e-01 5.6265727419458567e-02 2.9844432533961041e-01
112 2.2608791435838557e-01 5.6265727419459372e-02 2.9844432533960480e-01
77 2.2608791435838740e-01 5.6265727419458511e-02 2.9844432533961640e-01
125 2.2608791435716910e-01 5.6265727419454445e-02 2.9844432534177157e-01