LAMMPS data file via write_data, version 30 Jul 2016, timestep = 50000000

180 atoms
2 atom types

0.0000000000000000e+00 2.0000000000000000e+01 xlo xhi
0.0000000000000000e+00 2.0000000000000000e+01 ylo yhi
0.0000000000000000e+00 2.0000000000000000e+01 zlo zhi

Masses

1 3.896
2 4.31

Atoms # meso-molecular

10 1 2 1.1605682584842913e+00 1.3437260580635315e+00 1.0000000000000000e+00 1.5942187171028512e+00 5.4312779940573392e+00 1.1671751222922806e-01 
75 1 2 1.1605682584842913e+00 1.5116835842776712e+00 1.0000000000000000e+00 3.8040118806306966e-01 7.7819274511497945e+00 3.7773364284707339e-01 
143 1 2 1.1605682584842913e+00 1.4727194994280921e+00 1.0000000000000000e+00 1.1857072853582287e+00 4.0299490577966370e+00 2.2117255780674809e+00 
161 1 2 1.1605682584842913e+00 1.4532899792649459e+00 1.0000000000000000e+00 3.9981163477699662e+00 5.1588057555461662e+00 2.2294140951546098e+00 
164 1 2 1.1605682584842913e+00 1.4293710573008105e+00 1.0000000000000000e+00 2.9623975826568549e-01 7.3592150331638813e+00 2.5243158165533850e+00 
13 1 2 1.1605682584842913e+00 1.4185443881736681e+00 1.0000000000000000e+00 2.1243157753397961e+00 7.6677536416102390e+00 3.7183275256893946e+00 
70 1 2 1.1605682584842913e+00 1.6304637251665302e+00 1.0000000000000000e+00 4.0756267839245447e-01 2.2155156942598619e+00 4.9870571336649663e+00 
125 1 2 1.1605682584842913e+00 1.3946946667569842e+00 1.0000000000000000e+00 4.0244761748207951e+00 3.1876010806575290e+00 4.7305782896056581e+00 
72 1 2 1.1605682584842913e+00 1.5836045962659160e+00 1.0000000000000000e+00 3.3090632428328011e+00 8.6054926519463510e+00 5.1788176234651520e+00 
96 1 2 1.1605682584842913e+00 1.3919811169570386e+00 1.0000000000000000e+00 1.2530766827038020e+00 4.5684008185559817e+00 6.5995345413585991e+00 
128 1 2 1.1605682584842913e+00 1.4859508867086295e+00 1.0000000000000000e+00 4.3426153256404811e+00 1.0004714908178367e+00 8.4168070169243023e+00 
84 1 2 1.1605724309195380e+00 1.5650446272631371e+00 1.0000000000000000e+00 2.3450736062048243e+00 8.9502136177171234e+00 9.2766671442607240e+00 
130 1 2 1.1605682584842913e+00 1.3642062229753762e+00 1.0000000000000000e+00 1.9310717733834628e+00 2.3304377521872173e+00 1.0311678936549256e+01 
8 1 2 1.1605682584842913e+00 1.5680145431283359e+00 1.0000000000000000e+00 3.3725339503184277e+00 3.3865879294466965e+00 1.1719928335905658e+01 
166 1 2 1.1605682584842913e+00 1.3054501872243454e+00 1.0000000000000000e+00 1.5730028033303891e+00 6.9793650312796318e+00 1.2380581073252808e+01 
120 1 2 1.1605682584842913e+00 1.4110571117986406e+00 1.0000000000000000e+00 6.6460071729631194e+00 1.0685316828750480e+00 1.5481867950012862e+01 
129 1 2 1.1605682584842913e+00 1.4946842699244778e+00 1.0000000000000000e+00 3.2581875503335138e+00 9.5167795618630819e+00 1.4593559586188132e+01 
7 1 2 1.1605682584842913e+00 1.3971131260894198e+00 1.0000000000000000e+00 5.3470973132144337e+00 5.6975396362707622e+00 1.5863273754422844e+01 
150 1 2 1.1605682584842913e+00 1.5264872264605205e+00 1.0000000000000000e+00 2.0369421261417946e+00 6.0801447277086744e+00 1.6077298977297993e+01 
6 1 2 1.1605682584842913e+00 1.4469596313910005e+00 1.0000000000000000e+00 5.9166146855139026e+00 6.0863343289122929e+00 1.8567777173697355e+01 
93 1 2 1.1605682584842913e+00 1.3551527322985066e+00 1.0000000000000000e+00 8.8866348918020110e-01 9.0945042478328393e+00 1.8394310860840680e+01 
25 1 2 1.1605682584842913e+00 1.6834027806205245e+00 1.0000000000000000e+00 4.5173537559333017e+00 9.5833303166724839e+00 1.9195654108018442e+01 
55 1 2 1.1605682584842913e+00 1.5656852629897524e+00 1.0000000000000000e+00 6.4901275881133822e+00 1.7055800489883985e+01 2.4508886096873991e-01 
108 1 2 1.1605682584842913e+00 1.3791893970720968e+00 1.0000000000000000e+00 2.0134456497603162e-01 1.9813463008932999e+01 1.8069852240742920e-01 
148 1 2 1.1605682584842913e+00 1.1789957960287469e+00 1.0000000000000000e+00 5.6896287203146363e+00 1.0150810769898484e+01 2.0082299291158283e+00 
41 1 2 1.1605682584842913e+00 1.5540240409609982e+00 1.0000000000000000e+00 1.0869629983841849e+00 1.2491789077474992e+01 2.2142841084204901e+00 
139 1 2 1.1605682584842913e+00 -4.8791391548293794e-01 1.0000000000000000e+00 4.4640422172908032e+00 1.5411440633519327e+01 1.5980901034241430e+00 
98 1 2 1.1605682584842913e+00 1.4292663318311938e+00 1.0000000000000000e+00 6.6542665783736243e-01 1.7141101794180116e+01 1.7028391367949336e+00 
81 1 2 1.1605682584842913e+00 1.5179916217086902e+00 1.0000000000000000e+00 2.2276084936322582e+00 1.5797781804334582e+01 1.7724953630570452e+00 
49 1 2 1.1605682584842913e+00 1.5402499988347902e+00 1.0000000000000000e+00 3.7540599905745817e+00 1.2301832001572283e+01 3.7216253399721100e+00 
2 1 2 1.1605682584842913e+00 1.3377951954545262e+00 1.0000000000000000e+00 5.3251804334168220e+00 1.4459897427925144e+01 3.6902612028151558e+00 
157 1 2 1.1609533520447219e+00 1.6291688437167184e+00 1.0000000000000000e+00 2.7831264813022094e+00 1.6977198616201040e+01 4.9873043643871036e+00 
18 1 2 1.1609533520447219e+00 1.4330903103272254e+00 1.0000000000000000e+00 1.4036874133167465e+00 1.8185179489372047e+01 5.3002530059994557e+00 
9 1 2 1.1605682584842913e+00 1.4500690201925930e+00 1.0000000000000000e+00 4.7818324857234309e+00 1.9752964426995515e+01 4.9197381111565592e+00 
11 1 2 1.1605682584842913e+00 1.4821041913559752e+00 1.0000000000000000e+00 4.6207130490693551e+00 1.3500653603443206e+01 6.5445751480161629e+00 
118 1 2 1.1605724309195380e+00 1.5091996890738735e+00 1.0000000000000000e+00 3.2046598281392882e+00 1.0526290253395889e+01 8.4998865790559588e+00 
155 1 2 1.1605682584842913e+00 1.5359775851816795e+00 1.0000000000000000e+00 6.6760272493988049e-01 1.3251196910463111e+01 7.3424102241230349e+00 
140 1 2 1.1605682584842913e+00 1.4185144638852218e+00 1.0000000000000000e+00 3.6136049239784271e+00 1.7688531174292599e+01 7.7729974929830838e+00 
111 1 2 1.1605682584842913e+00 1.3664808386587546e+00 1.0000000000000000e+00 5.8660821372053498e+00 1.9678975876042937e+01 8.1276871049762995e+00 
64 1 2 1.1605682584842913e+00 1.3757705938434110e+00 1.0000000000000000e+00 6.3896646976149372e+00 1.0387940895205810e+01 9.7230215682102550e+00 
172 1 2 1.1605682584842913e+00 1.4971836641349383e+00 1.0000000000000000e+00 4.5617787334171132e+00 1.1916877106235088e+01 1.1168971780701392e+01 
144 1 2 1.1605682584842913e+00 1.1954990987576140e+00 1.0000000000000000e+00 2.8896997780813249e+00 1.2938634886335631e+01 1.0763189835790422e+01 
89 1 2 1.1605682584842913e+00 1.3932222779127654e+00 1.0000000000000000e+00 1.5411009825047899e+00 1.6312016874639966e+01 1.0648138936104269e+01 
3 1 2 1.1605682584842913e+00 1.4940192125685510e+00 1.0000000000000000e+00 4.1490202797065177e+00 1.6490548605478882e+01 1.0356313804036828e+01 
97 1 2 1.1605682584842913e+00 1.4881763584493770e+00 1.0000000000000000e+00 6.2745386279803519e+00 1.6312270913028591e+01 1.0893744738613707e+01 
63 1 2 1.1605682584842913e+00 1.4671282063450124e+00 1.0000000000000000e+00 2.6986372845559220e-01 1.8194875447757212e+01 1.0669496017069863e+01 
109 1 2 1.1605682584842913e+00 1.6039741970948653e+00 1.0000000000000000e+00 5.5145704390082155e+00 1.8382696310437005e+01 1.1061126919961325e+01 
152 1 2 1.1605682584842913e+00 1.2658667653625404e+00 1.0000000000000000e+00 2.7061373990820461e+00 1.9658875772348431e+01 1.2275717176910590e+01 
94 1 2 1.1605682584842913e+00 1.4286741880913083e+00 1.0000000000000000e+00 2.0429628887058042e+00 1.7384601643261231e+01 1.2966601585723971e+01 
1 1 2 1.1605682584842913e+00 1.6291396255674164e+00 1.0000000000000000e+00 6.3137773267341313e+00 1.9302398787183044e+01 1.3993493297282567e+01 
173 1 2 1.1605682584842913e+00 -4.3282467924924156e-01 1.0000000000000000e+00 3.8242763759809861e+00 1.2976046393302651e+01 1.5526280423461484e+01 
145 1 2 1.1605682584842913e+00 1.4773200508538911e+00 1.0000000000000000e+00 4.1260372256604416e+00 1.5871442061849786e+01 1.4474194696923286e+01 
37 1 2 1.1605682584842913e+00 1.5856261748598000e+00 1.0000000000000000e+00 3.1452303614238306e+00 1.9897767167539069e+01 1.4899983714226760e+01 
21 1 2 1.1605682584842913e+00 1.4743592962138150e+00 1.0000000000000000e+00 1.5531781162316232e+00 1.1290300382983535e+01 1.6249034660077669e+01 
107 1 2 1.1605682584842913e+00 1.5964896236551773e+00 1.0000000000000000e+00 4.5926716949699680e+00 1.0734363215977991e+01 1.6337252291424619e+01 
135 1 2 1.1605682584842913e+00 1.4022330921850874e+00 1.0000000000000000e+00 8.1292709468110111e-02 1.5852225361272627e+01 1.6140536612076492e+01 
119 1 2 1.1605682584842913e+00 1.3830107200945592e+00 1.0000000000000000e+00 4.0031588582032474e-01 1.8803321698988071e+01 1.8098457079738125e+01 
4 1 2 1.1605682584842913e+00 1.4776961826956372e+00 1.0000000000000000e+00 4.8645520459259801e+00 1.9051988088092635e+01 1.7197713315395610e+01 
30 1 2 1.1605682584842913e+00 1.6448214994740686e+00 1.0000000000000000e+00 1.7690629551794765e-01 1.2862278562151902e+01 1.8968130207542938e+01 
74 1 2 1.1605682584842913e+00 1.3400195324100275e+00 1.0000000000000000e+00 7.5642196918312328e+00 6.1035739910556286e+00 2.0361621164787616e-01 
53 1 2 1.1605682584842913e+00 1.5183711023286754e+00 1.0000000000000000e+00 7.1349065578628128e+00 1.8818497080157717e+00 1.4726690392066593e+00 
99 1 2 1.1605682584842913e+00 1.5977627000970962e+00 1.0000000000000000e+00 8.9613547432690748e+00 8.6189191160296357e+00 2.7757577223155603e+00 
35 1 2 1.1608211299261209e+00 1.7161989771119106e+00 1.0000000000000000e+00 1.1680954129133470e+01 8.9560243959072139e+00 2.0119385025562226e+00 
36 1 2 1.1605682584842913e+00 1.3797042274467142e+00 1.0000000000000000e+00 9.0457105174300327e+00 1.8557143649077930e+00 3.0402028964873931e+00 
67 1 2 1.1605682584842913e+00 1.8451759214115628e+00 1.0000000000000000e+00 1.2743051379302191e+01 2.0175040742863146e+00 3.4128836637831981e+00 
58 1 2 1.1605682584842913e+00 1.4203714546407085e+00 1.0000000000000000e+00 8.9237197772584054e+00 5.0685047172999234e+00 3.9540511754611929e+00 
86 1 2 1.1608211299261209e+00 1.4643165182261140e+00 1.0000000000000000e+00 1.2479525832143654e+01 9.5577945257310883e+00 3.5975738732803979e+00 
33 1 2 1.1605682584842913e+00 1.2766660727754573e+00 1.0000000000000000e+00 1.1314396134446286e+01 1.4845832308670044e+00 5.4849404827157908e+00 
52 1 2 1.1605682584842913e+00 1.3351962520155674e+00 1.0000000000000000e+00 8.2001931607400316e+00 9.3588365235759454e+00 4.9740903091456090e+00 
171 1 2 1.1605682584842913e+00 1.6009578354808229e+00 1.0000000000000000e+00 9.0770183551509795e+00 5.0944240356110848e-01 5.7781196012446552e+00 
20 1 2 1.1605682584842913e+00 1.4432841530298606e+00 1.0000000000000000e+00 1.1374743209797648e+01 4.0004338443355927e+00 6.5259474699250948e+00 
121 1 2 1.1605682584842913e+00 1.3966380782141452e+00 1.0000000000000000e+00 7.9680319506438009e+00 5.3850903083469017e+00 5.8728994037770947e+00 
146 1 2 1.1605682584842913e+00 1.3931549371453165e+00 1.0000000000000000e+00 1.1121729967765846e+01 6.6751149710836790e+00 7.4932436948999852e+00 
80 1 2 1.1605682584842913e+00 1.3643718866211367e+00 1.0000000000000000e+00 1.0698287497393199e+01 8.7675134482608927e-02 9.7441830512592826e+00 
51 1 2 1.1605682584842913e+00 1.5480966394323028e+00 1.0000000000000000e+00 7.6164711372380136e+00 3.6713855332143299e+00 9.0665777739870403e+00 
29 1 2 1.1605682584842913e+00 1.5580691195377434e+00 1.0000000000000000e+00 8.1729919818378818e+00 1.1485676127278741e+00 1.0019199929531798e+01 
26 1 2 1.1605682584842913e+00 1.2003061573618665e+00 1.0000000000000000e+00 9.4138217901103936e+00 8.7919185105529216e+00 1.0350421549272280e+01 
85 1 2 1.1605682584842913e+00 1.4917560435741670e+00 1.0000000000000000e+00 7.9888023336910461e+00 2.1850561647981706e+00 1.2798698285346246e+01 
142 1 2 1.1605682584842913e+00 1.4123913438006057e+00 1.0000000000000000e+00 1.0536589921116958e+01 2.2431473288624728e+00 1.2390491353630553e+01 
179 1 2 1.1605682584842913e+00 1.4112749914197549e+00 1.0000000000000000e+00 7.6483749428848844e+00 5.6660061134120854e+00 1.2848988252778868e+01 
124 1 2 1.1605682584842913e+00 1.7737397277209916e+00 1.0000000000000000e+00 1.3077092250817451e+01 6.2535605064901834e+00 1.3573392381212177e+01 
65 1 2 1.1605682584842913e+00 1.4746019445866869e+00 1.0000000000000000e+00 9.3575326977636895e+00 1.8213624982415895e+00 1.5634165939587751e+01 
91 1 2 1.1605682584842913e+00 1.5185581249345996e+00 1.0000000000000000e+00 1.1278772276249498e+01 3.2159385094116968e+00 1.5162964635049573e+01 
106 1 2 1.1605682584842913e+00 1.4079730312216889e+00 1.0000000000000000e+00 1.0110976743992202e+01 5.8889296396226642e+00 1.4570076123426155e+01 
131 1 2 1.1605682584842913e+00 1.6084440147086982e+00 1.0000000000000000e+00 1.1229411439760899e+01 9.8483295789478703e-02 1.6320940022983976e+01 
16 1 2 1.1605682584842913e+00 1.3215567557195982e+00 1.0000000000000000e+00 7.3671847996775934e+00 4.2359702582514398e+00 1.6622655904546793e+01 
112 1 2 1.1605957878449180e+00 1.3293047048080382e+00 1.0000000000000000e+00 1.2862229054353007e+01 9.0468316696398610e+00 1.5991421079616353e+01 
48 1 2 1.1605682584842913e+00 1.4425403781328971e+00 1.0000000000000000e+00 7.6704160226096247e+00 3.2507102610725186e-01 1.9555080758804699e+01 
162 1 2 1.1605739459605615e+00 1.5916861644004177e+00 1.0000000000000000e+00 8.7451346842725588e+00 3.0391760523784250e+00 1.9842699266267012e+01 
40 1 2 1.1605682584842913e+00 1.3984092557539389e+00 1.0000000000000000e+00 1.1501560379542914e+01 3.0739013928312380e+00 1.9950290626041138e+01 
23 1 2 1.1605739459605615e+00 1.3433989139281117e+00 1.0000000000000000e+00 9.2446138321732505e+00 4.7596008058079740e+00 1.9066657969940106e+01 
103 1 2 1.1605682584842913e+00 -5.0706925357601784e-01 1.0000000000000000e+00 1.2846827361087893e+01 6.5651553917883678e+00 1.8984710428140669e+01 
110 1 2 1.1605682584842913e+00 1.5272136057410175e+00 1.0000000000000000e+00 8.5459334671609781e+00 8.0959772070943856e+00 1.9287858472175863e+01 
141 1 2 1.1605682584842913e+00 1.4420705311503768e+00 1.0000000000000000e+00 8.5070222730699552e+00 1.0097688597726457e+01 8.3624328365558598e-01 
15 1 2 1.1605682584842913e+00 1.4026840605715258e+00 1.0000000000000000e+00 1.1044358245985098e+01 1.2841062680647150e+01 1.1511525001112950e+00 
12 1 2 1.1605682584842913e+00 1.4392643525538751e+00 1.0000000000000000e+00 1.3301463302675709e+01 1.2831213052649366e+01 4.6544108994837713e-01 
59 1 2 1.1605682584842913e+00 1.3096369942443755e+00 1.0000000000000000e+00 8.9247894270838248e+00 1.2961222622720403e+01 3.3142203613549701e+00 
76 1 2 1.1605682584842913e+00 1.5914151549751412e+00 1.0000000000000000e+00 9.5773266087001439e+00 1.4799429591668169e+01 4.0788941862438461e+00 
50 1 2 1.1605682584842913e+00 1.5037574344810527e+00 1.0000000000000000e+00 7.3279426682811648e+00 1.5417463311240438e+01 6.9918352769053334e+00 
137 1 2 1.1605682584842913e+00 1.2905229577355275e+00 1.0000000000000000e+00 7.6647267834028980e+00 1.8091504626440088e+01 6.1463102458770020e+00 
73 1 2 1.1605682584842913e+00 1.5983444878226249e+00 1.0000000000000000e+00 1.3003942314081526e+01 1.8415676523021109e+01 6.9659745301295528e+00 
136 1 2 1.1605682584842913e+00 1.6059469918514204e+00 1.0000000000000000e+00 8.4310013566570650e+00 1.1266021569915971e+01 7.3438002161842615e+00 
66 1 2 1.1605682584842913e+00 1.4394565434245674e+00 1.0000000000000000e+00 1.0507339773149306e+01 1.1335054792679268e+01 7.3511355704988430e+00 
159 1 2 1.1605682584842913e+00 1.5211461456474220e+00 1.0000000000000000e+00 1.0065975677636629e+01 1.4312850679632666e+01 7.4267194615085774e+00 
126 1 2 1.1605682584842913e+00 1.5012298595918954e+00 1.0000000000000000e+00 6.7095685077277922e+00 1.4440060613935390e+01 8.9115501097389167e+00 
83 1 2 1.1605682584842913e+00 1.3009007897300626e+00 1.0000000000000000e+00 7.7471592201823825e+00 1.2881587847694544e+01 1.1320794285386294e+01 
45 1 2 1.1605682584842913e+00 1.3744247254519171e+00 1.0000000000000000e+00 1.0360191059437927e+01 1.2923563749770416e+01 1.1170694106789101e+01 
138 1 2 1.1605682584842913e+00 1.5167599298668688e+00 1.0000000000000000e+00 1.1252192698930285e+01 1.7612937008143110e+01 1.2311714685085040e+01 
180 1 2 1.1605682584842913e+00 1.3760934401971285e+00 1.0000000000000000e+00 6.7659367583180643e+00 1.0459619346406450e+01 1.3775658156974695e+01 
170 1 2 1.1605682584842913e+00 1.4549554859636866e+00 1.0000000000000000e+00 1.1902519826787140e+01 1.1211531039204495e+01 1.3038209907204031e+01 
22 1 2 1.1605682584842913e+00 1.3790646397972766e+00 1.0000000000000000e+00 9.2052006856944697e+00 1.9960879557745567e+01 1.2922883078006498e+01 
133 1 2 1.1605682584842913e+00 6.2493305784956310e-01 1.0000000000000000e+00 8.7012862530928512e+00 1.0014497918052367e+01 1.6210818206767144e+01 
160 1 2 1.1605682584842913e+00 1.5023819722316700e+00 1.0000000000000000e+00 1.1032578640330675e+01 1.4015336007587319e+01 1.6023500527960543e+01 
27 1 2 1.1605682584842913e+00 1.5651529848406680e+00 1.0000000000000000e+00 7.4251383938465896e+00 1.7078380625494294e+01 1.6549839572088587e+01 
56 1 2 1.1605682584842913e+00 1.4160803267630868e+00 1.0000000000000000e+00 1.2600649621241031e+01 1.5919229217859609e+01 1.6654914610414220e+01 
105 1 2 1.1605682584842913e+00 1.4938221710247244e+00 1.0000000000000000e+00 1.2156479951911296e+01 1.7755400859692994e+01 1.5765686780713876e+01 
165 1 2 1.1605682584842913e+00 1.4334566678065297e+00 1.0000000000000000e+00 6.8163506222656904e+00 1.0937460516312781e+01 1.8951351722108296e+01 
62 1 2 1.1605682584842913e+00 1.1712428172690372e+00 1.0000000000000000e+00 1.2735713990998674e+01 1.0041913921927375e+01 1.8719590292833853e+01 
116 1 2 1.1605682584842913e+00 1.3270759019576523e+00 1.0000000000000000e+00 1.0181316734902978e+01 1.2065158014920339e+01 1.9200901765065030e+01 
100 1 2 1.1605682584842913e+00 1.3221772159698189e+00 1.0000000000000000e+00 1.2324746716303920e+01 1.5053631963767588e+01 1.8950845424209643e+01 
169 1 2 1.1605682584842913e+00 4.5865591203966821e-01 1.0000000000000000e+00 1.1419352694962965e+01 1.9242186035566665e+01 1.8752977529823578e+01 
47 1 2 1.1605682584842913e+00 1.5415250766286990e+00 1.0000000000000000e+00 1.4397216868359873e+01 6.0431227880128677e+00 5.1747591995944586e-01 
122 1 2 1.1605682584842913e+00 1.5830028338751778e+00 1.0000000000000000e+00 1.8145574209962671e+01 6.6340496942651459e+00 2.0660842529308394e+00 
115 1 2 1.1605682584842913e+00 1.4603324120723307e+00 1.0000000000000000e+00 1.8977607838890314e+01 9.6840311145705709e+00 2.5211225631945746e+00 
31 1 2 1.1605682584842913e+00 1.4594486778081524e+00 1.0000000000000000e+00 1.6339381206464079e+01 4.1005288802728916e+00 3.3921808588837163e+00 
154 1 2 1.1605682584842913e+00 1.5042707641559612e+00 1.0000000000000000e+00 1.9068437413234467e+01 4.4513303827839188e+00 3.5251421411348227e+00 
88 1 2 1.1605682584842913e+00 1.5303678703756285e+00 1.0000000000000000e+00 1.4917165879025799e+01 6.6040506620026038e+00 3.0666376138958968e+00 
163 1 2 1.1605682584842913e+00 1.4263031630293015e+00 1.0000000000000000e+00 1.7586925371647464e+01 9.2715519876982118e+00 4.0938921528805752e+00 
54 1 2 1.1605682584842913e+00 1.3686161490899247e+00 1.0000000000000000e+00 1.7061723979894367e+01 1.5409296727130208e+00 6.1816934509892647e+00 
39 1 2 1.1605682584842913e+00 1.5441500478881820e+00 1.0000000000000000e+00 1.4143583232966455e+01 6.6191368330139344e+00 5.8719792335155248e+00 
46 1 2 1.1605682584842913e+00 1.5858731905419101e+00 1.0000000000000000e+00 1.3491854818558718e+01 9.1279966078037642e+00 5.8429779895737113e+00 
69 1 2 1.1605682584842913e+00 1.5305265037346032e+00 1.0000000000000000e+00 1.8031628150533660e+01 1.3689582098097847e-01 7.2438220409236562e+00 
14 1 2 1.1605682584842913e+00 1.4376288211018626e+00 1.0000000000000000e+00 1.6608951636489330e+01 4.7433512540026976e+00 7.2394640277622981e+00 
102 1 2 1.1605682584842913e+00 1.3845500062189462e+00 1.0000000000000000e+00 1.8660315392870388e+01 7.3085048852721162e+00 7.8359218201701726e+00 
61 1 2 1.1605682584842913e+00 1.4875223237560640e+00 1.0000000000000000e+00 1.8785195652323889e+01 1.4537283355011585e+00 9.7963301864448713e+00 
156 1 2 1.1605682584842913e+00 1.4901832004947009e+00 1.0000000000000000e+00 1.8269207310555345e+01 3.9288965158497682e+00 9.7429540347952788e+00 
24 1 2 1.1605682584842913e+00 1.6287301167087151e+00 1.0000000000000000e+00 1.3561198538088053e+01 8.0980859436116717e+00 9.0294218446096473e+00 
82 1 2 1.1606411534595269e+00 1.4857993560320573e+00 1.0000000000000000e+00 1.9987212710440435e+01 9.7681253939799593e+00 9.9664287777785390e+00 
123 1 2 1.1605682584842913e+00 1.3199871317948033e+00 1.0000000000000000e+00 1.3602439374553768e+01 4.8061869234848995e+00 1.1191531543438336e+01 
167 1 2 1.1606817764023429e+00 1.2897387184880613e+00 1.0000000000000000e+00 1.6568358789464760e+01 6.2901281901891375e+00 1.1849014877418167e+01 
44 1 2 1.1605682584842913e+00 1.5107283735968786e+00 1.0000000000000000e+00 1.5930988068937040e+01 3.7880924439118844e+00 1.3596061279958006e+01 
34 1 2 1.1606817764023429e+00 1.5124151009291285e+00 1.0000000000000000e+00 1.7344058141594633e+01 5.2541272757297994e+00 1.3237206910137079e+01 
147 1 2 1.1605682584842913e+00 1.3970150609930645e+00 1.0000000000000000e+00 1.8582848003895368e+01 1.8038406125093747e+00 1.5682308700251040e+01 
87 1 2 1.1605682584842913e+00 1.5377877635475619e+00 1.0000000000000000e+00 1.3866148018829254e+01 5.9058130520301457e+00 1.6395703436727963e+01 
104 1 2 1.1611161688071767e+00 1.5550882858665511e+00 1.0000000000000000e+00 1.5167465447007746e+01 7.6714269868168676e+00 1.6468328688972168e+01 
113 1 2 1.1605682584842913e+00 9.6007074592689623e-01 1.0000000000000000e+00 1.6403659468208573e+01 9.2525613501879693e+00 1.6551362639478324e+01 
134 1 2 1.1605731637079646e+00 1.6248167255619277e+00 1.0000000000000000e+00 1.5417155476174662e+01 2.5742218612718798e-01 1.8191617000532563e+01 
38 1 2 1.1605682584842913e+00 1.5348290202258972e+00 1.0000000000000000e+00 1.7143584461610295e+01 3.1787580268550104e+00 1.7304501596098540e+01 
149 1 2 1.1611161688071767e+00 1.5274047447798764e+00 1.0000000000000000e+00 1.5100021074870666e+01 7.8597488088906990e+00 1.8304234516066749e+01 
92 1 2 1.1605731637079646e+00 1.5731845842080523e+00 1.0000000000000000e+00 1.4550589267568256e+01 2.0283588667194777e-01 1.9942327310465082e+01 
177 1 2 1.1605682584842913e+00 1.5590125879092480e+00 1.0000000000000000e+00 1.7598654920932727e+01 1.0148208252541259e+01 1.0771980371330589e+00 
127 1 2 1.1605682584842913e+00 1.4529091891947292e+00 1.0000000000000000e+00 1.5999683370051958e+01 1.6737775643070606e+01 1.0767810417758290e+00 
151 1 2 1.1605682584842913e+00 1.4111533204068234e+00 1.0000000000000000e+00 1.3475919849856291e+01 1.1989944444530622e+01 2.5644251833600231e+00 
28 1 2 1.1605682584842913e+00 1.4219683940758285e+00 1.0000000000000000e+00 1.3460339750975614e+01 1.6131856257057276e+01 2.9846107896099103e+00 
77 1 2 1.1605682584842913e+00 8.4343940020132391e-01 1.0000000000000000e+00 1.7997223931766506e+01 1.2667480716366812e+01 5.4159211091113164e+00 
43 1 2 1.1605682584842913e+00 1.4188749980340547e+00 1.0000000000000000e+00 1.4576977410861595e+01 1.3066291878860078e+01 4.5514530842609435e+00 
175 1 2 1.1605682584842913e+00 1.4328700028464234e+00 1.0000000000000000e+00 1.7290957224544506e+01 1.5595795410185428e+01 5.2444552009665371e+00 
158 1 2 1.1605682584842913e+00 1.6077408783219087e+00 1.0000000000000000e+00 1.4958079137723413e+01 1.4035367439044229e+01 8.2504670101999000e+00 
90 1 2 1.1605682584842913e+00 1.5016619072872053e+00 1.0000000000000000e+00 1.5491703594632490e+01 1.9060124792777646e+01 7.7245636072505572e+00 
60 1 2 1.1605682584842913e+00 1.5460728479584227e+00 1.0000000000000000e+00 1.6607825784787092e+01 1.5257124957881112e+01 9.5694496817413288e+00 
17 1 2 1.1605682584842913e+00 1.3890144027717515e+00 1.0000000000000000e+00 1.8709181086800783e+01 1.5663336333635648e+01 9.3697129970335080e+00 
42 1 2 1.1606411534595269e+00 1.5509774582765714e+00 1.0000000000000000e+00 1.8743125688604270e+01 1.0375412964204658e+01 1.1280799727585558e+01 
95 1 2 1.1605682584842913e+00 1.3699269385836828e+00 1.0000000000000000e+00 1.7923257414541094e+01 1.2071515763311327e+01 1.0273051940980233e+01 
132 1 2 1.1605682584842913e+00 1.4794745612579936e+00 1.0000000000000000e+00 1.9771306467486745e+01 1.5210567746347071e+01 1.1099916480781923e+01 
71 1 2 1.1605682584842913e+00 1.4925274122150407e+00 1.0000000000000000e+00 1.4108604864311401e+01 1.7679379798099369e+01 1.1005042066006007e+01 
57 1 2 1.1605682584842913e+00 1.4188974836174322e+00 1.0000000000000000e+00 1.3586888418922124e+01 1.2249785855863228e+01 1.2695055157033826e+01 
168 1 2 1.1605682584842913e+00 1.4032065174361188e+00 1.0000000000000000e+00 1.6607912317871239e+01 1.4077018385694279e+01 1.1875180121156809e+01 
153 1 2 1.1605682584842913e+00 1.4365934646427418e+00 1.0000000000000000e+00 1.5066228380848704e+01 1.5930437500599886e+01 1.1668185468364406e+01 
19 1 2 1.1605682584842913e+00 1.3679902347478636e+00 1.0000000000000000e+00 1.6152438654713926e+01 1.9463930096119288e+01 1.1670202608816483e+01 
174 1 2 1.1605682584842913e+00 -3.5274851354450809e-01 1.0000000000000000e+00 1.6920548983240842e+01 1.0120463870868608e+01 1.3908202724774915e+01 
78 1 2 1.1605682584842913e+00 1.4161551545437607e+00 1.0000000000000000e+00 1.7089586965398428e+01 1.2349524338362688e+01 1.3488918274123638e+01 
5 1 2 1.1605682584842913e+00 1.5591312367935257e+00 1.0000000000000000e+00 1.5393095430643466e+01 1.8022764737898804e+01 1.3335280931407610e+01 
117 1 2 1.1605682584842913e+00 1.4327029776327471e+00 1.0000000000000000e+00 1.9056392921915464e+01 1.7574090586964157e+01 1.4076473162106460e+01 
114 1 2 1.1605682584842913e+00 1.7093304606487307e+00 1.0000000000000000e+00 1.3952687571861251e+01 1.5744400867665801e+01 1.4299141649747510e+01 
101 1 2 1.1605957878449180e+00 1.5739823369815795e+00 1.0000000000000000e+00 1.3536548001602178e+01 1.0854099461513840e+01 1.5974122844895822e+01 
176 1 2 1.1605682584842913e+00 1.4900607179955849e+00 1.0000000000000000e+00 1.5229101122997859e+01 1.3146421420778770e+01 1.6304729336625446e+01 
178 1 2 1.1605682584842913e+00 1.3618220733143476e+00 1.0000000000000000e+00 1.9256152062913227e+01 1.3876316875325973e+01 1.7081611998449514e+01 
68 1 2 1.1605682584842913e+00 1.3338476695015933e+00 1.0000000000000000e+00 1.4140907966989911e+01 1.0828831103538166e+01 1.9998261929469223e+01 
79 1 2 1.1605682584842913e+00 1.5576306999679015e+00 1.0000000000000000e+00 1.7115115792896631e+01 1.1559003631755937e+01 1.9517324988301219e+01 
32 1 2 1.1605682584842913e+00 1.4955794127246840e+00 1.0000000000000000e+00 1.7876600576856543e+01 1.8591250195253387e+01 1.8685178163151729e+01 

Velocities

10 -8.5931807609393909e-02 -3.4263548870120947e-01 -2.8037165775813444e-01
75 3.1666626306166457e-02 5.1686604544314929e-01 2.8568275514822311e-01
143 2.0439282074457818e-01 1.5140719830852434e-01 5.4879642707822175e-03
161 5.5469491856381205e-02 -1.1852546036504558e-01 7.4681610787747196e-02
164 1.3839754362643891e-01 2.5730416997409439e-01 1.1658671124600160e-01
13 4.6233123182634839e-01 2.1885184275628142e-01 1.4296722770505907e-02
70 5.0006742598886961e-02 -2.2221095534747606e-01 4.3002815516985721e-01
125 3.4066774525838756e-01 -1.0408115989790062e-01 -1.2331110867355069e-02
72 3.4774157170428086e-03 3.5759077774113174e-01 -1.3404556163382622e-01
96 3.1802366878095645e-01 -3.9177057795294434e-01 3.2708347607665073e-01
128 1.0413944478983189e-01 -3.8292442817537237e-01 -1.5719898177459091e-01
84 5.8504059045158589e-02 4.0699607462807647e-01 1.3105392579451952e-01
130 2.6862617486615215e-01 -1.0659969948944557e-01 2.6387694224913261e-01
8 -1.5543768624999496e-01 2.9014297735689304e-01 -3.2149329963922174e-01
166 1.5532185902974052e-02 1.4512161241143998e-01 -7.9195232131025972e-02
120 -3.1148030294402501e-01 3.0901184374625701e-01 1.4205299383563028e-01
129 -1.0717397003213124e-01 5.1797356029159650e-03 5.5031169535910127e-02
7 1.6068506187851755e-01 2.6979548626848854e-01 -3.1531445879546142e-02
150 7.9477792481838699e-02 3.9239546337517035e-02 4.9510456453476029e-02
6 -3.0812606717530895e-02 1.4776309871608558e-03 -2.6510515745256119e-01
93 -1.8502491489031433e-01 -2.9878645990625280e-01 1.0624248338460592e-01
25 -2.2285076940934248e-01 2.4562214788625714e-01 -6.6214218598308464e-02
55 1.8788492728017830e-01 1.7689932114688062e-01 -4.0766050263332448e-01
108 -2.4756738517032192e-01 1.0843266793031983e-02 -7.1464751947258154e-02
148 -4.1763517143072186e-02 -7.0165988485188416e-02 3.5278456441280742e-01
41 4.5881722405620023e-02 -9.8073932189931046e-02 3.1544825619296368e-01
139 1.2912722682174452e-01 -1.2239226537762901e-01 4.2413033724513549e-01
98 -3.3966658703662905e-01 -9.3365670877068110e-02 1.3678757702347477e-01
81 -2.7230452120753296e-01 4.4881109875803758e-02 5.5871573617311814e-02
49 1.9078844985015286e-01 -1.3286131267358628e-02 -8.7817453430595563e-02
2 8.5670699068071024e-02 -1.0869425278617488e-01 -1.7467573262824029e-01
157 3.4769544642765032e-01 -5.0114850866143305e-02 1.2449124209776170e-01
18 -2.0902502577480322e-01 -2.9898353306234987e-01 6.4830447430051036e-02
9 -1.3386720631369856e-01 -3.4128297300108629e-01 -2.1088291625265629e-01
11 1.5075594141897883e-01 1.3735966428981608e-02 6.1920233457336219e-04
118 7.8250881157556879e-02 1.5337593171861449e-01 3.4897265010257039e-01
155 2.5948549670700266e-01 -3.7308692865135085e-01 2.9886737963043936e-01
140 3.3272467415443173e-02 2.2401232037373309e-01 -4.1565138071777663e-01
111 -6.2980198607004628e-02 5.8627096388329809e-02 1.2293831370475312e-01
64 1.4894842523534238e-01 -3.2499307011939854e-01 3.2270864223735360e-02
172 -1.2890842800523356e-01 5.3699742081363411e-01 -1.3035886109243089e-01
144 -4.5327860892201371e-01 8.1541332010866968e-02 -1.8087341376795102e-01
89 2.5145911905318630e-01 5.5662505983066199e-02 2.3708125271067465e-01
3 -1.7757772140130138e-02 1.8757688400813075e-01 -2.0910379631809523e-01
97 -3.7821431082969592e-01 3.0085737624559433e-02 -2.6993477426900527e-02