LAMMPS data file via write_data, version 30 Jul 2016, timestep = 50400000

180 atoms
2 atom types

0.0000000000000000e+00 2.0000000000000000e+01 xlo xhi
0.0000000000000000e+00 2.0000000000000000e+01 ylo yhi
0.0000000000000000e+00 2.0000000000000000e+01 zlo zhi

Masses

1 3.896
2 4.31

Atoms # meso-molecular

3 1 2 1.1605682584842913e+00 1.4995603659694163e+00 1.0000000000000000e+00 5.1274378056044272e+00 5.7841210150994486e+00 4.0695493575282760e-01 
127 1 2 1.1605682584842913e+00 1.4691037215140814e+00 1.0000000000000000e+00 4.7356215407319509e+00 6.6066593383609176e+00 3.0195490578050301e+00 
73 1 2 1.1605682584842913e+00 1.6211155767823890e+00 1.0000000000000000e+00 1.8678462408619229e-01 7.2178357722434985e-02 5.3179969038108368e+00 
92 1 2 1.1605682584842913e+00 1.5901899922234528e+00 1.0000000000000000e+00 6.0010812842670189e+00 3.2949767533968372e-01 4.4981313903528886e+00 
41 1 2 1.1605682584842913e+00 1.5567902232446786e+00 1.0000000000000000e+00 2.1714363511357102e+00 3.2344420061226860e+00 4.9839431730618111e+00 
63 1 2 1.1605682584842913e+00 1.4697841853730318e+00 1.0000000000000000e+00 3.4676229024559744e+00 5.3635947290045767e+00 5.5829022294380923e+00 
45 1 2 1.1605682584842913e+00 1.3805238915716838e+00 1.0000000000000000e+00 1.4124849429344672e+00 9.4180161673307481e+00 5.3134318951353823e+00 
128 1 2 1.1605682584842913e+00 1.4905366236303075e+00 1.0000000000000000e+00 4.3776024776583461e-01 2.9390004838181691e+00 6.9402514108677051e+00 
83 1 2 1.1605682584842913e+00 1.3022363761746529e+00 1.0000000000000000e+00 1.1604772687100771e-01 7.9256700966648861e+00 6.9061925138623836e+00 
87 1 2 1.1605682584842913e+00 1.5415589342502209e+00 1.0000000000000000e+00 6.5311508159484193e+00 7.7361312783033398e+00 8.0629585934684034e+00 
39 1 2 1.1605682584842913e+00 1.5515028308179177e+00 1.0000000000000000e+00 6.3016560575236023e+00 1.6844871405992898e+00 8.9196613187664671e+00 
102 1 2 1.1605682584842913e+00 1.3932034990523285e+00 1.0000000000000000e+00 3.5891464448325534e+00 9.0704204969024929e+00 9.9268984195917191e+00 
82 1 2 1.1605682584842913e+00 1.4646685243722968e+00 1.0000000000000000e+00 1.7069839672166209e-01 1.7205809025318175e+00 1.1360670365063912e+01 
132 1 2 1.1605682584842913e+00 1.4821917429090843e+00 1.0000000000000000e+00 5.0111448270223988e+00 3.5608692532991757e+00 1.0259043088081160e+01 
74 1 2 1.1605682584842913e+00 1.3443550635098087e+00 1.0000000000000000e+00 1.2094516615025388e+00 4.6770910135411308e+00 1.1301520275732525e+01 
177 1 2 1.1608319114326933e+00 1.6447039437431719e+00 1.0000000000000000e+00 2.5577324433469952e+00 6.6500284471879665e+00 1.1467520923561699e+01 
84 1 2 1.1605682584842913e+00 1.5822370885297379e+00 1.0000000000000000e+00 6.0258062559258425e+00 6.6323305722525525e+00 1.1471463509474713e+01 
14 1 2 1.1608142101096135e+00 1.5173011147613065e+00 1.0000000000000000e+00 1.6612096158283975e+00 7.6917649322656638e+00 1.2745486800970637e+01 
113 1 2 1.1605957507192384e+00 9.8101111000665875e-01 1.0000000000000000e+00 3.3611949049382051e+00 5.9000189531239435e+00 1.3052792752289950e+01 
178 1 2 1.1605780493961588e+00 1.3765638357148493e+00 1.0000000000000000e+00 2.5841231260251973e-01 7.6572376421861543e+00 1.4092713251294835e+01 
112 1 2 1.1605682584842913e+00 1.3347003020129513e+00 1.0000000000000000e+00 4.7112524916797236e+00 3.4984225757174325e+00 1.4866856532020487e+01 
40 1 2 1.1605682584842913e+00 1.4018890565014805e+00 1.0000000000000000e+00 5.8523224643432838e+00 9.5219580311459833e+00 1.4586210196396408e+01 
75 1 2 1.1605682584842913e+00 1.5306282154905224e+00 1.0000000000000000e+00 5.8028766342772681e-02 7.0680800082601936e+00 1.6113696601644669e+01 
93 1 2 1.1605682584842913e+00 1.3566793197683698e+00 1.0000000000000000e+00 2.6190721563508883e+00 7.1295870583722953e+00 1.5959004088312986e+01 
70 1 2 1.1605682584842913e+00 1.6698768154515331e+00 1.0000000000000000e+00 3.7873255819530889e+00 2.3098217047554872e+00 1.7161965332702579e+01 
106 1 2 1.1605682584842913e+00 1.4129341842209970e+00 1.0000000000000000e+00 6.3424857065181035e+00 6.4295408763124566e+00 1.7615202460161502e+01 
32 1 2 1.1605682584842913e+00 1.4976140415459436e+00 1.0000000000000000e+00 6.5053275932190102e+00 1.9588356346831270e+00 1.9769658550319356e+01 
6 1 2 1.1605682584842913e+00 1.4613019801586056e+00 1.0000000000000000e+00 2.0456772893168438e+00 9.2673954506764744e+00 1.9814236003213608e+01 
141 1 2 1.1605682584842913e+00 1.4480691088049906e+00 1.0000000000000000e+00 3.1875997313024977e+00 1.3252505025223089e+01 2.5423523978726420e-01 
71 1 2 1.1605682584842913e+00 1.4948559612874059e+00 1.0000000000000000e+00 2.0905884004641155e+00 1.4613862884472839e+01 1.3777226501710456e+00 
135 1 2 1.1605682584842913e+00 1.4129286702884176e+00 1.0000000000000000e+00 8.6567424746298927e-01 1.7918712134904304e+01 1.7383190112011565e-01 
171 1 2 1.1605682584842913e+00 1.6113180186378115e+00 1.0000000000000000e+00 5.1231508390398686e+00 1.7687946816523681e+01 1.6129828254580172e+00 
15 1 2 1.1605682584842913e+00 1.4167132726552878e+00 1.0000000000000000e+00 2.2935337129829798e+00 1.9186747803217248e+01 1.4298209381253597e+00 
89 1 2 1.1605682584842913e+00 1.4055629030086862e+00 1.0000000000000000e+00 4.6223431615148556e+00 1.3064769897152631e+01 5.1028117332991041e+00 
143 1 2 1.1605682584842913e+00 1.4821878443825207e+00 1.0000000000000000e+00 4.9799388118915973e+00 1.6655422205327017e+01 5.5747508803168646e+00 
115 1 2 1.1605682584842913e+00 1.4704625900242974e+00 1.0000000000000000e+00 3.1966864428656643e+00 1.8981998031615248e+01 5.2131095683802124e+00 
8 1 2 1.1605682584842913e+00 1.5725862334211018e+00 1.0000000000000000e+00 1.6374830212392413e+00 1.4516647934677097e+01 6.4061058174562335e+00 
31 1 2 1.1605682584842913e+00 1.4643731096932804e+00 1.0000000000000000e+00 2.1199354838546922e+00 1.2336975292433191e+01 7.4369358631742237e+00 
1 1 2 1.1605682584842913e+00 1.6403605825054619e+00 1.0000000000000000e+00 4.0874184852313862e+00 1.5639147979398103e+01 7.9784339608306398e+00 
27 1 2 1.1605682584842913e+00 1.5745618034723319e+00 1.0000000000000000e+00 3.5737859014582325e+00 1.1297223430371535e+01 8.9406856537790400e+00 
94 1 2 1.1605682584842913e+00 1.4368213513703885e+00 1.0000000000000000e+00 3.4098862118496565e-01 1.7418944275042858e+01 9.4666340997023291e+00 
109 1 2 1.1605682584842913e+00 1.6219467335746232e+00 1.0000000000000000e+00 5.3397825749295551e+00 1.8999359343763636e+01 8.7722567420500077e+00 
50 1 2 1.1605682584842913e+00 1.5232402116237345e+00 1.0000000000000000e+00 8.7301344892812860e-01 1.1635533908977317e+01 1.0931375453320296e+01 
5 1 2 1.1605682584842913e+00 1.5624046481193676e+00 1.0000000000000000e+00 1.1378811553636172e+00 1.5193460025116917e+01 1.0722172881249708e+01 
16 1 2 1.1605682584842913e+00 1.3313144236326719e+00 1.0000000000000000e+00 3.5492193912007353e+00 1.4532656813645314e+01 1.0148568458833340e+01 
140 1 2 1.1605682584842913e+00 1.4247398061508769e+00 1.0000000000000000e+00 6.6491728896975442e+00 1.7646337055556902e+01 1.0768452452559881e+01 
13 1 2 1.1605698194823304e+00 1.4264680106519325e+00 1.0000000000000000e+00 1.3792040098183800e+00 1.9662461302393314e+01 1.0821540162012440e+01 
10 1 2 1.1605698194823304e+00 1.3562843772073934e+00 1.0000000000000000e+00 7.4898929212937904e-01 1.7992698849917918e+01 1.1645459281662495e+01 
172 1 2 1.1605682584842913e+00 1.5131067729843557e+00 1.0000000000000000e+00 5.4076724348108858e+00 1.6210769931749631e+01 1.3089510262784280e+01 
7 1 2 1.1605682584842913e+00 1.4176665931548444e+00 1.0000000000000000e+00 1.8957700092391558e+00 1.0813859697868100e+01 1.4497397593988289e+01 
23 1 2 1.1605682584842913e+00 1.3420232174245501e+00 1.0000000000000000e+00 5.2631108208635320e+00 1.2519616618439247e+01 1.4967805496113611e+01 
56 1 2 1.1605682584842913e+00 1.4303641455130371e+00 1.0000000000000000e+00 5.7027098339208795e+00 1.4522938196786942e+01 1.4818357612312671e+01 
33 1 2 1.1605682584842913e+00 1.3111342398233568e+00 1.0000000000000000e+00 4.7426475176647651e+00 1.4716704216308111e+01 1.6958634551609439e+01 
77 1 2 1.1605682584842913e+00 8.4873223963542577e-01 1.0000000000000000e+00 4.1659970371948774e+00 1.6474150616644497e+01 1.6050391842035893e+01 
105 1 2 1.1605682584842913e+00 1.5087529243503970e+00 1.0000000000000000e+00 1.1698280068701568e+00 1.0247491864047596e+01 1.7612118650247673e+01 
107 1 2 1.1605682584842913e+00 1.6178081685014991e+00 1.0000000000000000e+00 5.0987702958555658e+00 1.1427492705947943e+01 1.8027084837215227e+01 
96 1 2 1.1605750503899530e+00 1.4028786605235211e+00 1.0000000000000000e+00 1.2860602344539680e+00 1.6030497489968337e+01 1.7571672555138182e+01 
4 1 2 1.1605682584842913e+00 1.4806465846529293e+00 1.0000000000000000e+00 3.2735227977231247e+00 1.9249231676475972e+01 1.7497148122869490e+01 
57 1 2 1.1605682584842913e+00 1.4385070362548493e+00 1.0000000000000000e+00 5.6755638338715171e+00 1.3840625045754244e+01 1.9619254090720087e+01 
44 1 2 1.1605682584842913e+00 1.5127078942592500e+00 1.0000000000000000e+00 1.4214339517583066e+00 1.9237207455603535e+01 1.8641609333118762e+01 
130 1 2 1.1605682584842913e+00 1.3698257355366037e+00 1.0000000000000000e+00 7.4536983499565022e+00 4.1755283125414069e+00 2.4616467624128624e-01 
37 1 2 1.1605682584842913e+00 1.5906794980269905e+00 1.0000000000000000e+00 1.1444040547428621e+01 4.0129846641721834e+00 1.1321560035066494e+00 
108 1 2 1.1605682584842913e+00 1.3872039252515322e+00 1.0000000000000000e+00 1.0823002348956672e+01 6.2061467807007009e+00 5.4704706118334212e-01 
161 1 2 1.1605682584842913e+00 1.4733826689798262e+00 1.0000000000000000e+00 7.4417544308847345e+00 8.3816732888601866e+00 2.1112688276390202e-03 
146 1 2 1.1605682584842913e+00 1.4256660353034696e+00 1.0000000000000000e+00 1.0543233280028526e+01 4.5926832008635872e+00 3.2242894883372983e+00 
53 1 2 1.1605682584842913e+00 1.5243796165400827e+00 1.0000000000000000e+00 8.3373251435124036e+00 8.2219093317250298e+00 3.1095398175276068e+00 
167 1 2 1.1605682584842913e+00 1.2649705924311776e+00 1.0000000000000000e+00 9.2944795180605180e+00 6.7370269245208840e+00 4.4989238192663912e+00 
47 1 2 1.1605682584842913e+00 1.5496372472965505e+00 1.0000000000000000e+00 7.2387257188667702e+00 8.4444319835141091e+00 5.3703263809340189e+00 
149 1 2 1.1605682584842913e+00 1.4130217784056329e+00 1.0000000000000000e+00 7.1662514422217587e+00 2.5793045430883232e+00 6.2949686792047954e+00 
174 1 2 1.1605682584842913e+00 -3.1386664092141342e-01 1.0000000000000000e+00 1.2902919840307428e+01 1.6219755733246419e+00 6.1784539993214240e+00 
136 1 2 1.1605682584842913e+00 1.6102436328063252e+00 1.0000000000000000e+00 1.2936348772815705e+01 9.3154790914127297e+00 5.8557142719916806e+00 
88 1 2 1.1605682584842913e+00 1.5333244025168216e+00 1.0000000000000000e+00 9.6051523896036830e+00 5.9051195765355811e+00 7.8318018076299918e+00 
20 1 2 1.1605682584842913e+00 1.4474386702612638e+00 1.0000000000000000e+00 1.2012137100782484e+01 1.5110168067724856e+00 8.8961585097424187e+00 
26 1 2 1.1605682584842913e+00 1.2011260134002035e+00 1.0000000000000000e+00 6.7465149617892548e+00 9.6776217038104235e+00 8.8025146250152329e+00 
144 1 2 1.1605682584842913e+00 1.2102507482955356e+00 1.0000000000000000e+00 1.2163622430933245e+01 3.4325733061891901e+00 1.0656733536256692e+01 
64 1 2 1.1605717534257074e+00 1.3957420895660126e+00 1.0000000000000000e+00 9.8953407485816136e+00 6.9388430905388860e+00 1.0974777700481830e+01 
95 1 2 1.1605786460585457e+00 1.3841634451141773e+00 1.0000000000000000e+00 1.1351531781319204e+01 7.6150001839740051e+00 1.2807417338951080e+01 
158 1 2 1.1605821409999617e+00 1.6274916749573818e+00 1.0000000000000000e+00 9.8409368200752869e+00 8.5752153377715956e+00 1.2048040765917753e+01 
138 1 2 1.1605682584842913e+00 1.5246674753013298e+00 1.0000000000000000e+00 1.3149086172027776e+01 9.1267388860004335e+00 1.3803133186596867e+01 
65 1 2 1.1605682584842913e+00 1.4783206608645085e+00 1.0000000000000000e+00 1.2348516802959722e+01 6.1168588450111718e+00 1.4921712080176672e+01 
116 1 2 1.1605682584842913e+00 1.3473816146290138e+00 1.0000000000000000e+00 1.2891265702766706e+01 8.1082807285377836e+00 1.5970258562922130e+01 
11 1 2 1.1605682584842913e+00 1.4850284404816314e+00 1.0000000000000000e+00 9.2213634288987976e+00 1.6236361403868103e+00 1.9959288305240413e+01 
68 1 2 1.1605682584842913e+00 1.3463609773640766e+00 1.0000000000000000e+00 1.1155666464242087e+01 7.4708960920489282e+00 1.9016390612591650e+01 
137 1 2 1.1605682584842913e+00 1.3049340728077219e+00 1.0000000000000000e+00 1.1704151181564402e+01 1.1172669603761991e+01 4.0680216961609228e-01 
168 1 2 1.1605682603283314e+00 1.4279776060888181e+00 1.0000000000000000e+00 1.1734502971941044e+01 1.4146621158329385e+01 2.6120426629302745e-01 
12 1 2 1.1605682584842913e+00 1.4476702106695241e+00 1.0000000000000000e+00 7.1315782116041309e+00 1.5360916931881388e+01 9.5679815875565710e-01 
76 1 2 1.1605682584842913e+00 1.5976833839713471e+00 1.0000000000000000e+00 1.0614327067973090e+01 1.2847277812560383e+01 1.7768850196070978e+00 
67 1 2 1.1607052758472005e+00 1.8924834048808548e+00 1.0000000000000000e+00 1.1796455160287433e+01 1.5028152526659383e+01 2.0497766575049852e+00 
118 1 2 1.1605682584842913e+00 1.5344808677575252e+00 1.0000000000000000e+00 9.9891434757183841e+00 1.5014028231316464e+01 3.3025984949037737e+00 
151 1 2 1.1607052740031605e+00 1.4726913006067699e+00 1.0000000000000000e+00 1.2733159178166053e+01 1.5026494532366328e+01 3.6946496932420758e+00 
162 1 2 1.1605682584842913e+00 1.5945250053514151e+00 1.0000000000000000e+00 1.0883910181442451e+01 1.9138014608152751e+01 4.2560674377188512e+00 
25 1 2 1.1606371110459284e+00 1.7417481786968132e+00 1.0000000000000000e+00 1.2278848553372553e+01 1.1754493933060436e+01 5.2255603500941534e+00 
154 1 2 1.1605682584842913e+00 1.5100373278104700e+00 1.0000000000000000e+00 7.4736526526431533e+00 1.6874813346635115e+01 4.4058289385933804e+00 
35 1 2 1.1605682584842913e+00 1.6587295129722250e+00 1.0000000000000000e+00 1.2108487535291804e+01 1.6828312079318348e+01 4.6911308164788474e+00 
164 1 2 1.1605682584842913e+00 1.4328179980340749e+00 1.0000000000000000e+00 7.6671466522167755e+00 1.0881915067274294e+01 6.0114005314612120e+00 
157 1 2 1.1606371110459284e+00 1.5680618901054280e+00 1.0000000000000000e+00 1.1948429609338749e+01 1.3417557193659343e+01 6.1052837690998016e+00 
2 1 2 1.1605682584842913e+00 1.3496238322468788e+00 1.0000000000000000e+00 7.9275045649204152e+00 1.4629455560478807e+01 6.1157990136334224e+00 
86 1 2 1.1605682584842913e+00 1.4256626867735660e+00 1.0000000000000000e+00 8.8414125932997223e+00 1.6277068558779931e+01 6.8378535185048674e+00 
72 1 2 1.1605682579962018e+00 1.5962719146023325e+00 1.0000000000000000e+00 1.0259960149779381e+01 1.9493320619817638e+01 6.5525087977706828e+00 
103 1 2 1.1605682691118298e+00 -5.0102660793414922e-01 1.0000000000000000e+00 1.0372179611576907e+01 1.1691522108158859e+01 8.3954915495927906e+00 
165 1 2 1.1605682584842913e+00 1.4422274654182932e+00 1.0000000000000000e+00 9.6831542689481740e+00 1.4183954433197480e+01 7.5457349803366744e+00 
111 1 2 1.1605682579962018e+00 1.3806030587243632e+00 1.0000000000000000e+00 1.1799952979113080e+01 1.9874068802385985e+01 7.7629319703020760e+00 
110 1 2 1.1605682691118298e+00 1.5330344945975598e+00 1.0000000000000000e+00 1.0234556985970874e+01 1.3308299875631711e+01 9.5488119477161000e+00 
90 1 2 1.1605682584842913e+00 1.5033135740285348e+00 1.0000000000000000e+00 1.0715585007464375e+01 1.6007819858079841e+01 9.3744769333166857e+00 
160 1 2 1.1605682584842913e+00 1.5139297696534553e+00 1.0000000000000000e+00 1.2982378527537481e+01 1.3043455175225850e+01 1.1321985111444139e+01 
43 1 2 1.1605682584842913e+00 1.4380423102114337e+00 1.0000000000000000e+00 1.1507557603171724e+01 1.6024479823547033e+01 1.2644298207851945e+01 
126 1 2 1.1605682584842913e+00 1.5095958886484389e+00 1.0000000000000000e+00 9.2141790108276620e+00 1.9176685019666273e+01 1.1819777913800165e+01 
179 1 2 1.1605682584842913e+00 1.4125890660145837e+00 1.0000000000000000e+00 7.9961179647896774e+00 1.0362956206913422e+01 1.2924989726446391e+01 
142 1 2 1.1605682584842913e+00 1.4200551466157925e+00 1.0000000000000000e+00 8.7542946651742675e+00 1.8702343880338336e+01 1.3756035600482196e+01 
134 1 2 1.1605682584842913e+00 1.6251742274036181e+00 1.0000000000000000e+00 1.2889822641156060e+01 1.9943651493603049e+01 1.3801950335026804e+01 
173 1 2 1.1605682584842913e+00 -4.2411754593036310e-01 1.0000000000000000e+00 1.0929582036100831e+01 1.3825021419443987e+01 1.4445293227873321e+01 
58 1 2 1.1605682584842913e+00 1.4391861744726846e+00 1.0000000000000000e+00 8.3368015332885612e+00 1.6615226591439708e+01 1.4377858498131866e+01 
97 1 2 1.1605682584842913e+00 1.5070638881803724e+00 1.0000000000000000e+00 1.0936803537016027e+01 1.7931836926532696e+01 1.5176008027545402e+01 
51 1 2 1.1605682584842913e+00 1.5518810786341564e+00 1.0000000000000000e+00 6.8272633514818732e+00 1.9288782990680428e+01 1.5035083447997991e+01 
155 1 2 1.1605682584842913e+00 1.5465783800796866e+00 1.0000000000000000e+00 1.0431908805244074e+01 1.0807279307539511e+01 1.7908555369011562e+01 
62 1 2 1.1605682584842913e+00 1.1749936231235631e+00 1.0000000000000000e+00 1.2908051393023671e+01 1.1190941409456524e+01 1.8258979609860109e+01 
19 1 2 1.1605682584842913e+00 1.3709945007641924e+00 1.0000000000000000e+00 7.9896149072426494e+00 1.9551939559604435e+01 1.7289738755266924e+01 
124 1 2 1.1605682584842913e+00 1.7920240837695947e+00 1.0000000000000000e+00 1.1867079564869600e+01 1.9936699417615309e+01 1.8053515952242410e+01 
133 1 2 1.1605682584842913e+00 6.5037099283161637e-01 1.0000000000000000e+00 9.8360161803137540e+00 1.4863458495743179e+01 1.9174894936849977e+01 
169 1 2 1.1605682584842913e+00 4.6974716218874901e-01 1.0000000000000000e+00 1.4562766537413518e+01 1.7754305388975731e+00 1.3455117250545843e+00 
54 1 2 1.1605682584842913e+00 1.3715848259933350e+00 1.0000000000000000e+00 1.5093600818050733e+01 4.2436003773098845e+00 1.3987301327048474e+00 
175 1 2 1.1605682584842913e+00 1.4374385811679962e+00 1.0000000000000000e+00 1.8810648355621648e+01 4.5861844039738173e+00 6.6713639380470702e-01 
121 1 2 1.1605682584842913e+00 1.3980572849150739e+00 1.0000000000000000e+00 1.9746759397990061e+01 6.8225407738933210e+00 7.4893970279918043e-01 
79 1 2 1.1605682584842913e+00 1.5597054889463529e+00 1.0000000000000000e+00 1.5526474286922989e+01 9.6176187693204316e+00 5.1846528694075265e-02 
9 1 2 1.1605682584842913e+00 1.4552681278758035e+00 1.0000000000000000e+00 1.9610724086372706e+01 2.2705539668031940e+00 2.0679757373317718e+00 
123 1 2 1.1605682584842913e+00 1.3221519143112119e+00 1.0000000000000000e+00 1.3904580444093808e+01 9.4627692098157539e+00 2.5136631277130466e+00 
18 1 2 1.1605682584842913e+00 1.3540514375230097e+00 1.0000000000000000e+00 1.6631419771259118e+01 1.0541640489159421e+00 4.3235897232773404e+00 
125 1 2 1.1605797165872134e+00 1.4255349011698348e+00 1.0000000000000000e+00 1.5275993985784456e+01 1.9800368173023264e-01 6.5071711872841655e+00 
46 1 2 1.1605682584842913e+00 1.5882818349663448e+00 1.0000000000000000e+00 1.4284378411418377e+01 3.3834298347054599e+00 6.5989624746820281e+00 
129 1 2 1.1605682584842913e+00 1.4983289586880741e+00 1.0000000000000000e+00 1.5535571659903153e+01 5.3980227710677022e+00 6.6996953433532660e+00 
180 1 2 1.1605682584842913e+00 1.4060339326238944e+00 1.0000000000000000e+00 1.7458625043990939e+01 4.5579531441292023e+00 6.1553451748401411e+00 
52 1 2 1.1605682584842913e+00 1.3455165022581936e+00 1.0000000000000000e+00 1.7777273541460708e+01 6.7048687286708928e+00 6.6631096624643193e+00 
98 1 2 1.1605797165872134e+00 1.4520864307038932e+00 1.0000000000000000e+00 1.3950428581258381e+01 3.5330489371951934e-01 7.9193050092934341e+00 
148 1 2 1.1605682584842913e+00 1.1916023748330331e+00 1.0000000000000000e+00 1.7741272264970156e+01 7.3655684224568265e+00 8.5615278486314530e+00 
176 1 2 1.1605682584842913e+00 1.5052212723386602e+00 1.0000000000000000e+00 1.4443223986754603e+01 5.5755244447886492e+00 8.6739190134957305e+00 
153 1 2 1.1605682584842913e+00 1.4450926495565022e+00 1.0000000000000000e+00 1.6716138493701614e+01 4.7620957544378388e+00 8.6305227635773214e+00 
170 1 2 1.1605682584842913e+00 1.4655081232422043e+00 1.0000000000000000e+00 1.7580681561440930e+01 1.4423361085497954e+00 1.0533805048573653e+01 
24 1 2 1.1605682584842913e+00 1.6339006098763154e+00 1.0000000000000000e+00 1.8487825586813145e+01 3.5931220331707334e+00 1.0478879572936687e+01 
66 1 2 1.1605682584842913e+00 1.4569347618010822e+00 1.0000000000000000e+00 1.8940152715000288e+01 8.8321509757040193e+00 1.2020171740941082e+01 
69 1 2 1.1605682584842913e+00 1.5388546429786414e+00 1.0000000000000000e+00 1.5691571559118184e+01 4.6913195692147172e+00 1.2893117539050174e+01 
166 1 2 1.1605682584842913e+00 1.3204734183656419e+00 1.0000000000000000e+00 1.7565288252942636e+01 5.4909058651280844e+00 1.4053200789506324e+01 
48 1 2 1.1605682584842913e+00 1.4541934345311240e+00 1.0000000000000000e+00 1.4688164872335411e+01 7.9852514822992013e+00 1.2872473136807800e+01 
17 1 2 1.1605682584842913e+00 1.3909900479085562e+00 1.0000000000000000e+00 1.8897662412986882e+01 3.2860305348781611e+00 1.4882681913788320e+01 
156 1 2 1.1605682584842913e+00 1.4912520721562257e+00 1.0000000000000000e+00 1.5626427810389782e+01 4.3342628792402991e+00 1.5128487980683012e+01 
152 1 2 1.1605682584842913e+00 1.2701430774480071e+00 1.0000000000000000e+00 1.6281204449825537e+01 1.5918589320692758e+00 1.5819808095567090e+01 
150 1 2 1.1605810934367402e+00 1.5496570401348368e+00 1.0000000000000000e+00 1.3495841559264681e+01 2.9180207435497265e+00 1.6985266157149624e+01 
34 1 2 1.1605682584842913e+00 1.4919817081013618e+00 1.0000000000000000e+00 1.7290947749484822e+01 3.7823675403826886e+00 1.6172278104657366e+01 
120 1 2 1.1612634689048795e+00 1.6020393906592556e+00 1.0000000000000000e+00 1.5103374339727440e+01 3.2089835908650182e+00 1.8034057808872831e+01 
99 1 2 1.1605682584842913e+00 1.6106732068175971e+00 1.0000000000000000e+00 1.8344551195825588e+01 4.1197451605343707e+00 1.7853635952002442e+01 
101 1 2 1.1609021061579496e+00 1.6770168674020753e+00 1.0000000000000000e+00 1.5746193246415798e+01 4.8304555288799227e+00 1.7373152502078685e+01 
131 1 2 1.1605682584842913e+00 1.6309620420623316e+00 1.0000000000000000e+00 1.8056862027418912e+01 6.5022987036731017e+00 1.8237928791228008e+01 
139 1 2 1.1605682584842913e+00 -4.7584808664629041e-01 1.0000000000000000e+00 1.9550702633884921e+01 2.7232825466739170e+00 1.8803552533395752e+01 
91 1 2 1.1609167862787724e+00 1.6154004703847551e+00 1.0000000000000000e+00 1.5642020445170914e+01 4.4334269297869069e+00 1.9331862314106534e+01 
85 1 2 1.1605682584842913e+00 1.4942909964537208e+00 1.0000000000000000e+00 1.4843185285282804e+01 6.1580965964007266e+00 1.8613551272649069e+01 
30 1 2 1.1605682584842913e+00 1.6529081403213990e+00 1.0000000000000000e+00 1.7440045897951020e+01 8.7405086208517382e+00 1.8669767057019151e+01 
60 1 2 1.1605682584842913e+00 1.5553500173705572e+00 1.0000000000000000e+00 1.3840738516788598e+01 1.5405214428799288e+01 1.1940984855292887e+00 
119 1 2 1.1605682584842913e+00 1.3839357890866810e+00 1.0000000000000000e+00 1.6256469713956818e+01 1.8251812937531227e+01 1.5016130083247246e+00 
36 1 2 1.1605682584842913e+00 1.3847572489427851e+00 1.0000000000000000e+00 1.4057719096582391e+01 1.9379222729557803e+01 1.7103312789747003e+00 
81 1 2 1.1605682584842913e+00 1.5196136851090030e+00 1.0000000000000000e+00 1.4281402957795361e+01 1.8232031345876099e+01 4.0674611615744158e+00 
114 1 2 1.1605682584842913e+00 1.7214322840787597e+00 1.0000000000000000e+00 1.9006149289587402e+01 1.7488285681013924e+01 5.0328773176141048e+00 
59 1 2 1.1605682584842913e+00 1.3186253635544340e+00 1.0000000000000000e+00 1.8900428982985542e+01 1.4325744739837065e+01 6.4880072063600061e+00 
49 1 2 1.1609825164180763e+00 1.6647537651722739e+00 1.0000000000000000e+00 1.3998139495738251e+01 1.0586895123078101e+01 7.2277951339539834e+00 
100 1 2 1.1609825164180763e+00 1.4287703095545130e+00 1.0000000000000000e+00 1.4270836568944885e+01 1.2421978459278259e+01 7.3171532052914312e+00 
80 1 2 1.1605682584842913e+00 1.3732250546236844e+00 1.0000000000000000e+00 1.9592770990738220e+01 1.1874675347977055e+01 7.6074706204240394e+00 
61 1 2 1.1605682584842913e+00 1.4922294479674214e+00 1.0000000000000000e+00 1.6247008448631160e+01 1.6606121580534186e+01 7.6504590051233166e+00 
28 1 2 1.1607148951872015e+00 1.4833793502538413e+00 1.0000000000000000e+00 1.9133373006535340e+01 1.7940896743472525e+01 7.8206896401651393e+00 
163 1 2 1.1605682584842913e+00 1.4314844481171587e+00 1.0000000000000000e+00 1.7466918746709872e+01 1.0964935137796841e+01 8.5837134581430288e+00 
38 1 2 1.1605682584842913e+00 1.5374917012671299e+00 1.0000000000000000e+00 1.4563128618959274e+01 1.8495702694741400e+01 9.5782237687394129e+00 
29 1 2 1.1607148951872015e+00 1.6124979257234955e+00 1.0000000000000000e+00 1.8284020943747539e+01 1.9108227390126007e+01 9.0422235775077073e+00 
55 1 2 1.1605682584842913e+00 1.5713216937036041e+00 1.0000000000000000e+00 1.6508765306753336e+01 1.9504398721457981e+01 1.0273062331293080e+01 
22 1 2 1.1605682584842913e+00 1.3844053615650389e+00 1.0000000000000000e+00 1.8784785551533787e+01 1.9266207083239014e+01 1.1002848523193332e+01 
147 1 2 1.1605682584842913e+00 1.3997511580555697e+00 1.0000000000000000e+00 1.7166827745555167e+01 1.7837752058509796e+01 1.2863224886635003e+01 
78 1 2 1.1605682584842913e+00 1.4267166464633503e+00 1.0000000000000000e+00 1.9937221877680535e+01 1.8359010140600979e+01 1.3442228805370949e+01 
21 1 2 1.1605682584842913e+00 1.4942390910326555e+00 1.0000000000000000e+00 1.8652693570377167e+01 1.6695803588103445e+01 1.4631396359763222e+01 
104 1 2 1.1605682584842913e+00 1.4520513577603431e+00 1.0000000000000000e+00 1.4684536567529237e+01 1.4335451089514532e+01 1.6077905176329558e+01 
42 1 2 1.1605750503899530e+00 1.5402800341387857e+00 1.0000000000000000e+00 1.9552633905359851e+01 1.5262155739666689e+01 1.7114947632839829e+01 
159 1 2 1.1605682584842913e+00 1.5234759308484267e+00 1.0000000000000000e+00 1.4963199087334583e+01 1.8472763510214747e+01 1.5910613525037659e+01 
122 1 2 1.1605682584842913e+00 1.5854133025109509e+00 1.0000000000000000e+00 1.5598765925817746e+01 1.8490955701108216e+01 1.8542590448817311e+01 
117 1 2 1.1605682584842913e+00 1.4507647964397461e+00 1.0000000000000000e+00 1.7533477606358083e+01 1.7594034091978120e+01 1.7478216229959681e+01 
145 1 2 1.1605682584842913e+00 1.4847809509956953e+00 1.0000000000000000e+00 1.7562070092422008e+01 1.2449408506421440e+01 1.8885953029813631e+01 

Velocities

3 1.2640786813623223e-01 1.6722433492760719e-01 2.1083484457631720e-02
127 1.5080452671460698e-01 2.1057179063644826e-01 -1.6649965332248265e-01
73 4.8452003732437882e-01 -1.7586594735615507e-02 1.5622457977336882e-01
92 -7.3896007768916985e-02 -2.3687311205930009e-01 -4.6994401526001463e-02
41 8.4986248978922443e-02 4.2486102572956547e-01 8.3957988647255871e-02
63 -8.2093987199511137e-02 7.5897610906275517e-02 -2.8793844934721680e-01
45 -2.0153483065513811e-01 3.3437526667341261e-02 -2.2654774767534344e-02
128 1.3328953778380750e-01 1.9531319398408023e-01 1.1234201467389469e-01
83 -1.9041269391842738e-01 -1.5114416359389482e-01 -4.4866483863398705e-02
87 -4.2622480994672690e-01 3.8140761360037445e-01 2.0090430266654388e-01
39 -1.0520644641954634e-01 1.1287990696466799e-01 3.3357349465285408e-03
102 -2.3559249663715626e-01 -1.5091704551711874e-01 -1.5651922407996496e-01
82 1.7290627151039528e-01 2.4015709296113241e-01 7.5218697864271281e-02
132 -9.0374254307854784e-02 2.5822109479344457e-01 2.2489565886261742e-01
74 2.7497264465266093e-02 1.5025640154276174e-01 -5.2012087294278297e-01
177 3.2113619686154254e-01 -1.0216855851763199e-02 -2.9925761703436515e-01
84 1.6393563934801289e-01 6.9390966049724223e-02 2.6857084639843587e-01
14 5.6878918460041927e-01 3.2635100941602907e-02 6.2208378942045062e-02
113 -3.2179757730125791e-01 -1.3173016218251712e-01 -2.7755196267176668e-01
178 -1.7849723099436229e-01 8.7243607153385985e-02 -3.1499406050913359e-01
112 -1.1035417124324816e-01 -7.6125828173736670e-02 1.2408723998740376e-01
40 2.1298163340528965e-02 2.8391892918361989e-02 2.4691958596670291e-01
75 -2.2304591210869193e-03 8.5229253758214024e-02 2.7311711789425691e-01
93 3.2188308938989378e-02 -3.7778165593676201e-02 -1.0010696698044623e-01
70 1.0944857866053967e-01 -9.5724237022920461e-02 -7.7980610568133180e-01
106 -1.1083127315612164e-01 2.1349987564410583e-01 3.5456775326313383e-01
32 -3.5940193460967679e-01 5.7198087039366879e-02 1.2471317797821360e-01
6 -4.7729931667039129e-02 -2.0651076525712192e-01 2.4582806070561150e-01
141 1.5971135733265576e-01 -9.1272314345885400e-03 -2.8553991604800266e-01
71 -2.3018094647276599e-01 2.3351117363599377e-01 -7.6871064363306610e-02
135 3.6866655740797796e-02 2.1880566625837311e-01 2.0069177977066283e-01
171 -3.0603796721296272e-01 -3.6089123089386660e-01 -2.5614540768496918e-01
15 -1.1250116960624727e-01 -1.2284777485254406e-01 -1.7785220516579126e-01
89 1.8309520722157061e-01 1.6125717769648371e-01 -3.6185482388749957e-01
143 4.4677541210177127e-02 6.1810941050947454e-01 1.4074131273527093e-01
115 -1.0589054152211559e-01 4.1075011939758271e-01 2.1012657819571315e-01
8 2.1365200256819689e-01 -1.0608899253217981e-01 -8.6407128694816329e-02
31 3.2983818435197494e-02 -4.3813987143116365e-02 2.7375801301081987e-01
1 -2.1867814246001513e-01 2.2201155220077298e-01 -3.3558576122697928e-02
27 -8.2767152768797494e-02 7.7000390138166147e-02 2.7999068404388033e-01
94 -7.2881408999208516e-02 1.0137523320620920e-01 -1.5502390591969042e-01
109 -3.4161325080600602e-01 -3.9270366601096091e-01 -2.8062016816971941e-01
50 -3.1641133797576476e-01 5.0593247043158207e-01 3.5193485994906348e-01
5 3.4718906244749614e-01 -3.2639117243268116e-02 -2.7368726039891561e-01
16 -1.1528958434901003e-02 -6.1908073229389637e-01 -1.7683077802133074e-01