LAMMPS data file via write_data, version 30 Jul 2016, timestep = 307000000

1795 atoms
8 atom types

0.0000000000000000e+00 6.0000000000000000e+01 xlo xhi
0.0000000000000000e+00 6.0000000000000000e+01 ylo yhi
0.0000000000000000e+00 1.5000000000000000e+02 zlo zhi

Masses

1 3.896
2 5.36
3 20.064
4 8.378
5 8.378
6 8.378
7 8.378
8 8.378

Atoms # meso-molecular

1 2 4 1.8047778876253165e+01 1.0000000000000000e+00 4.2000000000000000e+03 0.0000000000000000e+00 0.0000000000000000e+00 3.7500000000000000e+00 
2 2 4 1.8047778876253165e+01 1.0000000000000000e+00 4.2000000000000000e+03 0.0000000000000000e+00 2.0000000000000000e+00 3.7500000000000000e+00 
31 2 4 1.8047778876253165e+01 1.0000000000000000e+00 4.2000000000000000e+03 2.0000000000000000e+00 0.0000000000000000e+00 3.7500000000000000e+00 
32 2 4 1.8047778876253165e+01 1.0000000000000000e+00 4.2000000000000000e+03 2.0000000000000000e+00 2.0000000000000000e+00 3.7500000000000000e+00 
61 2 4 1.8047778876253165e+01 1.0000000000000000e+00 4.2000000000000000e+03 4.0000000000000000e+00 0.0000000000000000e+00 3.7500000000000000e+00 
62 2 4 1.8047778876253165e+01 1.0000000000000000e+00 4.2000000000000000e+03 4.0000000000000000e+00 2.0000000000000000e+00 3.7500000000000000e+00 
91 2 4 1.8047778876253165e+01 1.0000000000000000e+00 4.2000000000000000e+03 6.0000000000000000e+00 0.0000000000000000e+00 3.7500000000000000e+00 
92 2 4 1.8047778876253165e+01 1.0000000000000000e+00 4.2000000000000000e+03 6.0000000000000000e+00 2.0000000000000000e+00 3.7500000000000000e+00 
121 2 4 1.8047778876253165e+01 1.0000000000000000e+00 4.2000000000000000e+03 8.0000000000000000e+00 0.0000000000000000e+00 3.7500000000000000e+00 
122 2 4 1.8047778876253165e+01 1.0000000000000000e+00 4.2000000000000000e+03 8.0000000000000000e+00 2.0000000000000000e+00 3.7500000000000000e+00 
151 2 4 1.8047778876253165e+01 1.0000000000000000e+00 4.2000000000000000e+03 1.0000000000000000e+01 0.0000000000000000e+00 3.7500000000000000e+00 
152 2 4 1.8047778876253165e+01 1.0000000000000000e+00 4.2000000000000000e+03 1.0000000000000000e+01 2.0000000000000000e+00 3.7500000000000000e+00 
181 2 4 1.8047778876253165e+01 1.0000000000000000e+00 4.2000000000000000e+03 1.2000000000000000e+01 0.0000000000000000e+00 3.7500000000000000e+00 
182 2 4 1.8047778876253165e+01 1.0000000000000000e+00 4.2000000000000000e+03 1.2000000000000000e+01 2.0000000000000000e+00 3.7500000000000000e+00 
211 2 4 1.8047778876253165e+01 1.0000000000000000e+00 4.2000000000000000e+03 1.4000000000000000e+01 0.0000000000000000e+00 3.7500000000000000e+00 
212 2 4 1.8047778876253165e+01 1.0000000000000000e+00 4.2000000000000000e+03 1.4000000000000000e+01 2.0000000000000000e+00 3.7500000000000000e+00 
241 2 4 1.8047778876253165e+01 1.0000000000000000e+00 4.2000000000000000e+03 1.6000000000000000e+01 0.0000000000000000e+00 3.7500000000000000e+00 
242 2 4 1.8047778876253165e+01 1.0000000000000000e+00 4.2000000000000000e+03 1.6000000000000000e+01 2.0000000000000000e+00 3.7500000000000000e+00 
271 2 4 1.8047778876253165e+01 1.0000000000000000e+00 4.2000000000000000e+03 1.8000000000000000e+01 0.0000000000000000e+00 3.7500000000000000e+00 
272 2 4 1.8047778876253165e+01 1.0000000000000000e+00 4.2000000000000000e+03 1.8000000000000000e+01 2.0000000000000000e+00 3.7500000000000000e+00 
301 2 4 1.8047778876253165e+01 1.0000000000000000e+00 4.2000000000000000e+03 2.0000000000000000e+01 0.0000000000000000e+00 3.7500000000000000e+00 
302 2 4 1.8047778876253165e+01 1.0000000000000000e+00 4.2000000000000000e+03 2.0000000000000000e+01 2.0000000000000000e+00 3.7500000000000000e+00 
331 2 4 1.8047778876253165e+01 1.0000000000000000e+00 4.2000000000000000e+03 2.2000000000000000e+01 0.0000000000000000e+00 3.7500000000000000e+00 
332 2 4 1.8047778876253165e+01 1.0000000000000000e+00 4.2000000000000000e+03 2.2000000000000000e+01 2.0000000000000000e+00 3.7500000000000000e+00 
361 2 4 1.8047778876253165e+01 1.0000000000000000e+00 4.2000000000000000e+03 2.4000000000000000e+01 0.0000000000000000e+00 3.7500000000000000e+00 
362 2 4 1.8047778876253165e+01 1.0000000000000000e+00 4.2000000000000000e+03 2.4000000000000000e+01 2.0000000000000000e+00 3.7500000000000000e+00 
391 2 4 1.8047778876253165e+01 1.0000000000000000e+00 4.2000000000000000e+03 2.6000000000000000e+01 0.0000000000000000e+00 3.7500000000000000e+00 
392 2 4 1.8047778876253165e+01 1.0000000000000000e+00 4.2000000000000000e+03 2.6000000000000000e+01 2.0000000000000000e+00 3.7500000000000000e+00 
421 2 4 1.8047778876253165e+01 1.0000000000000000e+00 4.2000000000000000e+03 2.8000000000000000e+01 0.0000000000000000e+00 3.7500000000000000e+00 
422 2 4 1.8047778876253165e+01 1.0000000000000000e+00 4.2000000000000000e+03 2.8000000000000000e+01 2.0000000000000000e+00 3.7500000000000000e+00 
3 2 4 1.8047778876253165e+01 1.0000000000000000e+00 4.2000000000000000e+03 0.0000000000000000e+00 4.0000000000000000e+00 3.7500000000000000e+00 
33 2 4 1.8047778876253165e+01 1.0000000000000000e+00 4.2000000000000000e+03 2.0000000000000000e+00 4.0000000000000000e+00 3.7500000000000000e+00 
63 2 4 1.8047778876253165e+01 1.0000000000000000e+00 4.2000000000000000e+03 4.0000000000000000e+00 4.0000000000000000e+00 3.7500000000000000e+00 
93 2 4 1.8047778876253165e+01 1.0000000000000000e+00 4.2000000000000000e+03 6.0000000000000000e+00 4.0000000000000000e+00 3.7500000000000000e+00 
123 2 4 1.8047778876253165e+01 1.0000000000000000e+00 4.2000000000000000e+03 8.0000000000000000e+00 4.0000000000000000e+00 3.7500000000000000e+00 
153 2 4 1.8047778876253165e+01 1.0000000000000000e+00 4.2000000000000000e+03 1.0000000000000000e+01 4.0000000000000000e+00 3.7500000000000000e+00 
183 2 4 1.8047778876253165e+01 1.0000000000000000e+00 4.2000000000000000e+03 1.2000000000000000e+01 4.0000000000000000e+00 3.7500000000000000e+00 
213 2 4 1.8047778876253165e+01 1.0000000000000000e+00 4.2000000000000000e+03 1.4000000000000000e+01 4.0000000000000000e+00 3.7500000000000000e+00 
1535 10 2 9.2371539533747409e+01 9.9336711596189620e-01 4.2000000000000000e+03 1.4928929262491055e+01 5.2028490925710908e+00 5.9847391442858813e+00 
243 2 4 1.8047778876253165e+01 1.0000000000000000e+00 4.2000000000000000e+03 1.6000000000000000e+01 4.0000000000000000e+00 3.7500000000000000e+00 
1547 10 2 9.2371539533747409e+01 9.9068020054800809e-01 4.2000000000000000e+03 1.6089416457850277e+01 4.2885062684006749e+00 6.2440587719567731e+00 
1548 10 2 9.2371539533747409e+01 9.9968650769608469e-01 4.2000000000000000e+03 1.7353559026055692e+01 5.7355869036209670e+00 5.6891703125151745e+00 
273 2 4 1.8047778876253165e+01 1.0000000000000000e+00 4.2000000000000000e+03 1.8000000000000000e+01 4.0000000000000000e+00 3.7500000000000000e+00 
303 2 4 1.8047778876253165e+01 1.0000000000000000e+00 4.2000000000000000e+03 2.0000000000000000e+01 4.0000000000000000e+00 3.7500000000000000e+00 
1561 10 2 9.2371539533747409e+01 1.0000000000000000e+00 4.2000000000000000e+03 1.8514046221414912e+01 4.8212440794505511e+00 5.9484899401860662e+00 
1570 10 2 9.2371539533747409e+01 9.8100732643474564e-01 4.2000000000000000e+03 1.9674533416774132e+01 3.9069012552801352e+00 6.2078095678569580e+00 
333 2 4 1.8047778876253165e+01 1.0000000000000000e+00 4.2000000000000000e+03 2.2000000000000000e+01 4.0000000000000000e+00 3.7500000000000000e+00 
363 2 4 1.8047778876253165e+01 1.0000000000000000e+00 4.2000000000000000e+03 2.4000000000000000e+01 4.0000000000000000e+00 3.7500000000000000e+00 
393 2 4 1.8047778876253165e+01 1.0000000000000000e+00 4.2000000000000000e+03 2.6000000000000000e+01 4.0000000000000000e+00 3.7500000000000000e+00 
423 2 4 1.8047778876253165e+01 1.0000000000000000e+00 4.2000000000000000e+03 2.8000000000000000e+01 4.0000000000000000e+00 3.7500000000000000e+00 
4 2 4 1.8047778876253165e+01 1.0000000000000000e+00 4.2000000000000000e+03 0.0000000000000000e+00 6.0000000000000000e+00 3.7500000000000000e+00 
5 2 4 1.8047778876253165e+01 1.0000000000000000e+00 4.2000000000000000e+03 0.0000000000000000e+00 8.0000000000000000e+00 3.7500000000000000e+00 
34 2 4 1.8047778876253165e+01 1.0000000000000000e+00 4.2000000000000000e+03 2.0000000000000000e+00 6.0000000000000000e+00 3.7500000000000000e+00 
35 2 4 1.8047778876253165e+01 1.0000000000000000e+00 4.2000000000000000e+03 2.0000000000000000e+00 8.0000000000000000e+00 3.7500000000000000e+00 
64 2 4 1.8047778876253165e+01 1.0000000000000000e+00 4.2000000000000000e+03 4.0000000000000000e+00 6.0000000000000000e+00 3.7500000000000000e+00 
65 2 4 1.8047778876253165e+01 1.0000000000000000e+00 4.2000000000000000e+03 4.0000000000000000e+00 8.0000000000000000e+00 3.7500000000000000e+00 
1099 5 2 9.2371539533747409e+01 9.3334764014609495e-01 4.2000000000000000e+03 7.1953031481178584e+00 6.1414683642740702e+00 5.7972135497346651e+00 
94 2 4 1.8047778876253165e+01 1.0000000000000000e+00 4.2000000000000000e+03 6.0000000000000000e+00 6.0000000000000000e+00 3.7500000000000000e+00 
95 2 4 1.8047778876253165e+01 1.0000000000000000e+00 4.2000000000000000e+03 6.0000000000000000e+00 8.0000000000000000e+00 3.7500000000000000e+00 
124 2 4 1.8047778876253165e+01 1.0000000000000000e+00 4.2000000000000000e+03 8.0000000000000000e+00 6.0000000000000000e+00 3.7500000000000000e+00 
125 2 4 1.8047778876253165e+01 1.0000000000000000e+00 4.2000000000000000e+03 8.0000000000000000e+00 8.0000000000000000e+00 3.7500000000000000e+00 
1097 5 2 9.2371539533747409e+01 9.6890543216218816e-01 4.2000000000000000e+03 6.8739536556232075e+00 8.7481927441791232e+00 4.7475838479435755e+00 
1100 5 2 9.2371539533747409e+01 1.0000000000000000e+00 4.2000000000000000e+03 7.9834029274551348e+00 7.9350915740902535e+00 6.1994753040902522e+00 
1089 5 2 9.2371539533747409e+01 9.9580510623673368e-01 4.2000000000000000e+03 9.0826125713402703e+00 7.6733617019320413e+00 5.2129482477912559e+00 
1087 5 2 9.2371539533747409e+01 9.9463494662368901e-01 4.2000000000000000e+03 1.1291271487057330e+01 6.5985306596849584e+00 5.6783126476389372e+00 
154 2 4 1.8047778876253165e+01 1.0000000000000000e+00 4.2000000000000000e+03 1.0000000000000000e+01 6.0000000000000000e+00 3.7500000000000000e+00 
155 2 4 1.8047778876253165e+01 1.0000000000000000e+00 4.2000000000000000e+03 1.0000000000000000e+01 8.0000000000000000e+00 3.7500000000000000e+00 
1088 5 2 9.2371539533747409e+01 9.9442617162492652e-01 4.2000000000000000e+03 1.2079371266394606e+01 8.3921538695011417e+00 6.0805744019945251e+00 
184 2 4 1.8047778876253165e+01 1.0000000000000000e+00 4.2000000000000000e+03 1.2000000000000000e+01 6.0000000000000000e+00 3.7500000000000000e+00 
185 2 4 1.8047778876253165e+01 1.0000000000000000e+00 4.2000000000000000e+03 1.2000000000000000e+01 8.0000000000000000e+00 3.7500000000000000e+00 
214 2 4 1.8047778876253165e+01 1.0000000000000000e+00 4.2000000000000000e+03 1.4000000000000000e+01 6.0000000000000000e+00 3.7500000000000000e+00 
215 2 4 1.8047778876253165e+01 1.0000000000000000e+00 4.2000000000000000e+03 1.4000000000000000e+01 8.0000000000000000e+00 3.7500000000000000e+00 
244 2 4 1.8047778876253165e+01 1.0000000000000000e+00 4.2000000000000000e+03 1.6000000000000000e+01 6.0000000000000000e+00 3.7500000000000000e+00 
245 2 4 1.8047778876253165e+01 1.0000000000000000e+00 4.2000000000000000e+03 1.6000000000000000e+01 8.0000000000000000e+00 3.7500000000000000e+00 
1536 10 2 9.2371539533747409e+01 9.9824791484996800e-01 4.2000000000000000e+03 1.6193071830696468e+01 6.6499297277913838e+00 5.4298506848442845e+00 
1549 10 2 9.2371539533747409e+01 9.8848193255356087e-01 4.2000000000000000e+03 1.8617701594261103e+01 7.1826675388412600e+00 5.1342818530735777e+00 
274 2 4 1.8047778876253165e+01 1.0000000000000000e+00 4.2000000000000000e+03 1.8000000000000000e+01 6.0000000000000000e+00 3.7500000000000000e+00 
275 2 4 1.8047778876253165e+01 1.0000000000000000e+00 4.2000000000000000e+03 1.8000000000000000e+01 8.0000000000000000e+00 3.7500000000000000e+00 
304 2 4 1.8047778876253165e+01 1.0000000000000000e+00 4.2000000000000000e+03 2.0000000000000000e+01 6.0000000000000000e+00 3.7500000000000000e+00 
305 2 4 1.8047778876253165e+01 1.0000000000000000e+00 4.2000000000000000e+03 2.0000000000000000e+01 8.0000000000000000e+00 3.7500000000000000e+00 
1562 10 2 9.2371539533747409e+01 9.8796151604320914e-01 4.2000000000000000e+03 1.9778188789620323e+01 6.2683247146708441e+00 5.3936014807444677e+00 
334 2 4 1.8047778876253165e+01 1.0000000000000000e+00 4.2000000000000000e+03 2.2000000000000000e+01 6.0000000000000000e+00 3.7500000000000000e+00 
335 2 4 1.8047778876253165e+01 1.0000000000000000e+00 4.2000000000000000e+03 2.2000000000000000e+01 8.0000000000000000e+00 3.7500000000000000e+00 
364 2 4 1.8047778876253165e+01 1.0000000000000000e+00 4.2000000000000000e+03 2.4000000000000000e+01 6.0000000000000000e+00 3.7500000000000000e+00 
365 2 4 1.8047778876253165e+01 1.0000000000000000e+00 4.2000000000000000e+03 2.4000000000000000e+01 8.0000000000000000e+00 3.7500000000000000e+00 
394 2 4 1.8047778876253165e+01 1.0000000000000000e+00 4.2000000000000000e+03 2.6000000000000000e+01 6.0000000000000000e+00 3.7500000000000000e+00 
395 2 4 1.8047778876253165e+01 1.0000000000000000e+00 4.2000000000000000e+03 2.6000000000000000e+01 8.0000000000000000e+00 3.7500000000000000e+00 
424 2 4 1.8047778876253165e+01 1.0000000000000000e+00 4.2000000000000000e+03 2.8000000000000000e+01 6.0000000000000000e+00 3.7500000000000000e+00 
425 2 4 1.8047778876253165e+01 1.0000000000000000e+00 4.2000000000000000e+03 2.8000000000000000e+01 8.0000000000000000e+00 3.7500000000000000e+00 
6 2 4 1.8047778876253165e+01 1.0000000000000000e+00 4.2000000000000000e+03 0.0000000000000000e+00 1.0000000000000000e+01 3.7500000000000000e+00 
36 2 4 1.8047778876253165e+01 1.0000000000000000e+00 4.2000000000000000e+03 2.0000000000000000e+00 1.0000000000000000e+01 3.7500000000000000e+00 
1110 5 2 9.2371539533747409e+01 9.9937887522887126e-01 4.2000000000000000e+03 5.7747440117380746e+00 9.0099226163373363e+00 5.7341109042425709e+00 
66 2 4 1.8047778876253165e+01 1.0000000000000000e+00 4.2000000000000000e+03 4.0000000000000000e+00 1.0000000000000000e+01 3.7500000000000000e+00 
96 2 4 1.8047778876253165e+01 1.0000000000000000e+00 4.2000000000000000e+03 6.0000000000000000e+00 1.0000000000000000e+01 3.7500000000000000e+00 
126 2 4 1.8047778876253165e+01 1.0000000000000000e+00 4.2000000000000000e+03 8.0000000000000000e+00 1.0000000000000000e+01 3.7500000000000000e+00 
1098 5 2 9.2371539533747409e+01 9.8707620068562418e-01 4.2000000000000000e+03 7.6620534349604830e+00 1.0541815953995307e+01 5.1498456022991617e+00 
1111 5 2 9.2371539533747409e+01 9.9972231945911538e-01 4.2000000000000000e+03 6.5628437910753492e+00 1.0803545826153520e+01 6.1363726585981579e+00 
1086 5 2 9.2371539533747409e+01 9.9178869568960826e-01 4.2000000000000000e+03 1.0969921994562679e+01 9.2052550395900123e+00 4.6286829458478467e+00 
156 2 4 1.8047778876253165e+01 1.0000000000000000e+00 4.2000000000000000e+03 1.0000000000000000e+01 1.0000000000000000e+01 3.7500000000000000e+00 
1090 5 2 9.2371539533747409e+01 1.0000000000000000e+00 4.2000000000000000e+03 9.8707123506775449e+00 9.4669849117482254e+00 5.6152100021468438e+00 
1091 5 2 9.2371539533747409e+01 9.9288619142023404e-01 4.2000000000000000e+03 1.0658812130014821e+01 1.1260608121564408e+01 6.0174717565024292e+00 
186 2 4 1.8047778876253165e+01 1.0000000000000000e+00 4.2000000000000000e+03 1.2000000000000000e+01 1.0000000000000000e+01 3.7500000000000000e+00 
216 2 4 1.8047778876253165e+01 1.0000000000000000e+00 4.2000000000000000e+03 1.4000000000000000e+01 1.0000000000000000e+01 3.7500000000000000e+00 
246 2 4 1.8047778876253165e+01 1.0000000000000000e+00 4.2000000000000000e+03 1.6000000000000000e+01 1.0000000000000000e+01 3.7500000000000000e+00 
276 2 4 1.8047778876253165e+01 1.0000000000000000e+00 4.2000000000000000e+03 1.8000000000000000e+01 1.0000000000000000e+01 3.7500000000000000e+00 
306 2 4 1.8047778876253165e+01 1.0000000000000000e+00 4.2000000000000000e+03 2.0000000000000000e+01 1.0000000000000000e+01 3.7500000000000000e+00 
336 2 4 1.8047778876253165e+01 1.0000000000000000e+00 4.2000000000000000e+03 2.2000000000000000e+01 1.0000000000000000e+01 3.7500000000000000e+00 
366 2 4 1.8047778876253165e+01 1.0000000000000000e+00 4.2000000000000000e+03 2.4000000000000000e+01 1.0000000000000000e+01 3.7500000000000000e+00 
396 2 4 1.8047778876253165e+01 1.0000000000000000e+00 4.2000000000000000e+03 2.6000000000000000e+01 1.0000000000000000e+01 3.7500000000000000e+00 
426 2 4 1.8047778876253165e+01 1.0000000000000000e+00 4.2000000000000000e+03 2.8000000000000000e+01 1.0000000000000000e+01 3.7500000000000000e+00 
7 2 4 1.8047778876253165e+01 1.0000000000000000e+00 4.2000000000000000e+03 0.0000000000000000e+00 1.2000000000000000e+01 3.7500000000000000e+00 
8 2 4 1.8047778876253165e+01 1.0000000000000000e+00 4.2000000000000000e+03 0.0000000000000000e+00 1.4000000000000000e+01 3.7500000000000000e+00 
37 2 4 1.8047778876253165e+01 1.0000000000000000e+00 4.2000000000000000e+03 2.0000000000000000e+00 1.2000000000000000e+01 3.7500000000000000e+00 
38 2 4 1.8047778876253165e+01 1.0000000000000000e+00 4.2000000000000000e+03 2.0000000000000000e+00 1.4000000000000000e+01 3.7500000000000000e+00 
67 2 4 1.8047778876253165e+01 1.0000000000000000e+00 4.2000000000000000e+03 4.0000000000000000e+00 1.2000000000000000e+01 3.7500000000000000e+00 
68 2 4 1.8047778876253165e+01 1.0000000000000000e+00 4.2000000000000000e+03 4.0000000000000000e+00 1.4000000000000000e+01 3.7500000000000000e+00 
97 2 4 1.8047778876253165e+01 1.0000000000000000e+00 4.2000000000000000e+03 6.0000000000000000e+00 1.2000000000000000e+01 3.7500000000000000e+00 
98 2 4 1.8047778876253165e+01 1.0000000000000000e+00 4.2000000000000000e+03 6.0000000000000000e+00 1.4000000000000000e+01 3.7500000000000000e+00 
127 2 4 1.8047778876253165e+01 1.0000000000000000e+00 4.2000000000000000e+03 8.0000000000000000e+00 1.2000000000000000e+01 3.7500000000000000e+00 
128 2 4 1.8047778876253165e+01 1.0000000000000000e+00 4.2000000000000000e+03 8.0000000000000000e+00 1.4000000000000000e+01 3.7500000000000000e+00 
157 2 4 1.8047778876253165e+01 1.0000000000000000e+00 4.2000000000000000e+03 1.0000000000000000e+01 1.2000000000000000e+01 3.7500000000000000e+00 
158 2 4 1.8047778876253165e+01 1.0000000000000000e+00 4.2000000000000000e+03 1.0000000000000000e+01 1.4000000000000000e+01 3.7500000000000000e+00 
187 2 4 1.8047778876253165e+01 1.0000000000000000e+00 4.2000000000000000e+03 1.2000000000000000e+01 1.2000000000000000e+01 3.7500000000000000e+00 
188 2 4 1.8047778876253165e+01 1.0000000000000000e+00 4.2000000000000000e+03 1.2000000000000000e+01 1.4000000000000000e+01 3.7500000000000000e+00 
217 2 4 1.8047778876253165e+01 1.0000000000000000e+00 4.2000000000000000e+03 1.4000000000000000e+01 1.2000000000000000e+01 3.7500000000000000e+00 
218 2 4 1.8047778876253165e+01 1.0000000000000000e+00 4.2000000000000000e+03 1.4000000000000000e+01 1.4000000000000000e+01 3.7500000000000000e+00 
1020 4 2 9.2371539533747409e+01 9.9571538084384925e-01 4.2000000000000000e+03 1.5000947950060398e+01 1.3748803747576353e+01 5.1514376688241130e+00 
247 2 4 1.8047778876253165e+01 1.0000000000000000e+00 4.2000000000000000e+03 1.6000000000000000e+01 1.2000000000000000e+01 3.7500000000000000e+00 
248 2 4 1.8047778876253165e+01 1.0000000000000000e+00 4.2000000000000000e+03 1.6000000000000000e+01 1.4000000000000000e+01 3.7500000000000000e+00 
277 2 4 1.8047778876253165e+01 1.0000000000000000e+00 4.2000000000000000e+03 1.8000000000000000e+01 1.2000000000000000e+01 3.7500000000000000e+00 
278 2 4 1.8047778876253165e+01 1.0000000000000000e+00 4.2000000000000000e+03 1.8000000000000000e+01 1.4000000000000000e+01 3.7500000000000000e+00 
307 2 4 1.8047778876253165e+01 1.0000000000000000e+00 4.2000000000000000e+03 2.0000000000000000e+01 1.2000000000000000e+01 3.7500000000000000e+00 
308 2 4 1.8047778876253165e+01 1.0000000000000000e+00 4.2000000000000000e+03 2.0000000000000000e+01 1.4000000000000000e+01 3.7500000000000000e+00 
337 2 4 1.8047778876253165e+01 1.0000000000000000e+00 4.2000000000000000e+03 2.2000000000000000e+01 1.2000000000000000e+01 3.7500000000000000e+00 
338 2 4 1.8047778876253165e+01 1.0000000000000000e+00 4.2000000000000000e+03 2.2000000000000000e+01 1.4000000000000000e+01 3.7500000000000000e+00 
367 2 4 1.8047778876253165e+01 1.0000000000000000e+00 4.2000000000000000e+03 2.4000000000000000e+01 1.2000000000000000e+01 3.7500000000000000e+00 
368 2 4 1.8047778876253165e+01 1.0000000000000000e+00 4.2000000000000000e+03 2.4000000000000000e+01 1.4000000000000000e+01 3.7500000000000000e+00 
397 2 4 1.8047778876253165e+01 1.0000000000000000e+00 4.2000000000000000e+03 2.6000000000000000e+01 1.2000000000000000e+01 3.7500000000000000e+00 
398 2 4 1.8047778876253165e+01 1.0000000000000000e+00 4.2000000000000000e+03 2.6000000000000000e+01 1.4000000000000000e+01 3.7500000000000000e+00 
427 2 4 1.8047778876253165e+01 1.0000000000000000e+00 4.2000000000000000e+03 2.8000000000000000e+01 1.2000000000000000e+01 3.7500000000000000e+00 
428 2 4 1.8047778876253165e+01 1.0000000000000000e+00 4.2000000000000000e+03 2.8000000000000000e+01 1.4000000000000000e+01 3.7500000000000000e+00 
9 2 4 1.8047778876253165e+01 1.0000000000000000e+00 4.2000000000000000e+03 0.0000000000000000e+00 1.6000000000000000e+01 3.7500000000000000e+00 
39 2 4 1.8047778876253165e+01 1.0000000000000000e+00 4.2000000000000000e+03 2.0000000000000000e+00 1.6000000000000000e+01 3.7500000000000000e+00 
69 2 4 1.8047778876253165e+01 1.0000000000000000e+00 4.2000000000000000e+03 4.0000000000000000e+00 1.6000000000000000e+01 3.7500000000000000e+00 
99 2 4 1.8047778876253165e+01 1.0000000000000000e+00 4.2000000000000000e+03 6.0000000000000000e+00 1.6000000000000000e+01 3.7500000000000000e+00 
129 2 4 1.8047778876253165e+01 1.0000000000000000e+00 4.2000000000000000e+03 8.0000000000000000e+00 1.6000000000000000e+01 3.7500000000000000e+00 
159 2 4 1.8047778876253165e+01 1.0000000000000000e+00 4.2000000000000000e+03 1.0000000000000000e+01 1.6000000000000000e+01 3.7500000000000000e+00 
189 2 4 1.8047778876253165e+01 1.0000000000000000e+00 4.2000000000000000e+03 1.2000000000000000e+01 1.6000000000000000e+01 3.7500000000000000e+00 
219 2 4 1.8047778876253165e+01 1.0000000000000000e+00 4.2000000000000000e+03 1.4000000000000000e+01 1.6000000000000000e+01 3.7500000000000000e+00 
249 2 4 1.8047778876253165e+01 1.0000000000000000e+00 4.2000000000000000e+03 1.6000000000000000e+01 1.6000000000000000e+01 3.7500000000000000e+00 
279 2 4 1.8047778876253165e+01 1.0000000000000000e+00 4.2000000000000000e+03 1.8000000000000000e+01 1.6000000000000000e+01 3.7500000000000000e+00 
309 2 4 1.8047778876253165e+01 1.0000000000000000e+00 4.2000000000000000e+03 2.0000000000000000e+01 1.6000000000000000e+01 3.7500000000000000e+00 
339 2 4 1.8047778876253165e+01 1.0000000000000000e+00 4.2000000000000000e+03 2.2000000000000000e+01 1.6000000000000000e+01 3.7500000000000000e+00 
369 2 4 1.8047778876253165e+01 1.0000000000000000e+00 4.2000000000000000e+03 2.4000000000000000e+01 1.6000000000000000e+01 3.7500000000000000e+00 
399 2 4 1.8047778876253165e+01 1.0000000000000000e+00 4.2000000000000000e+03 2.6000000000000000e+01 1.6000000000000000e+01 3.7500000000000000e+00 
429 2 4 1.8047778876253165e+01 1.0000000000000000e+00 4.2000000000000000e+03 2.8000000000000000e+01 1.6000000000000000e+01 3.7500000000000000e+00 
10 2 4 1.8047778876253165e+01 1.0000000000000000e+00 4.2000000000000000e+03 0.0000000000000000e+00 1.8000000000000000e+01 3.7500000000000000e+00 
11 2 4 1.8047778876253165e+01 1.0000000000000000e+00 4.2000000000000000e+03 0.0000000000000000e+00 2.0000000000000000e+01 3.7500000000000000e+00 
40 2 4 1.8047778876253165e+01 1.0000000000000000e+00 4.2000000000000000e+03 2.0000000000000000e+00 1.8000000000000000e+01 3.7500000000000000e+00 
41 2 4 1.8047778876253165e+01 1.0000000000000000e+00 4.2000000000000000e+03 2.0000000000000000e+00 2.0000000000000000e+01 3.7500000000000000e+00 
70 2 4 1.8047778876253165e+01 1.0000000000000000e+00 4.2000000000000000e+03 4.0000000000000000e+00 1.8000000000000000e+01 3.7500000000000000e+00 
71 2 4 1.8047778876253165e+01 1.0000000000000000e+00 4.2000000000000000e+03 4.0000000000000000e+00 2.0000000000000000e+01 3.7500000000000000e+00 
100 2 4 1.8047778876253165e+01 1.0000000000000000e+00 4.2000000000000000e+03 6.0000000000000000e+00 1.8000000000000000e+01 3.7500000000000000e+00 
101 2 4 1.8047778876253165e+01 1.0000000000000000e+00 4.2000000000000000e+03 6.0000000000000000e+00 2.0000000000000000e+01 3.7500000000000000e+00 
130 2 4 1.8047778876253165e+01 1.0000000000000000e+00 4.2000000000000000e+03 8.0000000000000000e+00 1.8000000000000000e+01 3.7500000000000000e+00 
131 2 4 1.8047778876253165e+01 1.0000000000000000e+00 4.2000000000000000e+03 8.0000000000000000e+00 2.0000000000000000e+01 3.7500000000000000e+00 
160 2 4 1.8047778876253165e+01 1.0000000000000000e+00 4.2000000000000000e+03 1.0000000000000000e+01 1.8000000000000000e+01 3.7500000000000000e+00 
161 2 4 1.8047778876253165e+01 1.0000000000000000e+00 4.2000000000000000e+03 1.0000000000000000e+01 2.0000000000000000e+01 3.7500000000000000e+00 
190 2 4 1.8047778876253165e+01 1.0000000000000000e+00 4.2000000000000000e+03 1.2000000000000000e+01 1.8000000000000000e+01 3.7500000000000000e+00 
191 2 4 1.8047778876253165e+01 1.0000000000000000e+00 4.2000000000000000e+03 1.2000000000000000e+01 2.0000000000000000e+01 3.7500000000000000e+00 
220 2 4 1.8047778876253165e+01 1.0000000000000000e+00 4.2000000000000000e+03 1.4000000000000000e+01 1.8000000000000000e+01 3.7500000000000000e+00 
221 2 4 1.8047778876253165e+01 1.0000000000000000e+00 4.2000000000000000e+03 1.4000000000000000e+01 2.0000000000000000e+01 3.7500000000000000e+00 
250 2 4 1.8047778876253165e+01 1.0000000000000000e+00 4.2000000000000000e+03 1.6000000000000000e+01 1.8000000000000000e+01 3.7500000000000000e+00 
251 2 4 1.8047778876253165e+01 1.0000000000000000e+00 4.2000000000000000e+03 1.6000000000000000e+01 2.0000000000000000e+01 3.7500000000000000e+00 
280 2 4 1.8047778876253165e+01 1.0000000000000000e+00 4.2000000000000000e+03 1.8000000000000000e+01 1.8000000000000000e+01 3.7500000000000000e+00 
281 2 4 1.8047778876253165e+01 1.0000000000000000e+00 4.2000000000000000e+03 1.8000000000000000e+01 2.0000000000000000e+01 3.7500000000000000e+00 
310 2 4 1.8047778876253165e+01 1.0000000000000000e+00 4.2000000000000000e+03 2.0000000000000000e+01 1.8000000000000000e+01 3.7500000000000000e+00 
311 2 4 1.8047778876253165e+01 1.0000000000000000e+00 4.2000000000000000e+03 2.0000000000000000e+01 2.0000000000000000e+01 3.7500000000000000e+00 
340 2 4 1.8047778876253165e+01 1.0000000000000000e+00 4.2000000000000000e+03 2.2000000000000000e+01 1.8000000000000000e+01 3.7500000000000000e+00 
341 2 4 1.8047778876253165e+01 1.0000000000000000e+00 4.2000000000000000e+03 2.2000000000000000e+01 2.0000000000000000e+01 3.7500000000000000e+00 
370 2 4 1.8047778876253165e+01 1.0000000000000000e+00 4.2000000000000000e+03 2.4000000000000000e+01 1.8000000000000000e+01 3.7500000000000000e+00 
371 2 4 1.8047778876253165e+01 1.0000000000000000e+00 4.2000000000000000e+03 2.4000000000000000e+01 2.0000000000000000e+01 3.7500000000000000e+00 
400 2 4 1.8047778876253165e+01 1.0000000000000000e+00 4.2000000000000000e+03 2.6000000000000000e+01 1.8000000000000000e+01 3.7500000000000000e+00 
401 2 4 1.8047778876253165e+01 1.0000000000000000e+00 4.2000000000000000e+03 2.6000000000000000e+01 2.0000000000000000e+01 3.7500000000000000e+00 
430 2 4 1.8047778876253165e+01 1.0000000000000000e+00 4.2000000000000000e+03 2.8000000000000000e+01 1.8000000000000000e+01 3.7500000000000000e+00 
431 2 4 1.8047778876253165e+01 1.0000000000000000e+00 4.2000000000000000e+03 2.8000000000000000e+01 2.0000000000000000e+01 3.7500000000000000e+00 
12 2 4 1.8047778876253165e+01 1.0000000000000000e+00 4.2000000000000000e+03 0.0000000000000000e+00 2.2000000000000000e+01 3.7500000000000000e+00 
42 2 4 1.8047778876253165e+01 1.0000000000000000e+00 4.2000000000000000e+03 2.0000000000000000e+00 2.2000000000000000e+01 3.7500000000000000e+00 
72 2 4 1.8047778876253165e+01 1.0000000000000000e+00 4.2000000000000000e+03 4.0000000000000000e+00 2.2000000000000000e+01 3.7500000000000000e+00 
102 2 4 1.8047778876253165e+01 1.0000000000000000e+00 4.2000000000000000e+03 6.0000000000000000e+00 2.2000000000000000e+01 3.7500000000000000e+00 
132 2 4 1.8047778876253165e+01 1.0000000000000000e+00 4.2000000000000000e+03 8.0000000000000000e+00 2.2000000000000000e+01 3.7500000000000000e+00 
162 2 4 1.8047778876253165e+01 1.0000000000000000e+00 4.2000000000000000e+03 1.0000000000000000e+01 2.2000000000000000e+01 3.7500000000000000e+00 
192 2 4 1.8047778876253165e+01 1.0000000000000000e+00 4.2000000000000000e+03 1.2000000000000000e+01 2.2000000000000000e+01 3.7500000000000000e+00 
222 2 4 1.8047778876253165e+01 1.0000000000000000e+00 4.2000000000000000e+03 1.4000000000000000e+01 2.2000000000000000e+01 3.7500000000000000e+00 
252 2 4 1.8047778876253165e+01 1.0000000000000000e+00 4.2000000000000000e+03 1.6000000000000000e+01 2.2000000000000000e+01 3.7500000000000000e+00 
282 2 4 1.8047778876253165e+01 1.0000000000000000e+00 4.2000000000000000e+03 1.8000000000000000e+01 2.2000000000000000e+01 3.7500000000000000e+00 
312 2 4 1.8047778876253165e+01 1.0000000000000000e+00 4.2000000000000000e+03 2.0000000000000000e+01 2.2000000000000000e+01 3.7500000000000000e+00 
342 2 4 1.8047778876253165e+01 1.0000000000000000e+00 4.2000000000000000e+03 2.2000000000000000e+01 2.2000000000000000e+01 3.7500000000000000e+00 
372 2 4 1.8047778876253165e+01 1.0000000000000000e+00 4.2000000000000000e+03 2.4000000000000000e+01 2.2000000000000000e+01 3.7500000000000000e+00 
402 2 4 1.8047778876253165e+01 1.0000000000000000e+00 4.2000000000000000e+03 2.6000000000000000e+01 2.2000000000000000e+01 3.7500000000000000e+00 
432 2 4 1.8047778876253165e+01 1.0000000000000000e+00 4.2000000000000000e+03 2.8000000000000000e+01 2.2000000000000000e+01 3.7500000000000000e+00 