LAMMPS data file via write_data, version 30 Jul 2016, timestep = 50000000

2772 atoms
8 atom types

0.0000000000000000e+00 1.0000000000000000e+02 xlo xhi
0.0000000000000000e+00 4.0000000000000000e+01 ylo yhi
0.0000000000000000e+00 4.0000000000000000e+01 zlo zhi

Masses

1 3.896
2 5.36
3 20.064
4 8.378
5 8.378
6 8.378
7 8.378
8 8.378

Atoms # meso-molecular

237 238 2 1.2467813888044947e+00 1.6396003624531381e+00 1.0000000000000000e+00 7.7779629575304443e-01 1.0000000000000000e+01 2.2254032915176170e-01 
418 419 2 1.2467813888044947e+00 -3.1825660790293906e+00 1.0000000000000000e+00 5.4404334599992898e+00 1.0000000000000000e+01 4.9655712876949698e-01 
310 311 2 1.2467814799860926e+00 -5.8683889102924178e+00 1.0000000000000000e+00 7.7962133081832716e+00 1.0000000000000000e+01 3.9198269647559231e-01 
410 411 2 1.2467813888044947e+00 -4.6755599414908291e+00 1.0000000000000000e+00 1.3765364116050630e+01 1.0000000000000000e+01 5.2683772129672235e-01 
145 146 2 1.2467813888044947e+00 -2.6221751665966124e+00 1.0000000000000000e+00 2.2697120298379762e+01 1.0000000000000000e+01 9.8996493064805124e-01 
277 278 2 1.2467814439878961e+00 -3.8262808100511818e+00 1.0000000000000000e+00 2.6467149058049852e+01 1.0000000000000000e+01 1.2571547590299523e+00 
269 270 2 1.2467813888044947e+00 -3.3144746990103409e+00 1.0000000000000000e+00 3.0242299296177727e+01 1.0000000000000000e+01 1.3836553117222992e+00 
699 700 2 1.2467813888044947e+00 1.6396003624531381e+00 1.0000000000000000e+00 7.7779629575304443e-01 1.3800000000000001e+01 2.2254032915176170e-01 
880 881 2 1.2467813888044947e+00 -3.1825660790293906e+00 1.0000000000000000e+00 5.4404334599992898e+00 1.3800000000000001e+01 4.9655712876949698e-01 
772 773 2 1.2467814799860926e+00 -5.8683889102924178e+00 1.0000000000000000e+00 7.7962133081832716e+00 1.3800000000000001e+01 3.9198269647559231e-01 
872 873 2 1.2467813888044947e+00 -4.6755599414908291e+00 1.0000000000000000e+00 1.3765364116050630e+01 1.3800000000000001e+01 5.2683772129672235e-01 
607 608 2 1.2467813888044947e+00 -2.6221751665966124e+00 1.0000000000000000e+00 2.2697120298379762e+01 1.3800000000000001e+01 9.8996493064805124e-01 
739 740 2 1.2467814439878961e+00 -3.8262808100511818e+00 1.0000000000000000e+00 2.6467149058049852e+01 1.3800000000000001e+01 1.2571547590299523e+00 
731 732 2 1.2467813888044947e+00 -3.3144746990103409e+00 1.0000000000000000e+00 3.0242299296177727e+01 1.3800000000000001e+01 1.3836553117222992e+00 
945 946 2 1.2467813888044947e+00 3.1434761735470484e+00 1.0000000000000000e+00 2.2115067389990961e+00 1.7600000000000001e+01 1.9732171177406252e-01 
1069 1070 2 1.2467813888044947e+00 -2.8064437165882459e+00 1.0000000000000000e+00 8.1144505465128223e+00 1.7600000000000001e+01 1.1952859934571405e+00 
988 989 2 1.2467813888044947e+00 -6.2224653267507679e-01 1.0000000000000000e+00 1.9675683281997816e+01 1.7600000000000001e+01 1.8379475033376996e-01 
1107 1108 2 1.2467813886836205e+00 -4.2696630557461797e+00 1.0000000000000000e+00 3.1212144736205058e+01 1.7600000000000001e+01 1.4015307853811731e-01 
242 243 2 1.2467813888044947e+00 -2.2445055453199014e+00 1.0000000000000000e+00 1.9596441374182803e+00 1.0000000000000000e+01 2.4874398128974526e+00 
365 366 2 1.2467813888044947e+00 -4.8482947824086065e+00 1.0000000000000000e+00 4.4098469330270689e+00 1.0000000000000000e+01 2.4081426294904884e+00 
230 231 2 1.2467814799860926e+00 -1.4147572328154776e+00 1.0000000000000000e+00 8.3994450471512216e+00 1.0000000000000000e+01 2.3850854412657325e+00 
322 323 2 1.2467813888044947e+00 -3.7023826363533914e+00 1.0000000000000000e+00 1.1858835788281599e+01 1.0000000000000000e+01 1.6052061637087196e+00 
228 229 2 1.2467813888044947e+00 4.8380146684676012e-01 1.0000000000000000e+00 1.7877113392519355e+01 1.0000000000000000e+01 2.8379991080671001e+00 
18 19 2 1.2467821633781779e+00 3.8656109068198861e+00 1.0000000000000000e+00 2.4842342733253233e+01 1.0000000000000000e+01 2.5617830298368216e+00 
704 705 2 1.2467813888044947e+00 -2.2445055453199014e+00 1.0000000000000000e+00 1.9596441374182803e+00 1.3800000000000001e+01 2.4874398128974526e+00 
827 828 2 1.2467813888044947e+00 -4.8482947824086065e+00 1.0000000000000000e+00 4.4098469330270689e+00 1.3800000000000001e+01 2.4081426294904884e+00 
692 693 2 1.2467814799860926e+00 -1.4147572328154776e+00 1.0000000000000000e+00 8.3994450471512216e+00 1.3800000000000001e+01 2.3850854412657325e+00 
784 785 2 1.2467813888044947e+00 -3.7023826363533914e+00 1.0000000000000000e+00 1.1858835788281599e+01 1.3800000000000001e+01 1.6052061637087196e+00 
690 691 2 1.2467813888044947e+00 4.8380146684676012e-01 1.0000000000000000e+00 1.7877113392519355e+01 1.3800000000000001e+01 2.8379991080671001e+00 
480 481 2 1.2467821633781779e+00 3.8656109068198861e+00 1.0000000000000000e+00 2.4842342733253233e+01 1.3800000000000001e+01 2.5617830298368216e+00 
1358 1359 2 1.2467813888044947e+00 4.6630345219250593e+00 1.0000000000000000e+00 4.1778321391415298e+00 1.7600000000000001e+01 1.8623801530094817e+00 
1239 1240 2 1.2467813888044947e+00 -3.3482038950139090e+00 1.0000000000000000e+00 6.5788557995038319e+00 1.7600000000000001e+01 2.7273867646953183e+00 
1349 1350 2 1.2467813888044947e+00 5.7102334837776070e+00 1.0000000000000000e+00 1.1092390020503268e+01 1.7600000000000001e+01 2.1355124148399653e+00 
1338 1339 2 1.2467813888044947e+00 -7.9484649606900737e-01 1.0000000000000000e+00 1.5677027492369040e+01 1.7600000000000001e+01 1.5767377370513687e+00 
1271 1272 2 1.2467813888044947e+00 -5.6077767814303154e+00 1.0000000000000000e+00 1.7759887647628751e+01 1.7600000000000001e+01 2.6071048368650551e+00 
1126 1127 2 1.2467813888044947e+00 -5.8405311450087254e+00 1.0000000000000000e+00 2.0908152686770471e+01 1.7600000000000001e+01 2.3088189807348685e+00 
928 929 2 1.2467813888044947e+00 5.6033589513982491e+00 1.0000000000000000e+00 2.4219481736645537e+01 1.7600000000000001e+01 1.4397179591732350e+00 
936 937 2 1.2467813888044947e+00 7.3557309390372883e+00 1.0000000000000000e+00 3.0760611503295461e+01 1.7600000000000001e+01 2.6219578201356906e+00 
1292 1293 2 1.2467813888044947e+00 -3.0489821955307237e+00 1.0000000000000000e+00 3.3267663352083773e+01 1.7600000000000001e+01 2.4782084515663731e+00 
362 363 2 1.2467813888044947e+00 -4.1063833423075584e+00 1.0000000000000000e+00 1.3766451849383406e+01 1.0000000000000000e+01 3.1374139460761810e+00 
251 252 2 1.2467813888044947e+00 -1.6690210235708327e+00 1.0000000000000000e+00 2.0822088438730923e+01 1.0000000000000000e+01 3.9579627227126939e+00 
448 449 2 1.2467821081947765e+00 5.0768576334590989e+00 1.0000000000000000e+00 2.3038014445085647e+01 1.0000000000000000e+01 3.5789302051509995e+00 
276 277 2 1.2467813888044947e+00 -3.1353597777948239e+00 1.0000000000000000e+00 2.7823034836491779e+01 1.0000000000000000e+01 3.5328023140057581e+00 
341 342 2 1.2467813888044947e+00 -1.0488745806013731e-01 1.0000000000000000e+00 3.0090511633428971e+01 1.0000000000000000e+01 4.2360061189590166e+00 
168 169 2 1.2467813888044947e+00 1.7465558342739822e+00 1.0000000000000000e+00 3.1920675218715903e+01 1.0000000000000000e+01 3.1870318271264209e+00 
824 825 2 1.2467813888044947e+00 -4.1063833423075584e+00 1.0000000000000000e+00 1.3766451849383406e+01 1.3800000000000001e+01 3.1374139460761810e+00 
713 714 2 1.2467813888044947e+00 -1.6690210235708327e+00 1.0000000000000000e+00 2.0822088438730923e+01 1.3800000000000001e+01 3.9579627227126939e+00 
910 911 2 1.2467821081947765e+00 5.0768576334590989e+00 1.0000000000000000e+00 2.3038014445085647e+01 1.3800000000000001e+01 3.5789302051509995e+00 
738 739 2 1.2467813888044947e+00 -3.1353597777948239e+00 1.0000000000000000e+00 2.7823034836491779e+01 1.3800000000000001e+01 3.5328023140057581e+00 
803 804 2 1.2467813888044947e+00 -1.0488745806013731e-01 1.0000000000000000e+00 3.0090511633428971e+01 1.3800000000000001e+01 4.2360061189590166e+00 
630 631 2 1.2467813888044947e+00 1.7465558342739822e+00 1.0000000000000000e+00 3.1920675218715903e+01 1.3800000000000001e+01 3.1870318271264209e+00 
1328 1329 2 1.2467813888044947e+00 -3.7727238305054103e+00 1.0000000000000000e+00 2.0675035888038349e+00 1.7600000000000001e+01 3.9448446860823889e+00 
1136 1137 2 1.2467813888044947e+00 -5.5175592097539816e+00 1.0000000000000000e+00 1.0265153227992357e+01 1.7600000000000001e+01 4.2148883083799804e+00 
1149 1150 2 1.2467813888044947e+00 -1.8279954900913613e+00 1.0000000000000000e+00 1.4436520609806520e+01 1.7600000000000001e+01 3.9013782409568929e+00 
951 952 2 1.2467813888044947e+00 3.5511328492711067e+00 1.0000000000000000e+00 2.3493779009327945e+01 1.7600000000000001e+01 4.1756106618890376e+00 
1341 1342 2 1.2467813888044947e+00 -1.4535394550751375e+00 1.0000000000000000e+00 2.6954853494113962e+01 1.7600000000000001e+01 4.1899568995569707e+00 
220 221 2 1.2467813888044947e+00 -1.8140530734206188e+00 1.0000000000000000e+00 2.8140453247886295e+00 1.0000000000000000e+01 4.6048973905428987e+00 
13 14 2 1.2467813888044947e+00 4.0208399876815406e+00 1.0000000000000000e+00 8.0032272046155413e+00 1.0000000000000000e+01 4.4902217273014591e+00 
82 83 2 1.2467813888044947e+00 -3.0176091893209298e+00 1.0000000000000000e+00 1.0571797459619386e+01 1.0000000000000000e+01 4.8351802204306695e+00 
180 181 2 1.2467813888044947e+00 -4.6140233896143457e+00 1.0000000000000000e+00 1.4831985237971914e+01 1.0000000000000000e+01 5.2488819755481346e+00 
682 683 2 1.2467813888044947e+00 -1.8140530734206046e+00 1.0000000000000000e+00 2.8140453247886295e+00 1.3800000000000001e+01 4.6048973905428987e+00 
475 476 2 1.2467813888044947e+00 4.0208399876815406e+00 1.0000000000000000e+00 8.0032272046155413e+00 1.3800000000000001e+01 4.4902217273014591e+00 
544 545 2 1.2467813888044947e+00 -3.0176091893209298e+00 1.0000000000000000e+00 1.0571797459619386e+01 1.3800000000000001e+01 4.8351802204306695e+00 
642 643 2 1.2467813888044947e+00 -4.6140233896143457e+00 1.0000000000000000e+00 1.4831985237971914e+01 1.3800000000000001e+01 5.2488819755481346e+00 
1031 1032 2 1.2467813888044947e+00 -2.7256465724395991e+00 1.0000000000000000e+00 3.4336580868362558e+00 1.7600000000000001e+01 5.6315911197823070e+00 
1245 1246 2 1.2467813888044947e+00 -3.3032955435082156e+00 1.0000000000000000e+00 7.9457435000541086e+00 1.7600000000000001e+01 5.5112048657102966e+00 
1086 1087 2 1.2467813888044947e+00 -2.2656943465473738e+00 1.0000000000000000e+00 1.7402626315163442e+01 1.7600000000000001e+01 5.6790635553419806e+00 
991 992 2 1.2467813938724104e+00 -2.7268914920199752e+00 1.0000000000000000e+00 2.5212370193385112e+01 1.7600000000000001e+01 5.6998145474850483e+00 
1203 1204 2 1.2467813888044947e+00 -3.6309757037113073e+00 1.0000000000000000e+00 3.2335340769410358e+01 1.7600000000000001e+01 4.6136571142554752e+00 
117 118 2 1.2467813888044947e+00 -9.0686649379982343e-01 1.0000000000000000e+00 6.2904988870234098e+00 1.0000000000000000e+01 7.0864534111536930e+00 
176 177 2 1.2467813888044947e+00 -4.4081458617560392e+00 1.0000000000000000e+00 8.9097274973836313e+00 1.0000000000000000e+01 6.4078027079481936e+00 
238 239 2 1.2467813887822099e+00 -1.1448777627152142e+00 1.0000000000000000e+00 1.3007529573840351e+01 1.0000000000000000e+01 7.1163467539412411e+00 
133 134 2 1.2467813888044947e+00 -3.6685995672240925e+00 1.0000000000000000e+00 1.8915264012191443e+01 1.0000000000000000e+01 6.1441106978304116e+00 
247 248 2 1.2467813888044947e+00 -2.9065630507331086e+00 1.0000000000000000e+00 2.1610660141044693e+01 1.0000000000000000e+01 6.8051659177492150e+00 
431 432 2 1.2467813888044947e+00 7.1424520777573779e+00 1.0000000000000000e+00 2.6708125791163180e+01 1.0000000000000000e+01 5.7960020144665672e+00 
404 405 2 1.2467815574102814e+00 -3.2864044689432323e+00 1.0000000000000000e+00 2.8878270057448521e+01 1.0000000000000000e+01 6.8396843653973249e+00 
324 325 2 1.2467813888044947e+00 -5.2490828999435823e+00 1.0000000000000000e+00 3.1833977218347048e+01 1.0000000000000000e+01 5.8882183818641671e+00 
579 580 2 1.2467813888044947e+00 -9.0686649379982343e-01 1.0000000000000000e+00 6.2904988870234098e+00 1.3800000000000001e+01 7.0864534111536930e+00 
638 639 2 1.2467813888044947e+00 -4.4081458617560392e+00 1.0000000000000000e+00 8.9097274973836313e+00 1.3800000000000001e+01 6.4078027079481936e+00 
700 701 2 1.2467813887822099e+00 -1.1448777627152142e+00 1.0000000000000000e+00 1.3007529573840351e+01 1.3800000000000001e+01 7.1163467539412411e+00 
595 596 2 1.2467813888044947e+00 -3.6685995672240925e+00 1.0000000000000000e+00 1.8915264012191443e+01 1.3800000000000001e+01 6.1441106978304116e+00 
709 710 2 1.2467813888044947e+00 -2.9065630507331086e+00 1.0000000000000000e+00 2.1610660141044693e+01 1.3800000000000001e+01 6.8051659177492150e+00 
893 894 2 1.2467813888044947e+00 7.1424520777573779e+00 1.0000000000000000e+00 2.6708125791163180e+01 1.3800000000000001e+01 5.7960020144665672e+00 
866 867 2 1.2467815574102814e+00 -3.2864044689432323e+00 1.0000000000000000e+00 2.8878270057448521e+01 1.3800000000000001e+01 6.8396843653973249e+00 
786 787 2 1.2467813888044947e+00 -5.2490828999435823e+00 1.0000000000000000e+00 3.1833977218347048e+01 1.3800000000000001e+01 5.8882183818641671e+00 
963 964 2 1.2467813888044947e+00 3.4886288179636189e+00 1.0000000000000000e+00 9.7220959886222715e+00 1.7600000000000001e+01 7.0118458442929965e+00 
1202 1203 2 1.2467813888044947e+00 -2.8398320004251838e+00 1.0000000000000000e+00 1.2051359033172544e+01 1.7600000000000001e+01 6.5164870201687677e+00 
1340 1341 2 1.2467813888044947e+00 -4.3929486539350524e+00 1.0000000000000000e+00 2.0782128921535236e+01 1.7600000000000001e+01 6.8252999361877880e+00 
35 36 2 1.2467813887822099e+00 6.6307792026398156e+00 1.0000000000000000e+00 1.0908402993184263e+01 1.0000000000000000e+01 7.1466296129435189e+00 
177 178 2 1.2467813888044947e+00 -4.8532635360773870e+00 1.0000000000000000e+00 1.9982263438479261e+01 1.0000000000000000e+01 8.3697051684893502e+00 
166 167 2 1.2467815574102814e+00 -1.1557383790837332e+00 1.0000000000000000e+00 3.0231146807369829e+01 1.0000000000000000e+01 8.4202193464981168e+00 
497 498 2 1.2467813887822099e+00 6.6307792026398156e+00 1.0000000000000000e+00 1.0908402993184263e+01 1.3800000000000001e+01 7.1466296129435189e+00 
639 640 2 1.2467813888044947e+00 -4.8532635360773870e+00 1.0000000000000000e+00 1.9982263438479261e+01 1.3800000000000001e+01 8.3697051684893502e+00 
628 629 2 1.2467815574102814e+00 -1.1557383790837332e+00 1.0000000000000000e+00 3.0231146807369829e+01 1.3800000000000001e+01 8.4202193464981168e+00 
1265 1266 2 1.2467813888044947e+00 -2.5838858773262348e+00 1.0000000000000000e+00 2.1457250409609259e+00 1.7600000000000001e+01 7.4787954189239150e+00 
932 933 2 1.2467813888044947e+00 4.6842288614150025e+00 1.0000000000000000e+00 6.4383234393122866e+00 1.7600000000000001e+01 7.4170559150346609e+00 
959 960 2 1.2467904314665053e+00 8.1638520095559119e+00 1.0000000000000000e+00 1.3650371875979950e+01 1.7600000000000001e+01 8.5310178449310570e+00 
1228 1229 2 1.2467904174457738e+00 -2.5320499592357635e+00 1.0000000000000000e+00 1.5570024570088746e+01 1.7600000000000001e+01 7.8263971072776384e+00 
1132 1133 2 1.2467813938724104e+00 -4.2602412993503851e+00 1.0000000000000000e+00 2.4635796682236528e+01 1.7600000000000001e+01 7.7091868815267119e+00 
1017 1018 2 1.2467813888044947e+00 -3.1614400277787640e+00 1.0000000000000000e+00 2.7076507413885771e+01 1.7600000000000001e+01 7.5252637641670894e+00 
1028 1029 2 1.2467813888044947e+00 -3.0865201770381336e+00 1.0000000000000000e+00 3.1662611947344118e+01 1.7600000000000001e+01 8.3398161779896611e+00 
216 217 2 1.2467813888044947e+00 -1.8846874563074181e+00 1.0000000000000000e+00 5.4060673566036010e+00 1.0000000000000000e+01 9.2344129294448987e+00 
26 27 2 1.2467813888044947e+00 4.1053316483841140e+00 1.0000000000000000e+00 9.2992719558292212e+00 1.0000000000000000e+01 9.1091604756474513e+00 
259 260 2 1.2467836291843635e+00 -2.7279587612580656e+00 1.0000000000000000e+00 1.2840835020904404e+01 1.0000000000000000e+01 9.4790336013881404e+00 
445 446 2 1.2467813888044947e+00 4.6888049734789625e+00 1.0000000000000000e+00 1.7658374552192626e+01 1.0000000000000000e+01 8.8272772690395698e+00 
86 87 2 1.2467813888044947e+00 -2.4445630053700467e+00 1.0000000000000000e+00 2.2682636587710171e+01 1.0000000000000000e+01 8.7080926498293358e+00 
266 267 2 1.2467813888044947e+00 -3.0005258641367423e+00 1.0000000000000000e+00 2.5458286999521576e+01 1.0000000000000000e+01 8.5957363338420496e+00 
309 310 2 1.2467813888044947e+00 -5.0086470507933250e+00 1.0000000000000000e+00 2.7526182694463856e+01 1.0000000000000000e+01 9.5422027222149577e+00 
17 18 2 1.2467813888044947e+00 4.6200660192510004e+00 1.0000000000000000e+00 3.3095722524389025e+01 1.0000000000000000e+01 9.4026543067451005e+00 
678 679 2 1.2467813888044947e+00 -1.8846874563074181e+00 1.0000000000000000e+00 5.4060673566036010e+00 1.3800000000000001e+01 9.2344129294448987e+00 
488 489 2 1.2467813888044947e+00 4.1053316483841140e+00 1.0000000000000000e+00 9.2992719558292212e+00 1.3800000000000001e+01 9.1091604756474513e+00 
721 722 2 1.2467836291843635e+00 -2.7279587612580656e+00 1.0000000000000000e+00 1.2840835020904404e+01 1.3800000000000001e+01 9.4790336013881404e+00 
907 908 2 1.2467813888044947e+00 4.6888049734789625e+00 1.0000000000000000e+00 1.7658374552192626e+01 1.3800000000000001e+01 8.8272772690395698e+00 
548 549 2 1.2467813888044947e+00 -2.4445630053700467e+00 1.0000000000000000e+00 2.2682636587710171e+01 1.3800000000000001e+01 8.7080926498293358e+00 
728 729 2 1.2467813888044947e+00 -3.0005258641367423e+00 1.0000000000000000e+00 2.5458286999521576e+01 1.3800000000000001e+01 8.5957363338420496e+00 
771 772 2 1.2467813888044947e+00 -5.0086470507933250e+00 1.0000000000000000e+00 2.7526182694463856e+01 1.3800000000000001e+01 9.5422027222149577e+00 
479 480 2 1.2467813888044947e+00 4.6200660192510004e+00 1.0000000000000000e+00 3.3095722524389025e+01 1.3800000000000001e+01 9.4026543067451005e+00 
1155 1156 2 1.2467814028252264e+00 1.6651741513062257e+00 1.0000000000000000e+00 1.1902091333735465e+01 1.7600000000000001e+01 9.6728717526391339e+00 
960 961 2 1.2467813888044947e+00 3.4557678145804216e+00 1.0000000000000000e+00 2.0230778355638162e+01 1.7600000000000001e+01 8.9990547073366489e+00 
1161 1162 2 1.2467813888044947e+00 1.1870759518008906e+00 1.0000000000000000e+00 2.6999459780770930e+01 1.7600000000000001e+01 9.9650292807126561e+00 
165 166 2 1.2467813888044947e+00 -4.4150049021597704e-01 1.0000000000000000e+00 1.9158075872783864e+00 1.0000000000000000e+01 1.0026817119819986e+01 
16 17 2 1.2467813888044947e+00 4.5548808081045973e+00 1.0000000000000000e+00 6.6238477611993964e+00 1.0000000000000000e+01 1.1095002556512302e+01 
41 42 2 1.2467836291843635e+00 6.1175714230502205e+00 1.0000000000000000e+00 1.4703406251538034e+01 1.0000000000000000e+01 1.0361029189644851e+01 
389 390 2 1.2467813888044947e+00 -3.6972352491612064e+00 1.0000000000000000e+00 2.4768722394639383e+01 1.0000000000000000e+01 1.0955460483132599e+01 
215 216 2 1.2467813888044947e+00 -1.1071070182539000e+00 1.0000000000000000e+00 3.1077257845324034e+01 1.0000000000000000e+01 1.0351750310347009e+01 
627 628 2 1.2467813888044947e+00 -4.4150049021597704e-01 1.0000000000000000e+00 1.9158075872783864e+00 1.3800000000000001e+01 1.0026817119819986e+01 
478 479 2 1.2467813888044947e+00 4.5548808081045973e+00 1.0000000000000000e+00 6.6238477611993964e+00 1.3800000000000001e+01 1.1095002556512302e+01 
503 504 2 1.2467836291843635e+00 6.1175714230502205e+00 1.0000000000000000e+00 1.4703406251538034e+01 1.3800000000000001e+01 1.0361029189644851e+01 
851 852 2 1.2467813888044947e+00 -3.6972352491612064e+00 1.0000000000000000e+00 2.4768722394639383e+01 1.3800000000000001e+01 1.0955460483132599e+01 
677 678 2 1.2467813888044947e+00 -1.1071070182539000e+00 1.0000000000000000e+00 3.1077257845324034e+01 1.3800000000000001e+01 1.0351750310347009e+01 
947 948 2 1.2467813888044947e+00 5.6303900136763474e+00 1.0000000000000000e+00 2.0560188216478110e+00 1.7600000000000001e+01 1.0095343185289559e+01 
1332 1333 2 1.2467813888044947e+00 -2.6011839529588250e+00 1.0000000000000000e+00 4.2086006649253314e+00 1.7600000000000001e+01 1.1110123924109649e+01 
1316 1317 2 1.2467813888044947e+00 -1.9431792563314430e+00 1.0000000000000000e+00 7.6396240479004094e+00 1.7600000000000001e+01 1.0221612909678727e+01 
1223 1224 2 1.2467813888044947e+00 -2.7430100152208290e+00 1.0000000000000000e+00 1.4184187123533706e+01 1.7600000000000001e+01 1.0640676841548814e+01 
1354 1355 2 1.2467813888044947e+00 4.4790599724042739e+00 1.0000000000000000e+00 1.6751960804068815e+01 1.7600000000000001e+01 1.0151946152639619e+01 
1380 1381 2 1.2467813888044947e+00 3.4571191893747919e+00 1.0000000000000000e+00 1.8548488491131170e+01 1.7600000000000001e+01 1.1406085407468035e+01 
1158 1159 2 1.2467813888044947e+00 -3.5037562950736276e-02 1.0000000000000000e+00 2.2106463278690271e+01 1.7600000000000001e+01 1.0294970290245381e+01 
1002 1003 2 1.2467813888044947e+00 -2.9679395643240736e+00 1.0000000000000000e+00 3.0043516204530434e+01 1.7600000000000001e+01 1.0114732887330556e+01 
1211 1212 2 1.2467813888044947e+00 -4.6696916382370866e+00 1.0000000000000000e+00 3.2143975295853160e+01 1.7600000000000001e+01 1.0750835301082496e+01 
456 457 2 1.2467813888044947e+00 4.6449409195645970e+00 1.0000000000000000e+00 4.4774738738317676e+00 1.0000000000000000e+01 1.2478735793349159e+01 
392 393 2 1.2467813888044947e+00 -1.8118507391953098e+00 1.0000000000000000e+00 9.0887556097762943e+00 1.0000000000000000e+01 1.1680767926108588e+01 
331 332 2 1.2467813888044947e+00 -3.9496545517228627e+00 1.0000000000000000e+00 1.7062615240453386e+01 1.0000000000000000e+01 1.1938633146787652e+01 
200 201 2 1.2467813888044947e+00 -4.1264418672072596e+00 1.0000000000000000e+00 2.6741849277836518e+01 1.0000000000000000e+01 1.1811738987457442e+01 
261 262 2 1.2467813888044947e+00 -4.3771839020355534e+00 1.0000000000000000e+00 3.1945557265679891e+01 1.0000000000000000e+01 1.2749313498798706e+01 
918 919 2 1.2467813888044947e+00 4.6449409195645970e+00 1.0000000000000000e+00 4.4774738738317676e+00 1.3800000000000001e+01 1.2478735793349159e+01 
854 855 2 1.2467813888044947e+00 -1.8118507391953098e+00 1.0000000000000000e+00 9.0887556097762943e+00 1.3800000000000001e+01 1.1680767926108588e+01 
793 794 2 1.2467813888044947e+00 -3.9496545517228627e+00 1.0000000000000000e+00 1.7062615240453386e+01 1.3800000000000001e+01 1.1938633146787652e+01 
662 663 2 1.2467813888044947e+00 -4.1264418672072596e+00 1.0000000000000000e+00 2.6741849277836518e+01 1.3800000000000001e+01 1.1811738987457442e+01 
723 724 2 1.2467813888044947e+00 -4.3771839020355534e+00 1.0000000000000000e+00 3.1945557265679891e+01 1.3800000000000001e+01 1.2749313498798706e+01 
948 949 2 1.2467813888044947e+00 3.7027222966952524e+00 1.0000000000000000e+00 7.5549106383708098e-01 1.7600000000000001e+01 1.2763560372833762e+01 
1374 1375 2 1.2467813888044947e+00 4.0339745120964121e+00 1.0000000000000000e+00 1.5495497867684536e+01 1.7600000000000001e+01 1.2769756027054267e+01 
1317 1318 2 1.2467813888044947e+00 -1.7245542843000723e+00 1.0000000000000000e+00 2.0894867460196945e+01 1.7600000000000001e+01 1.2453211237060225e+01 
1180 1181 2 1.2467813888044947e+00 -3.7370383696603655e+00 1.0000000000000000e+00 2.8929641004645521e+01 1.7600000000000001e+01 1.2210784084767578e+01 
95 96 2 1.2467813888044947e+00 -3.6804746622402629e+00 1.0000000000000000e+00 1.8575889632621159e+00 1.0000000000000000e+01 1.2932575925061123e+01 
100 101 2 1.2467813888044947e+00 -4.2220131288601950e+00 1.0000000000000000e+00 8.3793713198173148e+00 1.0000000000000000e+01 1.4083781493927184e+01 
52 53 2 1.2467813888044947e+00 -3.2627783607870162e+00 1.0000000000000000e+00 1.0581048214507826e+01 1.0000000000000000e+01 1.3585624167220120e+01 
225 226 2 1.2467813888044947e+00 -3.2474508674417741e+00 1.0000000000000000e+00 1.4772168111755908e+01 1.0000000000000000e+01 1.3528968469875736e+01 
31 32 2 1.2467813888044947e+00 6.8158594388036278e+00 1.0000000000000000e+00 2.0587432653768214e+01 1.0000000000000000e+01 1.3948171965700300e+01 
61 62 2 1.2467813888044947e+00 -3.3863752011673238e+00 1.0000000000000000e+00 2.4315213081840248e+01 1.0000000000000000e+01 1.3163506911757622e+01 
407 408 2 1.2467813888044947e+00 -3.2973805116242074e+00 1.0000000000000000e+00 2.7454873545359177e+01 1.0000000000000000e+01 1.4279501176782718e+01 
138 139 2 1.2467813888044947e+00 -3.5990984162099600e+00 1.0000000000000000e+00 2.9457292074015093e+01 1.0000000000000000e+01 1.3136807171278026e+01 
557 558 2 1.2467813888044947e+00 -3.6804746622402629e+00 1.0000000000000000e+00 1.8575889632621159e+00 1.3800000000000001e+01 1.2932575925061123e+01 
562 563 2 1.2467813888044947e+00 -4.2220131288601950e+00 1.0000000000000000e+00 8.3793713198173148e+00 1.3800000000000001e+01 1.4083781493927184e+01 
514 515 2 1.2467813888044947e+00 -3.2627783607870162e+00 1.0000000000000000e+00 1.0581048214507826e+01 1.3800000000000001e+01 1.3585624167220120e+01 
687 688 2 1.2467813888044947e+00 -3.2474508674417741e+00 1.0000000000000000e+00 1.4772168111755908e+01 1.3800000000000001e+01 1.3528968469875736e+01 
493 494 2 1.2467813888044947e+00 6.8158594388036278e+00 1.0000000000000000e+00 2.0587432653768214e+01 1.3800000000000001e+01 1.3948171965700300e+01 
523 524 2 1.2467813888044947e+00 -3.3863752011673238e+00 1.0000000000000000e+00 2.4315213081840248e+01 1.3800000000000001e+01 1.3163506911757622e+01 
869 870 2 1.2467813888044947e+00 -3.2973805116242074e+00 1.0000000000000000e+00 2.7454873545359177e+01 1.3800000000000001e+01 1.4279501176782718e+01 
600 601 2 1.2467813888044947e+00 -3.5990984162099600e+00 1.0000000000000000e+00 2.9457292074015093e+01 1.3800000000000001e+01 1.3136807171278026e+01 
1272 1273 2 1.2467826098155232e+00 -4.5819702158042164e+00 1.0000000000000000e+00 5.4657150602299325e+00 1.7600000000000001e+01 1.2986126482397315e+01 
969 970 2 1.2467826098155232e+00 -1.0210934084801278e+00 1.0000000000000000e+00 7.5180565555285561e+00 1.7600000000000001e+01 1.3231733499987815e+01 
1144 1145 2 1.2467813888044947e+00 -1.7236866109068010e+00 1.0000000000000000e+00 2.3247391472747665e+01 1.7600000000000001e+01 1.2960732719999902e+01 
1221 1222 2 1.2467813888044947e+00 -1.6628407357033357e+00 1.0000000000000000e+00 2.7321649595644413e+01 1.7600000000000001e+01 1.3650820388279463e+01 
1281 1282 2 1.2467813888044947e+00 -3.8241955123839881e+00 1.0000000000000000e+00 3.2543725025264749e+01 1.7600000000000001e+01 1.3169511592456232e+01 
226 227 2 1.2467813888044947e+00 1.0930888368275202e+00 1.0000000000000000e+00 6.2458890752993410e+00 1.0000000000000000e+01 1.4626543793026435e+01 
364 365 2 1.2467813888044947e+00 -4.0432781329822136e+00 1.0000000000000000e+00 1.2773750079044881e+01 1.0000000000000000e+01 1.4643133134576264e+01 
258 259 2 1.2467813888044947e+00 -2.0862893562388005e+00 1.0000000000000000e+00 1.8244015618811595e+01 1.0000000000000000e+01 1.4361011975402430e+01 
85 86 2 1.2467813896259590e+00 5.0826091967575007e+00 1.0000000000000000e+00 2.3345191646140176e+01 1.0000000000000000e+01 1.5125892274487709e+01 
110 111 2 1.2467814831060224e+00 -2.2963584454513071e+00 1.0000000000000000e+00 2.9421904379079731e+01 1.0000000000000000e+01 1.5380349382373938e+01 
288 289 2 1.2467822579390493e+00 -8.6097920830559427e-01 1.0000000000000000e+00 3.1473296554819676e+01 1.0000000000000000e+01 1.5015702487186948e+01 
688 689 2 1.2467813888044947e+00 1.0930888368275202e+00 1.0000000000000000e+00 6.2458890752993410e+00 1.3800000000000001e+01 1.4626543793026435e+01 
826 827 2 1.2467813888044947e+00 -4.0432781329822136e+00 1.0000000000000000e+00 1.2773750079044881e+01 1.3800000000000001e+01 1.4643133134576264e+01 
720 721 2 1.2467813888044947e+00 -2.0862893562388005e+00 1.0000000000000000e+00 1.8244015618811595e+01 1.3800000000000001e+01 1.4361011975402430e+01 
547 548 2 1.2467813896259590e+00 5.0826091967575007e+00 1.0000000000000000e+00 2.3345191646140176e+01 1.3800000000000001e+01 1.5125892274487709e+01 
572 573 2 1.2467814831060224e+00 -2.2963584454513071e+00 1.0000000000000000e+00 2.9421904379079731e+01 1.3800000000000001e+01 1.5380349382373938e+01 
750 751 2 1.2467822579390493e+00 -8.6097920830559427e-01 1.0000000000000000e+00 3.1473296554819676e+01 1.3800000000000001e+01 1.5015702487186948e+01 
1249 1250 2 1.2467813888044947e+00 -4.4942611997746669e+00 1.0000000000000000e+00 3.6614719884517077e+00 1.7600000000000001e+01 1.5281929850125586e+01 
937 938 2 1.2467813888044947e+00 4.6606449159414129e+00 1.0000000000000000e+00 1.0871851765050831e+01 1.7600000000000001e+01 1.4674510802525131e+01 
1038 1039 2 1.2467813888044947e+00 -5.9691033258634327e+00 1.0000000000000000e+00 1.7250888817634149e+01 1.7600000000000001e+01 1.4325173283115804e+01 
996 997 2 1.2467813888044947e+00 -1.6050622119271962e+00 1.0000000000000000e+00 2.4760040863019817e+01 1.7600000000000001e+01 1.4944374101084762e+01 
1048 1049 2 1.2467814664001928e+00 -3.2392080095690847e+00 1.0000000000000000e+00 3.0485140836214907e+01 1.7600000000000001e+01 1.4324501130523563e+01 
308 309 2 1.2467813888044947e+00 -2.2104679207169395e+00 1.0000000000000000e+00 1.3177427418811418e+00 1.0000000000000000e+01 1.5882180624753090e+01 
34 35 2 1.2467813888044947e+00 1.0457352153701226e+01 1.0000000000000000e+00 3.5259678454113121e+00 1.0000000000000000e+01 1.5843830761399539e+01 
245 246 2 1.2467813888044947e+00 -4.9389828104512201e+00 1.0000000000000000e+00 9.5258818605192221e+00 1.0000000000000000e+01 1.6379945249884582e+01 
286 287 2 1.2467813888044947e+00 -4.2757158110463882e+00 1.0000000000000000e+00 1.9829069870250013e+01 1.0000000000000000e+01 1.6174352391591448e+01 
147 148 2 1.2467813896259590e+00 -2.3580012865234607e+00 1.0000000000000000e+00 2.5025203925497440e+01 1.0000000000000000e+01 1.6374358332852236e+01 
770 771 2 1.2467813888044947e+00 -2.2104679207169395e+00 1.0000000000000000e+00 1.3177427418811418e+00 1.3800000000000001e+01 1.5882180624753090e+01 