LAMMPS data file via write_data, version 30 Jul 2016, timestep = 1000000

2080 atoms
8 atom types

0.0000000000000000e+00 4.0000000000000000e+01 xlo xhi
0.0000000000000000e+00 4.0000000000000000e+01 ylo yhi
0.0000000000000000e+00 1.0000000000000000e+02 zlo zhi

Masses

1 3.896
2 5.36
3 1058.08
4 8.378
5 8.378
6 8.378
7 8.378
8 8.378

Atoms # meso-molecular

1 2 4 2.2559723595316457e+00 1.0000000000000000e+00 4.2000000000000000e+03 0.0000000000000000e+00 0.0000000000000000e+00 2.5000000000000000e+00 
2 2 4 2.2559723595316457e+00 1.0000000000000000e+00 4.2000000000000000e+03 0.0000000000000000e+00 2.0000000000000000e+00 2.5000000000000000e+00 
3 2 4 2.2559723595316457e+00 1.0000000000000000e+00 4.2000000000000000e+03 0.0000000000000000e+00 4.0000000000000000e+00 2.5000000000000000e+00 
4 2 4 2.2559723595316457e+00 1.0000000000000000e+00 4.2000000000000000e+03 0.0000000000000000e+00 6.0000000000000000e+00 2.5000000000000000e+00 
21 2 4 2.2559723595316457e+00 1.0000000000000000e+00 4.2000000000000000e+03 2.0000000000000000e+00 0.0000000000000000e+00 2.5000000000000000e+00 
22 2 4 2.2559723595316457e+00 1.0000000000000000e+00 4.2000000000000000e+03 2.0000000000000000e+00 2.0000000000000000e+00 2.5000000000000000e+00 
23 2 4 2.2559723595316457e+00 1.0000000000000000e+00 4.2000000000000000e+03 2.0000000000000000e+00 4.0000000000000000e+00 2.5000000000000000e+00 
24 2 4 2.2559723595316457e+00 1.0000000000000000e+00 4.2000000000000000e+03 2.0000000000000000e+00 6.0000000000000000e+00 2.5000000000000000e+00 
41 2 4 2.2559723595316457e+00 1.0000000000000000e+00 4.2000000000000000e+03 4.0000000000000000e+00 0.0000000000000000e+00 2.5000000000000000e+00 
42 2 4 2.2559723595316457e+00 1.0000000000000000e+00 4.2000000000000000e+03 4.0000000000000000e+00 2.0000000000000000e+00 2.5000000000000000e+00 
43 2 4 2.2559723595316457e+00 1.0000000000000000e+00 4.2000000000000000e+03 4.0000000000000000e+00 4.0000000000000000e+00 2.5000000000000000e+00 
44 2 4 2.2559723595316457e+00 1.0000000000000000e+00 4.2000000000000000e+03 4.0000000000000000e+00 6.0000000000000000e+00 2.5000000000000000e+00 
61 2 4 2.2559723595316457e+00 1.0000000000000000e+00 4.2000000000000000e+03 6.0000000000000000e+00 0.0000000000000000e+00 2.5000000000000000e+00 
62 2 4 2.2559723595316457e+00 1.0000000000000000e+00 4.2000000000000000e+03 6.0000000000000000e+00 2.0000000000000000e+00 2.5000000000000000e+00 
63 2 4 2.2559723595316457e+00 1.0000000000000000e+00 4.2000000000000000e+03 6.0000000000000000e+00 4.0000000000000000e+00 2.5000000000000000e+00 
64 2 4 2.2559723595316457e+00 1.0000000000000000e+00 4.2000000000000000e+03 6.0000000000000000e+00 6.0000000000000000e+00 2.5000000000000000e+00 
81 2 4 2.2559723595316457e+00 1.0000000000000000e+00 4.2000000000000000e+03 8.0000000000000000e+00 0.0000000000000000e+00 2.5000000000000000e+00 
82 2 4 2.2559723595316457e+00 1.0000000000000000e+00 4.2000000000000000e+03 8.0000000000000000e+00 2.0000000000000000e+00 2.5000000000000000e+00 
83 2 4 2.2559723595316457e+00 1.0000000000000000e+00 4.2000000000000000e+03 8.0000000000000000e+00 4.0000000000000000e+00 2.5000000000000000e+00 
84 2 4 2.2559723595316457e+00 1.0000000000000000e+00 4.2000000000000000e+03 8.0000000000000000e+00 6.0000000000000000e+00 2.5000000000000000e+00 
101 2 4 2.2559723595316457e+00 1.0000000000000000e+00 4.2000000000000000e+03 1.0000000000000000e+01 0.0000000000000000e+00 2.5000000000000000e+00 
102 2 4 2.2559723595316457e+00 1.0000000000000000e+00 4.2000000000000000e+03 1.0000000000000000e+01 2.0000000000000000e+00 2.5000000000000000e+00 
103 2 4 2.2559723595316457e+00 4.4965794027926087e-01 4.2000000000000000e+03 1.0000000000000000e+01 4.0000000000000000e+00 2.5000000000000000e+00 
104 2 4 2.2559723595316457e+00 -2.7608752517146701e+01 4.2000000000000000e+03 1.0000000000000000e+01 6.0000000000000000e+00 2.5000000000000000e+00 
121 2 4 2.2559723595316457e+00 1.0000000000000000e+00 4.2000000000000000e+03 1.2000000000000000e+01 0.0000000000000000e+00 2.5000000000000000e+00 
122 2 4 2.2559723595316457e+00 1.0000000000000000e+00 4.2000000000000000e+03 1.2000000000000000e+01 2.0000000000000000e+00 2.5000000000000000e+00 
123 2 4 2.2559723595316457e+00 -2.7601515996526182e+01 4.2000000000000000e+03 1.2000000000000000e+01 4.0000000000000000e+00 2.5000000000000000e+00 
124 2 4 2.2559723595316457e+00 -2.4646515621134338e+02 4.2000000000000000e+03 1.2000000000000000e+01 6.0000000000000000e+00 2.5000000000000000e+00 
141 2 4 2.2559723595316457e+00 1.0000000000000000e+00 4.2000000000000000e+03 1.4000000000000000e+01 0.0000000000000000e+00 2.5000000000000000e+00 
142 2 4 2.2559723595316457e+00 -9.5006604109720239e-01 4.2000000000000000e+03 1.4000000000000000e+01 2.0000000000000000e+00 2.5000000000000000e+00 
143 2 4 2.2559723595316457e+00 -1.2831718670622431e+02 4.2000000000000000e+03 1.4000000000000000e+01 4.0000000000000000e+00 2.5000000000000000e+00 
144 2 4 2.2559723595316457e+00 -8.0889706478197161e+02 4.2000000000000000e+03 1.4000000000000000e+01 6.0000000000000000e+00 2.5000000000000000e+00 
161 2 4 2.2559723595316457e+00 1.0000000000000000e+00 4.2000000000000000e+03 1.6000000000000000e+01 0.0000000000000000e+00 2.5000000000000000e+00 
162 2 4 2.2559723595316457e+00 -5.9941513776171185e+00 4.2000000000000000e+03 1.6000000000000000e+01 2.0000000000000000e+00 2.5000000000000000e+00 
163 2 4 2.2559723595316457e+00 -2.8036572132231879e+02 4.2000000000000000e+03 1.6000000000000000e+01 4.0000000000000000e+00 2.5000000000000000e+00 
164 2 4 2.2559723595316457e+00 -1.5778860791889315e+03 4.2000000000000000e+03 1.6000000000000000e+01 6.0000000000000000e+00 2.5000000000000000e+00 
181 2 4 2.2559723595316457e+00 1.0000000000000000e+00 4.2000000000000000e+03 1.8000000000000000e+01 0.0000000000000000e+00 2.5000000000000000e+00 
182 2 4 2.2559723595316457e+00 -8.5855501130872192e+00 4.2000000000000000e+03 1.8000000000000000e+01 2.0000000000000000e+00 2.5000000000000000e+00 
183 2 4 2.2559723595316457e+00 -3.9166675449371076e+02 4.2000000000000000e+03 1.8000000000000000e+01 4.0000000000000000e+00 2.5000000000000000e+00 
184 2 4 2.2559723595316457e+00 -2.1492575740038396e+03 4.2000000000000000e+03 1.8000000000000000e+01 6.0000000000000000e+00 2.5000000000000000e+00 
5 2 4 2.2559723595316457e+00 1.0000000000000000e+00 4.2000000000000000e+03 0.0000000000000000e+00 8.0000000000000000e+00 2.5000000000000000e+00 
6 2 4 2.2559723595316457e+00 1.0000000000000000e+00 4.2000000000000000e+03 0.0000000000000000e+00 1.0000000000000000e+01 2.5000000000000000e+00 
7 2 4 2.2559723595316457e+00 1.0000000000000000e+00 4.2000000000000000e+03 0.0000000000000000e+00 1.2000000000000000e+01 2.5000000000000000e+00 
25 2 4 2.2559723595316457e+00 1.0000000000000000e+00 4.2000000000000000e+03 2.0000000000000000e+00 8.0000000000000000e+00 2.5000000000000000e+00 
26 2 4 2.2559723595316457e+00 1.0000000000000000e+00 4.2000000000000000e+03 2.0000000000000000e+00 1.0000000000000000e+01 2.5000000000000000e+00 
27 2 4 2.2559723595316457e+00 1.0000000000000000e+00 4.2000000000000000e+03 2.0000000000000000e+00 1.2000000000000000e+01 2.5000000000000000e+00 
45 2 4 2.2559723595316457e+00 1.0000000000000000e+00 4.2000000000000000e+03 4.0000000000000000e+00 8.0000000000000000e+00 2.5000000000000000e+00 
46 2 4 2.2559723595316457e+00 1.0000000000000000e+00 4.2000000000000000e+03 4.0000000000000000e+00 1.0000000000000000e+01 2.5000000000000000e+00 
47 2 4 2.2559723595316457e+00 1.0000000000000000e+00 4.2000000000000000e+03 4.0000000000000000e+00 1.2000000000000000e+01 2.5000000000000000e+00 
65 2 4 2.2559723595316457e+00 1.0000000000000000e+00 4.2000000000000000e+03 6.0000000000000000e+00 8.0000000000000000e+00 2.5000000000000000e+00 
66 2 4 2.2559723595316457e+00 1.0000000000000000e+00 4.2000000000000000e+03 6.0000000000000000e+00 1.0000000000000000e+01 2.5000000000000000e+00 
67 2 4 2.2559723595316457e+00 1.0000000000000000e+00 4.2000000000000000e+03 6.0000000000000000e+00 1.2000000000000000e+01 2.5000000000000000e+00 
85 2 4 2.2559723595316457e+00 -9.4981717402585275e-01 4.2000000000000000e+03 8.0000000000000000e+00 8.0000000000000000e+00 2.5000000000000000e+00 
86 2 4 2.2559723595316457e+00 -6.0241331331828851e+00 4.2000000000000000e+03 8.0000000000000000e+00 1.0000000000000000e+01 2.5000000000000000e+00 
87 2 4 2.2559723595316457e+00 -8.7908967257312600e+00 4.2000000000000000e+03 8.0000000000000000e+00 1.2000000000000000e+01 2.5000000000000000e+00 
105 2 4 2.2559723595316457e+00 -1.2876334802527984e+02 4.2000000000000000e+03 1.0000000000000000e+01 8.0000000000000000e+00 2.5000000000000000e+00 
106 2 4 2.2559723595316457e+00 -2.8375214396297594e+02 4.2000000000000000e+03 1.0000000000000000e+01 1.0000000000000000e+01 2.5000000000000000e+00 
107 2 4 2.2559723595316457e+00 -4.0626811112201921e+02 4.2000000000000000e+03 1.0000000000000000e+01 1.2000000000000000e+01 2.5000000000000000e+00 
125 2 4 2.2559723595316457e+00 -8.1193185876091434e+02 4.2000000000000000e+03 1.2000000000000000e+01 8.0000000000000000e+00 2.5000000000000000e+00 
126 2 4 2.2559723595316457e+00 -1.5992101925208888e+03 4.2000000000000000e+03 1.2000000000000000e+01 1.0000000000000000e+01 2.5000000000000000e+00 
127 2 4 2.2559723595316457e+00 -2.2537657379422453e+03 4.2000000000000000e+03 1.2000000000000000e+01 1.2000000000000000e+01 2.5000000000000000e+00 
145 2 4 2.2559723595316457e+00 -2.3690374421087781e+03 4.2000000000000000e+03 1.4000000000000000e+01 8.0000000000000000e+00 2.5000000000000000e+00 
146 2 4 2.2559723595316457e+00 -4.4730521995309491e+03 4.2000000000000000e+03 1.4000000000000000e+01 1.0000000000000000e+01 2.5000000000000000e+00 
147 2 4 2.2559723595316457e+00 -6.2611423486951544e+03 4.2000000000000000e+03 1.4000000000000000e+01 1.2000000000000000e+01 2.5000000000000000e+00 
165 2 4 2.2559723595316457e+00 -4.4300264312964673e+03 4.2000000000000000e+03 1.6000000000000000e+01 8.0000000000000000e+00 2.5000000000000000e+00 
166 2 4 2.2559723595316457e+00 -8.2538824025948779e+03 4.2000000000000000e+03 1.6000000000000000e+01 1.0000000000000000e+01 2.5000000000000000e+00 
167 2 4 2.2559723595316457e+00 -1.1551050817720059e+04 4.2000000000000000e+03 1.6000000000000000e+01 1.2000000000000000e+01 2.5000000000000000e+00 
185 2 4 2.2559723595316457e+00 -5.9602172667236191e+03 4.2000000000000000e+03 1.8000000000000000e+01 8.0000000000000000e+00 2.5000000000000000e+00 
186 2 4 2.2559723595316457e+00 -1.1072713731572225e+04 4.2000000000000000e+03 1.8000000000000000e+01 1.0000000000000000e+01 2.5000000000000000e+00 
187 2 4 2.2559723595316457e+00 -1.5520861875962315e+04 4.2000000000000000e+03 1.8000000000000000e+01 1.2000000000000000e+01 2.5000000000000000e+00 
8 2 4 2.2559723595316457e+00 1.0000000000000000e+00 4.2000000000000000e+03 0.0000000000000000e+00 1.4000000000000000e+01 2.5000000000000000e+00 
9 2 4 2.2559723595316457e+00 1.0000000000000000e+00 4.2000000000000000e+03 0.0000000000000000e+00 1.6000000000000000e+01 2.5000000000000000e+00 
10 2 4 2.2559723595316457e+00 1.0000000000000000e+00 4.2000000000000000e+03 0.0000000000000000e+00 1.8000000000000000e+01 2.5000000000000000e+00 
28 2 4 2.2559723595316457e+00 1.0000000000000000e+00 4.2000000000000000e+03 2.0000000000000000e+00 1.4000000000000000e+01 2.5000000000000000e+00 
29 2 4 2.2559723595316457e+00 1.0000000000000000e+00 4.2000000000000000e+03 2.0000000000000000e+00 1.6000000000000000e+01 2.5000000000000000e+00 
30 2 4 2.2559723595316457e+00 1.0000000000000000e+00 4.2000000000000000e+03 2.0000000000000000e+00 1.8000000000000000e+01 2.5000000000000000e+00 
48 2 4 2.2559723595316457e+00 1.0000000000000000e+00 4.2000000000000000e+03 4.0000000000000000e+00 1.4000000000000000e+01 2.5000000000000000e+00 
49 2 4 2.2559723595316457e+00 1.0000000000000000e+00 4.2000000000000000e+03 4.0000000000000000e+00 1.6000000000000000e+01 2.5000000000000000e+00 
50 2 4 2.2559723595316457e+00 1.0000000000000000e+00 4.2000000000000000e+03 4.0000000000000000e+00 1.8000000000000000e+01 2.5000000000000000e+00 
68 2 4 2.2559723595316457e+00 1.0000000012924093e+00 4.2000000000000000e+03 6.0000000000000000e+00 1.4000000000000000e+01 2.5000000000000000e+00 
69 2 4 2.2559723595316457e+00 1.0000000000000000e+00 4.2000000000000000e+03 6.0000000000000000e+00 1.6000000000000000e+01 2.5000000000000000e+00 
70 2 4 2.2559723595316457e+00 1.0000000000000000e+00 4.2000000000000000e+03 6.0000000000000000e+00 1.8000000000000000e+01 2.5000000000000000e+00 
88 2 4 2.2559723595316457e+00 -9.3462908984633088e+00 4.2000000000000000e+03 8.0000000000000000e+00 1.4000000000000000e+01 2.5000000000000000e+00 
89 2 4 2.2559723595316457e+00 -9.4971301181908352e+00 4.2000000000000000e+03 8.0000000000000000e+00 1.6000000000000000e+01 2.5000000000000000e+00 
90 2 4 2.2559723595316457e+00 -9.5146872286235329e+00 4.2000000000000000e+03 8.0000000000000000e+00 1.8000000000000000e+01 2.5000000000000000e+00 
108 2 4 2.2559723595316457e+00 -4.5551128461667298e+02 4.2000000000000000e+03 1.0000000000000000e+01 1.4000000000000000e+01 2.5000000000000000e+00 
109 2 4 2.2559723595316457e+00 -4.6557875646975981e+02 4.2000000000000000e+03 1.0000000000000000e+01 1.6000000000000000e+01 2.5000000000000000e+00 
110 2 4 2.2559723595316457e+00 -4.6749609731059769e+02 4.2000000000000000e+03 1.0000000000000000e+01 1.8000000000000000e+01 2.5000000000000000e+00 
128 2 4 2.2559723595316457e+00 -2.5690138948367780e+03 4.2000000000000000e+03 1.2000000000000000e+01 1.4000000000000000e+01 2.5000000000000000e+00 
129 2 4 2.2559723595316457e+00 -2.6478751611433618e+03 4.2000000000000000e+03 1.2000000000000000e+01 1.6000000000000000e+01 2.5000000000000000e+00 
130 2 4 2.2559723595316457e+00 -2.6620934258013403e+03 4.2000000000000000e+03 1.2000000000000000e+01 1.8000000000000000e+01 2.5000000000000000e+00 
148 2 4 2.2559723595316457e+00 -7.1845592636444144e+03 4.2000000000000000e+03 1.4000000000000000e+01 1.4000000000000000e+01 2.5000000000000000e+00 
149 2 4 2.2559723595316457e+00 -7.4379978354356945e+03 4.2000000000000000e+03 1.4000000000000000e+01 1.6000000000000000e+01 2.5000000000000000e+00 
150 2 4 2.2559723595316457e+00 -7.4783831430863929e+03 4.2000000000000000e+03 1.4000000000000000e+01 1.8000000000000000e+01 2.5000000000000000e+00 
168 2 4 2.2559723595316457e+00 -1.3300051003225122e+04 4.2000000000000000e+03 1.6000000000000000e+01 1.4000000000000000e+01 2.5000000000000000e+00 
169 2 4 2.2559723595316457e+00 -1.3792590411556128e+04 4.2000000000000000e+03 1.6000000000000000e+01 1.6000000000000000e+01 2.5000000000000000e+00 
170 2 4 2.2559723595316457e+00 -1.3862969078608619e+04 4.2000000000000000e+03 1.6000000000000000e+01 1.8000000000000000e+01 2.5000000000000000e+00 
188 2 4 2.2559723595316457e+00 -1.7905859218583177e+04 4.2000000000000000e+03 1.8000000000000000e+01 1.4000000000000000e+01 2.5000000000000000e+00 
189 2 4 2.2559723595316457e+00 -1.8572415720366251e+04 4.2000000000000000e+03 1.8000000000000000e+01 1.6000000000000000e+01 2.5000000000000000e+00 
190 2 4 2.2559723595316457e+00 -1.8660964004060799e+04 4.2000000000000000e+03 1.8000000000000000e+01 1.8000000000000000e+01 2.5000000000000000e+00 
1975 1577 2 1.0280002893303517e+00 1.9555143391674126e+03 4.2000000000000000e+03 1.9144163413265925e+01 1.4845640225295432e+01 1.9843534579017515e+01 
1111 713 2 1.0280002672257222e+00 4.4271327863555498e+03 4.2000000000000000e+03 1.9255168518330962e+01 1.4584421880095844e+01 1.9846074906573413e+01 
1811 1413 2 1.0280003122017976e+00 -2.7621286919025074e+03 4.2000000000000000e+03 1.9093314458981645e+01 1.4988081298086666e+01 1.9851472962999168e+01 
1183 785 2 1.0280002610474335e+00 -1.8935568435549194e+03 4.2000000000000000e+03 1.8982991295125572e+01 1.4899241405757433e+01 1.9853958496643678e+01 
910 512 2 1.0280003151762926e+00 -6.1233140143822357e+03 4.2000000000000000e+03 1.9372524087929943e+01 1.4928700583282291e+01 1.9857701887612095e+01 
911 513 2 1.0280003064225021e+00 -6.1231865585951982e+03 4.2000000000000000e+03 1.9461914769408171e+01 1.4887093960626936e+01 1.9867456565225115e+01 
1232 834 2 1.0280002665196721e+00 6.7255069345432184e+02 4.2000000000000000e+03 1.8857446336197544e+01 1.4994513854959498e+01 1.9874831305881223e+01 
1110 712 2 1.0280002748765036e+00 4.4274951273428424e+03 4.2000000000000000e+03 1.9570564195241538e+01 1.4607525117816966e+01 1.9885843604183783e+01 
2064 1666 2 1.0280003869078271e+00 2.4466111884667880e+03 4.2000000000000000e+03 1.8828823511437296e+01 1.4255720658650095e+01 1.9900469741304818e+01 
1702 1304 2 1.0280003207648982e+00 6.0432388996952068e+03 4.2000000000000000e+03 1.9200076620256596e+01 1.4039173244589353e+01 1.9903911917255893e+01 
1810 1412 2 1.0280002318560280e+00 -2.7602687309605176e+03 4.2000000000000000e+03 1.9675247823609492e+01 1.5043837785297024e+01 1.9922069237722699e+01 
1703 1305 2 1.0280002061740203e+00 6.0476273633115043e+03 4.2000000000000000e+03 1.9620109007007610e+01 1.5275337990445928e+01 1.9932537010353176e+01 
1182 784 2 1.0280002933588366e+00 -1.8915626105315600e+03 4.2000000000000000e+03 1.9818458087817532e+01 1.4807156909769660e+01 1.9954933579513867e+01 
538 140 2 1.0280002310646459e+00 5.5132446828599841e+03 4.2000000000000000e+03 1.9477832417939936e+01 1.5781024465181904e+01 1.9998049111547267e+01 
1924 1526 2 1.0279999961956801e+00 -1.6876539590934284e+04 4.2000000000000000e+03 1.9081262528840391e+01 6.6206633033344637e+00 2.6022872602321744e+01 
622 224 2 1.0280000265563025e+00 1.7440853781857513e+03 4.2000000000000000e+03 1.8817627812702888e+01 6.5731750800332316e+00 2.6102477568227240e+01 
623 225 2 1.0280000107028775e+00 1.7439617829888193e+03 4.2000000000000000e+03 1.8737229994031704e+01 6.5744514947662838e+00 2.6111733178975911e+01 
1921 1523 2 1.0279999799066399e+00 -1.6875953237285532e+04 4.2000000000000000e+03 1.8381435720544040e+01 6.6304892675230400e+00 2.6190877683242409e+01 
793 395 2 1.0280000434621603e+00 -7.9927184441369718e+02 4.2000000000000000e+03 1.9477154513631891e+01 6.6519082945473977e+00 2.6455282051423644e+01 
796 398 2 1.0279999561247772e+00 -7.9666167702451162e+02 4.2000000000000000e+03 1.8191694711092460e+01 6.6303210711230847e+00 2.6609712146851390e+01 
1616 1218 2 1.0280004057254442e+00 3.9941502756125660e+03 4.2000000000000000e+03 1.9218463843254668e+01 1.3320427351296148e+01 2.0116344376702521e+01 
1613 1215 2 1.0280003893679979e+00 3.9952465807330873e+03 4.2000000000000000e+03 1.9622606973498701e+01 1.3280124506422462e+01 2.0194668977389831e+01 
841 443 2 1.0280003967328253e+00 1.8515818563232513e+03 4.2000000000000000e+03 1.9447136646784724e+01 1.3141837744275277e+01 2.0218423241886189e+01 
844 446 2 1.0280003601689038e+00 1.8527837466124467e+03 4.2000000000000000e+03 1.9421126375804551e+01 1.3105725242550079e+01 2.0231604244917392e+01 
1558 1160 2 1.0280004186524394e+00 1.5286930142724226e+04 4.2000000000000000e+03 1.9165098627952400e+01 1.2960790943854512e+01 2.0285327185030987e+01 
1317 919 2 1.0280003569571219e+00 4.8329237891065150e+03 4.2000000000000000e+03 1.9706749672423811e+01 1.3112702322627115e+01 2.0299388233179251e+01 
1555 1157 2 1.0280003778616895e+00 8.7588240537307593e+03 4.2000000000000000e+03 1.9377855063839391e+01 1.2805804609125026e+01 2.0388311041895566e+01 
1554 1156 2 1.0280003845788910e+00 8.7574017304396784e+03 4.2000000000000000e+03 1.9455688439028325e+01 1.2755938652325675e+01 2.0431944722619544e+01 
945 547 2 1.0280004510853515e+00 2.4587721109441836e+03 4.2000000000000000e+03 1.9971487292349135e+01 1.2509227440464109e+01 2.0813935181921231e+01 
990 592 2 1.0280005136443784e+00 4.5299193036044471e+03 4.2000000000000000e+03 1.8870954496315900e+01 1.2102546536576602e+01 2.0912080949858300e+01 
505 107 2 1.0280004830891472e+00 -3.0979306566000391e+03 4.2000000000000000e+03 1.8566599219124047e+01 1.2208584647213330e+01 2.0917760353439785e+01 
1223 825 2 1.0280004686586377e+00 1.0115835130511552e+04 4.2000000000000000e+03 1.9588014673158121e+01 1.2114109151459068e+01 2.0955146154859143e+01 
1130 732 2 1.0280005415526987e+00 -5.5120055702609243e+03 4.2000000000000000e+03 1.9800158256460072e+01 1.2170030677195625e+01 2.1001402600921775e+01 
1375 977 2 1.0280004659719868e+00 8.2989219336375245e+03 4.2000000000000000e+03 1.8971709086846836e+01 1.1888618775753452e+01 2.1089253879159060e+01 
1374 976 2 1.0280005044261029e+00 8.3008216433075795e+03 4.2000000000000000e+03 1.9701737592051398e+01 1.1997040163592457e+01 2.1113380336967328e+01 
1131 733 2 1.0280005410742692e+00 -5.5137367826048767e+03 4.2000000000000000e+03 1.8998059799731944e+01 1.1824892008458951e+01 2.1147174241779226e+01 
1576 1178 2 1.0280006243760851e+00 -6.5326048954517537e+03 4.2000000000000000e+03 1.7778354268031215e+01 1.2551230777447342e+01 2.1230400672001803e+01 
1953 1555 2 1.0280004944280583e+00 -2.0614983787296619e+03 4.2000000000000000e+03 1.9366852257005672e+01 1.1747648109408384e+01 2.1242944976153794e+01 
1956 1558 2 1.0280005023119410e+00 -2.0615809706203490e+03 4.2000000000000000e+03 1.9383347310504028e+01 1.1744671394053178e+01 2.1249669868053779e+01 
1726 1328 2 1.0280006575691687e+00 6.8537239245444089e+03 4.2000000000000000e+03 1.7473071019745461e+01 1.2946190372757144e+01 2.1294130084392261e+01 
590 192 2 1.0280006377526034e+00 5.9110505152436499e+03 4.2000000000000000e+03 1.7180566307665895e+01 1.3312109500366521e+01 2.1475182229306704e+01 
1080 682 2 1.0280004863822156e+00 -5.2230899479810716e+02 4.2000000000000000e+03 1.9171922214226573e+01 1.1086613150494395e+01 2.1940088066332674e+01 
1316 918 2 1.0280004621382814e+00 1.2106426432910919e+04 4.2000000000000000e+03 1.9267844681924664e+01 1.0956223315346561e+01 2.2106226288360247e+01 
1097 699 2 1.0280004494353350e+00 1.0216649266746490e+04 4.2000000000000000e+03 1.9199685986246330e+01 1.0805311824263542e+01 2.2267097593181347e+01 
1559 1161 2 1.0280004416294466e+00 1.5296445781088793e+04 4.2000000000000000e+03 1.9347139681874864e+01 1.0589378124812889e+01 2.2548602167705177e+01 
1100 702 2 1.0280004297965464e+00 1.0213788310407746e+04 4.2000000000000000e+03 1.9270975582767296e+01 1.0565256095036176e+01 2.2550608331563062e+01 
1457 1059 2 1.0280003818273185e+00 3.6768689999322273e+03 4.2000000000000000e+03 1.9659173342692373e+01 1.0693599717347675e+01 2.2611061431981010e+01 
1867 1469 2 1.0280003957980959e+00 -5.6278628156463556e+03 4.2000000000000000e+03 1.9329348433592077e+01 1.0485569268004285e+01 2.2654941872197249e+01 
1077 679 2 1.0280003981639194e+00 -5.2290653845249767e+02 4.2000000000000000e+03 1.9512405884553615e+01 1.0502356319252536e+01 2.2725015550282407e+01 
958 560 2 1.0280004363014266e+00 3.3680870018815972e+03 4.2000000000000000e+03 1.9001671819051531e+01 1.0172856565795989e+01 2.2910068856697652e+01 
1313 915 2 1.0280003803913040e+00 1.2111739350342066e+04 4.2000000000000000e+03 1.9122076626251403e+01 1.0148255169678961e+01 2.2939392845381029e+01 
1761 1363 2 1.0280003261577586e+00 -3.3411113136024801e+03 4.2000000000000000e+03 1.9000768646070892e+01 1.0042765360191618e+01 2.3025880291959428e+01 
1222 824 2 1.0280004040268149e+00 1.0118202972680327e+04 4.2000000000000000e+03 1.9016722560926222e+01 9.9117909886900506e+00 2.3135921347160771e+01 
1836 1438 2 1.0280003179790023e+00 2.4384214778467376e+03 4.2000000000000000e+03 1.9177054079123469e+01 9.8263574786422936e+00 2.3223108676183077e+01 
1764 1366 2 1.0280002680255573e+00 -3.3407474771590305e+03 4.2000000000000000e+03 1.9228344115208170e+01 9.8099285677691572e+00 2.3248457807454180e+01 
959 561 2 1.0280003293602979e+00 3.3701042317557317e+03 4.2000000000000000e+03 1.9300681523321558e+01 9.7653103536428123e+00 2.3306192933037085e+01 
1833 1435 2 1.0280003527203057e+00 2.4421301789284166e+03 4.2000000000000000e+03 1.9129154882081473e+01 9.7057533533463900e+00 2.3307087893782104e+01 
757 359 2 1.0280002727733126e+00 -3.2600472673346239e+03 4.2000000000000000e+03 1.9070317509489289e+01 9.5910023366990842e+00 2.3383196529985394e+01 
760 362 2 1.0280002684781255e+00 -3.2604832459176409e+03 4.2000000000000000e+03 1.9126768036403409e+01 9.5876240228462137e+00 2.3392956783960024e+01 
1712 1314 2 1.0280002770595777e+00 -2.8170500028620022e+03 4.2000000000000000e+03 1.9282503053224243e+01 9.2516553347555224e+00 2.3658365285529282e+01 
1709 1311 2 1.0280002095175689e+00 -2.8160472292308127e+03 4.2000000000000000e+03 1.8874085351923188e+01 8.7832159532509309e+00 2.3888987654338990e+01 
995 597 2 1.0280002426276045e+00 8.3323924581932624e+03 4.2000000000000000e+03 1.9139159931812578e+01 8.3689208992213064e+00 2.4154373868209174e+01 
994 596 2 1.0280001649623767e+00 8.3331407188605590e+03 4.2000000000000000e+03 1.8931825032881079e+01 8.2272492233572176e+00 2.4219864938513492e+01 
1508 1110 2 1.0280001696691394e+00 3.5324374808206999e+03 4.2000000000000000e+03 1.8932616955423672e+01 8.0154081340830761e+00 2.4357097595432194e+01 
1025 627 2 1.0280001856096113e+00 4.9382466109807638e+03 4.2000000000000000e+03 1.8783665912897572e+01 8.0111497133700951e+00 2.4367363857705335e+01 
1028 630 2 1.0280001488526935e+00 4.9351256496871365e+03 4.2000000000000000e+03 1.9191527370033061e+01 7.9692585163575469e+00 2.4426613180270614e+01 
540 142 2 1.0280001603312512e+00 -5.4971284133090276e+03 4.2000000000000000e+03 1.8759469979506576e+01 7.8569411361514465e+00 2.4476462451668088e+01 
1505 1107 2 1.0280001702811017e+00 3.5328891056494513e+03 4.2000000000000000e+03 1.8993078456774274e+01 7.8308189901087406e+00 2.4489011781793643e+01 
537 139 2 1.0280001593602146e+00 -5.4972897793045058e+03 4.2000000000000000e+03 1.9160155369791138e+01 7.8557443687917603e+00 2.4499017288034459e+01 
1987 1589 2 1.0280001825760585e+00 -3.6069534732131247e+03 4.2000000000000000e+03 1.9105060472936490e+01 7.7482804037465094e+00 2.4566525022907747e+01 
1986 1588 2 1.0280001673360597e+00 -3.6092461299411557e+03 4.2000000000000000e+03 1.8809167220356219e+01 7.6961480969002514e+00 2.4589548001014357e+01 
433 35 2 1.0280001443272939e+00 5.1282298307570509e+03 4.2000000000000000e+03 1.9240465833544214e+01 7.6673664046466623e+00 2.4667386178204193e+01 
436 38 2 1.0280001406430832e+00 5.1281667277053148e+03 4.2000000000000000e+03 1.8636145237816084e+01 7.6280224359139757e+00 2.4672344237707222e+01 
407 9 2 1.0280001401168732e+00 -7.3255186144482532e+03 4.2000000000000000e+03 1.8831910670312158e+01 7.4957309465025626e+00 2.4751171767116592e+01 
1960 1562 2 1.0280005935593619e+00 3.3340539916031203e+03 4.2000000000000000e+03 1.7335897838731395e+01 1.0168590602465127e+01 2.4839149240828252e+01 
1000 602 2 1.0280001208101701e+00 -6.7143247059969985e+02 4.2000000000000000e+03 1.8829695691721604e+01 7.3633070784023520e+00 2.4871181768853049e+01 
984 586 2 1.0280001489503559e+00 -9.1001446475443106e+02 4.2000000000000000e+03 1.9030855455997486e+01 7.3614052516606234e+00 2.4882812746084102e+01 
1669 1271 2 1.0280001234381282e+00 -4.3534176197501870e+02 4.2000000000000000e+03 1.9168587909421781e+01 7.3908059538089370e+00 2.4886400836372481e+01 
997 599 2 1.0280001075766039e+00 -6.7109199793775326e+02 4.2000000000000000e+03 1.9016316124902207e+01 7.3336863962626655e+00 2.4907556616775697e+01 
1885 1487 2 1.0280001113795774e+00 -1.9830705672488423e+02 4.2000000000000000e+03 1.9111548097271424e+01 7.3226105654268698e+00 2.4937248267318807e+01 
981 583 2 1.0280000760797037e+00 -9.1003893870981813e+02 4.2000000000000000e+03 1.8777578043409978e+01 7.2853659945960016e+00 2.4951662609136580e+01 
543 145 2 1.0280000929699447e+00 3.4928513570266477e+03 4.2000000000000000e+03 1.9379634347785220e+01 7.4067673377063645e+00 2.4961884580641517e+01 
1672 1274 2 1.0280001325515968e+00 -4.3298631041808756e+02 4.2000000000000000e+03 1.8631634542279020e+01 7.2812330168259871e+00 2.4983660348959841e+01 
1835 1437 2 1.0280000732835084e+00 1.9156477000824677e+02 4.2000000000000000e+03 1.8996757045658764e+01 7.2159866380792250e+00 2.5025791285786571e+01 
406 8 2 1.0280001580463967e+00 -7.3274337211809743e+03 4.2000000000000000e+03 1.8930923276165885e+01 7.1768398259192088e+00 2.5062150787744695e+01 
1834 1436 2 1.0280001370173275e+00 1.9099359378491724e+02 4.2000000000000000e+03 1.8772235075118655e+01 7.1561973405469503e+00 2.5089558459055240e+01 
699 301 2 1.0280000950616295e+00 3.3410964937781415e+02 4.2000000000000000e+03 1.9028996208691858e+01 7.1519817912143031e+00 2.5101957666862376e+01 
698 300 2 1.0280000796095308e+00 3.3402165860555868e+02 4.2000000000000000e+03 1.8716336452392408e+01 7.1149424150616714e+00 2.5145301579794214e+01 
1888 1490 2 1.0280001091406386e+00 -1.9812458293789055e+02 4.2000000000000000e+03 1.8623518170365337e+01 7.1238025715390512e+00 2.5157007060053139e+01 
1393 995 2 1.0280000906370941e+00 5.7220899093033831e+03 4.2000000000000000e+03 1.9114570483211669e+01 7.0756868498982461e+00 2.5213817560315839e+01 
542 144 2 1.0280000582711872e+00 3.4942673270019400e+03 4.2000000000000000e+03 1.8307810646072713e+01 7.1897813612056218e+00 2.5233615236666854e+01 
1396 998 2 1.0280000533297839e+00 5.7230325473761250e+03 4.2000000000000000e+03 1.8665820671111092e+01 6.9912950039333612e+00 2.5311330598696735e+01 
1410 1012 2 1.0280000461253922e+00 1.0288253107164153e+04 4.2000000000000000e+03 1.8867476856867928e+01 6.8587649293165969e+00 2.5478946454208511e+01 
1411 1013 2 1.0280000586047684e+00 1.0288270539281782e+04 4.2000000000000000e+03 1.8739048717407510e+01 6.8361678617402468e+00 2.5526186675587763e+01 
1586 1188 2 1.0280000075233686e+00 -3.9910001581359343e+03 4.2000000000000000e+03 1.9004012488184504e+01 6.8113098658357698e+00 2.5573632346089955e+01 
1587 1189 2 1.0280000559125140e+00 -3.9888458341565665e+03 4.2000000000000000e+03 1.8653774038431276e+01 6.7982809821858030e+00 2.5611983360412012e+01 
1682 1284 2 1.0280000308272108e+00 2.5719326959511477e+03 4.2000000000000000e+03 1.9584678852499479e+01 7.0090417942365466e+00 2.5633413640876896e+01 
1541 1143 2 1.0280000109919567e+00 -2.1232106595754572e+03 4.2000000000000000e+03 1.8762175364489632e+01 6.6849545949295344e+00 2.5810983043349843e+01 
1544 1146 2 1.0280000001398881e+00 -2.1234105109640414e+03 4.2000000000000000e+03 1.8832314049420162e+01 6.6795683138568149e+00 2.5816188328186914e+01 