LAMMPS data file via write_data, version 30 Jul 2016, timestep = 50400000

180 atoms
2 atom types

0.0000000000000000e+00 2.0000000000000000e+01 xlo xhi
0.0000000000000000e+00 2.0000000000000000e+01 ylo yhi
0.0000000000000000e+00 2.0000000000000000e+01 zlo zhi

Masses

1 3.896
2 4.31

Atoms # meso-molecular

1 1 2 4.3521309693160926e-01 -3.0757100075888866e+02 1.0000000000000000e+00 5.9034205385081187e+00 2.1136851067973508e+00 3.5464543274157900e-01 
7 1 2 4.3521309693160926e-01 -3.0937075728462219e+02 1.0000000000000000e+00 5.9034205385081240e+00 2.1136851067973446e+00 3.5464543274158072e-01 
37 1 2 4.3521309693160926e-01 -2.6326235137620682e+02 1.0000000000000000e+00 5.9034205385081240e+00 2.1136851067973446e+00 3.5464543274157861e-01 
13 1 2 5.8028412924214567e-01 -2.5869507062721129e+02 1.0000000000000000e+00 6.4295793283202878e+00 8.6632015146438093e+00 8.2619345120554832e-01 
19 1 2 5.8028412924214567e-01 -3.0583889009523295e+02 1.0000000000000000e+00 6.4295793283202762e+00 8.6632015146437702e+00 8.2619345120554721e-01 
55 1 2 5.8028412924214567e-01 -2.9711715747801014e+02 1.0000000000000000e+00 6.4295793283202887e+00 8.6632015146437968e+00 8.2619345120554721e-01 
49 1 2 5.8028412924214567e-01 -3.3618966576998042e+02 1.0000000000000000e+00 6.4295793283202629e+00 8.6632015146438199e+00 8.2619345120554699e-01 
8 1 2 8.7042619386321851e-01 -2.7667404860856050e+02 1.0000000000000000e+00 4.6053111278191317e+00 7.3745286242976773e+00 5.4756068251738972e+00 
9 1 2 8.7042619386321851e-01 -2.5399122802575027e+02 1.0000000000000000e+00 4.6053111278191317e+00 7.3745286242976773e+00 5.4756068251738910e+00 
21 1 2 8.7042619386321851e-01 -3.5589391575118680e+02 1.0000000000000000e+00 4.6053111278191672e+00 7.3745286242976773e+00 5.4756068251738599e+00 
15 1 2 8.7042619386321851e-01 -3.4567060300248886e+02 1.0000000000000000e+00 4.6053111278191254e+00 7.3745286242976755e+00 5.4756068251738883e+00 
14 1 2 8.7042619386321851e-01 -3.3778158264928032e+02 1.0000000000000000e+00 4.6053111278190988e+00 7.3745286242976755e+00 5.4756068251738883e+00 
20 1 2 8.7042619386321851e-01 -3.5546358242169163e+02 1.0000000000000000e+00 4.6053111278191139e+00 7.3745286242976755e+00 5.4756068251738883e+00 
4 1 2 5.8028412924214567e-01 -2.4660271163818385e+02 1.0000000000000000e+00 6.4611060840776835e+00 2.4955065861535299e+00 1.0197037433196346e+01 
10 1 2 5.8028412924214567e-01 -3.3724632989934406e+02 1.0000000000000000e+00 6.4611060840776746e+00 2.4955065861535295e+00 1.0197037433196346e+01 
40 1 2 5.8028412924214567e-01 -2.8488194629604266e+02 1.0000000000000000e+00 6.4611060840776702e+00 2.4955065861535366e+00 1.0197037433196346e+01 
46 1 2 5.8028412924214567e-01 -2.6310822908199384e+02 1.0000000000000000e+00 6.4611060840776897e+00 2.4955065861535348e+00 1.0197037433196304e+01 
24 1 2 5.8028412924214567e-01 -3.1787568558384777e+02 1.0000000000000000e+00 5.6136939590710702e+00 8.3252093985236684e+00 1.6512122008408941e+01 
54 1 2 5.8028412924214567e-01 -3.0164280399517037e+02 1.0000000000000000e+00 5.6136939590711092e+00 8.3252093985236684e+00 1.6512122008408941e+01 
17 1 2 5.8028412924214567e-01 -2.0215391155406633e+02 1.0000000000000000e+00 5.6136939590710728e+00 8.3252093985236826e+00 1.6512122008408969e+01 
18 1 2 5.8028412924214567e-01 -2.6526253500140740e+02 1.0000000000000000e+00 5.6136939590711066e+00 8.3252093985236826e+00 1.6512122008408969e+01 
25 1 2 8.7042619386321851e-01 -2.9720044496849778e+02 1.0000000000000000e+00 6.0806726798478605e+00 1.5991096717028405e+01 2.9414566082018463e+00 
31 1 2 8.7042619386321851e-01 -4.0933379447153408e+02 1.0000000000000000e+00 6.0806726798478605e+00 1.5991096717028405e+01 2.9414566082018463e+00 
67 1 2 8.7042619386321851e-01 -3.6026245473944073e+02 1.0000000000000000e+00 6.0806726798478605e+00 1.5991096717028398e+01 2.9414566082018578e+00 
26 1 2 8.7042619386321851e-01 -3.8148032667005799e+02 1.0000000000000000e+00 6.0806726798478508e+00 1.5991096717028405e+01 2.9414566082018547e+00 
68 1 2 8.7042619386321851e-01 -4.0660597297517614e+02 1.0000000000000000e+00 6.0806726798478605e+00 1.5991096717028398e+01 2.9414566082018658e+00 
32 1 2 8.7042619386321851e-01 -3.9309074232552007e+02 1.0000000000000000e+00 6.0806726798478863e+00 1.5991096717028398e+01 2.9414566082018658e+00 
65 1 2 1.0276667295704658e+00 -3.4467778048334429e+02 1.0000000000000000e+00 5.1187135058265154e+00 1.4186900489942559e+01 1.1695802966191273e+01 
64 1 2 1.0276667295704658e+00 -2.0248798705805177e+02 1.0000000000000000e+00 5.1187135058265154e+00 1.4186900489942559e+01 1.1695802966191273e+01 
23 1 2 1.0276667295704658e+00 -3.9282867863042128e+02 1.0000000000000000e+00 5.1187135058265154e+00 1.4186900489942559e+01 1.1695802966191273e+01 
29 1 2 1.0276667295704658e+00 -3.6018391884542518e+02 1.0000000000000000e+00 5.1187135058265154e+00 1.4186900489942559e+01 1.1695802966191273e+01 
22 1 2 1.0276667295704658e+00 -3.1384644309322482e+02 1.0000000000000000e+00 5.1187135058265154e+00 1.4186900489942559e+01 1.1695802966191273e+01 
59 1 2 1.0276667295704658e+00 -3.2772022494974601e+02 1.0000000000000000e+00 5.1187135058265154e+00 1.4186900489942559e+01 1.1695802966191273e+01 
30 1 2 1.0276667295704658e+00 -2.6756740260826393e+02 1.0000000000000000e+00 5.1187135058265154e+00 1.4186900489942559e+01 1.1695802966191273e+01 
36 1 2 4.3521309693160926e-01 -3.2282710997996787e+02 1.0000000000000000e+00 5.8033463325094434e+00 1.7216307734540987e+01 1.6292887059291751e+01 
72 1 2 4.3521309693160926e-01 -3.5475947602245066e+02 1.0000000000000000e+00 5.8033463325094718e+00 1.7216307734540898e+01 1.6292887059291832e+01 
35 1 2 4.3521309693160926e-01 -3.4349421433055704e+02 1.0000000000000000e+00 5.8033463325094568e+00 1.7216307734540845e+01 1.6292887059291914e+01 
79 1 2 1.0279999999999923e+00 -2.2028924753843131e+02 1.0000000000000000e+00 1.0405105782738348e+01 5.3768739683818625e+00 3.2916249003535309e+00 
85 1 2 1.0279999999999989e+00 -2.2438689197342256e+02 1.0000000000000000e+00 1.0405091968324308e+01 5.3769776464738568e+00 3.2916387405497813e+00 
43 1 2 1.0280000000000020e+00 -3.4270774660513416e+02 1.0000000000000000e+00 1.0356059005741479e+01 5.3654608444630414e+00 3.2699199851005982e+00 
86 1 2 1.0280000000000031e+00 -3.3421528834421315e+02 1.0000000000000000e+00 1.0388887892432429e+01 5.3884462799197603e+00 3.2869385224202623e+00 
38 1 2 5.8028412924214567e-01 -3.0859622645563320e+02 1.0000000000000000e+00 6.9671421492469845e+00 9.9470180306293188e-01 5.6802496888414140e+00 
39 1 2 5.8028412924214567e-01 -2.4953098378472575e+02 1.0000000000000000e+00 6.9671421492469845e+00 9.9470180306293188e-01 5.6802496888413936e+00 
3 1 2 5.8028412924214567e-01 -3.3946638452666861e+02 1.0000000000000000e+00 6.9671421492470369e+00 9.9470180306293843e-01 5.6802496888413883e+00 
2 1 2 5.8028412924214567e-01 -3.1744654234980396e+02 1.0000000000000000e+00 6.9671421492470369e+00 9.9470180306293843e-01 5.6802496888413678e+00 
44 1 2 1.0280000000000116e+00 -3.5825023274388246e+02 1.0000000000000000e+00 9.5501440997459408e+00 4.6157498194786699e+00 4.2629169880210718e+00 
45 1 2 1.0279999999999947e+00 -3.6085000061641114e+02 1.0000000000000000e+00 9.8884498221874626e+00 5.0321919158059556e+00 4.9252453850164368e+00 
50 1 2 1.0280000000000031e+00 -3.7599404051086378e+02 1.0000000000000000e+00 9.7673971983296166e+00 5.9138474825799250e+00 3.9465823905285529e+00 
80 1 2 1.0280000000000014e+00 -3.7984490336998010e+02 1.0000000000000000e+00 9.8815352632913047e+00 4.6173243303757481e+00 4.6789745739836324e+00 
81 1 2 1.0279999999999829e+00 -2.7463823130868013e+02 1.0000000000000000e+00 1.0071383909797262e+01 5.1531901086549068e+00 4.9492945100919545e+00 
87 1 2 1.0280000000000038e+00 -2.4921194691590645e+02 1.0000000000000000e+00 1.0077738476339700e+01 5.1947077094267868e+00 4.9478632638739839e+00 
76 1 2 2.9014206462107284e-01 -1.5780781476512269e+02 1.0000000000000000e+00 1.3180254098826904e+01 1.0441335285824480e+00 9.8194085705121257e+00 
112 1 2 2.9014206462107284e-01 -1.5052968952760730e+02 1.0000000000000000e+00 1.3180254098826879e+01 1.0441335285824449e+00 9.8194085705121132e+00 
52 1 2 1.0279641580386738e+00 -2.1380035750405253e+02 1.0000000000000000e+00 7.6723273349923495e+00 9.9274359936442540e+00 8.7662758538233501e+00 
53 1 2 1.0279641580386738e+00 -2.4070995071226915e+02 1.0000000000000000e+00 7.6723273349923495e+00 9.9274359936442540e+00 8.7662758538233501e+00 
16 1 2 1.0279641580386738e+00 -2.7417459696243736e+02 1.0000000000000000e+00 7.6723273349923495e+00 9.9274359936442540e+00 8.7662758538233501e+00 
58 1 2 1.0279641580386738e+00 -2.5543935110921024e+02 1.0000000000000000e+00 7.6723273349923495e+00 9.9274359936442540e+00 8.7662758538233501e+00 
51 1 2 1.0279641580386738e+00 -2.7304571522951227e+02 1.0000000000000000e+00 7.6723273349923495e+00 9.9274359936442540e+00 8.7662758538233501e+00 
57 1 2 1.0279641580386738e+00 -2.3494586093282857e+02 1.0000000000000000e+00 7.6723273349923495e+00 9.9274359936442540e+00 8.7662758538233501e+00 
82 1 2 1.0279999999999956e+00 -2.7192033463432369e+02 1.0000000000000000e+00 1.2479274357288645e+01 5.8339159966160192e+00 1.1380028552479020e+01 
83 1 2 1.0280000000000107e+00 -2.6882699748358783e+02 1.0000000000000000e+00 1.2482436128172635e+01 5.8342313168894346e+00 1.1382220514675923e+01 
119 1 2 1.0279999999999985e+00 -2.8225128424099819e+02 1.0000000000000000e+00 1.2485750591247847e+01 5.8342168257150542e+00 1.1383887332118352e+01 
118 1 2 1.0280000000000062e+00 -3.0699358140683984e+02 1.0000000000000000e+00 1.2516347039508039e+01 5.8210576187170071e+00 1.1375270728193353e+01 
89 1 2 1.0279999999999934e+00 -3.7376150111285216e+02 1.0000000000000000e+00 1.2446884966292139e+01 6.8561273353917329e+00 1.1459996393521333e+01 
88 1 2 1.0280000000000107e+00 -4.1380316163393013e+02 1.0000000000000000e+00 1.2883282973134692e+01 6.9286628388000340e+00 1.0555720362033254e+01 
130 1 2 1.0280000000000067e+00 -3.5537337601387162e+02 1.0000000000000000e+00 1.2894133266432886e+01 6.9191821986858306e+00 1.0550863453441975e+01 
124 1 2 1.0280000000000142e+00 -3.3696774028496208e+02 1.0000000000000000e+00 1.2925795939513289e+01 6.8842517908475376e+00 1.0533238468159141e+01 
123 1 2 1.0280000000000049e+00 -3.3909507046569098e+02 1.0000000000000000e+00 1.2913765822790351e+01 6.8864210339518852e+00 1.0528951320236594e+01 
41 1 2 1.0280000000000067e+00 -3.1469777822377483e+02 1.0000000000000000e+00 8.2156189649345812e+00 2.1176302452876925e+00 1.5148500191537158e+01 
42 1 2 1.0279999999999967e+00 -3.1175328982589701e+02 1.0000000000000000e+00 8.2155855318037343e+00 2.1176181647199095e+00 1.5148484032093636e+01 
78 1 2 1.0280000000000058e+00 -3.2624962853868362e+02 1.0000000000000000e+00 8.2154937543747621e+00 2.1175734706326348e+00 1.5148451124119759e+01 
77 1 2 1.0279999999999834e+00 -2.8606126239583398e+02 1.0000000000000000e+00 8.2155024541186279e+00 2.1175623274879247e+00 1.5148469490199012e+01 
84 1 2 1.0280000000000136e+00 -3.2371054151284039e+02 1.0000000000000000e+00 8.2154409174546466e+00 2.1175487867331344e+00 1.5148431153781294e+01 
6 1 2 1.0280000000000042e+00 -3.2637814874679515e+02 1.0000000000000000e+00 6.9567366646300037e+00 2.8152124993837320e+00 1.6369549885785318e+01 
5 1 2 1.0279999999999900e+00 -2.9009478288291746e+02 1.0000000000000000e+00 6.9316029220826563e+00 2.7173283917886657e+00 1.6301256350986275e+01 
47 1 2 1.0279999999999911e+00 -3.5152628723712405e+02 1.0000000000000000e+00 7.4057101676578085e+00 3.6205801834103832e+00 1.5784775499023691e+01 
11 1 2 1.0280000000000056e+00 -3.7443124343834796e+02 1.0000000000000000e+00 7.3553054007077137e+00 3.4833600494193253e+00 1.6383146287471497e+01 
48 1 2 1.0280000000000074e+00 -2.6928624367587128e+02 1.0000000000000000e+00 7.5121220699064759e+00 3.4443564563824007e+00 1.6465706059259265e+01 
12 1 2 1.0280000000000018e+00 -2.6141164085685989e+02 1.0000000000000000e+00 7.4833734940398271e+00 3.4438171176347927e+00 1.6463650423774837e+01 
114 1 2 4.3521309693160926e-01 -2.9934673842254625e+02 1.0000000000000000e+00 1.2852569842140495e+01 4.9237005495806624e-01 1.9705726492120636e+01 
109 1 2 4.3521309693160926e-01 -3.3110779370782149e+02 1.0000000000000000e+00 1.2852569842140433e+01 4.9237005495806724e-01 1.9705726492120682e+01 
73 1 2 4.3521309693160926e-01 -2.4566864783657985e+02 1.0000000000000000e+00 1.2852569842140433e+01 4.9237005495806724e-01 1.9705726492120746e+01 
61 1 2 5.8028412924214567e-01 -2.3327624636685940e+02 1.0000000000000000e+00 1.0380850927254130e+01 1.5896845728312314e+01 1.7415238394144061e+00 
97 1 2 5.8028412924214567e-01 -2.4290214402415305e+02 1.0000000000000000e+00 1.0380850927254130e+01 1.5896845728312314e+01 1.7415238394144061e+00 
104 1 2 5.8028412924214567e-01 -3.0260394559943774e+02 1.0000000000000000e+00 1.0380850927254116e+01 1.5896845728312300e+01 1.7415238394144044e+00 
103 1 2 5.8028412924214567e-01 -2.7331191539556761e+02 1.0000000000000000e+00 1.0380850927254116e+01 1.5896845728312300e+01 1.7415238394144044e+00 
62 1 2 5.8028412924214567e-01 -2.6338953291553725e+02 1.0000000000000000e+00 1.0169153195117559e+01 1.2230365372300058e+01 4.4316210056358480e+00 
56 1 2 5.8028412924214567e-01 -2.6779223227696633e+02 1.0000000000000000e+00 1.0169153195117559e+01 1.2230365372300058e+01 4.4316210056358480e+00 
92 1 2 5.8028412924214567e-01 -2.2815111827835554e+02 1.0000000000000000e+00 1.0169153195117545e+01 1.2230365372300044e+01 4.4316210056358551e+00 
98 1 2 5.8028412924214567e-01 -2.6156476392467471e+02 1.0000000000000000e+00 1.0169153195117545e+01 1.2230365372300044e+01 4.4316210056358551e+00 
75 1 2 4.3521309693160926e-01 -2.3670585473616455e+02 1.0000000000000000e+00 1.1262489559069687e+01 1.9600603355419910e+01 6.3660249332583962e+00 
105 1 2 4.3521309693160926e-01 -2.5437605691987264e+02 1.0000000000000000e+00 1.1262489559069728e+01 1.9600603355419860e+01 6.3660249332584042e+00 
74 1 2 4.3521309693160926e-01 -2.3117569754743261e+02 1.0000000000000000e+00 1.1262489559069769e+01 1.9600603355419874e+01 6.3660249332584193e+00 
28 1 2 1.0279889002428513e+00 -3.4622333657321167e+02 1.0000000000000000e+00 7.4352223193495091e+00 1.1343408290495301e+01 8.4161615730054713e+00 
34 1 2 1.0279949200841210e+00 -3.0747156153692015e+02 1.0000000000000000e+00 6.7160935378492592e+00 1.2311184883160788e+01 9.5914598225602354e+00 
70 1 2 1.0279949200841210e+00 -2.8304805078282777e+02 1.0000000000000000e+00 6.7160935378492592e+00 1.2311184883160788e+01 9.5914598225602354e+00 
69 1 2 1.0279949200841210e+00 -2.8792610407192774e+02 1.0000000000000000e+00 6.7160935378492592e+00 1.2311184883160788e+01 9.5914598225602354e+00 
27 1 2 1.0279949200849177e+00 -2.7046394776204033e+02 1.0000000000000000e+00 6.7160935412590970e+00 1.2311184887689056e+01 9.5914598137688447e+00 
63 1 2 1.0279949200850591e+00 -4.0430487344098339e+02 1.0000000000000000e+00 6.7160935418462513e+00 1.2311184888535571e+01 9.5914598120741967e+00 
33 1 2 1.0279949200850591e+00 -3.1669850844618321e+02 1.0000000000000000e+00 6.7160935418462513e+00 1.2311184888535571e+01 9.5914598120741967e+00 
135 1 2 8.7042619386321851e-01 -2.4818371142653399e+02 1.0000000000000000e+00 1.2257890586704811e+01 1.1931327351869664e+01 8.5261260673295922e+00 
129 1 2 8.7042619386321851e-01 -2.3667761844669070e+02 1.0000000000000000e+00 1.2257890586704811e+01 1.1931327351869664e+01 8.5261260673295922e+00 
94 1 2 8.7042619386321851e-01 -2.4502743176005623e+02 1.0000000000000000e+00 1.2257890586704788e+01 1.1931327351869596e+01 8.5261260673296153e+00 
100 1 2 8.7042619386321851e-01 -1.9436702391412973e+02 1.0000000000000000e+00 1.2257890586704788e+01 1.1931327351869596e+01 8.5261260673296153e+00 
99 1 2 8.7042619386321851e-01 -2.7823112115852501e+02 1.0000000000000000e+00 1.2257890586704811e+01 1.1931327351869664e+01 8.5261260673295922e+00 
93 1 2 8.7042619386321851e-01 -3.1956284420515630e+02 1.0000000000000000e+00 1.2257890586704788e+01 1.1931327351869596e+01 8.5261260673296153e+00 
71 1 2 4.3521309693160926e-01 -3.5103656977617641e+02 1.0000000000000000e+00 1.1440437311551293e+01 1.6674988072844933e+01 1.2177961638460138e+01 
106 1 2 4.3521309693160926e-01 -2.6305587405351031e+02 1.0000000000000000e+00 1.1440437311551296e+01 1.6674988072844851e+01 1.2177961638460106e+01 
107 1 2 4.3521309693160926e-01 -3.7310877381508709e+02 1.0000000000000000e+00 1.1440437311551317e+01 1.6674988072844769e+01 1.2177961638460085e+01 
91 1 2 8.7042619386321851e-01 -2.1810647952117534e+02 1.0000000000000000e+00 1.0226961823845429e+01 1.2068605711246747e+01 1.7404234811275856e+01 
102 1 2 8.7042619386321851e-01 -3.1676183863181899e+02 1.0000000000000000e+00 1.0226961823845418e+01 1.2068605711246738e+01 1.7404234811275920e+01 
101 1 2 8.7042619386321851e-01 -2.7822898317115312e+02 1.0000000000000000e+00 1.0226961823845347e+01 1.2068605711246738e+01 1.7404234811275792e+01 
60 1 2 8.7042619386321851e-01 -3.0413355242760827e+02 1.0000000000000000e+00 1.0226961823845359e+01 1.2068605711246747e+01 1.7404234811275899e+01 
66 1 2 8.7042619386321851e-01 -3.2741427410294938e+02 1.0000000000000000e+00 1.0226961823845359e+01 1.2068605711246702e+01 1.7404234811275749e+01 
96 1 2 8.7042619386321851e-01 -3.3395418158046562e+02 1.0000000000000000e+00 1.0226961823845388e+01 1.2068605711246747e+01 1.7404234811275856e+01 
164 1 2 1.0280000000000027e+00 -3.6005556609062802e+02 1.0000000000000000e+00 1.5251533058097428e+01 4.3640842440642658e+00 2.4600548641641011e+00 
122 1 2 1.0280000000000080e+00 -2.6601060903160584e+02 1.0000000000000000e+00 1.5243230338171042e+01 4.3672763862473882e+00 2.4606423254567642e+00 
128 1 2 1.0280000000000045e+00 -1.6769340456681280e+02 1.0000000000000000e+00 1.5240660235896048e+01 4.3684212099287736e+00 2.4605655283515717e+00 
163 1 2 1.0279999999999978e+00 -3.2850792726414005e+02 1.0000000000000000e+00 1.5063155019167599e+01 4.4625274504472570e+00 2.5064307897540004e+00 
127 1 2 1.0280000000000116e+00 -2.7367587650944665e+02 1.0000000000000000e+00 1.5059265399098239e+01 4.4873832658347261e+00 2.4681666656501395e+00 
121 1 2 1.0280000000000054e+00 -3.1477362662175705e+02 1.0000000000000000e+00 1.6200373376436982e+01 6.0789070274015495e+00 3.0380641867263840e+00 
115 1 2 1.0280000000000014e+00 -2.6614219790775951e+02 1.0000000000000000e+00 1.6198013533630949e+01 6.0810427499706705e+00 3.0344348947712589e+00 
116 1 2 1.0280000000000014e+00 -2.6509227972861413e+02 1.0000000000000000e+00 1.6198013533630949e+01 6.0810427499706705e+00 3.0344348947712589e+00 
151 1 2 1.0280000000000014e+00 -2.9815110727967033e+02 1.0000000000000000e+00 1.6198013533630949e+01 6.0810427499706705e+00 3.0344348947712589e+00 
157 1 2 1.0280000000000002e+00 -3.1793479888766893e+02 1.0000000000000000e+00 1.6198060617995207e+01 6.0810071357016025e+00 3.0344710039481195e+00 
158 1 2 1.0280000000000127e+00 -3.5018980587678277e+02 1.0000000000000000e+00 1.5514383790270681e+01 5.0080539825264374e+00 3.6114653184305396e+00 
111 1 2 1.0154972261737549e+00 -3.6390905264982183e+02 1.0000000000000000e+00 1.8128713051703457e+01 3.3477650153796965e+00 6.6798844005797511e+00 
147 1 2 1.0154972261737549e+00 -3.7545412655735151e+02 1.0000000000000000e+00 1.8128713051703290e+01 3.3477650153796965e+00 6.6798844005798967e+00 
148 1 2 1.0154972261737549e+00 -2.9119761760709559e+02 1.0000000000000000e+00 1.8128713051702448e+01 3.3477650153798435e+00 6.6798844005799189e+00 
117 1 2 1.0154972261737549e+00 -4.1461461457775420e+02 1.0000000000000000e+00 1.8128713051702881e+01 3.3477650153798826e+00 6.6798844005801197e+00 
152 1 2 1.0154972261737549e+00 -4.0297318627731806e+02 1.0000000000000000e+00 1.8128713051702196e+01 3.3477650153799337e+00 6.6798844005794988e+00 
153 1 2 1.0154972261737549e+00 -4.4630557709771256e+02 1.0000000000000000e+00 1.8128713051702881e+01 3.3477650153798826e+00 6.6798844005797511e+00 
159 1 2 1.0154972261737549e+00 -3.2777278266738188e+02 1.0000000000000000e+00 1.8128713051702881e+01 3.3477650153797383e+00 6.6798844005799189e+00 
154 1 2 5.8028412924214567e-01 -2.8811080154446887e+02 1.0000000000000000e+00 1.7880514755336094e+01 6.1454287395771825e+00 1.2461572633658639e+01 
155 1 2 5.8028412924214567e-01 -3.3848600736624883e+02 1.0000000000000000e+00 1.7880514755336009e+01 6.1454287395771825e+00 1.2461572633658534e+01 
160 1 2 5.8028412924214567e-01 -2.9935245419370972e+02 1.0000000000000000e+00 1.7880514755336190e+01 6.1454287395771301e+00 1.2461572633658639e+01 
161 1 2 5.8028412924214567e-01 -2.4415194014745100e+02 1.0000000000000000e+00 1.7880514755336094e+01 6.1454287395771301e+00 1.2461572633658534e+01 
113 1 2 4.3521309693160926e-01 -2.5365231184192126e+02 1.0000000000000000e+00 1.7004357720818529e+01 1.0020635485692311e+00 1.5094020309094015e+01 
149 1 2 4.3521309693160926e-01 -2.4489682153823435e+02 1.0000000000000000e+00 1.7004357720818600e+01 1.0020635485692364e+00 1.5094020309093990e+01 
150 1 2 4.3521309693160926e-01 -2.3380473487297184e+02 1.0000000000000000e+00 1.7004357720818600e+01 1.0020635485692315e+00 1.5094020309094040e+01 
120 1 2 7.2535516155268209e-01 -1.9136701884141794e+02 1.0000000000000000e+00 1.3779905936494959e+01 7.6653993818045425e+00 1.6495896969185818e+01 
125 1 2 7.2535516155268209e-01 -3.7258832398902558e+02 1.0000000000000000e+00 1.3779905936494924e+01 7.6653993818045389e+00 1.6495896969185907e+01 
126 1 2 7.2535516155268209e-01 -2.7813706821761787e+02 1.0000000000000000e+00 1.3779905936494959e+01 7.6653993818045540e+00 1.6495896969185825e+01 
132 1 2 7.2535516155268209e-01 -3.5875460036622945e+02 1.0000000000000000e+00 1.3779905936494904e+01 7.6653993818045381e+00 1.6495896969185864e+01 
90 1 2 7.2535516155268209e-01 -3.7891812858189076e+02 1.0000000000000000e+00 1.3779905936494893e+01 7.6653993818045265e+00 1.6495896969185818e+01 
162 1 2 2.9014206462107284e-01 -2.0096363440942952e+02 1.0000000000000000e+00 1.7438968614300546e+01 5.4642096982868544e+00 1.6691114598168380e+01 
156 1 2 2.9014206462107284e-01 -1.7853307225303740e+02 1.0000000000000000e+00 1.7438968614300595e+01 5.4642096982868482e+00 1.6691114598168355e+01 
169 1 2 2.9014206462107284e-01 -2.3502951031147632e+02 1.0000000000000000e+00 1.5662735610981031e+01 1.3327337959206270e+01 2.2117817546555607e-01 
133 1 2 2.9014206462107284e-01 -2.3882921837364265e+02 1.0000000000000000e+00 1.5662735610981056e+01 1.3327337959206282e+01 2.2117817546555568e-01 
134 1 2 4.3521309693160926e-01 -3.0633336848202111e+02 1.0000000000000000e+00 1.6188928493543031e+01 1.4676863507141325e+01 4.3245543844116296e+00 
140 1 2 4.3521309693160926e-01 -2.8335041369695210e+02 1.0000000000000000e+00 1.6188928493542971e+01 1.4676863507141285e+01 4.3245543844115995e+00 
170 1 2 4.3521309693160926e-01 -2.8241145232934673e+02 1.0000000000000000e+00 1.6188928493542949e+01 1.4676863507141366e+01 4.3245543844115852e+00 
139 1 2 8.7042619386321851e-01 -2.8345498805479446e+02 1.0000000000000000e+00 1.6798879997916679e+01 1.9155368188266024e+01 3.3458936984029464e+00 
175 1 2 8.7042619386321851e-01 -3.0557518274884779e+02 1.0000000000000000e+00 1.6798879997916579e+01 1.9155368188265903e+01 3.3458936984029464e+00 
176 1 2 8.7042619386321851e-01 -3.6756611763041320e+02 1.0000000000000000e+00 1.6798879997916647e+01 1.9155368188265886e+01 3.3458936984029464e+00 
145 1 2 8.7042619386321851e-01 -3.5972493047544327e+02 1.0000000000000000e+00 1.6798879997916654e+01 1.9155368188265999e+01 3.3458936984029619e+00 
110 1 2 8.7042619386321851e-01 -3.5455418315450777e+02 1.0000000000000000e+00 1.6798879997916679e+01 1.9155368188265982e+01 3.3458936984029424e+00 
146 1 2 8.7042619386321851e-01 -3.1698994049371555e+02 1.0000000000000000e+00 1.6798879997916462e+01 1.9155368188265971e+01 3.3458936984029455e+00 
165 1 2 5.8028412924214567e-01 -2.6947760451216993e+02 1.0000000000000000e+00 1.8415385317540380e+01 1.1974787637115224e+01 9.4617995141090692e+00 
171 1 2 5.8028412924214567e-01 -2.6558002475819336e+02 1.0000000000000000e+00 1.8415385317540348e+01 1.1974787637115272e+01 9.4617995141090692e+00 
172 1 2 5.8028412924214567e-01 -2.2407962115056804e+02 1.0000000000000000e+00 1.8415385317540370e+01 1.1974787637115272e+01 9.4617995141090052e+00 
166 1 2 5.8028412924214567e-01 -2.4536425778254926e+02 1.0000000000000000e+00 1.8415385317540427e+01 1.1974787637115224e+01 9.4617995141090052e+00 
131 1 2 5.8028412924214567e-01 -2.6028682385298566e+02 1.0000000000000000e+00 1.4358116977788924e+01 1.2953457533120247e+01 1.3124414107974564e+01 
137 1 2 5.8028412924214567e-01 -2.6520231091331635e+02 1.0000000000000000e+00 1.4358116977788910e+01 1.2953457533120233e+01 1.3124414107974550e+01 
173 1 2 5.8028412924214567e-01 -2.7506439989139938e+02 1.0000000000000000e+00 1.4358116977788910e+01 1.2953457533120233e+01 1.3124414107974502e+01 
95 1 2 5.8028412924214567e-01 -2.4946119213648768e+02 1.0000000000000000e+00 1.4358116977788924e+01 1.2953457533120247e+01 1.3124414107974550e+01 
136 1 2 7.2535516155268209e-01 -3.0531408688607462e+02 1.0000000000000000e+00 1.5758286098798200e+01 1.5955482637213787e+01 1.0230273218871746e+01 
178 1 2 7.2535516155268209e-01 -3.7533706284932305e+02 1.0000000000000000e+00 1.5758286098798266e+01 1.5955482637213789e+01 1.0230273218871753e+01 
142 1 2 7.2535516155268209e-01 -3.7756180284853338e+02 1.0000000000000000e+00 1.5758286098798209e+01 1.5955482637213823e+01 1.0230273218871764e+01 
177 1 2 7.2535516155268209e-01 -2.9136329232572581e+02 1.0000000000000000e+00 1.5758286098798173e+01 1.5955482637213789e+01 1.0230273218871755e+01 
141 1 2 7.2535516155268209e-01 -2.7700474156390646e+02 1.0000000000000000e+00 1.5758286098798234e+01 1.5955482637213787e+01 1.0230273218871817e+01 
167 1 2 2.9014206462107284e-01 -1.1923277157682105e+02 1.0000000000000000e+00 1.7699063802780380e+01 1.0389960936133875e+01 1.5503864230316085e+01 
168 1 2 2.9014206462107284e-01 -1.3239108255829015e+02 1.0000000000000000e+00 1.7699063802780355e+01 1.0389960936133900e+01 1.5503864230316097e+01 
138 1 2 1.0154972261737549e+00 -3.4188894525301816e+02 1.0000000000000000e+00 1.6147016479378181e+01 1.5031014300848577e+01 1.6528753972533877e+01 
143 1 2 1.0154972261737549e+00 -3.2730453620551316e+02 1.0000000000000000e+00 1.6147016479378188e+01 1.5031014300847968e+01 1.6528753972533863e+01 
174 1 2 1.0154972261737549e+00 -3.8680283637270992e+02 1.0000000000000000e+00 1.6147016479378195e+01 1.5031014300848762e+01 1.6528753972533863e+01 
144 1 2 1.0154972261737549e+00 -2.6152648650381838e+02 1.0000000000000000e+00 1.6147016479378195e+01 1.5031014300848762e+01 1.6528753972533874e+01 
179 1 2 1.0154972261737549e+00 -4.1440266247953372e+02 1.0000000000000000e+00 1.6147016479378195e+01 1.5031014300848762e+01 1.6528753972533888e+01 
108 1 2 1.0154972261737549e+00 -2.4130991103980631e+02 1.0000000000000000e+00 1.6147016479378195e+01 1.5031014300848762e+01 1.6528753972533885e+01 
180 1 2 1.0154972261737549e+00 -4.0817153695125302e+02 1.0000000000000000e+00 1.6147016479378195e+01 1.5031014300847968e+01 1.6528753972533881e+01 

Velocities

1 5.3067350986645919e-13 -6.1911909484458348e-13 6.6334188745926788e-14
7 -2.6533675493340009e-13 3.0955954742194333e-13 -1.9071079259557699e-13
37 -2.6533675493340024e-13 3.0955954742194348e-13 1.2437660388758583e-13
13 -1.3123292034156736e-12 -1.5091785837242968e-12 -1.3123292034534388e-13
19 3.9369876102607105e-13 4.2650699113094194e-12 3.2808230081744977e-14
55 -1.4435621237573483e-12 3.2808230105913376e-13 3.2808230081744958e-14
49 2.3621925661512046e-12 -3.0839736278244146e-12 6.5616460167162727e-14
8 -3.6485108055614695e-13 -9.3135184320164768e-14 -1.2262799020235928e-12
9 -3.6485108055614695e-13 -9.3135184320164718e-14 -5.7433362468248281e-13
21 -4.0887058918006181e-12 -9.3135184320164831e-14 2.6853977598930084e-12
15 2.8709519643537260e-13 9.3135184317148454e-14 -2.9492807774961685e-13
14 3.0334603014714203e-12 9.3135184317148492e-14 -2.9492807774961716e-13
20 1.4978525548019434e-12 9.3135184317148467e-14 -2.9492807774961711e-13
4 -5.9054814153567474e-13 4.1010287599216668e-13 -1.5747950441567944e-12
10 7.2178106188105604e-13 4.7571933616305473e-13 -1.5747950441567944e-12
40 1.3779456635883398e-12 -5.7414402657031759e-13 -1.5747950441567944e-12
46 -1.5091785839273839e-12 -3.1167818588698044e-13 4.7243851322435550e-12
24 2.8871242474525527e-12 1.0498633627110474e-12 2.0997267254220949e-12
54 -2.8871242475811853e-12 1.0498633627110474e-12 2.0997267254220949e-12
17 2.4934254864275216e-12 -1.0498633627045221e-12 -2.0997267254090442e-12
18 -2.4934254865561760e-12 -1.0498633627045221e-12 -2.0997267254090442e-12
25 2.8275941730053391e-13 -4.4300888174282663e-13 1.0322299689468612e-12
31 2.8275941730053391e-13 -4.4300888174282663e-13 1.0322299689468612e-12
67 2.8275941730053472e-13 4.4300888169896006e-13 -1.7842352884285606e-13
26 1.3072448594493250e-12 -4.4300888174282613e-13 1.4690093813542864e-13
68 2.8275941730053472e-13 4.4300888169896223e-13 -1.0164686737341372e-12
32 -2.4382825290805234e-12 4.4300888169896365e-13 -1.0164686737341381e-12
65 -3.6024798926882974e-03 -6.0345562385004138e-03 8.7295982820188786e-03
64 -3.6024798926882974e-03 -6.0345562385004138e-03 8.7295982820188786e-03
23 -3.6024798926882974e-03 -6.0345562385004138e-03 8.7295982820188786e-03
29 -3.6024798926882974e-03 -6.0345562385004138e-03 8.7295982820188786e-03
22 -3.6024798926882974e-03 -6.0345562385004138e-03 8.7295982820188786e-03
59 -3.6024798926882974e-03 -6.0345562385004138e-03 8.7295982820188786e-03
30 -3.6024798926882974e-03 -6.0345562385004138e-03 8.7295982820188786e-03
36 2.0784712468148381e-12 -1.1497926047356760e-11 1.2205490726950055e-11
72 -2.1669168321178189e-12 1.7689116993079240e-12 1.8736281963140833e-23
35 8.8445584815167679e-14 9.7290143473067642e-12 -1.2205490726912532e-11
79 -5.1367244746878630e-13 -2.5078947234310722e-13 1.5534762027036295e-12
85 4.0232067148230886e-13 1.0687487920341520e-13 -4.1002558718643857e-13
43 5.0355983881188930e-13 1.6225619042857192e-13 -8.5237183524107565e-13
86 6.1006434723061639e-13 2.2395574132069108e-13 -9.3635611184294620e-13
38 3.8713693905491941e-12 4.8392117381864926e-13 -3.4120559288834570e-12