LAMMPS data file via write_data, version 30 Jul 2016, timestep = 50000000

180 atoms
2 atom types

0.0000000000000000e+00 2.0000000000000000e+01 xlo xhi
0.0000000000000000e+00 2.0000000000000000e+01 ylo yhi
0.0000000000000000e+00 2.0000000000000000e+01 zlo zhi

Masses

1 3.896
2 4.31

Atoms # meso-molecular

1 1 2 4.3521309693160926e-01 -3.0757100075888866e+02 1.0000000000000000e+00 5.9034205385081187e+00 2.1136851067973508e+00 3.5464543274157900e-01 
7 1 2 4.3521309693160926e-01 -3.0937075728462219e+02 1.0000000000000000e+00 5.9034205385081240e+00 2.1136851067973446e+00 3.5464543274158072e-01 
37 1 2 4.3521309693160926e-01 -2.6326235137620682e+02 1.0000000000000000e+00 5.9034205385081240e+00 2.1136851067973446e+00 3.5464543274157861e-01 
13 1 2 5.8028412924214567e-01 -2.5869507062721129e+02 1.0000000000000000e+00 6.4295793283202878e+00 8.6632015146438093e+00 8.2619345120554832e-01 
19 1 2 5.8028412924214567e-01 -3.0583889009523295e+02 1.0000000000000000e+00 6.4295793283202762e+00 8.6632015146437702e+00 8.2619345120554721e-01 
55 1 2 5.8028412924214567e-01 -2.9711715747801014e+02 1.0000000000000000e+00 6.4295793283202887e+00 8.6632015146437968e+00 8.2619345120554721e-01 
49 1 2 5.8028412924214567e-01 -3.3618966576998042e+02 1.0000000000000000e+00 6.4295793283202629e+00 8.6632015146438199e+00 8.2619345120554699e-01 
8 1 2 8.7042619386321851e-01 -2.7667404860856050e+02 1.0000000000000000e+00 4.6053111278191317e+00 7.3745286242976773e+00 5.4756068251738972e+00 
9 1 2 8.7042619386321851e-01 -2.5399122802575027e+02 1.0000000000000000e+00 4.6053111278191317e+00 7.3745286242976773e+00 5.4756068251738910e+00 
21 1 2 8.7042619386321851e-01 -3.5589391575118680e+02 1.0000000000000000e+00 4.6053111278191672e+00 7.3745286242976773e+00 5.4756068251738599e+00 
15 1 2 8.7042619386321851e-01 -3.4567060300248886e+02 1.0000000000000000e+00 4.6053111278191254e+00 7.3745286242976755e+00 5.4756068251738883e+00 
14 1 2 8.7042619386321851e-01 -3.3778158264928032e+02 1.0000000000000000e+00 4.6053111278191992e+00 7.3745286242976755e+00 5.4756068251738883e+00 
20 1 2 8.7042619386321851e-01 -3.5546358242169163e+02 1.0000000000000000e+00 4.6053111278191139e+00 7.3745286242976755e+00 5.4756068251738883e+00 
4 1 2 5.8028412924214567e-01 -2.4660271163818385e+02 1.0000000000000000e+00 6.4611060840776835e+00 2.4955065861535299e+00 1.0197037433196346e+01 
10 1 2 5.8028412924214567e-01 -3.3724632989934406e+02 1.0000000000000000e+00 6.4611060840776746e+00 2.4955065861535295e+00 1.0197037433196346e+01 
40 1 2 5.8028412924214567e-01 -2.8488194629604266e+02 1.0000000000000000e+00 6.4611060840776702e+00 2.4955065861535366e+00 1.0197037433196346e+01 
46 1 2 5.8028412924214567e-01 -2.6310822908199384e+02 1.0000000000000000e+00 6.4611060840776897e+00 2.4955065861535348e+00 1.0197037433196304e+01 
24 1 2 5.8028412924214567e-01 -3.1787568558384777e+02 1.0000000000000000e+00 5.6136939590710702e+00 8.3252093985236684e+00 1.6512122008408941e+01 
54 1 2 5.8028412924214567e-01 -3.0164280399517037e+02 1.0000000000000000e+00 5.6136939590711092e+00 8.3252093985236684e+00 1.6512122008408941e+01 
17 1 2 5.8028412924214567e-01 -2.0215391155406633e+02 1.0000000000000000e+00 5.6136939590710728e+00 8.3252093985236826e+00 1.6512122008408969e+01 
18 1 2 5.8028412924214567e-01 -2.6526253500140740e+02 1.0000000000000000e+00 5.6136939590711066e+00 8.3252093985236826e+00 1.6512122008408969e+01 
25 1 2 8.7042619386321851e-01 -2.9720044496849778e+02 1.0000000000000000e+00 6.0806726798478605e+00 1.5991096717028142e+01 2.9414566082018463e+00 
31 1 2 8.7042619386321851e-01 -4.0933379447153408e+02 1.0000000000000000e+00 6.0806726798478605e+00 1.5991096717028142e+01 2.9414566082018463e+00 
67 1 2 8.7042619386321851e-01 -3.6026245473944073e+02 1.0000000000000000e+00 6.0806726798478605e+00 1.5991096717028661e+01 2.9414566082018578e+00 
26 1 2 8.7042619386321851e-01 -3.8148032667005799e+02 1.0000000000000000e+00 6.0806726798478508e+00 1.5991096717028142e+01 2.9414566082018547e+00 
68 1 2 8.7042619386321851e-01 -4.0660597297517614e+02 1.0000000000000000e+00 6.0806726798478605e+00 1.5991096717028661e+01 2.9414566082018658e+00 
32 1 2 8.7042619386321851e-01 -3.9309074232552007e+02 1.0000000000000000e+00 6.0806726798477015e+00 1.5991096717028661e+01 2.9414566082018658e+00 
65 1 2 1.0286513926601972e+00 -3.4467786618374271e+02 1.0000000000000000e+00 5.2141545964875435e+00 1.4479780765237710e+01 1.1412702614805355e+01 
64 1 2 1.0286513926601972e+00 -2.0248807275842719e+02 1.0000000000000000e+00 5.2141545964875435e+00 1.4479780765237710e+01 1.1412702614805355e+01 
23 1 2 1.0286513926601972e+00 -3.9282876433081969e+02 1.0000000000000000e+00 5.2141545964875435e+00 1.4479780765237710e+01 1.1412702614805355e+01 
29 1 2 1.0286513926601972e+00 -3.6018400454582360e+02 1.0000000000000000e+00 5.2141545964875435e+00 1.4479780765237710e+01 1.1412702614805355e+01 
22 1 2 1.0286513926601972e+00 -3.1384652879362324e+02 1.0000000000000000e+00 5.2141545964875435e+00 1.4479780765237710e+01 1.1412702614805355e+01 
59 1 2 1.0286513926601972e+00 -3.2772031065014443e+02 1.0000000000000000e+00 5.2141545964875435e+00 1.4479780765237710e+01 1.1412702614805355e+01 
30 1 2 1.0286513926601972e+00 -2.6756748830866235e+02 1.0000000000000000e+00 5.2141545964875435e+00 1.4479780765237710e+01 1.1412702614805355e+01 
36 1 2 4.3521309693160926e-01 -3.2282710997996787e+02 1.0000000000000000e+00 5.8033463325094434e+00 1.7216307734540987e+01 1.6292887059291751e+01 
72 1 2 4.3521309693160926e-01 -3.5475947602245066e+02 1.0000000000000000e+00 5.8033463325094718e+00 1.7216307734540898e+01 1.6292887059291832e+01 
35 1 2 4.3521309693160926e-01 -3.4349421433055704e+02 1.0000000000000000e+00 5.8033463325094568e+00 1.7216307734540845e+01 1.6292887059291914e+01 
79 1 2 1.0279999999999623e+00 -2.2028924753843131e+02 1.0000000000000000e+00 1.0405105782738348e+01 5.3768739683818625e+00 3.2916249003534186e+00 
85 1 2 1.0279999999999636e+00 -2.2438689197342256e+02 1.0000000000000000e+00 1.0405091968324308e+01 5.3769776464738568e+00 3.2916387405496526e+00 
43 1 2 1.0279999999999814e+00 -3.4270774660513416e+02 1.0000000000000000e+00 1.0356059005741479e+01 5.3654608444630414e+00 3.2699199851005143e+00 
86 1 2 1.0280000000000109e+00 -3.3421528834421315e+02 1.0000000000000000e+00 1.0388887892432429e+01 5.3884462799197603e+00 3.2869385224202623e+00 
38 1 2 5.8028412924214567e-01 -3.0859622645563320e+02 1.0000000000000000e+00 6.9671421492469845e+00 9.9470180306293188e-01 5.6802496888414140e+00 
39 1 2 5.8028412924214567e-01 -2.4953098378472575e+02 1.0000000000000000e+00 6.9671421492469845e+00 9.9470180306293188e-01 5.6802496888413936e+00 
3 1 2 5.8028412924214567e-01 -3.3946638452666861e+02 1.0000000000000000e+00 6.9671421492470369e+00 9.9470180306293843e-01 5.6802496888413883e+00 
2 1 2 5.8028412924214567e-01 -3.1744654234980396e+02 1.0000000000000000e+00 6.9671421492470369e+00 9.9470180306293843e-01 5.6802496888413678e+00 
44 1 2 1.0280000000000187e+00 -3.5825023274388246e+02 1.0000000000000000e+00 9.5501440997459408e+00 4.6157498194787303e+00 4.2629169880210718e+00 
45 1 2 1.0280000000000038e+00 -3.6085000061641114e+02 1.0000000000000000e+00 9.8884498221874626e+00 5.0321919158059556e+00 4.9252453850163587e+00 
50 1 2 1.0279999999999991e+00 -3.7599404051086378e+02 1.0000000000000000e+00 9.7673971983296166e+00 5.9138474825799250e+00 3.9465823905285529e+00 
80 1 2 1.0279999999999840e+00 -3.7984490336998010e+02 1.0000000000000000e+00 9.8815352632913047e+00 4.6173243303757481e+00 4.6789745739836324e+00 
81 1 2 1.0279999999999496e+00 -2.7463823130868013e+02 1.0000000000000000e+00 1.0071383909797262e+01 5.1531901086549068e+00 4.9492945100919901e+00 
87 1 2 1.0280000000000009e+00 -2.4921194691590645e+02 1.0000000000000000e+00 1.0077738476339700e+01 5.1947077094267868e+00 4.9478632638739395e+00 
76 1 2 2.9014206462107284e-01 -1.5780781476512269e+02 1.0000000000000000e+00 1.3180254098826904e+01 1.0441335285824480e+00 9.8194085705121257e+00 
112 1 2 2.9014206462107284e-01 -1.5052968952760730e+02 1.0000000000000000e+00 1.3180254098826879e+01 1.0441335285824449e+00 9.8194085705121132e+00 
52 1 2 1.0280921579152571e+00 -2.1380036730857864e+02 1.0000000000000000e+00 7.5973148450183103e+00 9.7473955542578210e+00 8.9672919043959372e+00 
53 1 2 1.0280921579152571e+00 -2.4070996051679526e+02 1.0000000000000000e+00 7.5973148450183103e+00 9.7473955542578210e+00 8.9672919043959372e+00 
16 1 2 1.0280921579152571e+00 -2.7417460676698215e+02 1.0000000000000000e+00 7.5973148450183103e+00 9.7473955542578210e+00 8.9672919043959372e+00 
58 1 2 1.0280921579152571e+00 -2.5543936091373635e+02 1.0000000000000000e+00 7.5973148450183103e+00 9.7473955542578210e+00 8.9672919043959372e+00 
51 1 2 1.0280921579152571e+00 -2.7304572503405706e+02 1.0000000000000000e+00 7.5973148450183103e+00 9.7473955542578210e+00 8.9672919043959372e+00 
57 1 2 1.0280921579152571e+00 -2.3494587073735468e+02 1.0000000000000000e+00 7.5973148450183103e+00 9.7473955542578210e+00 8.9672919043959372e+00 
82 1 2 1.0280000000000038e+00 -2.7192033463432369e+02 1.0000000000000000e+00 1.2479274357288645e+01 5.8339159966160192e+00 1.1380028552479020e+01 
83 1 2 1.0279999999999851e+00 -2.6882699748358783e+02 1.0000000000000000e+00 1.2482436128172635e+01 5.8342313168893076e+00 1.1382220514675923e+01 
119 1 2 1.0280000000000069e+00 -2.8225128424099819e+02 1.0000000000000000e+00 1.2485750591247847e+01 5.8342168257150542e+00 1.1383887332118352e+01 
118 1 2 1.0280000000000149e+00 -3.0699358140683984e+02 1.0000000000000000e+00 1.2516347039508039e+01 5.8210576187170071e+00 1.1375270728193353e+01 
89 1 2 1.0279999999999858e+00 -3.7376150111285216e+02 1.0000000000000000e+00 1.2446884966292139e+01 6.8561273353917329e+00 1.1459996393521333e+01 
88 1 2 1.0280000000000036e+00 -4.1380316163393013e+02 1.0000000000000000e+00 1.2883282973134692e+01 6.9286628388000340e+00 1.0555720362033254e+01 
130 1 2 1.0279999999999998e+00 -3.5537337601387162e+02 1.0000000000000000e+00 1.2894133266432886e+01 6.9191821986858306e+00 1.0550863453441975e+01 
124 1 2 1.0280000000000078e+00 -3.3696774028496208e+02 1.0000000000000000e+00 1.2925795939513289e+01 6.8842517908475376e+00 1.0533238468159141e+01 
123 1 2 1.0280000000000313e+00 -3.3909507046569098e+02 1.0000000000000000e+00 1.2913765822790351e+01 6.8864210339517200e+00 1.0528951320236594e+01 
41 1 2 1.0279999999999880e+00 -3.1469777822377483e+02 1.0000000000000000e+00 8.2156189649345812e+00 2.1176302452876925e+00 1.5148500191537158e+01 
42 1 2 1.0279999999999201e+00 -3.1175328982589701e+02 1.0000000000000000e+00 8.2155855318037343e+00 2.1176181647196466e+00 1.5148484032093636e+01 
78 1 2 1.0280000000000238e+00 -3.2624962853868362e+02 1.0000000000000000e+00 8.2154937543747621e+00 2.1175734706327991e+00 1.5148451124119759e+01 
77 1 2 1.0279999999999547e+00 -2.8606126239583398e+02 1.0000000000000000e+00 8.2155024541186279e+00 2.1175623274878790e+00 1.5148469490199012e+01 
84 1 2 1.0279999999999951e+00 -3.2371054151284039e+02 1.0000000000000000e+00 8.2154409174546466e+00 2.1175487867331344e+00 1.5148431153781294e+01 
6 1 2 1.0279999999999894e+00 -3.2637814874679515e+02 1.0000000000000000e+00 6.9567366646300037e+00 2.8152124993837320e+00 1.6369549885785318e+01 
5 1 2 1.0280000000000220e+00 -2.9009478288291746e+02 1.0000000000000000e+00 6.9316029220827158e+00 2.7173283917890059e+00 1.6301256350986275e+01 
47 1 2 1.0280000000000058e+00 -3.5152628723712405e+02 1.0000000000000000e+00 7.4057101676578085e+00 3.6205801834103832e+00 1.5784775499023691e+01 
11 1 2 1.0279999999999807e+00 -3.7443124343834796e+02 1.0000000000000000e+00 7.3553054007077137e+00 3.4833600494194550e+00 1.6383146287471497e+01 
48 1 2 1.0279999999999423e+00 -2.6928624367587128e+02 1.0000000000000000e+00 7.5121220699064759e+00 3.4443564563826792e+00 1.6465706059259265e+01 
12 1 2 1.0280000000000311e+00 -2.6141164085685989e+02 1.0000000000000000e+00 7.4833734940398271e+00 3.4438171176347261e+00 1.6463650423774837e+01 
114 1 2 4.3521309693160926e-01 -2.9934673842254625e+02 1.0000000000000000e+00 1.2852569842140495e+01 4.9237005495806624e-01 1.9705726492120636e+01 
109 1 2 4.3521309693160926e-01 -3.3110779370782149e+02 1.0000000000000000e+00 1.2852569842140433e+01 4.9237005495806724e-01 1.9705726492120682e+01 
73 1 2 4.3521309693160926e-01 -2.4566864783657985e+02 1.0000000000000000e+00 1.2852569842140433e+01 4.9237005495806724e-01 1.9705726492120746e+01 
61 1 2 5.8028412924214567e-01 -2.3327624636685940e+02 1.0000000000000000e+00 1.0380850927254130e+01 1.5896845728312314e+01 1.7415238394144061e+00 
97 1 2 5.8028412924214567e-01 -2.4290214402415305e+02 1.0000000000000000e+00 1.0380850927254130e+01 1.5896845728312314e+01 1.7415238394144061e+00 
104 1 2 5.8028412924214567e-01 -3.0260394559943774e+02 1.0000000000000000e+00 1.0380850927254116e+01 1.5896845728312300e+01 1.7415238394144044e+00 
103 1 2 5.8028412924214567e-01 -2.7331191539556761e+02 1.0000000000000000e+00 1.0380850927254116e+01 1.5896845728312300e+01 1.7415238394144044e+00 
62 1 2 5.8028412924214567e-01 -2.6338953291553725e+02 1.0000000000000000e+00 1.0169153195117559e+01 1.2230365372300058e+01 4.4316210056358480e+00 
56 1 2 5.8028412924214567e-01 -2.6779223227696633e+02 1.0000000000000000e+00 1.0169153195117559e+01 1.2230365372300058e+01 4.4316210056358480e+00 
92 1 2 5.8028412924214567e-01 -2.2815111827835554e+02 1.0000000000000000e+00 1.0169153195117545e+01 1.2230365372300044e+01 4.4316210056358551e+00 
98 1 2 5.8028412924214567e-01 -2.6156476392467471e+02 1.0000000000000000e+00 1.0169153195117545e+01 1.2230365372300044e+01 4.4316210056358551e+00 
75 1 2 4.3521309693160926e-01 -2.3670585473616455e+02 1.0000000000000000e+00 1.1262489559069687e+01 1.9600603355419910e+01 6.3660249332583962e+00 
105 1 2 4.3521309693160926e-01 -2.5437605691987264e+02 1.0000000000000000e+00 1.1262489559069728e+01 1.9600603355419860e+01 6.3660249332584042e+00 
74 1 2 4.3521309693160926e-01 -2.3117569754743261e+02 1.0000000000000000e+00 1.1262489559069769e+01 1.9600603355419874e+01 6.3660249332584193e+00 
28 1 2 1.0279982254555522e+00 -3.4622335168828033e+02 1.0000000000000000e+00 7.3936627541588722e+00 1.1144100236224228e+01 8.5616726555174552e+00 
34 1 2 1.0280088967679921e+00 -3.0747167705246528e+02 1.0000000000000000e+00 6.6866846828530271e+00 1.2182749676987763e+01 9.6964756683469275e+00 
70 1 2 1.0280088967679921e+00 -2.8304816629837291e+02 1.0000000000000000e+00 6.6866846828530271e+00 1.2182749676987763e+01 9.6964756683469275e+00 
69 1 2 1.0280088967679921e+00 -2.8792621958747287e+02 1.0000000000000000e+00 6.6866846828530271e+00 1.2182749676987763e+01 9.6964756683469275e+00 
27 1 2 1.0280088967639058e+00 -2.7046406327758103e+02 1.0000000000000000e+00 6.6866846863745542e+00 1.2182749681628938e+01 9.6964756592541086e+00 
63 1 2 1.0280088967631427e+00 -4.0430498895652397e+02 1.0000000000000000e+00 6.6866846869795689e+00 1.2182749682496476e+01 9.6964756575004074e+00 
33 1 2 1.0280088967631427e+00 -3.1669862396172380e+02 1.0000000000000000e+00 6.6866846869795689e+00 1.2182749682496476e+01 9.6964756575004074e+00 
135 1 2 8.7042619386321851e-01 -2.4818371142653399e+02 1.0000000000000000e+00 1.2257890586704811e+01 1.1931327351869891e+01 8.5261260673295922e+00 
129 1 2 8.7042619386321851e-01 -2.3667761844669070e+02 1.0000000000000000e+00 1.2257890586704811e+01 1.1931327351869891e+01 8.5261260673295922e+00 
94 1 2 8.7042619386321851e-01 -2.4502743176005623e+02 1.0000000000000000e+00 1.2257890586704788e+01 1.1931327351869369e+01 8.5261260673296153e+00 
100 1 2 8.7042619386321851e-01 -1.9436702391412973e+02 1.0000000000000000e+00 1.2257890586704788e+01 1.1931327351869369e+01 8.5261260673296153e+00 
99 1 2 8.7042619386321851e-01 -2.7823112115852501e+02 1.0000000000000000e+00 1.2257890586704811e+01 1.1931327351869891e+01 8.5261260673295922e+00 
93 1 2 8.7042619386321851e-01 -3.1956284420515630e+02 1.0000000000000000e+00 1.2257890586704788e+01 1.1931327351869369e+01 8.5261260673296153e+00 
71 1 2 4.3521309693160926e-01 -3.5103656977617641e+02 1.0000000000000000e+00 1.1440437311551293e+01 1.6674988072844933e+01 1.2177961638460138e+01 
106 1 2 4.3521309693160926e-01 -2.6305587405351031e+02 1.0000000000000000e+00 1.1440437311551296e+01 1.6674988072844851e+01 1.2177961638460106e+01 
107 1 2 4.3521309693160926e-01 -3.7310877381508709e+02 1.0000000000000000e+00 1.1440437311551317e+01 1.6674988072844769e+01 1.2177961638460085e+01 
91 1 2 8.7042619386321851e-01 -2.1810647952117534e+02 1.0000000000000000e+00 1.0226961823845429e+01 1.2068605711246747e+01 1.7404234811275856e+01 
102 1 2 8.7042619386321851e-01 -3.1676183863181899e+02 1.0000000000000000e+00 1.0226961823845418e+01 1.2068605711246738e+01 1.7404234811275920e+01 
101 1 2 8.7042619386321851e-01 -2.7822898317115312e+02 1.0000000000000000e+00 1.0226961823845347e+01 1.2068605711246738e+01 1.7404234811275792e+01 
60 1 2 8.7042619386321851e-01 -3.0413355242760827e+02 1.0000000000000000e+00 1.0226961823845359e+01 1.2068605711246747e+01 1.7404234811275899e+01 
66 1 2 8.7042619386321851e-01 -3.2741427410294938e+02 1.0000000000000000e+00 1.0226961823845359e+01 1.2068605711246429e+01 1.7404234811276492e+01 
96 1 2 8.7042619386321851e-01 -3.3395418158046562e+02 1.0000000000000000e+00 1.0226961823845388e+01 1.2068605711246747e+01 1.7404234811275856e+01 
164 1 2 1.0279999999999712e+00 -3.6005556609062802e+02 1.0000000000000000e+00 1.5251533058097428e+01 4.3640842440642658e+00 2.4600548641641011e+00 
122 1 2 1.0279999999999767e+00 -2.6601060903160584e+02 1.0000000000000000e+00 1.5243230338171042e+01 4.3672763862473882e+00 2.4606423254567642e+00 
128 1 2 1.0279999999999394e+00 -1.6769340456681280e+02 1.0000000000000000e+00 1.5240660235896048e+01 4.3684212099286608e+00 2.4605655283515717e+00 
163 1 2 1.0279999999999268e+00 -3.2850792726414005e+02 1.0000000000000000e+00 1.5063155019167599e+01 4.4625274504472188e+00 2.5064307897537446e+00 
127 1 2 1.0279999999999823e+00 -2.7367587650944665e+02 1.0000000000000000e+00 1.5059265399098239e+01 4.4873832658347261e+00 2.4681666656501395e+00 
121 1 2 1.0280000000000182e+00 -3.1477362662175705e+02 1.0000000000000000e+00 1.6200373376436982e+01 6.0789070274015495e+00 3.0380641867263840e+00 
115 1 2 1.0280000000000140e+00 -2.6614219790775951e+02 1.0000000000000000e+00 1.6198013533630949e+01 6.0810427499706705e+00 3.0344348947712589e+00 
116 1 2 1.0280000000000140e+00 -2.6509227972861413e+02 1.0000000000000000e+00 1.6198013533630949e+01 6.0810427499706705e+00 3.0344348947712589e+00 
151 1 2 1.0280000000000140e+00 -2.9815110727967033e+02 1.0000000000000000e+00 1.6198013533630949e+01 6.0810427499706705e+00 3.0344348947712589e+00 
157 1 2 1.0279999999999925e+00 -3.1793479888766893e+02 1.0000000000000000e+00 1.6198060617995207e+01 6.0810071357016708e+00 3.0344710039481195e+00 
158 1 2 1.0279999999999703e+00 -3.5018980587678277e+02 1.0000000000000000e+00 1.5514383790270681e+01 5.0080539825269952e+00 3.6114653184307284e+00 
111 1 2 1.0154972261737549e+00 -3.6390905264982183e+02 1.0000000000000000e+00 1.8128713051698966e+01 3.3477650153796965e+00 6.6798844005797511e+00 
147 1 2 1.0154972261737549e+00 -3.7545412655735151e+02 1.0000000000000000e+00 1.8128713051703290e+01 3.3477650153796965e+00 6.6798844005798967e+00 
148 1 2 1.0154972261737549e+00 -2.9119761760709559e+02 1.0000000000000000e+00 1.8128713051702448e+01 3.3477650153788518e+00 6.6798844005799189e+00 
117 1 2 1.0154972261737549e+00 -4.1461461457775420e+02 1.0000000000000000e+00 1.8128713051702881e+01 3.3477650153798826e+00 6.6798844005801197e+00 
152 1 2 1.0154972261737549e+00 -4.0297318627731806e+02 1.0000000000000000e+00 1.8128713051702196e+01 3.3477650153791259e+00 6.6798844005780547e+00 
153 1 2 1.0154972261737549e+00 -4.4630557709771256e+02 1.0000000000000000e+00 1.8128713051702881e+01 3.3477650153798826e+00 6.6798844005797511e+00 
159 1 2 1.0154972261737549e+00 -3.2777278266738188e+02 1.0000000000000000e+00 1.8128713051702881e+01 3.3477650153797383e+00 6.6798844005799189e+00 
154 1 2 5.8028412924214567e-01 -2.8811080154446887e+02 1.0000000000000000e+00 1.7880514755336094e+01 6.1454287395771825e+00 1.2461572633658639e+01 
155 1 2 5.8028412924214567e-01 -3.3848600736624883e+02 1.0000000000000000e+00 1.7880514755336009e+01 6.1454287395771825e+00 1.2461572633658534e+01 
160 1 2 5.8028412924214567e-01 -2.9935245419370972e+02 1.0000000000000000e+00 1.7880514755336190e+01 6.1454287395771301e+00 1.2461572633658639e+01 
161 1 2 5.8028412924214567e-01 -2.4415194014745100e+02 1.0000000000000000e+00 1.7880514755336094e+01 6.1454287395771301e+00 1.2461572633658534e+01 
113 1 2 4.3521309693160926e-01 -2.5365231184192126e+02 1.0000000000000000e+00 1.7004357720818529e+01 1.0020635485692311e+00 1.5094020309094015e+01 
149 1 2 4.3521309693160926e-01 -2.4489682153823435e+02 1.0000000000000000e+00 1.7004357720818600e+01 1.0020635485692364e+00 1.5094020309093990e+01 
150 1 2 4.3521309693160926e-01 -2.3380473487297184e+02 1.0000000000000000e+00 1.7004357720818600e+01 1.0020635485692315e+00 1.5094020309094040e+01 
120 1 2 7.2535516155268209e-01 -1.9136701884141794e+02 1.0000000000000000e+00 1.3779905936494959e+01 7.6653993818045425e+00 1.6495896969185818e+01 
125 1 2 7.2535516155268209e-01 -3.7258832398902558e+02 1.0000000000000000e+00 1.3779905936494924e+01 7.6653993818045389e+00 1.6495896969185907e+01 
126 1 2 7.2535516155268209e-01 -2.7813706821761787e+02 1.0000000000000000e+00 1.3779905936494959e+01 7.6653993818045540e+00 1.6495896969185825e+01 
132 1 2 7.2535516155268209e-01 -3.5875460036622945e+02 1.0000000000000000e+00 1.3779905936494904e+01 7.6653993818045008e+00 1.6495896969185864e+01 
90 1 2 7.2535516155268209e-01 -3.7891812858189076e+02 1.0000000000000000e+00 1.3779905936494893e+01 7.6653993818045265e+00 1.6495896969185818e+01 
162 1 2 2.9014206462107284e-01 -2.0096363440942952e+02 1.0000000000000000e+00 1.7438968614300546e+01 5.4642096982868544e+00 1.6691114598168380e+01 
156 1 2 2.9014206462107284e-01 -1.7853307225303740e+02 1.0000000000000000e+00 1.7438968614300595e+01 5.4642096982868482e+00 1.6691114598168355e+01 
169 1 2 2.9014206462107284e-01 -2.3502951031147632e+02 1.0000000000000000e+00 1.5662735610981031e+01 1.3327337959206270e+01 2.2117817546555607e-01 
133 1 2 2.9014206462107284e-01 -2.3882921837364265e+02 1.0000000000000000e+00 1.5662735610981056e+01 1.3327337959206282e+01 2.2117817546555568e-01 
134 1 2 4.3521309693160926e-01 -3.0633336848202111e+02 1.0000000000000000e+00 1.6188928493543031e+01 1.4676863507141325e+01 4.3245543844116296e+00 
140 1 2 4.3521309693160926e-01 -2.8335041369695210e+02 1.0000000000000000e+00 1.6188928493542971e+01 1.4676863507141285e+01 4.3245543844115995e+00 
170 1 2 4.3521309693160926e-01 -2.8241145232934673e+02 1.0000000000000000e+00 1.6188928493542949e+01 1.4676863507141366e+01 4.3245543844115852e+00 
139 1 2 8.7042619386321851e-01 -2.8345498805479446e+02 1.0000000000000000e+00 1.6798879997916679e+01 1.9155368188266024e+01 3.3458936984029464e+00 
175 1 2 8.7042619386321851e-01 -3.0557518274884779e+02 1.0000000000000000e+00 1.6798879997916579e+01 1.9155368188265903e+01 3.3458936984029464e+00 
176 1 2 8.7042619386321851e-01 -3.6756611763041320e+02 1.0000000000000000e+00 1.6798879997916647e+01 1.9155368188265886e+01 3.3458936984029464e+00 
145 1 2 8.7042619386321851e-01 -3.5972493047544327e+02 1.0000000000000000e+00 1.6798879997916654e+01 1.9155368188265999e+01 3.3458936984029619e+00 
110 1 2 8.7042619386321851e-01 -3.5455418315450777e+02 1.0000000000000000e+00 1.6798879997916679e+01 1.9155368188265982e+01 3.3458936984029424e+00 
146 1 2 8.7042619386321851e-01 -3.1698994049371555e+02 1.0000000000000000e+00 1.6798879997916462e+01 1.9155368188265971e+01 3.3458936984029455e+00 
165 1 2 5.8028412924214567e-01 -2.6947760451216993e+02 1.0000000000000000e+00 1.8415385317540380e+01 1.1974787637115224e+01 9.4617995141090692e+00 
171 1 2 5.8028412924214567e-01 -2.6558002475819336e+02 1.0000000000000000e+00 1.8415385317540348e+01 1.1974787637115272e+01 9.4617995141090692e+00 
172 1 2 5.8028412924214567e-01 -2.2407962115056804e+02 1.0000000000000000e+00 1.8415385317540370e+01 1.1974787637115272e+01 9.4617995141090052e+00 
166 1 2 5.8028412924214567e-01 -2.4536425778254926e+02 1.0000000000000000e+00 1.8415385317540427e+01 1.1974787637115224e+01 9.4617995141090052e+00 
131 1 2 5.8028412924214567e-01 -2.6028682385298566e+02 1.0000000000000000e+00 1.4358116977788924e+01 1.2953457533120247e+01 1.3124414107974564e+01 
137 1 2 5.8028412924214567e-01 -2.6520231091331635e+02 1.0000000000000000e+00 1.4358116977788910e+01 1.2953457533120233e+01 1.3124414107974550e+01 
173 1 2 5.8028412924214567e-01 -2.7506439989139938e+02 1.0000000000000000e+00 1.4358116977788910e+01 1.2953457533120233e+01 1.3124414107974502e+01 
95 1 2 5.8028412924214567e-01 -2.4946119213648768e+02 1.0000000000000000e+00 1.4358116977788924e+01 1.2953457533120247e+01 1.3124414107974550e+01 
136 1 2 7.2535516155268209e-01 -3.0531408688607462e+02 1.0000000000000000e+00 1.5758286098798200e+01 1.5955482637213787e+01 1.0230273218871746e+01 
178 1 2 7.2535516155268209e-01 -3.7533706284932305e+02 1.0000000000000000e+00 1.5758286098798266e+01 1.5955482637213789e+01 1.0230273218871753e+01 
142 1 2 7.2535516155268209e-01 -3.7756180284853338e+02 1.0000000000000000e+00 1.5758286098798209e+01 1.5955482637213823e+01 1.0230273218871764e+01 
177 1 2 7.2535516155268209e-01 -2.9136329232572581e+02 1.0000000000000000e+00 1.5758286098798173e+01 1.5955482637213789e+01 1.0230273218871755e+01 
141 1 2 7.2535516155268209e-01 -2.7700474156390646e+02 1.0000000000000000e+00 1.5758286098798234e+01 1.5955482637213787e+01 1.0230273218871817e+01 
167 1 2 2.9014206462107284e-01 -1.1923277157682105e+02 1.0000000000000000e+00 1.7699063802780380e+01 1.0389960936133875e+01 1.5503864230316085e+01 
168 1 2 2.9014206462107284e-01 -1.3239108255829015e+02 1.0000000000000000e+00 1.7699063802780355e+01 1.0389960936133900e+01 1.5503864230316097e+01 
138 1 2 1.0154972261737549e+00 -3.4188894525301816e+02 1.0000000000000000e+00 1.6147016479378181e+01 1.5031014300844788e+01 1.6528753972533877e+01 
143 1 2 1.0154972261737549e+00 -3.2730453620551316e+02 1.0000000000000000e+00 1.6147016479378188e+01 1.5031014300851959e+01 1.6528753972533863e+01 
174 1 2 1.0154972261737549e+00 -3.8680283637270992e+02 1.0000000000000000e+00 1.6147016479378195e+01 1.5031014300848762e+01 1.6528753972533863e+01 
144 1 2 1.0154972261737549e+00 -2.6152648650381838e+02 1.0000000000000000e+00 1.6147016479378195e+01 1.5031014300848762e+01 1.6528753972533874e+01 
179 1 2 1.0154972261737549e+00 -4.1440266247953372e+02 1.0000000000000000e+00 1.6147016479378195e+01 1.5031014300848762e+01 1.6528753972533888e+01 
108 1 2 1.0154972261737549e+00 -2.4130991103980631e+02 1.0000000000000000e+00 1.6147016479378195e+01 1.5031014300848762e+01 1.6528753972533885e+01 
180 1 2 1.0154972261737549e+00 -4.0817153695125302e+02 1.0000000000000000e+00 1.6147016479378195e+01 1.5031014300851959e+01 1.6528753972533881e+01 

Velocities

1 5.6706962844633555e-13 -6.6158123318767220e-13 7.0883683603968352e-14
7 -2.8353481422330565e-13 3.3079061659356953e-13 -2.0379060778915858e-13
37 -2.8353481422330571e-13 3.3079061659356958e-13 1.3290692421529775e-13
13 -1.4029366778651967e-12 -1.6133771794037748e-12 -1.4029366779046031e-13
19 4.2088100322881989e-13 4.5595442032553945e-12 3.5073416943940186e-14
55 -1.5432303454062039e-12 3.5073416962410024e-13 3.5073416943940161e-14
49 2.5252860200461714e-12 -3.2969011928249341e-12 7.0146833890912728e-14
8 2.3551950043688592e-13 -9.9650217247923169e-14 -1.3120454133959764e-12
9 2.3551950043688688e-13 -9.9650217247923169e-14 -6.1450207811349858e-13
21 -2.7645340580852071e-12 -9.9650217247923220e-14 2.8732132455143323e-12
15 9.3306261368762008e-13 9.9650217245526648e-14 -3.1555525135133004e-13
14 -8.6805900493802265e-13 9.9650217245526774e-14 -3.1555525135133020e-13
20 2.2284914483000780e-12 9.9650217245526686e-14 -3.1555525135132999e-13
4 -6.3132150033157395e-13 4.3841771092568219e-13 -1.6835240134945815e-12
10 7.7161517754549893e-13 5.0856454595411362e-13 -1.6835240134945815e-12
40 1.4730834975873777e-12 -6.1378479634761044e-13 -1.6835240134945815e-12
46 -1.6133771747963384e-12 -3.3319746077210470e-13 5.0505720403032859e-12
24 3.0864606912727217e-12 1.1223488827944891e-12 2.2446977655889782e-12
54 -3.0864606913761225e-12 1.1223488827944891e-12 2.2446977655889782e-12
17 2.6655796879122084e-12 -1.1223488827893027e-12 -2.2446977655786053e-12
18 -2.6655796880130671e-12 -1.1223488827893027e-12 -2.2446977655786053e-12
25 5.5991841975024402e-13 -7.8271996615946676e-12 1.0928199888280259e-12
31 5.5991841975024402e-13 -7.8271996615946676e-12 1.0928199888280259e-12
67 5.5991841975031299e-13 7.8271996615600860e-12 -1.3665212290874935e-13
26 1.6550640279224605e-12 -7.8271996615946547e-12 -1.9981981022224842e-13
68 5.5991841975031299e-13 7.8271996615600827e-12 -9.2458402237440573e-13
32 -3.8947377072644515e-12 7.8271996615599874e-12 -9.2458402237439826e-13
65 -1.5480710416367759e-03 -8.9780579278879776e-03 6.2426366868417243e-03
64 -1.5480710416367759e-03 -8.9780579278879776e-03 6.2426366868417243e-03
23 -1.5480710416367759e-03 -8.9780579278879776e-03 6.2426366868417243e-03
29 -1.5480710416367759e-03 -8.9780579278879776e-03 6.2426366868417243e-03
22 -1.5480710416367759e-03 -8.9780579278879776e-03 6.2426366868417243e-03
59 -1.5480710416367759e-03 -8.9780579278879776e-03 6.2426366868417243e-03
30 -1.5480710416367759e-03 -8.9780579278879776e-03 6.2426366868417243e-03
36 2.2210227112862006e-12 -1.2286508616535904e-11 1.3042601454282448e-11
72 -2.3155343162852875e-12 1.8902320946248024e-12 1.4870341306402618e-23
35 9.4511604612048595e-14 1.0396276521321311e-11 -1.3042601454252692e-11
79 -6.3292617966278573e-13 -5.3477052943831498e-13 1.1868696590419736e-12
85 -5.9844562124339463e-13 -5.2196245253742472e-13 1.1130379957552422e-12
43 1.7915065261493122e-13 -2.4016716622774346e-13 -1.5794624289041599e-13
86 -7.2593104078730765e-13 -6.9736932251601762e-13 1.6680260541472177e-12
38 4.1070637192523353e-12 5.1338296490654191e-13 -3.6476353616437676e-12