LAMMPS data file via write_data, version 30 Jul 2016, timestep = 50000000

2772 atoms
8 atom types

0.0000000000000000e+00 1.0000000000000000e+02 xlo xhi
0.0000000000000000e+00 4.0000000000000000e+01 ylo yhi
0.0000000000000000e+00 4.0000000000000000e+01 zlo zhi

Masses

1 3.896
2 5.36
3 20.064
4 8.378
5 8.378
6 8.378
7 8.378
8 8.378

Atoms # meso-molecular

11 12 2 1.0279999999999889e+00 1.9132783175222588e+01 1.0000000000000000e+00 9.3199570303545687e-01 1.0000000000000000e+01 1.9367102789725246e+00 
342 343 2 1.0279999999999920e+00 4.8453813090381254e+02 1.0000000000000000e+00 1.0199160088343575e+00 1.0000000000000000e+01 1.8566394218707429e+00 
391 392 2 1.0279999999999949e+00 2.6328938932716455e+03 1.0000000000000000e+00 1.0780686333170577e+00 1.0000000000000000e+01 1.7691646226529689e+00 
600 601 2 1.0280000000000007e+00 -4.5309697340505627e+03 1.0000000000000000e+00 2.8624448049038681e-01 1.3800000000000001e+01 2.1382361387384634e+00 
471 472 2 1.0280000000000002e+00 -2.9220144084877002e+03 1.0000000000000000e+00 3.9819184079148373e-01 1.3800000000000001e+01 2.4339998550528930e+00 
1373 1374 2 1.0280000000000118e+00 -4.5316402136767016e+02 1.0000000000000000e+00 2.3883729066303186e-01 1.7600000000000001e+01 1.4162189948819082e-01 
1113 1114 2 1.0279999999999980e+00 6.5664749952601269e+03 1.0000000000000000e+00 1.8574976233739446e+00 1.7600000000000001e+01 1.1427332300225770e+00 
962 963 2 1.0279999999999974e+00 -7.1025743305232463e+03 1.0000000000000000e+00 3.9629690080714763e-01 1.7600000000000001e+01 1.7727981902631540e+00 
1214 1215 2 1.0279999999999974e+00 -6.3087550291882981e+03 1.0000000000000000e+00 1.6099282251013813e+00 1.7600000000000001e+01 1.9645515376362950e+00 
1085 1086 2 1.0280000000000018e+00 -5.9918704971425541e+02 1.0000000000000000e+00 2.7080353431928863e+00 1.7600000000000001e+01 1.6376098968582473e-01 
1252 1253 2 1.0280000000000025e+00 -8.1587774156814191e+02 1.0000000000000000e+00 2.8719133384920590e+00 1.7600000000000001e+01 5.7578585683084348e-02 
1287 1288 2 1.0280000000000056e+00 -7.3771789447056799e+03 1.0000000000000000e+00 5.3811644707507496e+00 1.7600000000000001e+01 8.6198838103677766e-01 
1072 1073 2 1.0280000000000005e+00 1.1874525267672359e+03 1.0000000000000000e+00 5.4597142960143250e+00 1.7600000000000001e+01 1.0947207875096234e+00 
1245 1246 2 1.0279999999999967e+00 -6.9768155780351408e+03 1.0000000000000000e+00 6.5925113330963701e+00 1.7600000000000001e+01 2.2819629097603671e+00 
1211 1212 2 1.0280000000000027e+00 6.6531841457005539e+03 1.0000000000000000e+00 6.9638952554712246e+00 1.7600000000000001e+01 1.6689610498311134e+00 
1046 1047 2 1.0279999999999965e+00 -9.2636943068211804e+03 1.0000000000000000e+00 7.2952678320399942e+00 1.7600000000000001e+01 1.0048262509678856e-01 
1340 1341 2 1.0279999999999987e+00 6.2279566197383501e+03 1.0000000000000000e+00 7.2014970398354112e+00 1.7600000000000001e+01 4.9233727214183353e-03 
1343 1344 2 1.0280000000000089e+00 5.5887488089795352e+03 1.0000000000000000e+00 9.5334429355980266e+00 1.7600000000000001e+01 4.4355127362091556e-01 
1088 1089 2 1.0280000000000042e+00 9.7765561110944918e+02 1.0000000000000000e+00 9.8838826930766146e+00 1.7600000000000001e+01 8.2922374289189282e-01 
1155 1156 2 1.0279999999999976e+00 1.0799517507870576e+04 1.0000000000000000e+00 1.1328426885295146e+01 1.7600000000000001e+01 1.4099863655263227e+00 
1159 1160 2 1.0279999999999987e+00 8.3776813974598444e+03 1.0000000000000000e+00 1.1411240618432675e+01 1.7600000000000001e+01 1.6920781275591670e+00 
1184 1185 2 1.0279999999999963e+00 6.5009091243065868e+03 1.0000000000000000e+00 1.7949022966193354e+01 1.7600000000000001e+01 2.3854197752752349e+00 
1367 1368 2 1.0280000000000011e+00 -3.0955635938174682e+03 1.0000000000000000e+00 1.7043419275392367e+01 1.7600000000000001e+01 1.3903238311110893e+00 
1073 1074 2 1.0280000000000014e+00 -8.3624011054250559e+02 1.0000000000000000e+00 1.7039972210307059e+01 1.7600000000000001e+01 1.3836672032268971e+00 
972 973 2 1.0280000000000027e+00 5.6206973991035939e+03 1.0000000000000000e+00 1.8282272918832259e+01 1.7600000000000001e+01 1.0208097443743573e+00 
1256 1257 2 1.0279999999999985e+00 9.4408928237345913e+02 1.0000000000000000e+00 2.0672978411579400e+01 1.7600000000000001e+01 2.3982204210006269e-01 
1004 1005 2 1.0279999999999985e+00 6.2245294818905386e+03 1.0000000000000000e+00 2.0673264089390678e+01 1.7600000000000001e+01 2.3919049418822524e-01 
1339 1340 2 1.0280000000000011e+00 5.5330206353046224e+03 1.0000000000000000e+00 1.9899168058078839e+01 1.7600000000000001e+01 1.3868727441819825e-01 
733 734 2 1.0280000000000025e+00 6.5436141641089489e+03 1.0000000000000000e+00 4.4557723425427825e-01 1.3800000000000001e+01 2.6011302537107559e+00 
689 690 2 1.0279999999999974e+00 5.1488660475398010e+03 1.0000000000000000e+00 3.5535472936349111e-01 1.3800000000000001e+01 4.6721156096946546e+00 
609 610 2 1.0279999999999974e+00 1.2313063524720951e+03 1.0000000000000000e+00 3.5072475058790842e-01 1.3800000000000001e+01 4.7094611872620034e+00 
929 930 2 1.0280000000000016e+00 -7.0872169578105641e+03 1.0000000000000000e+00 9.4732815155038896e-01 1.7600000000000001e+01 3.1167364626926077e+00 
926 927 2 1.0280000000000025e+00 -2.2184389992958750e+03 1.0000000000000000e+00 9.0847594405858823e-01 1.7600000000000001e+01 3.1419155266560672e+00 
1180 1181 2 1.0279999999999936e+00 3.3499609490198272e+03 1.0000000000000000e+00 5.4548688163870895e-01 1.7600000000000001e+01 4.6183970938524102e+00 
1118 1119 2 1.0280000000000016e+00 7.4992750193411830e+03 1.0000000000000000e+00 4.5460187370566381e+00 1.7600000000000001e+01 3.4019450722790752e+00 
1374 1375 2 1.0280000000000029e+00 8.8817022165131982e+02 1.0000000000000000e+00 4.4717543380810838e+00 1.7600000000000001e+01 3.5560737259673170e+00 
981 982 2 1.0280000000000005e+00 6.4260576575712857e+03 1.0000000000000000e+00 4.6277147741919906e+00 1.7600000000000001e+01 3.2690161900523904e+00 
1290 1291 2 1.0280000000000011e+00 -7.2213053925169265e+02 1.0000000000000000e+00 5.9771356684095851e+00 1.7600000000000001e+01 4.7983502328849719e+00 
1383 1384 2 1.0279999999999998e+00 -2.6394956431773935e+03 1.0000000000000000e+00 5.9723576400866580e+00 1.7600000000000001e+01 4.8039194847599092e+00 
1157 1158 2 1.0280000000000016e+00 1.2333085959726257e+04 1.0000000000000000e+00 7.5406643803385114e+00 1.7600000000000001e+01 3.5572403131481396e+00 
1077 1078 2 1.0280000000000011e+00 -6.9029158819700242e+03 1.0000000000000000e+00 7.6354831385183175e+00 1.7600000000000001e+01 3.5854573003826182e+00 
1331 1332 2 1.0279999999999996e+00 -2.5682870608220674e+03 1.0000000000000000e+00 8.9667935460719992e+00 1.7600000000000001e+01 4.2243161187044862e+00 
1091 1092 2 1.0280000000000056e+00 -1.9544238752464767e+03 1.0000000000000000e+00 1.0457615489612756e+01 1.7600000000000001e+01 2.9201091939969990e+00 
1240 1241 2 1.0279999999999974e+00 1.5389606059194589e+03 1.0000000000000000e+00 1.1182817376427725e+01 1.7600000000000001e+01 3.3664318380537344e+00 
1196 1197 2 1.0279999999999971e+00 6.1750648089014176e+03 1.0000000000000000e+00 1.1180434473256057e+01 1.7600000000000001e+01 3.3714446626154295e+00 
966 967 2 1.0279999999999994e+00 -6.0658070463408530e+03 1.0000000000000000e+00 1.4525217884957851e+01 1.7600000000000001e+01 4.4900414560293296e+00 
1051 1052 2 1.0279999999999994e+00 -1.3117035898897925e+03 1.0000000000000000e+00 1.5121438957550684e+01 1.7600000000000001e+01 4.2611211437234466e+00 
1066 1067 2 1.0279999999999987e+00 -6.6331355339934762e+03 1.0000000000000000e+00 1.5154867674222983e+01 1.7600000000000001e+01 4.2657252796551584e+00 
1329 1330 2 1.0279999999999951e+00 -6.3175909508001223e+03 1.0000000000000000e+00 1.8600583077873019e+01 1.7600000000000001e+01 3.8418665493836772e+00 
1278 1279 2 1.0279999999999954e+00 4.8736842298849569e+02 1.0000000000000000e+00 1.8600578999112066e+01 1.7600000000000001e+01 3.8418613080200847e+00 
1327 1328 2 1.0280000000000129e+00 -1.9520014382317222e+03 1.0000000000000000e+00 1.8309811100716757e+01 1.7600000000000001e+01 3.8606076714066657e+00 
821 822 2 1.0280000000000014e+00 -8.6648101685360743e+03 1.0000000000000000e+00 6.4432430268070073e-01 1.3800000000000001e+01 6.3905068035429009e+00 
648 649 2 1.0280000000000016e+00 8.0512033260765365e+03 1.0000000000000000e+00 6.5507323501483949e-01 1.3800000000000001e+01 6.4035379135840556e+00 
532 533 2 1.0279999999999994e+00 6.3926101705664187e+03 1.0000000000000000e+00 2.3054336939039439e+00 1.3800000000000001e+01 7.4485580210062654e+00 
557 558 2 1.0279999999999998e+00 3.2108024771114679e+03 1.0000000000000000e+00 2.4833204152748753e+00 1.3800000000000001e+01 5.0162257238823251e+00 
647 648 2 1.0279999999999978e+00 7.5214754187145345e+03 1.0000000000000000e+00 2.5246851493244296e+00 1.3800000000000001e+01 7.2674896359731918e+00 
646 647 2 1.0279999999999956e+00 8.9322163251359034e+03 1.0000000000000000e+00 2.5357631790679176e+00 1.3800000000000001e+01 7.2543504803148986e+00 
852 853 2 1.0280000000000025e+00 2.1264364505349540e+03 1.0000000000000000e+00 2.5226261363252549e+00 1.3800000000000001e+01 5.0566181226514457e+00 
898 899 2 1.0280000000000011e+00 -1.6574392365832682e+03 1.0000000000000000e+00 2.5237891159896280e+00 1.3800000000000001e+01 5.0578685810927020e+00 
1012 1013 2 1.0280000000000029e+00 1.0108995158209996e+03 1.0000000000000000e+00 2.6865272702033000e-01 1.7600000000000001e+01 5.2153142308576150e+00 
1264 1265 2 1.0280000000000029e+00 1.0109249643845449e+03 1.0000000000000000e+00 2.7138076769771730e-01 1.7600000000000001e+01 5.2626553916511272e+00 
977 978 2 1.0279999999999829e+00 -4.1655847233834265e+03 1.0000000000000000e+00 1.4690107116078353e+00 1.7600000000000001e+01 6.6194114234119334e+00 
1313 1314 2 1.0280000000000229e+00 -4.1655826364712520e+03 1.0000000000000000e+00 1.3086775063624976e+00 1.7600000000000001e+01 6.9398279626614734e+00 
1107 1108 2 1.0280000000000029e+00 6.6858152726762946e+03 1.0000000000000000e+00 3.0740947564129284e+00 1.7600000000000001e+01 6.7606058801954640e+00 
1100 1101 2 1.0280000000000016e+00 6.4528033860067117e+03 1.0000000000000000e+00 3.0744021975858624e+00 1.7600000000000001e+01 6.7604625340160673e+00 
1042 1043 2 1.0280000000000009e+00 -6.6635624868177565e+03 1.0000000000000000e+00 4.4923609399990809e+00 1.7600000000000001e+01 5.3647087345831803e+00 
1009 1010 2 1.0280000000000014e+00 -5.4702728599499605e+03 1.0000000000000000e+00 5.1571279885757182e+00 1.7600000000000001e+01 6.4268881415454944e+00 
1114 1115 2 1.0280000000000027e+00 6.4395531856389935e+03 1.0000000000000000e+00 4.9437577084121758e+00 1.7600000000000001e+01 7.1250727423853064e+00 
1117 1118 2 1.0280000000000031e+00 7.9677172883785879e+03 1.0000000000000000e+00 8.7559663932519189e+00 1.7600000000000001e+01 5.1841631287105523e+00 
1289 1290 2 1.0279999999999960e+00 -1.1647238045275524e+04 1.0000000000000000e+00 8.7869697651186733e+00 1.7600000000000001e+01 5.2220651347715572e+00 
1050 1051 2 1.0279999999999965e+00 -5.7210816602107006e+03 1.0000000000000000e+00 8.1810359298019595e+00 1.7600000000000001e+01 7.4434920644076596e+00 
1326 1327 2 1.0280000000000047e+00 -5.1245572256004707e+03 1.0000000000000000e+00 9.4238054797572737e+00 1.7600000000000001e+01 7.0676910078599740e+00 
1368 1369 2 1.0279999999999965e+00 -5.4509194039394370e+03 1.0000000000000000e+00 9.4860837209865387e+00 1.7600000000000001e+01 7.2136837684778508e+00 
1371 1372 2 1.0280000000000014e+00 -1.6589696775608977e+03 1.0000000000000000e+00 1.1029938713861160e+01 1.7600000000000001e+01 5.2944465631875417e+00 
1040 1041 2 1.0279999999999978e+00 3.1152229170096407e+03 1.0000000000000000e+00 1.1131547767902596e+01 1.7600000000000001e+01 5.8556405459580230e+00 
1280 1281 2 1.0280000000000018e+00 -8.6662184565046082e+03 1.0000000000000000e+00 1.2146080717593076e+01 1.7600000000000001e+01 5.6129668572337987e+00 
1248 1249 2 1.0279999999999971e+00 -6.1315579118975438e+03 1.0000000000000000e+00 1.2298862579073516e+01 1.7600000000000001e+01 7.3879944973971758e+00 
1242 1243 2 1.0279999999999985e+00 2.6831695184856551e+02 1.0000000000000000e+00 1.3847096948452974e+01 1.7600000000000001e+01 6.5160712330262260e+00 
1119 1120 2 1.0280000000000016e+00 8.9993122666519557e+03 1.0000000000000000e+00 1.2811101652050695e+01 1.7600000000000001e+01 6.1843311493352626e+00 
1199 1200 2 1.0280000000000016e+00 5.9698942275333666e+03 1.0000000000000000e+00 1.5618002323882674e+01 1.7600000000000001e+01 5.4869014216690264e+00 
1344 1345 2 1.0280000000000014e+00 -1.0874061297810949e+03 1.0000000000000000e+00 1.5398505863899395e+01 1.7600000000000001e+01 5.9059652221809182e+00 
1241 1242 2 1.0279999999999998e+00 -1.0654849027784767e+03 1.0000000000000000e+00 1.8739790898008028e+01 1.7600000000000001e+01 5.7828736634316948e+00 
1318 1319 2 1.0279999999999980e+00 -6.3378062676943027e+03 1.0000000000000000e+00 1.8957028132584721e+01 1.7600000000000001e+01 5.9568779632241649e+00 
1320 1321 2 1.0280000000000011e+00 -1.9759361168457335e+03 1.0000000000000000e+00 1.9171063846404905e+01 1.7600000000000001e+01 6.3884313046506014e+00 
1249 1250 2 1.0279999999999969e+00 -4.3622274280814217e+03 1.0000000000000000e+00 2.1561555254397486e+01 1.7600000000000001e+01 7.1381672080402847e+00 
1112 1113 2 1.0279999999999996e+00 6.0822660582672106e+03 1.0000000000000000e+00 2.2056733132768933e+01 1.7600000000000001e+01 7.2671575998329718e+00 
944 945 2 1.0279999999999998e+00 -2.9091165104273014e+03 1.0000000000000000e+00 2.2056514358020220e+01 1.7600000000000001e+01 7.2668283071110906e+00 
915 916 2 1.0280000000000000e+00 -2.5955452398920688e+03 1.0000000000000000e+00 1.6347943453759746e+00 1.3800000000000001e+01 9.8880486876775038e+00 
777 778 2 1.0280000000000009e+00 1.6637184855665282e+03 1.0000000000000000e+00 1.6346112632506538e+00 1.3800000000000001e+01 9.8883823243568418e+00 
803 804 2 1.0279999999999980e+00 -9.3145984804751715e+03 1.0000000000000000e+00 3.0906087430035964e+00 1.3800000000000001e+01 9.7520711259113160e+00 
509 510 2 1.0279999999999947e+00 6.2291840305187779e+03 1.0000000000000000e+00 3.1795851977532998e+00 1.3800000000000001e+01 9.9955458489069553e+00 
1102 1103 2 1.0280000000000016e+00 9.1081907861646978e+03 1.0000000000000000e+00 3.3588798713375237e-02 1.7600000000000001e+01 8.1880033502056229e+00 
1186 1187 2 1.0280000000000014e+00 9.1144328418587902e+03 1.0000000000000000e+00 3.2889691299375044e-02 1.7600000000000001e+01 8.1860569461367199e+00 
1015 1016 2 1.0280000000000042e+00 1.6522974821343801e+03 1.0000000000000000e+00 1.1300479645650774e+00 1.7600000000000001e+01 9.7849578825296106e+00 
1044 1045 2 1.0279999999999927e+00 1.6661189858471471e+03 1.0000000000000000e+00 1.0021060970916791e+00 1.7600000000000001e+01 9.9494430790562696e+00 
930 931 2 1.0279999999999954e+00 -8.8006902832639826e+03 1.0000000000000000e+00 2.7854175169723514e+00 1.7600000000000001e+01 8.8630538201771181e+00 
932 933 2 1.0279999999999958e+00 -2.7774500399676308e+03 1.0000000000000000e+00 2.7876741935043032e+00 1.7600000000000001e+01 8.8886618562545738e+00 
1309 1310 2 1.0280000000000058e+00 7.2806518063535514e+03 1.0000000000000000e+00 4.4173161394378386e+00 1.7600000000000001e+01 9.3832662889562339e+00 
1272 1273 2 1.0280000000000049e+00 -1.1148712860956493e+04 1.0000000000000000e+00 4.3247391082557733e+00 1.7600000000000001e+01 9.4865621206684256e+00 
1187 1188 2 1.0279999999999991e+00 9.3391745462654508e+03 1.0000000000000000e+00 4.8384134577468441e+00 1.7600000000000001e+01 7.8250693041790811e+00 
1178 1179 2 1.0279999999999998e+00 8.7226152451823036e+03 1.0000000000000000e+00 6.5848862349766080e+00 1.7600000000000001e+01 9.4010631231928876e+00 
1262 1263 2 1.0280000000000009e+00 -1.4135084694465299e+03 1.0000000000000000e+00 7.4386014504510509e+00 1.7600000000000001e+01 8.3453686061601235e+00 
1219 1220 2 1.0280000000000020e+00 -1.2990213637934980e+03 1.0000000000000000e+00 7.4910087335968738e+00 1.7600000000000001e+01 8.2661511524583489e+00 
1068 1069 2 1.0279999999999985e+00 -1.9033158434715228e+03 1.0000000000000000e+00 8.8916333224300885e+00 1.7600000000000001e+01 9.8179952199682550e+00 
1380 1381 2 1.0280000000000029e+00 -5.7286636900236942e+01 1.0000000000000000e+00 1.0211200550877184e+01 1.7600000000000001e+01 9.0325524225583589e+00 
965 966 2 1.0280000000000029e+00 -2.3776097826182558e+03 1.0000000000000000e+00 1.0211510036641982e+01 1.7600000000000001e+01 9.0322649598414664e+00 
1384 1385 2 1.0280000000000020e+00 -4.9824633222829980e+03 1.0000000000000000e+00 1.1738777676817028e+01 1.7600000000000001e+01 8.4686166261143772e+00 
1164 1165 2 1.0280000000000109e+00 7.9361061780060154e+03 1.0000000000000000e+00 1.2581783589501180e+01 1.7600000000000001e+01 9.0397816286519586e+00 
1296 1297 2 1.0279999999999885e+00 1.7230851903463858e+03 1.0000000000000000e+00 1.2603859270583602e+01 1.7600000000000001e+01 9.5850473891096701e+00 
1173 1174 2 1.0280000000000025e+00 -2.6128779381986319e+03 1.0000000000000000e+00 1.4258716491853800e+01 1.7600000000000001e+01 8.1713272264944230e+00 
1010 1011 2 1.0279999999999967e+00 -1.3928749249397906e+03 1.0000000000000000e+00 1.5195153043687480e+01 1.7600000000000001e+01 7.6347990250960054e+00 
1096 1097 2 1.0280000000000014e+00 3.3553498420891092e+03 1.0000000000000000e+00 1.4843938908329815e+01 1.7600000000000001e+01 8.4895346576836914e+00 
1363 1364 2 1.0280000000000098e+00 -5.4218728982528110e+03 1.0000000000000000e+00 1.6640391748100669e+01 1.7600000000000001e+01 8.6365834708085689e+00 
1364 1365 2 1.0280000000000020e+00 -3.2103815375964559e+03 1.0000000000000000e+00 1.8827908675708652e+01 1.7600000000000001e+01 7.5540520673526554e+00 
1321 1322 2 1.0279999999999947e+00 -5.1163480510989211e+03 1.0000000000000000e+00 1.6743679584377350e+01 1.7600000000000001e+01 8.6980680677122848e+00 
1026 1027 2 1.0279999999999954e+00 4.9190840959127252e+02 1.0000000000000000e+00 1.9213824262315388e+01 1.7600000000000001e+01 8.5515253818102348e+00 
1057 1058 2 1.0280000000000002e+00 4.0692063460725069e+02 1.0000000000000000e+00 1.9298244799815713e+01 1.7600000000000001e+01 8.5773679754323471e+00 
1333 1334 2 1.0280000000000022e+00 2.1322081610193159e+03 1.0000000000000000e+00 2.1773548553891654e+01 1.7600000000000001e+01 7.8450128551265248e+00 
504 505 2 1.0280000000000038e+00 -6.0551978433288577e+03 1.0000000000000000e+00 2.1367852291062763e+00 1.3800000000000001e+01 1.1553207361873232e+01 
745 746 2 1.0279999999999951e+00 5.0824537003766463e+03 1.0000000000000000e+00 1.1797027134996911e+00 1.3800000000000001e+01 1.1841194125775770e+01 
846 847 2 1.0279999999999980e+00 5.7428502851902558e+03 1.0000000000000000e+00 2.9365633125611437e+00 1.3800000000000001e+01 1.1068382957328470e+01 
960 961 2 1.0280000000000022e+00 -7.9573715659982724e+01 1.0000000000000000e+00 3.9559207289671494e-01 1.7600000000000001e+01 1.1341156430005517e+01 
1385 1386 2 1.0280000000000000e+00 -2.4116770382233290e+03 1.0000000000000000e+00 3.9515868410392402e-01 1.7600000000000001e+01 1.1341425276274984e+01 
967 968 2 1.0279999999999905e+00 -1.1028536484524416e+03 1.0000000000000000e+00 3.4568209304528494e+00 1.7600000000000001e+01 1.1242307060854197e+01 
927 928 2 1.0280000000000158e+00 -4.9199570194205753e+03 1.0000000000000000e+00 2.6110806955583943e+00 1.7600000000000001e+01 1.1523734331278726e+01 
1382 1383 2 1.0280000000000038e+00 -7.2974518262615038e+03 1.0000000000000000e+00 2.8660508496055019e+00 1.7600000000000001e+01 1.1606148577120729e+01 
1059 1060 2 1.0279999999999974e+00 -6.6420073243514230e+02 1.0000000000000000e+00 6.1446536422374285e+00 1.7600000000000001e+01 1.0692566396479023e+01 
974 975 2 1.0279999999999967e+00 7.9400390965936203e+03 1.0000000000000000e+00 6.1447443437050300e+00 1.7600000000000001e+01 1.0692841239512193e+01 
1190 1191 2 1.0280000000000016e+00 1.0725959817671846e+04 1.0000000000000000e+00 6.4976875787178274e+00 1.7600000000000001e+01 1.1754241589589316e+01 
945 946 2 1.0280000000000058e+00 -3.5249482315544628e+03 1.0000000000000000e+00 8.5165684965918693e+00 1.7600000000000001e+01 1.0130513880888614e+01 
975 976 2 1.0280000000000018e+00 6.3868584841689390e+03 1.0000000000000000e+00 8.4291548805165544e+00 1.7600000000000001e+01 1.1742893338594163e+01 
969 970 2 1.0280000000000009e+00 -5.1878602124897407e+02 1.0000000000000000e+00 8.4302894698996997e+00 1.7600000000000001e+01 1.1763751779188620e+01 
1215 1216 2 1.0280000000000369e+00 3.1594103762538643e+03 1.0000000000000000e+00 1.1240136047140139e+01 1.7600000000000001e+01 1.1208114155726781e+01 
1267 1268 2 1.0279999999999363e+00 1.7167451344246683e+03 1.0000000000000000e+00 1.1268194576018958e+01 1.7600000000000001e+01 1.1269308114019230e+01 
1260 1261 2 1.0280000000000238e+00 -1.4065680504014172e+03 1.0000000000000000e+00 1.1518194354422411e+01 1.7600000000000001e+01 1.1311301894103476e+01 
1090 1091 2 1.0280000000000016e+00 -6.1536479239022424e+02 1.0000000000000000e+00 1.3847826929893966e+01 1.7600000000000001e+01 1.1428022903382249e+01 
1036 1037 2 1.0279999999999998e+00 -2.5640323319226927e+03 1.0000000000000000e+00 1.4368023848602242e+01 1.7600000000000001e+01 1.0738773240602020e+01 
1372 1373 2 1.0280000000000000e+00 -3.2121778120221034e+03 1.0000000000000000e+00 1.4368088386100847e+01 1.7600000000000001e+01 1.0738779326918115e+01 
1237 1238 2 1.0279999999999987e+00 3.8977633604231676e+02 1.0000000000000000e+00 1.6833170947685826e+01 1.7600000000000001e+01 1.0030201976885435e+01 
1152 1153 2 1.0280000000000016e+00 8.6183707610692309e+03 1.0000000000000000e+00 1.6765536081888946e+01 1.7600000000000001e+01 1.0072223673368773e+01 
1141 1142 2 1.0280000000000005e+00 1.5008976896704164e+03 1.0000000000000000e+00 1.7032049882771719e+01 1.7600000000000001e+01 1.1372992765433988e+01 
1154 1155 2 1.0280000000000007e+00 1.2413287023340596e+04 1.0000000000000000e+00 1.9716652478226806e+01 1.7600000000000001e+01 1.0377915527178343e+01 
993 994 2 1.0280000000000005e+00 -6.1791604165124845e+03 1.0000000000000000e+00 1.9717201961738677e+01 1.7600000000000001e+01 1.0378149798644621e+01 
991 992 2 1.0280000000000009e+00 -2.1507257459580565e+03 1.0000000000000000e+00 1.9717181906602306e+01 1.7600000000000001e+01 1.0378141248305264e+01 
1381 1382 2 1.0279999999999987e+00 -8.6764057036503691e+03 1.0000000000000000e+00 2.2012857976530380e+01 1.7600000000000001e+01 1.0047719956444162e+01 
1039 1040 2 1.0280000000000007e+00 -1.1084565593434814e+04 1.0000000000000000e+00 2.2380850434689449e+01 1.7600000000000001e+01 1.0531278865030794e+01 
1002 1003 2 1.0279999999999998e+00 7.3742287953735358e+03 1.0000000000000000e+00 2.2141105660982969e+01 1.7600000000000001e+01 1.0997930441120962e+01 
1379 1380 2 1.0279999999999996e+00 -2.7619064273352969e+03 1.0000000000000000e+00 2.2115911484542931e+01 1.7600000000000001e+01 1.1010658581058953e+01 
293 294 2 1.0279999999999958e+00 8.8139233234412131e+03 1.0000000000000000e+00 9.5756500302651437e-01 1.0000000000000000e+01 1.3414559443360927e+01 
108 109 2 1.0280000000000007e+00 -1.0840522335775899e+04 1.0000000000000000e+00 9.2414292376976304e-01 1.0000000000000000e+01 1.3418820349032600e+01 
18 19 2 1.0280000000000007e+00 -4.3764738296783507e+03 1.0000000000000000e+00 9.0870091357330518e-01 1.0000000000000000e+01 1.3422176255046464e+01 
210 211 2 1.0279999999999994e+00 -2.5231995982844192e+03 1.0000000000000000e+00 1.2238181119932836e+00 1.0000000000000000e+01 1.4225733841145869e+01 
283 284 2 1.0280000000000002e+00 5.0926691981954773e+03 1.0000000000000000e+00 5.7118924541005685e+00 1.0000000000000000e+01 1.3469373684259811e+01 
246 247 2 1.0280000000000002e+00 1.6283534115341113e+03 1.0000000000000000e+00 5.6941566520916806e+00 1.0000000000000000e+01 1.3477382597318568e+01 
320 321 2 1.0280000000000011e+00 -1.5945097514310264e+03 1.0000000000000000e+00 4.9319093527765014e+00 1.0000000000000000e+01 1.4186829731367716e+01 
228 229 2 1.0279999999999996e+00 8.6154504908080562e+03 1.0000000000000000e+00 7.2894122225731035e+00 1.0000000000000000e+01 1.3690554944282667e+01 
139 140 2 1.0279999999999996e+00 -5.9967952535777149e+03 1.0000000000000000e+00 7.2980337560627824e+00 1.0000000000000000e+01 1.3697717527776074e+01 
359 360 2 1.0279999999999991e+00 -8.6601173487255182e+03 1.0000000000000000e+00 8.5526762371707541e+00 1.0000000000000000e+01 1.3963684065350559e+01 
95 96 2 1.0280000000000005e+00 3.2196438473961193e+03 1.0000000000000000e+00 9.6549587113641291e+00 1.0000000000000000e+01 1.3928470972103481e+01 
227 228 2 1.0280000000000002e+00 5.1331666147167998e+03 1.0000000000000000e+00 9.9831739883201909e+00 1.0000000000000000e+01 1.4298311649675089e+01 
390 391 2 1.0279999999999998e+00 2.1383265834003823e+03 1.0000000000000000e+00 1.0040188297482388e+01 1.0000000000000000e+01 1.4478879496111427e+01 
567 568 2 1.0280000000000125e+00 -1.0974129637257338e+04 1.0000000000000000e+00 7.4358937571448969e-01 1.3800000000000001e+01 1.2950856908021002e+01 
672 673 2 1.0279999999999920e+00 -2.5153845745449180e+03 1.0000000000000000e+00 2.6377804800846136e+00 1.3800000000000001e+01 1.4318797670055490e+01 
780 781 2 1.0280000000000014e+00 2.6272461533082088e+02 1.0000000000000000e+00 3.4724375287769242e+00 1.3800000000000001e+01 1.4471856661207770e+01 
931 932 2 1.0279999999999971e+00 -1.5735007325185222e+02 1.0000000000000000e+00 1.0163255468274168e+00 1.7600000000000001e+01 1.3569863938109293e+01 
1261 1262 2 1.0279999999999925e+00 -5.6715687533522851e+03 1.0000000000000000e+00 1.0166670739216128e+00 1.7600000000000001e+01 1.3573633801335706e+01 
1198 1199 2 1.0279999999999982e+00 6.5039977996595017e+03 1.0000000000000000e+00 1.3138239210144134e+00 1.7600000000000001e+01 1.4305242768451988e+01 
1135 1136 2 1.0280000000000031e+00 -2.6096531458558620e+03 1.0000000000000000e+00 3.7625656666660996e+00 1.7600000000000001e+01 1.2787176117283998e+01 
1233 1234 2 1.0279999999999916e+00 -6.4640276176620068e+02 1.0000000000000000e+00 4.0569857459167267e+00 1.7600000000000001e+01 1.4549248021653163e+01 
938 939 2 1.0280000000000094e+00 -5.2788262362788464e+02 1.0000000000000000e+00 3.9075879035063044e+00 1.7600000000000001e+01 1.4960505864604583e+01 
1138 1139 2 1.0280000000000062e+00 -2.8028990104371969e+03 1.0000000000000000e+00 4.6120172242494224e+00 1.7600000000000001e+01 1.2995217211918243e+01 
1104 1105 2 1.0279999999999982e+00 5.2142211822310965e+03 1.0000000000000000e+00 6.6910250911900562e+00 1.7600000000000001e+01 1.3037589913678426e+01 
1302 1303 2 1.0280000000000002e+00 -5.6638020635487574e+03 1.0000000000000000e+00 5.2843263040632671e+00 1.7600000000000001e+01 1.3489547102910185e+01 
1221 1222 2 1.0279999999999991e+00 -6.2190803790475229e+02 1.0000000000000000e+00 6.7722444557624790e+00 1.7600000000000001e+01 1.4640986187771345e+01 
1148 1149 2 1.0280000000000014e+00 1.0691982110671079e+04 1.0000000000000000e+00 8.4734731038885140e+00 1.7600000000000001e+01 1.3261781344422653e+01 
1145 1146 2 1.0279999999999991e+00 9.9255812241807544e+03 1.0000000000000000e+00 7.1457557463611758e+00 1.7600000000000001e+01 1.4925648942028864e+01 
1139 1140 2 1.0279999999999994e+00 -6.5346022320251759e+03 1.0000000000000000e+00 7.1457375142795208e+00 1.7600000000000001e+01 1.4925635306326109e+01 
1185 1186 2 1.0279999999999994e+00 2.5946019506945704e+03 1.0000000000000000e+00 9.3236417633757078e+00 1.7600000000000001e+01 1.3385505077776056e+01 
1027 1028 2 1.0280000000000018e+00 -1.0770992869386951e+04 1.0000000000000000e+00 1.1100829232747683e+01 1.7600000000000001e+01 1.3241885538652847e+01 
949 950 2 1.0280000000000051e+00 -4.2892644795006900e+03 1.0000000000000000e+00 1.1076561752708582e+01 1.7600000000000001e+01 1.3297812158012530e+01 
976 977 2 1.0279999999999980e+00 4.3239404602457162e+03 1.0000000000000000e+00 1.0717526979263784e+01 1.7600000000000001e+01 1.4462494478428114e+01 
1222 1223 2 1.0279999999999991e+00 -1.6196096784365586e+03 1.0000000000000000e+00 1.3036612826663145e+01 1.7600000000000001e+01 1.4382464005152524e+01 
1263 1264 2 1.0279999999999996e+00 -5.1397446348479334e+03 1.0000000000000000e+00 1.3030351857899060e+01 1.7600000000000001e+01 1.4383780914228325e+01 
1257 1258 2 1.0280000000000000e+00 -1.6312762168599379e+03 1.0000000000000000e+00 1.4769269335002736e+01 1.7600000000000001e+01 1.2587590247589675e+01 
1300 1301 2 1.0280000000000005e+00 -5.2585656132480653e+03 1.0000000000000000e+00 1.4769341448172048e+01 1.7600000000000001e+01 1.2587561239876111e+01 
1345 1346 2 1.0279999999999989e+00 -6.5104462792219456e+03 1.0000000000000000e+00 1.6502001878908857e+01 1.7600000000000001e+01 1.2609811444424313e+01 
1301 1302 2 1.0280000000000016e+00 -1.4540895086459500e+03 1.0000000000000000e+00 1.4387140697675397e+01 1.7600000000000001e+01 1.4385209161007072e+01 
1172 1173 2 1.0279999999999985e+00 -5.9373042238616326e+03 1.0000000000000000e+00 1.5165845832403908e+01 1.7600000000000001e+01 1.4894087063627795e+01 
1030 1031 2 1.0280000000000011e+00 -1.1055214200294256e+04 1.0000000000000000e+00 1.7976427872617872e+01 1.7600000000000001e+01 1.2753740218806316e+01 
1067 1068 2 1.0280000000000011e+00 -1.5590807531716059e+03 1.0000000000000000e+00 1.7974266010530002e+01 1.7600000000000001e+01 1.2757835516830172e+01 
1144 1145 2 1.0279999999999940e+00 5.2520561894584253e+03 1.0000000000000000e+00 1.7768081455953162e+01 1.7600000000000001e+01 1.2991126175409487e+01 
287 288 2 1.0280000000000014e+00 6.6556967951467377e+03 1.0000000000000000e+00 1.8347214495959707e+00 1.0000000000000000e+01 1.6206383149102685e+01 
122 123 2 1.0280000000000007e+00 -9.2605791517634188e+03 1.0000000000000000e+00 8.2320030548569978e-01 1.0000000000000000e+01 1.6972790212898051e+01 
419 420 2 1.0279999999999980e+00 5.5855213155306574e+03 1.0000000000000000e+00 2.0057661434945491e+00 1.0000000000000000e+01 1.6232996687975671e+01 
368 369 2 1.0280000000000018e+00 3.2899773030008746e+03 1.0000000000000000e+00 3.4814034181429290e+00 1.0000000000000000e+01 1.6570554158020688e+01 
231 232 2 1.0279999999999989e+00 1.0803115867949884e+04 1.0000000000000000e+00 4.4546973984655454e+00 1.0000000000000000e+01 1.5553917350590980e+01 