LAMMPS data file via write_data, version 30 Jul 2016, timestep = 50000000

2700 atoms
2 atom types

0.0000000000000000e+00 2.0000000000000000e+01 xlo xhi
0.0000000000000000e+00 2.0000000000000000e+01 ylo yhi
0.0000000000000000e+00 2.0000000000000000e+01 zlo zhi

Masses

1 3.896
2 5

Atoms # meso-molecular

420 1 1 1.2844782225386884e+00 1.6301289555058363e+04 1.0000000000000000e+00 2.1790291883204622e+00 1.8177404488432978e+00 3.7428134228858267e-01 
1619 1 1 1.2755508390637540e+00 3.5521625028676135e+04 1.0000000000000000e+00 1.0745972662253520e+00 1.8844305854812891e+00 1.2534028682160552e+00 
1004 1 1 1.6817388474888497e+00 -4.1294938482888001e+03 1.0000000000000000e+00 2.5826636242870599e-01 1.1494358728034295e+00 7.0633227612567251e-01 
2018 1 1 1.5703219598947338e+00 9.9971116546046978e+03 1.0000000000000000e+00 3.3695505215339590e+00 1.1514695944380438e+00 1.9398290826585948e-01 
2537 1 1 1.5025875211173745e+00 -4.1365278810321399e+01 1.0000000000000000e+00 2.7029465128821832e+00 1.0595181445390289e+00 1.1127711950258292e+00 
1274 1 1 1.7123537839706655e+00 -1.6302925024762344e+04 1.0000000000000000e+00 4.2360227474159391e+00 5.5299333447598709e-01 8.1864041946986854e-01 
1512 1 1 2.2861438563780805e+00 -1.7035362186582825e+04 1.0000000000000000e+00 4.9553702755041016e+00 3.6757495312986194e-01 3.7226351885901066e-01 
957 1 1 2.2512331866141806e+00 -6.4356964930708125e+02 1.0000000000000000e+00 6.1745798519643103e+00 9.2832210032164508e-01 1.0880508172416871e-01 
571 1 1 1.3729145665549574e+00 -7.0032521784087694e+03 1.0000000000000000e+00 4.5798806962568266e+00 9.7585813606371652e-01 1.4988290377840359e+00 
2162 1 1 2.7931687598889545e+00 -1.9597905178198321e+01 1.0000000000000000e+00 6.3626098783519183e+00 1.9747229966536510e+00 1.5330246202294646e+00 
1111 1 1 2.6069230910439543e+00 -8.2479770471213214e+03 1.0000000000000000e+00 5.9874767376137026e+00 1.4674484435886384e-01 6.3279871596748316e-01 
813 1 1 1.3530022275976041e+00 -6.0111331511043818e+02 1.0000000000000000e+00 2.4670740503165642e-01 2.2933863627995335e+00 6.7610187962835222e-01 
685 1 1 2.2763089272684853e+00 2.1917074025452248e+03 1.0000000000000000e+00 3.1541591668988240e+00 2.3149355843949020e+00 1.8174654028316308e+00 
1476 1 1 2.0929435865699877e+00 1.1161923980940719e+03 1.0000000000000000e+00 2.9388579779543296e+00 3.0593229973545442e+00 1.9277981190449891e+00 
1224 1 1 1.0314346882412948e+00 -5.8901680765248170e+02 1.0000000000000000e+00 5.0746747734749871e+00 3.8463964821104715e+00 4.4618358228663363e-01 
378 1 1 2.9583578210175703e+00 4.6097972802922131e+03 1.0000000000000000e+00 6.5691072541480580e+00 2.0198200262715584e+00 1.6543873779308680e+00 
501 1 1 2.6813929577486530e+00 -1.0466774536904801e+04 1.0000000000000000e+00 6.1415321892780490e+00 2.6497106320505002e+00 1.6108035066003046e+00 
927 1 1 2.3048150411333195e+00 -4.7282288386665887e+03 1.0000000000000000e+00 6.4316840564160787e+00 2.8993774751011512e+00 7.3598164713689951e-01 
2237 1 1 1.3362480465952373e+00 -3.3392000826931530e+03 1.0000000000000000e+00 2.2475141448520272e-01 5.3834656412103907e+00 1.4742694720780110e-02 
1835 1 1 1.1059526339436632e+00 -1.0288975134883369e+04 1.0000000000000000e+00 1.6701196930629980e+00 4.3271920531734045e+00 1.9635422877976947e+00 
146 1 1 1.0966152553251420e+00 2.5072435904284621e+03 1.0000000000000000e+00 4.0867575895848607e-01 4.3494649261577036e+00 2.1448458816769189e-01 
459 1 1 1.0970530379428631e+00 -8.0821395371004119e+03 1.0000000000000000e+00 4.3298087144460824e-02 4.9456834301373194e+00 1.4209094925549683e+00 
418 1 1 1.3013162768178097e+00 8.9087526882262810e+03 1.0000000000000000e+00 2.5925466398566841e+00 4.0503201560496489e+00 1.9198631501575667e+00 
1867 1 1 1.7014486841946626e+00 -1.4215397955259692e+04 1.0000000000000000e+00 5.7683349354783884e+00 4.0767247890527099e+00 1.8254310586984102e+00 
1765 1 1 2.0561017075924819e+00 7.1418606173687549e+03 1.0000000000000000e+00 6.6555344198964503e+00 4.4421293022051689e+00 7.5183765828238058e-01 
1059 1 1 2.0152459374679452e+00 3.4506047235607653e+03 1.0000000000000000e+00 6.6249587107539787e+00 4.6053165722680678e+00 8.7989479679089611e-01 
2403 1 1 1.7029843050348645e+00 -5.2622945842960798e+03 1.0000000000000000e+00 1.3093497938775933e-01 6.1323987856709108e+00 1.7566046849748078e+00 
1015 1 1 1.3906077647523065e+00 2.4593703341708128e+03 1.0000000000000000e+00 6.1872644219315109e+00 6.5629416042246635e+00 4.2631248988203096e-01 
1920 1 1 1.9537016842972541e+00 -1.4218804802467278e+03 1.0000000000000000e+00 6.2594494913031040e+00 7.9152722024452817e+00 5.0435205003360650e-01 
768 1 1 2.1414871332031744e+00 2.8921146217137716e+03 1.0000000000000000e+00 5.3258507012196645e+00 7.6433762034364907e+00 6.7666016569144016e-01 
58 1 1 1.4795560435366673e+00 2.6265004076803916e+03 1.0000000000000000e+00 4.8827110702503882e+00 7.1175681190548810e+00 4.7769187230312959e-01 
1377 1 1 2.0771086177222240e+00 5.0038554809845737e+03 1.0000000000000000e+00 4.9982626782102848e+00 7.8154734675908912e+00 1.5820141954958153e+00 
1584 1 1 1.3912703108437361e+00 5.7739430417564417e+03 1.0000000000000000e+00 5.9678422505214812e-01 9.0968394234888734e+00 5.4023004291702216e-03 
79 1 1 1.2154612882443077e+00 -3.3814622940243447e+02 1.0000000000000000e+00 1.1996795375184524e+00 9.7725981073153196e+00 1.3735138407985652e+00 
513 1 1 1.0474031299100452e+00 1.0318106846477167e+04 1.0000000000000000e+00 2.0408188234853406e+00 8.5215950666597138e+00 5.9429900075188424e-01 
581 1 1 1.5553257976316011e+00 -1.3870655330210250e+03 1.0000000000000000e+00 1.4049905895712322e+00 9.8639701427958109e+00 1.0038986422293585e-01 
1414 1 1 1.5192928493970768e+00 4.5957584727120252e+02 1.0000000000000000e+00 3.2330425432957339e+00 9.8999991054781091e+00 1.1154822454743605e+00 
1392 1 1 1.8255142229599073e+00 -1.6074643068779329e+04 1.0000000000000000e+00 4.0292855149520088e+00 8.0052993229284759e+00 1.3675492551263657e+00 
2681 1 1 1.6815767144821083e+00 1.7012017301665655e+03 1.0000000000000000e+00 3.5354438216522071e+00 9.0894237364727228e+00 7.5625895195433823e-01 
119 1 1 1.4533731991224594e+00 8.9906049338492949e+02 1.0000000000000000e+00 3.2798030869055235e+00 9.2760496901798266e+00 4.6708059851719053e-01 
2102 1 1 2.1856530367929445e+00 -6.1155677920363523e+03 1.0000000000000000e+00 4.8899504086977448e+00 8.4544969583952216e+00 1.9894199505176959e+00 
2364 1 1 2.5186608824140260e+00 1.2149555812796518e+04 1.0000000000000000e+00 4.7155262329289229e+00 8.5150949920681231e+00 1.3321007776950000e+00 
64 1 1 2.3238752571815962e+00 8.7023769213529067e+03 1.0000000000000000e+00 5.5520682379652300e+00 9.1542765733649407e+00 8.2355946221801746e-01 
2314 1 1 2.2580110420303035e+00 -5.9589415486298212e+03 1.0000000000000000e+00 5.3097632719577383e+00 9.2076591801998546e+00 1.6903446092086196e+00 
426 1 1 2.0921711891343562e+00 -8.9855946092789727e+03 1.0000000000000000e+00 5.6979285727776681e+00 9.1902675695554699e+00 1.3495579324245188e+00 
2411 1 1 2.4474105659623993e+00 -5.9921757733393342e+03 1.0000000000000000e+00 5.5650587089640089e+00 8.3414244502256363e+00 6.4826545316015627e-01 
1418 1 1 9.2648396495380370e-01 -3.0010841491665028e+03 1.0000000000000000e+00 2.1675445398011877e+00 4.3432462909913017e-01 2.9071677511090579e+00 
2137 1 1 1.9746720894926892e+00 -7.1868719502934482e+03 1.0000000000000000e+00 2.8608960604605969e+00 1.5793036805817551e+00 2.2648268075555089e+00 
779 1 1 1.2049521882316503e+00 -1.9160368118174822e+04 1.0000000000000000e+00 2.3693900373850298e+00 2.0448299722816088e-01 2.0183330650518525e+00 
155 1 1 1.8726605872153639e+00 -1.0988330045499762e+04 1.0000000000000000e+00 5.3701306320790403e+00 1.9469397996295339e+00 2.3727234268499755e+00 
491 1 1 8.1008947241632523e-01 -4.7881057633634384e+02 1.0000000000000000e+00 8.7971542137307501e-01 3.0611222550138395e+00 3.4650452275768706e+00 
1202 1 1 1.9102565929127997e+00 -3.4627644511115936e+03 1.0000000000000000e+00 2.5099193192864369e+00 2.2710988671239742e+00 2.7273456492811570e+00 
91 1 1 2.0115060645812619e+00 5.7834203154865399e+03 1.0000000000000000e+00 3.8346945139360140e+00 2.9480387972329756e+00 2.2266332558805213e+00 
321 1 1 2.3572583570841910e+00 -6.6410379692232264e+03 1.0000000000000000e+00 3.0855553628165264e+00 2.5741409934929305e+00 2.1144540131561889e+00 
2074 1 1 2.3147422176463319e+00 -7.4273591116791349e+03 1.0000000000000000e+00 2.8543404214057730e+00 2.4188146515865556e+00 2.0015503982340137e+00 
2526 1 1 1.5685142843204725e+00 1.5895552612950385e+04 1.0000000000000000e+00 2.6544800499400814e+00 2.1981267671290334e+00 3.1686543471851194e+00 
63 1 1 1.6433488863318562e+00 -1.1907108568971453e+04 1.0000000000000000e+00 4.4556355935882035e+00 2.7370916879558247e+00 2.8114664501098070e+00 
2640 1 1 1.7070757972892989e+00 -2.4173533104332864e+03 1.0000000000000000e+00 6.2251648495724252e+00 3.6005844016861461e+00 3.0684357256124404e+00 
1744 1 1 2.2618478784872136e+00 -7.8743855694617187e+03 1.0000000000000000e+00 5.6617947240878177e+00 2.5674476525977874e+00 2.3025816957044154e+00 
209 1 1 1.1236814508477238e+00 -2.6767186186615777e+03 1.0000000000000000e+00 5.7839144309605466e+00 2.0073645284950521e+00 3.6927518224746381e+00 
2491 1 1 1.6863426686715099e+00 7.8877339765170575e+02 1.0000000000000000e+00 4.4632295162563000e+00 3.0977037387208597e+00 2.2665484494946515e+00 
117 1 1 1.3928136838542695e+00 2.2278586774828531e+04 1.0000000000000000e+00 2.0117723641386700e+00 4.5143276388746738e+00 2.9445916427048342e+00 
270 1 1 1.8356757341383114e+00 8.9553551926004229e+02 1.0000000000000000e+00 1.7881134103568591e-01 5.9585450327545697e+00 2.7428308670501216e+00 
1162 1 1 1.0733225897192114e+00 -1.7536343945346164e+03 1.0000000000000000e+00 6.1547562636202857e-01 4.1371862775757977e+00 3.7536385902962790e+00 
250 1 1 1.2742472578192960e+00 4.0652369570670844e+03 1.0000000000000000e+00 8.6928757638861232e-01 4.4094952027972409e+00 2.8860530666785436e+00 
2646 1 1 2.0024169989958258e+00 -3.4077990666157734e+03 1.0000000000000000e+00 1.9105975030790270e+00 5.9307077352467088e+00 3.9581586125039112e+00 
895 1 1 1.7269737098142126e+00 1.5552163056808467e+03 1.0000000000000000e+00 2.7344836484711110e+00 5.1860703639809271e+00 3.4666658102037018e+00 
1330 1 1 1.4432342063082948e+00 -2.2171698717309351e+04 1.0000000000000000e+00 2.9035280247387054e+00 5.9778800478503920e+00 2.6165520805439302e+00 
1573 1 1 1.1117577347927683e+00 4.7997300562868950e+03 1.0000000000000000e+00 4.4780601673193789e+00 5.9404224483985377e+00 2.6101666810805275e+00 
2255 1 1 1.1412072961911928e+00 -1.2334192353294658e+04 1.0000000000000000e+00 5.2363872312656019e+00 5.4572706838991554e+00 2.3304533483753698e+00 
1365 1 1 1.6109714032879601e+00 2.9063608023476090e+03 1.0000000000000000e+00 6.0038589024248106e+00 4.5903428439198750e+00 2.9999874305309762e+00 
172 1 1 1.7996637223484524e+00 -1.5408391054956046e+04 1.0000000000000000e+00 6.4703129271240165e+00 4.5372444570225356e+00 3.2728757231175059e+00 
649 1 1 2.0302646041250747e+00 -8.8033976911219426e+01 1.0000000000000000e+00 1.4002768791322364e+00 6.7990222702685799e+00 2.9790562026348271e+00 
1705 1 1 1.6600654805651380e+00 6.6694363082779109e+03 1.0000000000000000e+00 1.8807500874562602e+00 6.9253312868262977e+00 2.3650236471578809e+00 
2407 1 1 1.5116609123404685e+00 -4.0492918626666761e+02 1.0000000000000000e+00 1.2520445739282828e+00 7.9764500533171629e+00 2.6685892301857175e+00 
2437 1 1 2.0694250338874212e+00 7.2373944360766927e+03 1.0000000000000000e+00 1.3423192923141489e-01 6.7634437367027358e+00 3.7411161455610507e+00 
145 1 1 2.1386518857274965e+00 2.8476577871925924e+03 1.0000000000000000e+00 3.0137692464821170e-01 6.8589388790969883e+00 3.0871525156534259e+00 
1479 1 1 1.9928407006873441e+00 -1.4624743644280916e+04 1.0000000000000000e+00 8.0391364551273374e-03 6.4958966416605737e+00 2.1267454971404893e+00 
1129 1 1 1.6305657213260873e+00 -1.0778623490643669e+04 1.0000000000000000e+00 2.4165965534845073e+00 7.7558634763928769e+00 2.1240861208752739e+00 
1654 1 1 2.0248474180891827e+00 1.0416786325248102e+04 1.0000000000000000e+00 2.8524065005950279e+00 6.8145871416897297e+00 3.4784670341702317e+00 
1104 1 1 1.6652362067347515e+00 -1.5129963758648964e+04 1.0000000000000000e+00 3.1441531959669979e+00 7.2860355630881637e+00 3.3746874735832693e+00 
521 1 1 1.0302387221970435e+00 -8.8644148941761487e+03 1.0000000000000000e+00 5.5799369035078508e+00 6.1799543647512936e+00 2.4786052043108437e+00 
1101 1 1 1.4803201007255167e+00 -1.0731111465567287e+03 1.0000000000000000e+00 1.8617113345673966e+00 8.2493415513979524e+00 3.3545763663523092e+00 
432 1 1 1.5320021794692953e+00 -4.4288205748439859e+03 1.0000000000000000e+00 2.7221300946598421e+00 8.4729099508588348e+00 2.0564326680312637e+00 
274 1 1 1.6038432358322425e+00 -9.0583863408641373e+03 1.0000000000000000e+00 2.8020410996168374e+00 8.0685739775215772e+00 2.7555767564606772e+00 
2207 1 1 1.9371710718383917e+00 -3.4862388043238957e+03 1.0000000000000000e+00 4.6320976808420617e+00 9.6139153462660971e+00 2.1867800325021238e+00 
848 1 1 1.7472596807655567e+00 8.3012616465625779e+03 1.0000000000000000e+00 4.7769512100765192e+00 9.1172100676297294e+00 2.5857241294225450e+00 
1047 1 1 1.4328988148276056e+00 6.9094427909524512e+01 1.0000000000000000e+00 5.4216112649174493e+00 8.9237660820291662e+00 3.5281689855372482e+00 
1371 1 1 7.0890172133347373e-01 2.5250398998470214e+03 1.0000000000000000e+00 3.6248810210017210e+00 4.6392607795002483e-01 5.1464596813499321e+00 
2551 1 1 7.1407366305897935e-01 1.9144076206089112e+03 1.0000000000000000e+00 3.7774800548914782e+00 8.3415664377645093e-01 5.2282131144807069e+00 
2508 1 1 1.0670064607825047e+00 -4.0185648255202244e+02 1.0000000000000000e+00 5.9850427742667947e+00 2.8081631562363030e-01 5.1705527732721750e+00 
2163 1 1 8.2877691392158803e-01 -8.0230025301848073e+03 1.0000000000000000e+00 1.9699572165954999e+00 2.1100645108614380e+00 5.4782705670088516e+00 
2079 1 1 8.7694437341271270e-01 3.9493460814812765e+03 1.0000000000000000e+00 1.0752482837650608e+00 2.6461846552758588e+00 5.4042297130854378e+00 
1348 1 1 1.3755497729550372e+00 7.0217229962796628e+03 1.0000000000000000e+00 3.6360548944910671e+00 3.2482177347889403e+00 4.7644466090391075e+00 
845 1 1 1.3125376401555595e+00 -7.5013199038033708e+03 1.0000000000000000e+00 3.6762267875410233e+00 3.1559922993857645e+00 4.5662171387821768e+00 
2322 1 1 1.4239595632088773e+00 -1.1459536298524650e+04 1.0000000000000000e+00 3.6732935368036497e+00 3.2867524628616995e+00 4.9274651319184537e+00 
617 1 1 1.2579452745101416e+00 3.3276885255758257e+03 1.0000000000000000e+00 5.7383300453452568e+00 2.4877259912621961e+00 5.6513023868573731e+00 
679 1 1 1.9971082562707816e+00 8.1301277525305511e+02 1.0000000000000000e+00 6.3123002900153571e+00 3.0615383108511600e+00 5.3384826880470442e+00 
1759 1 1 1.6403125241099012e+00 4.2337006398144567e+03 1.0000000000000000e+00 5.4402488230486066e+00 3.8329094386849110e+00 4.6998774995861936e+00 
1625 1 1 8.8622320641050534e-01 -6.6231705614202256e+03 1.0000000000000000e+00 1.2877663684651421e+00 4.6421346221935140e+00 5.2440397091164606e+00 
1763 1 1 1.7325368649502053e+00 1.4320468234751590e+03 1.0000000000000000e+00 3.5653152763063267e+00 5.3584481517589255e+00 4.0175760090828518e+00 
686 1 1 1.5907569603016889e+00 -1.3630639712678114e+04 1.0000000000000000e+00 3.0475862342275351e+00 5.0103056766033163e+00 4.1750316083734145e+00 
1622 1 1 1.7404195799841231e+00 -7.9903843237455167e+03 1.0000000000000000e+00 4.9984625393136159e+00 4.1905304481279328e+00 5.6820515575744617e+00 
2460 1 1 1.3939554231794238e+00 1.0871267330459970e+04 1.0000000000000000e+00 4.7617368632980011e+00 4.6729418552920379e+00 4.0481032805325903e+00 
664 1 1 1.0614454923698651e+00 -2.1409941944572154e+04 1.0000000000000000e+00 4.8999677979780500e+00 5.7793088418744309e+00 5.7091088014065017e+00 
1819 1 1 1.7399160506325335e+00 -1.8033667931191616e+04 1.0000000000000000e+00 4.8154987626645713e+00 4.4919976393606751e+00 5.3165377646329608e+00 
2554 1 1 1.4306485266673170e+00 -1.9651067133421816e+03 1.0000000000000000e+00 5.6924917571024380e+00 5.1624065151702778e+00 5.4990958482407164e+00 
1039 1 1 1.8239186774488576e+00 2.2403758694750184e+02 1.0000000000000000e+00 6.4812205775967069e-01 7.4742549206389350e+00 5.2869977264643833e+00 
790 1 1 2.0137461299506203e+00 -3.9663702311964023e+01 1.0000000000000000e+00 2.7037926710264903e-01 6.8282708062534692e+00 4.2069019765541587e+00 
894 1 1 1.9375770922572169e+00 8.0195629521330638e+03 1.0000000000000000e+00 8.1037970589989586e-02 7.3729168943575170e+00 5.1191475306666572e+00 
1611 1 1 1.6721690747055100e+00 -1.3699305377254434e+04 1.0000000000000000e+00 2.1958836034368594e+00 6.6469030539744214e+00 4.7600030415378605e+00 
801 1 1 1.8194039716438930e+00 2.4848234754345831e+03 1.0000000000000000e+00 1.5548896036772921e+00 6.3520611610818696e+00 4.6047555224247070e+00 
2342 1 1 1.8420125687205036e+00 -1.7516584115478458e+04 1.0000000000000000e+00 1.7079841207332482e+00 6.1539830141099170e+00 4.4723342188906248e+00 
81 1 1 1.6319917167335327e+00 -4.8556615279655925e+03 1.0000000000000000e+00 3.8415329234127769e+00 6.3116912173425748e+00 4.1382115041753629e+00 
394 1 1 1.5996420033977095e+00 8.0263005333288311e+03 1.0000000000000000e+00 3.8694906317176025e+00 6.2093766565275894e+00 4.3134505577970508e+00 
176 1 1 1.2652425026620933e+00 -3.2643415073196138e+03 1.0000000000000000e+00 3.5974648156907860e+00 7.2374506055848036e+00 5.4997249620815856e+00 
1591 1 1 1.4509570060423755e+00 -1.1406906429896440e+04 1.0000000000000000e+00 5.4950537146354375e+00 7.5548099273568132e+00 5.6437794593971651e+00 
1023 1 1 1.3754164543981990e+00 -1.2393276612686286e+04 1.0000000000000000e+00 7.7173989851046276e-01 8.7972700468551412e+00 4.1980992234696837e+00 
1030 1 1 1.5605106159071460e+00 -1.0430540064481378e+04 1.0000000000000000e+00 1.1797889417599685e+00 8.3090231455393226e+00 4.9574341124011045e+00 
500 1 1 2.0203569511753865e+00 -2.6610930384502854e+01 1.0000000000000000e+00 3.5464161507262109e+00 9.0589445172381460e+00 5.4783755412070407e+00 
1921 1 1 1.6802285543421036e+00 -3.6006641028738286e+03 1.0000000000000000e+00 3.5780405754971940e+00 8.0093865550218997e+00 5.3545454318798971e+00 
2430 1 1 1.2380405019011753e+00 6.3380992153975740e+03 1.0000000000000000e+00 4.0839190788276083e+00 9.2393628837932429e+00 4.3629662824080881e+00 
1603 1 1 1.3401210750135408e+00 -2.1262714275768749e+03 1.0000000000000000e+00 2.3818750092238852e+00 8.8108439835376480e+00 4.9691909119111086e+00 
1264 1 1 2.0403761302689856e+00 6.2598520830318157e+03 1.0000000000000000e+00 3.7665239939581570e+00 9.1905739991696240e+00 5.5863829883422751e+00 
553 1 1 1.6098207353567415e+00 2.0319575285126818e+03 1.0000000000000000e+00 3.6285730545375570e+00 9.9405642013658611e+00 5.5952278624578540e+00 
455 1 1 2.1538867302566667e+00 -7.6007774764352162e+03 1.0000000000000000e+00 4.1702661005028991e+00 8.6110728865337265e+00 5.6757873873473796e+00 
1787 1 1 1.5045234054398642e+00 -1.4723362441477550e+03 1.0000000000000000e+00 5.5325862996732447e+00 8.6424381898853753e+00 4.3429261092734732e+00 
111 1 1 1.6715157315214395e+00 -8.3879652836626501e+03 1.0000000000000000e+00 6.3465539004005693e+00 8.9441848642618762e+00 5.8695056804045036e+00 
784 1 1 1.8203561056259059e+00 -3.4442969864666270e+03 1.0000000000000000e+00 6.4835169390875240e+00 8.9771755998926412e+00 4.2011625819066865e+00 
1629 1 1 1.7137491315218767e+00 -1.1992487782321859e+04 1.0000000000000000e+00 6.2194276995843571e+00 8.7290649879838575e+00 4.3179094296503973e+00 
1094 1 1 1.7154402369106250e+00 3.4529934541784787e+03 1.0000000000000000e+00 5.9214179123733999e+00 3.4841565640857761e-02 6.4079633428546696e+00 
3 1 1 1.1931448484364076e+00 -5.1834502273427306e+03 1.0000000000000000e+00 5.4738562790485688e+00 3.9142647523026436e-01 7.5325623742735974e+00 
618 1 1 1.8985515926555581e+00 -3.7743531864402198e+03 1.0000000000000000e+00 6.6593837203710660e+00 1.7489052771744502e+00 7.9792222944550621e+00 
1008 1 1 1.0305998145743132e+00 1.1018332083557530e+04 1.0000000000000000e+00 1.6979353715599470e+00 2.5745408660862932e+00 7.6065907007750946e+00 
1698 1 1 1.2396166265602806e+00 5.6982389391227514e+02 1.0000000000000000e+00 2.9527271472654868e+00 2.7109024344392765e+00 6.0979545874704089e+00 
80 1 1 1.0035719207491165e+00 -5.3992387181847789e+03 1.0000000000000000e+00 4.0548793508702934e+00 3.5262098635052381e+00 7.5777408795923780e+00 
1223 1 1 1.0407251318363215e+00 5.8942990792345836e+03 1.0000000000000000e+00 3.5500549303483213e+00 2.0932443235644040e+00 7.3461423837508297e+00 
2682 1 1 1.2164130021782968e+00 -1.8304679311999444e+04 1.0000000000000000e+00 2.8259700221602442e+00 2.7819980287317332e+00 6.5742817617083915e+00 
1384 1 1 8.4215408425224880e-01 4.4368712995458363e+03 1.0000000000000000e+00 4.7012831564374755e+00 2.0833970587994797e+00 7.1352262446782992e+00 
1367 1 1 1.1066048004709352e+00 -2.5925393059720082e+03 1.0000000000000000e+00 1.9454049376962166e+00 4.8525038731695753e+00 7.0894758216609359e+00 
2215 1 1 1.2824286263527789e+00 7.3151753993771508e+03 1.0000000000000000e+00 7.6352769243771290e-01 5.6495919074779613e+00 6.1638709180559825e+00 
645 1 1 1.1943510118357459e+00 1.4345750161857852e+04 1.0000000000000000e+00 6.6632703436813812e-01 5.5113489340241761e+00 7.1708619668747575e+00 
1153 1 1 1.1380213424451708e+00 6.5879629518835300e+03 1.0000000000000000e+00 1.9353101307804492e+00 4.8316937075612953e+00 6.6081453299229311e+00 
1033 1 1 1.0505978368373661e+00 1.6368458301057804e+04 1.0000000000000000e+00 3.9364568183205834e-01 4.8692778063348703e+00 7.1145885028643319e+00 
1831 1 1 1.3417381120490888e+00 -1.6306248121362640e+04 1.0000000000000000e+00 4.2290637147120718e+00 4.1269218704753179e+00 6.1314677408064222e+00 
299 1 1 7.2900783893501320e-01 8.4452553265717816e+03 1.0000000000000000e+00 3.4162653982930289e+00 5.2443445540681761e+00 6.6807789816657399e+00 
1360 1 1 1.8621834475725016e+00 2.0713645040282418e+02 1.0000000000000000e+00 6.4503224168690183e+00 4.2269610332495464e+00 6.3600448815801069e+00 
480 1 1 1.5541121641628717e+00 1.0780851060527908e+04 1.0000000000000000e+00 6.0899066097752963e-01 7.3855222455292600e+00 6.3016493119520298e+00 
448 1 1 1.1710348985750401e+00 1.0869069334304710e+04 1.0000000000000000e+00 1.0989293301330374e+00 6.4782502685979715e+00 6.8518128649305199e+00 
2099 1 1 1.2021022740044895e+00 -4.6155530717687561e+03 1.0000000000000000e+00 1.1323873867048373e+00 7.6749241947928111e+00 7.8151003807600405e+00 
1929 1 1 2.0849422555332224e+00 -1.6337957556816222e+04 1.0000000000000000e+00 4.3264327200055313e+00 7.9320820649591486e+00 6.6191223414834948e+00 
2698 1 1 2.1566875354021970e+00 2.2690366140799988e+03 1.0000000000000000e+00 5.8699031279599030e+00 7.5970460381161757e+00 7.6424871614594956e+00 
333 1 1 1.7784035486705692e+00 -6.9700781940975485e+03 1.0000000000000000e+00 6.4710842149407508e+00 7.2829696102320236e+00 7.8054956752021578e+00 
2604 1 1 1.5320995078581174e+00 -4.8955150004807938e+03 1.0000000000000000e+00 5.3343313678759472e+00 6.7068206656797873e+00 7.8450838149149176e+00 
1907 1 1 1.6960617350619442e+00 7.1747926896841900e+03 1.0000000000000000e+00 6.6221721973903973e+00 7.4137324431714973e+00 6.7561342395188628e+00 
2311 1 1 1.8449851225097287e+00 -9.2470009059227177e+03 1.0000000000000000e+00 1.1633989668981222e+00 8.6431549770876046e+00 7.5518907470133669e+00 
235 1 1 2.0112199732151086e+00 -4.0729375807335391e+03 1.0000000000000000e+00 1.3473956224216090e+00 8.9934565864242870e+00 6.8741786131548643e+00 
1343 1 1 1.9041607385503014e+00 -8.7846640205368240e+03 1.0000000000000000e+00 1.2016252726584900e+00 8.5664021853920804e+00 6.7430085504816448e+00 
2595 1 1 1.9099147659516920e+00 1.1488003095619015e+04 1.0000000000000000e+00 7.3189102031402720e-01 8.8409194919449732e+00 6.0555792589215125e+00 
2064 1 1 1.9599867035849743e+00 3.8284284183790983e+03 1.0000000000000000e+00 2.9054398208345971e+00 8.5642365563188463e+00 7.1799841596280007e+00 
1634 1 1 2.2613413671913545e+00 -1.3282687932672661e+04 1.0000000000000000e+00 2.7005537802844044e+00 9.9513061466699408e+00 7.7245176883710025e+00 
2334 1 1 2.1551341037489617e+00 1.4248740665190991e+04 1.0000000000000000e+00 3.9090717589414594e+00 8.4894475554616484e+00 7.2337234653082580e+00 
2009 1 1 2.1873829537038172e+00 -5.1302685864080049e+03 1.0000000000000000e+00 2.5115420483705129e+00 9.3745139990551785e+00 6.6007651728744996e+00 
1757 1 1 2.3771404020581701e+00 2.3463595850535683e+02 1.0000000000000000e+00 2.6380287679738657e+00 9.2370980565618179e+00 7.9150290760704376e+00 
1712 1 1 2.2656918293137673e+00 -1.3493214308116887e+03 1.0000000000000000e+00 4.9283445425878281e+00 8.0198100149908473e+00 6.8823720061747684e+00 
515 1 1 2.2637812823666517e+00 -2.1631245729441957e+03 1.0000000000000000e+00 4.8954900016206082e+00 8.2804204759430640e+00 7.1293821397521100e+00 
245 1 1 2.1291586258243287e+00 1.4980296797046465e+04 1.0000000000000000e+00 5.3543240962296847e+00 8.6003222210537125e+00 6.5438798363648996e+00 
2522 1 1 1.9654032058164819e+00 -1.5598199500581726e+04 1.0000000000000000e+00 5.8358846858795337e+00 8.7285277195683406e+00 6.4054240033666989e+00 
988 1 1 6.3541555556224860e-01 -9.5065084834737481e+03 1.0000000000000000e+00 9.6207448486269720e-01 1.2449829624646926e+00 8.2698404320551724e+00 
2588 1 1 1.9586745036609197e+00 7.3280904545754775e+03 1.0000000000000000e+00 2.6684502263934284e+00 5.9431393148303269e-01 9.6799165466144164e+00 
1077 1 1 1.8981442262830208e+00 5.9884880492611437e+03 1.0000000000000000e+00 2.4166690142539435e+00 1.2477344798530778e+00 9.5401607465599874e+00 
1530 1 1 2.0008758204465149e+00 8.6378730255453629e+03 1.0000000000000000e+00 5.9458988962074795e+00 1.5923616106408223e-01 9.7470777309781322e+00 
1773 1 1 2.2904593272617184e+00 3.6743431695322770e+03 1.0000000000000000e+00 6.4118130970426614e+00 1.7421932716130921e+00 9.0119831295803774e+00 
1322 1 1 1.7638538015009344e+00 -1.2778417261109877e+04 1.0000000000000000e+00 5.8083918210161336e+00 1.1912773402222450e+00 9.2981350154107556e+00 
921 1 1 1.4473349529512449e+00 1.7384450708990632e+03 1.0000000000000000e+00 1.9537382688957965e+00 3.2007080919676207e+00 8.5267618912932210e+00 
737 1 1 1.5193730274168000e+00 3.9644090176463765e+03 1.0000000000000000e+00 1.0679733249209928e+00 2.8545929290530911e+00 9.8014932441236997e+00 
1553 1 1 1.2915421802388760e+00 -1.1803998177567173e+04 1.0000000000000000e+00 1.9312415225967017e+00 3.3734416194747650e+00 8.2181437022636246e+00 
2189 1 1 1.4515474475287831e+00 -6.0819796906327429e+02 1.0000000000000000e+00 1.8874337532602312e+00 3.8900832662104268e+00 9.5087440044466547e+00 
1786 1 1 1.9041383059218939e+00 -1.2913231991139222e+04 1.0000000000000000e+00 2.7519410257584380e+00 2.4234209674814178e+00 9.3905881236365953e+00 
374 1 1 1.3443780487056285e+00 -2.9166485575513702e+03 1.0000000000000000e+00 3.5583678690121383e+00 2.7001998443396862e+00 8.5564926933974927e+00 
2305 1 1 1.5560916877515178e+00 -8.9568716773906108e+03 1.0000000000000000e+00 3.1547445241398488e+00 3.8060956616146657e+00 9.7030114972783359e+00 
1370 1 1 1.1059256346496666e+00 -1.2923423016299614e+04 1.0000000000000000e+00 4.2369491764551102e+00 3.3547404300988459e+00 8.7658354804286382e+00 
263 1 1 1.9038411775172597e+00 2.2179754921424730e+04 1.0000000000000000e+00 5.9634231535375752e+00 2.2223649665813578e+00 8.4389506256976006e+00 
109 1 1 2.0149537363788341e+00 -1.0748482924140022e+04 1.0000000000000000e+00 6.3636803205056216e+00 2.7638480195580821e+00 8.9881046376189229e+00 
2517 1 1 1.2239313381778609e+00 -8.5943503790155446e+03 1.0000000000000000e+00 2.1750453006792352e+00 5.7507060123628460e+00 9.5233815665337538e+00 
2062 1 1 1.2360531428253669e+00 5.9506301024513596e+02 1.0000000000000000e+00 2.1921549836204672e+00 5.0410886873885286e+00 9.5655968648593266e+00 
2094 1 1 8.5997887518109739e-01 -2.0600937276911486e+03 1.0000000000000000e+00 6.6599522608682395e+00 5.4906862457625936e+00 9.1304497662276809e+00 
2453 1 1 9.5275844227900741e-01 -9.3478451041697081e+03 1.0000000000000000e+00 5.9249597294003902e+00 4.3438904392359765e+00 9.9705574860533641e+00 
2381 1 1 1.0102997846216646e+00 7.2068661736260992e+03 1.0000000000000000e+00 6.2851172490720693e+00 5.8289479887383662e+00 8.9694999565297753e+00 
885 1 1 1.6529245095508764e+00 -4.1071741542435184e+03 1.0000000000000000e+00 4.1829717555127157e+00 6.9074880073179079e+00 9.1151130191375831e+00 
116 1 1 1.2530603429388019e+00 -6.0629744513038901e+01 1.0000000000000000e+00 3.0326700253738057e+00 6.5317003645801792e+00 9.0070305237996493e+00 
1318 1 1 1.1539460488179547e+00 7.5600828622652434e+03 1.0000000000000000e+00 2.9772872039926885e+00 6.4740489032701936e+00 8.7003571990489110e+00 
918 1 1 1.1705579149057868e+00 -1.3797257549152475e+04 1.0000000000000000e+00 4.3526648009932529e+00 6.2114028981032634e+00 8.7257316262386606e+00 
1149 1 1 1.5545935722314350e+00 2.1098336655264440e+04 1.0000000000000000e+00 6.1516557330335315e+00 6.9713151598449237e+00 8.7029729910506592e+00 
1997 1 1 2.1470646170316980e+00 5.4588296295277896e+03 1.0000000000000000e+00 4.8287120230826961e+00 7.6534883335223238e+00 8.9627905820669405e+00 
2486 1 1 1.1617954902439132e+00 3.7137323617755519e+03 1.0000000000000000e+00 1.3699041170236886e-01 9.6153067533175740e+00 8.9793451022463451e+00 
308 1 1 9.5077937682412228e-01 -1.4926132085016388e+04 1.0000000000000000e+00 1.9118210890902362e-01 8.4756303536643554e+00 8.7768619598525639e+00 
1095 1 1 1.6429497780260265e+00 2.8429138683947663e+03 1.0000000000000000e+00 1.8003431657366040e+00 8.5916461740990702e+00 8.3745127230374496e+00 
86 1 1 2.5337109042509725e+00 5.2645317334626779e+03 1.0000000000000000e+00 3.6905074205430557e+00 8.7763043651401151e+00 9.2830385152789514e+00 
421 1 1 2.4086346929995863e+00 -7.0515111714541417e+03 1.0000000000000000e+00 3.7746353963771706e+00 8.6855231716244035e+00 9.9657818776677090e+00 