LAMMPS data file via write_data, version 30 Jul 2016, timestep = 50400000

2700 atoms
2 atom types

0.0000000000000000e+00 2.0000000000000000e+01 xlo xhi
0.0000000000000000e+00 2.0000000000000000e+01 ylo yhi
0.0000000000000000e+00 2.0000000000000000e+01 zlo zhi

Masses

1 3.896
2 5

Atoms # meso-molecular

1446 1 1 1.6136620320764921e+00 -1.6457406154319109e+04 1.0000000000000000e+00 4.9633840474022466e-02 9.0498724351672710e-01 1.3721355446961292e+00 
2504 1 1 1.7056819597346993e+00 4.2009018847914081e+02 1.0000000000000000e+00 9.5030841326757132e-01 1.7447993077401822e+00 1.1167395598838039e+00 
64 1 1 1.5724205922483721e+00 6.7060213307018266e+03 1.0000000000000000e+00 1.1119635765772895e+00 1.6951575492917930e+00 3.3873356611101973e-01 
2195 1 1 1.3352030982861745e+00 -1.7877583395650906e+03 1.0000000000000000e+00 6.0962063583826778e+00 9.8159383126323829e-01 1.4136764273826750e+00 
685 1 1 1.1328847335571015e+00 2.0924458885798271e+02 1.0000000000000000e+00 5.4256214682163941e+00 7.0097375823760855e-01 7.6092855017202421e-01 
222 1 1 1.2749453394612418e+00 -4.6115505311852330e+03 1.0000000000000000e+00 6.4383021501986786e+00 3.2235232434801125e-01 6.1175172253155785e-01 
2217 1 1 1.3008927274316926e+00 4.9574327187201807e+03 1.0000000000000000e+00 1.9438824333383222e+00 2.2076932375480918e+00 1.5174393281767959e+00 
2214 1 1 1.5316260327488906e+00 2.0206047029655438e+03 1.0000000000000000e+00 9.7551050132239336e-01 2.3592555664806447e+00 1.9715451472295651e+00 
506 1 1 1.4975469485242001e+00 1.0940246750564236e+04 1.0000000000000000e+00 6.8184613606689548e-01 2.8003754574583524e+00 1.4660713514960817e+00 
680 1 1 1.7050342711706139e+00 -1.1936402678640988e+01 1.0000000000000000e+00 4.2924268269374100e+00 2.4942514754109837e+00 1.1920937879431466e+00 
1160 1 1 8.7125180014940740e-01 9.5595844642849097e+03 1.0000000000000000e+00 2.2956356269344225e+00 3.1124905083956924e+00 5.4645837025897226e-01 
1293 1 1 1.2795297640244883e+00 2.0158336731557972e+02 1.0000000000000000e+00 3.9079674974665659e+00 2.0917636288946655e+00 8.6505488435455635e-01 
436 1 1 1.8904904456100657e+00 2.2531443939442725e+03 1.0000000000000000e+00 4.7051636914432127e+00 2.7464618143657655e+00 1.1318131612682334e+00 
1680 1 1 1.9000194107305537e+00 1.0748783389402612e+04 1.0000000000000000e+00 6.0947382354069157e+00 3.7071212662261437e+00 1.0274293045040954e+00 
1469 1 1 1.8297745284500682e+00 -2.3992692384901766e+03 1.0000000000000000e+00 5.1774509467465082e+00 3.1529201118456562e+00 6.9998562288105193e-01 
762 1 1 2.0067406402954755e+00 -6.3904937483030444e+03 1.0000000000000000e+00 5.2466559332940639e+00 2.3898632996891327e+00 1.4827687470848754e+00 
2397 1 1 1.8861772611307890e+00 3.5584043546865064e+03 1.0000000000000000e+00 5.5291263357742588e+00 2.2813972211961553e+00 1.8608394838807221e+00 
1094 1 1 1.2731863822241143e+00 2.6687961603915192e+03 1.0000000000000000e+00 2.3619549762119424e-01 5.2919728042138949e+00 2.1592340995424947e-01 
708 1 1 1.2434771893968239e+00 4.5122573383837471e+03 1.0000000000000000e+00 1.0060863351276790e+00 5.9269625999010591e+00 1.8318078018839179e+00 
1459 1 1 1.1036341906330864e+00 1.3512601470440857e+04 1.0000000000000000e+00 1.2569024468151027e-01 4.3400836666945297e+00 1.7132891490302766e+00 
397 1 1 1.1518397508483100e+00 1.2161537162906636e+04 1.0000000000000000e+00 8.5013342150820725e-01 5.1567736948434044e+00 1.6927066457059441e+00 
508 1 1 1.2986331101600683e+00 4.5365410922835445e+03 1.0000000000000000e+00 4.4067508607167838e+00 4.9871702909607167e+00 6.1312946048885564e-01 
189 1 1 1.1563689116204150e+00 -3.1324402233304995e+03 1.0000000000000000e+00 3.8179404451181207e+00 5.6119085536568507e+00 1.7053935329498493e+00 
2663 1 1 1.9902134208454860e+00 -9.6561696027816633e+03 1.0000000000000000e+00 6.3755653891813768e+00 4.2184168239631292e+00 1.7438375320736363e+00 
1536 1 1 2.0285691881837216e+00 8.8315479391425413e+01 1.0000000000000000e+00 5.3709345913255131e+00 4.7643247755051874e+00 8.1416497310266756e-01 
2498 1 1 2.3553114028790807e+00 -1.0157372328411840e+04 1.0000000000000000e+00 5.7630280356870198e+00 4.5933905826068600e+00 1.2467378352932887e+00 
1605 1 1 2.3083413437638045e+00 2.3908388358297539e+03 1.0000000000000000e+00 6.3251343041521055e+00 5.0440570334447985e+00 1.9469231634421340e+00 
463 1 1 2.3297772466947904e+00 4.4471628029219637e+03 1.0000000000000000e+00 6.6601337612090870e+00 5.1152088844137822e+00 9.0605158700098298e-01 
908 1 1 1.2770891097312733e+00 -6.2059944534985698e+02 1.0000000000000000e+00 2.0443423672062291e-01 6.8904073084295714e+00 6.7087321749036111e-01 
658 1 1 1.5067229341280883e+00 1.3195451983537700e+04 1.0000000000000000e+00 4.1220897154133187e+00 6.8883687742459632e+00 1.3596428604868658e+00 
2667 1 1 1.5847939346562816e+00 1.6168177469511766e+03 1.0000000000000000e+00 3.7282998837276748e+00 6.3338828308320068e+00 3.5625732307005126e-01 
1404 1 1 1.3879812401713094e+00 -4.0969516300440309e+03 1.0000000000000000e+00 3.3454588206070186e+00 6.8803230017728207e+00 1.3623621424305324e-01 
2090 1 1 1.5338465118767068e+00 -2.7978649359287338e+03 1.0000000000000000e+00 3.5252685034215192e+00 6.8258633276237139e+00 4.0058636719880103e-01 
19 1 1 1.4700779611630643e+00 -1.9675121107424271e+04 1.0000000000000000e+00 5.3032685433259488e+00 6.3221975760708888e+00 7.8566153122748550e-01 
760 1 1 1.2303434264950137e+00 8.1197423805765620e+03 1.0000000000000000e+00 2.2574559763282523e-01 9.1271176329262360e+00 1.8194706872699971e+00 
958 1 1 1.7026368035752932e+00 -2.4295781024409935e+03 1.0000000000000000e+00 1.2569643250502387e+00 9.8716641002415582e+00 1.9898254316707378e+00 
1778 1 1 8.4116912969442448e-01 -1.2623964214496047e+04 1.0000000000000000e+00 3.2704650363420114e+00 8.2584929925011217e+00 1.2526786439397339e+00 
486 1 1 1.1219034410419693e+00 -9.8065405383107864e+03 1.0000000000000000e+00 5.6820836219220530e+00 8.1077659385450200e+00 1.6334939381497733e+00 
1481 1 1 8.8858600688232370e-01 -7.5386232124537755e+03 1.0000000000000000e+00 1.7658482398609845e+00 4.5739826427184410e-01 2.1773238374138444e+00 
600 1 1 9.9324958472827718e-01 -1.2373487469224485e+03 1.0000000000000000e+00 1.5314206573656126e+00 4.3544021936115357e-01 3.7282813839198439e+00 
1268 1 1 1.5063292835610220e+00 -1.8294212214721833e+03 1.0000000000000000e+00 6.6388462140596651e+00 1.5782825029043566e+00 2.4672852764836084e+00 
2048 1 1 1.1416356917256729e+00 -2.5659576394948144e+03 1.0000000000000000e+00 5.6493141492053791e+00 7.8299927118521462e-01 3.7436572597225672e+00 
1142 1 1 1.2857023858489733e+00 -6.0950865917614544e+02 1.0000000000000000e+00 1.0243212182156900e+00 3.1916093068174720e+00 3.6400355427235196e+00 
551 1 1 1.2203340179612836e+00 5.2583425217830727e+03 1.0000000000000000e+00 4.1411086603772862e+00 3.5038056389042342e+00 3.0814878673408592e+00 
2051 1 1 1.1145476220497259e+00 5.0702025778014295e+03 1.0000000000000000e+00 2.4016890473772730e+00 3.7328894600989813e+00 2.4938545428387719e+00 
867 1 1 1.2010599974382337e+00 7.6277025168130522e+03 1.0000000000000000e+00 3.2049624305326674e+00 2.7039523768277087e+00 2.1077617479288389e+00 
1378 1 1 1.0944989229018063e+00 1.4459057048685975e+03 1.0000000000000000e+00 2.2812381142535947e+00 2.3130209970115270e+00 3.3870513100195776e+00 
1604 1 1 1.5612924537409840e+00 2.1656226486066985e+03 1.0000000000000000e+00 4.8845322784109468e+00 2.4168073814984408e+00 3.4082640403042967e+00 
500 1 1 1.8126431105329626e+00 2.8503110182637765e+03 1.0000000000000000e+00 5.4063553869842282e+00 2.3314488916629084e+00 2.2506874307393718e+00 
1774 1 1 1.5667269387280844e+00 -1.1592345964252479e+04 1.0000000000000000e+00 4.8324929282109581e+00 2.1158367445973632e+00 3.0142654111887008e+00 
2336 1 1 1.2860917804369434e+00 8.7485182103474890e+03 1.0000000000000000e+00 1.0364597328441014e+00 4.0743625477264507e+00 2.8823221244320645e+00 
1191 1 1 1.1825574064672233e+00 -7.6134415248121832e+03 1.0000000000000000e+00 1.2367037375984760e+00 4.6877591484610690e+00 2.7373683249120115e+00 
1076 1 1 9.0727366326872594e-01 1.0960448396771417e+04 1.0000000000000000e+00 3.3947340834574944e+00 4.1769298957627310e+00 2.4528880273022411e+00 
2615 1 1 2.3646013554271095e+00 9.8707913359507183e+03 1.0000000000000000e+00 5.6583103345020334e+00 5.0240057172723152e+00 2.1649213854211640e+00 
2465 1 1 2.3548208723355710e+00 -6.2860546542048332e+03 1.0000000000000000e+00 5.4205031336653215e+00 5.4576837963967710e+00 3.3234403077194332e+00 
2046 1 1 2.0290095035315119e+00 2.9951165778243039e+03 1.0000000000000000e+00 5.9206858845355468e+00 5.7950316800245769e+00 3.7433743818227749e+00 
210 1 1 2.0595163093242257e+00 -1.2105090801490205e+04 1.0000000000000000e+00 4.8743176861981299e+00 5.0663276785655356e+00 3.9096450502360365e+00 
1316 1 1 2.4031356415217755e+00 -9.9472375658695983e+03 1.0000000000000000e+00 5.7243610663646027e+00 5.4151569299828788e+00 2.0931598348023259e+00 
2281 1 1 2.2590970401860946e+00 -2.1679978890417374e+03 1.0000000000000000e+00 5.7400316548772716e+00 5.1879692908438004e+00 3.3896672677267303e+00 
947 1 1 1.9917113483031943e+00 1.0300472373007467e+04 1.0000000000000000e+00 5.3949784511593455e+00 4.6385705537846151e+00 3.3982153676703613e+00 
864 1 1 1.5875712217596283e+00 3.0652026143309427e+03 1.0000000000000000e+00 2.0714183492243783e+00 7.2299356128814125e+00 2.2674644471762351e+00 
820 1 1 1.5575797540609873e+00 -4.6532059153430464e+03 1.0000000000000000e+00 1.0656999636434281e+00 6.8884879458989410e+00 3.3919447451152713e+00 
2516 1 1 1.8710401828701235e+00 1.0832287607791136e+03 1.0000000000000000e+00 1.2422785954309059e+00 7.5181975680959257e+00 2.4847733858082623e+00 
2480 1 1 1.8065150854100391e+00 1.7106422643431230e+04 1.0000000000000000e+00 8.1896252449905171e-01 7.5059021306016147e+00 2.9686161601747112e+00 
1886 1 1 1.5622539192828826e+00 -5.5950562578160034e+03 1.0000000000000000e+00 2.5094210045058238e+00 7.9851953872323556e+00 3.4415382004308710e+00 
943 1 1 1.5337506080025778e+00 -1.8056699687802440e+04 1.0000000000000000e+00 2.2349601229067946e+00 6.8302514389697047e+00 3.1482184597223104e+00 
1387 1 1 1.2792146246175078e+00 9.6290979582173877e+03 1.0000000000000000e+00 2.3076159960575753e+00 6.4620808151323574e+00 2.3502626581706223e+00 
1969 1 1 1.4808755328076730e+00 -4.0761692111422128e+01 1.0000000000000000e+00 6.4120456171080606e+00 6.5590071663266567e+00 2.7615212408429461e+00 
677 1 1 1.6670776367860072e+00 8.4252947404155930e+03 1.0000000000000000e+00 5.4450038904946618e+00 6.7834603848111525e+00 2.2155782477886259e+00 
155 1 1 1.2699813892430432e+00 -1.2809533200356085e+04 1.0000000000000000e+00 4.5086215712511262e+00 7.0271365818266398e+00 3.2056342261145678e+00 
1613 1 1 1.6734463076946651e+00 -1.9241314082218629e+04 1.0000000000000000e+00 4.9568714557520250e+00 6.5866236929097539e+00 2.2581899600812174e+00 
267 1 1 2.3199167969636769e+00 1.8809853142279690e+03 1.0000000000000000e+00 1.8177265642735585e+00 9.4815576425995562e+00 2.7143037819746141e+00 
2332 1 1 1.1681299762746360e+00 -9.8972927076286232e+03 1.0000000000000000e+00 5.9425503385686207e-01 9.9771811650305295e+00 3.8912996085771461e+00 
467 1 1 2.2453943699465495e+00 1.0928549927715369e+04 1.0000000000000000e+00 1.9770410642734619e+00 9.3046471615991138e+00 3.0868954083902946e+00 
527 1 1 2.1236284136539494e+00 -4.6861698664593314e+03 1.0000000000000000e+00 1.9806845792959840e+00 8.7799708200064526e+00 2.3846011731395569e+00 
459 1 1 1.5217118863752908e+00 -8.3524081921184206e+03 1.0000000000000000e+00 5.9057802756762701e-01 8.1703728036101477e+00 3.1402722445223170e+00 
26 1 1 1.5878927959720599e+00 2.3798291426208889e+04 1.0000000000000000e+00 3.1556906327256091e+00 8.8768821819914958e+00 3.4243441554777130e+00 
1119 1 1 2.0829876237628717e+00 -6.1786304285543940e+02 1.0000000000000000e+00 3.2726197733297462e+00 9.7218530352715682e+00 2.2171789598092295e+00 
221 1 1 2.3322978296519183e+00 -2.6314057418290931e+03 1.0000000000000000e+00 2.4695581041623123e+00 9.0906966665436197e+00 2.8402731256705556e+00 
702 1 1 2.0576394937398321e+00 -1.3621741664737800e+04 1.0000000000000000e+00 5.5961816383307843e+00 8.9628918152618251e+00 3.8234700402231141e+00 
2079 1 1 1.3776552574908409e+00 1.4710352679456994e+03 1.0000000000000000e+00 5.2474622491143084e+00 8.9654858711931862e+00 2.2381290029383254e+00 
2148 1 1 1.7097432395429160e+00 -1.1523845222351152e+04 1.0000000000000000e+00 5.6617422614768529e+00 8.1050153351190648e+00 3.4542122544573259e+00 
12 1 1 1.4204022882906557e+00 -1.5220399135259674e+03 1.0000000000000000e+00 5.5425667961446301e+00 9.1044039719367404e+00 2.2868244215046758e+00 
2223 1 1 1.8422285964654697e+00 8.9267813378529117e+03 1.0000000000000000e+00 5.3582963752587922e+00 8.2778710918918161e+00 3.6528425972199541e+00 
278 1 1 1.1631351065727313e+00 3.1762550438095600e+03 1.0000000000000000e+00 1.4980279782529700e+00 1.4344279968533260e+00 4.1881863765344001e+00 
1726 1 1 7.7313554921444261e-01 -5.9361228003890692e+03 1.0000000000000000e+00 2.1190311807437991e+00 2.9969159108361726e-01 5.4372375136792792e+00 
1898 1 1 1.3006000687187356e+00 -4.4043598557138430e+03 1.0000000000000000e+00 3.6653569543196447e+00 5.5893586582697596e-01 4.1481039269623485e+00 
1188 1 1 1.5023600081733384e+00 -3.0180876314727602e+03 1.0000000000000000e+00 2.7595764539845757e+00 1.3090126463847354e+00 4.2280683643659787e+00 
938 1 1 1.3964135581734707e+00 2.2324012265341330e+03 1.0000000000000000e+00 3.7205235848032592e+00 6.5539367190327591e-01 5.0982999395918931e+00 
2014 1 1 1.6087764782449188e+00 1.0152258923490926e+04 1.0000000000000000e+00 4.2453693706159381e+00 1.5736378059204559e+00 5.1369872325197692e+00 
1548 1 1 1.7344816976875492e+00 -4.4034464317775264e+03 1.0000000000000000e+00 3.1885871067563949e+00 1.8819169490996233e+00 4.5858460630832729e+00 
471 1 1 1.1961257124346771e+00 5.8367806609282161e+03 1.0000000000000000e+00 5.2465111044843669e+00 7.6855364079812016e-01 4.4350090742554951e+00 
615 1 1 2.0613759429278722e+00 3.2617517121794690e+03 1.0000000000000000e+00 1.9903580310866187e+00 3.0726979603661846e+00 5.9784585711577378e+00 
556 1 1 1.2581392743499651e+00 8.7139009876624721e+02 1.0000000000000000e+00 1.0626996958758324e+00 2.0072038198387423e+00 5.7227288526642157e+00 
626 1 1 1.5270903421341435e+00 -8.2040930324699439e+03 1.0000000000000000e+00 1.4813811167628628e+00 3.6684487067497948e+00 4.4405767697604182e+00 
1140 1 1 1.7375414262488713e+00 -1.4289441486221020e+04 1.0000000000000000e+00 6.2860122297932275e-01 3.9425552657100895e+00 5.8318994090296803e+00 
596 1 1 1.7207340659486736e+00 -7.9606977871845829e+03 1.0000000000000000e+00 9.7777272929676173e-01 3.3035038704538677e+00 5.1596806193153864e+00 
2177 1 1 1.8377527626085395e+00 1.7476953765652746e+04 1.0000000000000000e+00 3.6362159296983196e+00 2.3873149334922057e+00 5.3715455287800120e+00 
1856 1 1 1.5522075963338469e+00 -1.7862515741774285e+04 1.0000000000000000e+00 4.3613587097735866e+00 3.2811452968159291e+00 4.6362719645546164e+00 
1982 1 1 1.9024404349335970e+00 -1.0321039635195046e+04 1.0000000000000000e+00 2.8738356465725134e+00 2.8799540512940509e+00 5.8093871012658571e+00 
2529 1 1 1.7282716153205870e+00 9.6232622535642145e+02 1.0000000000000000e+00 3.3204826952566817e+00 3.2765918310031537e+00 5.2906126486904848e+00 
2497 1 1 1.8382109362401058e+00 -4.1962532772981886e+03 1.0000000000000000e+00 2.4705269751312873e+00 3.6812367707855365e+00 5.2822419827271503e+00 
2176 1 1 1.7072305313142493e+00 8.0132411423831463e+03 1.0000000000000000e+00 4.6462044729881136e+00 2.1856751375203558e+00 4.1931711398930869e+00 
1435 1 1 1.4271972198084661e+00 1.3122079428963225e+04 1.0000000000000000e+00 4.5873442790136334e+00 3.4890292586863452e+00 5.3420750645083430e+00 
861 1 1 1.7577838531414796e+00 -5.2911894344429925e+02 1.0000000000000000e+00 5.8699928698592068e+00 2.5756638312054387e+00 5.8653429498160436e+00 
1051 1 1 1.2978693739381728e+00 -6.2476265993663901e+03 1.0000000000000000e+00 6.0185602181332918e+00 3.0260561087961908e+00 4.4759646510574624e+00 
1860 1 1 1.8373442382130478e+00 -1.8973102367172255e+03 1.0000000000000000e+00 6.0226828303711946e+00 2.7161621950703476e+00 5.6932205998469883e+00 
280 1 1 1.3022325022866077e+00 1.0586394224664624e+04 1.0000000000000000e+00 1.1005501798805524e+00 4.6224056627722057e+00 4.8511557611864093e+00 
2646 1 1 1.0795148261897034e+00 -2.6100860536159371e+03 1.0000000000000000e+00 6.8105556805142875e-01 5.7436246971867071e+00 5.8356776979881797e+00 
1684 1 1 1.8556950076760121e+00 -6.4087899368087456e+03 1.0000000000000000e+00 4.0423525042823716e+00 5.5875724996922846e+00 5.1614040661817651e+00 
2439 1 1 1.8094468405878763e+00 -7.6697277319479463e+03 1.0000000000000000e+00 3.7415610510189472e+00 5.8982550285958597e+00 4.9867788187459778e+00 
2503 1 1 1.1262775318643041e+00 1.0150160241245327e+04 1.0000000000000000e+00 2.4524247106220511e+00 5.0959093939188236e+00 4.8388026976275276e+00 
1306 1 1 1.6828425432251330e+00 1.8369097130987966e+03 1.0000000000000000e+00 6.1301304259975016e+00 4.4517923801609953e+00 5.0564846137474637e+00 
1809 1 1 1.9783072488732152e+00 -1.9079111414361745e+04 1.0000000000000000e+00 5.0794733952672821e+00 5.3786734940055316e+00 4.7426568123261887e+00 
1120 1 1 2.1329570422048154e+00 1.3768139019724000e+04 1.0000000000000000e+00 5.4852635012214312e+00 5.2509911887616614e+00 4.1651233300119648e+00 
1816 1 1 1.2557633124958947e+00 -1.5039291867454574e+03 1.0000000000000000e+00 2.1285875167862867e+00 6.9024033570418366e+00 5.0577068850377849e+00 
242 1 1 1.2949789997274264e+00 5.7063543340817469e+03 1.0000000000000000e+00 1.4034320953005870e+00 7.9534677911755969e+00 5.8238262518321884e+00 
1463 1 1 1.8792443582343656e+00 1.0118677119676673e+04 1.0000000000000000e+00 4.2469583101662698e+00 6.1455134625168570e+00 4.6930476520801658e+00 
2463 1 1 1.3722192723488329e+00 -4.7821671067877668e+02 1.0000000000000000e+00 2.7791818730916269e+00 6.5583087943400518e+00 4.3488144854557191e+00 
795 1 1 1.6922417003780112e+00 2.2515262586454595e+04 1.0000000000000000e+00 3.5964521141378869e+00 6.6081257968916409e+00 5.0387954759967073e+00 
927 1 1 1.3783170251879691e+00 -3.1183912230717519e+03 1.0000000000000000e+00 4.2959904288226021e+00 7.6144444742245989e+00 5.6484571278902171e+00 
1913 1 1 1.6786862286553110e+00 -1.2110314332914288e+04 1.0000000000000000e+00 4.7524935233122951e+00 7.8098516454380746e+00 4.6900270727053179e+00 
1621 1 1 1.1866814292542645e+00 -9.5630768532453021e+03 1.0000000000000000e+00 5.8537437736321527e+00 7.7897341786846557e+00 5.3727870575535528e+00 
557 1 1 1.5282075991228496e+00 -1.4749943879398077e+04 1.0000000000000000e+00 2.5312872926321930e+00 9.9697943481099269e+00 5.9934586977539750e+00 
1082 1 1 1.8233512438737349e+00 2.5767151335123276e+03 1.0000000000000000e+00 4.8815943659009342e+00 8.3657324256188232e+00 4.9067103300736310e+00 
1781 1 1 1.5849933425475717e+00 -7.9020456466557171e+03 1.0000000000000000e+00 5.3818185675356203e+00 9.0321084823151150e+00 5.3646831932272070e+00 
1944 1 1 1.8434421056444559e+00 -2.0946854470437079e+03 1.0000000000000000e+00 4.5815091197763795e+00 9.6326920062019958e+00 4.5032377810161766e+00 
1878 1 1 1.8882683648049090e+00 1.5220915988202141e+03 1.0000000000000000e+00 5.6672047537375674e+00 9.2097495407321119e+00 4.5956980119729280e+00 
1354 1 1 1.1109648898174023e+00 7.4097717368741569e+03 1.0000000000000000e+00 1.7055366504461931e+00 1.8128854437439019e+00 7.5122015544835143e+00 
1638 1 1 1.4491410119232762e+00 1.3885370218700133e+04 1.0000000000000000e+00 3.0174162396794459e+00 1.4882465435917414e+00 6.3392206756050022e+00 
2259 1 1 2.1117224394449385e+00 -4.8598385240217467e+03 1.0000000000000000e+00 4.3434871289598878e+00 2.1783178791069535e-01 7.1412406300393085e+00 
2300 1 1 1.6772498291206481e+00 1.2478374319231642e+02 1.0000000000000000e+00 3.7117421356688416e+00 1.7849616430309247e+00 7.6599103380213203e+00 
2101 1 1 1.8721412258273109e+00 1.4620946410572342e+04 1.0000000000000000e+00 3.8069493320600811e+00 9.5028675811916186e-01 7.0071938597382202e+00 
2330 1 1 2.2488924210585384e+00 2.2160075027532090e+04 1.0000000000000000e+00 3.6801620255174066e+00 3.7215296389114394e-01 7.8765534032651603e+00 
797 1 1 2.4922938481149335e+00 1.9166090921121893e+04 1.0000000000000000e+00 4.6440647773975359e+00 2.1748794881668740e-01 7.7220845089324417e+00 
812 1 1 1.9480015096864196e+00 -1.2402515591492123e+04 1.0000000000000000e+00 6.0768210194070402e+00 9.5307099202050560e-01 7.2779890917436854e+00 
893 1 1 2.1690872845443132e+00 1.0512668160229056e+04 1.0000000000000000e+00 4.8435034581690140e+00 7.3355889639189953e-01 7.3071725275842452e+00 
643 1 1 1.9374846205943466e+00 1.1810121721384012e+04 1.0000000000000000e+00 6.2003893106893315e+00 1.1097998465146308e+00 6.6452617042263284e+00 
1287 1 1 1.6455311741950720e+00 -2.2898465756371484e+03 1.0000000000000000e+00 9.6820184078798255e-01 2.7450504503265778e+00 7.3070802464626068e+00 
733 1 1 1.5056226953177794e+00 2.9029215295043919e+03 1.0000000000000000e+00 1.2686760526385601e+00 2.3126661332955347e+00 6.1504996108335357e+00 
956 1 1 2.1072753505827424e+00 -4.1700103745848937e+03 1.0000000000000000e+00 2.0394671336198340e+00 3.9327712781718960e+00 6.3595508728639052e+00 
995 1 1 1.4282171970353168e+00 -3.4913265066017825e+03 1.0000000000000000e+00 3.3484980382812251e+00 2.2038654777985065e+00 7.3864548928321376e+00 
2277 1 1 1.1918124684860907e+00 -8.5329556070517301e+03 1.0000000000000000e+00 3.8833617547202057e+00 3.0156819379708062e+00 7.4413800095862142e+00 
1587 1 1 1.6882402290605663e+00 -7.3142003075491575e+03 1.0000000000000000e+00 6.2176522813657646e+00 3.7538664950880372e+00 7.9299203115853896e+00 
2284 1 1 1.2137708661748470e+00 5.3060224001275310e+03 1.0000000000000000e+00 5.2206901439464728e+00 2.5478426231076132e+00 7.4456122007747929e+00 
1261 1 1 1.4046077803337769e+00 5.0648297800693854e+03 1.0000000000000000e+00 1.8064960207969435e-01 4.8198235985779565e+00 7.7395642750420404e+00 
1732 1 1 2.0269170666842511e+00 7.2634368769037792e+03 1.0000000000000000e+00 2.0975174676457295e+00 4.4234145772260316e+00 7.6491181206661016e+00 
530 1 1 2.0849970653443126e+00 -1.8000401164646119e+03 1.0000000000000000e+00 2.1176475200091920e+00 4.0830023875061947e+00 6.4903233742969828e+00 
1790 1 1 2.0505023145617400e+00 -1.1702863335949685e+03 1.0000000000000000e+00 1.7881123626484787e+00 4.5105653703412569e+00 7.3823096876800633e+00 
554 1 1 1.5666251262366824e+00 1.3468277537662490e+04 1.0000000000000000e+00 6.4550599122706476e-01 5.5109568000148457e+00 6.9325534187886744e+00 
644 1 1 1.9233057427279705e+00 -7.0795973872509921e+03 1.0000000000000000e+00 2.7414434992552730e+00 5.0170633419545698e+00 6.8973317977138873e+00 
46 1 1 1.7470115713667607e+00 -2.2369870650362591e+04 1.0000000000000000e+00 3.3265857482491632e+00 5.5184175439637269e+00 7.3821344201456096e+00 
1060 1 1 1.7057547035965495e+00 -6.6227353390225853e+03 1.0000000000000000e+00 3.7977491569715407e+00 5.4082487966916828e+00 7.4043323187980707e+00 
1583 1 1 1.9721340820227744e+00 -7.8710396862644802e+03 1.0000000000000000e+00 2.5007535502386919e+00 4.6705312897637477e+00 7.6931913731711505e+00 
2593 1 1 1.7393119876994847e+00 -7.2445100722389452e+03 1.0000000000000000e+00 4.1410329317685157e+00 5.1397150179494036e+00 6.4169991031561890e+00 
1512 1 1 2.0732009514113190e+00 -1.6425388492430822e+04 1.0000000000000000e+00 6.2290701574666656e+00 4.5148646937184544e+00 6.1403336361737324e+00 
147 1 1 1.7405098371601539e+00 6.4008643611232173e+03 1.0000000000000000e+00 5.8534169017300020e+00 4.4141225019512271e+00 7.6884815826988966e+00 
1628 1 1 1.5932916924478353e+00 -2.9067079531762884e+03 1.0000000000000000e+00 4.5603164263192237e+00 4.8526971377356736e+00 6.5570288360232931e+00 
455 1 1 1.5624959339666096e+00 -6.2172582366356501e+03 1.0000000000000000e+00 5.6063939088732511e+00 5.0151158305545813e+00 7.5671998060878396e+00 
1831 1 1 1.3106500181362222e+00 -1.6804146240513383e+04 1.0000000000000000e+00 4.7542460298159268e+00 5.8512614046125320e+00 7.5512229038400713e+00 
588 1 1 1.9468363388408905e+00 6.4798931445362505e+03 1.0000000000000000e+00 1.2309310521699990e+00 6.8758846898632626e+00 7.2893880014479588e+00 
987 1 1 1.6055916786044162e+00 -1.1350264433474180e+04 1.0000000000000000e+00 1.9664701830857614e+00 6.4585471191012020e+00 6.4796392533450540e+00 
1109 1 1 1.8955393982538615e+00 -9.0543173171036233e+02 1.0000000000000000e+00 6.4193874017829089e-01 6.9478735519924042e+00 7.5071953634483615e+00 
1704 1 1 1.6535063560389442e+00 4.0100111261730030e+03 1.0000000000000000e+00 2.1751244178223623e+00 7.6950433779667033e+00 6.5671705570100753e+00 
1092 1 1 1.5881588900232206e+00 -4.7200358877834851e+03 1.0000000000000000e+00 2.3215003945015167e+00 7.2253674384004434e+00 6.3075952098738437e+00 
531 1 1 1.4896135274813829e+00 -1.1885506769057763e+04 1.0000000000000000e+00 2.5362772080761880e+00 6.7131509733629855e+00 7.6719276390562303e+00 
430 1 1 1.0410418214223573e+00 2.2207872901964390e+02 1.0000000000000000e+00 6.5777923703371100e+00 7.5517996192794250e+00 7.8763124760912646e+00 
1156 1 1 8.6516275543538923e-01 1.1078987778941149e+04 1.0000000000000000e+00 4.5125924191304874e+00 7.9259980519269844e+00 6.6287140011129786e+00 
2359 1 1 1.4743734011399192e+00 -1.0489443970000970e+04 1.0000000000000000e+00 4.7199229451515263e+00 6.0301090617925901e+00 6.4370846398787016e+00 
948 1 1 1.7485977367046026e+00 7.9424776611905918e+03 1.0000000000000000e+00 2.6079010477322334e-01 8.1585579931153358e+00 6.7366690227156996e+00 
315 1 1 1.8393661394152192e+00 2.8151310499588749e+03 1.0000000000000000e+00 3.9116473691061387e-01 8.4464956873721349e+00 6.8957958577352869e+00 
1040 1 1 1.6946563231234315e+00 -4.3269695976671555e+03 1.0000000000000000e+00 1.6020643380031605e+00 8.4654826855111267e+00 6.8097508431357703e+00 
523 1 1 1.3028838911401919e+00 -5.4737654317410052e+03 1.0000000000000000e+00 6.7262562434393947e-01 9.6920085469205564e+00 7.2240239720232884e+00 
1783 1 1 1.5047169486807526e+00 6.0160351314082809e+03 1.0000000000000000e+00 2.5299260437723134e+00 9.7451521216238728e+00 6.4450404953287705e+00 
438 1 1 1.1280201458011414e+00 4.7905199158928590e+03 1.0000000000000000e+00 3.6430883249181960e+00 9.1881810886702819e+00 6.1996959917055143e+00 
428 1 1 1.0343059889248389e+00 -1.3271025556534867e+03 1.0000000000000000e+00 5.5610318514548016e+00 9.6700524985383964e+00 7.1052587911659355e+00 
1208 1 1 7.9801999338606755e-01 -1.6983951002302507e+04 1.0000000000000000e+00 2.1454186744275487e+00 1.9030515659271934e+00 9.3254458950587029e+00 
2623 1 1 1.5727458157006606e+00 -1.1626121819677135e+04 1.0000000000000000e+00 2.6973990185596768e+00 1.1644152881751771e-01 8.7978268035516471e+00 
2416 1 1 1.1319239509452563e+00 3.9811428557593790e+03 1.0000000000000000e+00 2.3982499162648647e+00 6.2311555304541522e-01 9.3207355834298760e+00 
605 1 1 1.8982811044989925e+00 -5.7137549744242751e+03 1.0000000000000000e+00 4.5061531441620399e+00 7.0611784988722531e-02 9.2436032643163557e+00 
777 1 1 1.9903465484460543e+00 1.5327270294412538e+03 1.0000000000000000e+00 4.7375141101527820e+00 9.1548783783210241e-01 8.4757544022966052e+00 
1643 1 1 2.4126041743790227e+00 -8.1181492847768150e+03 1.0000000000000000e+00 4.6347254133637570e+00 8.1741070356030676e-02 8.5157911025228383e+00 
903 1 1 1.6955181138122046e+00 2.1972014348965866e+04 1.0000000000000000e+00 1.6635541355591132e+00 3.9795073634862037e+00 8.2819124691258637e+00 
2197 1 1 1.2740916876145141e+00 1.6885002101043294e+03 1.0000000000000000e+00 3.8226696372776930e-01 2.7153035476292224e+00 8.7713351946735081e+00 
173 1 1 1.3294997565978697e+00 1.7809127691733984e+03 1.0000000000000000e+00 1.3989813520703991e+00 2.5132889799607603e+00 8.3925659474624084e+00 
2496 1 1 1.3169845033718226e+00 -3.0228973840292274e+03 1.0000000000000000e+00 3.2511776774528305e+00 3.5143851838341793e+00 9.1937583275776529e+00 
2185 1 1 1.6821313441874084e+00 -6.6745974377647071e+03 1.0000000000000000e+00 4.0127015827768071e+00 3.0771757977139886e+00 9.2887560086969536e+00 
1257 1 1 1.5089825974092921e+00 -6.0029081156142747e+03 1.0000000000000000e+00 4.7855434216486836e+00 3.3994320738775201e+00 8.7563469968453305e+00 
2058 1 1 1.5433005969030902e+00 9.4892033467648253e+03 1.0000000000000000e+00 4.9978919389955170e+00 2.3664104766635932e+00 9.2735602064359739e+00 
2212 1 1 1.5861227859133853e+00 1.7974059937384583e+04 1.0000000000000000e+00 4.6278158510741330e+00 2.2477519572768259e+00 9.1610185845770307e+00 
514 1 1 1.4061599214579270e+00 -7.5467639450605247e+02 1.0000000000000000e+00 1.4015174634446776e+00 4.3096911160334486e+00 8.6783977366908243e+00 
2493 1 1 1.2205829512571893e+00 -1.4572761171990802e+04 1.0000000000000000e+00 2.5511763842597396e-01 5.9713611165803835e+00 9.1694938962990449e+00 
361 1 1 1.1291745232900259e+00 -2.2621999661783393e+03 1.0000000000000000e+00 3.0005900606056488e+00 4.7910760255893878e+00 9.1640874913631922e+00 
105 1 1 7.9684392670689086e-01 -2.4672832847797727e+03 1.0000000000000000e+00 3.9227150743460202e+00 5.7824338195042770e+00 9.3006906337868251e+00 
448 1 1 1.4451288343899591e+00 9.5070539323395114e+03 1.0000000000000000e+00 6.0621244867875053e+00 4.2481113779413526e+00 9.4445335041882323e+00 
2061 1 1 1.2809343332963912e+00 -6.4828265164559580e+03 1.0000000000000000e+00 6.5128824354604617e+00 5.1623248436799472e+00 8.9656136507283382e+00 
2039 1 1 1.6578754674287974e+00 2.5879285826345863e+03 1.0000000000000000e+00 1.3290178433819180e+00 7.8551564351554619e+00 8.4224726519527771e+00 
1322 1 1 1.4042069022917254e+00 -1.5339278038524513e+04 1.0000000000000000e+00 1.5360633450173644e+00 6.7475774315028767e+00 8.5817822561416737e+00 
1014 1 1 1.5457376281024700e+00 1.5464371219417635e+03 1.0000000000000000e+00 5.7592977143243707e-01 7.7809523609784668e+00 8.7320506653575531e+00 
290 1 1 1.1078076013628613e+00 -6.2252045587178554e+03 1.0000000000000000e+00 2.7597943860916638e+00 7.7545520963076715e+00 8.1888274133573198e+00 