LAMMPS data file via write_data, version 30 Jul 2016, timestep = 50000000

180 atoms
2 atom types

0.0000000000000000e+00 2.0000000000000000e+01 xlo xhi
0.0000000000000000e+00 2.0000000000000000e+01 ylo yhi
0.0000000000000000e+00 2.0000000000000000e+01 zlo zhi

Masses

1 3.896
2 4.31

Atoms # meso-molecular

33 1 2 1.0279989952096311e+00 -6.3161526711307283e+02 1.0000000000000000e+00 2.5630391990697734e+00 2.3239599650245109e+00 1.8763475569569983e+00 
105 1 2 1.0279989937438374e+00 -5.3657975065245580e+02 1.0000000000000000e+00 2.5415902380040061e+00 2.3215067367874851e+00 1.8685839841319529e+00 
21 1 2 1.0279989482703920e+00 -6.0305189623019623e+02 1.0000000000000000e+00 2.8506119203633924e+00 2.2769513251448510e+00 2.1640462937236888e+00 
62 1 2 1.0279993517965071e+00 -5.7654122727488993e+02 1.0000000000000000e+00 2.3479264717016837e+00 2.1961843139610160e+00 1.3756297096834205e+00 
27 1 2 1.0279993589915737e+00 -7.2246599795695295e+02 1.0000000000000000e+00 2.1737143412455495e+00 2.1146811143635018e+00 1.3666062466991480e+00 
20 1 2 1.0279997790718867e+00 -5.1188156030084787e+02 1.0000000000000000e+00 3.1230796417493623e+00 2.1438588581762819e+00 1.2298824261364993e+00 
64 1 2 1.0279994615820225e+00 -5.3183713905122397e+02 1.0000000000000000e+00 2.3862689081171182e+00 2.1616936361751922e+00 1.2609702586821598e+00 
22 1 2 1.0280002846281553e+00 -5.0077719801796582e+02 1.0000000000000000e+00 3.2690728390706107e+00 1.8187095330108833e+00 8.4463266551713678e-01 
100 1 2 1.0280003839707912e+00 -5.1025183835627166e+02 1.0000000000000000e+00 3.1715589466855332e+00 1.7313505773115185e+00 7.1685152393380436e-01 
69 1 2 1.0280002433950008e+00 -5.6341674940258918e+02 1.0000000000000000e+00 2.8675023112031650e+00 1.7742528541328508e+00 6.7923108392798115e-01 
35 1 2 1.0279985284106714e+00 -5.4337431999538580e+02 1.0000000000000000e+00 2.2804775648593321e+00 1.4477614297708030e+00 2.9894990080954851e+00 
59 1 2 1.0279985284106719e+00 -3.8554531146824303e+02 1.0000000000000000e+00 2.2804775648606226e+00 1.4477614297676438e+00 2.9894990080970536e+00 
71 1 2 1.0279985284106719e+00 -4.4626892503110292e+02 1.0000000000000000e+00 2.2804775648606226e+00 1.4477614297676438e+00 2.9894990080970536e+00 
65 1 2 1.0279985284106719e+00 -4.5382477533318905e+02 1.0000000000000000e+00 2.2804775648606226e+00 1.4477614297676438e+00 2.9894990080970536e+00 
18 1 2 1.0279985284106719e+00 -4.8767981092308281e+02 1.0000000000000000e+00 2.2804775648606226e+00 1.4477614297676438e+00 2.9894990080970536e+00 
23 1 2 1.0279985284106719e+00 -5.1817882857633083e+02 1.0000000000000000e+00 2.2804775648606226e+00 1.4477614297676438e+00 2.9894990080970536e+00 
29 1 2 1.0279985284106719e+00 -5.5057851983263674e+02 1.0000000000000000e+00 2.2804775648606226e+00 1.4477614297676438e+00 2.9894990080970536e+00 
101 1 2 1.0279985284106719e+00 -3.7526790440882519e+02 1.0000000000000000e+00 2.2804775648606226e+00 1.4477614297676438e+00 2.9894990080970536e+00 
66 1 2 1.0279985284106719e+00 -5.3353027076714079e+02 1.0000000000000000e+00 2.2804775648606226e+00 1.4477614297676438e+00 2.9894990080970536e+00 
72 1 2 1.0279985284106719e+00 -5.0365067675286258e+02 1.0000000000000000e+00 2.2804775648606226e+00 1.4477614297676438e+00 2.9894990080970536e+00 
60 1 2 1.0279985284106719e+00 -4.3759957799969044e+02 1.0000000000000000e+00 2.2804775648606226e+00 1.4477614297676438e+00 2.9894990080970536e+00 
24 1 2 1.0279985284106719e+00 -5.3488553100639081e+02 1.0000000000000000e+00 2.2804775648606226e+00 1.4477614297676438e+00 2.9894990080970536e+00 
30 1 2 1.0279985284106719e+00 -6.1170303725504561e+02 1.0000000000000000e+00 2.2804775648606226e+00 1.4477614297676438e+00 2.9894990080970536e+00 
36 1 2 1.0279985284106710e+00 -5.6021907032801596e+02 1.0000000000000000e+00 2.2804775648592437e+00 1.4477614297712282e+00 2.9894990080953012e+00 
51 1 2 1.0279985303490535e+00 -4.4403718682668119e+02 1.0000000000000000e+00 2.2860225450198182e+00 1.4457372775447896e+00 2.9919562702922211e+00 
34 1 2 1.0279985302659025e+00 -7.4595031378609758e+02 1.0000000000000000e+00 2.2868692400484529e+00 1.4431913125145739e+00 2.9931460346207510e+00 
28 1 2 1.0279985312887479e+00 -5.7749668304933562e+02 1.0000000000000000e+00 2.2909827639855895e+00 1.4388866380067300e+00 2.9959473936217598e+00 
70 1 2 1.0279985371078146e+00 -5.6509337294120303e+02 1.0000000000000000e+00 2.3047172987500666e+00 1.4374719959440065e+00 3.0004688321613644e+00 
106 1 2 1.0279985339765976e+00 -4.5247279141560352e+02 1.0000000000000000e+00 2.3024170962487047e+00 1.4241364770305953e+00 3.0044902337768802e+00 
32 1 2 1.0279987261651751e+00 -6.9518569740541409e+02 1.0000000000000000e+00 1.3550326346651111e+00 1.0810757285489365e+00 2.0316391981369470e+00 
19 1 2 1.0280015187552527e+00 -5.9457557731958070e+02 1.0000000000000000e+00 3.3471665436587785e+00 2.8348669282457317e-01 6.8063117794732575e-01 
31 1 2 1.0280015283741215e+00 -6.3676153739372887e+02 1.0000000000000000e+00 3.3196578319217589e+00 2.3441046247518035e-01 6.9598913340463364e-01 
67 1 2 1.0280015327281928e+00 -5.8397446074516722e+02 1.0000000000000000e+00 3.3171505898969227e+00 2.1154471220147703e-01 7.1055909586659749e-01 
55 1 2 1.0280015336824462e+00 -5.3758441484714740e+02 1.0000000000000000e+00 3.3128768751430551e+00 2.0736166296045649e-01 7.1090698916478534e-01 
177 1 2 1.0280015358228913e+00 -4.6031599386622634e+02 1.0000000000000000e+00 3.3022452987973794e+00 1.9831109982422940e-01 7.1091780939566473e-01 
169 1 2 1.0280015358228938e+00 -5.7660824764732945e+02 1.0000000000000000e+00 3.3022453052664265e+00 1.9831111143757027e-01 7.1091780486859724e-01 
134 1 2 1.0280015358228913e+00 -4.5412920639995781e+02 1.0000000000000000e+00 3.3022452987974993e+00 1.9831109982391948e-01 7.1091780939596971e-01 
98 1 2 1.0280015358228931e+00 -4.1012128641101850e+02 1.0000000000000000e+00 3.3022453052670868e+00 1.9831111143768546e-01 7.1091780486891776e-01 
97 1 2 1.0280015358228931e+00 -3.8363378757213599e+02 1.0000000000000000e+00 3.3022453052670868e+00 1.9831111143768546e-01 7.1091780486891776e-01 
175 1 2 1.0280015358228931e+00 -6.5700766984775396e+02 1.0000000000000000e+00 3.3022453052670868e+00 1.9831111143768546e-01 7.1091780486891776e-01 
140 1 2 1.0280015358228931e+00 -4.7472680160694085e+02 1.0000000000000000e+00 3.3022453052670868e+00 1.9831111143768546e-01 7.1091780486891776e-01 
139 1 2 1.0280015358228931e+00 -4.6488718847026473e+02 1.0000000000000000e+00 3.3022453052670868e+00 1.9831111143768546e-01 7.1091780486891776e-01 
170 1 2 1.0280015358229089e+00 -5.4023700233985778e+02 1.0000000000000000e+00 3.3022452913505433e+00 1.9831109928618287e-01 7.1091780522118619e-01 
133 1 2 1.0280015358228933e+00 -4.4418230675310156e+02 1.0000000000000000e+00 3.3022453052670833e+00 1.9831111143769078e-01 7.1091780486891099e-01 
103 1 2 1.0280015358228936e+00 -4.2949533543421200e+02 1.0000000000000000e+00 3.3022453052673688e+00 1.9831111143760813e-01 7.1091780486914691e-01 
104 1 2 1.0280015358229042e+00 -4.1026403784884991e+02 1.0000000000000000e+00 3.3022452928365107e+00 1.9831110010595682e-01 7.1091780553302486e-01 
141 1 2 1.0280015358229044e+00 -4.2454705221583038e+02 1.0000000000000000e+00 3.3022453075177904e+00 1.9831111264671022e-01 7.1091780536523197e-01 
176 1 2 1.0280015358228931e+00 -5.5832288768602143e+02 1.0000000000000000e+00 3.3022453052669287e+00 1.9831111143757940e-01 7.1091780486889766e-01 
61 1 2 1.0280015409386125e+00 -5.4906335887476382e+02 1.0000000000000000e+00 3.2646159394281535e+00 1.7372180825284242e-01 7.0677752586823051e-01 
68 1 2 1.0280015625108816e+00 -6.0046907962052637e+02 1.0000000000000000e+00 3.1229639154966282e+00 1.9969669475086718e+01 8.0545237430195049e-01 
25 1 2 1.0280011529515656e+00 -5.6546414547470386e+02 1.0000000000000000e+00 2.8246141664192708e+00 1.9485581753436080e+01 1.3654728169817791e+00 
74 1 2 1.0280000007416727e+00 -4.8171550121339828e+02 1.0000000000000000e+00 1.1422120895634347e+01 5.6416250353013151e+00 1.6523482531796136e+00 
84 1 2 1.0280000007416625e+00 -4.6264566349235793e+02 1.0000000000000000e+00 1.1422121955269393e+01 5.6416211159143179e+00 1.6523404160593265e+00 
152 1 2 1.0280000007416852e+00 -5.0158437583154102e+02 1.0000000000000000e+00 1.1422122161416834e+01 5.6416202688900610e+00 1.6523388376021000e+00 
39 1 2 1.0280000007416690e+00 -4.7246173190899526e+02 1.0000000000000000e+00 1.1422124817219125e+01 5.6416107101030084e+00 1.6523193638617546e+00 
41 1 2 1.0280000007416670e+00 -4.7725874569943886e+02 1.0000000000000000e+00 1.1422124801130632e+01 5.6416106488872479e+00 1.6523194060265838e+00 
47 1 2 1.0280000007416670e+00 -5.0389655356789274e+02 1.0000000000000000e+00 1.1422124801130632e+01 5.6416106488872479e+00 1.6523194060265838e+00 
4 1 2 1.0280000007416670e+00 -4.4510426796132646e+02 1.0000000000000000e+00 1.1422124801130632e+01 5.6416106488872479e+00 1.6523194060265838e+00 
11 1 2 1.0280000007416670e+00 -5.0315797647811570e+02 1.0000000000000000e+00 1.1422124801130632e+01 5.6416106488872479e+00 1.6523194060265838e+00 
10 1 2 1.0280000007416670e+00 -5.4918075852844117e+02 1.0000000000000000e+00 1.1422124801130632e+01 5.6416106488872479e+00 1.6523194060265838e+00 
12 1 2 1.0280000007416670e+00 -5.4790600055636935e+02 1.0000000000000000e+00 1.1422124801130632e+01 5.6416106488872479e+00 1.6523194060265838e+00 
6 1 2 1.0280000007416670e+00 -7.2571900765379928e+02 1.0000000000000000e+00 1.1422124801130632e+01 5.6416106488872479e+00 1.6523194060265838e+00 
5 1 2 1.0280000007416670e+00 -5.0721917779069167e+02 1.0000000000000000e+00 1.1422124801130632e+01 5.6416106488872479e+00 1.6523194060265838e+00 
82 1 2 1.0280000007416670e+00 -3.2820881878938980e+02 1.0000000000000000e+00 1.1422124801130632e+01 5.6416106488872479e+00 1.6523194060265838e+00 
17 1 2 1.0280000007416670e+00 -6.2906514992839016e+02 1.0000000000000000e+00 1.1422124801130632e+01 5.6416106488872479e+00 1.6523194060265838e+00 
42 1 2 1.0280000007416670e+00 -4.3398233011993688e+02 1.0000000000000000e+00 1.1422124801130632e+01 5.6416106488872479e+00 1.6523194060265838e+00 
52 1 2 1.0280000007416670e+00 -4.2533577575352217e+02 1.0000000000000000e+00 1.1422124801130632e+01 5.6416106488872479e+00 1.6523194060265838e+00 
53 1 2 1.0280000007416670e+00 -4.0492657478145935e+02 1.0000000000000000e+00 1.1422124801130632e+01 5.6416106488872479e+00 1.6523194060265838e+00 
83 1 2 1.0280000007416670e+00 -4.4695038478759693e+02 1.0000000000000000e+00 1.1422124801130632e+01 5.6416106488872479e+00 1.6523194060265838e+00 
16 1 2 1.0280000007416670e+00 -5.2740556005370013e+02 1.0000000000000000e+00 1.1422124801130632e+01 5.6416106488872479e+00 1.6523194060265838e+00 
40 1 2 1.0280000007416670e+00 -4.0718714228375455e+02 1.0000000000000000e+00 1.1422124801130632e+01 5.6416106488872479e+00 1.6523194060265838e+00 
46 1 2 1.0280000007416670e+00 -4.0717726737960317e+02 1.0000000000000000e+00 1.1422124801130632e+01 5.6416106488872479e+00 1.6523194060265838e+00 
57 1 2 1.0280000006613081e+00 -4.7609390632891314e+02 1.0000000000000000e+00 1.1438838389311451e+01 6.2264977422421950e+00 3.4475131873961540e+00 
171 1 2 1.0279999996857792e+00 -5.5528993151910277e+02 1.0000000000000000e+00 1.3082378919017041e+01 6.8054584334994619e+00 5.4126439667688340e+00 
93 1 2 1.0279999996857798e+00 -3.8664376259419294e+02 1.0000000000000000e+00 1.3082378919002867e+01 6.8054584334984707e+00 5.4126439667743362e+00 
172 1 2 1.0279999996857800e+00 -6.2438420347712849e+02 1.0000000000000000e+00 1.3082378919003055e+01 6.8054584334985186e+00 5.4126439667742501e+00 
99 1 2 1.0279999996857803e+00 -4.0064251024720346e+02 1.0000000000000000e+00 1.3082378919017218e+01 6.8054584334995596e+00 5.4126439667687265e+00 
89 1 2 1.0279999996857794e+00 -3.3652443940682622e+02 1.0000000000000000e+00 1.3082378919003956e+01 6.8054584334983499e+00 5.4126439667739819e+00 
130 1 2 1.0279999996857794e+00 -4.9141375583356728e+02 1.0000000000000000e+00 1.3082378919003499e+01 6.8054584334983561e+00 5.4126439667741453e+00 
124 1 2 1.0279999996857798e+00 -4.2263165450543534e+02 1.0000000000000000e+00 1.3082378919002867e+01 6.8054584334984707e+00 5.4126439667743362e+00 
88 1 2 1.0279999996857798e+00 -3.4701886659265085e+02 1.0000000000000000e+00 1.3082378919002867e+01 6.8054584334984707e+00 5.4126439667743362e+00 
94 1 2 1.0279999996857798e+00 -3.7267134497740471e+02 1.0000000000000000e+00 1.3082378919002867e+01 6.8054584334984707e+00 5.4126439667743362e+00 
137 1 2 1.0279999996857798e+00 -4.8571528329611044e+02 1.0000000000000000e+00 1.3082378919002867e+01 6.8054584334984707e+00 5.4126439667743362e+00 
135 1 2 1.0279999996857798e+00 -4.1458349525120093e+02 1.0000000000000000e+00 1.3082378919002867e+01 6.8054584334984707e+00 5.4126439667743362e+00 
132 1 2 1.0279999996857798e+00 -4.7373230378146684e+02 1.0000000000000000e+00 1.3082378919002867e+01 6.8054584334984707e+00 5.4126439667743362e+00 
96 1 2 1.0279999996857798e+00 -4.1570391357348410e+02 1.0000000000000000e+00 1.3082378919002867e+01 6.8054584334984707e+00 5.4126439667743362e+00 
95 1 2 1.0279999996857798e+00 -3.3654121435207389e+02 1.0000000000000000e+00 1.3082378919002867e+01 6.8054584334984707e+00 5.4126439667743362e+00 
131 1 2 1.0279999996857798e+00 -5.0332314964361569e+02 1.0000000000000000e+00 1.3082378919002867e+01 6.8054584334984707e+00 5.4126439667743362e+00 
168 1 2 1.0279999996857798e+00 -6.2584240897733082e+02 1.0000000000000000e+00 1.3082378919002867e+01 6.8054584334984707e+00 5.4126439667743362e+00 
167 1 2 1.0279999996857798e+00 -6.7495646881456321e+02 1.0000000000000000e+00 1.3082378919002867e+01 6.8054584334984707e+00 5.4126439667743362e+00 
125 1 2 1.0279999996857798e+00 -5.3114154897526157e+02 1.0000000000000000e+00 1.3082378919002867e+01 6.8054584334984707e+00 5.4126439667743362e+00 
129 1 2 1.0279999996857798e+00 -4.3862477674853210e+02 1.0000000000000000e+00 1.3082378919002867e+01 6.8054584334984707e+00 5.4126439667743362e+00 
87 1 2 1.0279999996857800e+00 -3.8053319802942633e+02 1.0000000000000000e+00 1.3082378919021851e+01 6.8054584335005908e+00 5.4126439667666970e+00 
123 1 2 1.0279999996857800e+00 -4.1992319848426581e+02 1.0000000000000000e+00 1.3082378919021851e+01 6.8054584335005908e+00 5.4126439667666970e+00 
159 1 2 1.0279999996857792e+00 -3.9291129666652444e+02 1.0000000000000000e+00 1.3082378919002945e+01 6.8054584334984485e+00 5.4126439667743202e+00 
162 1 2 1.0279999996857792e+00 -5.9160632560623617e+02 1.0000000000000000e+00 1.3082378919002945e+01 6.8054584334984485e+00 5.4126439667743202e+00 
126 1 2 1.0279999996857792e+00 -5.5688189548358059e+02 1.0000000000000000e+00 1.3082378919002945e+01 6.8054584334984485e+00 5.4126439667743202e+00 
161 1 2 1.0279999996857792e+00 -5.7599616152564681e+02 1.0000000000000000e+00 1.3082378919002945e+01 6.8054584334984485e+00 5.4126439667743202e+00 
160 1 2 1.0279999996857792e+00 -5.9673223637889032e+02 1.0000000000000000e+00 1.3082378919002945e+01 6.8054584334984485e+00 5.4126439667743202e+00 
156 1 2 1.0279999996857792e+00 -5.8583167359118227e+02 1.0000000000000000e+00 1.3082378919002945e+01 6.8054584334984485e+00 5.4126439667743202e+00 
119 1 2 1.0279999996857792e+00 -4.5317818176336351e+02 1.0000000000000000e+00 1.3082378919002945e+01 6.8054584334984485e+00 5.4126439667743202e+00 
165 1 2 1.0279999996857792e+00 -4.7037673066505533e+02 1.0000000000000000e+00 1.3082378919002945e+01 6.8054584334984485e+00 5.4126439667743202e+00 
136 1 2 1.0279999996857792e+00 -4.8884371959012742e+02 1.0000000000000000e+00 1.3082378919002945e+01 6.8054584334984485e+00 5.4126439667743202e+00 
173 1 2 1.0279999996857789e+00 -6.7986767947571673e+02 1.0000000000000000e+00 1.3082378919018405e+01 6.8054584335000383e+00 5.4126439667681474e+00 
166 1 2 1.0279999996857800e+00 -6.1016335154639467e+02 1.0000000000000000e+00 1.3082378919021851e+01 6.8054584335005908e+00 5.4126439667666970e+00 
26 1 2 1.0280000000627116e+00 -6.1860387127578565e+02 1.0000000000000000e+00 1.3163992571335994e+01 6.7803039172589079e+00 5.3848184212769201e+00 
56 1 2 1.0280000000866107e+00 -5.1562708191162983e+02 1.0000000000000000e+00 1.3172194681372304e+01 6.7742532813176437e+00 5.3823564323834443e+00 
174 1 2 1.0279999973458291e+00 -4.9713304493515102e+02 1.0000000000000000e+00 1.4042582344245711e+01 4.4601697264661526e+00 2.8435344778747349e-02 
81 1 2 1.0279999973458291e+00 -3.8950312210134922e+02 1.0000000000000000e+00 1.4042582344245711e+01 4.4601697264661526e+00 2.8435344778747349e-02 
117 1 2 1.0279999973458291e+00 -4.2853638011685518e+02 1.0000000000000000e+00 1.4042582344245711e+01 4.4601697264661526e+00 2.8435344778747349e-02 
153 1 2 1.0279999973458291e+00 -4.7832991818686236e+02 1.0000000000000000e+00 1.4042582344245711e+01 4.4601697264661526e+00 2.8435344778747349e-02 
111 1 2 1.0279999973458291e+00 -4.5550064649367351e+02 1.0000000000000000e+00 1.4042582344245711e+01 4.4601697264661526e+00 2.8435344778747349e-02 
118 1 2 1.0279999973458291e+00 -4.2715141067203234e+02 1.0000000000000000e+00 1.4042582344245711e+01 4.4601697264661526e+00 2.8435344778747349e-02 
76 1 2 1.0279999973458291e+00 -4.4652929989481936e+02 1.0000000000000000e+00 1.4042582344245711e+01 4.4601697264661526e+00 2.8435344778747349e-02 
155 1 2 1.0279999973458291e+00 -5.0384620640797596e+02 1.0000000000000000e+00 1.4042582344245711e+01 4.4601697264661526e+00 2.8435344778747349e-02 
154 1 2 1.0279999973458291e+00 -5.3758334358177785e+02 1.0000000000000000e+00 1.4042582344245711e+01 4.4601697264661526e+00 2.8435344778747349e-02 
148 1 2 1.0279999973458291e+00 -5.9307868058175234e+02 1.0000000000000000e+00 1.4042582344245711e+01 4.4601697264661526e+00 2.8435344778747349e-02 
112 1 2 1.0279999973458291e+00 -4.9677556858082579e+02 1.0000000000000000e+00 1.4042582344245711e+01 4.4601697264661526e+00 2.8435344778747349e-02 
75 1 2 1.0279999973458291e+00 -4.1407410069755736e+02 1.0000000000000000e+00 1.4042582344245711e+01 4.4601697264661526e+00 2.8435344778747349e-02 
102 1 2 1.0279999973458291e+00 -3.8772377108369096e+02 1.0000000000000000e+00 1.4042582344245711e+01 4.4601697264661526e+00 2.8435344778747349e-02 
147 1 2 1.0279999973458291e+00 -4.7360392923748003e+02 1.0000000000000000e+00 1.4042582344245711e+01 4.4601697264661526e+00 2.8435344778747349e-02 
110 1 2 1.0279999973458291e+00 -4.1954166286540931e+02 1.0000000000000000e+00 1.4042582344245711e+01 4.4601697264661526e+00 2.8435344778747349e-02 
120 1 2 1.0279999973458291e+00 -4.2685957182354525e+02 1.0000000000000000e+00 1.4042582344245711e+01 4.4601697264661526e+00 2.8435344778747349e-02 
178 1 2 1.0279999973458291e+00 -7.9457458820458123e+02 1.0000000000000000e+00 1.4042582344245711e+01 4.4601697264661526e+00 2.8435344778747349e-02 
142 1 2 1.0279999973458291e+00 -5.5103154209517982e+02 1.0000000000000000e+00 1.4042582344245711e+01 4.4601697264661526e+00 2.8435344778747349e-02 
149 1 2 1.0279999973458291e+00 -6.2378020401802542e+02 1.0000000000000000e+00 1.4042582344245711e+01 4.4601697264661526e+00 2.8435344778747349e-02 
113 1 2 1.0279999973458291e+00 -5.4439059452504466e+02 1.0000000000000000e+00 1.4042582344245711e+01 4.4601697264661526e+00 2.8435344778747349e-02 
77 1 2 1.0279999973458291e+00 -4.7533348638759668e+02 1.0000000000000000e+00 1.4042582344245711e+01 4.4601697264661526e+00 2.8435344778747349e-02 
114 1 2 1.0279999973458291e+00 -5.1658248215861840e+02 1.0000000000000000e+00 1.4042582344245711e+01 4.4601697264661526e+00 2.8435344778747349e-02 
150 1 2 1.0279999973458291e+00 -6.2365524201018548e+02 1.0000000000000000e+00 1.4042582344245711e+01 4.4601697264661526e+00 2.8435344778747349e-02 
179 1 2 1.0279999973458291e+00 -6.6880808336504208e+02 1.0000000000000000e+00 1.4042582344245711e+01 4.4601697264661526e+00 2.8435344778747349e-02 
180 1 2 1.0279999973458291e+00 -5.4887834778350930e+02 1.0000000000000000e+00 1.4042582344245711e+01 4.4601697264661526e+00 2.8435344778747349e-02 
143 1 2 1.0279999973458291e+00 -4.8690209307097632e+02 1.0000000000000000e+00 1.4042582344245711e+01 4.4601697264661526e+00 2.8435344778747349e-02 
107 1 2 1.0279999973458291e+00 -3.9441447617886490e+02 1.0000000000000000e+00 1.4042582344245711e+01 4.4601697264661526e+00 2.8435344778747349e-02 
144 1 2 1.0279999973458291e+00 -4.3867870911004468e+02 1.0000000000000000e+00 1.4042582344245711e+01 4.4601697264661526e+00 2.8435344778747349e-02 
108 1 2 1.0279999973458291e+00 -3.8581848419761656e+02 1.0000000000000000e+00 1.4042582344245711e+01 4.4601697264661526e+00 2.8435344778747349e-02 
138 1 2 1.0279999973458291e+00 -4.3127033036665648e+02 1.0000000000000000e+00 1.4042582344245711e+01 4.4601697264661526e+00 2.8435344778747349e-02 
146 1 2 1.0280003669746878e+00 -4.0912374941788323e+02 1.0000000000000000e+00 1.8829362954792547e+01 1.6139861583836073e+01 1.7199831593367192e+00 
80 1 2 1.0279997591348631e+00 -4.8269922896225034e+02 1.0000000000000000e+00 1.9359102680950517e+01 1.6012813358275050e+01 1.8106757531606266e+00 
73 1 2 1.0280018208211834e+00 -5.1906995946379345e+02 1.0000000000000000e+00 1.8249120686021350e+01 1.6470096113075556e+01 2.1208251129093498e+00 
54 1 2 1.0280018327548202e+00 -4.5325381011855239e+02 1.0000000000000000e+00 1.8246156148380674e+01 1.6474764505864879e+01 2.1277127474946336e+00 
3 1 2 1.0280018345113464e+00 -4.4657840164430962e+02 1.0000000000000000e+00 1.8245246300916186e+01 1.6474543270531814e+01 2.1295244435531910e+00 
43 1 2 1.0280018356731069e+00 -5.5890536553512572e+02 1.0000000000000000e+00 1.8245420383589416e+01 1.6475905661740651e+01 2.1294527828668595e+00 
90 1 2 1.0280018361512198e+00 -4.1258608462851851e+02 1.0000000000000000e+00 1.8245434412186022e+01 1.6476355384555397e+01 2.1295191535451670e+00 
48 1 2 1.0280018363222421e+00 -4.6352018864991874e+02 1.0000000000000000e+00 1.8245411995343044e+01 1.6476462976261484e+01 2.1295878989692634e+00 
14 1 2 1.0280018365409080e+00 -5.0339546158417647e+02 1.0000000000000000e+00 1.8245126392199381e+01 1.6476100420241682e+01 2.1300965047179576e+00 
15 1 2 1.0280018364448775e+00 -5.9704633212512340e+02 1.0000000000000000e+00 1.8245254585859037e+01 1.6476265009534089e+01 2.1298684536266079e+00 
50 1 2 1.0280018366107908e+00 -5.3570586577676966e+02 1.0000000000000000e+00 1.8245201803817732e+01 1.6476308892645633e+01 2.1299860031397655e+00 
44 1 2 1.0280018366097294e+00 -5.8409304567246113e+02 1.0000000000000000e+00 1.8245233590258550e+01 1.6476369815210298e+01 2.1299337487403749e+00 
38 1 2 1.0280018366408874e+00 -5.6225863222479347e+02 1.0000000000000000e+00 1.8245234803259372e+01 1.6476399877091907e+01 2.1299376476944150e+00 
1 1 2 1.0280018369034489e+00 -6.8721069261869468e+02 1.0000000000000000e+00 1.8245146267410217e+01 1.6476459723345751e+01 2.1301319974699489e+00 
8 1 2 1.0280018366843675e+00 -6.0298186440437019e+02 1.0000000000000000e+00 1.8245246417132115e+01 1.6476460922769441e+01 2.1299268072777870e+00 
13 1 2 1.0280018374645701e+00 -6.1029440664886533e+02 1.0000000000000000e+00 1.8244940444318356e+01 1.6476555736226533e+01 2.1305751494052161e+00 
7 1 2 1.0280018376614561e+00 -7.1651963633614139e+02 1.0000000000000000e+00 1.8244937262053618e+01 1.6476723893973656e+01 2.1306176069963962e+00 
9 1 2 1.0280018376555038e+00 -4.5873383047867571e+02 1.0000000000000000e+00 1.8244638578810893e+01 1.6476137150114873e+01 2.1311069853271434e+00 
49 1 2 1.0280018386819787e+00 -4.9403363059076145e+02 1.0000000000000000e+00 1.8244603187321673e+01 1.6476977950635209e+01 2.1313596695945534e+00 
37 1 2 1.0280018386462715e+00 -6.0449653056182080e+02 1.0000000000000000e+00 1.8244770700451266e+01 1.6477272817423739e+01 2.1310781193187935e+00 
45 1 2 1.0280018410687159e+00 -4.2221854995399690e+02 1.0000000000000000e+00 1.8244179121718716e+01 1.6478274825669441e+01 2.1325169876375538e+00 
2 1 2 1.0280018417990351e+00 -6.0402690488710255e+02 1.0000000000000000e+00 1.8243928279159515e+01 1.6478437007023743e+01 2.1330721244327706e+00 
79 1 2 1.0280019396807234e+00 -4.6152853221611730e+02 1.0000000000000000e+00 1.8201642614891338e+01 1.6658407819753652e+01 2.4699549473791640e+00 
63 1 2 1.0279982373604479e+00 -5.8477803973110167e+02 1.0000000000000000e+00 1.9864786379228541e+01 1.6248906094184893e+01 2.9794432893634548e+00 
58 1 2 1.0279982361840363e+00 -4.3576813916579465e+02 1.0000000000000000e+00 1.9865544186944863e+01 1.6250460639973525e+01 2.9794128829345485e+00 
145 1 2 1.0279982363881897e+00 -7.1993880937756217e+02 1.0000000000000000e+00 1.9863941482240712e+01 1.6249807446014600e+01 2.9811865659631760e+00 
164 1 2 1.0279982363722886e+00 -3.9480278036393821e+02 1.0000000000000000e+00 1.9863927315722187e+01 1.6249822244483347e+01 2.9812155080917120e+00 
128 1 2 1.0279982363687616e+00 -3.4272669012421932e+02 1.0000000000000000e+00 1.9863924820366883e+01 1.6249825595189062e+01 2.9812210871666771e+00 
92 1 2 1.0279982363682769e+00 -3.3111847564319800e+02 1.0000000000000000e+00 1.9863924400648713e+01 1.6249826177267330e+01 2.9812220375162157e+00 
163 1 2 1.0279982363657436e+00 -4.1021511553563874e+02 1.0000000000000000e+00 1.9863922722031450e+01 1.6249828580310961e+01 2.9812258868873589e+00 
127 1 2 1.0279982363655018e+00 -3.7068984762048098e+02 1.0000000000000000e+00 1.9863922545447302e+01 1.6249828839146353e+01 2.9812262957335673e+00 
91 1 2 1.0279982363652735e+00 -3.3874275833425384e+02 1.0000000000000000e+00 1.9863922364530580e+01 1.6249829101715484e+01 2.9812267129172119e+00 
86 1 2 1.0279982363650444e+00 -3.7835673075556116e+02 1.0000000000000000e+00 1.9863922262654963e+01 1.6249829257528440e+01 2.9812269529859590e+00 
122 1 2 1.0279982363647659e+00 -3.8200493050408346e+02 1.0000000000000000e+00 1.9863922048896395e+01 1.6249829579145018e+01 2.9812274532640592e+00 
158 1 2 1.0279982363649927e+00 -3.8603561107048046e+02 1.0000000000000000e+00 1.9863922228149256e+01 1.6249829312146179e+01 2.9812270354903223e+00 
151 1 2 1.0279982363597426e+00 -5.2340884348985799e+02 1.0000000000000000e+00 1.9863918777664590e+01 1.6249834562516213e+01 2.9812351489334046e+00 
157 1 2 1.0279982363628217e+00 -4.7316419851782257e+02 1.0000000000000000e+00 1.9863920813178382e+01 1.6249831440987915e+01 2.9812303469986881e+00 
121 1 2 1.0279982363619418e+00 -4.1957589504374391e+02 1.0000000000000000e+00 1.9863920208692452e+01 1.6249832364441929e+01 2.9812317707422209e+00 
85 1 2 1.0279982363567404e+00 -3.8527508670845754e+02 1.0000000000000000e+00 1.9863916809300925e+01 1.6249837545660554e+01 2.9812397694758235e+00 
115 1 2 1.0279982363398064e+00 -4.5824536979040261e+02 1.0000000000000000e+00 1.9863907824269027e+01 1.6249855021314069e+01 2.9812633558099648e+00 
109 1 2 1.0279982363176501e+00 -5.3289725815084387e+02 1.0000000000000000e+00 1.9863894332957667e+01 1.6249877340578621e+01 2.9812962318053779e+00 
116 1 2 1.0279982362379008e+00 -4.1157261142455098e+02 1.0000000000000000e+00 1.9863881289638634e+01 1.6249965821000199e+01 2.9813712692313503e+00 
78 1 2 1.0279997139495487e+00 -3.7254592113819962e+02 1.0000000000000000e+00 1.8958328208569164e+01 1.6640360787220292e+01 3.3487529746401528e+00 

Velocities

33 1.3434357288239444e-03 -2.0358441932074206e-04 -1.9870487548415538e-03
105 1.3591102118781417e-03 -2.0411306720661467e-04 -1.9825578041046963e-03
21 1.1293611380243840e-03 -2.2887653680561879e-04 -2.1806630332908321e-03
62 1.4217258103212240e-03 1.4067860385459316e-04 -1.8072809764658421e-03
27 1.5139608330470441e-03 1.4515815547675194e-04 -1.8213467011339057e-03
20 1.2076764463605327e-03 5.0849594530783155e-04 -1.9107676776804734e-03
64 1.3806783580600490e-03 2.3917607258095886e-04 -1.8063794996847960e-03
22 1.3775436491365648e-03 8.1706455143836898e-04 -2.1702816387505655e-03
100 1.3815433891016683e-03 8.4332919929216152e-04 -2.2657818904622219e-03
69 1.2832698741531549e-03 7.7427137694082901e-04 -2.1958724953833344e-03
35 1.8548286545049439e-03 -1.6958930098425983e-04 -3.3402243768882842e-03
59 1.8548286545066752e-03 -1.6958930098606671e-04 -3.3402243769005140e-03
71 1.8548286545066752e-03 -1.6958930098606671e-04 -3.3402243769005140e-03
65 1.8548286545066752e-03 -1.6958930098606671e-04 -3.3402243769005140e-03
18 1.8548286545066752e-03 -1.6958930098606671e-04 -3.3402243769005140e-03
23 1.8548286545066752e-03 -1.6958930098606671e-04 -3.3402243769005140e-03
29 1.8548286545066752e-03 -1.6958930098606671e-04 -3.3402243769005140e-03
101 1.8548286545066752e-03 -1.6958930098606671e-04 -3.3402243769005140e-03
66 1.8548286545066752e-03 -1.6958930098606671e-04 -3.3402243769005140e-03
72 1.8548286545066752e-03 -1.6958930098606671e-04 -3.3402243769005140e-03
60 1.8548286545066752e-03 -1.6958930098606671e-04 -3.3402243769005140e-03
24 1.8548286545066752e-03 -1.6958930098606671e-04 -3.3402243769005140e-03
30 1.8548286545066752e-03 -1.6958930098606671e-04 -3.3402243769005140e-03
36 1.8548286545069289e-03 -1.6958930098753895e-04 -3.3402243768952400e-03
51 1.8478325043501085e-03 -1.6626698155427312e-04 -3.3415940233544224e-03
34 1.8473709827963097e-03 -1.6458846590056074e-04 -3.3435761685658514e-03
28 1.8429444636498950e-03 -1.6065001723664514e-04 -3.3467236651201332e-03
70 1.8246842041242705e-03 -1.5422560578445376e-04 -3.3466953579860330e-03
106 1.8314244468648972e-03 -1.4825179075741399e-04 -3.3571481175492558e-03
32 2.7765440045903061e-03 -4.3524603211823784e-04 -2.9796541758631999e-03
19 2.0420683391412574e-03 -1.8706376801625919e-04 -3.1293281003721557e-03
31 2.0412246593321513e-03 -2.6232081641230183e-04 -3.1452631507220279e-03
67 2.0510247419538901e-03 -2.9683423265856911e-04 -3.1418091672233248e-03
55 2.0492689214215406e-03 -3.0371232327813997e-04 -3.1449296800657037e-03
177 2.0442207674775579e-03 -3.1886237312413277e-04 -3.1530137012665553e-03
169 2.0442207671778566e-03 -3.1886235459969487e-04 -3.1530136980707068e-03
134 2.0442207674786455e-03 -3.1886237312548488e-04 -3.1530137012676616e-03
98 2.0442207671793559e-03 -3.1886235460037310e-04 -3.1530136980712875e-03
97 2.0442207671793559e-03 -3.1886235460037310e-04 -3.1530136980712875e-03
175 2.0442207671793559e-03 -3.1886235460037310e-04 -3.1530136980712875e-03
140 2.0442207671793559e-03 -3.1886235460037310e-04 -3.1530136980712875e-03
139 2.0442207671793559e-03 -3.1886235460037310e-04 -3.1530136980712875e-03