LAMMPS data file via write_data, version 30 Jul 2016, timestep = 50400000

180 atoms
2 atom types

0.0000000000000000e+00 2.0000000000000000e+01 xlo xhi
0.0000000000000000e+00 2.0000000000000000e+01 ylo yhi
0.0000000000000000e+00 2.0000000000000000e+01 zlo zhi

Masses

1 3.896
2 4.31

Atoms # meso-molecular

33 1 2 1.0279993140475527e+00 -6.3161526480608052e+02 1.0000000000000000e+00 2.6243371642074376e+00 2.3078349728802658e+00 1.7854703216559822e+00 
105 1 2 1.0279993126696447e+00 -5.3657974829256375e+02 1.0000000000000000e+00 2.6034708716762487e+00 2.3053634513422607e+00 1.7778789522537000e+00 
21 1 2 1.0279992977542125e+00 -6.0305189409304683e+02 1.0000000000000000e+00 2.9039594368802133e+00 2.2600894183864964e+00 2.0658165349832536e+00 
62 1 2 1.0279995685284937e+00 -5.7654122391897283e+02 1.0000000000000000e+00 2.4122820988184035e+00 2.1925860714080563e+00 1.2919464099238223e+00 
27 1 2 1.0279995802121458e+00 -7.2246599358068636e+02 1.0000000000000000e+00 2.2414990346784229e+00 2.1112862559349810e+00 1.2824081429421836e+00 
20 1 2 1.0279998810843340e+00 -5.1188155739903010e+02 1.0000000000000000e+00 3.1790734799608242e+00 2.1537833955675096e+00 1.1426796246211095e+00 
64 1 2 1.0279996489668135e+00 -5.3183713559944715e+02 1.0000000000000000e+00 2.4491239512380023e+00 2.1617172432067302e+00 1.1774561673095363e+00 
22 1 2 1.0280002514725741e+00 -5.0077719498245955e+02 1.0000000000000000e+00 3.3313344049859550e+00 1.8403236622889261e+00 7.4821717307856894e-01 
100 1 2 1.0280003245705036e+00 -5.1025183514980597e+02 1.0000000000000000e+00 3.2340921904234934e+00 1.7539870649921072e+00 6.1697144761006883e-01 
69 1 2 1.0280002243710802e+00 -5.6341674573410944e+02 1.0000000000000000e+00 2.9266161482447020e+00 1.7942588837613658e+00 5.8192774753360965e-01 
35 1 2 1.0279991459067526e+00 -5.4337430234310580e+02 1.0000000000000000e+00 2.3598230300510759e+00 1.4333199983945908e+00 2.8491368878854697e+00 
59 1 2 1.0279991459067526e+00 -3.8554529381582472e+02 1.0000000000000000e+00 2.3598230300523371e+00 1.4333199983915006e+00 2.8491368878869450e+00 
71 1 2 1.0279991459067526e+00 -4.4626890737868462e+02 1.0000000000000000e+00 2.3598230300523371e+00 1.4333199983915006e+00 2.8491368878869450e+00 
65 1 2 1.0279991459067526e+00 -4.5382475768077074e+02 1.0000000000000000e+00 2.3598230300523371e+00 1.4333199983915006e+00 2.8491368878869450e+00 
18 1 2 1.0279991459067526e+00 -4.8767979327066450e+02 1.0000000000000000e+00 2.3598230300523371e+00 1.4333199983915006e+00 2.8491368878869450e+00 
23 1 2 1.0279991459067526e+00 -5.1817881092405082e+02 1.0000000000000000e+00 2.3598230300523371e+00 1.4333199983915006e+00 2.8491368878869450e+00 
29 1 2 1.0279991459067526e+00 -5.5057850218035674e+02 1.0000000000000000e+00 2.3598230300523371e+00 1.4333199983915006e+00 2.8491368878869450e+00 
101 1 2 1.0279991459067526e+00 -3.7526788675640688e+02 1.0000000000000000e+00 2.3598230300523371e+00 1.4333199983915006e+00 2.8491368878869450e+00 
66 1 2 1.0279991459067526e+00 -5.3353025311486078e+02 1.0000000000000000e+00 2.3598230300523371e+00 1.4333199983915006e+00 2.8491368878869450e+00 
72 1 2 1.0279991459067526e+00 -5.0365065910044427e+02 1.0000000000000000e+00 2.3598230300523371e+00 1.4333199983915006e+00 2.8491368878869450e+00 
60 1 2 1.0279991459067526e+00 -4.3759956034727213e+02 1.0000000000000000e+00 2.3598230300523371e+00 1.4333199983915006e+00 2.8491368878869450e+00 
24 1 2 1.0279991459067526e+00 -5.3488551335411080e+02 1.0000000000000000e+00 2.3598230300523371e+00 1.4333199983915006e+00 2.8491368878869450e+00 
30 1 2 1.0279991459067526e+00 -6.1170301960276561e+02 1.0000000000000000e+00 2.3598230300523371e+00 1.4333199983915006e+00 2.8491368878869450e+00 
36 1 2 1.0279991459067526e+00 -5.6021905267573595e+02 1.0000000000000000e+00 2.3598230300509817e+00 1.4333199983950027e+00 2.8491368878852970e+00 
51 1 2 1.0279991473712418e+00 -4.4403716919984288e+02 1.0000000000000000e+00 2.3651186413877521e+00 1.4314100776811332e+00 2.8515448086278847e+00 
34 1 2 1.0279991472269239e+00 -7.4595029609825315e+02 1.0000000000000000e+00 2.3659507161258846e+00 1.4289192348628328e+00 2.8526587219949473e+00 
28 1 2 1.0279991478774653e+00 -5.7749666529928606e+02 1.0000000000000000e+00 2.3699087348211214e+00 1.4247466969545455e+00 2.8553408899789181e+00 
70 1 2 1.0279991523248970e+00 -5.6509335535882121e+02 1.0000000000000000e+00 2.3829894849212456e+00 1.4235569775944981e+00 2.8598697889502698e+00 
106 1 2 1.0279991493240672e+00 -4.5247277341076608e+02 1.0000000000000000e+00 2.3809408210701282e+00 1.4104103128633214e+00 2.8634846736417434e+00 
32 1 2 1.0279989697089369e+00 -6.9518564640017109e+02 1.0000000000000000e+00 1.4743733644143961e+00 1.0551180329970142e+00 1.9040691514595980e+00 
19 1 2 1.0280008021316092e+00 -5.9457555977076663e+02 1.0000000000000000e+00 3.4345315624725190e+00 2.6792961622968192e-01 5.4873452331920913e-01 
31 1 2 1.0280007676746743e+00 -6.3676151791143582e+02 1.0000000000000000e+00 3.4070830449588123e+00 2.1616935823393810e-01 5.6351655595328609e-01 
67 1 2 1.0280007538690168e+00 -5.8397444049951230e+02 1.0000000000000000e+00 3.4049417039290968e+00 1.9208396479452752e-01 5.7819095592352399e-01 
55 1 2 1.0280007501839101e+00 -5.3758439439736640e+02 1.0000000000000000e+00 3.4006192749686273e+00 1.8765719467013681e-01 5.7842846926042701e-01 
177 1 2 1.0280007417141330e+00 -4.6031597292767378e+02 1.0000000000000000e+00 3.3898426310971366e+00 1.7807012829126298e-01 5.7815468583391572e-01 
169 1 2 1.0280007417141508e+00 -5.7660822670285017e+02 1.0000000000000000e+00 3.3898426375314683e+00 1.7807014055757064e-01 5.7815468142465776e-01 
134 1 2 1.0280007417141328e+00 -4.5412918546140526e+02 1.0000000000000000e+00 3.3898426310972614e+00 1.7807012829093447e-01 5.7815468583422291e-01 
98 1 2 1.0280007417141506e+00 -4.1012126547246606e+02 1.0000000000000000e+00 3.3898426375321500e+00 1.7807014055769252e-01 5.7815468142500281e-01 
97 1 2 1.0280007417141506e+00 -3.8363376663358355e+02 1.0000000000000000e+00 3.3898426375321500e+00 1.7807014055769252e-01 5.7815468142500281e-01 
175 1 2 1.0280007417141506e+00 -6.5700764890327468e+02 1.0000000000000000e+00 3.3898426375321500e+00 1.7807014055769252e-01 5.7815468142500281e-01 
140 1 2 1.0280007417141506e+00 -4.7472678066838841e+02 1.0000000000000000e+00 3.3898426375321500e+00 1.7807014055769252e-01 5.7815468142500281e-01 
139 1 2 1.0280007417141506e+00 -4.6488716753171229e+02 1.0000000000000000e+00 3.3898426375321500e+00 1.7807014055769252e-01 5.7815468142500281e-01 
170 1 2 1.0280007417141401e+00 -5.4023698139537805e+02 1.0000000000000000e+00 3.3898426234342778e+00 1.7807012768581254e-01 5.7815468140937698e-01 
133 1 2 1.0280007417141512e+00 -4.4418228581454912e+02 1.0000000000000000e+00 3.3898426375321367e+00 1.7807014055770171e-01 5.7815468142499149e-01 
103 1 2 1.0280007417141508e+00 -4.2949531449565956e+02 1.0000000000000000e+00 3.3898426375324400e+00 1.7807014055761522e-01 5.7815468142524173e-01 
104 1 2 1.0280007417141404e+00 -4.1026401691029736e+02 1.0000000000000000e+00 3.3898426249490843e+00 1.7807012855702262e-01 5.7815468176474560e-01 
141 1 2 1.0280007417141526e+00 -4.2454703127727805e+02 1.0000000000000000e+00 3.3898426398273802e+00 1.7807014184288819e-01 5.7815468198755404e-01 
176 1 2 1.0280007417141501e+00 -5.5832286674154216e+02 1.0000000000000000e+00 3.3898426375319852e+00 1.7807014055758316e-01 5.7815468142497628e-01 
61 1 2 1.0280007144304815e+00 -5.4906333640791490e+02 1.0000000000000000e+00 3.3515829088697182e+00 1.5196871986756791e-01 5.7296763554077468e-01 
68 1 2 1.0280004852274280e+00 -6.0046904587870904e+02 1.0000000000000000e+00 3.2112160196214554e+00 1.9935780831504431e+01 6.6880064237374715e-01 
25 1 2 1.0279989952931794e+00 -5.6546407393916900e+02 1.0000000000000000e+00 2.9281496433557046e+00 1.9424479898641192e+01 1.2241148493189344e+00 
58 1 2 1.0279975931751246e+00 -4.3576810535784256e+02 1.0000000000000000e+00 2.7069552048900575e-01 1.5930638254964208e+01 2.4885182310278697e+00 
63 1 2 1.0279975955673162e+00 -5.8477800600307432e+02 1.0000000000000000e+00 2.7000092017798288e-01 1.5929080727651888e+01 2.4885112423750511e+00 
145 1 2 1.0279975949988944e+00 -7.1993877564692843e+02 1.0000000000000000e+00 2.6918105627724587e-01 1.5929958094699428e+01 2.4901819140039452e+00 
164 1 2 1.0279975949898559e+00 -3.9480274663328009e+02 1.0000000000000000e+00 2.6916731653283377e-01 1.5929972492259461e+01 2.4902096459668526e+00 
128 1 2 1.0279975949873033e+00 -3.4272665639352800e+02 1.0000000000000000e+00 2.6916488355715529e-01 1.5929975766463128e+01 2.4902150031883918e+00 
92 1 2 1.0279975949869948e+00 -3.3111844191250100e+02 1.0000000000000000e+00 2.6916447401301474e-01 1.5929976335526749e+01 2.4902159160061839e+00 
121 1 2 1.0279975949820217e+00 -4.1957586131297006e+02 1.0000000000000000e+00 2.6916037724729197e-01 1.5929982389764058e+01 2.4902252700225818e+00 
157 1 2 1.0279975949827578e+00 -4.7316416478705986e+02 1.0000000000000000e+00 2.6916096854435756e-01 1.5929981485728982e+01 2.4902239013263143e+00 
163 1 2 1.0279975949850562e+00 -4.1021508180491367e+02 1.0000000000000000e+00 2.6916283479582720e-01 1.5929978685928299e+01 2.4902196143971516e+00 
158 1 2 1.0279975949845213e+00 -3.8603557733974674e+02 1.0000000000000000e+00 2.6916235207820288e-01 1.5929979402077180e+01 2.4902207182887555e+00 
122 1 2 1.0279975949842235e+00 -3.8200489677334622e+02 1.0000000000000000e+00 2.6916217685479932e-01 1.5929979663373647e+01 2.4902211198200455e+00 
86 1 2 1.0279975949845033e+00 -3.7835669702482812e+02 1.0000000000000000e+00 2.6916238586376967e-01 1.5929979348582586e+01 2.4902206389495780e+00 
91 1 2 1.0279975949846389e+00 -3.3874272460352284e+02 1.0000000000000000e+00 2.6916248552066202e-01 1.5929979196045219e+01 2.4902204081609209e+00 
127 1 2 1.0279975949848481e+00 -3.7068981388975340e+02 1.0000000000000000e+00 2.6916266225184798e-01 1.5929978939176726e+01 2.4902200072906080e+00 
85 1 2 1.0279975949779023e+00 -3.8527505297761786e+02 1.0000000000000000e+00 2.6915705223544667e-01 1.5929987461885613e+01 2.4902329593381345e+00 
151 1 2 1.0279975949803140e+00 -5.2340880975905554e+02 1.0000000000000000e+00 2.6915897723899673e-01 1.5929984541780314e+01 2.4902285177598800e+00 
115 1 2 1.0279975949623501e+00 -4.5824533605926382e+02 1.0000000000000000e+00 2.6914819876831192e-01 1.5930004619270939e+01 2.4902556836920455e+00 
109 1 2 1.0279975949436615e+00 -5.3289722441938704e+02 1.0000000000000000e+00 2.6913497250343266e-01 1.5930026491617410e+01 2.4902873113945616e+00 
116 1 2 1.0279975948434470e+00 -4.1157257769046737e+02 1.0000000000000000e+00 2.6912103471181048e-01 1.5930114010972332e+01 2.4903603609015410e+00 
74 1 2 1.0280000018603535e+00 -4.8171550121339828e+02 1.0000000000000000e+00 1.1169335285293403e+01 5.8168415261313067e+00 1.9782539834458017e+00 
84 1 2 1.0280000018605762e+00 -4.6264566349235793e+02 1.0000000000000000e+00 1.1169336345372342e+01 5.8168376067398748e+00 1.9782461459554499e+00 
152 1 2 1.0280000018605484e+00 -5.0158437583154102e+02 1.0000000000000000e+00 1.1169336551609021e+01 5.8168367597122748e+00 1.9782445674236764e+00 
39 1 2 1.0280000018603721e+00 -4.7246173190899526e+02 1.0000000000000000e+00 1.1169339208510438e+01 5.8168272009226145e+00 1.9782250927628893e+00 
41 1 2 1.0280000018603599e+00 -4.7725874569943886e+02 1.0000000000000000e+00 1.1169339192419862e+01 5.8168271397032285e+00 1.9782251349297899e+00 
47 1 2 1.0280000018603599e+00 -5.0389655356789274e+02 1.0000000000000000e+00 1.1169339192419862e+01 5.8168271397032285e+00 1.9782251349297899e+00 
4 1 2 1.0280000018603599e+00 -4.4510426796132646e+02 1.0000000000000000e+00 1.1169339192419862e+01 5.8168271397032285e+00 1.9782251349297899e+00 
11 1 2 1.0280000018603599e+00 -5.0315797647811570e+02 1.0000000000000000e+00 1.1169339192419862e+01 5.8168271397032285e+00 1.9782251349297899e+00 
10 1 2 1.0280000018603599e+00 -5.4918075852844117e+02 1.0000000000000000e+00 1.1169339192419862e+01 5.8168271397032285e+00 1.9782251349297899e+00 
12 1 2 1.0280000018603599e+00 -5.4790600055636935e+02 1.0000000000000000e+00 1.1169339192419862e+01 5.8168271397032285e+00 1.9782251349297899e+00 
6 1 2 1.0280000018603599e+00 -7.2571900765379928e+02 1.0000000000000000e+00 1.1169339192419862e+01 5.8168271397032285e+00 1.9782251349297899e+00 
5 1 2 1.0280000018603599e+00 -5.0721917779069167e+02 1.0000000000000000e+00 1.1169339192419862e+01 5.8168271397032285e+00 1.9782251349297899e+00 
82 1 2 1.0280000018603599e+00 -3.2820881878938980e+02 1.0000000000000000e+00 1.1169339192419862e+01 5.8168271397032285e+00 1.9782251349297899e+00 
17 1 2 1.0280000018603599e+00 -6.2906514992839016e+02 1.0000000000000000e+00 1.1169339192419862e+01 5.8168271397032285e+00 1.9782251349297899e+00 
42 1 2 1.0280000018603599e+00 -4.3398233011993688e+02 1.0000000000000000e+00 1.1169339192419862e+01 5.8168271397032285e+00 1.9782251349297899e+00 
52 1 2 1.0280000018603599e+00 -4.2533577575352217e+02 1.0000000000000000e+00 1.1169339192419862e+01 5.8168271397032285e+00 1.9782251349297899e+00 
53 1 2 1.0280000018603599e+00 -4.0492657478145935e+02 1.0000000000000000e+00 1.1169339192419862e+01 5.8168271397032285e+00 1.9782251349297899e+00 
83 1 2 1.0280000018603599e+00 -4.4695038478759693e+02 1.0000000000000000e+00 1.1169339192419862e+01 5.8168271397032285e+00 1.9782251349297899e+00 
16 1 2 1.0280000018603599e+00 -5.2740556005370013e+02 1.0000000000000000e+00 1.1169339192419862e+01 5.8168271397032285e+00 1.9782251349297899e+00 
40 1 2 1.0280000018603599e+00 -4.0718714228375455e+02 1.0000000000000000e+00 1.1169339192419862e+01 5.8168271397032285e+00 1.9782251349297899e+00 
46 1 2 1.0280000018603599e+00 -4.0717726737960317e+02 1.0000000000000000e+00 1.1169339192419862e+01 5.8168271397032285e+00 1.9782251349297899e+00 
57 1 2 1.0280000003182912e+00 -4.7609390632891314e+02 1.0000000000000000e+00 1.1185965968291134e+01 6.4016764470510683e+00 3.7734966251797339e+00 
171 1 2 1.0280000002378165e+00 -5.5528993151910277e+02 1.0000000000000000e+00 1.2829385075506018e+01 6.9805847058742039e+00 5.7386713096063087e+00 
93 1 2 1.0280000002378165e+00 -3.8664376259419294e+02 1.0000000000000000e+00 1.2829385075491837e+01 6.9805847058732144e+00 5.7386713096118180e+00 
172 1 2 1.0280000002378160e+00 -6.2438420347712849e+02 1.0000000000000000e+00 1.2829385075492031e+01 6.9805847058732731e+00 5.7386713096117292e+00 
99 1 2 1.0280000002378151e+00 -4.0064251024720346e+02 1.0000000000000000e+00 1.2829385075506213e+01 6.9805847058743105e+00 5.7386713096062119e+00 
89 1 2 1.0280000002378167e+00 -3.3652443940682622e+02 1.0000000000000000e+00 1.2829385075492933e+01 6.9805847058731008e+00 5.7386713096114521e+00 
130 1 2 1.0280000002378156e+00 -4.9141375583356728e+02 1.0000000000000000e+00 1.2829385075492500e+01 6.9805847058731052e+00 5.7386713096116191e+00 
124 1 2 1.0280000002378165e+00 -4.2263165450543534e+02 1.0000000000000000e+00 1.2829385075491837e+01 6.9805847058732144e+00 5.7386713096118180e+00 
88 1 2 1.0280000002378165e+00 -3.4701886659265085e+02 1.0000000000000000e+00 1.2829385075491837e+01 6.9805847058732144e+00 5.7386713096118180e+00 
94 1 2 1.0280000002378165e+00 -3.7267134497740471e+02 1.0000000000000000e+00 1.2829385075491837e+01 6.9805847058732144e+00 5.7386713096118180e+00 
137 1 2 1.0280000002378165e+00 -4.8571528329611044e+02 1.0000000000000000e+00 1.2829385075491837e+01 6.9805847058732144e+00 5.7386713096118180e+00 
135 1 2 1.0280000002378165e+00 -4.1458349525120093e+02 1.0000000000000000e+00 1.2829385075491837e+01 6.9805847058732144e+00 5.7386713096118180e+00 
132 1 2 1.0280000002378165e+00 -4.7373230378146684e+02 1.0000000000000000e+00 1.2829385075491837e+01 6.9805847058732144e+00 5.7386713096118180e+00 
96 1 2 1.0280000002378165e+00 -4.1570391357348410e+02 1.0000000000000000e+00 1.2829385075491837e+01 6.9805847058732144e+00 5.7386713096118180e+00 
95 1 2 1.0280000002378165e+00 -3.3654121435207389e+02 1.0000000000000000e+00 1.2829385075491837e+01 6.9805847058732144e+00 5.7386713096118180e+00 
131 1 2 1.0280000002378165e+00 -5.0332314964361569e+02 1.0000000000000000e+00 1.2829385075491837e+01 6.9805847058732144e+00 5.7386713096118180e+00 
168 1 2 1.0280000002378165e+00 -6.2584240897733082e+02 1.0000000000000000e+00 1.2829385075491837e+01 6.9805847058732144e+00 5.7386713096118180e+00 
167 1 2 1.0280000002378165e+00 -6.7495646881456321e+02 1.0000000000000000e+00 1.2829385075491837e+01 6.9805847058732144e+00 5.7386713096118180e+00 
125 1 2 1.0280000002378165e+00 -5.3114154897526157e+02 1.0000000000000000e+00 1.2829385075491837e+01 6.9805847058732144e+00 5.7386713096118180e+00 
129 1 2 1.0280000002378165e+00 -4.3862477674853210e+02 1.0000000000000000e+00 1.2829385075491837e+01 6.9805847058732144e+00 5.7386713096118180e+00 
87 1 2 1.0280000002378165e+00 -3.8053319802942633e+02 1.0000000000000000e+00 1.2829385075510832e+01 6.9805847058753363e+00 5.7386713096041770e+00 
123 1 2 1.0280000002378165e+00 -4.1992319848426581e+02 1.0000000000000000e+00 1.2829385075510832e+01 6.9805847058753363e+00 5.7386713096041770e+00 
159 1 2 1.0280000002378158e+00 -3.9291129666652444e+02 1.0000000000000000e+00 1.2829385075491933e+01 6.9805847058731896e+00 5.7386713096117958e+00 
162 1 2 1.0280000002378158e+00 -5.9160632560623617e+02 1.0000000000000000e+00 1.2829385075491933e+01 6.9805847058731896e+00 5.7386713096117958e+00 
126 1 2 1.0280000002378158e+00 -5.5688189548358059e+02 1.0000000000000000e+00 1.2829385075491933e+01 6.9805847058731896e+00 5.7386713096117958e+00 
161 1 2 1.0280000002378158e+00 -5.7599616152564681e+02 1.0000000000000000e+00 1.2829385075491933e+01 6.9805847058731896e+00 5.7386713096117958e+00 
160 1 2 1.0280000002378158e+00 -5.9673223637889032e+02 1.0000000000000000e+00 1.2829385075491933e+01 6.9805847058731896e+00 5.7386713096117958e+00 
156 1 2 1.0280000002378158e+00 -5.8583167359118227e+02 1.0000000000000000e+00 1.2829385075491933e+01 6.9805847058731896e+00 5.7386713096117958e+00 
119 1 2 1.0280000002378158e+00 -4.5317818176336351e+02 1.0000000000000000e+00 1.2829385075491933e+01 6.9805847058731896e+00 5.7386713096117958e+00 
165 1 2 1.0280000002378158e+00 -4.7037673066505533e+02 1.0000000000000000e+00 1.2829385075491933e+01 6.9805847058731896e+00 5.7386713096117958e+00 
136 1 2 1.0280000002378158e+00 -4.8884371959012742e+02 1.0000000000000000e+00 1.2829385075491933e+01 6.9805847058731896e+00 5.7386713096117958e+00 
173 1 2 1.0280000002378153e+00 -6.7986767947571673e+02 1.0000000000000000e+00 1.2829385075507403e+01 6.9805847058747812e+00 5.7386713096056212e+00 
166 1 2 1.0280000002378165e+00 -6.1016335154639467e+02 1.0000000000000000e+00 1.2829385075510832e+01 6.9805847058753363e+00 5.7386713096041770e+00 
26 1 2 1.0280000005243237e+00 -6.1860387127578565e+02 1.0000000000000000e+00 1.2911000582951397e+01 6.9554315885181293e+00 5.7108489255260251e+00 
56 1 2 1.0280000005439989e+00 -5.1562708191162983e+02 1.0000000000000000e+00 1.2919202931887897e+01 6.9493810511344325e+00 5.7083871274785443e+00 
174 1 2 1.0279999984299508e+00 -4.9713304493515102e+02 1.0000000000000000e+00 1.3789884432169746e+01 4.6354865304263182e+00 3.5441605569468188e-01 
81 1 2 1.0279999984299508e+00 -3.8950312210134922e+02 1.0000000000000000e+00 1.3789884432169746e+01 4.6354865304263182e+00 3.5441605569468188e-01 
117 1 2 1.0279999984299508e+00 -4.2853638011685518e+02 1.0000000000000000e+00 1.3789884432169746e+01 4.6354865304263182e+00 3.5441605569468188e-01 
153 1 2 1.0279999984299508e+00 -4.7832991818686236e+02 1.0000000000000000e+00 1.3789884432169746e+01 4.6354865304263182e+00 3.5441605569468188e-01 
111 1 2 1.0279999984299508e+00 -4.5550064649367351e+02 1.0000000000000000e+00 1.3789884432169746e+01 4.6354865304263182e+00 3.5441605569468188e-01 
118 1 2 1.0279999984299508e+00 -4.2715141067203234e+02 1.0000000000000000e+00 1.3789884432169746e+01 4.6354865304263182e+00 3.5441605569468188e-01 
76 1 2 1.0279999984299508e+00 -4.4652929989481936e+02 1.0000000000000000e+00 1.3789884432169746e+01 4.6354865304263182e+00 3.5441605569468188e-01 
155 1 2 1.0279999984299508e+00 -5.0384620640797596e+02 1.0000000000000000e+00 1.3789884432169746e+01 4.6354865304263182e+00 3.5441605569468188e-01 
154 1 2 1.0279999984299508e+00 -5.3758334358177785e+02 1.0000000000000000e+00 1.3789884432169746e+01 4.6354865304263182e+00 3.5441605569468188e-01 
148 1 2 1.0279999984299508e+00 -5.9307868058175234e+02 1.0000000000000000e+00 1.3789884432169746e+01 4.6354865304263182e+00 3.5441605569468188e-01 
112 1 2 1.0279999984299508e+00 -4.9677556858082579e+02 1.0000000000000000e+00 1.3789884432169746e+01 4.6354865304263182e+00 3.5441605569468188e-01 
75 1 2 1.0279999984299508e+00 -4.1407410069755736e+02 1.0000000000000000e+00 1.3789884432169746e+01 4.6354865304263182e+00 3.5441605569468188e-01 
102 1 2 1.0279999984299508e+00 -3.8772377108369096e+02 1.0000000000000000e+00 1.3789884432169746e+01 4.6354865304263182e+00 3.5441605569468188e-01 
147 1 2 1.0279999984299508e+00 -4.7360392923748003e+02 1.0000000000000000e+00 1.3789884432169746e+01 4.6354865304263182e+00 3.5441605569468188e-01 
110 1 2 1.0279999984299508e+00 -4.1954166286540931e+02 1.0000000000000000e+00 1.3789884432169746e+01 4.6354865304263182e+00 3.5441605569468188e-01 
120 1 2 1.0279999984299508e+00 -4.2685957182354525e+02 1.0000000000000000e+00 1.3789884432169746e+01 4.6354865304263182e+00 3.5441605569468188e-01 
178 1 2 1.0279999984299508e+00 -7.9457458820458123e+02 1.0000000000000000e+00 1.3789884432169746e+01 4.6354865304263182e+00 3.5441605569468188e-01 
142 1 2 1.0279999984299508e+00 -5.5103154209517982e+02 1.0000000000000000e+00 1.3789884432169746e+01 4.6354865304263182e+00 3.5441605569468188e-01 
149 1 2 1.0279999984299508e+00 -6.2378020401802542e+02 1.0000000000000000e+00 1.3789884432169746e+01 4.6354865304263182e+00 3.5441605569468188e-01 
113 1 2 1.0279999984299508e+00 -5.4439059452504466e+02 1.0000000000000000e+00 1.3789884432169746e+01 4.6354865304263182e+00 3.5441605569468188e-01 
77 1 2 1.0279999984299508e+00 -4.7533348638759668e+02 1.0000000000000000e+00 1.3789884432169746e+01 4.6354865304263182e+00 3.5441605569468188e-01 
114 1 2 1.0279999984299508e+00 -5.1658248215861840e+02 1.0000000000000000e+00 1.3789884432169746e+01 4.6354865304263182e+00 3.5441605569468188e-01 
150 1 2 1.0279999984299508e+00 -6.2365524201018548e+02 1.0000000000000000e+00 1.3789884432169746e+01 4.6354865304263182e+00 3.5441605569468188e-01 
179 1 2 1.0279999984299508e+00 -6.6880808336504208e+02 1.0000000000000000e+00 1.3789884432169746e+01 4.6354865304263182e+00 3.5441605569468188e-01 
180 1 2 1.0279999984299508e+00 -5.4887834778350930e+02 1.0000000000000000e+00 1.3789884432169746e+01 4.6354865304263182e+00 3.5441605569468188e-01 
143 1 2 1.0279999984299508e+00 -4.8690209307097632e+02 1.0000000000000000e+00 1.3789884432169746e+01 4.6354865304263182e+00 3.5441605569468188e-01 
107 1 2 1.0279999984299508e+00 -3.9441447617886490e+02 1.0000000000000000e+00 1.3789884432169746e+01 4.6354865304263182e+00 3.5441605569468188e-01 
144 1 2 1.0279999984299508e+00 -4.3867870911004468e+02 1.0000000000000000e+00 1.3789884432169746e+01 4.6354865304263182e+00 3.5441605569468188e-01 
108 1 2 1.0279999984299508e+00 -3.8581848419761656e+02 1.0000000000000000e+00 1.3789884432169746e+01 4.6354865304263182e+00 3.5441605569468188e-01 
138 1 2 1.0279999984299508e+00 -4.3127033036665648e+02 1.0000000000000000e+00 1.3789884432169746e+01 4.6354865304263182e+00 3.5441605569468188e-01 
146 1 2 1.0280005138130321e+00 -4.0912373551363766e+02 1.0000000000000000e+00 1.9262230419835635e+01 1.5793368118564800e+01 1.2172844603894413e+00 
80 1 2 1.0279995304375911e+00 -4.8269920859550382e+02 1.0000000000000000e+00 1.9788067536430642e+01 1.5674598084056333e+01 1.3229778482154606e+00 
73 1 2 1.0280023642535643e+00 -5.1906995034318879e+02 1.0000000000000000e+00 1.8662064891421121e+01 1.6125738787762060e+01 1.6095274423071897e+00 
54 1 2 1.0280023766396502e+00 -4.5325380100245673e+02 1.0000000000000000e+00 1.8658830220589593e+01 1.6130620546049482e+01 1.6166393355801909e+00 
3 1 2 1.0280023782857366e+00 -4.4657839255277230e+02 1.0000000000000000e+00 1.8657874912415391e+01 1.6130386520343652e+01 1.6185052956520396e+00 
43 1 2 1.0280023796415825e+00 -5.5890535642132500e+02 1.0000000000000000e+00 1.8658027817325845e+01 1.6131814257610337e+01 1.6184370295641051e+00 
90 1 2 1.0280023801788465e+00 -4.1258607550736934e+02 1.0000000000000000e+00 1.8658032453191606e+01 1.6132285465377482e+01 1.6185072937545530e+00 
48 1 2 1.0280023803614968e+00 -4.6352017952778687e+02 1.0000000000000000e+00 1.8658006360294699e+01 1.6132398136881029e+01 1.6185785889897559e+00 
14 1 2 1.0280023805065204e+00 -5.0339545247430141e+02 1.0000000000000000e+00 1.8657713107722152e+01 1.6132017596850016e+01 1.6191012485490486e+00 
15 1 2 1.0280023804438614e+00 -5.9704632301038362e+02 1.0000000000000000e+00 1.8657844693870295e+01 1.6132190346826057e+01 1.6188669012353119e+00 
50 1 2 1.0280023806101715e+00 -5.3570585666264719e+02 1.0000000000000000e+00 1.8657787990921463e+01 1.6132236197253526e+01 1.6189882313130251e+00 
44 1 2 1.0280023806199636e+00 -5.8409303655683391e+02 1.0000000000000000e+00 1.8657820163863899e+01 1.6132300103122564e+01 1.6189346311929660e+00 
38 1 2 1.0280023806552896e+00 -5.6225862310875198e+02 1.0000000000000000e+00 1.8657820764589445e+01 1.6132331602469229e+01 1.6189387748149620e+00 
1 1 2 1.0280023809168661e+00 -6.8721068350386258e+02 1.0000000000000000e+00 1.8657725963314579e+01 1.6132394093025077e+01 1.6191393251516080e+00 
8 1 2 1.0280023807076775e+00 -6.0298185528727822e+02 1.0000000000000000e+00 1.8657831642900529e+01 1.6132395589160737e+01 1.6189278572124977e+00 
13 1 2 1.0280023814700059e+00 -6.1029439753741656e+02 1.0000000000000000e+00 1.8657506548287522e+01 1.6132494197553196e+01 1.6195964600984516e+00 
7 1 2 1.0280023816878407e+00 -7.1651962722258031e+02 1.0000000000000000e+00 1.8657499390191639e+01 1.6132670375911641e+01 1.6196409250145603e+00 
9 1 2 1.0280023815772035e+00 -4.5873382137983936e+02 1.0000000000000000e+00 1.8657197384697170e+01 1.6132054910491025e+01 1.6201428635621162e+00 
49 1 2 1.0280023827062135e+00 -4.9403362148122267e+02 1.0000000000000000e+00 1.8657141036239004e+01 1.6132935773169457e+01 1.6204068418796853e+00 
37 1 2 1.0280023827246365e+00 -6.0449652144490369e+02 1.0000000000000000e+00 1.8657311189391240e+01 1.6133245121311287e+01 1.6201178876958526e+00 
45 1 2 1.0280023852077003e+00 -4.2221854083637942e+02 1.0000000000000000e+00 1.8656664183903125e+01 1.6134293643275555e+01 1.6216053266944621e+00 
2 1 2 1.0280023859297194e+00 -6.0402689577408898e+02 1.0000000000000000e+00 1.8656395767752809e+01 1.6134463001641354e+01 1.6221782972971939e+00 
79 1 2 1.0280023482942737e+00 -4.6152852247136803e+02 1.0000000000000000e+00 1.8609573286723784e+01 1.6323065925713472e+01 1.9733920218159962e+00 
78 1 2 1.0279994166065707e+00 -3.7254589966869815e+02 1.0000000000000000e+00 1.9390404948643347e+01 1.6304108084609091e+01 2.8578198321868551e+00 

Velocities

33 1.7280007495387207e-03 -5.9949752692934081e-04 -2.5774669364271798e-03
105 1.7410425153600189e-03 -5.9989439537683101e-04 -2.5735075742878044e-03
21 1.5507654471768302e-03 -6.1020390771778811e-04 -2.7450903723085823e-03
62 1.7997681740788498e-03 -3.2715659382163037e-04 -2.4046976020943344e-03
27 1.8766945794702141e-03 -3.2142922026325905e-04 -2.4163238272912574e-03
20 1.6029557588298046e-03 -2.8891847964085933e-05 -2.4758415823532957e-03
64 1.7666809327803147e-03 -2.4748055522971492e-04 -2.3976180455376763e-03
22 1.7416255720091613e-03 2.3611505669126948e-04 -2.6712533333122113e-03
100 1.7504144515498976e-03 2.5954066739318444e-04 -2.7464517784629755e-03
69 1.6795013344042815e-03 1.9925911841235110e-04 -2.6891857834021480e-03
35 2.1128782703969968e-03 -5.4942274122521363e-04 -3.6593109866523209e-03
59 2.1128782703992350e-03 -5.4942274122713776e-04 -3.6593109866631967e-03
71 2.1128782703992350e-03 -5.4942274122713776e-04 -3.6593109866631967e-03
65 2.1128782703992350e-03 -5.4942274122713776e-04 -3.6593109866631967e-03
18 2.1128782703992350e-03 -5.4942274122713776e-04 -3.6593109866631967e-03
23 2.1128782703992350e-03 -5.4942274122713776e-04 -3.6593109866631967e-03
29 2.1128782703992350e-03 -5.4942274122713776e-04 -3.6593109866631967e-03
101 2.1128782703992350e-03 -5.4942274122713776e-04 -3.6593109866631967e-03
66 2.1128782703992350e-03 -5.4942274122713776e-04 -3.6593109866631967e-03
72 2.1128782703992350e-03 -5.4942274122713776e-04 -3.6593109866631967e-03
60 2.1128782703992350e-03 -5.4942274122713776e-04 -3.6593109866631967e-03
24 2.1128782703992350e-03 -5.4942274122713776e-04 -3.6593109866631967e-03
30 2.1128782703992350e-03 -5.4942274122713776e-04 -3.6593109866631967e-03
36 2.1128782703992641e-03 -5.4942274122831032e-04 -3.6593109866598405e-03
51 2.1076183525377211e-03 -5.4710980734362375e-04 -3.6603538383991833e-03
34 2.1073784803196972e-03 -5.4607733601533173e-04 -3.6620835041697294e-03
28 2.1041840637200594e-03 -5.4350780861828793e-04 -3.6647660369079336e-03
70 2.0902824807973340e-03 -5.3882167541860135e-04 -3.6644163854053398e-03
106 2.0960210566713260e-03 -5.3553627462363436e-04 -3.6738525880819568e-03
32 3.1383691417474205e-03 -8.5339107005005560e-04 -3.4137973842235472e-03
19 2.3097472624048656e-03 -5.9612121802021963e-04 -3.4540990235013645e-03
31 2.3134866697647910e-03 -6.5277223922643286e-04 -3.4662890427708737e-03
67 2.3215910228704759e-03 -6.7816940728321231e-04 -3.4646350136331426e-03
55 2.3209600290798457e-03 -6.8326814436391395e-04 -3.4669133054219753e-03
177 2.3189056232885532e-03 -6.9448429512129306e-04 -3.4727497957928533e-03
169 2.3189056218465838e-03 -6.9448428152474697e-04 -3.4727497931540683e-03
134 2.3189056232885853e-03 -6.9448429512148149e-04 -3.4727497957924821e-03
98 2.3189056218464042e-03 -6.9448428152423186e-04 -3.4727497931528475e-03
97 2.3189056218464042e-03 -6.9448428152423186e-04 -3.4727497931528475e-03
175 2.3189056218464042e-03 -6.9448428152423186e-04 -3.4727497931528475e-03
140 2.3189056218464042e-03 -6.9448428152423186e-04 -3.4727497931528475e-03
139 2.3189056218464042e-03 -6.9448428152423186e-04 -3.4727497931528475e-03