LAMMPS data file via write_data, version 30 Jul 2016, timestep = 50400000

384 atoms
2 atom types

0.0000000000000000e+00 2.0000000000000000e+01 xlo xhi
0.0000000000000000e+00 2.0000000000000000e+01 ylo yhi
0.0000000000000000e+00 2.0000000000000000e+01 zlo zhi

Masses

1 3.896
2 4.31

Atoms # meso-molecular

271 1 2 1.1605682584842913e+00 1.0354912433692130e+03 1.0000000000000000e+00 2.0926955107172844e+00 1.0043519980120628e+00 1.2328312410537059e+00 
131 1 2 1.1605682584842913e+00 1.3097589230734006e+03 1.0000000000000000e+00 1.0285582174370713e+00 3.2476925462364665e+00 7.4036466764333742e-01 
221 1 2 1.1605682584842913e+00 -4.6323547621866808e+01 1.0000000000000000e+00 3.1992991001762476e+00 3.8196462214864466e+00 1.3814963815223200e+00 
48 1 2 1.1605682584842913e+00 1.0601030596108062e+03 1.0000000000000000e+00 5.5422907147409823e+00 5.1831077003585175e+00 3.1965248892021814e-01 
302 1 2 1.1605684106741223e+00 1.2496717971909907e+03 1.0000000000000000e+00 5.6214812322151833e+00 7.1967169908422362e+00 1.1861238912673862e+00 
75 1 2 1.1605682584842913e+00 1.0022237718625986e+03 1.0000000000000000e+00 4.8161880878287242e+00 3.7685983111567199e-02 2.0935515247940604e+00 
326 1 2 1.1605682584842913e+00 1.3010223214617749e+03 1.0000000000000000e+00 5.9344546085373528e-01 7.5717009742043508e+00 1.7721589133303823e+00 
125 1 2 1.1605682584842913e+00 5.6610589287783387e+02 1.0000000000000000e+00 1.1353218233043194e+00 9.7785078268738026e+00 1.7877282373456298e+00 
21 1 2 1.1605682585773658e+00 1.2697068939223730e+03 1.0000000000000000e+00 8.4694950651846157e-01 6.8784363883942035e-01 4.1413026884983255e+00 
181 1 2 1.1605682584842913e+00 1.3554793399707719e+03 1.0000000000000000e+00 1.0297791133669640e+00 3.7147504236408686e+00 3.0779779637066724e+00 
383 1 2 1.1605682584842913e+00 -8.6002813770880948e+02 1.0000000000000000e+00 4.3302295737401355e+00 3.5550655730649154e+00 3.7451736879999387e+00 
196 1 2 1.1605682584842913e+00 1.2520042693677915e+03 1.0000000000000000e+00 3.9000411176468341e-01 5.6979437722521400e+00 3.5792659049220825e+00 
57 1 2 1.1605682584842913e+00 1.4369606052775002e+03 1.0000000000000000e+00 5.8049916120649465e+00 2.9121589075848404e+00 5.7029685424836574e+00 
121 1 2 1.1605682584842913e+00 1.1127257038973371e+03 1.0000000000000000e+00 1.9709004771701202e+00 7.9497423838380952e+00 4.5763872847418821e+00 
189 1 2 1.1605724119449314e+00 1.3236705361045510e+03 1.0000000000000000e+00 5.8544026203499211e+00 9.4295680125037364e+00 5.0111323847050642e+00 
33 1 2 1.1605682584842913e+00 1.5841629840857331e+03 1.0000000000000000e+00 1.8543449801280540e+00 2.4599333868835407e+00 5.8203719474535909e+00 
12 1 2 1.1605682584842913e+00 -2.1623773359825260e+04 1.0000000000000000e+00 4.0929533482302931e+00 3.9076545408267274e+00 6.4267766988562123e+00 
338 1 2 1.1605682584842913e+00 -2.3661366520733327e+02 1.0000000000000000e+00 5.4238121940429151e-01 6.1209486409255671e+00 6.2937773814522240e+00 
99 1 2 1.1605682584842913e+00 7.5284866024801772e+02 1.0000000000000000e+00 3.2919305803853214e+00 6.8175957655203963e+00 5.7213326990371733e+00 
312 1 2 1.1605682584842913e+00 5.2428564663162615e+02 1.0000000000000000e+00 1.4015069235546180e+00 1.6676162901109419e+00 7.8040382281566680e+00 
374 1 2 1.1605682584842913e+00 -9.0796807465495840e+03 1.0000000000000000e+00 4.3031201276234468e+00 1.5361564637931284e+00 7.2706859090718554e+00 
174 1 2 1.1605682584842913e+00 9.6141556303147058e+02 1.0000000000000000e+00 2.0141031057902770e+00 7.4026954682299992e+00 7.6134413188178591e+00 
104 1 2 1.1605682584842913e+00 -6.7954642832045192e+02 1.0000000000000000e+00 1.3842264052661040e+00 9.5867454602658775e+00 7.8356160379299542e+00 
201 1 2 1.1605682584842913e+00 9.0234237828852383e+02 1.0000000000000000e+00 5.9199516939368282e+00 9.5743284187711382e+00 7.2480863277124330e+00 
275 1 2 1.1605682584842913e+00 1.3722945010076176e+03 1.0000000000000000e+00 4.2229345305293364e+00 1.5134918904711629e+00 9.8804059878541857e+00 
78 1 2 1.1605682584842913e+00 7.2805270646343160e+02 1.0000000000000000e+00 6.5456064878989135e+00 1.8338848487367656e+00 9.7013231018550634e+00 
381 1 2 1.1605682584842913e+00 1.3333137991182221e+03 1.0000000000000000e+00 4.7314945048985999e+00 4.1659145340761929e+00 9.3658658741937515e+00 
55 1 2 1.1605682584842913e+00 8.6513940053750184e+02 1.0000000000000000e+00 2.8304610490707569e+00 5.2091348841833405e+00 9.0849282688046777e+00 
22 1 2 1.1605682584842913e+00 9.3374405726248506e+02 1.0000000000000000e+00 6.1166852894590464e+00 6.2493427483168151e+00 8.7769054849449173e+00 
255 1 2 1.1605682584842913e+00 8.8897240985059852e+02 1.0000000000000000e+00 4.2561537189934553e+00 8.9167469025503543e+00 8.6601300738512279e+00 
182 1 2 1.1605682584842913e+00 1.0930951011700281e+03 1.0000000000000000e+00 1.6899113583786480e+00 6.1419316855195989e+00 1.0540409946739137e+01 
100 1 2 1.1605682584842913e+00 -2.4635537455049744e+03 1.0000000000000000e+00 4.8304466998158997e+00 6.1783528895713031e+00 1.0318090679683388e+01 
307 1 2 1.1605683597037935e+00 -3.1508920085011973e+03 1.0000000000000000e+00 2.9515456918903027e+00 9.0271257278691621e+00 1.1336337351340465e+01 
234 1 2 1.1605682584842913e+00 1.3003890140174917e+03 1.0000000000000000e+00 4.9074663569156991e+00 9.7067831456687106e+00 1.0524277948947194e+01 
84 1 2 1.1605682584842913e+00 9.6418356304952636e+02 1.0000000000000000e+00 1.7448657582236222e+00 4.0146227540962647e+00 1.1452233435511147e+01 
382 1 2 1.1605682584842913e+00 1.5246095139492404e+03 1.0000000000000000e+00 4.6029490157201369e+00 4.2655593749471317e+00 1.1430681099751764e+01 
236 1 2 1.1605683597037935e+00 1.5613238329957887e+03 1.0000000000000000e+00 1.6057990361990482e+00 8.0767860281392139e+00 1.2439909132106790e+01 
117 1 2 1.1605682584842913e+00 1.1092737477801684e+03 1.0000000000000000e+00 4.7942602957511831e+00 6.3880359977728174e-01 1.3150447886113836e+01 
308 1 2 1.1605682584842913e+00 1.2291107863512993e+03 1.0000000000000000e+00 2.4284239906083860e+00 5.2545819620054166e+00 1.3251078584070035e+01 
35 1 2 1.1605682584842913e+00 1.3451100280622954e+03 1.0000000000000000e+00 1.5178985122713937e+00 6.7158780085934904e+00 1.4276789993068945e+01 
379 1 2 1.1605682584842913e+00 1.8275842947333394e+03 1.0000000000000000e+00 3.5420906617585337e+00 7.8316338044274802e+00 1.3415615472511627e+01 
89 1 2 1.1605682584842913e+00 1.2590029523481630e+03 1.0000000000000000e+00 3.8449105176228668e+00 2.0643143638116368e+00 1.4569739488963624e+01 
147 1 2 1.1605682584842913e+00 8.6656934091913570e+02 1.0000000000000000e+00 1.9074920031658376e+00 4.3389939648169538e+00 1.5426415274598913e+01 
61 1 2 1.1605682584842913e+00 9.8152342590300395e+02 1.0000000000000000e+00 2.6815741998663056e+00 8.4493078678524096e+00 1.5389337760039050e+01 
56 1 2 1.1605682584842913e+00 1.6266410870203817e+03 1.0000000000000000e+00 6.1941087214224639e+00 1.8867907533361405e+00 1.6606421513731348e+01 
327 1 2 1.1605682584842913e+00 6.2323168801923271e+02 1.0000000000000000e+00 1.2780181324940512e-01 4.0380309224314805e+00 1.6843256896482529e+01 
58 1 2 1.1605682584842913e+00 1.4107444538762770e+03 1.0000000000000000e+00 6.5008134851692541e+00 4.8001987096223733e+00 1.6198503414024433e+01 
28 1 2 1.1605682584842913e+00 1.1478715455774145e+03 1.0000000000000000e+00 5.5476797810212783e+00 9.7823343880598674e+00 1.7096669160679660e+01 
83 1 2 1.1605693245187205e+00 -3.3714878210686925e+03 1.0000000000000000e+00 5.0296896233010351e+00 1.3756333728745431e+00 1.8216318514515297e+01 
281 1 2 1.1605682584842913e+00 1.7651757587656361e+03 1.0000000000000000e+00 6.2627200287540519e-01 2.1011887233183675e+00 1.7283610661100340e+01 
346 1 2 1.1605682584842913e+00 1.3138887730963515e+03 1.0000000000000000e+00 2.9973934296629969e+00 4.5594351413494456e+00 1.7160564927490022e+01 
65 1 2 1.1605682584842913e+00 1.1239277125326571e+03 1.0000000000000000e+00 4.7810544564709625e+00 5.8541027860112456e+00 1.7291547766370535e+01 
314 1 2 1.1605682584842913e+00 1.1862125142587524e+03 1.0000000000000000e+00 5.2478353424205282e-01 7.9861851706963582e+00 1.7147250429274617e+01 
169 1 2 1.1605682584842913e+00 1.1374327968923383e+03 1.0000000000000000e+00 4.0783304051894431e+00 8.0651243640530179e+00 1.7426680484602642e+01 
241 1 2 1.1605682584842913e+00 1.1002275763071286e+03 1.0000000000000000e+00 7.6134030777854145e-01 5.1293049757305358e-02 1.9371097724551351e+01 
184 1 2 1.1605682584842913e+00 1.1677949892111133e+03 1.0000000000000000e+00 3.4905443100608022e+00 1.6073595192940596e-01 1.8857002915879956e+01 
133 1 2 1.1605682584510628e+00 1.1137893853743503e+03 1.0000000000000000e+00 6.4848407564156902e+00 9.1971950942560099e-01 1.9508704953454760e+01 
367 1 2 1.1605693245519491e+00 1.3596392778107377e+03 1.0000000000000000e+00 3.7075474936094528e+00 2.3775806096317371e+00 1.9276960463321032e+01 
13 1 2 1.1605682584842913e+00 2.1362200881247406e+02 1.0000000000000000e+00 5.5566471596268459e+00 3.8269099751791065e+00 1.8788629206889940e+01 
384 1 2 1.1605682584842913e+00 1.3367267517797700e+03 1.0000000000000000e+00 2.7809691771213298e+00 5.5194732914219546e+00 1.9197158017495152e+01 
29 1 2 1.1605682584842913e+00 1.5647121065534911e+03 1.0000000000000000e+00 7.3411342599441576e-01 9.6273798586673767e+00 1.9552555581092832e+01 
108 1 2 1.1605682584842913e+00 2.8365646518367362e+02 1.0000000000000000e+00 2.4679431266458556e+00 8.5912595961845746e+00 1.8888761426481079e+01 
289 1 2 1.1605682584842913e+00 1.5141727277911241e+03 1.0000000000000000e+00 4.9839635588915963e+00 1.2060198867129630e+01 9.5348081843944651e-02 
288 1 2 1.1605682584842913e+00 -1.5254712276194477e+03 1.0000000000000000e+00 4.4464310731950585e+00 1.3789580448760885e+01 1.1661015772229786e+00 
98 1 2 1.1605688643727465e+00 9.0405426289801972e+02 1.0000000000000000e+00 7.3551385001058489e-01 1.5143798042648115e+01 1.2682250761148688e+00 
142 1 2 1.1605682584842913e+00 1.2044251429502065e+03 1.0000000000000000e+00 4.0037256306652678e+00 1.7024631196255864e+01 9.8517122373732191e-01 
266 1 2 1.1605682584842913e+00 2.8854474664897805e+02 1.0000000000000000e+00 1.3085555357090322e+00 1.7167579273418792e+01 9.3503651858359726e-01 
115 1 2 1.1605682584842913e+00 1.7351595770475810e+03 1.0000000000000000e+00 3.9216502776685003e+00 1.0627449294600613e+01 1.6936035718880171e+00 
82 1 2 1.1605682584842913e+00 -1.9467848712427112e+03 1.0000000000000000e+00 5.4135737442969507e+00 1.5795765297694874e+01 1.9541362474687318e+00 
101 1 2 1.1605682584842913e+00 -8.6130337487135421e+02 1.0000000000000000e+00 7.2362559849758268e-01 1.9395968409598122e+01 2.2816385209489214e+00 
215 1 2 1.1605682584842913e+00 1.1387817012188611e+03 1.0000000000000000e+00 1.8205039393427630e-01 1.0578559353882628e+01 3.3976184290119096e+00 
97 1 2 1.1605682584842913e+00 1.7299211324989615e+03 1.0000000000000000e+00 2.3228072278603813e+00 1.1201139453178321e+01 4.1312838340165827e+00 
114 1 2 1.1605724119449314e+00 1.3041671993120945e+03 1.0000000000000000e+00 4.8666358105300764e+00 1.0524235888014982e+01 3.7255070662353260e+00 
47 1 2 1.1605682584842913e+00 1.0970103935966490e+03 1.0000000000000000e+00 4.8331056648078050e+00 1.2768376204606186e+01 3.6963288774233396e+00 
214 1 2 1.1605682584842913e+00 5.0137547400668029e+02 1.0000000000000000e+00 1.5706727711164412e+00 1.3524980672812571e+01 3.9989479394769871e+00 
103 1 2 1.1605688643727465e+00 1.3160291831037666e+03 1.0000000000000000e+00 7.1328390232383043e-01 1.5560130353468695e+01 3.1965902353115299e+00 
207 1 2 1.1605682584842913e+00 1.7342953581747724e+03 1.0000000000000000e+00 3.6917351751568881e+00 1.5398318425642254e+01 2.9412554295186357e+00 
313 1 2 1.1605682584842913e+00 1.6300021122934354e+03 1.0000000000000000e+00 6.4630749166608830e+00 1.6304423443668686e+01 3.9842481750535086e+00 
129 1 2 1.1605682584842913e+00 8.9774182611722767e+02 1.0000000000000000e+00 2.8669630550139749e+00 1.8572865994882093e+01 4.2069596623480603e+00 
53 1 2 1.1605682584842913e+00 1.2087355756310458e+03 1.0000000000000000e+00 2.4609102349645147e+00 1.2531973082207530e+01 5.6251732817574487e+00 
352 1 2 1.1605682584842913e+00 -1.8084838562214954e+03 1.0000000000000000e+00 6.6558592366442948e+00 1.3766985919875673e+01 5.6119031587585182e+00 
257 1 2 1.1605682584842913e+00 1.5853691892065303e+03 1.0000000000000000e+00 4.7482310906971783e+00 1.5260657642242554e+01 4.6430327018897612e+00 
291 1 2 1.1605682584842913e+00 1.0283632297732306e+03 1.0000000000000000e+00 3.8145601262797091e+00 1.7014540901760459e+01 5.1029014998506801e+00 
91 1 2 1.1605682584842913e+00 -2.9544988561708296e+03 1.0000000000000000e+00 4.5725820537744548e+00 1.2313840713183751e+01 6.0862196545031813e+00 
244 1 2 1.1605682584842913e+00 1.0826432128206488e+03 1.0000000000000000e+00 2.4140135336635820e+00 1.9642465308228203e+01 6.6978240795736568e+00 
362 1 2 1.1605682584842913e+00 1.2541371743872496e+03 1.0000000000000000e+00 1.6425250178668143e+00 1.5634373120878651e+01 7.6640438651376233e+00 
347 1 2 1.1605682584842913e+00 1.1692414751085453e+03 1.0000000000000000e+00 5.7420005953448063e+00 1.4604085311613025e+01 7.8377825852739411e+00 
242 1 2 1.1605682584842913e+00 1.3397321685557210e+03 1.0000000000000000e+00 4.7973029108438530e+00 1.6672602998607754e+01 7.7759486882724502e+00 
268 1 2 1.1605682584842913e+00 1.2759318400072034e+03 1.0000000000000000e+00 6.2643462871005475e+00 1.8101612211413840e+01 7.9678186947148228e+00 
167 1 2 1.1605682584842913e+00 1.2569314668320721e+03 1.0000000000000000e+00 1.9613006108094488e+00 1.1284852394319758e+01 9.7187718444547411e+00 
235 1 2 1.1605682584842913e+00 1.4566538770658726e+03 1.0000000000000000e+00 5.7687458384174048e+00 1.2856281209384994e+01 9.5974826144176468e+00 
15 1 2 1.1605682584842913e+00 1.5117924443779152e+03 1.0000000000000000e+00 7.6982373903699319e-01 1.3799926893378307e+01 9.4507125183703060e+00 
17 1 2 1.1605682584842913e+00 1.3294643787540872e+03 1.0000000000000000e+00 2.7382920951422820e+00 1.3727093996740590e+01 8.9080714887678116e+00 
279 1 2 1.1605682584842913e+00 1.4296534532830588e+03 1.0000000000000000e+00 2.2755294452217680e+00 1.6046591783223683e+01 9.6805774500555390e+00 
213 1 2 1.1605682584842913e+00 1.2198088158736509e+03 1.0000000000000000e+00 2.5643607030997182e+00 1.9053207641531596e+01 8.7951059721173763e+00 
270 1 2 1.1605682584842913e+00 1.1111555337367695e+03 1.0000000000000000e+00 2.7191992611918057e+00 1.3358923682758991e+01 1.0967777735089493e+01 
6 1 2 1.1605682584842913e+00 1.4201703053975666e+03 1.0000000000000000e+00 2.5879845100884395e+00 1.8598335231708194e+01 1.1100497576014696e+01 
180 1 2 1.1605682584842913e+00 1.2085125415450889e+03 1.0000000000000000e+00 1.6225397731473208e+00 1.1632228746952793e+01 1.2515706402472590e+01 
60 1 2 1.1605682584842913e+00 1.5662080134065604e+03 1.0000000000000000e+00 4.4913504799578732e+00 1.6665377728499504e+01 1.1665053309011746e+01 
350 1 2 1.1605682584842913e+00 9.9378076529031932e+02 1.0000000000000000e+00 5.5848078561790049e-01 1.8481113255629943e+01 1.2329787158029806e+01 
4 1 2 1.1605682584842913e+00 -2.3580519218293026e+04 1.0000000000000000e+00 4.4455055545271707e+00 1.1917303483874493e+01 1.3340889258441877e+01 
93 1 2 1.1605682584842913e+00 1.2194938101467815e+03 1.0000000000000000e+00 8.1299382336013859e-01 1.3677928902996443e+01 1.3337211272228584e+01 
274 1 2 1.1605682584842913e+00 8.7798569122055483e+01 1.0000000000000000e+00 3.7561211033652335e+00 1.4092549841747900e+01 1.3192041961467616e+01 
113 1 2 1.1605682584842913e+00 1.3762036985342884e+03 1.0000000000000000e+00 1.0476438935491550e+00 1.5772202783661301e+01 1.3516041208320878e+01 
361 1 2 1.1605682584842913e+00 1.4788568016882450e+03 1.0000000000000000e+00 2.2869346196841129e+00 1.2822915356633201e+01 1.4773008413690775e+01 
211 1 2 1.1605682584842913e+00 1.4569573587877849e+03 1.0000000000000000e+00 5.0549423908385283e+00 1.3811873026900937e+01 1.4706435063786170e+01 
158 1 2 1.1605684411301624e+00 1.9188076950471011e+03 1.0000000000000000e+00 2.2591508084196352e-01 1.4515654535616864e+01 1.5086521703711810e+01 
110 1 2 1.1605682584842913e+00 7.4167868501432781e+02 1.0000000000000000e+00 1.8465155115303018e+00 1.8909618106235015e+01 1.5333271253814688e+01 
247 1 2 1.1605682584842913e+00 1.2143796224054331e+03 1.0000000000000000e+00 3.7135364900626477e+00 1.1276241191037096e+01 1.6261951359927853e+01 
318 1 2 1.1605682584842913e+00 3.5355666189539875e+02 1.0000000000000000e+00 1.7878067369989581e+00 1.3579878192554968e+01 1.6957129174236638e+01 
227 1 2 1.1605682584842913e+00 2.6388184513836113e+03 1.0000000000000000e+00 8.3894934113599967e-02 1.6732267358940412e+01 1.6530787809314177e+01 
358 1 2 1.1605682584842913e+00 3.4647699939469157e+03 1.0000000000000000e+00 2.7645286022728444e+00 1.6690111484881090e+01 1.6105837787564248e+01 
264 1 2 1.1605682584842913e+00 1.0565949092062979e+03 1.0000000000000000e+00 4.4768207978007473e+00 1.8052146729611490e+01 1.5787787159728447e+01 
5 1 2 1.1605682584842913e+00 -2.5320370313377384e+02 1.0000000000000000e+00 1.4566923071181637e+00 1.0792774702726629e+01 1.7312614836653950e+01 
41 1 2 1.1605682584842913e+00 7.4897527147305414e+02 1.0000000000000000e+00 2.3527027646162324e-01 1.5003344913582183e+01 1.7648672156608168e+01 
87 1 2 1.1605682584842913e+00 -5.6705058822700012e+03 1.0000000000000000e+00 3.9834692398472815e+00 1.5466066558088320e+01 1.7377827398065044e+01 
1 1 2 1.1605686082501434e+00 1.3470600848853646e+03 1.0000000000000000e+00 5.7984107379213619e+00 1.6320674830130923e+01 1.7210936788271656e+01 
375 1 2 1.1605682584842913e+00 -9.8006984105115043e+02 1.0000000000000000e+00 9.3384557373333910e-01 1.8471446518034888e+01 1.7638082163300972e+01 
304 1 2 1.1605686082501434e+00 6.2219222654189559e+02 1.0000000000000000e+00 4.9667178459040331e+00 1.7836785985245125e+01 1.8168359235542745e+01 
76 1 2 1.1605682584842913e+00 -6.0028570797567136e+03 1.0000000000000000e+00 1.4801587567542287e+00 1.3446188070780586e+01 1.9468074719029463e+01 
195 1 2 1.1605682584842913e+00 1.4287309115131466e+03 1.0000000000000000e+00 5.7567332145081567e+00 1.6566958828276380e+01 1.9736505989163405e+01 
292 1 2 1.1605682584842913e+00 4.0093733133084277e+02 1.0000000000000000e+00 8.3980588097034286e+00 3.5894072889172284e+00 4.0244115136765946e-01 
9 1 2 1.1605682584842913e+00 1.5105020160399199e+03 1.0000000000000000e+00 7.7889538987681064e+00 9.7305154910027980e+00 8.0989366999684220e-01 
59 1 2 1.1605722864683170e+00 1.0206647647028846e+03 1.0000000000000000e+00 9.6543761804939461e+00 1.3160679909006323e+00 2.5540037290587594e+00 
344 1 2 1.1605703717135363e+00 1.0064888156551045e+03 1.0000000000000000e+00 7.4874714068860060e+00 3.9641516648123436e+00 2.4463350511016557e+00 
156 1 2 1.1605682584842913e+00 6.8880168125452542e+02 1.0000000000000000e+00 1.2975659143943330e+01 3.4904634650048609e+00 1.9085757519004309e+00 
122 1 2 1.1605703717135363e+00 1.3259334229799724e+03 1.0000000000000000e+00 6.6840482420292844e+00 5.6922434875535313e+00 1.9765919383973192e+00 
172 1 2 1.1605682584842913e+00 -2.4063361022772835e+04 1.0000000000000000e+00 1.1618312148117262e+01 5.8839089004140046e+00 2.8439818078506458e+00 
369 1 2 1.1605682584842913e+00 1.2506057917931134e+03 1.0000000000000000e+00 7.9471870122153003e+00 7.6548654703263326e+00 1.5311797687577791e+00 
155 1 2 1.1605682585462940e+00 1.5313080237592521e+03 1.0000000000000000e+00 1.1664605146140335e+01 8.3558592942016805e+00 1.5151923414033572e+00 
194 1 2 1.1605682584842913e+00 2.2682085206987849e+03 1.0000000000000000e+00 1.2875637209673378e+01 9.9460330561702115e+00 2.3057218092895506e+00 
276 1 2 1.1605682584842913e+00 -8.0581876610120908e+03 1.0000000000000000e+00 7.4515312370905420e+00 1.5108552849014516e+00 2.9725411134005699e+00 
16 1 2 1.1605722864683170e+00 1.0093673409559245e+03 1.0000000000000000e+00 1.1377683917115004e+01 1.9771402054307974e+00 3.2024946752137105e+00 
322 1 2 1.1605682584842913e+00 1.2233440921650781e+03 1.0000000000000000e+00 9.8061275484522721e+00 3.2396161272768547e+00 3.5376011717361528e+00 
348 1 2 1.1605682584842913e+00 1.0504735753453679e+03 1.0000000000000000e+00 1.2955414605461160e+01 2.9187102010699144e+00 4.0638401894578191e+00 
208 1 2 1.1605682584842913e+00 -2.1721851729316950e+03 1.0000000000000000e+00 8.9925130694823334e+00 6.0487095321956890e+00 3.2311075904747808e+00 
212 1 2 1.1605682584842913e+00 1.3174847635301135e+03 1.0000000000000000e+00 9.4206626661350281e+00 8.1414172550923691e+00 3.2235062323354113e+00 
193 1 2 1.1605682584842913e+00 7.0211901642428279e+02 1.0000000000000000e+00 6.9158336325669598e+00 9.8334361723789474e+00 3.1432822479193976e+00 
222 1 2 1.1605682584842913e+00 -4.0964811252085910e+03 1.0000000000000000e+00 9.6838081230178350e+00 1.3574556858428031e+00 5.2096038449753461e+00 
299 1 2 1.1605682584842913e+00 3.3464584193745213e+02 1.0000000000000000e+00 8.0144563327512195e+00 3.8543925823513279e+00 5.4617641374167345e+00 
206 1 2 1.1605682584842913e+00 1.0791356451891841e+03 1.0000000000000000e+00 6.8185573430688864e+00 5.0899272768121078e+00 4.3523870803181657e+00 
355 1 2 1.1605682584736627e+00 1.3955688168605495e+03 1.0000000000000000e+00 7.2334563361584641e+00 7.4975846233383159e+00 5.1441687434307521e+00 
239 1 2 1.1605682584842913e+00 -2.4973639006785997e+03 1.0000000000000000e+00 6.9893735191051025e+00 2.4333716527178947e-01 6.7177946793854790e+00 
96 1 2 1.1605682584842913e+00 -3.3877355251912695e+02 1.0000000000000000e+00 1.1841815477886533e+01 1.0698545900668082e+00 5.8428663301774595e+00 
320 1 2 1.1605682584842913e+00 1.3034265095686469e+03 1.0000000000000000e+00 7.9696448155529307e+00 2.0533839341830329e+00 6.3522690759721927e+00 
323 1 2 1.1605682584842913e+00 9.3218116905944396e+02 1.0000000000000000e+00 1.0832566448966027e+01 5.0533142206181250e+00 6.7454956449955148e+00 
32 1 2 1.1605682584842913e+00 1.2582738637731397e+03 1.0000000000000000e+00 1.3266174175100385e+01 6.2201999569554616e+00 5.7284192619728707e+00 
340 1 2 1.1605683214284908e+00 1.2761462322901762e+03 1.0000000000000000e+00 8.8640876797103711e+00 7.4711988692284219e+00 6.3009434038007832e+00 
306 1 2 1.1605683214391194e+00 1.7387834184705071e+03 1.0000000000000000e+00 1.0811100116618514e+01 7.7055002615073986e+00 5.9970645158946043e+00 
150 1 2 1.1605682584842913e+00 8.2440858327394858e+02 1.0000000000000000e+00 1.2737872330981755e+01 1.8651159178350252e+00 7.5225111459820537e+00 
51 1 2 1.1605682584842913e+00 1.2560498722104971e+03 1.0000000000000000e+00 8.0990706541199433e+00 4.1496999705399631e+00 8.4353166393896934e+00 
23 1 2 1.1605682584842913e+00 1.6289386565940686e+03 1.0000000000000000e+00 1.0921182373733329e+01 3.0452798316725280e+00 7.1725814269293240e+00 
149 1 2 1.1605682584842913e+00 1.8334029705928451e+03 1.0000000000000000e+00 8.6959212607306586e+00 5.9082222060403549e+00 7.5584987270963477e+00 
233 1 2 1.1605682584842913e+00 7.7283578195448058e+02 1.0000000000000000e+00 8.3494901068405252e+00 9.4740796247526209e+00 7.2545955349827098e+00 
269 1 2 1.1605682584842913e+00 1.2119712260140723e+03 1.0000000000000000e+00 1.0885950778388343e+01 2.6804283439411014e+00 9.2106864794864727e+00 
287 1 2 1.1605682584842913e+00 8.5175157545077263e+02 1.0000000000000000e+00 1.0827724388612651e+01 4.8280948321963910e+00 8.8151729054761674e+00 
186 1 2 1.1605682584842913e+00 1.1139813009799186e+03 1.0000000000000000e+00 9.3545778693810338e+00 6.7548117716123546e+00 9.4846968765543629e+00 
148 1 2 1.1605682584842913e+00 1.0200040060590484e+03 1.0000000000000000e+00 1.2760248480150487e+01 6.2696274337540432e+00 8.6168157932169507e+00 
331 1 2 1.1605682584842913e+00 1.5099728422606377e+03 1.0000000000000000e+00 1.2308842144909752e+01 8.1700113867145667e+00 9.9539101906077878e+00 
120 1 2 1.1605682584842913e+00 -1.0662074194451998e+04 1.0000000000000000e+00 1.0598698751815510e+01 8.9892612829947982e+00 8.6847979415296859e+00 
223 1 2 1.1605682584842913e+00 1.4638074834025047e+03 1.0000000000000000e+00 9.4927156950126665e+00 1.6605693418803649e+00 1.0631686139218241e+01 
360 1 2 1.1605683094021493e+00 1.5320001425518660e+03 1.0000000000000000e+00 1.3204376051964612e+01 2.1068609136518450e+00 1.0581235991424132e+01 
277 1 2 1.1605682584842913e+00 -1.1912222509233854e+04 1.0000000000000000e+00 6.7635228108981638e+00 4.9114124197878191e+00 1.1396143197879709e+01 
164 1 2 1.1605682584842913e+00 1.1278318625651082e+03 1.0000000000000000e+00 6.9768468377034702e+00 9.9120705613895588e+00 1.1371774086010060e+01 
49 1 2 1.1605682584842913e+00 1.0225845751483521e+03 1.0000000000000000e+00 1.2085240218379777e+01 1.1517799570629133e+00 1.2180365065153318e+01 
329 1 2 1.1605682584842913e+00 2.2438308384043984e+02 1.0000000000000000e+00 8.1109970679198753e+00 2.7963997436737373e+00 1.1665969109203273e+01 
36 1 2 1.1605682584842913e+00 -1.8784009464241653e+03 1.0000000000000000e+00 1.0639943954796438e+01 3.4770220586347689e+00 1.2218298356233104e+01 
217 1 2 1.1605682584842913e+00 -7.5294833474165694e+02 1.0000000000000000e+00 8.2057607064374807e+00 5.1418534724618130e+00 1.2818965301955563e+01 
173 1 2 1.1605682584842913e+00 1.2724734299691384e+03 1.0000000000000000e+00 1.2273432402706474e+01 5.6387280702315739e+00 1.2194575156595169e+01 
283 1 2 1.1605694161619675e+00 7.5915967305203583e+02 1.0000000000000000e+00 9.1525532450031726e+00 6.7251918421075310e+00 1.1881709497074324e+01 
280 1 2 1.1605694161619675e+00 1.0948418854771510e+03 1.0000000000000000e+00 1.0495250767634960e+01 8.1095318008050494e+00 1.1488007392241288e+01 
231 1 2 1.1605682584842913e+00 1.2460267184666204e+03 1.0000000000000000e+00 9.8023728899139684e+00 2.1629815752451981e-01 1.3547664024581007e+01 
116 1 2 1.1605682584842913e+00 1.3332302149134844e+03 1.0000000000000000e+00 7.0329081807388345e+00 3.9130802085375906e+00 1.4261174109493576e+01 
151 1 2 1.1605682584842913e+00 -1.4860452145068098e+03 1.0000000000000000e+00 7.8727978310986684e+00 6.8217591412430023e+00 1.3914751400384159e+01 
24 1 2 1.1605682584842913e+00 1.4240994484274684e+03 1.0000000000000000e+00 1.1067138019965002e+01 7.2014905551165640e+00 1.3601979898421419e+01 
162 1 2 1.1605684927682822e+00 1.2048458694331159e+03 1.0000000000000000e+00 1.1342101479917718e+01 2.0223528757031377e+00 1.5086331778950987e+01 
333 1 2 1.1605682584842913e+00 1.3536749552902904e+02 1.0000000000000000e+00 8.9330401418379104e+00 5.2907687247003512e+00 1.5148030951803317e+01 
321 1 2 1.1605682584842913e+00 5.2613886766532403e+02 1.0000000000000000e+00 1.2655458897239443e+01 6.2872342267272856e+00 1.4437556758918037e+01 
127 1 2 1.1605682584842913e+00 1.6197017936438460e+03 1.0000000000000000e+00 9.8070064467440563e+00 7.4901142237553566e+00 1.5148098217169347e+01 
354 1 2 1.1605682584842913e+00 1.0269781910826591e+03 1.0000000000000000e+00 1.0912957367903591e+01 9.2370593385833804e+00 1.4436922518380740e+01 
218 1 2 1.1605682584842913e+00 1.7068671441868000e+03 1.0000000000000000e+00 8.0892063647251131e+00 5.8614849472395680e-01 1.7065506383085346e+01 
226 1 2 1.1605683395915667e+00 1.1569934844871357e+03 1.0000000000000000e+00 1.2995681557849935e+01 1.1279025696335070e+00 1.5718035665072387e+01 
363 1 2 1.1605684116610069e+00 1.6924572692476922e+03 1.0000000000000000e+00 9.6256954779307886e+00 1.7293964596827727e+00 1.6030939542291069e+01 
34 1 2 1.1605682584842913e+00 1.3442292170866526e+03 1.0000000000000000e+00 1.2064384172570872e+01 4.7307777799418300e+00 1.6503214381782367e+01 
300 1 2 1.1605682584842913e+00 1.5027291973148448e+02 1.0000000000000000e+00 7.0829764383780907e+00 7.7985397926392492e+00 1.6671310946341233e+01 
238 1 2 1.1605682584842913e+00 6.9606151919805757e+02 1.0000000000000000e+00 1.2980839594307414e+01 9.4177485908263918e+00 1.5821568607216694e+01 
19 1 2 1.1605682584842913e+00 1.3577224906388947e+03 1.0000000000000000e+00 7.5633606051156699e+00 2.7138131607440443e+00 1.8479339805843392e+01 
141 1 2 1.1605682584842913e+00 1.3389165883111432e+03 1.0000000000000000e+00 1.0123171328756243e+01 4.2081199403262195e+00 1.7334849243616162e+01 
273 1 2 1.1605682584842913e+00 1.2714190824567600e+03 1.0000000000000000e+00 8.0790880544417458e+00 5.3619083228457516e+00 1.8472313606432685e+01 
204 1 2 1.1605682584842913e+00 9.1031753473238064e+02 1.0000000000000000e+00 1.1676385551062769e+01 6.4634772980146522e+00 1.7485803211447518e+01 
63 1 2 1.1605682584842913e+00 1.4070693762910987e+03 1.0000000000000000e+00 9.4496048967592436e+00 8.2385946398047416e+00 1.8170489072041065e+01 
179 1 2 1.1605682584842913e+00 1.3243317867621763e+03 1.0000000000000000e+00 1.1585767448465601e+01 9.2896525859381107e+00 1.8337641641209412e+01 
86 1 2 1.1605682584842913e+00 4.2458125035755506e+02 1.0000000000000000e+00 1.2382489971803299e+01 2.8049748263863559e+00 1.9843807286034277e+01 
209 1 2 1.1605682584842913e+00 1.3838510532206615e+03 1.0000000000000000e+00 1.0354020703108954e+01 3.4570374100836845e+00 1.9202080530552571e+01 
154 1 2 1.1605684106741223e+00 9.3964990920080038e+02 1.0000000000000000e+00 7.0318469722619907e+00 6.8715514653691177e+00 1.9833509809003324e+01 
3 1 2 1.1605682584842913e+00 9.5135356566295832e+02 1.0000000000000000e+00 1.0189550646590179e+01 7.2001188483858414e+00 1.9913907811731736e+01 
315 1 2 1.1605682584842913e+00 -8.2056689164595355e+02 1.0000000000000000e+00 1.2516062426798701e+01 1.0993859797986065e+01 3.2965896108030829e-01 
376 1 2 1.1605684028129772e+00 9.4561555124040433e+02 1.0000000000000000e+00 8.3494766691146154e+00 1.2354785124050876e+01 1.3126907290930461e+00 
38 1 2 1.1605682584842913e+00 7.9295359141807648e+02 1.0000000000000000e+00 1.2202171925113456e+01 1.5378457387443765e+01 4.1568631269982337e-01 
145 1 2 1.1605682584842913e+00 1.0008775105389720e+03 1.0000000000000000e+00 8.2874818667514258e+00 1.6137618010095878e+01 9.6149230672912434e-01 
325 1 2 1.1605682584842913e+00 1.2070664421630290e+03 1.0000000000000000e+00 7.8186161621478476e+00 1.9868351375801943e+01 1.3812203862625099e+00 
178 1 2 1.1605682584842913e+00 4.0489699344036319e+02 1.0000000000000000e+00 9.9886757133767823e+00 1.8973132070579311e+01 2.3263908195072019e-01 