LAMMPS data file via write_data, version 30 Jul 2016, timestep = 50400000

4620 atoms
8 atom types

0.0000000000000000e+00 1.0000000000000000e+02 xlo xhi
0.0000000000000000e+00 4.0000000000000000e+01 ylo yhi
0.0000000000000000e+00 4.0000000000000000e+01 zlo zhi

Masses

1 3.896
2 5.36
3 20.064
4 8.378
5 8.378
6 8.378
7 8.378
8 8.378

Atoms # meso-molecular

225 226 2 1.0843766380276505e+00 9.2961730346575280e+00 1.0000000000000000e+00 2.8051814243717175e+00 1.0000000000000000e+01 7.0155829534848779e-01 
90 91 2 1.0843766380276505e+00 -8.5624440539938416e+00 1.0000000000000000e+00 5.1234522437129044e+00 1.0000000000000000e+01 2.6680071317629334e-01 
414 415 2 1.0843768684443118e+00 -8.8987029110781872e+00 1.0000000000000000e+00 7.3475658027582895e+00 1.0000000000000000e+01 2.9674476655958848e-01 
254 255 2 1.0843768684443118e+00 6.1462179621936848e+00 1.0000000000000000e+00 9.3994752724895214e+00 1.0000000000000000e+01 1.0218637619154967e+00 
186 187 2 1.0843766380276505e+00 -7.5966428379767947e+00 1.0000000000000000e+00 1.1929777429456683e+01 1.0000000000000000e+01 1.3499616180785277e+00 
259 260 2 1.0843766380276505e+00 8.5388513866019800e+00 1.0000000000000000e+00 1.7465191595118849e+01 1.0000000000000000e+01 4.7972285746321780e-01 
153 154 2 1.0843766380276505e+00 -5.7079118916321665e+00 1.0000000000000000e+00 2.1508108001710223e+01 1.0000000000000000e+01 1.0640347799444632e+00 
441 442 2 1.0843766380276505e+00 3.9852900585068682e+00 1.0000000000000000e+00 2.4132359790879264e+01 1.0000000000000000e+01 1.0645604899879171e+00 
419 420 2 1.0843766380276505e+00 -7.4783803528617216e+00 1.0000000000000000e+00 2.7359909394095460e+01 1.0000000000000000e+01 4.5964697305281665e-01 
687 688 2 1.0843766380276505e+00 9.2961730346575280e+00 1.0000000000000000e+00 2.8051814243717175e+00 1.2199999999999999e+01 7.0155829534848779e-01 
552 553 2 1.0843766380276505e+00 -8.5624440539938416e+00 1.0000000000000000e+00 5.1234522437129044e+00 1.2199999999999999e+01 2.6680071317629334e-01 
876 877 2 1.0843768684443118e+00 -8.8987029110781872e+00 1.0000000000000000e+00 7.3475658027582895e+00 1.2199999999999999e+01 2.9674476655958848e-01 
716 717 2 1.0843768684443118e+00 6.1462179621936848e+00 1.0000000000000000e+00 9.3994752724895214e+00 1.2199999999999999e+01 1.0218637619154967e+00 
648 649 2 1.0843766380276505e+00 -7.5966428379767947e+00 1.0000000000000000e+00 1.1929777429456683e+01 1.2199999999999999e+01 1.3499616180785277e+00 
721 722 2 1.0843766380276505e+00 8.5388513866019800e+00 1.0000000000000000e+00 1.7465191595118849e+01 1.2199999999999999e+01 4.7972285746321780e-01 
615 616 2 1.0843766380276505e+00 -5.7079118916321665e+00 1.0000000000000000e+00 2.1508108001710223e+01 1.2199999999999999e+01 1.0640347799444632e+00 
903 904 2 1.0843766380276505e+00 3.9852900585068682e+00 1.0000000000000000e+00 2.4132359790879264e+01 1.2199999999999999e+01 1.0645604899879171e+00 
881 882 2 1.0843766380276505e+00 -7.4783803528617216e+00 1.0000000000000000e+00 2.7359909394095460e+01 1.2199999999999999e+01 4.5964697305281665e-01 
958 959 2 1.0843769894422788e+00 5.0852072573674905e+00 1.0000000000000000e+00 1.2239522591665668e-01 1.4400000000000000e+01 4.7641494770447845e-01 
1321 1322 2 1.0843766498587688e+00 -1.8580864335911280e+00 1.0000000000000000e+00 2.3058063943195912e+00 1.4400000000000000e+01 6.2641537883754139e-01 
1179 1180 2 1.0843766380276505e+00 9.1426850680719980e+00 1.0000000000000000e+00 1.3050627869948109e+01 1.4400000000000000e+01 1.0768344299087227e+00 
1282 1283 2 1.0843769086837385e+00 5.5185458212229743e-01 1.0000000000000000e+00 1.7591676013070465e+01 1.4400000000000000e+01 1.2856551668303300e+00 
1022 1023 2 1.0843766380276505e+00 2.1899351438316597e+00 1.0000000000000000e+00 2.6358784175247767e+01 1.4400000000000000e+01 1.2011351615850199e+00 
936 937 2 1.0843766380276505e+00 3.7021880362768727e+00 1.0000000000000000e+00 3.3250340047296930e+01 1.4400000000000000e+01 3.0344989432111791e-01 
1705 1706 2 1.0843766380276505e+00 -5.5663675658729979e+00 1.0000000000000000e+00 2.7894234443895978e+00 1.6600000000000001e+01 5.4304258645408632e-01 
1628 1629 2 1.0843766380276505e+00 8.8954571078844609e+00 1.0000000000000000e+00 6.2485790328957478e+00 1.6600000000000001e+01 1.3418326053832761e+00 
1526 1527 2 1.0843766380492397e+00 4.8922874532088274e+00 1.0000000000000000e+00 1.1066135265939014e+01 1.6600000000000001e+01 3.9933777494510320e-01 
1751 1752 2 1.0843766380492397e+00 7.0842291364538452e+00 1.0000000000000000e+00 1.3260467661011075e+01 1.6600000000000001e+01 2.7428197565242912e-01 
1433 1434 2 1.0843766380276505e+00 -7.6328613681832866e+00 1.0000000000000000e+00 1.5803422056139373e+01 1.6600000000000001e+01 9.2680374691425382e-01 
1741 1742 2 1.0843766380276505e+00 1.2445781956723909e+00 1.0000000000000000e+00 1.8276280897146165e+01 1.6600000000000001e+01 6.4098753780664797e-01 
1550 1551 2 1.0843766380276505e+00 -2.5327412467449948e+00 1.0000000000000000e+00 2.0967039929698171e+01 1.6600000000000001e+01 1.1433185824385579e+00 
1574 1575 2 1.0843766380276505e+00 -7.4967807532784843e+00 1.0000000000000000e+00 2.3405742052220997e+01 1.6600000000000001e+01 7.5347661408117550e-02 
1994 1995 2 1.0843766380276505e+00 -1.2014232428886835e+01 1.0000000000000000e+00 7.0802061940848224e+00 1.8800000000000001e+01 9.0760303389862451e-01 
2210 2211 2 1.0843766380276505e+00 -4.2961473733674556e+00 1.0000000000000000e+00 1.0129641344612036e+01 1.8800000000000001e+01 4.7044274011881759e-01 
1861 1862 2 1.0843766380276505e+00 8.4756988642191793e+00 1.0000000000000000e+00 1.5641466896310590e+01 1.8800000000000001e+01 1.0525538984840730e+00 
2291 2292 2 1.0843766380276505e+00 4.6033405861478798e+00 1.0000000000000000e+00 1.7901445756980241e+01 1.8800000000000001e+01 1.5373979470904044e+00 
2259 2260 2 1.0843766380276505e+00 -7.1195194189837672e+00 1.0000000000000000e+00 2.0403223345468664e+01 1.8800000000000001e+01 8.5180842140826107e-01 
2050 2051 2 1.0843766380276505e+00 -2.3397300453213984e-01 1.0000000000000000e+00 2.7177715414886993e+01 1.8800000000000001e+01 2.9868928459793431e-01 
391 392 2 1.0843766380276505e+00 -4.5933205970183479e+00 1.0000000000000000e+00 6.3942202957164032e+00 1.0000000000000000e+01 2.4198712716578932e+00 
27 28 2 1.0843766380276505e+00 8.9056453792397470e+00 1.0000000000000000e+00 1.4959573187251790e+01 1.0000000000000000e+01 1.6726650929882261e+00 
293 294 2 1.0843766380276505e+00 -2.2286240786648257e+00 1.0000000000000000e+00 1.8350607407588047e+01 1.0000000000000000e+01 2.5181549231788276e+00 
218 219 2 1.0843766380276505e+00 6.2628780352217017e+00 1.0000000000000000e+00 2.7567061314978620e+01 1.0000000000000000e+01 2.7462886809339517e+00 
853 854 2 1.0843766380276505e+00 -4.5933205970183479e+00 1.0000000000000000e+00 6.3942202957164032e+00 1.2199999999999999e+01 2.4198712716578932e+00 
489 490 2 1.0843766380276505e+00 8.9056453792397470e+00 1.0000000000000000e+00 1.4959573187251790e+01 1.2199999999999999e+01 1.6726650929882261e+00 
755 756 2 1.0843766380276505e+00 -2.2286240786648257e+00 1.0000000000000000e+00 1.8350607407588047e+01 1.2199999999999999e+01 2.5181549231788276e+00 
680 681 2 1.0843766380276505e+00 6.2628780352217017e+00 1.0000000000000000e+00 2.7567061314978620e+01 1.2199999999999999e+01 2.7462886809339517e+00 
1272 1273 2 1.0843766380276505e+00 -6.2422997910497298e+00 1.0000000000000000e+00 8.8581705491263421e+00 1.4400000000000000e+01 1.9001623404126113e+00 
966 967 2 1.0843769086837385e+00 1.5274348532423241e+01 1.0000000000000000e+00 1.9751144446348217e+01 1.4400000000000000e+01 1.5466248507698499e+00 
1020 1021 2 1.0843766380276505e+00 -2.7547982590083535e+00 1.0000000000000000e+00 2.2599539665819158e+01 1.4400000000000000e+01 1.5661632631592979e+00 
1669 1670 2 1.0843766380276505e+00 -2.4095879992421887e+00 1.0000000000000000e+00 3.6198759168299843e-01 1.6600000000000001e+01 2.3355746978150353e+00 
1516 1517 2 1.0843766380276505e+00 -2.0348231775487617e+00 1.0000000000000000e+00 1.4304340155353954e+01 1.6600000000000001e+01 2.7050639505233214e+00 
1528 1529 2 1.0843766380276505e+00 -6.9124512534307865e+00 1.0000000000000000e+00 2.4904240431896206e+01 1.6600000000000001e+01 2.9811387071648676e+00 
1502 1503 2 1.0843766380276505e+00 -4.7578615053194238e+00 1.0000000000000000e+00 2.7857350248664442e+01 1.6600000000000001e+01 2.8906021098037784e+00 
1768 1769 2 1.0843766380276505e+00 -2.8261719641893407e-01 1.0000000000000000e+00 3.2236665146862542e+01 1.6600000000000001e+01 1.7914705745397086e+00 
2022 2023 2 1.0843766380276505e+00 8.4172755382374973e+00 1.0000000000000000e+00 2.1752908637709303e+00 1.8800000000000001e+01 2.9971093694366724e+00 
2149 2150 2 1.0843766380276505e+00 -2.1174052509755694e+00 1.0000000000000000e+00 2.5286818800357505e+01 1.8800000000000001e+01 2.0584636447504696e+00 
215 216 2 1.0843766484168280e+00 1.0445178886168700e+00 1.0000000000000000e+00 1.4347984252443193e+00 1.0000000000000000e+01 3.5273366595673812e+00 
235 236 2 1.0843766380276505e+00 1.8736434993464586e+00 1.0000000000000000e+00 3.7476606487063906e+00 1.0000000000000000e+01 4.3401509110851508e+00 
51 52 2 1.0843766380276505e+00 1.4393455022312200e+00 1.0000000000000000e+00 8.7898597139913566e+00 1.0000000000000000e+01 3.8233106547286959e+00 
402 403 2 1.0843766380276505e+00 -5.8662645819468455e+00 1.0000000000000000e+00 1.3857053317600879e+01 1.0000000000000000e+01 3.7953798205387366e+00 
167 168 2 1.0843766723612378e+00 -5.0516928520166600e+00 1.0000000000000000e+00 1.9748509939429056e+01 1.0000000000000000e+01 4.3579972415425559e+00 
363 364 2 1.0843766723612378e+00 -5.5289064155026668e-01 1.0000000000000000e+00 2.1896625924523114e+01 1.0000000000000000e+01 3.9580044044561458e+00 
433 434 2 1.0843766380276505e+00 2.3459880691175892e+00 1.0000000000000000e+00 2.4932560342694970e+01 1.0000000000000000e+01 3.5965279652185922e+00 
58 59 2 1.0843766380276505e+00 -2.0185121288836778e+00 1.0000000000000000e+00 3.0115286315811755e+01 1.0000000000000000e+01 3.9883193197919162e+00 
334 335 2 1.0843766380276505e+00 -2.2908828175184008e+00 1.0000000000000000e+00 3.2476611177158638e+01 1.0000000000000000e+01 3.1510567459132082e+00 
677 678 2 1.0843766484168280e+00 1.0445178886168700e+00 1.0000000000000000e+00 1.4347984252443193e+00 1.2199999999999999e+01 3.5273366595673812e+00 
697 698 2 1.0843766380276505e+00 1.8736434993464586e+00 1.0000000000000000e+00 3.7476606487063906e+00 1.2199999999999999e+01 4.3401509110851508e+00 
513 514 2 1.0843766380276505e+00 1.4393455022312200e+00 1.0000000000000000e+00 8.7898597139913566e+00 1.2199999999999999e+01 3.8233106547286959e+00 
864 865 2 1.0843766380276505e+00 -5.8662645819468455e+00 1.0000000000000000e+00 1.3857053317600879e+01 1.2199999999999999e+01 3.7953798205387366e+00 
629 630 2 1.0843766723612378e+00 -5.0516928520166600e+00 1.0000000000000000e+00 1.9748509939429056e+01 1.2199999999999999e+01 4.3579972415425559e+00 
825 826 2 1.0843766723612378e+00 -5.5289064155026668e-01 1.0000000000000000e+00 2.1896625924523114e+01 1.2199999999999999e+01 3.9580044044561458e+00 
895 896 2 1.0843766380276505e+00 2.3459880691175892e+00 1.0000000000000000e+00 2.4932560342694970e+01 1.2199999999999999e+01 3.5965279652185922e+00 
520 521 2 1.0843766380276505e+00 -2.0185121288836778e+00 1.0000000000000000e+00 3.0115286315811755e+01 1.2199999999999999e+01 3.9883193197919162e+00 
796 797 2 1.0843766380276505e+00 -2.2908828175184008e+00 1.0000000000000000e+00 3.2476611177158638e+01 1.2199999999999999e+01 3.1510567459132082e+00 
1159 1160 2 1.0843766380276505e+00 1.6039059887665008e+00 1.0000000000000000e+00 7.9927855783512465e+00 1.4400000000000000e+01 3.9759269477140839e+00 
956 957 2 1.0843766380276505e+00 4.6425834959811549e+00 1.0000000000000000e+00 1.0214511024442292e+01 1.4400000000000000e+01 4.5164409694771708e+00 
1180 1181 2 1.0843766380276505e+00 -1.1757803653303425e-01 1.0000000000000000e+00 1.3228162148397841e+01 1.4400000000000000e+01 3.5621133112261854e+00 
1125 1126 2 1.0843766380276505e+00 -8.6303932468688060e-01 1.0000000000000000e+00 1.6037119521184707e+01 1.4400000000000000e+01 3.7605992277271767e+00 
1140 1141 2 1.0843766380276505e+00 -1.4392568485791264e+00 1.0000000000000000e+00 2.1819110178120170e+01 1.4400000000000000e+01 3.7031635010917183e+00 
1230 1231 2 1.0843766380276505e+00 3.4539647425856779e-01 1.0000000000000000e+00 2.4184569524002679e+01 1.4400000000000000e+01 3.0952007685437417e+00 
1103 1104 2 1.0843766380276505e+00 -3.4736201394499879e+00 1.0000000000000000e+00 2.7363270110094110e+01 1.4400000000000000e+01 4.3251143969538131e+00 
963 964 2 1.0843766380276505e+00 3.1165818728929180e+00 1.0000000000000000e+00 3.0775148006567658e+01 1.4400000000000000e+01 3.1900177031767929e+00 
1582 1583 2 1.0843766380276505e+00 -5.2120910073821740e+00 1.0000000000000000e+00 7.1738213469030745e+00 1.6600000000000001e+01 3.5572359445792125e+00 
1577 1578 2 1.0843766380276505e+00 -5.4945469106137512e+00 1.0000000000000000e+00 9.5504149391850106e+00 1.6600000000000001e+01 3.9443709272695489e+00 
1842 1843 2 1.0843766380276505e+00 5.7232663861152382e+00 1.0000000000000000e+00 1.7119521747098094e+01 1.6600000000000001e+01 3.3249689156751923e+00 
1659 1660 2 1.0843766380276505e+00 -8.8721790156954334e+00 1.0000000000000000e+00 2.1758463030610734e+01 1.6600000000000001e+01 3.7818795712701645e+00 
1592 1593 2 1.0843766380276505e+00 2.2696570073139863e+00 1.0000000000000000e+00 2.9661113802133837e+01 1.6600000000000001e+01 4.1513173639333258e+00 
1471 1472 2 1.0843766380276505e+00 -8.8885504033905249e-01 1.0000000000000000e+00 3.1964285540320688e+01 1.6600000000000001e+01 4.5240058007580561e+00 
2170 2171 2 1.0843767490134040e+00 -3.8433491635372712e+00 1.0000000000000000e+00 4.2683939300815501e+00 1.8800000000000001e+01 4.0108602383286192e+00 
2217 2218 2 1.0843766380276505e+00 -7.4931704471055305e+00 1.0000000000000000e+00 6.8356847609501452e+00 1.8800000000000001e+01 4.0147575305693906e+00 
2179 2180 2 1.0843766380276505e+00 -7.6078652969735767e+00 1.0000000000000000e+00 1.1436936505544022e+01 1.8800000000000001e+01 3.1259396768255274e+00 
2015 2016 2 1.0843766380276505e+00 -2.8974167402534441e+00 1.0000000000000000e+00 1.4490702571610409e+01 1.8800000000000001e+01 3.2916293997173125e+00 
2038 2039 2 1.0843766380276505e+00 -5.1744936972273283e+00 1.0000000000000000e+00 2.1336198312686097e+01 1.8800000000000001e+01 3.5464345511153579e+00 
1890 1891 2 1.0843766380276505e+00 1.3883615048580875e+01 1.0000000000000000e+00 2.7399314041598373e+01 1.8800000000000001e+01 3.3637240144559590e+00 
341 342 2 1.0843766380276505e+00 -5.8179406396525479e+00 1.0000000000000000e+00 6.7339799129794420e+00 1.0000000000000000e+01 6.1506019916355088e+00 
177 178 2 1.0843766380276505e+00 2.9524613337770944e+00 1.0000000000000000e+00 1.7042997571678988e+01 1.0000000000000000e+01 5.1549962048145836e+00 
368 369 2 1.0843766380276505e+00 5.9109255367085112e-01 1.0000000000000000e+00 2.7546891436561424e+01 1.0000000000000000e+01 5.2315933250408158e+00 
803 804 2 1.0843766380276505e+00 -5.8179406396525479e+00 1.0000000000000000e+00 6.7339799129794420e+00 1.2199999999999999e+01 6.1506019916355088e+00 
639 640 2 1.0843766380276505e+00 2.9524613337770944e+00 1.0000000000000000e+00 1.7042997571678988e+01 1.2199999999999999e+01 5.1549962048145836e+00 
830 831 2 1.0843766380276505e+00 5.9109255367085112e-01 1.0000000000000000e+00 2.7546891436561424e+01 1.2199999999999999e+01 5.2315933250408158e+00 
1003 1004 2 1.0843766380276505e+00 -5.1234546337772180e+00 1.0000000000000000e+00 2.3621380346910117e+00 1.4400000000000000e+01 4.7913651418010730e+00 
1264 1265 2 1.0843766380276505e+00 -7.3086899813784729e+00 1.0000000000000000e+00 5.3879073145905290e+00 1.4400000000000000e+01 5.3128145429581766e+00 
1059 1060 2 1.0843766380276505e+00 -6.6492706001778359e+00 1.0000000000000000e+00 1.4114876076599426e+01 1.4400000000000000e+01 5.7370581691350937e+00 
1004 1005 2 1.0843766380276505e+00 -5.8767733893439509e+00 1.0000000000000000e+00 1.9620915494095183e+01 1.4400000000000000e+01 4.6690366182746939e+00 
1119 1120 2 1.0843766380276505e+00 -4.3608081219813446e+00 1.0000000000000000e+00 2.5216124796506360e+01 1.4400000000000000e+01 5.7572462807902758e+00 
1021 1022 2 1.0843766380276505e+00 -5.1103471474618722e-01 1.0000000000000000e+00 3.0023033386480453e+01 1.4400000000000000e+01 5.4149110776698324e+00 
1414 1415 2 1.0843766380276505e+00 8.7920549723990149e+00 1.0000000000000000e+00 1.1620981914860820e+00 1.6600000000000001e+01 4.7232198588690233e+00 
1624 1625 2 1.0843766380276505e+00 4.2500853139457906e+00 1.0000000000000000e+00 4.6710747256712848e+00 1.6600000000000001e+01 4.7881982636993907e+00 
1477 1478 2 1.0843766380276505e+00 -8.8686630018850892e+00 1.0000000000000000e+00 8.2788706398456089e+00 1.6600000000000001e+01 6.0158456420562967e+00 
1469 1470 2 1.0843774366022101e+00 -7.5264832291204513e+00 1.0000000000000000e+00 1.0920258798823141e+01 1.6600000000000001e+01 5.8484495581114304e+00 
1639 1640 2 1.0843774366022101e+00 1.2703882367307800e+01 1.0000000000000000e+00 1.2757085658558999e+01 1.6600000000000001e+01 4.6975589909123086e+00 
1554 1555 2 1.0843766380276505e+00 8.8431441108783417e+00 1.0000000000000000e+00 1.8163148945729958e+01 1.6600000000000001e+01 5.2636309836743536e+00 
1490 1491 2 1.0843766380276505e+00 -6.4191426435974872e+00 1.0000000000000000e+00 2.3717064686451963e+01 1.6600000000000001e+01 5.3056825885609173e+00 
1723 1724 2 1.0843766380276505e+00 6.5065877457784236e+00 1.0000000000000000e+00 2.7039811219445031e+01 1.6600000000000001e+01 5.6516509854965715e+00 
2189 2190 2 1.0843767490134040e+00 -3.1084657412043977e+00 1.0000000000000000e+00 2.6904997392293262e+00 1.8800000000000001e+01 5.5145215808725903e+00 
1899 1900 2 1.0843766380276505e+00 4.0621464320078484e+00 1.0000000000000000e+00 9.2631967383335176e+00 1.8800000000000001e+01 4.8252848983495102e+00 
2152 2153 2 1.0843777782904422e+00 -2.6713519682771856e+00 1.0000000000000000e+00 1.6116788132843656e+01 1.8800000000000001e+01 5.0532231211479601e+00 
2220 2221 2 1.0843777782904422e+00 -8.0370396256092462e+00 1.0000000000000000e+00 1.8271953257420392e+01 1.8800000000000001e+01 4.8510658174707828e+00 
2097 2098 2 1.0843766380276505e+00 4.8098608697344414e+00 1.0000000000000000e+00 2.4788609084445213e+01 1.8800000000000001e+01 5.7041195073218249e+00 
2209 2210 2 1.0843766380276505e+00 -6.1327185923100274e+00 1.0000000000000000e+00 2.9567981845897059e+01 1.8800000000000001e+01 4.9955749358642043e+00 
59 60 2 1.0843766380276505e+00 3.0320890447901228e+00 1.0000000000000000e+00 1.7073212096674608e+00 1.0000000000000000e+01 6.3483318492440173e+00 
316 317 2 1.0843766380276505e+00 -8.3995136272234046e+00 1.0000000000000000e+00 4.1241503290686516e+00 1.0000000000000000e+01 6.6972503907967713e+00 
458 459 2 1.0843766380276505e+00 2.9784498346569919e+00 1.0000000000000000e+00 8.9956042572618919e+00 1.0000000000000000e+01 7.2036360780154336e+00 
447 448 2 1.0843766380276505e+00 5.2986765725509937e+00 1.0000000000000000e+00 1.2240156174873828e+01 1.0000000000000000e+01 6.7442193615848458e+00 
330 331 2 1.0843766380276505e+00 -4.4236327986727932e+00 1.0000000000000000e+00 2.3843107517500830e+01 1.0000000000000000e+01 7.5857716244476903e+00 
521 522 2 1.0843766380276505e+00 3.0320890447901228e+00 1.0000000000000000e+00 1.7073212096674608e+00 1.2199999999999999e+01 6.3483318492440173e+00 
778 779 2 1.0843766380276505e+00 -8.3995136272234046e+00 1.0000000000000000e+00 4.1241503290686516e+00 1.2199999999999999e+01 6.6972503907967713e+00 
920 921 2 1.0843766380276505e+00 2.9784498346569919e+00 1.0000000000000000e+00 8.9956042572618919e+00 1.2199999999999999e+01 7.2036360780154336e+00 
909 910 2 1.0843766380276505e+00 5.2986765725509937e+00 1.0000000000000000e+00 1.2240156174873828e+01 1.2199999999999999e+01 6.7442193615848458e+00 
792 793 2 1.0843766380276505e+00 -4.4236327986727932e+00 1.0000000000000000e+00 2.3843107517500830e+01 1.2199999999999999e+01 7.5857716244476903e+00 
964 965 2 1.0843766380276505e+00 1.4264185669012117e+00 1.0000000000000000e+00 1.4246349582826843e+00 1.4400000000000000e+01 7.2267780962060408e+00 
1271 1272 2 1.0843766389077030e+00 7.3814840007224429e+00 1.0000000000000000e+00 3.6471305105254146e+00 1.4400000000000000e+01 6.9542960226888786e+00 
1210 1211 2 1.0843766380276505e+00 -1.8966640013155893e+00 1.0000000000000000e+00 1.6382030930524692e+01 1.4400000000000000e+01 7.2237671933403780e+00 
1204 1205 2 1.0843766380276505e+00 -2.5196953339183983e+00 1.0000000000000000e+00 1.9907132355108160e+01 1.4400000000000000e+01 7.0762274051770691e+00 
1325 1326 2 1.0843766380276505e+00 -4.8714008583158319e-01 1.0000000000000000e+00 2.2209987231884327e+01 1.4400000000000000e+01 6.5220322707550471e+00 
928 929 2 1.0843766380276505e+00 4.3065063303114988e+00 1.0000000000000000e+00 2.7653034771749795e+01 1.4400000000000000e+01 6.7992169533947235e+00 
1053 1054 2 1.0843766380276505e+00 -2.2008877835348910e+00 1.0000000000000000e+00 3.2195327756605870e+01 1.4400000000000000e+01 7.2583980059009248e+00 
1399 1400 2 1.0843766380276505e+00 6.5941690231010508e+00 1.0000000000000000e+00 2.9233730738927468e+00 1.6600000000000001e+01 6.9850039265556161e+00 
1653 1654 2 1.0843766380276505e+00 -6.6593648235651770e+00 1.0000000000000000e+00 5.4956453229209377e+00 1.6600000000000001e+01 6.9480149261940456e+00 
1593 1594 2 1.0843766380276505e+00 -2.2951598129835999e+00 1.0000000000000000e+00 1.9486685192226410e+01 1.6600000000000001e+01 7.4597215329908693e+00 
1435 1436 2 1.0843766380276505e+00 -8.7480370578806550e+00 1.0000000000000000e+00 2.4303547812415488e+01 1.6600000000000001e+01 7.5581968306790897e+00 
1689 1690 2 1.0843766380276505e+00 -6.0974472851536827e+00 1.0000000000000000e+00 3.0110319767069232e+01 1.6600000000000001e+01 6.4789006129343267e+00 
1692 1693 2 1.0843766380276505e+00 2.6219220927079165e+00 1.0000000000000000e+00 3.2884309321979259e+01 1.6600000000000001e+01 6.9809716745747084e+00 
2280 2281 2 1.0843766380276505e+00 1.1043867322674611e+01 1.0000000000000000e+00 6.7607983208638123e+00 1.8800000000000001e+01 6.3113059985900737e+00 
2212 2213 2 1.0843766380276505e+00 2.0201965978144028e+00 1.0000000000000000e+00 1.1834406062511224e+01 1.8800000000000001e+01 6.4953481797784987e+00 
2157 2158 2 1.0843766380276505e+00 -5.7528693668905913e+00 1.0000000000000000e+00 1.4132654067050519e+01 1.8800000000000001e+01 6.4655238970491951e+00 
2294 2295 2 1.0843766380276505e+00 1.3235276795882012e+01 1.0000000000000000e+00 3.1646854917097233e+01 1.8800000000000001e+01 6.6650959903503031e+00 
400 401 2 1.0843766380276505e+00 -3.6378400248435270e+00 1.0000000000000000e+00 1.8013312733441917e+00 1.0000000000000000e+01 9.0735686922709711e+00 
250 251 2 1.0843766380276505e+00 9.6943939513029631e-01 1.0000000000000000e+00 1.6786615862746469e+01 1.0000000000000000e+01 9.1652698036506415e+00 
222 223 2 1.0843766380276505e+00 8.8660071361561208e+00 1.0000000000000000e+00 1.9307225540770197e+01 1.0000000000000000e+01 8.2200307638590786e+00 
338 339 2 1.0843766380276505e+00 -7.3491261540315236e+00 1.0000000000000000e+00 2.6554191692907580e+01 1.0000000000000000e+01 8.0175372048005489e+00 
4 5 2 1.0843766380276505e+00 5.5840564528511223e+00 1.0000000000000000e+00 3.0978944491672898e+01 1.0000000000000000e+01 8.0122406080473159e+00 
862 863 2 1.0843766380276505e+00 -3.6378400248435270e+00 1.0000000000000000e+00 1.8013312733441917e+00 1.2199999999999999e+01 9.0735686922709711e+00 
712 713 2 1.0843766380276505e+00 9.6943939513029631e-01 1.0000000000000000e+00 1.6786615862746469e+01 1.2199999999999999e+01 9.1652698036506415e+00 
684 685 2 1.0843766380276505e+00 8.8660071361561208e+00 1.0000000000000000e+00 1.9307225540770197e+01 1.2199999999999999e+01 8.2200307638590786e+00 
800 801 2 1.0843766380276505e+00 -7.3491261540315236e+00 1.0000000000000000e+00 2.6554191692907580e+01 1.2199999999999999e+01 8.0175372048005489e+00 
466 467 2 1.0843766380276505e+00 5.5840564528511223e+00 1.0000000000000000e+00 3.0978944491672898e+01 1.2199999999999999e+01 8.0122406080473159e+00 
994 995 2 1.0843766389077030e+00 -1.7180912023260575e+00 1.0000000000000000e+00 5.5630310238885325e+00 1.4400000000000000e+01 8.0235953065515204e+00 
1338 1339 2 1.0843766380276505e+00 -8.4718641183369421e+00 1.0000000000000000e+00 1.0976452554238884e+01 1.4400000000000000e+01 7.9095258553417640e+00 
1173 1174 2 1.0843766380276505e+00 3.6044167774404521e+00 1.0000000000000000e+00 1.4419633761021464e+01 1.4400000000000000e+01 8.8434216087386854e+00 
1028 1029 2 1.0843766380276505e+00 -4.7717690343199806e+00 1.0000000000000000e+00 2.2859272567760431e+01 1.4400000000000000e+01 8.7688695515062225e+00 
1038 1039 2 1.0843766380276505e+00 -7.0716940227378959e+00 1.0000000000000000e+00 2.5464895799802697e+01 1.4400000000000000e+01 8.5089096062507732e+00 
1084 1085 2 1.0843766380276505e+00 -1.0816133520863644e+01 1.0000000000000000e+00 2.7966729527528020e+01 1.4400000000000000e+01 9.1888576185543922e+00 
1501 1502 2 1.0843766380276505e+00 -6.0306403453648261e-01 1.0000000000000000e+00 7.9010345099691626e-01 1.6600000000000001e+01 8.0749753110151552e+00 
1509 1510 2 1.0843766380276505e+00 -7.3233285930525334e+00 1.0000000000000000e+00 1.2020148265116635e+01 1.6600000000000001e+01 7.9463293986129004e+00 
1446 1447 2 1.0843766380276505e+00 -1.4179485541399606e+00 1.0000000000000000e+00 1.5312368794210499e+01 1.6600000000000001e+01 8.5892507437591465e+00 
1421 1422 2 1.0843766380276505e+00 2.8910263301455057e+00 1.0000000000000000e+00 2.1164785456695430e+01 1.6600000000000001e+01 9.2140687188108004e+00 
1783 1784 2 1.0843766380276505e+00 -1.0635928252855318e+00 1.0000000000000000e+00 2.6976847275403529e+01 1.6600000000000001e+01 8.1593950167625398e+00 
1650 1651 2 1.0843766380276505e+00 -2.8764527857997857e+00 1.0000000000000000e+00 3.1803986790132228e+01 1.6600000000000001e+01 9.2120564625737575e+00 
1991 1992 2 1.0843767872924732e+00 -3.6501571584296957e+00 1.0000000000000000e+00 5.4057447686767022e+00 1.8800000000000001e+01 8.5719688809804921e+00 
1940 1941 2 1.0843766380276505e+00 -5.5442446697677017e+00 1.0000000000000000e+00 9.1099513967496240e+00 1.8800000000000001e+01 8.2336012685274760e+00 
2274 2275 2 1.0843766380276505e+00 2.7265844916892652e+00 1.0000000000000000e+00 1.6881478817817985e+01 1.8800000000000001e+01 8.0457450024105182e+00 
2146 2147 2 1.0843766380276505e+00 -1.9761984364400602e+00 1.0000000000000000e+00 2.0638401389934689e+01 1.8800000000000001e+01 7.8516171486757589e+00 
2136 2137 2 1.0843766380276505e+00 6.5458751145224419e+00 1.0000000000000000e+00 2.3409512078935819e+01 1.8800000000000001e+01 8.0892234752420080e+00 
1859 1860 2 1.0843766380276505e+00 1.3751478328081306e+00 1.0000000000000000e+00 2.6862564009825054e+01 1.8800000000000001e+01 8.5187146132912801e+00 
2172 2173 2 1.0843766380276505e+00 1.2456285289529930e+01 1.0000000000000000e+00 2.9981265995423303e+01 1.8800000000000001e+01 8.9017783127202126e+00 
13 14 2 1.0843766380276505e+00 7.0351205350137107e+00 1.0000000000000000e+00 4.3536438299190126e+00 1.0000000000000000e+01 1.0124054222993147e+01 
219 220 2 1.0843766380276505e+00 3.2298400011721222e+00 1.0000000000000000e+00 8.2943072770346316e+00 1.0000000000000000e+01 9.5271090900878299e+00 
148 149 2 1.0843766380276505e+00 -1.0103290085541591e+01 1.0000000000000000e+00 1.2168899253491835e+01 1.0000000000000000e+01 9.3642574259099725e+00 
285 286 2 1.0843766380276505e+00 -2.9269029361044092e+00 1.0000000000000000e+00 2.1301089142443885e+01 1.0000000000000000e+01 1.0326367188605460e+01 
418 419 2 1.0843766380276505e+00 -5.1778712712695985e+00 1.0000000000000000e+00 2.4433611136377028e+01 1.0000000000000000e+01 9.7117631156234072e+00 
237 238 2 1.0843766380276505e+00 -3.1027376282588053e+00 1.0000000000000000e+00 2.7949143794831141e+01 1.0000000000000000e+01 9.7569533489123632e+00 
262 263 2 1.0843766380276505e+00 -3.2373945994341984e+00 1.0000000000000000e+00 3.3121103571031320e+01 1.0000000000000000e+01 1.0558024915616645e+01 
475 476 2 1.0843766380276505e+00 7.0351205350137107e+00 1.0000000000000000e+00 4.3536438299190126e+00 1.2199999999999999e+01 1.0124054222993147e+01 
681 682 2 1.0843766380276505e+00 3.2298400011721222e+00 1.0000000000000000e+00 8.2943072770346316e+00 1.2199999999999999e+01 9.5271090900878299e+00 
610 611 2 1.0843766380276505e+00 -1.0103290085541591e+01 1.0000000000000000e+00 1.2168899253491835e+01 1.2199999999999999e+01 9.3642574259099725e+00 
747 748 2 1.0843766380276505e+00 -2.9269029361044092e+00 1.0000000000000000e+00 2.1301089142443885e+01 1.2199999999999999e+01 1.0326367188605460e+01 
880 881 2 1.0843766380276505e+00 -5.1778712712695985e+00 1.0000000000000000e+00 2.4433611136377028e+01 1.2199999999999999e+01 9.7117631156234072e+00 
699 700 2 1.0843766380276505e+00 -3.1027376282588053e+00 1.0000000000000000e+00 2.7949143794831141e+01 1.2199999999999999e+01 9.7569533489123632e+00 
724 725 2 1.0843766380276505e+00 -3.2373945994341984e+00 1.0000000000000000e+00 3.3121103571031320e+01 1.2199999999999999e+01 1.0558024915616645e+01 
1251 1252 2 1.0843766380276505e+00 -6.7490946749282532e+00 1.0000000000000000e+00 3.4486422316521809e-01 1.4400000000000000e+01 1.0082694140217553e+01 
1057 1058 2 1.0843766380276505e+00 -3.4742301741346138e+00 1.0000000000000000e+00 3.3004582370005737e+00 1.4400000000000000e+01 9.4624343077116091e+00 
1018 1019 2 1.0843766380276505e+00 -2.8725768533721832e+00 1.0000000000000000e+00 6.4638285892876244e+00 1.4400000000000000e+01 1.0240525215818227e+01 
1075 1076 2 1.0843766380276505e+00 -1.8938026088413586e+00 1.0000000000000000e+00 1.2398890126360667e+01 1.4400000000000000e+01 1.0641744285556278e+01 
1219 1220 2 1.0843766380276505e+00 4.5645545971496055e+00 1.0000000000000000e+00 1.6447596635062872e+01 1.4400000000000000e+01 1.0644910041598958e+01 
926 927 2 1.0843766380276505e+00 7.6937181111576614e+00 1.0000000000000000e+00 1.9532499714970470e+01 1.4400000000000000e+01 9.7977088454423491e+00 