LAMMPS data file via write_data, version 30 Jul 2016, timestep = 33000000

1399 atoms
8 atom types

0.0000000000000000e+00 6.0000000000000000e+01 xlo xhi
0.0000000000000000e+00 6.0000000000000000e+01 ylo yhi
0.0000000000000000e+00 1.5000000000000000e+02 zlo zhi

Masses

1 3.896
2 5.36
3 20.064
4 8.378
5 8.378
6 8.378
7 8.378
8 8.378

Atoms # meso-molecular

1096 3 1 3.1209713654810955e+00 4.2449257711847008e+02 4.2000000000000000e+03 2.5000000000000000e+01 2.3000000000000000e+01 2.0901349835640088e+00 
1076 3 1 3.1029157981932181e+00 3.4346177376685904e+02 4.2000000000000000e+03 2.5000000000000000e+01 2.3000000000000000e+01 1.7868018115018163e+00 
1 2 4 5.3474900374083463e+00 1.0000000000000000e+00 4.2000000000000000e+03 0.0000000000000000e+00 0.0000000000000000e+00 3.7500000000000000e+00 
2 2 4 5.3474900374083463e+00 1.0000000000000000e+00 4.2000000000000000e+03 0.0000000000000000e+00 2.0000000000000000e+00 3.7500000000000000e+00 
31 2 4 5.3474900374083463e+00 1.0000000000000000e+00 4.2000000000000000e+03 2.0000000000000000e+00 0.0000000000000000e+00 3.7500000000000000e+00 
32 2 4 5.3474900374083463e+00 1.0000000000000000e+00 4.2000000000000000e+03 2.0000000000000000e+00 2.0000000000000000e+00 3.7500000000000000e+00 
61 2 4 5.3474900374083463e+00 1.0000000000000000e+00 4.2000000000000000e+03 4.0000000000000000e+00 0.0000000000000000e+00 3.7500000000000000e+00 
62 2 4 5.3474900374083463e+00 1.0000000000000000e+00 4.2000000000000000e+03 4.0000000000000000e+00 2.0000000000000000e+00 3.7500000000000000e+00 
91 2 4 5.3474900374083463e+00 1.0000000000000000e+00 4.2000000000000000e+03 6.0000000000000000e+00 0.0000000000000000e+00 3.7500000000000000e+00 
92 2 4 5.3474900374083463e+00 1.0000000000000000e+00 4.2000000000000000e+03 6.0000000000000000e+00 2.0000000000000000e+00 3.7500000000000000e+00 
121 2 4 5.3474900374083463e+00 1.0000000000000000e+00 4.2000000000000000e+03 8.0000000000000000e+00 0.0000000000000000e+00 3.7500000000000000e+00 
122 2 4 5.3474900374083463e+00 1.0000000000000000e+00 4.2000000000000000e+03 8.0000000000000000e+00 2.0000000000000000e+00 3.7500000000000000e+00 
151 2 4 5.3474900374083463e+00 1.0000000000000000e+00 4.2000000000000000e+03 1.0000000000000000e+01 0.0000000000000000e+00 3.7500000000000000e+00 
152 2 4 5.3474900374083463e+00 1.0000000000000000e+00 4.2000000000000000e+03 1.0000000000000000e+01 2.0000000000000000e+00 3.7500000000000000e+00 
181 2 4 5.3474900374083463e+00 1.0000000000000000e+00 4.2000000000000000e+03 1.2000000000000000e+01 0.0000000000000000e+00 3.7500000000000000e+00 
182 2 4 5.3474900374083463e+00 1.0000000000000000e+00 4.2000000000000000e+03 1.2000000000000000e+01 2.0000000000000000e+00 3.7500000000000000e+00 
211 2 4 5.3474900374083463e+00 1.0000000000000000e+00 4.2000000000000000e+03 1.4000000000000000e+01 0.0000000000000000e+00 3.7500000000000000e+00 
212 2 4 5.3474900374083463e+00 1.0000000000000000e+00 4.2000000000000000e+03 1.4000000000000000e+01 2.0000000000000000e+00 3.7500000000000000e+00 
241 2 4 5.3474900374083463e+00 1.0000000000000000e+00 4.2000000000000000e+03 1.6000000000000000e+01 0.0000000000000000e+00 3.7500000000000000e+00 
242 2 4 5.3474900374083463e+00 1.0000000000000000e+00 4.2000000000000000e+03 1.6000000000000000e+01 2.0000000000000000e+00 3.7500000000000000e+00 
271 2 4 5.3474900374083463e+00 1.0000000000000000e+00 4.2000000000000000e+03 1.8000000000000000e+01 0.0000000000000000e+00 3.7500000000000000e+00 
272 2 4 5.3474900374083463e+00 1.0000000000000000e+00 4.2000000000000000e+03 1.8000000000000000e+01 2.0000000000000000e+00 3.7500000000000000e+00 
301 2 4 5.3474900374083463e+00 1.0000000000000000e+00 4.2000000000000000e+03 2.0000000000000000e+01 0.0000000000000000e+00 3.7500000000000000e+00 
302 2 4 5.3474900374083463e+00 1.0000000000000000e+00 4.2000000000000000e+03 2.0000000000000000e+01 2.0000000000000000e+00 3.7500000000000000e+00 
331 2 4 5.3474900374083463e+00 1.0000000000000000e+00 4.2000000000000000e+03 2.2000000000000000e+01 0.0000000000000000e+00 3.7500000000000000e+00 
332 2 4 5.3474900374083463e+00 1.0000000000000000e+00 4.2000000000000000e+03 2.2000000000000000e+01 2.0000000000000000e+00 3.7500000000000000e+00 
361 2 4 5.3474900374083463e+00 1.0000000000000000e+00 4.2000000000000000e+03 2.4000000000000000e+01 0.0000000000000000e+00 3.7500000000000000e+00 
362 2 4 5.3474900374083463e+00 1.0000000000000000e+00 4.2000000000000000e+03 2.4000000000000000e+01 2.0000000000000000e+00 3.7500000000000000e+00 
391 2 4 5.3474900374083463e+00 1.0000000000000000e+00 4.2000000000000000e+03 2.6000000000000000e+01 0.0000000000000000e+00 3.7500000000000000e+00 
392 2 4 5.3474900374083463e+00 1.0000000000000000e+00 4.2000000000000000e+03 2.6000000000000000e+01 2.0000000000000000e+00 3.7500000000000000e+00 
421 2 4 5.3474900374083463e+00 1.0000000000000000e+00 4.2000000000000000e+03 2.8000000000000000e+01 0.0000000000000000e+00 3.7500000000000000e+00 
422 2 4 5.3474900374083463e+00 1.0000000000000000e+00 4.2000000000000000e+03 2.8000000000000000e+01 2.0000000000000000e+00 3.7500000000000000e+00 
3 2 4 5.3474900374083463e+00 1.0000000000000000e+00 4.2000000000000000e+03 0.0000000000000000e+00 4.0000000000000000e+00 3.7500000000000000e+00 
33 2 4 5.3474900374083463e+00 1.0000000000000000e+00 4.2000000000000000e+03 2.0000000000000000e+00 4.0000000000000000e+00 3.7500000000000000e+00 
63 2 4 5.3474900374083463e+00 1.0000000000000000e+00 4.2000000000000000e+03 4.0000000000000000e+00 4.0000000000000000e+00 3.7500000000000000e+00 
93 2 4 5.3474900374083463e+00 1.0000000000000000e+00 4.2000000000000000e+03 6.0000000000000000e+00 4.0000000000000000e+00 3.7500000000000000e+00 
123 2 4 5.3474900374083463e+00 1.0000000000000000e+00 4.2000000000000000e+03 8.0000000000000000e+00 4.0000000000000000e+00 3.7500000000000000e+00 
153 2 4 5.3474900374083463e+00 1.0000000000000000e+00 4.2000000000000000e+03 1.0000000000000000e+01 4.0000000000000000e+00 3.7500000000000000e+00 
183 2 4 5.3474900374083463e+00 1.0000000000000000e+00 4.2000000000000000e+03 1.2000000000000000e+01 4.0000000000000000e+00 3.7500000000000000e+00 
213 2 4 5.3474900374083463e+00 1.0000000000000000e+00 4.2000000000000000e+03 1.4000000000000000e+01 4.0000000000000000e+00 3.7500000000000000e+00 
243 2 4 5.3474900374083463e+00 1.0000000000000000e+00 4.2000000000000000e+03 1.6000000000000000e+01 4.0000000000000000e+00 3.7500000000000000e+00 
273 2 4 5.3474900374083463e+00 1.0000000000000000e+00 4.2000000000000000e+03 1.8000000000000000e+01 4.0000000000000000e+00 3.7500000000000000e+00 
303 2 4 5.3474900374083463e+00 1.0000000000000000e+00 4.2000000000000000e+03 2.0000000000000000e+01 4.0000000000000000e+00 3.7500000000000000e+00 
333 2 4 5.3474900374083463e+00 1.0000000000000000e+00 4.2000000000000000e+03 2.2000000000000000e+01 4.0000000000000000e+00 3.7500000000000000e+00 
363 2 4 5.3474900374083463e+00 1.0000000000000000e+00 4.2000000000000000e+03 2.4000000000000000e+01 4.0000000000000000e+00 3.7500000000000000e+00 
393 2 4 5.3474900374083463e+00 1.0000000000000000e+00 4.2000000000000000e+03 2.6000000000000000e+01 4.0000000000000000e+00 3.7500000000000000e+00 
423 2 4 5.3474900374083463e+00 1.0000000000000000e+00 4.2000000000000000e+03 2.8000000000000000e+01 4.0000000000000000e+00 3.7500000000000000e+00 
4 2 4 5.3474900374083463e+00 1.0000000000000000e+00 4.2000000000000000e+03 0.0000000000000000e+00 6.0000000000000000e+00 3.7500000000000000e+00 
5 2 4 5.3474900374083463e+00 1.0000000000000000e+00 4.2000000000000000e+03 0.0000000000000000e+00 8.0000000000000000e+00 3.7500000000000000e+00 
34 2 4 5.3474900374083463e+00 1.0000000000000000e+00 4.2000000000000000e+03 2.0000000000000000e+00 6.0000000000000000e+00 3.7500000000000000e+00 
35 2 4 5.3474900374083463e+00 1.0000000000000000e+00 4.2000000000000000e+03 2.0000000000000000e+00 8.0000000000000000e+00 3.7500000000000000e+00 
64 2 4 5.3474900374083463e+00 1.0000000000000000e+00 4.2000000000000000e+03 4.0000000000000000e+00 6.0000000000000000e+00 3.7500000000000000e+00 
65 2 4 5.3474900374083463e+00 1.0000000000000000e+00 4.2000000000000000e+03 4.0000000000000000e+00 8.0000000000000000e+00 3.7500000000000000e+00 
94 2 4 5.3474900374083463e+00 1.0000000000000000e+00 4.2000000000000000e+03 6.0000000000000000e+00 6.0000000000000000e+00 3.7500000000000000e+00 
95 2 4 5.3474900374083463e+00 1.0000000000000000e+00 4.2000000000000000e+03 6.0000000000000000e+00 8.0000000000000000e+00 3.7500000000000000e+00 
124 2 4 5.3474900374083463e+00 1.0000000000000000e+00 4.2000000000000000e+03 8.0000000000000000e+00 6.0000000000000000e+00 3.7500000000000000e+00 
125 2 4 5.3474900374083463e+00 1.0000000000000000e+00 4.2000000000000000e+03 8.0000000000000000e+00 8.0000000000000000e+00 3.7500000000000000e+00 
154 2 4 5.3474900374083463e+00 1.0000000000000000e+00 4.2000000000000000e+03 1.0000000000000000e+01 6.0000000000000000e+00 3.7500000000000000e+00 
155 2 4 5.3474900374083463e+00 1.0000000000000000e+00 4.2000000000000000e+03 1.0000000000000000e+01 8.0000000000000000e+00 3.7500000000000000e+00 
184 2 4 5.3474900374083463e+00 1.0000000000000000e+00 4.2000000000000000e+03 1.2000000000000000e+01 6.0000000000000000e+00 3.7500000000000000e+00 
185 2 4 5.3474900374083463e+00 1.0000000000000000e+00 4.2000000000000000e+03 1.2000000000000000e+01 8.0000000000000000e+00 3.7500000000000000e+00 
214 2 4 5.3474900374083463e+00 1.0000000000000000e+00 4.2000000000000000e+03 1.4000000000000000e+01 6.0000000000000000e+00 3.7500000000000000e+00 
215 2 4 5.3474900374083463e+00 1.0000000000000000e+00 4.2000000000000000e+03 1.4000000000000000e+01 8.0000000000000000e+00 3.7500000000000000e+00 
244 2 4 5.3474900374083463e+00 1.0000000000000000e+00 4.2000000000000000e+03 1.6000000000000000e+01 6.0000000000000000e+00 3.7500000000000000e+00 
245 2 4 5.3474900374083463e+00 1.0000000000000000e+00 4.2000000000000000e+03 1.6000000000000000e+01 8.0000000000000000e+00 3.7500000000000000e+00 
274 2 4 5.3474900374083463e+00 1.0000000000000000e+00 4.2000000000000000e+03 1.8000000000000000e+01 6.0000000000000000e+00 3.7500000000000000e+00 
275 2 4 5.3474900374083463e+00 1.0000000000000000e+00 4.2000000000000000e+03 1.8000000000000000e+01 8.0000000000000000e+00 3.7500000000000000e+00 
304 2 4 5.3474900374083463e+00 1.0000000000000000e+00 4.2000000000000000e+03 2.0000000000000000e+01 6.0000000000000000e+00 3.7500000000000000e+00 
305 2 4 5.3474900374083463e+00 1.0000000000000000e+00 4.2000000000000000e+03 2.0000000000000000e+01 8.0000000000000000e+00 3.7500000000000000e+00 
334 2 4 5.3474900374083463e+00 1.0000000000000000e+00 4.2000000000000000e+03 2.2000000000000000e+01 6.0000000000000000e+00 3.7500000000000000e+00 
335 2 4 5.3474900374083463e+00 1.0000000000000000e+00 4.2000000000000000e+03 2.2000000000000000e+01 8.0000000000000000e+00 3.7500000000000000e+00 
364 2 4 5.3474900374083463e+00 1.0000000000000000e+00 4.2000000000000000e+03 2.4000000000000000e+01 6.0000000000000000e+00 3.7500000000000000e+00 
365 2 4 5.3474900374083463e+00 1.0000000000000000e+00 4.2000000000000000e+03 2.4000000000000000e+01 8.0000000000000000e+00 3.7500000000000000e+00 
394 2 4 5.3474900374083463e+00 1.0000000000000000e+00 4.2000000000000000e+03 2.6000000000000000e+01 6.0000000000000000e+00 3.7500000000000000e+00 
395 2 4 5.3474900374083463e+00 1.0000000000000000e+00 4.2000000000000000e+03 2.6000000000000000e+01 8.0000000000000000e+00 3.7500000000000000e+00 
424 2 4 5.3474900374083463e+00 1.0000000000000000e+00 4.2000000000000000e+03 2.8000000000000000e+01 6.0000000000000000e+00 3.7500000000000000e+00 
425 2 4 5.3474900374083463e+00 1.0000000000000000e+00 4.2000000000000000e+03 2.8000000000000000e+01 8.0000000000000000e+00 3.7500000000000000e+00 
6 2 4 5.3474900374083463e+00 1.0000000000000000e+00 4.2000000000000000e+03 0.0000000000000000e+00 1.0000000000000000e+01 3.7500000000000000e+00 
36 2 4 5.3474900374083463e+00 1.0000000000000000e+00 4.2000000000000000e+03 2.0000000000000000e+00 1.0000000000000000e+01 3.7500000000000000e+00 
66 2 4 5.3474900374083463e+00 1.0000000000000000e+00 4.2000000000000000e+03 4.0000000000000000e+00 1.0000000000000000e+01 3.7500000000000000e+00 
96 2 4 5.3474900374083463e+00 1.0000000000000000e+00 4.2000000000000000e+03 6.0000000000000000e+00 1.0000000000000000e+01 3.7500000000000000e+00 
126 2 4 5.3474900374083463e+00 1.0000000000000000e+00 4.2000000000000000e+03 8.0000000000000000e+00 1.0000000000000000e+01 3.7500000000000000e+00 
156 2 4 5.3474900374083463e+00 1.0000000000000000e+00 4.2000000000000000e+03 1.0000000000000000e+01 1.0000000000000000e+01 3.7500000000000000e+00 
186 2 4 5.3474900374083463e+00 1.0000000000000000e+00 4.2000000000000000e+03 1.2000000000000000e+01 1.0000000000000000e+01 3.7500000000000000e+00 
216 2 4 5.3474900374083463e+00 1.0000000000000000e+00 4.2000000000000000e+03 1.4000000000000000e+01 1.0000000000000000e+01 3.7500000000000000e+00 
246 2 4 5.3474900374083463e+00 1.0000000000000000e+00 4.2000000000000000e+03 1.6000000000000000e+01 1.0000000000000000e+01 3.7500000000000000e+00 
276 2 4 5.3474900374083463e+00 1.0000000000000000e+00 4.2000000000000000e+03 1.8000000000000000e+01 1.0000000000000000e+01 3.7500000000000000e+00 
306 2 4 5.3474900374083463e+00 1.0000000000000000e+00 4.2000000000000000e+03 2.0000000000000000e+01 1.0000000000000000e+01 3.7500000000000000e+00 
336 2 4 5.3474900374083463e+00 1.0000000000000000e+00 4.2000000000000000e+03 2.2000000000000000e+01 1.0000000000000000e+01 3.7500000000000000e+00 
366 2 4 5.3474900374083463e+00 1.0000000000000000e+00 4.2000000000000000e+03 2.4000000000000000e+01 1.0000000000000000e+01 3.7500000000000000e+00 
396 2 4 5.3474900374083463e+00 1.0000000000000000e+00 4.2000000000000000e+03 2.6000000000000000e+01 1.0000000000000000e+01 3.7500000000000000e+00 
426 2 4 5.3474900374083463e+00 1.0000000000000000e+00 4.2000000000000000e+03 2.8000000000000000e+01 1.0000000000000000e+01 3.7500000000000000e+00 
7 2 4 5.3474900374083463e+00 1.0000000000000000e+00 4.2000000000000000e+03 0.0000000000000000e+00 1.2000000000000000e+01 3.7500000000000000e+00 
37 2 4 5.3474900374083463e+00 1.0000000000000000e+00 4.2000000000000000e+03 2.0000000000000000e+00 1.2000000000000000e+01 3.7500000000000000e+00 
67 2 4 5.3474900374083463e+00 1.0000000000000000e+00 4.2000000000000000e+03 4.0000000000000000e+00 1.2000000000000000e+01 3.7500000000000000e+00 
97 2 4 5.3474900374083463e+00 1.0000000000000000e+00 4.2000000000000000e+03 6.0000000000000000e+00 1.2000000000000000e+01 3.7500000000000000e+00 
127 2 4 5.3474900374083463e+00 1.0000000000000000e+00 4.2000000000000000e+03 8.0000000000000000e+00 1.2000000000000000e+01 3.7500000000000000e+00 
157 2 4 5.3474900374083463e+00 1.0000000000000000e+00 4.2000000000000000e+03 1.0000000000000000e+01 1.2000000000000000e+01 3.7500000000000000e+00 
187 2 4 5.3474900374083463e+00 1.0000000000000000e+00 4.2000000000000000e+03 1.2000000000000000e+01 1.2000000000000000e+01 3.7500000000000000e+00 
217 2 4 5.3474900374083463e+00 1.0000000000000000e+00 4.2000000000000000e+03 1.4000000000000000e+01 1.2000000000000000e+01 3.7500000000000000e+00 
247 2 4 5.3474900374083463e+00 1.0000000000000000e+00 4.2000000000000000e+03 1.6000000000000000e+01 1.2000000000000000e+01 3.7500000000000000e+00 
277 2 4 5.3474900374083463e+00 1.0000000000000000e+00 4.2000000000000000e+03 1.8000000000000000e+01 1.2000000000000000e+01 3.7500000000000000e+00 
307 2 4 5.3474900374083463e+00 1.0000000000000000e+00 4.2000000000000000e+03 2.0000000000000000e+01 1.2000000000000000e+01 3.7500000000000000e+00 
337 2 4 5.3474900374083463e+00 1.0000000000000000e+00 4.2000000000000000e+03 2.2000000000000000e+01 1.2000000000000000e+01 3.7500000000000000e+00 
367 2 4 5.3474900374083463e+00 1.0000000000000000e+00 4.2000000000000000e+03 2.4000000000000000e+01 1.2000000000000000e+01 3.7500000000000000e+00 
397 2 4 5.3474900374083463e+00 1.0000000000000000e+00 4.2000000000000000e+03 2.6000000000000000e+01 1.2000000000000000e+01 3.7500000000000000e+00 
427 2 4 5.3474900374083463e+00 1.0000000000000000e+00 4.2000000000000000e+03 2.8000000000000000e+01 1.2000000000000000e+01 3.7500000000000000e+00 
8 2 4 5.3474900374083463e+00 1.0000000000000000e+00 4.2000000000000000e+03 0.0000000000000000e+00 1.4000000000000000e+01 3.7500000000000000e+00 
9 2 4 5.3474900374083463e+00 1.0000000000000000e+00 4.2000000000000000e+03 0.0000000000000000e+00 1.6000000000000000e+01 3.7500000000000000e+00 
38 2 4 5.3474900374083463e+00 1.0000000000000000e+00 4.2000000000000000e+03 2.0000000000000000e+00 1.4000000000000000e+01 3.7500000000000000e+00 
39 2 4 5.3474900374083463e+00 1.0000000000000000e+00 4.2000000000000000e+03 2.0000000000000000e+00 1.6000000000000000e+01 3.7500000000000000e+00 
68 2 4 5.3474900374083463e+00 1.0000000000000000e+00 4.2000000000000000e+03 4.0000000000000000e+00 1.4000000000000000e+01 3.7500000000000000e+00 
69 2 4 5.3474900374083463e+00 1.0000000000000000e+00 4.2000000000000000e+03 4.0000000000000000e+00 1.6000000000000000e+01 3.7500000000000000e+00 
98 2 4 5.3474900374083463e+00 1.0000000000000000e+00 4.2000000000000000e+03 6.0000000000000000e+00 1.4000000000000000e+01 3.7500000000000000e+00 
99 2 4 5.3474900374083463e+00 1.0000000000000000e+00 4.2000000000000000e+03 6.0000000000000000e+00 1.6000000000000000e+01 3.7500000000000000e+00 
128 2 4 5.3474900374083463e+00 1.0000000000000000e+00 4.2000000000000000e+03 8.0000000000000000e+00 1.4000000000000000e+01 3.7500000000000000e+00 
129 2 4 5.3474900374083463e+00 1.0000000000000000e+00 4.2000000000000000e+03 8.0000000000000000e+00 1.6000000000000000e+01 3.7500000000000000e+00 
158 2 4 5.3474900374083463e+00 1.0000000000000000e+00 4.2000000000000000e+03 1.0000000000000000e+01 1.4000000000000000e+01 3.7500000000000000e+00 
159 2 4 5.3474900374083463e+00 1.0000000000000000e+00 4.2000000000000000e+03 1.0000000000000000e+01 1.6000000000000000e+01 3.7500000000000000e+00 
188 2 4 5.3474900374083463e+00 1.0000000000000000e+00 4.2000000000000000e+03 1.2000000000000000e+01 1.4000000000000000e+01 3.7500000000000000e+00 
189 2 4 5.3474900374083463e+00 1.0000000000000000e+00 4.2000000000000000e+03 1.2000000000000000e+01 1.6000000000000000e+01 3.7500000000000000e+00 
218 2 4 5.3474900374083463e+00 1.0000000000000000e+00 4.2000000000000000e+03 1.4000000000000000e+01 1.4000000000000000e+01 3.7500000000000000e+00 
219 2 4 5.3474900374083463e+00 1.0000000000000000e+00 4.2000000000000000e+03 1.4000000000000000e+01 1.6000000000000000e+01 3.7500000000000000e+00 
248 2 4 5.3474900374083463e+00 1.0000000000000000e+00 4.2000000000000000e+03 1.6000000000000000e+01 1.4000000000000000e+01 3.7500000000000000e+00 
249 2 4 5.3474900374083463e+00 1.0000000000000000e+00 4.2000000000000000e+03 1.6000000000000000e+01 1.6000000000000000e+01 3.7500000000000000e+00 
278 2 4 5.3474900374083463e+00 1.0000000000000000e+00 4.2000000000000000e+03 1.8000000000000000e+01 1.4000000000000000e+01 3.7500000000000000e+00 
279 2 4 5.3474900374083463e+00 1.0000000000000000e+00 4.2000000000000000e+03 1.8000000000000000e+01 1.6000000000000000e+01 3.7500000000000000e+00 
308 2 4 5.3474900374083463e+00 1.0000000000000000e+00 4.2000000000000000e+03 2.0000000000000000e+01 1.4000000000000000e+01 3.7500000000000000e+00 
309 2 4 5.3474900374083463e+00 1.0000000000000000e+00 4.2000000000000000e+03 2.0000000000000000e+01 1.6000000000000000e+01 3.7500000000000000e+00 
338 2 4 5.3474900374083463e+00 1.0000000000000000e+00 4.2000000000000000e+03 2.2000000000000000e+01 1.4000000000000000e+01 3.7500000000000000e+00 
339 2 4 5.3474900374083463e+00 1.0000000000000000e+00 4.2000000000000000e+03 2.2000000000000000e+01 1.6000000000000000e+01 3.7500000000000000e+00 
368 2 4 5.3474900374083463e+00 1.0000000000000000e+00 4.2000000000000000e+03 2.4000000000000000e+01 1.4000000000000000e+01 3.7500000000000000e+00 
369 2 4 5.3474900374083463e+00 1.0000000000000000e+00 4.2000000000000000e+03 2.4000000000000000e+01 1.6000000000000000e+01 3.7500000000000000e+00 
398 2 4 5.3474900374083463e+00 1.0000000000000000e+00 4.2000000000000000e+03 2.6000000000000000e+01 1.4000000000000000e+01 3.7500000000000000e+00 
399 2 4 5.3474900374083463e+00 1.0000000000000000e+00 4.2000000000000000e+03 2.6000000000000000e+01 1.6000000000000000e+01 3.7500000000000000e+00 
428 2 4 5.3474900374083463e+00 1.0000000000000000e+00 4.2000000000000000e+03 2.8000000000000000e+01 1.4000000000000000e+01 3.7500000000000000e+00 
429 2 4 5.3474900374083463e+00 1.0000000000000000e+00 4.2000000000000000e+03 2.8000000000000000e+01 1.6000000000000000e+01 3.7500000000000000e+00 
10 2 4 5.3474900374083463e+00 1.0000000000000000e+00 4.2000000000000000e+03 0.0000000000000000e+00 1.8000000000000000e+01 3.7500000000000000e+00 
40 2 4 5.3474900374083463e+00 1.0000000000000000e+00 4.2000000000000000e+03 2.0000000000000000e+00 1.8000000000000000e+01 3.7500000000000000e+00 
70 2 4 5.3474900374083463e+00 1.0000000000000000e+00 4.2000000000000000e+03 4.0000000000000000e+00 1.8000000000000000e+01 3.7500000000000000e+00 
100 2 4 5.3474900374083463e+00 1.0000000000000000e+00 4.2000000000000000e+03 6.0000000000000000e+00 1.8000000000000000e+01 3.7500000000000000e+00 
130 2 4 5.3474900374083463e+00 1.0000000000000000e+00 4.2000000000000000e+03 8.0000000000000000e+00 1.8000000000000000e+01 3.7500000000000000e+00 
160 2 4 5.3474900374083463e+00 1.0000000000000000e+00 4.2000000000000000e+03 1.0000000000000000e+01 1.8000000000000000e+01 3.7500000000000000e+00 
190 2 4 5.3474900374083463e+00 1.0000000000000000e+00 4.2000000000000000e+03 1.2000000000000000e+01 1.8000000000000000e+01 3.7500000000000000e+00 
220 2 4 5.3474900374083463e+00 1.0000000000000000e+00 4.2000000000000000e+03 1.4000000000000000e+01 1.8000000000000000e+01 3.7500000000000000e+00 
250 2 4 5.3474900374083463e+00 1.0000000000000000e+00 4.2000000000000000e+03 1.6000000000000000e+01 1.8000000000000000e+01 3.7500000000000000e+00 
280 2 4 5.3474900374083463e+00 1.0000000000000000e+00 4.2000000000000000e+03 1.8000000000000000e+01 1.8000000000000000e+01 3.7500000000000000e+00 
310 2 4 5.3474900374083463e+00 1.0000000000000000e+00 4.2000000000000000e+03 2.0000000000000000e+01 1.8000000000000000e+01 3.7500000000000000e+00 
340 2 4 5.3474900374083463e+00 1.0000000000000000e+00 4.2000000000000000e+03 2.2000000000000000e+01 1.8000000000000000e+01 3.7500000000000000e+00 
370 2 4 5.3474900374083463e+00 1.0000000000000000e+00 4.2000000000000000e+03 2.4000000000000000e+01 1.8000000000000000e+01 3.7500000000000000e+00 
400 2 4 5.3474900374083463e+00 1.0000000000000000e+00 4.2000000000000000e+03 2.6000000000000000e+01 1.8000000000000000e+01 3.7500000000000000e+00 
430 2 4 5.3474900374083463e+00 1.0000000000000000e+00 4.2000000000000000e+03 2.8000000000000000e+01 1.8000000000000000e+01 3.7500000000000000e+00 
11 2 4 5.3474900374083463e+00 1.0000000000000000e+00 4.2000000000000000e+03 0.0000000000000000e+00 2.0000000000000000e+01 3.7500000000000000e+00 
41 2 4 5.3474900374083463e+00 1.0000000000000000e+00 4.2000000000000000e+03 2.0000000000000000e+00 2.0000000000000000e+01 3.7500000000000000e+00 
71 2 4 5.3474900374083463e+00 1.0000000000000000e+00 4.2000000000000000e+03 4.0000000000000000e+00 2.0000000000000000e+01 3.7500000000000000e+00 
101 2 4 5.3474900374083463e+00 1.0000000000000000e+00 4.2000000000000000e+03 6.0000000000000000e+00 2.0000000000000000e+01 3.7500000000000000e+00 
131 2 4 5.3474900374083463e+00 1.0000000000000000e+00 4.2000000000000000e+03 8.0000000000000000e+00 2.0000000000000000e+01 3.7500000000000000e+00 
161 2 4 5.3474900374083463e+00 1.0000000000000000e+00 4.2000000000000000e+03 1.0000000000000000e+01 2.0000000000000000e+01 3.7500000000000000e+00 
191 2 4 5.3474900374083463e+00 1.0000000000000000e+00 4.2000000000000000e+03 1.2000000000000000e+01 2.0000000000000000e+01 3.7500000000000000e+00 
221 2 4 5.3474900374083463e+00 1.0000000000000000e+00 4.2000000000000000e+03 1.4000000000000000e+01 2.0000000000000000e+01 3.7500000000000000e+00 
251 2 4 5.3474900374083463e+00 1.0000000000000000e+00 4.2000000000000000e+03 1.6000000000000000e+01 2.0000000000000000e+01 3.7500000000000000e+00 
281 2 4 5.3474900374083463e+00 1.0000000000000000e+00 4.2000000000000000e+03 1.8000000000000000e+01 2.0000000000000000e+01 3.7500000000000000e+00 
311 2 4 5.3474900374083463e+00 1.0000000000000000e+00 4.2000000000000000e+03 2.0000000000000000e+01 2.0000000000000000e+01 3.7500000000000000e+00 
341 2 4 5.3474900374083463e+00 1.0000000000000000e+00 4.2000000000000000e+03 2.2000000000000000e+01 2.0000000000000000e+01 3.7500000000000000e+00 
371 2 4 5.3474900374083463e+00 1.0000000000000000e+00 4.2000000000000000e+03 2.4000000000000000e+01 2.0000000000000000e+01 3.7500000000000000e+00 
401 2 4 5.3474900374083463e+00 1.0000000000000000e+00 4.2000000000000000e+03 2.6000000000000000e+01 2.0000000000000000e+01 3.7500000000000000e+00 
431 2 4 5.3474900374083463e+00 1.0000000000000000e+00 4.2000000000000000e+03 2.8000000000000000e+01 2.0000000000000000e+01 3.7500000000000000e+00 
12 2 4 5.3474900374083463e+00 1.0000000000000000e+00 4.2000000000000000e+03 0.0000000000000000e+00 2.2000000000000000e+01 3.7500000000000000e+00 
13 2 4 5.3474900374083463e+00 1.0000000000000000e+00 4.2000000000000000e+03 0.0000000000000000e+00 2.4000000000000000e+01 3.7500000000000000e+00 
42 2 4 5.3474900374083463e+00 1.0000000000000000e+00 4.2000000000000000e+03 2.0000000000000000e+00 2.2000000000000000e+01 3.7500000000000000e+00 
43 2 4 5.3474900374083463e+00 1.0000000000000000e+00 4.2000000000000000e+03 2.0000000000000000e+00 2.4000000000000000e+01 3.7500000000000000e+00 
72 2 4 5.3474900374083463e+00 1.0000000000000000e+00 4.2000000000000000e+03 4.0000000000000000e+00 2.2000000000000000e+01 3.7500000000000000e+00 
73 2 4 5.3474900374083463e+00 1.0000000000000000e+00 4.2000000000000000e+03 4.0000000000000000e+00 2.4000000000000000e+01 3.7500000000000000e+00 
102 2 4 5.3474900374083463e+00 1.0000000000000000e+00 4.2000000000000000e+03 6.0000000000000000e+00 2.2000000000000000e+01 3.7500000000000000e+00 
103 2 4 5.3474900374083463e+00 1.0000000000000000e+00 4.2000000000000000e+03 6.0000000000000000e+00 2.4000000000000000e+01 3.7500000000000000e+00 
132 2 4 5.3474900374083463e+00 1.0000000000000000e+00 4.2000000000000000e+03 8.0000000000000000e+00 2.2000000000000000e+01 3.7500000000000000e+00 
133 2 4 5.3474900374083463e+00 1.0000000000000000e+00 4.2000000000000000e+03 8.0000000000000000e+00 2.4000000000000000e+01 3.7500000000000000e+00 
162 2 4 5.3474900374083463e+00 1.0000000000000000e+00 4.2000000000000000e+03 1.0000000000000000e+01 2.2000000000000000e+01 3.7500000000000000e+00 
163 2 4 5.3474900374083463e+00 1.0000000000000000e+00 4.2000000000000000e+03 1.0000000000000000e+01 2.4000000000000000e+01 3.7500000000000000e+00 
192 2 4 5.3474900374083463e+00 1.0000000000000000e+00 4.2000000000000000e+03 1.2000000000000000e+01 2.2000000000000000e+01 3.7500000000000000e+00 
193 2 4 5.3474900374083463e+00 1.0000000000000000e+00 4.2000000000000000e+03 1.2000000000000000e+01 2.4000000000000000e+01 3.7500000000000000e+00 
222 2 4 5.3474900374083463e+00 1.0000000000000000e+00 4.2000000000000000e+03 1.4000000000000000e+01 2.2000000000000000e+01 3.7500000000000000e+00 
223 2 4 5.3474900374083463e+00 1.0000000000000000e+00 4.2000000000000000e+03 1.4000000000000000e+01 2.4000000000000000e+01 3.7500000000000000e+00 
252 2 4 5.3529652118613642e+00 1.0000000000000000e+00 4.2000000000000000e+03 1.6000000000000000e+01 2.2000000000000000e+01 3.7500000000000000e+00 
253 2 4 5.3529652118613642e+00 1.0000000000000000e+00 4.2000000000000000e+03 1.6000000000000000e+01 2.4000000000000000e+01 3.7500000000000000e+00 
282 2 4 5.3529652118613642e+00 1.0000000000000000e+00 4.2000000000000000e+03 1.8000000000000000e+01 2.2000000000000000e+01 3.7500000000000000e+00 
283 2 4 5.3529652118613642e+00 1.0000000000000000e+00 4.2000000000000000e+03 1.8000000000000000e+01 2.4000000000000000e+01 3.7500000000000000e+00 
1075 3 1 1.6964613994041866e+00 1.0003200131269896e+00 4.2000000000000000e+03 1.7000000000000000e+01 2.3000000000000000e+01 3.7499999900575838e+00 
312 2 4 5.3474900374083463e+00 1.0000000000000000e+00 4.2000000000000000e+03 2.0000000000000000e+01 2.2000000000000000e+01 3.7500000000000000e+00 
313 2 4 5.3474900374083463e+00 1.0000000000000000e+00 4.2000000000000000e+03 2.0000000000000000e+01 2.4000000000000000e+01 3.7500000000000000e+00 
342 2 4 5.3474900374083463e+00 1.0000000000000000e+00 4.2000000000000000e+03 2.2000000000000000e+01 2.2000000000000000e+01 3.7500000000000000e+00 
343 2 4 5.3474900374083463e+00 1.0000000000000000e+00 4.2000000000000000e+03 2.2000000000000000e+01 2.4000000000000000e+01 3.7500000000000000e+00 
372 2 4 5.3510586372170810e+00 1.0000000000000000e+00 4.2000000000000000e+03 2.4000000000000000e+01 2.2000000000000000e+01 3.7500000000000000e+00 
373 2 4 5.3510586372170810e+00 1.0000000000000000e+00 4.2000000000000000e+03 2.4000000000000000e+01 2.4000000000000000e+01 3.7500000000000000e+00 
1131 3 1 1.6981172928852475e+00 -3.5583455171577486e+02 4.2000000000000000e+03 2.5000000000000000e+01 2.3000000000000000e+01 3.5048679751000420e+00 
402 2 4 5.3510586372170810e+00 1.0000000000000000e+00 4.2000000000000000e+03 2.6000000000000000e+01 2.2000000000000000e+01 3.7500000000000000e+00 
403 2 4 5.3510586372170810e+00 1.0000000000000000e+00 4.2000000000000000e+03 2.6000000000000000e+01 2.4000000000000000e+01 3.7500000000000000e+00 
432 2 4 5.3474900374083463e+00 1.0000000000000000e+00 4.2000000000000000e+03 2.8000000000000000e+01 2.2000000000000000e+01 3.7500000000000000e+00 
433 2 4 5.3474900374083463e+00 1.0000000000000000e+00 4.2000000000000000e+03 2.8000000000000000e+01 2.4000000000000000e+01 3.7500000000000000e+00 
14 2 4 5.3474900374083463e+00 1.0000000000000000e+00 4.2000000000000000e+03 0.0000000000000000e+00 2.6000000000000000e+01 3.7500000000000000e+00 
44 2 4 5.3474900374083463e+00 1.0000000000000000e+00 4.2000000000000000e+03 2.0000000000000000e+00 2.6000000000000000e+01 3.7500000000000000e+00 
74 2 4 5.3474900374083463e+00 1.0000000000000000e+00 4.2000000000000000e+03 4.0000000000000000e+00 2.6000000000000000e+01 3.7500000000000000e+00 