LAMMPS data file via write_data, version 30 Jul 2016, timestep = 1000000

2080 atoms
8 atom types

0.0000000000000000e+00 4.0000000000000000e+01 xlo xhi
0.0000000000000000e+00 4.0000000000000000e+01 ylo yhi
0.0000000000000000e+00 1.0000000000000000e+02 zlo zhi

Masses

1 3.896
2 16.08
3 1058.08
4 8.378
5 8.378
6 8.378
7 8.378
8 8.378

Atoms # meso-molecular

1 2 4 2.2559723595316457e+00 6.6284055827594983e+00 4.2000000000000000e+03 0.0000000000000000e+00 0.0000000000000000e+00 2.5000000000000000e+00 
2 2 4 2.2559723595316457e+00 7.4590956527073793e+00 4.2000000000000000e+03 0.0000000000000000e+00 2.0000000000000000e+00 2.5000000000000000e+00 
3 2 4 2.2559723595316457e+00 6.6996986719367673e+00 4.2000000000000000e+03 0.0000000000000000e+00 4.0000000000000000e+00 2.5000000000000000e+00 
4 2 4 2.2559723595316457e+00 9.3545681339523024e-01 4.2000000000000000e+03 0.0000000000000000e+00 6.0000000000000000e+00 2.5000000000000000e+00 
21 2 4 2.2559723595316457e+00 2.0477504706650880e+00 4.2000000000000000e+03 2.0000000000000000e+00 0.0000000000000000e+00 2.5000000000000000e+00 
22 2 4 2.2559723595316457e+00 1.1718504156132203e+00 4.2000000000000000e+03 2.0000000000000000e+00 2.0000000000000000e+00 2.5000000000000000e+00 
23 2 4 2.2559723595316457e+00 2.2877039927073461e+00 4.2000000000000000e+03 2.0000000000000000e+00 4.0000000000000000e+00 2.5000000000000000e+00 
24 2 4 2.2559723595316457e+00 9.7003382346614675e-01 4.2000000000000000e+03 2.0000000000000000e+00 6.0000000000000000e+00 2.5000000000000000e+00 
41 2 4 2.2559723595316457e+00 1.2283577815826902e-01 4.2000000000000000e+03 4.0000000000000000e+00 0.0000000000000000e+00 2.5000000000000000e+00 
42 2 4 2.2559723595316457e+00 -6.1171881533357109e-01 4.2000000000000000e+03 4.0000000000000000e+00 2.0000000000000000e+00 2.5000000000000000e+00 
43 2 4 2.2559723595316457e+00 4.8414238910997498e-01 4.2000000000000000e+03 4.0000000000000000e+00 4.0000000000000000e+00 2.5000000000000000e+00 
44 2 4 2.2559723595316457e+00 1.2079654896434042e+00 4.2000000000000000e+03 4.0000000000000000e+00 6.0000000000000000e+00 2.5000000000000000e+00 
61 2 4 2.2559723595316457e+00 6.9964368341040384e-01 4.2000000000000000e+03 6.0000000000000000e+00 0.0000000000000000e+00 2.5000000000000000e+00 
62 2 4 2.2559723595316457e+00 4.7287319374089187e-01 4.2000000000000000e+03 6.0000000000000000e+00 2.0000000000000000e+00 2.5000000000000000e+00 
63 2 4 2.2559723595316457e+00 2.9296723564983729e-01 4.2000000000000000e+03 6.0000000000000000e+00 4.0000000000000000e+00 2.5000000000000000e+00 
64 2 4 2.2559723595316457e+00 8.8912624362118065e-01 4.2000000000000000e+03 6.0000000000000000e+00 6.0000000000000000e+00 2.5000000000000000e+00 
81 2 4 2.2559723595316457e+00 7.3177243490982335e-01 4.2000000000000000e+03 8.0000000000000000e+00 0.0000000000000000e+00 2.5000000000000000e+00 
82 2 4 2.2559723595316457e+00 1.1054244468434615e+00 4.2000000000000000e+03 8.0000000000000000e+00 2.0000000000000000e+00 2.5000000000000000e+00 
83 2 4 2.2559723595316457e+00 6.6577071971768986e-01 4.2000000000000000e+03 8.0000000000000000e+00 4.0000000000000000e+00 2.5000000000000000e+00 
84 2 4 2.2559723595316457e+00 1.1156625903217832e+00 4.2000000000000000e+03 8.0000000000000000e+00 6.0000000000000000e+00 2.5000000000000000e+00 
101 2 4 2.2559723595316457e+00 6.5285538701851986e-01 4.2000000000000000e+03 1.0000000000000000e+01 0.0000000000000000e+00 2.5000000000000000e+00 
102 2 4 2.2559723595316457e+00 9.2462207751168535e-01 4.2000000000000000e+03 1.0000000000000000e+01 2.0000000000000000e+00 2.5000000000000000e+00 
103 2 4 2.2559723595316457e+00 7.2831477670391975e-01 4.2000000000000000e+03 1.0000000000000000e+01 4.0000000000000000e+00 2.5000000000000000e+00 
104 2 4 2.2559723595316457e+00 -7.4579295018687848e+00 4.2000000000000000e+03 1.0000000000000000e+01 6.0000000000000000e+00 2.5000000000000000e+00 
121 2 4 2.2559723595316457e+00 6.0376632876755854e-01 4.2000000000000000e+03 1.2000000000000000e+01 0.0000000000000000e+00 2.5000000000000000e+00 
122 2 4 2.2559723595316457e+00 9.8774175296416900e-01 4.2000000000000000e+03 1.2000000000000000e+01 2.0000000000000000e+00 2.5000000000000000e+00 
123 2 4 2.2559723595316457e+00 -7.4770317737154901e+00 4.2000000000000000e+03 1.2000000000000000e+01 4.0000000000000000e+00 2.5000000000000000e+00 
124 2 4 2.2559723595316457e+00 -3.5869645009024134e+02 4.2000000000000000e+03 1.2000000000000000e+01 6.0000000000000000e+00 2.5000000000000000e+00 
141 2 4 2.2559723595316457e+00 8.6073429755597264e-01 4.2000000000000000e+03 1.4000000000000000e+01 0.0000000000000000e+00 2.5000000000000000e+00 
142 2 4 2.2559723595316457e+00 9.2193876395400398e-01 4.2000000000000000e+03 1.4000000000000000e+01 2.0000000000000000e+00 2.5000000000000000e+00 
143 2 4 2.2559723595316457e+00 -1.2727492095658752e+02 4.2000000000000000e+03 1.4000000000000000e+01 4.0000000000000000e+00 2.5000000000000000e+00 
144 2 4 2.2559723595316457e+00 -1.6301616465844784e+03 4.2000000000000000e+03 1.4000000000000000e+01 6.0000000000000000e+00 2.5000000000000000e+00 
161 2 4 2.2559723595316457e+00 6.8479459705239631e-01 4.2000000000000000e+03 1.6000000000000000e+01 0.0000000000000000e+00 2.5000000000000000e+00 
162 2 4 2.2559723595316457e+00 7.9716307729103464e-01 4.2000000000000000e+03 1.6000000000000000e+01 2.0000000000000000e+00 2.5000000000000000e+00 
163 2 4 2.2559723595316457e+00 -3.4174085741118847e+02 4.2000000000000000e+03 1.6000000000000000e+01 4.0000000000000000e+00 2.5000000000000000e+00 
164 2 4 2.2559723595316457e+00 -3.4962876464943420e+03 4.2000000000000000e+03 1.6000000000000000e+01 6.0000000000000000e+00 2.5000000000000000e+00 
181 2 4 2.2559723595316457e+00 4.2201181071915694e-01 4.2000000000000000e+03 1.8000000000000000e+01 0.0000000000000000e+00 2.5000000000000000e+00 
182 2 4 2.2559723595316457e+00 4.9412305700871550e-01 4.2000000000000000e+03 1.8000000000000000e+01 2.0000000000000000e+00 2.5000000000000000e+00 
183 2 4 2.2559723595316457e+00 -4.7167423232785609e+02 4.2000000000000000e+03 1.8000000000000000e+01 4.0000000000000000e+00 2.5000000000000000e+00 
184 2 4 2.2559723595316457e+00 -4.8263738446847519e+03 4.2000000000000000e+03 1.8000000000000000e+01 6.0000000000000000e+00 2.5000000000000000e+00 
5 2 4 2.2559723595316457e+00 7.7746309981525497e-01 4.2000000000000000e+03 0.0000000000000000e+00 8.0000000000000000e+00 2.5000000000000000e+00 
6 2 4 2.2559723595316457e+00 9.0128691850623366e-01 4.2000000000000000e+03 0.0000000000000000e+00 1.0000000000000000e+01 2.5000000000000000e+00 
7 2 4 2.2559723595316457e+00 1.1652776131397182e+00 4.2000000000000000e+03 0.0000000000000000e+00 1.2000000000000000e+01 2.5000000000000000e+00 
25 2 4 2.2559723595316457e+00 9.4776149083551342e-01 4.2000000000000000e+03 2.0000000000000000e+00 8.0000000000000000e+00 2.5000000000000000e+00 
26 2 4 2.2559723595316457e+00 1.1574016803269829e+00 4.2000000000000000e+03 2.0000000000000000e+00 1.0000000000000000e+01 2.5000000000000000e+00 
27 2 4 2.2559723595316457e+00 1.0955486024990768e+00 4.2000000000000000e+03 2.0000000000000000e+00 1.2000000000000000e+01 2.5000000000000000e+00 
45 2 4 2.2559723595316457e+00 1.2946983541899972e+00 4.2000000000000000e+03 4.0000000000000000e+00 8.0000000000000000e+00 2.5000000000000000e+00 
46 2 4 2.2559723595316457e+00 1.0353889122177597e+00 4.2000000000000000e+03 4.0000000000000000e+00 1.0000000000000000e+01 2.5000000000000000e+00 
47 2 4 2.2559723595316457e+00 9.3415881488587149e-01 4.2000000000000000e+03 4.0000000000000000e+00 1.2000000000000000e+01 2.5000000000000000e+00 
65 2 4 2.2559723595316457e+00 1.1457696148255323e+00 4.2000000000000000e+03 6.0000000000000000e+00 8.0000000000000000e+00 2.5000000000000000e+00 
66 2 4 2.2559723595316457e+00 1.0432846791568116e+00 4.2000000000000000e+03 6.0000000000000000e+00 1.0000000000000000e+01 2.5000000000000000e+00 
67 2 4 2.2559723595316457e+00 9.9659001339441922e-01 4.2000000000000000e+03 6.0000000000000000e+00 1.2000000000000000e+01 2.5000000000000000e+00 
85 2 4 2.2559723595316457e+00 1.0278905037555592e+00 4.2000000000000000e+03 8.0000000000000000e+00 8.0000000000000000e+00 2.5000000000000000e+00 
86 2 4 2.2559723595316457e+00 1.1225323524886344e+00 4.2000000000000000e+03 8.0000000000000000e+00 1.0000000000000000e+01 2.5000000000000000e+00 
87 2 4 2.2559723595316457e+00 1.2162290823758295e+00 4.2000000000000000e+03 8.0000000000000000e+00 1.2000000000000000e+01 2.5000000000000000e+00 
105 2 4 2.2559723595316457e+00 -1.2869754077711298e+02 4.2000000000000000e+03 1.0000000000000000e+01 8.0000000000000000e+00 2.5000000000000000e+00 
106 2 4 2.2559723595316457e+00 -3.4007172512347569e+02 4.2000000000000000e+03 1.0000000000000000e+01 1.0000000000000000e+01 2.5000000000000000e+00 
107 2 4 2.2559723595316457e+00 -4.6624225938906716e+02 4.2000000000000000e+03 1.0000000000000000e+01 1.2000000000000000e+01 2.5000000000000000e+00 
125 2 4 2.2559723595316457e+00 -1.6347422016065045e+03 4.2000000000000000e+03 1.2000000000000000e+01 8.0000000000000000e+00 2.5000000000000000e+00 
126 2 4 2.2559723595316457e+00 -3.4956274807423461e+03 4.2000000000000000e+03 1.2000000000000000e+01 1.0000000000000000e+01 2.5000000000000000e+00 
127 2 4 2.2559723595316457e+00 -4.8241579438797235e+03 4.2000000000000000e+03 1.2000000000000000e+01 1.2000000000000000e+01 2.5000000000000000e+00 
145 2 4 2.2559723595316457e+00 -5.9768784060817970e+03 4.2000000000000000e+03 1.4000000000000000e+01 8.0000000000000000e+00 2.5000000000000000e+00 
146 2 4 2.2559723595316457e+00 -1.2096547803405474e+04 4.2000000000000000e+03 1.4000000000000000e+01 1.0000000000000000e+01 2.5000000000000000e+00 
147 2 4 2.2559723595316457e+00 -1.6803705457536456e+04 4.2000000000000000e+03 1.4000000000000000e+01 1.2000000000000000e+01 2.5000000000000000e+00 
165 2 4 2.2559723595316457e+00 -1.2107462294272573e+04 4.2000000000000000e+03 1.6000000000000000e+01 8.0000000000000000e+00 2.5000000000000000e+00 
166 2 4 2.2559723595316457e+00 -2.4391562388355975e+04 4.2000000000000000e+03 1.6000000000000000e+01 1.0000000000000000e+01 2.5000000000000000e+00 
167 2 4 2.2559723595316457e+00 -3.4314318280182655e+04 4.2000000000000000e+03 1.6000000000000000e+01 1.2000000000000000e+01 2.5000000000000000e+00 
185 2 4 2.2559723595316457e+00 -1.6679826197669096e+04 4.2000000000000000e+03 1.8000000000000000e+01 8.0000000000000000e+00 2.5000000000000000e+00 
186 2 4 2.2559723595316457e+00 -3.3874026783960711e+04 4.2000000000000000e+03 1.8000000000000000e+01 1.0000000000000000e+01 2.5000000000000000e+00 
187 2 4 2.2559723595316457e+00 -4.8129688653379999e+04 4.2000000000000000e+03 1.8000000000000000e+01 1.2000000000000000e+01 2.5000000000000000e+00 
8 2 4 2.2559723595316457e+00 1.6715447878980114e+00 4.2000000000000000e+03 0.0000000000000000e+00 1.4000000000000000e+01 2.5000000000000000e+00 
9 2 4 2.2559723595316457e+00 7.9840065588138520e-01 4.2000000000000000e+03 0.0000000000000000e+00 1.6000000000000000e+01 2.5000000000000000e+00 
10 2 4 2.2559723595316457e+00 -2.7060590734041357e-01 4.2000000000000000e+03 0.0000000000000000e+00 1.8000000000000000e+01 2.5000000000000000e+00 
28 2 4 2.2559723595316457e+00 1.2779407596490673e+00 4.2000000000000000e+03 2.0000000000000000e+00 1.4000000000000000e+01 2.5000000000000000e+00 
29 2 4 2.2559723595316457e+00 1.3898861714206738e+00 4.2000000000000000e+03 2.0000000000000000e+00 1.6000000000000000e+01 2.5000000000000000e+00 
30 2 4 2.2559723595316457e+00 7.0299540632814184e-01 4.2000000000000000e+03 2.0000000000000000e+00 1.8000000000000000e+01 2.5000000000000000e+00 
48 2 4 2.2559723595316457e+00 1.3074268118248340e+00 4.2000000000000000e+03 4.0000000000000000e+00 1.4000000000000000e+01 2.5000000000000000e+00 
49 2 4 2.2559723595316457e+00 1.8664347724876540e+00 4.2000000000000000e+03 4.0000000000000000e+00 1.6000000000000000e+01 2.5000000000000000e+00 
50 2 4 2.2559723595316457e+00 1.4438215355463979e+00 4.2000000000000000e+03 4.0000000000000000e+00 1.8000000000000000e+01 2.5000000000000000e+00 
68 2 4 2.2559723595316457e+00 1.0237513785115113e+00 4.2000000000000000e+03 6.0000000000000000e+00 1.4000000000000000e+01 2.5000000000000000e+00 
69 2 4 2.2559723595316457e+00 9.8098013388912131e-01 4.2000000000000000e+03 6.0000000000000000e+00 1.6000000000000000e+01 2.5000000000000000e+00 
70 2 4 2.2559723595316457e+00 6.6913447908260837e-01 4.2000000000000000e+03 6.0000000000000000e+00 1.8000000000000000e+01 2.5000000000000000e+00 
88 2 4 2.2559723595316457e+00 8.4347589841246351e-01 4.2000000000000000e+03 8.0000000000000000e+00 1.4000000000000000e+01 2.5000000000000000e+00 
89 2 4 2.2559723595316457e+00 2.4009438129569342e-02 4.2000000000000000e+03 8.0000000000000000e+00 1.6000000000000000e+01 2.5000000000000000e+00 
90 2 4 2.2559723595316457e+00 -3.6496376864533725e-01 4.2000000000000000e+03 8.0000000000000000e+00 1.8000000000000000e+01 2.5000000000000000e+00 
108 2 4 2.2559723595316457e+00 -4.8056736183647166e+02 4.2000000000000000e+03 1.0000000000000000e+01 1.4000000000000000e+01 2.5000000000000000e+00 
109 2 4 2.2559723595316457e+00 -4.8073952092583039e+02 4.2000000000000000e+03 1.0000000000000000e+01 1.6000000000000000e+01 2.5000000000000000e+00 
110 2 4 2.2559723595316457e+00 -4.8112283892526932e+02 4.2000000000000000e+03 1.0000000000000000e+01 1.8000000000000000e+01 2.5000000000000000e+00 
128 2 4 2.2559723595316457e+00 -5.2177502629227320e+03 4.2000000000000000e+03 1.2000000000000000e+01 1.4000000000000000e+01 2.5000000000000000e+00 
129 2 4 2.2559723595316457e+00 -5.2361934352604167e+03 4.2000000000000000e+03 1.2000000000000000e+01 1.6000000000000000e+01 2.5000000000000000e+00 
130 2 4 2.2559723595316457e+00 -5.2333758697552621e+03 4.2000000000000000e+03 1.2000000000000000e+01 1.8000000000000000e+01 2.5000000000000000e+00 
148 2 4 2.2559723595316457e+00 -1.8537704113619442e+04 4.2000000000000000e+03 1.4000000000000000e+01 1.4000000000000000e+01 2.5000000000000000e+00 
149 2 4 2.2559723595316457e+00 -1.8697265975252383e+04 4.2000000000000000e+03 1.4000000000000000e+01 1.6000000000000000e+01 2.5000000000000000e+00 
150 2 4 2.2559723595316457e+00 -1.8680765204813415e+04 4.2000000000000000e+03 1.4000000000000000e+01 1.8000000000000000e+01 2.5000000000000000e+00 
168 2 4 2.2559723595316457e+00 -3.8305867912663154e+04 4.2000000000000000e+03 1.6000000000000000e+01 1.4000000000000000e+01 2.5000000000000000e+00 
169 2 4 2.2559723595316457e+00 -3.8768006140910489e+04 4.2000000000000000e+03 1.6000000000000000e+01 1.6000000000000000e+01 2.5000000000000000e+00 
170 2 4 2.2559723595316457e+00 -3.8732285079512199e+04 4.2000000000000000e+03 1.6000000000000000e+01 1.8000000000000000e+01 2.5000000000000000e+00 
188 2 4 2.2559723595316457e+00 -5.4013191296390731e+04 4.2000000000000000e+03 1.8000000000000000e+01 1.4000000000000000e+01 2.5000000000000000e+00 
189 2 4 2.2559723595316457e+00 -5.4713373532786849e+04 4.2000000000000000e+03 1.8000000000000000e+01 1.6000000000000000e+01 2.5000000000000000e+00 
190 2 4 2.2559723595316457e+00 -5.4672211848990170e+04 4.2000000000000000e+03 1.8000000000000000e+01 1.8000000000000000e+01 2.5000000000000000e+00 
579 181 2 1.0279937867614504e+00 3.0946690572083376e+03 4.2000000000000000e+03 6.5878496604574655e-01 6.2998173527130810e+00 1.5414153747968957e+01 
1246 848 2 1.0279938087575093e+00 5.1952574076056204e+04 4.2000000000000000e+03 3.6876640717597869e-01 5.9200164731869416e+00 1.5513747637557056e+01 
838 440 2 1.0279967831840711e+00 -2.1987929403239068e+04 4.2000000000000000e+03 3.4966187851324582e-01 5.7790607011840951e+00 1.5571406942934489e+01 
888 490 2 1.0279986700341532e+00 4.1093090265894843e+03 4.2000000000000000e+03 8.7619342631018682e-01 5.5400974032998107e+00 1.5781599915948350e+01 
702 304 2 1.0279952992271093e+00 -7.7489392209774978e+03 4.2000000000000000e+03 1.1215254828945587e+00 5.5532252134913502e+00 1.5827160695075866e+01 
1375 977 2 1.0279983073443826e+00 -1.0016401471672956e+04 4.2000000000000000e+03 2.7512906004670694e+00 6.2721942080802107e+00 1.5975846384049644e+01 
1886 1488 2 1.0279977035752605e+00 -6.5822389872418535e+03 4.2000000000000000e+03 2.0470196606621860e+00 2.1400064301171232e-01 1.6332096619637934e+01 
669 271 2 1.0279973883719762e+00 3.3469571641712726e+04 4.2000000000000000e+03 1.6522539734251349e+00 4.0533832957586508e-01 1.6366113322454201e+01 
832 434 2 1.0279905253256982e+00 -1.3221348832184483e+04 4.2000000000000000e+03 8.1219205744548884e-01 3.7285591771438100e+00 1.6784169008806209e+01 
709 311 2 1.0279974860249561e+00 1.1396108392391692e+04 4.2000000000000000e+03 4.9625861665979780e+00 1.9980780993413105e+00 1.8303105803612713e+01 
1939 1541 2 1.0280128485019369e+00 2.3345600087039547e+04 4.2000000000000000e+03 3.9756997620107857e+00 3.6382188872539460e+00 1.8666178245480332e+01 
1529 1131 2 1.0279871587152651e+00 1.7014784187205922e+04 4.2000000000000000e+03 3.5164070729542054e+00 3.1447340298497073e+00 1.8600128854317227e+01 
655 257 2 1.0279957635071841e+00 -4.5550049813206053e+04 4.2000000000000000e+03 6.3976636859576095e+00 1.1433294799280811e+00 1.8107290571907978e+01 
955 557 2 1.0279996410118115e+00 -1.2113528647526771e+04 4.2000000000000000e+03 1.2160512928711652e+01 1.9945817187817769e+00 1.8378529561736656e+01 
1673 1275 2 1.0279975098192811e+00 3.3358690822836829e+03 4.2000000000000000e+03 1.1347922783700193e+01 9.8087445525863248e-01 1.8340277396075521e+01 
740 342 2 1.0279984051398392e+00 2.8144392940324364e+04 4.2000000000000000e+03 1.0953593563534957e+01 1.4352214340346041e+00 1.8287626541442481e+01 
1426 1028 2 1.0279955498905136e+00 -6.3557742005040282e+03 4.2000000000000000e+03 1.0804919317576328e+01 1.1761142579512971e+00 1.8301753794906233e+01 
1209 811 2 1.0279956418051714e+00 1.6050885978838682e+04 4.2000000000000000e+03 1.0844989501691519e+01 1.2643496916176453e+00 1.8295618921797409e+01 
1934 1536 2 1.0279942727184368e+00 1.0072708432856720e+04 4.2000000000000000e+03 1.0414732568481352e+01 1.0646885455644823e+00 1.8303470136175164e+01 
517 119 2 1.0280041241335982e+00 3.3246726551326406e+04 4.2000000000000000e+03 9.1994714781571396e+00 1.9302891803169071e+00 1.8188850559477441e+01 
1027 629 2 1.0279995401708089e+00 -2.0543688198617270e+04 4.2000000000000000e+03 8.7389703850422542e+00 3.8852759560329337e+00 1.8245853511405077e+01 
1930 1532 2 1.0280000607390529e+00 2.0281765908370595e+04 4.2000000000000000e+03 7.8371580523081787e+00 1.8353255083183257e+00 1.8213549626957853e+01 
1919 1521 2 1.0280018783714442e+00 1.9316347201713761e+04 4.2000000000000000e+03 8.2971374353194403e+00 5.3322316309150652e+00 1.8453406709648117e+01 
1587 1189 2 1.0279973470025376e+00 -1.4631560860570986e+04 4.2000000000000000e+03 7.3211356457517800e+00 6.1477352900330438e+00 1.8403322506510332e+01 
2039 1641 2 1.0279969160247373e+00 3.2093412188495306e+04 4.2000000000000000e+03 7.2245808382911756e+00 6.2187991919011729e+00 1.8375971703387240e+01 
866 468 2 1.0279922648489459e+00 -3.0121654692211428e+04 4.2000000000000000e+03 6.6779373315700115e+00 6.3840468873121681e-01 1.8097140655001382e+01 
1006 608 2 1.0279984840636442e+00 8.1750828093243092e+02 4.2000000000000000e+03 6.8946938482339419e+00 5.9193112042780980e+00 1.8298991219320584e+01 
873 475 2 1.0280002368094889e+00 1.5444952604353064e+04 4.2000000000000000e+03 7.8327564763773196e+00 5.1950803102115470e+00 1.8428523194722828e+01 
992 594 2 1.0280040867007476e+00 1.3373471885237026e+04 4.2000000000000000e+03 7.7232034601892980e+00 4.8877378101798739e+00 1.8408183417394877e+01 
405 7 2 1.0280019223231256e+00 1.7001844687880995e+04 4.2000000000000000e+03 7.5286816657091071e+00 5.4892016028057116e+00 1.8429768920964978e+01 
1821 1423 2 1.0280041063242567e+00 -1.5646513054579971e+03 4.2000000000000000e+03 7.0032911944309673e+00 3.6697188937707801e+00 1.8431863821340130e+01 
531 133 2 1.0280036593471977e+00 2.0870853498276610e+04 4.2000000000000000e+03 6.9252153743970348e+00 4.1551192906275931e+00 1.8455534570203049e+01 
1046 648 2 1.0279952002727613e+00 -5.4099685988266256e+03 4.2000000000000000e+03 9.6685662189254096e+00 1.2837015911895644e-01 1.8463378933836129e+01 
1202 804 2 1.0279974322223140e+00 -4.4404961754321666e+04 4.2000000000000000e+03 9.9046584678277156e+00 9.5390889949380255e-03 1.8475212251528660e+01 
1486 1088 2 1.0280008926065181e+00 -2.5857932847045704e+03 4.2000000000000000e+03 1.6366013267326416e+01 4.9483284649594932e+00 1.7982037189382531e+01 
446 48 2 1.0279991778820405e+00 4.2262624665926278e+03 4.2000000000000000e+03 1.6747436452032900e+01 4.5058147308025278e+00 1.7949848504022391e+01 
556 158 2 1.0280016879717522e+00 3.9992259201883768e+04 4.2000000000000000e+03 1.7675469281783453e+01 4.7138667304510227e+00 1.7864860889191984e+01 
766 368 2 1.0280027685633899e+00 -1.2323033754256710e+04 4.2000000000000000e+03 1.6291165278901865e+01 4.7918655675813335e+00 1.7998472894417130e+01 
1606 1208 2 1.0280037189610440e+00 -1.2370463468745558e+04 4.2000000000000000e+03 1.6136503908225293e+01 4.6406726446123221e+00 1.8036202121974195e+01 
1575 1177 2 1.0280086221677818e+00 1.8309229679859927e+04 4.2000000000000000e+03 1.7698289834328659e+01 3.9803097810171000e+00 1.7952422570413262e+01 
1071 673 2 1.0280105772819319e+00 1.8736614672362550e+04 4.2000000000000000e+03 1.8465457032492221e+01 6.4468566989561884e+00 1.7942777067126173e+01 
1506 1108 2 1.0280004093412491e+00 1.0768374510952233e+04 4.2000000000000000e+03 1.5406189442100699e+01 4.5030316889250139e+00 1.8219570116624269e+01 
1580 1182 2 1.0280008804991991e+00 2.8146309556323780e+04 4.2000000000000000e+03 1.4899478978159916e+01 4.2677672370655690e+00 1.8378665444139497e+01 
1020 622 2 1.0279983717464303e+00 4.6726115881451762e+04 4.2000000000000000e+03 1.5275095885659473e+01 5.5706256336290476e+00 1.8283920141075939e+01 
1726 1328 2 1.0279931753476681e+00 -3.1740369078963515e+04 4.2000000000000000e+03 1.4317673865259017e+01 6.3698735386617154e+00 1.8774467492076482e+01 
447 49 2 1.0279841527852933e+00 4.3091605274613812e+03 4.2000000000000000e+03 1.6037497854181606e+01 2.4149499645585619e+00 1.8759121804375756e+01 
1458 1060 2 1.0279962155482998e+00 -1.1908333078102516e+04 4.2000000000000000e+03 1.3707685885715190e+01 6.0843284461472926e+00 1.8875184712752237e+01 
678 280 2 1.0280116302894504e+00 -2.3510667821677136e+04 4.2000000000000000e+03 1.7468858099462469e+01 1.2701964012673996e+00 1.8842707876362848e+01 
679 281 2 1.0279904583483230e+00 -2.3539369879686579e+04 4.2000000000000000e+03 1.7369068973576589e+01 8.7960986628764370e-01 1.9035256151841491e+01 
423 25 2 1.0280092983881628e+00 1.0117205476627043e+04 4.2000000000000000e+03 1.8391533375226285e+01 1.7083104433712970e+00 1.9076673609081691e+01 
1370 972 2 1.0280050419222995e+00 -4.4293453979984261e+04 4.2000000000000000e+03 1.4360165399118779e+01 4.9585653858845768e+00 1.9521209495009192e+01 
1958 1560 2 1.0279996493627805e+00 4.1871500663140960e+03 4.2000000000000000e+03 1.6079133903543578e+01 1.0537136981761953e-01 1.9174133707939362e+01 
1571 1173 2 1.0279973941344764e+00 3.9884956266981303e+03 4.2000000000000000e+03 4.5571996747813737e-01 6.9897135083785651e+00 1.5208031932914425e+01 
1468 1070 2 1.0279949116185512e+00 3.3804502256638596e+04 4.2000000000000000e+03 2.7968858976103355e+00 8.2716299339965040e+00 1.5681544214952666e+01 
947 549 2 1.0279962794654900e+00 -3.5650598394917877e+04 4.2000000000000000e+03 2.4841462074731209e+00 8.7451272325950757e+00 1.5684806718043051e+01 
643 245 2 1.0280005105426260e+00 -1.9579038407645621e+04 4.2000000000000000e+03 3.1092993275628378e+00 7.6726272103268016e+00 1.5776889382295206e+01 
1188 790 2 1.0279957214852666e+00 -4.8175793457847561e+02 4.2000000000000000e+03 2.8410156352818818e+00 8.5193361936015179e+00 1.5748328330965837e+01 
764 366 2 1.0279998257053213e+00 2.1385454067645769e+04 4.2000000000000000e+03 3.3545411731529331e+00 7.7095107428817462e+00 1.5890949126690327e+01 
1482 1084 2 1.0279950067974859e+00 -9.6546028726927234e+03 4.2000000000000000e+03 2.4059463155449037e+00 9.2817216953915267e+00 1.5874295716452531e+01 
1344 946 2 1.0279936851795914e+00 5.9778170080031387e+03 4.2000000000000000e+03 2.4037574214240065e+00 9.3866430360833295e+00 1.5925166287694102e+01 
915 517 2 1.0279955092422379e+00 -2.9982556343227129e+03 4.2000000000000000e+03 3.9569514258564324e+00 8.0215389836469146e+00 1.6232769561695889e+01 
1421 1023 2 1.0279948467755353e+00 2.2755979909026606e+04 4.2000000000000000e+03 2.6101245002357989e+00 9.5602493827420805e+00 1.6082810437618765e+01 
1981 1583 2 1.0279917109398671e+00 5.6575659250438839e+03 4.2000000000000000e+03 2.6379423066483114e+00 9.8971315884497901e+00 1.6287827439982866e+01 
1702 1304 2 1.0279909019184001e+00 -1.8238847402753119e+04 4.2000000000000000e+03 3.1130017515023667e+00 9.7324029012384656e+00 1.6377316219913624e+01 
1897 1499 2 1.0279940376750523e+00 6.5100460666778017e+04 4.2000000000000000e+03 3.5975460798425125e+00 1.0689127610888818e+01 1.7212748684402047e+01 
1602 1204 2 1.0279933209809466e+00 -1.1467856914254577e+04 4.2000000000000000e+03 3.8136622585120783e+00 1.0684236487380327e+01 1.7326576437962817e+01 
1403 1005 2 1.0279903734987905e+00 -1.2414949278259646e+04 4.2000000000000000e+03 4.9096398091286142e+00 1.0367605138025279e+01 1.7807777694242510e+01 
1208 810 2 1.0279973707702048e+00 7.5959315887915927e+03 4.2000000000000000e+03 2.7734049004473507e+00 1.1700990306294027e+01 1.7474837168673609e+01 
1260 862 2 1.0279931942354721e+00 -1.0386688169434277e+04 4.2000000000000000e+03 4.3968003435093923e+00 1.2155531115525731e+01 1.8484231610008518e+01 
1387 989 2 1.0279920796580948e+00 -1.7863937706263197e+04 4.2000000000000000e+03 5.4854888459160478e-01 1.2020243444824400e+01 1.7564373905427669e+01 
1467 1069 2 1.0279933031547601e+00 1.3350050169205400e+04 4.2000000000000000e+03 5.6628333842046663e+00 9.4579303478692847e+00 1.7850855801971928e+01 
940 542 2 1.0279972679629499e+00 1.8154296122803324e+04 4.2000000000000000e+03 1.1919215240480867e+01 9.6892496615118375e+00 1.9121570267238258e+01 
685 287 2 1.0279901196466645e+00 1.0346881315362456e+04 4.2000000000000000e+03 1.0503489103155509e+01 1.1338052988148393e+01 1.9151971800071408e+01 
804 406 2 1.0279932309872770e+00 2.5919965521966660e+04 4.2000000000000000e+03 1.0472873260291305e+01 1.0712786026783693e+01 1.9240906335242702e+01 
974 576 2 1.0279899660522098e+00 -1.1353243505199152e+03 4.2000000000000000e+03 1.0656271508663265e+01 9.5741093378370437e+00 1.9418413720053390e+01 
1436 1038 2 1.0279931332095702e+00 -6.0502312640229984e+03 4.2000000000000000e+03 9.8383015549474120e+00 1.1351919614528416e+01 1.9357373760977808e+01 
1211 813 2 1.0279933271156925e+00 -1.6704873268017334e+04 4.2000000000000000e+03 9.5752023345011832e+00 1.2762848189526506e+01 1.9363990532747394e+01 
896 498 2 1.0279972518047258e+00 1.9130190928597283e+04 4.2000000000000000e+03 1.1541960782172831e+01 7.2186195529212807e+00 1.9240552763406118e+01 
1693 1295 2 1.0280004914149872e+00 1.3774780081509056e+04 4.2000000000000000e+03 9.3630778425115686e+00 7.1930994720084325e+00 1.9141918827285728e+01 
623 225 2 1.0279992827670974e+00 -2.6021509179101817e+04 4.2000000000000000e+03 9.9000089146047632e+00 7.1576068231958825e+00 1.9180752683465268e+01 
1263 865 2 1.0279952374447729e+00 -5.6950489047667281e+04 4.2000000000000000e+03 9.8233585574749060e+00 7.2946128030272508e+00 1.9233948970641570e+01 
1286 888 2 1.0279566343312860e+00 -2.4473001676299129e+04 4.2000000000000000e+03 1.3191331891473114e+01 7.1212711570016962e+00 1.9345997916120616e+01 
1847 1449 2 1.0280759519455640e+00 -2.4364660598040817e+04 4.2000000000000000e+03 1.3125413448691644e+01 7.1208806083376066e+00 1.9535909032582659e+01 
1017 619 2 1.0279991660210532e+00 4.7008258074037105e+04 4.2000000000000000e+03 1.9788007564790817e+01 9.5909510478120303e+00 1.8299776391300302e+01 
1993 1595 2 1.0279997402241108e+00 -2.4758220805578909e+04 4.2000000000000000e+03 1.3886927088153728e+01 9.9797742539416507e+00 1.8902993816050202e+01 
2065 1667 2 1.0279883368737006e+00 4.0240222384425200e+04 4.2000000000000000e+03 1.8221066215588166e+01 8.0408404371944666e+00 1.8611750829383791e+01 
1959 1561 2 1.0280126947394075e+00 4.6441173983138287e+03 4.2000000000000000e+03 1.6943528068646973e+01 8.5347552046103488e+00 1.8929893867831094e+01 
1152 754 2 1.0279946029289548e+00 -5.7670569560090644e+02 4.2000000000000000e+03 1.4063445720375496e+01 1.2220347068733282e+01 1.9209697522850302e+01 
430 32 2 1.0279981584852100e+00 3.1627499331453346e+04 4.2000000000000000e+03 1.3807953643762499e+01 1.2514653769098270e+01 1.9246885657150518e+01 
1280 882 2 1.0280033937399744e+00 -1.5036059501201458e+04 4.2000000000000000e+03 1.6477861559897732e+01 7.9420306202998896e+00 1.9078497277600626e+01 
1277 879 2 1.0280064143861165e+00 -1.5049067591634845e+04 4.2000000000000000e+03 1.6846777335590172e+01 8.9453296689117501e+00 1.9014018006673229e+01 
1537 1139 2 1.0279971912048869e+00 5.5745229450405772e+04 4.2000000000000000e+03 1.4429446448242709e+01 1.2650519516638587e+01 1.9422787645114731e+01 
409 11 2 1.0279924788569310e+00 3.2622129516215355e+04 4.2000000000000000e+03 1.4017240002191107e+01 1.3022262953564388e+01 1.9473493397552069e+01 
843 445 2 1.0279921090783470e+00 -8.1582319334679016e+02 4.2000000000000000e+03 1.4306053990332723e+01 1.3220835725898059e+01 1.9629793108462916e+01 
922 524 2 1.0279999728924987e+00 -6.4239925585623068e+03 4.2000000000000000e+03 1.4026393596286807e+01 7.8196868848625005e+00 1.9465703614274698e+01 
897 499 2 1.0279940698285330e+00 5.9999801629615595e+03 4.2000000000000000e+03 1.4227853987508164e+01 1.3276425848267227e+01 1.9637088535236106e+01 
1471 1073 2 1.0280093366632339e+00 2.0953800320434213e+04 4.2000000000000000e+03 1.6163326990831081e+01 8.2674709005220528e+00 1.9192442617045014e+01 
1967 1569 2 1.0279858941429802e+00 -1.0684651237946453e+03 4.2000000000000000e+03 1.9909229875833493e+01 1.1233025061093727e+01 1.9047748211656035e+01 
1727 1329 2 1.0279937330688971e+00 -3.1544599551761894e+04 4.2000000000000000e+03 1.9929663585833339e+01 1.1338472309185736e+01 1.9165495259606683e+01 