LAMMPS data file via write_data, version 30 Jul 2016, timestep = 600000

2080 atoms
8 atom types

0.0000000000000000e+00 4.0000000000000000e+01 xlo xhi
0.0000000000000000e+00 4.0000000000000000e+01 ylo yhi
0.0000000000000000e+00 1.0000000000000000e+02 zlo zhi

Masses

1 3.896
2 16.08
3 1058.08
4 8.378
5 8.378
6 8.378
7 8.378
8 8.378

Atoms # meso-molecular

1 2 4 2.2559723595316457e+00 6.6284063594943632e+00 4.2000000000000000e+03 0.0000000000000000e+00 0.0000000000000000e+00 2.5000000000000000e+00 
2 2 4 2.2559723595316457e+00 7.4590956527073793e+00 4.2000000000000000e+03 0.0000000000000000e+00 2.0000000000000000e+00 2.5000000000000000e+00 
3 2 4 2.2559723595316457e+00 6.6996986719367673e+00 4.2000000000000000e+03 0.0000000000000000e+00 4.0000000000000000e+00 2.5000000000000000e+00 
4 2 4 2.2559723622806360e+00 9.6299680988312009e-01 4.2000000000000000e+03 0.0000000000000000e+00 6.0000000000000000e+00 2.5000000000000000e+00 
21 2 4 2.2559723600408179e+00 2.0588088590224936e+00 4.2000000000000000e+03 2.0000000000000000e+00 0.0000000000000000e+00 2.5000000000000000e+00 
22 2 4 2.2559723595316457e+00 1.1718504156132203e+00 4.2000000000000000e+03 2.0000000000000000e+00 2.0000000000000000e+00 2.5000000000000000e+00 
23 2 4 2.2559723595316457e+00 2.2877039927073461e+00 4.2000000000000000e+03 2.0000000000000000e+00 4.0000000000000000e+00 2.5000000000000000e+00 
24 2 4 2.2559723595316457e+00 9.7003382346614675e-01 4.2000000000000000e+03 2.0000000000000000e+00 6.0000000000000000e+00 2.5000000000000000e+00 
41 2 4 2.2559727225241240e+00 1.5256757187652343e+00 4.2000000000000000e+03 4.0000000000000000e+00 0.0000000000000000e+00 2.5000000000000000e+00 
42 2 4 2.2559723595316457e+00 -6.1171881533357109e-01 4.2000000000000000e+03 4.0000000000000000e+00 2.0000000000000000e+00 2.5000000000000000e+00 
43 2 4 2.2559723595316457e+00 4.8414238910997498e-01 4.2000000000000000e+03 4.0000000000000000e+00 4.0000000000000000e+00 2.5000000000000000e+00 
44 2 4 2.2559723595316457e+00 1.2079654896434042e+00 4.2000000000000000e+03 4.0000000000000000e+00 6.0000000000000000e+00 2.5000000000000000e+00 
61 2 4 2.2559723595316457e+00 6.9964368341040384e-01 4.2000000000000000e+03 6.0000000000000000e+00 0.0000000000000000e+00 2.5000000000000000e+00 
62 2 4 2.2559723595316457e+00 4.7287319374089187e-01 4.2000000000000000e+03 6.0000000000000000e+00 2.0000000000000000e+00 2.5000000000000000e+00 
63 2 4 2.2559723595316457e+00 2.9296723564983729e-01 4.2000000000000000e+03 6.0000000000000000e+00 4.0000000000000000e+00 2.5000000000000000e+00 
64 2 4 2.2559723595316457e+00 8.8912624362118065e-01 4.2000000000000000e+03 6.0000000000000000e+00 6.0000000000000000e+00 2.5000000000000000e+00 
81 2 4 2.2559723595316457e+00 7.3177243490982335e-01 4.2000000000000000e+03 8.0000000000000000e+00 0.0000000000000000e+00 2.5000000000000000e+00 
82 2 4 2.2559723595316457e+00 1.1054244468434615e+00 4.2000000000000000e+03 8.0000000000000000e+00 2.0000000000000000e+00 2.5000000000000000e+00 
83 2 4 2.2559723595316457e+00 6.6577071971768986e-01 4.2000000000000000e+03 8.0000000000000000e+00 4.0000000000000000e+00 2.5000000000000000e+00 
84 2 4 2.2559723595316457e+00 1.1156625903217832e+00 4.2000000000000000e+03 8.0000000000000000e+00 6.0000000000000000e+00 2.5000000000000000e+00 
101 2 4 2.2559723595316457e+00 6.5285538701851986e-01 4.2000000000000000e+03 1.0000000000000000e+01 0.0000000000000000e+00 2.5000000000000000e+00 
102 2 4 2.2559723595316457e+00 9.2462207751168535e-01 4.2000000000000000e+03 1.0000000000000000e+01 2.0000000000000000e+00 2.5000000000000000e+00 
103 2 4 2.2559723595316457e+00 7.2831477670391975e-01 4.2000000000000000e+03 1.0000000000000000e+01 4.0000000000000000e+00 2.5000000000000000e+00 
104 2 4 2.2559723595316457e+00 -7.4579295018687848e+00 4.2000000000000000e+03 1.0000000000000000e+01 6.0000000000000000e+00 2.5000000000000000e+00 
121 2 4 2.2559723595316457e+00 6.0376632876755854e-01 4.2000000000000000e+03 1.2000000000000000e+01 0.0000000000000000e+00 2.5000000000000000e+00 
122 2 4 2.2559723595316457e+00 9.8774175296416900e-01 4.2000000000000000e+03 1.2000000000000000e+01 2.0000000000000000e+00 2.5000000000000000e+00 
123 2 4 2.2559723595316457e+00 -7.4770317737154901e+00 4.2000000000000000e+03 1.2000000000000000e+01 4.0000000000000000e+00 2.5000000000000000e+00 
124 2 4 2.2559723595316457e+00 -3.5869645009024134e+02 4.2000000000000000e+03 1.2000000000000000e+01 6.0000000000000000e+00 2.5000000000000000e+00 
141 2 4 2.2559723595316457e+00 8.6073429755597264e-01 4.2000000000000000e+03 1.4000000000000000e+01 0.0000000000000000e+00 2.5000000000000000e+00 
142 2 4 2.2559723595316457e+00 9.2193876395400398e-01 4.2000000000000000e+03 1.4000000000000000e+01 2.0000000000000000e+00 2.5000000000000000e+00 
143 2 4 2.2559723595143271e+00 -1.2727475614823913e+02 4.2000000000000000e+03 1.4000000000000000e+01 4.0000000000000000e+00 2.5000000000000000e+00 
144 2 4 2.2559723595316457e+00 -1.6301616465844784e+03 4.2000000000000000e+03 1.4000000000000000e+01 6.0000000000000000e+00 2.5000000000000000e+00 
161 2 4 2.2559723595316457e+00 6.8479459705239631e-01 4.2000000000000000e+03 1.6000000000000000e+01 0.0000000000000000e+00 2.5000000000000000e+00 
162 2 4 2.2559723595316457e+00 7.9716307263237562e-01 4.2000000000000000e+03 1.6000000000000000e+01 2.0000000000000000e+00 2.5000000000000000e+00 
163 2 4 2.2559723595683798e+00 -3.4173877877564183e+02 4.2000000000000000e+03 1.6000000000000000e+01 4.0000000000000000e+00 2.5000000000000000e+00 
164 2 4 2.2559723595316457e+00 -3.4962876464943420e+03 4.2000000000000000e+03 1.6000000000000000e+01 6.0000000000000000e+00 2.5000000000000000e+00 
181 2 4 2.2559723595316457e+00 4.2201181071915694e-01 4.2000000000000000e+03 1.8000000000000000e+01 0.0000000000000000e+00 2.5000000000000000e+00 
182 2 4 2.2559723595316457e+00 4.9412305700871550e-01 4.2000000000000000e+03 1.8000000000000000e+01 2.0000000000000000e+00 2.5000000000000000e+00 
183 2 4 2.2559723595316457e+00 -4.7167422681312382e+02 4.2000000000000000e+03 1.8000000000000000e+01 4.0000000000000000e+00 2.5000000000000000e+00 
184 2 4 2.2559723595316457e+00 -4.8263738446847519e+03 4.2000000000000000e+03 1.8000000000000000e+01 6.0000000000000000e+00 2.5000000000000000e+00 
5 2 4 2.2559723595316457e+00 7.7746309981525497e-01 4.2000000000000000e+03 0.0000000000000000e+00 8.0000000000000000e+00 2.5000000000000000e+00 
6 2 4 2.2559723595316457e+00 9.0128691850623366e-01 4.2000000000000000e+03 0.0000000000000000e+00 1.0000000000000000e+01 2.5000000000000000e+00 
7 2 4 2.2559723595316457e+00 1.1652776131397182e+00 4.2000000000000000e+03 0.0000000000000000e+00 1.2000000000000000e+01 2.5000000000000000e+00 
25 2 4 2.2559723595316457e+00 9.4776152488580678e-01 4.2000000000000000e+03 2.0000000000000000e+00 8.0000000000000000e+00 2.5000000000000000e+00 
26 2 4 2.2559723595316457e+00 1.1573768449210995e+00 4.2000000000000000e+03 2.0000000000000000e+00 1.0000000000000000e+01 2.5000000000000000e+00 
27 2 4 2.2559723595316457e+00 1.0955488038469188e+00 4.2000000000000000e+03 2.0000000000000000e+00 1.2000000000000000e+01 2.5000000000000000e+00 
45 2 4 2.2559723595316457e+00 1.2948075974025457e+00 4.2000000000000000e+03 4.0000000000000000e+00 8.0000000000000000e+00 2.5000000000000000e+00 
46 2 4 2.2559723595316457e+00 1.0357871826456866e+00 4.2000000000000000e+03 4.0000000000000000e+00 1.0000000000000000e+01 2.5000000000000000e+00 
47 2 4 2.2559723595316457e+00 9.3409144000020583e-01 4.2000000000000000e+03 4.0000000000000000e+00 1.2000000000000000e+01 2.5000000000000000e+00 
65 2 4 2.2559723595316457e+00 1.1457684354349129e+00 4.2000000000000000e+03 6.0000000000000000e+00 8.0000000000000000e+00 2.5000000000000000e+00 
66 2 4 2.2559723595316457e+00 1.0435395974810788e+00 4.2000000000000000e+03 6.0000000000000000e+00 1.0000000000000000e+01 2.5000000000000000e+00 
67 2 4 2.2559723595316457e+00 9.9647310102076414e-01 4.2000000000000000e+03 6.0000000000000000e+00 1.2000000000000000e+01 2.5000000000000000e+00 
85 2 4 2.2559723595316457e+00 1.0278905037555592e+00 4.2000000000000000e+03 8.0000000000000000e+00 8.0000000000000000e+00 2.5000000000000000e+00 
86 2 4 2.2559723595316457e+00 1.1225325388265741e+00 4.2000000000000000e+03 8.0000000000000000e+00 1.0000000000000000e+01 2.5000000000000000e+00 
87 2 4 2.2559723595316457e+00 1.2162290823758295e+00 4.2000000000000000e+03 8.0000000000000000e+00 1.2000000000000000e+01 2.5000000000000000e+00 
105 2 4 2.2559723595316457e+00 -1.2869754077711298e+02 4.2000000000000000e+03 1.0000000000000000e+01 8.0000000000000000e+00 2.5000000000000000e+00 
106 2 4 2.2559723595316457e+00 -3.4007172280980780e+02 4.2000000000000000e+03 1.0000000000000000e+01 1.0000000000000000e+01 2.5000000000000000e+00 
107 2 4 2.2559723595316457e+00 -4.6624210864791564e+02 4.2000000000000000e+03 1.0000000000000000e+01 1.2000000000000000e+01 2.5000000000000000e+00 
125 2 4 2.2559723595316457e+00 -1.6347422016065045e+03 4.2000000000000000e+03 1.2000000000000000e+01 8.0000000000000000e+00 2.5000000000000000e+00 
126 2 4 2.2559723595316457e+00 -3.4956282635466323e+03 4.2000000000000000e+03 1.2000000000000000e+01 1.0000000000000000e+01 2.5000000000000000e+00 
127 2 4 2.2559723595316457e+00 -4.8241584142261636e+03 4.2000000000000000e+03 1.2000000000000000e+01 1.2000000000000000e+01 2.5000000000000000e+00 
145 2 4 2.2559723595316457e+00 -5.9768784060817970e+03 4.2000000000000000e+03 1.4000000000000000e+01 8.0000000000000000e+00 2.5000000000000000e+00 
146 2 4 2.2559724087141046e+00 -1.2096324121809221e+04 4.2000000000000000e+03 1.4000000000000000e+01 1.0000000000000000e+01 2.5000000000000000e+00 
147 2 4 2.2559724195110595e+00 -1.6803435876952881e+04 4.2000000000000000e+03 1.4000000000000000e+01 1.2000000000000000e+01 2.5000000000000000e+00 
165 2 4 2.2559723595316457e+00 -1.2107462294272573e+04 4.2000000000000000e+03 1.6000000000000000e+01 8.0000000000000000e+00 2.5000000000000000e+00 
166 2 4 2.2559723595316115e+00 -2.4391562346405401e+04 4.2000000000000000e+03 1.6000000000000000e+01 1.0000000000000000e+01 2.5000000000000000e+00 
167 2 4 2.2559723595853023e+00 -3.4314316692907087e+04 4.2000000000000000e+03 1.6000000000000000e+01 1.2000000000000000e+01 2.5000000000000000e+00 
185 2 4 2.2559723595316457e+00 -1.6679826197669096e+04 4.2000000000000000e+03 1.8000000000000000e+01 8.0000000000000000e+00 2.5000000000000000e+00 
186 2 4 2.2559723595316457e+00 -3.3874026783960711e+04 4.2000000000000000e+03 1.8000000000000000e+01 1.0000000000000000e+01 2.5000000000000000e+00 
187 2 4 2.2559723595316457e+00 -4.8129688653379999e+04 4.2000000000000000e+03 1.8000000000000000e+01 1.2000000000000000e+01 2.5000000000000000e+00 
8 2 4 2.2559723595316457e+00 1.6715447878980114e+00 4.2000000000000000e+03 0.0000000000000000e+00 1.4000000000000000e+01 2.5000000000000000e+00 
9 2 4 2.2559723595316457e+00 7.9840065588138520e-01 4.2000000000000000e+03 0.0000000000000000e+00 1.6000000000000000e+01 2.5000000000000000e+00 
10 2 4 2.2559723595316457e+00 -2.7058986261324253e-01 4.2000000000000000e+03 0.0000000000000000e+00 1.8000000000000000e+01 2.5000000000000000e+00 
28 2 4 2.2559723595316457e+00 1.2779407596490673e+00 4.2000000000000000e+03 2.0000000000000000e+00 1.4000000000000000e+01 2.5000000000000000e+00 
29 2 4 2.2559723595316457e+00 1.3899086220490835e+00 4.2000000000000000e+03 2.0000000000000000e+00 1.6000000000000000e+01 2.5000000000000000e+00 
30 2 4 2.2559723595316457e+00 7.0301991274736597e-01 4.2000000000000000e+03 2.0000000000000000e+00 1.8000000000000000e+01 2.5000000000000000e+00 
48 2 4 2.2559723595316457e+00 1.3071303127190967e+00 4.2000000000000000e+03 4.0000000000000000e+00 1.4000000000000000e+01 2.5000000000000000e+00 
49 2 4 2.2559723595316457e+00 1.8600748692515725e+00 4.2000000000000000e+03 4.0000000000000000e+00 1.6000000000000000e+01 2.5000000000000000e+00 
50 2 4 2.2559723595316457e+00 1.4429294426572241e+00 4.2000000000000000e+03 4.0000000000000000e+00 1.8000000000000000e+01 2.5000000000000000e+00 
68 2 4 2.2559723595316457e+00 1.0245685762770615e+00 4.2000000000000000e+03 6.0000000000000000e+00 1.4000000000000000e+01 2.5000000000000000e+00 
69 2 4 2.2559723595316457e+00 9.8690360167053681e-01 4.2000000000000000e+03 6.0000000000000000e+00 1.6000000000000000e+01 2.5000000000000000e+00 
70 2 4 2.2559723595316457e+00 6.7434010876841866e-01 4.2000000000000000e+03 6.0000000000000000e+00 1.8000000000000000e+01 2.5000000000000000e+00 
88 2 4 2.2559723595316457e+00 8.4367147536492570e-01 4.2000000000000000e+03 8.0000000000000000e+00 1.4000000000000000e+01 2.5000000000000000e+00 
89 2 4 2.2559723595316457e+00 2.4027845851585738e-02 4.2000000000000000e+03 8.0000000000000000e+00 1.6000000000000000e+01 2.5000000000000000e+00 
90 2 4 2.2559723603540838e+00 -3.5629904649618238e-01 4.2000000000000000e+03 8.0000000000000000e+00 1.8000000000000000e+01 2.5000000000000000e+00 
108 2 4 2.2559723595381413e+00 -4.8056719258075492e+02 4.2000000000000000e+03 1.0000000000000000e+01 1.4000000000000000e+01 2.5000000000000000e+00 
109 2 4 2.2559723632071269e+00 -4.8070657930203765e+02 4.2000000000000000e+03 1.0000000000000000e+01 1.6000000000000000e+01 2.5000000000000000e+00 
110 2 4 2.2559723734734871e+00 -4.8102874602553624e+02 4.2000000000000000e+03 1.0000000000000000e+01 1.8000000000000000e+01 2.5000000000000000e+00 
128 2 4 2.2559723614790528e+00 -5.2177309969866192e+03 4.2000000000000000e+03 1.2000000000000000e+01 1.4000000000000000e+01 2.5000000000000000e+00 
129 2 4 2.2559724581125518e+00 -5.2357552313973756e+03 4.2000000000000000e+03 1.2000000000000000e+01 1.6000000000000000e+01 2.5000000000000000e+00 
130 2 4 2.2559729367974652e+00 -5.2318090967805301e+03 4.2000000000000000e+03 1.2000000000000000e+01 1.8000000000000000e+01 2.5000000000000000e+00 
148 2 4 2.2559723595316457e+00 -1.8537704115518707e+04 4.2000000000000000e+03 1.4000000000000000e+01 1.4000000000000000e+01 2.5000000000000000e+00 
149 2 4 2.2559723595316457e+00 -1.8697265975252383e+04 4.2000000000000000e+03 1.4000000000000000e+01 1.6000000000000000e+01 2.5000000000000000e+00 
150 2 4 2.2559723596192058e+00 -1.8680763030291713e+04 4.2000000000000000e+03 1.4000000000000000e+01 1.8000000000000000e+01 2.5000000000000000e+00 
168 2 4 2.2559723595316457e+00 -3.8305867912663154e+04 4.2000000000000000e+03 1.6000000000000000e+01 1.4000000000000000e+01 2.5000000000000000e+00 
169 2 4 2.2559723595316457e+00 -3.8768006140910489e+04 4.2000000000000000e+03 1.6000000000000000e+01 1.6000000000000000e+01 2.5000000000000000e+00 
170 2 4 2.2559723595316457e+00 -3.8732285079512199e+04 4.2000000000000000e+03 1.6000000000000000e+01 1.8000000000000000e+01 2.5000000000000000e+00 
188 2 4 2.2559723595316457e+00 -5.4013191296390731e+04 4.2000000000000000e+03 1.8000000000000000e+01 1.4000000000000000e+01 2.5000000000000000e+00 
189 2 4 2.2559723595316457e+00 -5.4713373532786849e+04 4.2000000000000000e+03 1.8000000000000000e+01 1.6000000000000000e+01 2.5000000000000000e+00 
190 2 4 2.2559723704544865e+00 -5.4672140593195567e+04 4.2000000000000000e+03 1.8000000000000000e+01 1.8000000000000000e+01 2.5000000000000000e+00 
625 227 2 1.0276433194029146e+00 5.1715066964517255e+03 4.2000000000000000e+03 3.5743566644322673e+00 7.7312636249553665e-03 1.1368036932602664e+01 
1905 1507 2 1.0304147997447981e+00 6.0785227952640880e+03 4.2000000000000000e+03 3.5287091761268323e+00 2.4493543999372028e-01 1.1455164958018187e+01 
1195 797 2 1.0300237468597009e+00 -8.0781755197204664e+04 4.2000000000000000e+03 3.8192833601319820e+00 8.8009416139740715e-01 1.1594607329668079e+01 
1570 1172 2 1.0300090983044767e+00 4.0932376796203353e+03 4.2000000000000000e+03 4.8847958301927461e+00 1.2999588520328285e+00 1.1683237584843043e+01 
606 208 2 1.0261668681886864e+00 -1.3349789271186026e+04 4.2000000000000000e+03 2.2208124341393738e+00 6.4517511205232592e-01 1.1616312759146735e+01 
1375 977 2 1.0266848726127049e+00 -1.0030674971363222e+04 4.2000000000000000e+03 2.7159354082462692e+00 5.8803738238503751e+00 1.1682679798518183e+01 
1011 613 2 1.0255154197543292e+00 6.3143548729754393e+03 4.2000000000000000e+03 4.6164808624003859e+00 6.6745890360370919e-01 1.1462142330220587e+01 
572 174 2 1.0257189113749174e+00 -2.5970522385387769e+04 4.2000000000000000e+03 4.2376461016036284e+00 4.7141508925598752e-01 1.1424211818801414e+01 
1886 1488 2 1.0253808239725213e+00 -6.5966350434879741e+03 4.2000000000000000e+03 2.4289126741992741e+00 8.7876138852250818e-01 1.1635638777909699e+01 
1000 602 2 1.0291147384660495e+00 2.8894872739921793e+04 4.2000000000000000e+03 6.1167503942610875e+00 1.1002368374283213e+00 1.1637842598896317e+01 
669 271 2 1.0231749847432732e+00 3.3454030355795876e+04 4.2000000000000000e+03 2.1472082340828864e+00 5.3640378014910217e-01 1.1565057954403269e+01 
579 181 2 1.0249460079446244e+00 3.0767324637133274e+03 4.2000000000000000e+03 2.3912168036908552e-01 5.6895464865702969e+00 1.1420745149245473e+01 
1550 1152 2 1.0249136147439180e+00 -5.3058205273547237e+03 4.2000000000000000e+03 2.7096045086395506e+00 1.8989309241653127e-01 1.1454193754064375e+01 
1426 1028 2 1.0281291081635135e+00 -6.3539960153038483e+03 4.2000000000000000e+03 1.3011987850307316e+01 4.0330675094115798e-01 1.1970258508106911e+01 
1027 629 2 1.0265189444962943e+00 -2.0544330433181396e+04 4.2000000000000000e+03 1.0505097050967883e+01 3.1718258264860335e+00 1.2036477936440653e+01 
517 119 2 1.0254613465775841e+00 3.3239707792784568e+04 4.2000000000000000e+03 1.1002295442208181e+01 3.7496684059805148e+00 1.1902702489837482e+01 
1821 1423 2 1.0231478001259287e+00 -1.5681820452447996e+03 4.2000000000000000e+03 8.8224436996191269e+00 4.8683285207350560e+00 1.1900261607527021e+01 
531 133 2 1.0258373656065751e+00 2.0867788837613458e+04 4.2000000000000000e+03 8.6632799599150587e+00 4.8183664923869447e+00 1.1943302308690921e+01 
866 468 2 1.0290143789412034e+00 -3.0124997691823879e+04 4.2000000000000000e+03 8.3040070768520025e+00 9.4511609091914461e-01 1.1875276618882829e+01 
1930 1532 2 1.0358899780724655e+00 2.0281564799639327e+04 4.2000000000000000e+03 8.8177857498001018e+00 1.4970375218100413e+00 1.2117019224414678e+01 
992 594 2 1.0300631614167910e+00 1.3373228637700788e+04 4.2000000000000000e+03 8.8871414844003667e+00 4.4872387493847210e+00 1.2028119677224320e+01 
405 7 2 1.0295798424338680e+00 1.7001633474304523e+04 4.2000000000000000e+03 8.5992234806311156e+00 4.7146286801459301e+00 1.2003069751187141e+01 
1006 608 2 1.0234836952032347e+00 8.1740446712865332e+02 4.2000000000000000e+03 8.3115453952204454e+00 4.9960006668034360e+00 1.1903770064239376e+01 
1587 1189 2 1.0262672843019931e+00 -1.4632726617289774e+04 4.2000000000000000e+03 8.4989343547961642e+00 4.8394647940300777e+00 1.1951081352570281e+01 
2039 1641 2 1.0256005981522234e+00 3.2092952739474065e+04 4.2000000000000000e+03 8.4678909500608093e+00 4.9146936785894058e+00 1.1933446430780414e+01 
1919 1521 2 1.0335064482012426e+00 1.9315405289647402e+04 4.2000000000000000e+03 9.4005111324379556e+00 4.0846847493952945e+00 1.2092387747698741e+01 
655 257 2 1.0290782883577807e+00 -4.5554087133732886e+04 4.2000000000000000e+03 7.1402165339732422e+00 1.2708340622993344e+00 1.1749945690981406e+01 
1445 1047 2 1.0300388283345179e+00 1.2125057752658993e+04 4.2000000000000000e+03 1.2989396862770660e+01 3.3392590946949108e+00 1.2032210555446241e+01 
873 475 2 1.0259899706744779e+00 1.5439650343592300e+04 4.2000000000000000e+03 1.0103336083446711e+01 6.1378193631335458e+00 1.1717642779681752e+01 
1209 811 2 1.0284155770102847e+00 1.6051936245441908e+04 4.2000000000000000e+03 1.3128155297036164e+01 3.0356258567627520e-01 1.1920622667070223e+01 
740 342 2 1.0290240734710177e+00 2.8144184232330863e+04 4.2000000000000000e+03 1.3314373287102079e+01 4.3694449830768595e-01 1.1940709304713588e+01 
556 158 2 1.0268355573815071e+00 3.9982442326774712e+04 4.2000000000000000e+03 1.9189855848344386e+01 4.1525579565557420e+00 1.1746680238475548e+01 
1847 1449 2 1.0176045560114619e+00 -2.4397598713360545e+04 4.2000000000000000e+03 1.4726423564348513e+01 4.0583019338744348e+00 1.1457370194600539e+01 
1580 1182 2 1.0262285517347109e+00 2.8127516184650314e+04 4.2000000000000000e+03 1.6712504896561335e+01 3.1193672981796334e+00 1.1498721574031551e+01 
1370 972 2 1.0317303869231611e+00 -4.4298529943107635e+04 4.2000000000000000e+03 1.4424515500820645e+01 4.1720832224801878e+00 1.1716384607117911e+01 
1606 1208 2 1.0225759812075979e+00 -1.2378432611588447e+04 4.2000000000000000e+03 1.5891592392665068e+01 4.4491088378532631e+00 1.1468530516118305e+01 
766 368 2 1.0269894732704283e+00 -1.2332182764615072e+04 4.2000000000000000e+03 1.6100034813093849e+01 4.3883241356561316e+00 1.1529988967904076e+01 
1506 1108 2 1.0290215782500964e+00 1.0758734346231566e+04 4.2000000000000000e+03 1.5613534321187952e+01 3.7111041470020596e+00 1.1602771067662383e+01 
678 280 2 1.0346184976602735e+00 -2.3521135483473339e+04 4.2000000000000000e+03 1.8671644846043304e+01 2.1307277682992029e-01 1.1563502872542315e+01 
1486 1088 2 1.0219925223467869e+00 -2.5949415604661631e+03 4.2000000000000000e+03 1.5969774262324520e+01 4.4856390565558257e+00 1.1459454314874700e+01 
955 557 2 1.0310683065558430e+00 -1.2116356444387915e+04 4.2000000000000000e+03 1.4131864814050653e+01 8.7797760480797382e-01 1.1979166918651700e+01 
446 48 2 1.0316638238616533e+00 4.2152857197164803e+03 4.2000000000000000e+03 1.7663321327923544e+01 3.0840137160921564e+00 1.1565361843979986e+01 
1575 1177 2 1.0339023752872458e+00 1.8296941373808622e+04 4.2000000000000000e+03 1.8491325745764822e+01 2.8553365529185344e+00 1.1650046212058443e+01 
1441 1043 2 1.0236267390204665e+00 1.7709810280620350e+04 4.2000000000000000e+03 1.6421398998906049e+01 1.3811569500341017e+00 1.1606811998264002e+01 
1458 1060 2 1.0365149732473995e+00 -1.1917959641121228e+04 4.2000000000000000e+03 1.5154825635695090e+01 6.2078828687992891e+00 1.2138784551262571e+01 
447 49 2 1.0300070201890623e+00 4.2990311116677249e+03 4.2000000000000000e+03 1.7581664199111124e+01 1.6082845572682898e+00 1.1601362661738433e+01 
1179 781 2 1.0228337901659892e+00 -2.4573530906911892e+04 4.2000000000000000e+03 1.6741998733109170e+01 3.5943151289953035e-01 1.1582110490483062e+01 
1020 622 2 1.0357703958562365e+00 4.6713108404126520e+04 4.2000000000000000e+03 1.5352692830340368e+01 5.9515274684026949e+00 1.2065025806042323e+01 
1726 1328 2 1.0291331424698174e+00 -3.1758986424314822e+04 4.2000000000000000e+03 1.5306825895021923e+01 6.2617142780371289e+00 1.1831973209226055e+01 
1071 673 2 1.0257923815343553e+00 1.8714880134618681e+04 4.2000000000000000e+03 1.8895893203359776e+01 6.2629546965600014e+00 1.1873558874364504e+01 
643 245 2 1.0303651245527257e+00 -1.9582185590539946e+04 4.2000000000000000e+03 3.5182079873745762e+00 6.7476598411144844e+00 1.1774695266299982e+01 
1188 790 2 1.0277938039275756e+00 -4.8324979168624390e+02 4.2000000000000000e+03 2.6679774295838348e+00 7.7805987306893689e+00 1.1886331192151056e+01 
1460 1062 2 1.0250955930048500e+00 1.2272004647102052e+04 4.2000000000000000e+03 5.6452744913700545e+00 1.2195281110088521e+01 1.2891344875211045e+01 
1897 1499 2 1.0312315333243005e+00 6.5093150605816758e+04 4.2000000000000000e+03 3.2470689420374903e+00 9.9065626917148766e+00 1.2968308136891793e+01 
1208 810 2 1.0300872482608903e+00 7.5899014337237641e+03 4.2000000000000000e+03 4.2783879812675565e+00 1.0058375699764785e+01 1.2504713181962741e+01 
1260 862 2 1.0255254220085597e+00 -1.0392618186609276e+04 4.2000000000000000e+03 5.5609867171061813e+00 1.0017892669786393e+01 1.2123020015090827e+01 
1702 1304 2 1.0250345753260885e+00 -1.8241668031791141e+04 4.2000000000000000e+03 3.2078900569852928e+00 9.1445639508576413e+00 1.2387131523906222e+01 
1602 1204 2 1.0258790619921589e+00 -1.1468695729489222e+04 4.2000000000000000e+03 5.2208745293651848e+00 9.3948841337728517e+00 1.1959738707614481e+01 
1981 1583 2 1.0253040715785573e+00 5.6563206609554700e+03 4.2000000000000000e+03 3.6039364690285893e+00 9.0217500747253165e+00 1.2178916861171366e+01 
1421 1023 2 1.0238081128568348e+00 2.2755395018236999e+04 4.2000000000000000e+03 3.5078669263361872e+00 8.7726116377689642e+00 1.2077908067545025e+01 
1344 946 2 1.0242141145292596e+00 5.9778401339720449e+03 4.2000000000000000e+03 3.7829652618197986e+00 8.6368728297086541e+00 1.1966894487246570e+01 
1482 1084 2 1.0241958519884193e+00 -9.6544215568020863e+03 4.2000000000000000e+03 3.7761625460906640e+00 8.5713376555442000e+00 1.1946365736963841e+01 
947 549 2 1.0248804940815499e+00 -3.5649644130694200e+04 4.2000000000000000e+03 3.9341202275823592e+00 8.3156620449141307e+00 1.1857132392459290e+01 
915 517 2 1.0236901810855965e+00 -2.9968008880837183e+03 4.2000000000000000e+03 5.2984604730470988e+00 8.4434051385521478e+00 1.1720313369376825e+01 
764 366 2 1.0303622792411555e+00 2.1384214344745888e+04 4.2000000000000000e+03 4.0220191330087518e+00 6.8693593429746391e+00 1.1794270318061089e+01 
1403 1005 2 1.0239653481324491e+00 -1.2415592645101686e+04 4.2000000000000000e+03 6.5324113810290436e+00 9.2924244322364355e+00 1.1809575371267750e+01 
1468 1070 2 1.0368551759975750e+00 3.3806090775092547e+04 4.2000000000000000e+03 3.0643420460133779e+00 9.8190474439916748e+00 1.3101080469497129e+01 
500 102 2 1.0358396036824864e+00 5.1334944790578720e+03 4.2000000000000000e+03 7.3530742508665989e+00 1.1399015043460496e+01 1.2908359793122333e+01 
804 406 2 1.0300674084029786e+00 2.5903187480956538e+04 4.2000000000000000e+03 1.2219169858084243e+01 8.6356255397406940e+00 1.1636664629044503e+01 
974 576 2 1.0304456138765683e+00 -1.1491129718284315e+03 4.2000000000000000e+03 1.2077203990660969e+01 9.6981859415403164e+00 1.1753974552707085e+01 
1467 1069 2 1.0302586667804534e+00 1.3340627756693679e+04 4.2000000000000000e+03 8.9827394210647569e+00 7.9304450717227182e+00 1.1778516804246854e+01 
1693 1295 2 1.0244522796095969e+00 1.3765004321542188e+04 4.2000000000000000e+03 1.0484213770361416e+01 8.3959670747195414e+00 1.1858967044639192e+01 
1263 865 2 1.0278487024512757e+00 -5.6962095800532734e+04 4.2000000000000000e+03 1.0899417075378498e+01 8.5869455515695758e+00 1.1902942779910823e+01 
623 225 2 1.0259661173011643e+00 -2.6033618829582341e+04 4.2000000000000000e+03 1.0928894419482658e+01 8.5748246148035783e+00 1.1860636032661867e+01 
896 498 2 1.0259358128904230e+00 1.9115610730504093e+04 4.2000000000000000e+03 1.1209989078372777e+01 8.7233914406242814e+00 1.1827947724262177e+01 
1537 1139 2 1.0282378117570028e+00 5.5742036298576546e+04 4.2000000000000000e+03 1.3242534721059508e+01 1.2617672188045093e+01 1.1429099799524202e+01 
685 287 2 1.0236239441898674e+00 1.0328431906355670e+04 4.2000000000000000e+03 1.1247785200607808e+01 1.1471250494217912e+01 1.2012139928370868e+01 
940 542 2 1.0270395445224854e+00 1.8132847810995841e+04 4.2000000000000000e+03 1.1514402827697062e+01 1.1166419933539869e+01 1.1939877899017473e+01 
1211 813 2 1.0186302164262468e+00 -1.6728453898092586e+04 4.2000000000000000e+03 1.0733058556941137e+01 1.2641721601331238e+01 1.2085743582326632e+01 
1950 1552 2 1.0379496824486500e+00 1.4850553992940700e+04 4.2000000000000000e+03 1.1106093759350861e+01 1.1306386100274139e+01 1.2871955967384743e+01 
1436 1038 2 1.0189152117588056e+00 -6.0647725913064060e+03 4.2000000000000000e+03 1.0237187846102477e+01 1.1072620545468764e+01 1.2758868891580615e+01 
1286 888 2 1.0280255143638057e+00 -2.4485633552977761e+04 4.2000000000000000e+03 1.3543324173057238e+01 7.3882825035040991e+00 1.1492414365057133e+01 
1466 1068 2 1.0447501319235413e+00 1.3464571979511546e+04 4.2000000000000000e+03 1.9419042501358920e+01 9.4526799817649412e+00 1.2213085378103012e+01 
922 524 2 1.0295123204187222e+00 -6.4379013909028563e+03 4.2000000000000000e+03 1.3816224155697329e+01 7.6803165419896935e+00 1.1539494554652745e+01 
2065 1667 2 1.0195904888462317e+00 4.0229596332130168e+04 4.2000000000000000e+03 1.7823416141199996e+01 8.5093602224832132e+00 1.1604476601858881e+01 
1959 1561 2 1.0209030376023025e+00 4.6290775516098147e+03 4.2000000000000000e+03 1.7494668062987046e+01 7.9265435517286251e+00 1.1721148108814795e+01 
1277 879 2 1.0263399240463966e+00 -1.5055412268655007e+04 4.2000000000000000e+03 1.6129481843678590e+01 8.3493343350532250e+00 1.1693765816239837e+01 
1471 1073 2 1.0257203798065992e+00 2.0947700534425887e+04 4.2000000000000000e+03 1.5500334221694889e+01 7.9424559046591749e+00 1.1698572412542031e+01 
1280 882 2 1.0313061281499905e+00 -1.5041057136436724e+04 4.2000000000000000e+03 1.5722658724167015e+01 8.4761471299960984e+00 1.1724635231363019e+01 
1170 772 2 1.0426677818750245e+00 -5.6650930439497468e+04 4.2000000000000000e+03 1.9518920568579095e+01 1.1578509531733536e+01 1.2681589655009519e+01 
1757 1359 2 1.0204992375153379e+00 2.0097247930793721e+04 4.2000000000000000e+03 1.9924384322866153e+01 1.2256005977568591e+01 1.1582124545320625e+01 
1993 1595 2 1.0241567962497129e+00 -2.4765957286327521e+04 4.2000000000000000e+03 1.4390784078973498e+01 9.7631936401803454e+00 1.1343403555010759e+01 
774 376 2 1.0264026546837992e+00 -2.7988267039883682e+04 4.2000000000000000e+03 1.7630985742068102e+01 1.2240134296287485e+01 1.1719942090189868e+01 
656 258 2 1.0438771430988956e+00 6.1502043269387277e+03 4.2000000000000000e+03 1.5878137469556163e+01 1.2463614118557077e+01 1.2036247253927192e+01 
1152 754 2 1.0219143270594822e+00 -5.7866643645895954e+02 4.2000000000000000e+03 1.4448366261981663e+01 1.1906435276921888e+01 1.1336581262572835e+01 
1967 1569 2 1.0387936352756388e+00 -1.0708789414690120e+03 4.2000000000000000e+03 1.8543723194127967e+01 1.1318323233606691e+01 1.1809729273089989e+01 
430 32 2 1.0239521846162540e+00 3.1624620397428425e+04 4.2000000000000000e+03 1.4630303885955362e+01 1.2236835839730595e+01 1.1418384463521585e+01 
1727 1329 2 1.0329844449698420e+00 -3.1549111997016786e+04 4.2000000000000000e+03 1.8297545679497123e+01 1.1528849512052608e+01 1.1706785072197491e+01 
546 148 2 1.0296602138780582e+00 1.7700377599733678e+04 4.2000000000000000e+03 1.9945879495093966e+01 1.2605367450000701e+01 1.1780408615632812e+01 