LAMMPS data file via write_data, version 30 Jul 2016, timestep = 50000000

180 atoms
2 atom types

0.0000000000000000e+00 2.0000000000000000e+01 xlo xhi
0.0000000000000000e+00 2.0000000000000000e+01 ylo yhi
0.0000000000000000e+00 2.0000000000000000e+01 zlo zhi

Masses

1 3.896
2 4.31

Atoms # meso-molecular

1 1 2 4.3521309693160926e-01 -1.8029271981300611e+07 1.0000000000000000e+00 5.9446068240133272e+00 1.9652632156895342e+00 8.4436345083388975e-01 
7 1 2 4.3521309693160926e-01 -1.3247599947411362e+07 1.0000000000000000e+00 5.9446068240133458e+00 1.9652632156895466e+00 8.4436345083389974e-01 
37 1 2 4.3521309693160926e-01 -1.5754751202976707e+07 1.0000000000000000e+00 5.9446068240133085e+00 1.9652632156895342e+00 8.4436345083387976e-01 
8 1 2 1.0280000039420520e+00 -1.8981783827034358e+07 1.0000000000000000e+00 6.0427049641819517e+00 3.6457481750516560e+00 6.1918812672195136e+00 
38 1 2 1.0280000039671515e+00 -1.8614609458147936e+07 1.0000000000000000e+00 6.0275344797147659e+00 3.6058043028311584e+00 6.1987992113959525e+00 
45 1 2 1.0280000039629582e+00 -1.7991062553439002e+07 1.0000000000000000e+00 6.0483952648468389e+00 3.6124897008337395e+00 6.2072794110325429e+00 
2 1 2 1.0280000039656383e+00 -1.6533286096270768e+07 1.0000000000000000e+00 6.0205241756552281e+00 3.6010505307773335e+00 6.1972491200093556e+00 
14 1 2 4.3521309693160926e-01 -1.8023849426585790e+07 1.0000000000000000e+00 5.1103046815984463e+00 9.7899138057366741e+00 5.2164299574806359e+00 
21 1 2 4.3521309693160926e-01 -1.2834808756054306e+07 1.0000000000000000e+00 5.1103046815984463e+00 9.7899138057365072e+00 5.2164299574807158e+00 
20 1 2 4.3521309693160926e-01 -1.6050990715843042e+07 1.0000000000000000e+00 5.1103046815983912e+00 9.7899138057366670e+00 5.2164299574807957e+00 
3 1 2 1.0280000000106237e+00 -1.8455975882354110e+07 1.0000000000000000e+00 5.4341628801462196e+00 3.3014070601518530e+00 6.9698872439368449e+00 
9 1 2 1.0279999960341886e+00 -1.9097529883485645e+07 1.0000000000000000e+00 5.4890193558588436e+00 4.2576297138986643e+00 7.3470620394557518e+00 
10 1 2 1.0279999960329571e+00 -1.6888055166427422e+07 1.0000000000000000e+00 5.4887906702276545e+00 4.2575685026061727e+00 7.3470115182522084e+00 
15 1 2 1.0279999960337711e+00 -1.9008863592424445e+07 1.0000000000000000e+00 5.4887698633867297e+00 4.2574591797511125e+00 7.3470835662361909e+00 
16 1 2 1.0279999960357962e+00 -1.7011353585928079e+07 1.0000000000000000e+00 5.4887372269375954e+00 4.2574482952116348e+00 7.3470779304635840e+00 
18 1 2 4.3521309693160926e-01 -8.2586911691926140e+06 1.0000000000000000e+00 5.4116833677589939e+00 6.1845373122060110e+00 1.8213592359294140e+01 
12 1 2 4.3521309693160926e-01 -6.0215783498915536e+06 1.0000000000000000e+00 5.4116833677591867e+00 6.1845373122060749e+00 1.8213592359294349e+01 
13 1 2 4.3521309693160926e-01 -1.1970538496443009e+07 1.0000000000000000e+00 5.4116833677590694e+00 6.1845373122059470e+00 1.8213592359293600e+01 
25 1 2 1.0280000002701888e+00 -1.5900164555218052e+07 1.0000000000000000e+00 6.4855745907986284e+00 1.5443309801859058e+01 2.4248482575449288e+00 
31 1 2 1.0280000002886245e+00 -1.4539398334588587e+07 1.0000000000000000e+00 6.4727191751228963e+00 1.5474737566068921e+01 2.4742084653447076e+00 
32 1 2 1.0280000002896661e+00 -1.4729167392416149e+07 1.0000000000000000e+00 6.4716483461031737e+00 1.5478319152360587e+01 2.4803508121559648e+00 
68 1 2 1.0280000002911907e+00 -1.6777914990261596e+07 1.0000000000000000e+00 6.5270637420643771e+00 1.5542444693619563e+01 2.6102004108091257e+00 
67 1 2 1.0280000002908205e+00 -1.6557380716348287e+07 1.0000000000000000e+00 6.5278317973652085e+00 1.5542538648561727e+01 2.6104485261375348e+00 
26 1 2 1.0279999997426879e+00 -1.4928081182400461e+07 1.0000000000000000e+00 6.4541414358877951e+00 1.4002390168132468e+01 4.0285139562427430e+00 
27 1 2 1.0279999997424618e+00 -1.4814199768632874e+07 1.0000000000000000e+00 6.4541280700409960e+00 1.4002419837493465e+01 4.0285229230067428e+00 
63 1 2 1.0279999997422928e+00 -1.8581325368478846e+07 1.0000000000000000e+00 6.4541991625666961e+00 1.4002398017728947e+01 4.0285239848161885e+00 
62 1 2 1.0279999997431091e+00 -1.5866834333860938e+07 1.0000000000000000e+00 6.4542635356833893e+00 1.4002245820939232e+01 4.0284774396061103e+00 
34 1 2 7.2535516155268209e-01 -1.3045475127389906e+07 1.0000000000000000e+00 6.5323238344916934e+00 1.7278709975931530e+01 8.3191390604942530e+00 
70 1 2 7.2535516155268209e-01 -1.5784270772439905e+07 1.0000000000000000e+00 6.5323238344920158e+00 1.7278709975933385e+01 8.3191390604943258e+00 
33 1 2 7.2535516155268209e-01 -1.3434813925377749e+07 1.0000000000000000e+00 6.5323238344920158e+00 1.7278709975933385e+01 8.3191390604940523e+00 
69 1 2 7.2535516155268209e-01 -1.4515777741574835e+07 1.0000000000000000e+00 6.5323238344920158e+00 1.7278709975931640e+01 8.3191390604945639e+00 
39 1 2 7.2535516155268209e-01 -1.1378798568938613e+07 1.0000000000000000e+00 6.5323238344920158e+00 1.7278709975931640e+01 8.3191390604945639e+00 
22 1 2 2.9014206462107284e-01 -6.3234023852788974e+06 1.0000000000000000e+00 5.3043343317547755e+00 1.2463533616165579e+01 1.0679777421914380e+01 
28 1 2 2.9014206462107284e-01 -6.3347330210730294e+06 1.0000000000000000e+00 5.3043343317547960e+00 1.2463533616165538e+01 1.0679777421914340e+01 
66 1 2 1.0280000005215688e+00 -1.2845564342605436e+07 1.0000000000000000e+00 6.4217785671351928e+00 1.2596118057550024e+01 1.5593442306561796e+01 
72 1 2 1.0280000005203918e+00 -1.0732514511381669e+07 1.0000000000000000e+00 6.4217785661242379e+00 1.2596118057412713e+01 1.5593442305876676e+01 
65 1 2 1.0280000005223562e+00 -1.9039812780385148e+07 1.0000000000000000e+00 6.4217785705999608e+00 1.2596118057481409e+01 1.5593442310292973e+01 
30 1 2 1.0280000005226944e+00 -2.0120064520319380e+07 1.0000000000000000e+00 6.4217785709183461e+00 1.2596118057695987e+01 1.5593442310077766e+01 
29 1 2 1.0280000005228378e+00 -1.6655874472884106e+07 1.0000000000000000e+00 6.4217785723116556e+00 1.2596118057745485e+01 1.5593442311385560e+01 
24 1 2 1.0279999998539850e+00 -2.0061210603474084e+07 1.0000000000000000e+00 6.3397380754338473e+00 1.0756890103310619e+01 1.5225133118426914e+01 
71 1 2 1.0154970667833332e+00 -1.7006490815163683e+07 1.0000000000000000e+00 6.1706754804518473e+00 1.9319212925648976e+01 1.5121339947254853e+01 
41 1 2 1.0154968239358613e+00 -1.5170409252928225e+07 1.0000000000000000e+00 6.1710369665822116e+00 1.9317610706931461e+01 1.5121167988554248e+01 
42 1 2 1.0154971096663650e+00 -1.5657996263182551e+07 1.0000000000000000e+00 6.1709736754609041e+00 1.9318432578732182e+01 1.5121304447098249e+01 
6 1 2 1.0154970455114232e+00 -1.8527795090343900e+07 1.0000000000000000e+00 6.1705250460286116e+00 1.9319192376055696e+01 1.5121490845990825e+01 
5 1 2 1.0154971245525799e+00 -1.6100365220104735e+07 1.0000000000000000e+00 6.1707285614551930e+00 1.9318689313541125e+01 1.5120956389865427e+01 
36 1 2 1.0154971240937087e+00 -1.9113880413799129e+07 1.0000000000000000e+00 6.1705441541620223e+00 1.9318788988091644e+01 1.5121347622591937e+01 
35 1 2 1.0154971040529754e+00 -1.6222252537564775e+07 1.0000000000000000e+00 6.1707465326318509e+00 1.9318902299716793e+01 1.5120894228500623e+01 
43 1 2 1.0280000000008269e+00 -1.4835684316822730e+07 1.0000000000000000e+00 9.3956713846565201e+00 6.0720624107625527e+00 1.8097472192194912e+00 
44 1 2 1.0279999999897340e+00 -1.7619102155508522e+07 1.0000000000000000e+00 9.6254132265303518e+00 5.8667581048310042e+00 2.7729169257606596e+00 
49 1 2 1.0280000000023031e+00 -1.8693950629875578e+07 1.0000000000000000e+00 9.4436530498257714e+00 6.2360274523808474e+00 1.7175505741535708e+00 
80 1 2 1.0279999999905580e+00 -1.1209201152379408e+07 1.0000000000000000e+00 9.7534372819325803e+00 5.8194988259588065e+00 2.6919526636336664e+00 
79 1 2 1.0280000000021121e+00 -1.9282695015744325e+07 1.0000000000000000e+00 9.9240679456884919e+00 6.1961942650895310e+00 1.7432144476596365e+00 
85 1 2 1.0280000000033767e+00 -1.9192238818098102e+07 1.0000000000000000e+00 9.9038207343394866e+00 6.8400226409826894e+00 1.8754297902943871e+00 
50 1 2 1.0280000000044252e+00 -1.5995465436447266e+07 1.0000000000000000e+00 9.6591732885749870e+00 6.9020469912474258e+00 2.8686478927971524e+00 
86 1 2 1.0280000000046357e+00 -1.7598069116775248e+07 1.0000000000000000e+00 9.6660183028345461e+00 6.9008552665975325e+00 2.8699810900146296e+00 
56 1 2 1.0280000000044076e+00 -1.0317877091928679e+07 1.0000000000000000e+00 9.6555780068605230e+00 6.8873230431828976e+00 2.8826428157695134e+00 
74 1 2 4.3521309693160926e-01 -1.0227412287990015e+07 1.0000000000000000e+00 1.2255995412447016e+01 1.2520900242636253e+00 6.1716999623230162e+00 
75 1 2 4.3521309693160926e-01 -1.3323980891489595e+07 1.0000000000000000e+00 1.2255995412446978e+01 1.2520900242636299e+00 6.1716999623231761e+00 
111 1 2 4.3521309693160926e-01 -1.2354893570983194e+07 1.0000000000000000e+00 1.2255995412446941e+01 1.2520900242636346e+00 6.1716999623231157e+00 
51 1 2 8.7042619386321851e-01 -1.3263788488329258e+07 1.0000000000000000e+00 9.1083006054436577e+00 9.0705661504016764e+00 9.1148493887038295e+00 
57 1 2 8.7042619386321851e-01 -1.5511220821950495e+07 1.0000000000000000e+00 9.1083006054433095e+00 9.0705661504008788e+00 9.1148493887048563e+00 
58 1 2 8.7042619386321851e-01 -1.2481793773843490e+07 1.0000000000000000e+00 9.1083006054440041e+00 9.0705661504014863e+00 9.1148493887033375e+00 
87 1 2 8.7042619386321851e-01 -1.4412545760250051e+07 1.0000000000000000e+00 9.1083006054434676e+00 9.0705661504011506e+00 9.1148493887031705e+00 
52 1 2 8.7042619386321851e-01 -1.4701368587529738e+07 1.0000000000000000e+00 9.1083006054427447e+00 9.0705661504017758e+00 9.1148493887048421e+00 
94 1 2 8.7042619386321851e-01 -1.3948084752673157e+07 1.0000000000000000e+00 9.1083006054436790e+00 9.0705661504019304e+00 9.1148493887038793e+00 
40 1 2 4.3521309693160926e-01 -1.0688010301333653e+07 1.0000000000000000e+00 7.3735355573490589e+00 2.5981295607076480e+00 1.0785771651544932e+01 
46 1 2 4.3521309693160926e-01 -1.0173814456011392e+07 1.0000000000000000e+00 7.3735355573491139e+00 2.5981295607076387e+00 1.0785771651544900e+01 
4 1 2 4.3521309693160926e-01 -1.2943328356423721e+07 1.0000000000000000e+00 7.3735355573490589e+00 2.5981295607076293e+00 1.0785771651544900e+01 
76 1 2 1.0280000021715920e+00 -1.4497957280474655e+07 1.0000000000000000e+00 1.2617022431085097e+01 2.6324136559884752e+00 1.2547841638720207e+01 
77 1 2 1.0280000021747833e+00 -1.4276662487859806e+07 1.0000000000000000e+00 1.2617022430529623e+01 2.6324136554493345e+00 1.2547841639219735e+01 
82 1 2 1.0280000021705582e+00 -1.1583120012753010e+07 1.0000000000000000e+00 1.2617022431771444e+01 2.6324136568228629e+00 1.2547841638049281e+01 
112 1 2 1.0280000021746230e+00 -1.5513757258361531e+07 1.0000000000000000e+00 1.2616181485407816e+01 2.6331794287235071e+00 1.2547974984374772e+01 
119 1 2 1.0280000000021485e+00 -1.7659106693488527e+07 1.0000000000000000e+00 1.2464515062572028e+01 3.2776820721915847e+00 1.3333894034603876e+01 
47 1 2 4.3521309693160926e-01 -1.0670800798238439e+07 1.0000000000000000e+00 6.9420736426582019e+00 4.3104141058831935e+00 1.4605600002288979e+01 
48 1 2 4.3521309693160926e-01 -7.3868509634858686e+06 1.0000000000000000e+00 6.9420736426583618e+00 4.3104141058831749e+00 1.4605600002288941e+01 
11 1 2 4.3521309693160926e-01 -1.2113819455686502e+07 1.0000000000000000e+00 6.9420736426582819e+00 4.3104141058832122e+00 1.4605600002289016e+01 
90 1 2 5.8028412924214567e-01 -1.2619442263072679e+07 1.0000000000000000e+00 1.1979200418457346e+01 8.5565479734385335e+00 1.6379121668221888e+01 
96 1 2 5.8028412924214567e-01 -1.4181082277848789e+07 1.0000000000000000e+00 1.1979200418457060e+01 8.5565479734385335e+00 1.6379121668221828e+01 
126 1 2 5.8028412924214567e-01 -1.2775578993444901e+07 1.0000000000000000e+00 1.1979200418457156e+01 8.5565479734387182e+00 1.6379121668221828e+01 
89 1 2 5.8028412924214567e-01 -1.1774666677785823e+07 1.0000000000000000e+00 1.1979200418457063e+01 8.5565479734387182e+00 1.6379121668221888e+01 
91 1 2 1.4507103231053642e-01 1.0873477884933196e+06 1.0000000000000000e+00 1.2111462802974282e+01 1.0472895216776243e+01 3.5874503085715426e-01 
55 1 2 1.0279999999481499e+00 -1.5373146072206721e+07 1.0000000000000000e+00 6.7524775264969801e+00 1.3598124264196937e+01 2.7069158718308062e+00 
19 1 2 1.0279999999476042e+00 -1.4292244087378154e+07 1.0000000000000000e+00 6.7524775258327159e+00 1.3598124264085095e+01 2.7069158717273534e+00 
61 1 2 1.0279999999456564e+00 -1.3753022652707070e+07 1.0000000000000000e+00 6.7524775299726825e+00 1.3598124259866511e+01 2.7069158808443587e+00 
64 1 2 5.8028412924214567e-01 -1.5678053441975445e+07 1.0000000000000000e+00 1.0776427584027598e+01 1.2878614632033987e+01 1.2027982754996410e+01 
95 1 2 5.8028412924214567e-01 -1.1989132318845004e+07 1.0000000000000000e+00 1.0776427584027413e+01 1.2878614632034171e+01 1.2027982754996380e+01 
101 1 2 5.8028412924214567e-01 -1.7351898204965863e+07 1.0000000000000000e+00 1.0776427584027413e+01 1.2878614632034171e+01 1.2027982754996380e+01 
100 1 2 5.8028412924214567e-01 -1.6073438731422558e+07 1.0000000000000000e+00 1.0776427584027598e+01 1.2878614632033987e+01 1.2027982754996410e+01 
23 1 2 1.0279999997034146e+00 -1.4969743568326643e+07 1.0000000000000000e+00 7.1474957974175988e+00 1.0573625967151724e+01 1.4784942238338859e+01 
54 1 2 1.0279999997531026e+00 -1.7267214522740774e+07 1.0000000000000000e+00 7.5651721943320211e+00 1.0861174873039204e+01 1.5489275785434682e+01 
59 1 2 1.0279999995733449e+00 -1.6348281379599618e+07 1.0000000000000000e+00 7.3156115018737449e+00 1.0536371357179826e+01 1.5019152478074819e+01 
17 1 2 1.0279999995735560e+00 -1.6605147072943240e+07 1.0000000000000000e+00 7.3149802693185437e+00 1.0532601732575047e+01 1.5035806991992651e+01 
53 1 2 1.0279999995709104e+00 -1.3766556186929699e+07 1.0000000000000000e+00 7.3318767032488399e+00 1.0540048948895853e+01 1.5043265409239014e+01 
60 1 2 1.0279999998465208e+00 -1.8938292398618635e+07 1.0000000000000000e+00 6.9187715944548502e+00 1.2082802935620464e+01 1.4522719625079850e+01 
107 1 2 1.4507103231053642e-01 5.1266339934815676e+05 1.0000000000000000e+00 1.2400540767221724e+01 1.6979664086225540e+01 1.4325342513711155e+01 
102 1 2 7.2535516155268209e-01 -1.2230694071153933e+07 1.0000000000000000e+00 1.2731912192624652e+01 1.6343318491011452e+01 1.8636488616952029e+01 
103 1 2 7.2535516155268209e-01 -1.6599854665912475e+07 1.0000000000000000e+00 1.2731912192624844e+01 1.6343318491011821e+01 1.8636488616951063e+01 
139 1 2 7.2535516155268209e-01 -1.9160319408692561e+07 1.0000000000000000e+00 1.2731912192625257e+01 1.6343318491012511e+01 1.8636488616952029e+01 
144 1 2 7.2535516155268209e-01 -1.9345202846065231e+07 1.0000000000000000e+00 1.2731912192624909e+01 1.6343318491011182e+01 1.8636488616953109e+01 
108 1 2 7.2535516155268209e-01 -1.2422419754212817e+07 1.0000000000000000e+00 1.2731912192624652e+01 1.6343318491011452e+01 1.8636488616952029e+01 
116 1 2 7.2535516155268209e-01 -1.3537192668672560e+07 1.0000000000000000e+00 1.6780681608930674e+01 3.6546448880859050e+00 2.6782767982333384e+00 
115 1 2 7.2535516155268209e-01 -1.6017393599641206e+07 1.0000000000000000e+00 1.6780681608929733e+01 3.6546448880861924e+00 2.6782767982332008e+00 
145 1 2 7.2535516155268209e-01 -1.2699003441525731e+07 1.0000000000000000e+00 1.6780681608929953e+01 3.6546448880859694e+00 2.6782767982332429e+00 
151 1 2 7.2535516155268209e-01 -1.4732640286974687e+07 1.0000000000000000e+00 1.6780681608929953e+01 3.6546448880859694e+00 2.6782767982332429e+00 
152 1 2 7.2535516155268209e-01 -1.3825209312013093e+07 1.0000000000000000e+00 1.6780681608931435e+01 3.6546448880859050e+00 2.6782767982330795e+00 
121 1 2 7.2535516155268209e-01 -1.5841082044181859e+07 1.0000000000000000e+00 1.6151399933137029e+01 8.6798626117622693e+00 1.7064462907861508e+00 
163 1 2 7.2535516155268209e-01 -1.6138820827962918e+07 1.0000000000000000e+00 1.6151399933139025e+01 8.6798626117622693e+00 1.7064462907861508e+00 
127 1 2 7.2535516155268209e-01 -1.3972941450649790e+07 1.0000000000000000e+00 1.6151399933139906e+01 8.6798626117622693e+00 1.7064462907860845e+00 
157 1 2 7.2535516155268209e-01 -1.1571742262134064e+07 1.0000000000000000e+00 1.6151399933136755e+01 8.6798626117626849e+00 1.7064462907860949e+00 
158 1 2 7.2535516155268209e-01 -1.0050997441282099e+07 1.0000000000000000e+00 1.6151399933136755e+01 8.6798626117626849e+00 1.7064462907860949e+00 
147 1 2 2.9014206462107284e-01 -8.1077999954470424e+06 1.0000000000000000e+00 1.8168811377800377e+01 1.1252380766764820e+00 9.0201100805167851e+00 
148 1 2 2.9014206462107284e-01 -8.2852408858851483e+06 1.0000000000000000e+00 1.8168811377800296e+01 1.1252380766764820e+00 9.0201100805167442e+00 
159 1 2 1.0280000000006158e+00 -1.4627389393771194e+07 1.0000000000000000e+00 1.5825388509260561e+01 6.1741988107809052e+00 7.4004105160246381e+00 
123 1 2 1.0279999999988438e+00 -1.3628561685392819e+07 1.0000000000000000e+00 1.5825388509191423e+01 6.1741988107416974e+00 7.4004105159880016e+00 
122 1 2 1.0280000000009695e+00 -1.3663960928191375e+07 1.0000000000000000e+00 1.5825388509281190e+01 6.1741988108364332e+00 7.4004105160423874e+00 
153 1 2 1.0279999999993101e+00 -1.3252527133153275e+07 1.0000000000000000e+00 1.5825388509174095e+01 6.1741988107566446e+00 7.4004105159853770e+00 
117 1 2 1.0280000000006373e+00 -1.6791448287760075e+07 1.0000000000000000e+00 1.4536219249732659e+01 5.7797199206589793e+00 8.2795167990369372e+00 
118 1 2 1.0280000000001839e+00 -1.5781341284734922e+07 1.0000000000000000e+00 1.5057778170312641e+01 5.8693427049832136e+00 9.2203703505323880e+00 
81 1 2 1.0279999999991680e+00 -1.7094848205873765e+07 1.0000000000000000e+00 1.4584361681335354e+01 5.8297762182017498e+00 8.7828029205742801e+00 
160 1 2 1.0280000000001011e+00 -1.3614890156836655e+07 1.0000000000000000e+00 1.6258878065622064e+01 6.0940986824055781e+00 8.6481126941238280e+00 
124 1 2 1.0280000000006273e+00 -1.3748219945317337e+07 1.0000000000000000e+00 1.4992883591167661e+01 5.9656078966988044e+00 9.2054572811059021e+00 
154 1 2 1.0279999999996776e+00 -1.2895977925806388e+07 1.0000000000000000e+00 1.6269146149076899e+01 6.0332821612108658e+00 8.6309074827299863e+00 
88 1 2 1.0280000000010723e+00 -1.2114499254162086e+07 1.0000000000000000e+00 1.4698487092792540e+01 5.9719251341312534e+00 8.9925104224334156e+00 
165 1 2 2.9014206462107284e-01 -9.1238553049937468e+06 1.0000000000000000e+00 1.8586704432885970e+01 9.9560213543780591e+00 8.6074117690795315e+00 
166 1 2 2.9014206462107284e-01 -9.4411639940367807e+06 1.0000000000000000e+00 1.8586704432885970e+01 9.9560213543780591e+00 8.6074117690795315e+00 
120 1 2 1.0279999978248049e+00 -1.5204697112060778e+07 1.0000000000000000e+00 1.3371796822127269e+01 2.9716609004570391e+00 1.3707287004990521e+01 
84 1 2 1.0279999978295882e+00 -1.4234857295200959e+07 1.0000000000000000e+00 1.3371813039340244e+01 2.9716501681447678e+00 1.3707275943167723e+01 
83 1 2 1.0279999978266876e+00 -1.4327946927818486e+07 1.0000000000000000e+00 1.3371821227775341e+01 2.9716420780050528e+00 1.3707270873357494e+01 
113 1 2 1.0279999978265491e+00 -1.6807634245445736e+07 1.0000000000000000e+00 1.3373569287429012e+01 2.9698208876301417e+00 1.3706198620287759e+01 
149 1 2 2.9014206462107284e-01 -1.0151842424849987e+07 1.0000000000000000e+00 1.7953014710661186e+01 6.1692430243640184e-01 1.5108054932341975e+01 
150 1 2 2.9014206462107284e-01 -9.7495172842280082e+06 1.0000000000000000e+00 1.7953014710661268e+01 6.1692430243640439e-01 1.5108054932341975e+01 
155 1 2 7.2535516155268209e-01 -1.5578346478696091e+07 1.0000000000000000e+00 1.7155664972116565e+01 6.3680476818908378e+00 1.4662877679860239e+01 
156 1 2 7.2535516155268209e-01 -1.7841370131159872e+07 1.0000000000000000e+00 1.7155664972118753e+01 6.3680476818904594e+00 1.4662877679860946e+01 
161 1 2 7.2535516155268209e-01 -1.7117800199603785e+07 1.0000000000000000e+00 1.7155664972117055e+01 6.3680476818903653e+00 1.4662877679860562e+01 
162 1 2 7.2535516155268209e-01 -1.4602208223583572e+07 1.0000000000000000e+00 1.7155664972116565e+01 6.3680476818903369e+00 1.4662877679860946e+01 
125 1 2 7.2535516155268209e-01 -1.2564034999101762e+07 1.0000000000000000e+00 1.7155664972116714e+01 6.3680476818903369e+00 1.4662877679859891e+01 
110 1 2 7.2535516155268209e-01 -1.3228137580025315e+07 1.0000000000000000e+00 1.3424609232698046e+01 1.0196813701895460e+00 1.9763077553300473e+01 
114 1 2 7.2535516155268209e-01 -1.6160151792634729e+07 1.0000000000000000e+00 1.3424609232698046e+01 1.0196813701894125e+00 1.9763077553300157e+01 
78 1 2 7.2535516155268209e-01 -1.5802813926457498e+07 1.0000000000000000e+00 1.3424609232698046e+01 1.0196813701894125e+00 1.9763077553300157e+01 
73 1 2 7.2535516155268209e-01 -1.5761545744509382e+07 1.0000000000000000e+00 1.3424609232698046e+01 1.0196813701894705e+00 1.9763077553298633e+01 
109 1 2 7.2535516155268209e-01 -1.5372515995164309e+07 1.0000000000000000e+00 1.3424609232698323e+01 1.0196813701895040e+00 1.9763077553299905e+01 
169 1 2 2.9014206462107284e-01 -1.1866531018978525e+07 1.0000000000000000e+00 1.8263696735287077e+01 1.6038051789942230e+01 1.5242655363246844e+00 
175 1 2 2.9014206462107284e-01 -1.1625248365516789e+07 1.0000000000000000e+00 1.8263696735287077e+01 1.6038051789942230e+01 1.5242655363246844e+00 
129 1 2 1.0278980962873021e+00 -1.9512473292402592e+07 1.0000000000000000e+00 1.3603771250421199e+01 1.2028377228366768e+01 4.6988981316217417e+00 
134 1 2 1.0277270722372076e+00 -1.6468241197318153e+07 1.0000000000000000e+00 1.3589243576903884e+01 1.2029665475965764e+01 4.6980546004584181e+00 
171 1 2 1.0276025090427314e+00 -1.7151732086215377e+07 1.0000000000000000e+00 1.3595541503219772e+01 1.2030866810681818e+01 4.6939518947663563e+00 
164 1 2 1.0279203300274826e+00 -1.6127656660901861e+07 1.0000000000000000e+00 1.3598219822238342e+01 1.2030794506194656e+01 4.6965985556753855e+00 
170 1 2 1.0275950269726728e+00 -1.5053813857650952e+07 1.0000000000000000e+00 1.3590456150156527e+01 1.2029786504840475e+01 4.6963603638760416e+00 
135 1 2 1.0275610606310071e+00 -1.7578135051331636e+07 1.0000000000000000e+00 1.3591606650547060e+01 1.2029250516453525e+01 4.6965437713276552e+00 
93 1 2 1.0288575920463678e+00 -1.4667429610258518e+07 1.0000000000000000e+00 1.3525655499969128e+01 1.3076373856653031e+01 5.4285509555157452e+00 
97 1 2 1.0268889157655929e+00 -1.1717632141498500e+07 1.0000000000000000e+00 1.4141371168403438e+01 1.3809542450061734e+01 6.0164053035214948e+00 
92 1 2 1.0282460580182207e+00 -1.3981812631668732e+07 1.0000000000000000e+00 1.4024116852777068e+01 1.3849022491644057e+01 6.0140316913087766e+00 
98 1 2 1.0292862887974024e+00 -1.2664358555999305e+07 1.0000000000000000e+00 1.3961269620943947e+01 1.4562199779741292e+01 6.5039989473306257e+00 
133 1 2 1.0277695686493633e+00 -1.3909673895222915e+07 1.0000000000000000e+00 1.6005967946122940e+01 1.7201547436288060e+01 6.1655506020787607e+00 
140 1 2 1.0277532238574678e+00 -1.6948361012003146e+07 1.0000000000000000e+00 1.6002119523899569e+01 1.7501105914663167e+01 5.6561403050748194e+00 
141 1 2 1.0277532238574678e+00 -1.6160310597129827e+07 1.0000000000000000e+00 1.6002119523899569e+01 1.7501105914663167e+01 5.6561403050748194e+00 
104 1 2 1.0277532238574678e+00 -1.4284019931135407e+07 1.0000000000000000e+00 1.6002119523899569e+01 1.7501105914663167e+01 5.6561403050748194e+00 
176 1 2 1.0281175015774335e+00 -1.6914872007429074e+07 1.0000000000000000e+00 1.6059357898453744e+01 1.7512358768104576e+01 5.7123118199440768e+00 
177 1 2 1.0281175015774335e+00 -1.5770038888474582e+07 1.0000000000000000e+00 1.6059357898453744e+01 1.7512358768104576e+01 5.7123118199440768e+00 
146 1 2 1.0281175015774335e+00 -1.4473732756332653e+07 1.0000000000000000e+00 1.6059357898453744e+01 1.7512358768104576e+01 5.7123118199440768e+00 
128 1 2 1.0277778634961658e+00 -1.6982210086252723e+07 1.0000000000000000e+00 1.4748773969925400e+01 1.5171694984225038e+01 6.8602285517729733e+00 
142 1 2 1.0277347530495797e+00 -1.2038802736643912e+07 1.0000000000000000e+00 1.4551773683419189e+01 1.5140795308477069e+01 6.9275383810682980e+00 
99 1 2 1.0277347530495797e+00 -1.0433851691792069e+07 1.0000000000000000e+00 1.4551773683419189e+01 1.5140795308477069e+01 6.9275383810682980e+00 
106 1 2 1.0277347530495797e+00 -1.5129117198749756e+07 1.0000000000000000e+00 1.4551773683419189e+01 1.5140795308477069e+01 6.9275383810682980e+00 
105 1 2 1.0277347530495797e+00 -1.1258914832806813e+07 1.0000000000000000e+00 1.4551773683419189e+01 1.5140795308477069e+01 6.9275383810682980e+00 
130 1 2 8.7042619386321851e-01 -1.2020465790922146e+07 1.0000000000000000e+00 1.5675845535075789e+01 1.2214995795243416e+01 1.2212592124197599e+01 
131 1 2 8.7042619386321851e-01 -1.2317439573339548e+07 1.0000000000000000e+00 1.5675845535074385e+01 1.2214995795243508e+01 1.2212592124197529e+01 
137 1 2 8.7042619386321851e-01 -1.0822083925500680e+07 1.0000000000000000e+00 1.5675845535075803e+01 1.2214995795243224e+01 1.2212592124198849e+01 
136 1 2 8.7042619386321851e-01 -1.1418605365048885e+07 1.0000000000000000e+00 1.5675845535073890e+01 1.2214995795242572e+01 1.2212592124198469e+01 
172 1 2 8.7042619386321851e-01 -1.4959199715649646e+07 1.0000000000000000e+00 1.5675845535076174e+01 1.2214995795242814e+01 1.2212592124197730e+01 
167 1 2 8.7042619386321851e-01 -1.2620303571416561e+07 1.0000000000000000e+00 1.5675845535075361e+01 1.2214995795242206e+01 1.2212592124198752e+01 
143 1 2 1.0154969982081150e+00 -1.6563379908789586e+07 1.0000000000000000e+00 1.6625781320465524e+01 1.5526426362470325e+01 1.4743161089409258e+01 
138 1 2 1.0154970677039801e+00 -1.4692611906117806e+07 1.0000000000000000e+00 1.6626017426268206e+01 1.5526418583707379e+01 1.4743574856430016e+01 
173 1 2 1.0154965568135872e+00 -1.4554884381800110e+07 1.0000000000000000e+00 1.6627359064626152e+01 1.5525698135430044e+01 1.4743748305321008e+01 
179 1 2 1.0154970463965500e+00 -1.6438252047609681e+07 1.0000000000000000e+00 1.6626282697259111e+01 1.5526029721549037e+01 1.4743754110566424e+01 
174 1 2 1.0154970545247592e+00 -1.5973675736660238e+07 1.0000000000000000e+00 1.6626308324511090e+01 1.5526225448829045e+01 1.4743739821541363e+01 
178 1 2 1.0154967946642339e+00 -1.2059269307487434e+07 1.0000000000000000e+00 1.6625103745959994e+01 1.5526695714227264e+01 1.4743771457818573e+01 
180 1 2 1.0154969757217724e+00 -1.4634981845116891e+07 1.0000000000000000e+00 1.6625416447698580e+01 1.5526140073894213e+01 1.4743560747128328e+01 
168 1 2 2.9014206462107284e-01 -8.0513114561717892e+06 1.0000000000000000e+00 1.6218910419032461e+01 1.0862124487071446e+01 1.6924349110211086e+01 
132 1 2 2.9014206462107284e-01 -8.5860752939739265e+06 1.0000000000000000e+00 1.6218910419032461e+01 1.0862124487071405e+01 1.6924349110211086e+01 

Velocities

1 -3.4904072459939967e-24 5.2882695077670005e-11 1.4424502673524296e-25
7 3.7063562540208001e-10 -1.0576539015534545e-10 1.5710780795763674e-11
37 -3.7063562540209009e-10 5.2882695077672777e-11 -1.5710780795763690e-11
8 -1.8494116052733003e-08 -1.9996048867011905e-08 1.8159173982024469e-08
38 -1.9663769536443461e-08 -2.2525168715553746e-08 1.8919235403294618e-08
45 -1.6811438637452933e-08 -2.3083953175821916e-08 1.6922046236812134e-08
2 -1.9512687205570407e-08 -2.3341798444043497e-08 1.7605406724864924e-08
14 1.7983902755738483e-10 1.5819310142855829e-10 -1.2568624636609008e-10
21 1.7983902755735674e-10 -1.5147362501258787e-10 -2.1936889238660198e-23
20 -3.5967805511471564e-10 -6.7194764160378021e-12 1.2568624636602372e-10
3 3.5261236519881794e-08 -4.3011082578767323e-08 -7.4936329909923918e-08
9 9.6500530273562367e-09 3.3170341717218251e-08 1.1033660703670262e-09
10 9.5242308227247828e-09 3.3506028510439661e-08 1.5416939288628231e-09
15 1.0308359357393206e-08 3.2115170532167509e-08 -3.5455241369762096e-10
16 9.7381317005388783e-09 3.3166511046464894e-08 1.0399599817741195e-09
18 -6.3560750009732896e-11 1.4411899076699369e-22 1.7473593762726971e-09
12 4.2163504813935878e-10 -2.8615566943827076e-10 -1.7931178493296599e-09
13 -3.5807429812976646e-10 2.8615566943817533e-10 4.5758473057182727e-11
25 -6.6776973328525415e-09 1.9397448678098746e-08 -2.6890945077502778e-08
31 -1.0048915014776002e-08 2.8165575344940624e-08 -1.6535838825938192e-08
32 -1.0905234150666607e-08 3.3790130411704297e-08 -1.8051106399522497e-08
68 3.2708588670154916e-09 4.5161190545093241e-08 1.5367653121026828e-08
67 3.4938359126839329e-09 4.8156172164647157e-08 1.4521461270792666e-08
26 1.0050534418703737e-08 -1.8505613870016729e-08 -4.0450552613999525e-08
27 1.0007614907721488e-08 -1.8634097452101028e-08 -4.0094315751261261e-08
63 1.0200290855426976e-08 -1.8071796352548810e-08 -4.1723177321988434e-08
62 1.0232968714142085e-08 -1.7918206755014585e-08 -4.2074091299944428e-08
34 3.9074611258336075e-10 -9.1726931394862348e-10 -4.0196050945291166e-10
70 -9.7686528145797394e-11 -1.2143150949811529e-09 -8.8664044525397802e-10
33 -9.7686528145764281e-11 -1.2143150949809858e-09 5.7559539349594702e-10
69 -9.7686528145979710e-11 1.6729497519551146e-09 3.5650278060591914e-10
39 -9.7686528145979710e-11 1.6729497519551146e-09 3.5650278060591914e-10
22 2.4850956195779471e-10 -4.9701912391558942e-10 -4.9701912391558942e-10
28 -2.4850956195779471e-10 4.9701912391558942e-10 4.9701912391558942e-10
66 -9.9610836639650527e-08 2.5799789403720422e-07 1.2875766908392891e-07
72 -9.9520484570158473e-08 2.5777875982575291e-07 1.2866844050156310e-07
65 -1.0002406681989361e-07 2.5900010764723878e-07 1.2916575956798920e-07
30 -9.9745154916716336e-08 2.5832367492392584e-07 1.2889032911940201e-07
29 -9.9346691634022320e-08 2.5735730460918613e-07 1.2849684593978701e-07
24 6.2337288486373467e-07 -4.7706377963701955e-07 -2.3212635814724050e-07
71 -1.4249009950938541e-02 9.7553423874296871e-02 2.2819565740944153e-02
41 5.6132775957876663e-02 -2.0817009440302248e-01 -9.3185095325562777e-03