LAMMPS data file via write_data, version 30 Jul 2016, timestep = 50400000

180 atoms
2 atom types

0.0000000000000000e+00 2.0000000000000000e+01 xlo xhi
0.0000000000000000e+00 2.0000000000000000e+01 ylo yhi
0.0000000000000000e+00 2.0000000000000000e+01 zlo zhi

Masses

1 3.896
2 4.31

Atoms # meso-molecular

1 1 2 4.3521309693160926e-01 -1.8029271981300611e+07 1.0000000000000000e+00 5.9446068240133272e+00 1.9652632156895342e+00 8.4436345083388975e-01 
7 1 2 4.3521309693160926e-01 -1.3247599947411362e+07 1.0000000000000000e+00 5.9446068240132242e+00 1.9652632156894954e+00 8.4436345083387088e-01 
37 1 2 4.3521309693160926e-01 -1.5754751202976707e+07 1.0000000000000000e+00 5.9446068240134302e+00 1.9652632156895342e+00 8.4436345083390862e-01 
8 1 2 1.0280000065866550e+00 -1.8981783827034358e+07 1.0000000000000000e+00 6.0427049564004269e+00 3.6457481659263435e+00 6.1918812747965140e+00 
38 1 2 1.0280000066281030e+00 -1.8614609458147936e+07 1.0000000000000000e+00 6.0275344716556862e+00 3.6058042940016630e+00 6.1987992195407413e+00 
45 1 2 1.0280000066215333e+00 -1.7991062553439002e+07 1.0000000000000000e+00 6.0483952568098314e+00 3.6124896919301639e+00 6.2072794189797857e+00 
2 1 2 1.0280000066264505e+00 -1.6533286096270768e+07 1.0000000000000000e+00 6.0205241675820078e+00 3.6010505219990114e+00 6.1972491282486892e+00 
14 1 2 4.3521309693160926e-01 -1.8023849426585790e+07 1.0000000000000000e+00 5.1103046815984463e+00 9.7899138057373190e+00 5.2164299574808668e+00 
21 1 2 4.3521309693160926e-01 -1.2834808756054306e+07 1.0000000000000000e+00 5.1103046815984463e+00 9.7899138057372515e+00 5.2164299574807158e+00 
20 1 2 4.3521309693160926e-01 -1.6050990715843042e+07 1.0000000000000000e+00 5.1103046815982767e+00 9.7899138057375801e+00 5.2164299574805648e+00 
3 1 2 1.0280000000189968e+00 -1.8455975882354110e+07 1.0000000000000000e+00 5.4341628970335050e+00 3.3014070404621925e+00 6.9698872084924570e+00 
9 1 2 1.0279999933732133e+00 -1.9097529883485645e+07 1.0000000000000000e+00 5.4890193596144012e+00 4.2576297277222235e+00 7.3470620403373301e+00 
10 1 2 1.0279999933712387e+00 -1.6888055166427422e+07 1.0000000000000000e+00 5.4887906739951653e+00 4.2575685164361188e+00 7.3470115191398868e+00 
15 1 2 1.0279999933717727e+00 -1.9008863592424445e+07 1.0000000000000000e+00 5.4887698671541614e+00 4.2574591935887574e+00 7.3470835671217021e+00 
16 1 2 1.0279999933760031e+00 -1.7011353585928079e+07 1.0000000000000000e+00 5.4887372307093747e+00 4.2574483090463318e+00 7.3470779313444954e+00 
18 1 2 4.3521309693160926e-01 -8.2586911691926140e+06 1.0000000000000000e+00 5.4116833677601477e+00 6.1845373122060110e+00 1.8213592359296531e+01 
12 1 2 4.3521309693160926e-01 -6.0215783498915536e+06 1.0000000000000000e+00 5.4116833677600482e+00 6.1845373122059142e+00 1.8213592359295674e+01 
13 1 2 4.3521309693160926e-01 -1.1970538496443009e+07 1.0000000000000000e+00 5.4116833677600500e+00 6.1845373122061078e+00 1.8213592359296243e+01 
25 1 2 1.0279999998831757e+00 -1.5900164555218052e+07 1.0000000000000000e+00 6.4855745906492928e+00 1.5443309802450363e+01 2.4248482571788754e+00 
31 1 2 1.0279999998769169e+00 -1.4539398334588587e+07 1.0000000000000000e+00 6.4727191749222701e+00 1.5474737566832289e+01 2.4742084650955065e+00 
32 1 2 1.0279999998728306e+00 -1.4729167392416149e+07 1.0000000000000000e+00 6.4716483458979468e+00 1.5478319153148501e+01 2.4803508119202076e+00 
68 1 2 1.0279999998730744e+00 -1.6777914990261596e+07 1.0000000000000000e+00 6.5270637420634614e+00 1.5542444694615119e+01 2.6102004110304646e+00 
67 1 2 1.0279999998748417e+00 -1.6557380716348287e+07 1.0000000000000000e+00 6.5278317973673508e+00 1.5542538649552226e+01 2.6104485263613944e+00 
26 1 2 1.0280000001117697e+00 -1.4928081182400461e+07 1.0000000000000000e+00 6.4541414361334732e+00 1.4002390167648391e+01 4.0285139552899762e+00 
27 1 2 1.0280000001113663e+00 -1.4814199768632874e+07 1.0000000000000000e+00 6.4541280702866439e+00 1.4002419837008828e+01 4.0285229220542282e+00 
63 1 2 1.0280000001111864e+00 -1.8581325368478846e+07 1.0000000000000000e+00 6.4541991628118058e+00 1.4002398017245159e+01 4.0285239838639315e+00 
62 1 2 1.0280000001120533e+00 -1.5866834333860938e+07 1.0000000000000000e+00 6.4542635359284146e+00 1.4002245820455320e+01 4.0284774386536331e+00 
34 1 2 7.2535516155268209e-01 -1.3045475127389906e+07 1.0000000000000000e+00 6.5323238344922494e+00 1.7278709975932610e+01 8.3191390604920983e+00 
70 1 2 7.2535516155268209e-01 -1.5784270772439905e+07 1.0000000000000000e+00 6.5323238344920158e+00 1.7278709975931850e+01 8.3191390604928870e+00 
33 1 2 7.2535516155268209e-01 -1.3434813925377749e+07 1.0000000000000000e+00 6.5323238344920158e+00 1.7278709975931850e+01 8.3191390604927999e+00 
69 1 2 7.2535516155268209e-01 -1.4515777741574835e+07 1.0000000000000000e+00 6.5323238344920158e+00 1.7278709975932440e+01 8.3191390604927964e+00 
39 1 2 7.2535516155268209e-01 -1.1378798568938613e+07 1.0000000000000000e+00 6.5323238344920158e+00 1.7278709975932440e+01 8.3191390604927964e+00 
22 1 2 2.9014206462107284e-01 -6.3234023852788974e+06 1.0000000000000000e+00 5.3043343317548404e+00 1.2463533616165449e+01 1.0679777421914251e+01 
28 1 2 2.9014206462107284e-01 -6.3347330210730294e+06 1.0000000000000000e+00 5.3043343317547311e+00 1.2463533616165668e+01 1.0679777421914469e+01 
66 1 2 1.0279999996539033e+00 -1.2845564342605436e+07 1.0000000000000000e+00 6.4217785666030824e+00 1.2596118058895499e+01 1.5593442307181563e+01 
72 1 2 1.0279999996522138e+00 -1.0732514511381669e+07 1.0000000000000000e+00 6.4217785655913007e+00 1.2596118058759087e+01 1.5593442306497428e+01 
65 1 2 1.0279999996579756e+00 -1.9039812780385148e+07 1.0000000000000000e+00 6.4217785700710150e+00 1.2596118058818909e+01 1.5593442310909804e+01 
30 1 2 1.0279999996568554e+00 -2.0120064520319380e+07 1.0000000000000000e+00 6.4217785703878052e+00 1.2596118059037455e+01 1.5593442310694629e+01 
29 1 2 1.0279999996548972e+00 -1.6655874472884106e+07 1.0000000000000000e+00 6.4217785717789395e+00 1.2596118059092097e+01 1.5593442312004044e+01 
24 1 2 1.0280000000947933e+00 -2.0061210603474084e+07 1.0000000000000000e+00 6.3397380786106385e+00 1.0756890100861803e+01 1.5225133117253222e+01 
71 1 2 1.0154970185078391e+00 -1.7006490742181465e+07 1.0000000000000000e+00 6.1708285288841696e+00 1.9318092606685813e+01 1.5121070792722902e+01 
41 1 2 1.0154967052521482e+00 -1.5170409065741299e+07 1.0000000000000000e+00 6.1704179419240308e+00 1.9319916806574764e+01 1.5121267122250350e+01 
42 1 2 1.0154970740252147e+00 -1.5657996210162109e+07 1.0000000000000000e+00 6.1704872496630028e+00 1.9318985348667873e+01 1.5121111097438353e+01 
6 1 2 1.0154969906608735e+00 -1.8527795007669032e+07 1.0000000000000000e+00 6.1710011598668570e+00 1.9318116543984122e+01 1.5120897693510079e+01 
5 1 2 1.0154970936702508e+00 -1.6100365173687128e+07 1.0000000000000000e+00 6.1707682667638926e+00 1.9318691891673243e+01 1.5121510832346054e+01 
36 1 2 1.0154970932335783e+00 -1.9113880367043015e+07 1.0000000000000000e+00 6.1709798589268559e+00 1.9318578125084219e+01 1.5121061658470833e+01 
35 1 2 1.0154970668407424e+00 -1.6222252481902279e+07 1.0000000000000000e+00 6.1707474107431945e+00 1.9318447866045595e+01 1.5121582273117260e+01 
43 1 2 1.0279999999988154e+00 -1.4835684316822730e+07 1.0000000000000000e+00 9.3956713846548414e+00 6.0720624107440671e+00 1.8097472192254280e+00 
44 1 2 1.0280000000051372e+00 -1.7619102155508522e+07 1.0000000000000000e+00 9.6254132265335688e+00 5.8667581048624964e+00 2.7729169257230448e+00 
49 1 2 1.0279999999977660e+00 -1.8693950629875578e+07 1.0000000000000000e+00 9.4436530498268123e+00 6.2360274523589361e+00 1.7175505741460955e+00 
80 1 2 1.0280000000058831e+00 -1.1209201152379408e+07 1.0000000000000000e+00 9.7534372819335999e+00 5.8194988259978206e+00 2.6919526636058033e+00 
79 1 2 1.0279999999921459e+00 -1.9282695015744325e+07 1.0000000000000000e+00 9.9240679456974341e+00 6.1961942650629638e+00 1.7432144476392850e+00 
85 1 2 1.0280000000027958e+00 -1.9192238818098102e+07 1.0000000000000000e+00 9.9038207343420606e+00 6.8400226409678231e+00 1.8754297902885742e+00 
50 1 2 1.0279999999912952e+00 -1.5995465436447266e+07 1.0000000000000000e+00 9.6591732885727577e+00 6.9020469912614084e+00 2.8686478928357517e+00 
86 1 2 1.0279999999944462e+00 -1.7598069116775248e+07 1.0000000000000000e+00 9.6660183028345461e+00 6.9008552666049505e+00 2.8699810900475575e+00 
56 1 2 1.0280000000003198e+00 -1.0317877091928679e+07 1.0000000000000000e+00 9.6555780068623474e+00 6.8873230431761154e+00 2.8826428157906023e+00 
74 1 2 4.3521309693160926e-01 -1.0227412287990015e+07 1.0000000000000000e+00 1.2255995412446772e+01 1.2520900242636557e+00 6.1716999623270610e+00 
75 1 2 4.3521309693160926e-01 -1.3323980891489595e+07 1.0000000000000000e+00 1.2255995412446978e+01 1.2520900242636299e+00 6.1716999623270832e+00 
111 1 2 4.3521309693160926e-01 -1.2354893570983194e+07 1.0000000000000000e+00 1.2255995412447184e+01 1.2520900242636042e+00 6.1716999623269064e+00 
51 1 2 8.7042619386321851e-01 -1.3263788488329258e+07 1.0000000000000000e+00 9.1083006054502178e+00 9.0705661504055151e+00 9.1148493887075368e+00 
57 1 2 8.7042619386321851e-01 -1.5511220821950495e+07 1.0000000000000000e+00 9.1083006054499709e+00 9.0705661504055008e+00 9.1148493887088620e+00 
58 1 2 8.7042619386321851e-01 -1.2481793773843490e+07 1.0000000000000000e+00 9.1083006054497293e+00 9.0705661504053570e+00 9.1148493887083450e+00 
87 1 2 8.7042619386321851e-01 -1.4412545760250051e+07 1.0000000000000000e+00 9.1083006054498838e+00 9.0705661504039767e+00 9.1148493887088513e+00 
52 1 2 8.7042619386321851e-01 -1.4701368587529738e+07 1.0000000000000000e+00 9.1083006054491165e+00 9.0705661504049111e+00 9.1148493887091000e+00 
94 1 2 8.7042619386321851e-01 -1.3948084752673157e+07 1.0000000000000000e+00 9.1083006054496920e+00 9.0705661504039661e+00 9.1148493887090680e+00 
40 1 2 4.3521309693160926e-01 -1.0688010301333653e+07 1.0000000000000000e+00 7.3735355573490589e+00 2.5981295607075872e+00 1.0785771651545367e+01 
46 1 2 4.3521309693160926e-01 -1.0173814456011392e+07 1.0000000000000000e+00 7.3735355573492285e+00 2.5981295607076387e+00 1.0785771651544900e+01 
4 1 2 4.3521309693160926e-01 -1.2943328356423721e+07 1.0000000000000000e+00 7.3735355573490589e+00 2.5981295607076902e+00 1.0785771651544900e+01 
76 1 2 1.0280000710356587e+00 -1.4497957280474655e+07 1.0000000000000000e+00 1.2617022357208663e+01 2.6324138340344225e+00 1.2547841827076011e+01 
77 1 2 1.0280000710426527e+00 -1.4276662487859806e+07 1.0000000000000000e+00 1.2617022356658453e+01 2.6324138334994140e+00 1.2547841827585366e+01 
82 1 2 1.0280000710363586e+00 -1.1583120012753010e+07 1.0000000000000000e+00 1.2617022357897662e+01 2.6324138348705790e+00 1.2547841826409476e+01 
112 1 2 1.0280000710481663e+00 -1.5513757258361531e+07 1.0000000000000000e+00 1.2616181413754552e+01 2.6331796049280172e+00 1.2547975172626417e+01 
119 1 2 1.0279999999943252e+00 -1.7659106693488527e+07 1.0000000000000000e+00 1.2464514398195480e+01 3.2776817744443529e+00 1.3333893015232629e+01 
47 1 2 4.3521309693160926e-01 -1.0670800798238439e+07 1.0000000000000000e+00 6.9420736426584329e+00 4.3104141058831935e+00 1.4605600002288979e+01 
48 1 2 4.3521309693160926e-01 -7.3868509634858686e+06 1.0000000000000000e+00 6.9420736426581309e+00 4.3104141058832965e+00 1.4605600002289185e+01 
11 1 2 4.3521309693160926e-01 -1.2113819455686502e+07 1.0000000000000000e+00 6.9420736426582819e+00 4.3104141058830905e+00 1.4605600002288773e+01 
90 1 2 5.8028412924214567e-01 -1.2619442263072679e+07 1.0000000000000000e+00 1.1979200418457612e+01 8.5565479734386329e+00 1.6379121668221835e+01 
96 1 2 5.8028412924214567e-01 -1.4181082277848789e+07 1.0000000000000000e+00 1.1979200418458575e+01 8.5565479734386329e+00 1.6379121668221881e+01 
126 1 2 5.8028412924214567e-01 -1.2775578993444901e+07 1.0000000000000000e+00 1.1979200418457804e+01 8.5565479734386187e+00 1.6379121668221881e+01 
89 1 2 5.8028412924214567e-01 -1.1774666677785823e+07 1.0000000000000000e+00 1.1979200418458342e+01 8.5565479734386187e+00 1.6379121668221835e+01 
91 1 2 1.4507103231053642e-01 1.0873477884933196e+06 1.0000000000000000e+00 1.2111462802974282e+01 1.0472895216776243e+01 3.5874503085715426e-01 
55 1 2 1.0280000000223377e+00 -1.5373146072206721e+07 1.0000000000000000e+00 6.7524775263560857e+00 1.3598124263464891e+01 2.7069158732343830e+00 
19 1 2 1.0280000000226144e+00 -1.4292244087378154e+07 1.0000000000000000e+00 6.7524775256911802e+00 1.3598124263354155e+01 2.7069158731323788e+00 
61 1 2 1.0280000000226781e+00 -1.3753022652707070e+07 1.0000000000000000e+00 6.7524775298304469e+00 1.3598124259139405e+01 2.7069158822513559e+00 
64 1 2 5.8028412924214567e-01 -1.5678053441975445e+07 1.0000000000000000e+00 1.0776427584027498e+01 1.2878614632034086e+01 1.2027982754996383e+01 
95 1 2 5.8028412924214567e-01 -1.1989132318845004e+07 1.0000000000000000e+00 1.0776427584027513e+01 1.2878614632034072e+01 1.2027982754996406e+01 
101 1 2 5.8028412924214567e-01 -1.7351898204965863e+07 1.0000000000000000e+00 1.0776427584027513e+01 1.2878614632034072e+01 1.2027982754996406e+01 
100 1 2 5.8028412924214567e-01 -1.6073438731422558e+07 1.0000000000000000e+00 1.0776427584027498e+01 1.2878614632034086e+01 1.2027982754996383e+01 
23 1 2 1.0280000001942640e+00 -1.4969743568326643e+07 1.0000000000000000e+00 7.1474957982932024e+00 1.0573625966924061e+01 1.4784942239783472e+01 
54 1 2 1.0280000001617422e+00 -1.7267214522740774e+07 1.0000000000000000e+00 7.5651721933098566e+00 1.0861174870778502e+01 1.5489275782886891e+01 
59 1 2 1.0280000002782546e+00 -1.6348281379599618e+07 1.0000000000000000e+00 7.3156115012497080e+00 1.0536371358040990e+01 1.5019152478204731e+01 
17 1 2 1.0280000002855596e+00 -1.6605147072943240e+07 1.0000000000000000e+00 7.3149802686924286e+00 1.0532601733493646e+01 1.5035806991973567e+01 
53 1 2 1.0280000002814538e+00 -1.3766556186929699e+07 1.0000000000000000e+00 7.3318767024714075e+00 1.0540048949740813e+01 1.5043265409153159e+01 
60 1 2 1.0280000001004834e+00 -1.8938292398618635e+07 1.0000000000000000e+00 6.9187715961087193e+00 1.2082802931217104e+01 1.4522719624235624e+01 
107 1 2 1.4507103231053642e-01 5.1266339934815676e+05 1.0000000000000000e+00 1.2400540767221724e+01 1.6979664086225540e+01 1.4325342513711155e+01 
102 1 2 7.2535516155268209e-01 -1.2230694071153933e+07 1.0000000000000000e+00 1.2731912192626844e+01 1.6343318491001519e+01 1.8636488616952029e+01 
103 1 2 7.2535516155268209e-01 -1.6599854665912475e+07 1.0000000000000000e+00 1.2731912192627075e+01 1.6343318491001241e+01 1.8636488616950690e+01 
139 1 2 7.2535516155268209e-01 -1.9160319408692561e+07 1.0000000000000000e+00 1.2731912192626980e+01 1.6343318491001046e+01 1.8636488616952029e+01 
144 1 2 7.2535516155268209e-01 -1.9345202846065231e+07 1.0000000000000000e+00 1.2731912192626272e+01 1.6343318491000485e+01 1.8636488616952317e+01 
108 1 2 7.2535516155268209e-01 -1.2422419754212817e+07 1.0000000000000000e+00 1.2731912192626844e+01 1.6343318491001519e+01 1.8636488616952029e+01 
116 1 2 7.2535516155268209e-01 -1.3537192668672560e+07 1.0000000000000000e+00 1.6780681608937414e+01 3.6546448880853890e+00 2.6782767982342226e+00 
115 1 2 7.2535516155268209e-01 -1.6017393599641206e+07 1.0000000000000000e+00 1.6780681608936703e+01 3.6546448880855023e+00 2.6782767982346636e+00 
145 1 2 7.2535516155268209e-01 -1.2699003441525731e+07 1.0000000000000000e+00 1.6780681608935382e+01 3.6546448880855684e+00 2.6782767982344371e+00 
151 1 2 7.2535516155268209e-01 -1.4732640286974687e+07 1.0000000000000000e+00 1.6780681608935382e+01 3.6546448880855684e+00 2.6782767982344371e+00 
152 1 2 7.2535516155268209e-01 -1.3825209312013093e+07 1.0000000000000000e+00 1.6780681608936519e+01 3.6546448880853890e+00 2.6782767982344176e+00 
121 1 2 7.2535516155268209e-01 -1.5841082044181859e+07 1.0000000000000000e+00 1.6151399933137046e+01 8.6798626117622693e+00 1.7064462907866669e+00 
163 1 2 7.2535516155268209e-01 -1.6138820827962918e+07 1.0000000000000000e+00 1.6151399933138954e+01 8.6798626117622693e+00 1.7064462907866669e+00 
127 1 2 7.2535516155268209e-01 -1.3972941450649790e+07 1.0000000000000000e+00 1.6151399933137672e+01 8.6798626117622693e+00 1.7064462907865297e+00 
157 1 2 7.2535516155268209e-01 -1.1571742262134064e+07 1.0000000000000000e+00 1.6151399933136393e+01 8.6798626117628483e+00 1.7064462907866054e+00 
158 1 2 7.2535516155268209e-01 -1.0050997441282099e+07 1.0000000000000000e+00 1.6151399933136393e+01 8.6798626117628483e+00 1.7064462907866054e+00 
147 1 2 2.9014206462107284e-01 -8.1077999954470424e+06 1.0000000000000000e+00 1.8168811377800118e+01 1.1252380766764820e+00 9.0201100805166554e+00 
148 1 2 2.9014206462107284e-01 -8.2852408858851483e+06 1.0000000000000000e+00 1.8168811377800555e+01 1.1252380766764820e+00 9.0201100805168739e+00 
159 1 2 1.0279999999990233e+00 -1.4627389393771194e+07 1.0000000000000000e+00 1.5825388509261305e+01 6.1741988107864101e+00 7.4004105160216165e+00 
123 1 2 1.0279999999984044e+00 -1.3628561685392819e+07 1.0000000000000000e+00 1.5825388509196372e+01 6.1741988107409007e+00 7.4004105159885629e+00 
122 1 2 1.0280000000000571e+00 -1.3663960928191375e+07 1.0000000000000000e+00 1.5825388509284450e+01 6.1741988108354500e+00 7.4004105160410294e+00 
153 1 2 1.0280000000025529e+00 -1.3252527133153275e+07 1.0000000000000000e+00 1.5825388509171828e+01 6.1741988107558674e+00 7.4004105159931504e+00 
117 1 2 1.0280000000005578e+00 -1.6791448287760075e+07 1.0000000000000000e+00 1.4536219249731138e+01 5.7797199206572483e+00 8.2795167990337841e+00 
118 1 2 1.0280000000017424e+00 -1.5781341284734922e+07 1.0000000000000000e+00 1.5057778170304895e+01 5.8693427049802755e+00 9.2203703505252452e+00 
81 1 2 1.0279999999995926e+00 -1.7094848205873765e+07 1.0000000000000000e+00 1.4584361681332698e+01 5.8297762182032367e+00 8.7828029205712088e+00 
160 1 2 1.0280000000019678e+00 -1.3614890156836655e+07 1.0000000000000000e+00 1.6258878065622383e+01 6.0940986824042760e+00 8.6481126941097148e+00 
124 1 2 1.0279999999999763e+00 -1.3748219945317337e+07 1.0000000000000000e+00 1.4992883591168416e+01 5.9656078966988044e+00 9.2054572811080995e+00 
154 1 2 1.0279999999997171e+00 -1.2895977925806388e+07 1.0000000000000000e+00 1.6269146149068220e+01 6.0332821612108658e+00 8.6309074827448917e+00 
88 1 2 1.0279999999989464e+00 -1.2114499254162086e+07 1.0000000000000000e+00 1.4698487092783747e+01 5.9719251341322259e+00 8.9925104224333516e+00 
165 1 2 2.9014206462107284e-01 -9.1238553049937468e+06 1.0000000000000000e+00 1.8586704432885970e+01 9.9560213543780591e+00 8.6074117690795315e+00 
166 1 2 2.9014206462107284e-01 -9.4411639940367807e+06 1.0000000000000000e+00 1.8586704432885970e+01 9.9560213543780591e+00 8.6074117690795315e+00 
120 1 2 1.0279999289549764e+00 -1.5204697112060778e+07 1.0000000000000000e+00 1.3371797060798551e+01 2.9716607981990646e+00 1.3707287072143947e+01 
84 1 2 1.0279999289604744e+00 -1.4234857295200959e+07 1.0000000000000000e+00 1.3371813278037905e+01 2.9716500658661293e+00 1.3707276010294942e+01 
83 1 2 1.0279999289578456e+00 -1.4327946927818486e+07 1.0000000000000000e+00 1.3371821466486070e+01 2.9716419757107082e+00 1.3707270940472645e+01 
113 1 2 1.0279999289707451e+00 -1.6807634245445736e+07 1.0000000000000000e+00 1.3373569528999738e+01 2.9698207818601072e+00 1.3706198684930570e+01 
149 1 2 2.9014206462107284e-01 -1.0151842424849987e+07 1.0000000000000000e+00 1.7953014710661446e+01 6.1692430243640994e-01 1.5108054932341975e+01 
150 1 2 2.9014206462107284e-01 -9.7495172842280082e+06 1.0000000000000000e+00 1.7953014710661009e+01 6.1692430243639629e-01 1.5108054932341975e+01 
155 1 2 7.2535516155268209e-01 -1.5578346478696091e+07 1.0000000000000000e+00 1.7155664972108173e+01 6.3680476818895162e+00 1.4662877679867091e+01 
156 1 2 7.2535516155268209e-01 -1.7841370131159872e+07 1.0000000000000000e+00 1.7155664972111143e+01 6.3680476818890854e+00 1.4662877679866140e+01 
161 1 2 7.2535516155268209e-01 -1.7117800199603785e+07 1.0000000000000000e+00 1.7155664972108820e+01 6.3680476818886742e+00 1.4662877679866176e+01 
162 1 2 7.2535516155268209e-01 -1.4602208223583572e+07 1.0000000000000000e+00 1.7155664972108173e+01 6.3680476818889824e+00 1.4662877679866140e+01 
125 1 2 7.2535516155268209e-01 -1.2564034999101762e+07 1.0000000000000000e+00 1.7155664972109573e+01 6.3680476818889824e+00 1.4662877679865705e+01 
110 1 2 7.2535516155268209e-01 -1.3228137580025315e+07 1.0000000000000000e+00 1.3424609232698046e+01 1.0196813701900089e+00 1.9763077553287740e+01 
114 1 2 7.2535516155268209e-01 -1.6160151792634729e+07 1.0000000000000000e+00 1.3424609232698046e+01 1.0196813701899023e+00 1.9763077553285818e+01 
78 1 2 7.2535516155268209e-01 -1.5802813926457498e+07 1.0000000000000000e+00 1.3424609232698046e+01 1.0196813701899023e+00 1.9763077553285818e+01 
73 1 2 7.2535516155268209e-01 -1.5761545744509382e+07 1.0000000000000000e+00 1.3424609232698046e+01 1.0196813701899636e+00 1.9763077553285104e+01 
109 1 2 7.2535516155268209e-01 -1.5372515995164309e+07 1.0000000000000000e+00 1.3424609232698115e+01 1.0196813701898957e+00 1.9763077553286955e+01 
169 1 2 2.9014206462107284e-01 -1.1866531018978525e+07 1.0000000000000000e+00 1.8263696735287077e+01 1.6038051789942230e+01 1.5242655363246844e+00 
175 1 2 2.9014206462107284e-01 -1.1625248365516789e+07 1.0000000000000000e+00 1.8263696735287077e+01 1.6038051789942230e+01 1.5242655363246844e+00 
129 1 2 1.0283648835039256e+00 -1.9512491397921372e+07 1.0000000000000000e+00 1.3557951792441587e+01 1.2015354713530913e+01 4.7044078228037822e+00 
134 1 2 1.0278542739123233e+00 -1.6468251012754533e+07 1.0000000000000000e+00 1.3553291541022279e+01 1.2014540581564425e+01 4.7023886621334814e+00 
171 1 2 1.0279113135254891e+00 -1.7151742933841083e+07 1.0000000000000000e+00 1.3552537718668622e+01 1.2014594319733371e+01 4.7030243642816201e+00 
164 1 2 1.0278237002043178e+00 -1.6127666168714283e+07 1.0000000000000000e+00 1.3550210554807180e+01 1.2014364056119128e+01 4.7032653947215515e+00 
170 1 2 1.0277863954080713e+00 -1.5053822138734302e+07 1.0000000000000000e+00 1.3550594512075596e+01 1.2014977877389128e+01 4.7020328062191323e+00 
135 1 2 1.0277585930009343e+00 -1.7578142732855663e+07 1.0000000000000000e+00 1.3550094289280763e+01 1.2015008427725421e+01 4.7019062894708021e+00 
93 1 2 1.0282419395055669e+00 -1.4667437612390367e+07 1.0000000000000000e+00 1.3660381527801723e+01 1.3335355920811756e+01 5.6375588758253086e+00 
97 1 2 1.0276298405341722e+00 -1.1717637037748046e+07 1.0000000000000000e+00 1.4061990381065716e+01 1.3531380496185760e+01 5.9440662944102058e+00 
92 1 2 1.0278227124208594e+00 -1.3981811911319094e+07 1.0000000000000000e+00 1.4017651322152243e+01 1.3592746698059708e+01 5.9819921158058955e+00 
98 1 2 1.0286488172489130e+00 -1.2664350100628154e+07 1.0000000000000000e+00 1.4070529134509771e+01 1.4723369333121445e+01 6.5272617288198544e+00 
128 1 2 1.0279263479800815e+00 -1.6982223402525239e+07 1.0000000000000000e+00 1.4294987567696145e+01 1.5170817474274186e+01 6.6507962740714159e+00 
133 1 2 1.0267226654117947e+00 -1.3909670178156165e+07 1.0000000000000000e+00 1.5926573510736302e+01 1.7109421709961296e+01 6.3649361916959419e+00 
140 1 2 1.0284576165886596e+00 -1.6948364864553366e+07 1.0000000000000000e+00 1.6027633749270773e+01 1.7536493987866649e+01 5.7388215820956443e+00 
141 1 2 1.0284576165886596e+00 -1.6160314449681172e+07 1.0000000000000000e+00 1.6027633749270773e+01 1.7536493987866649e+01 5.7388215820956443e+00 
104 1 2 1.0284576165886596e+00 -1.4284023783686751e+07 1.0000000000000000e+00 1.6027633749270773e+01 1.7536493987866649e+01 5.7388215820956443e+00 
176 1 2 1.0276826809664679e+00 -1.6914864002156936e+07 1.0000000000000000e+00 1.5992511228958428e+01 1.7534403889416801e+01 5.7026471751516308e+00 
177 1 2 1.0276826809664679e+00 -1.5770030883201497e+07 1.0000000000000000e+00 1.5992511228958428e+01 1.7534403889416801e+01 5.7026471751516308e+00 
146 1 2 1.0276826809664679e+00 -1.4473724751059568e+07 1.0000000000000000e+00 1.5992511228958428e+01 1.7534403889416801e+01 5.7026471751516308e+00 
142 1 2 1.0277384276203889e+00 -1.2038787624981435e+07 1.0000000000000000e+00 1.4740073056355842e+01 1.5172018020749757e+01 6.8341600441460306e+00 
99 1 2 1.0277384276203889e+00 -1.0433836580129592e+07 1.0000000000000000e+00 1.4740073056355842e+01 1.5172018020749757e+01 6.8341600441460306e+00 
106 1 2 1.0277384276203889e+00 -1.5129102087087279e+07 1.0000000000000000e+00 1.4740073056355842e+01 1.5172018020749757e+01 6.8341600441460306e+00 
105 1 2 1.0277384276203889e+00 -1.1258899721144335e+07 1.0000000000000000e+00 1.4740073056355842e+01 1.5172018020749757e+01 6.8341600441460306e+00 
130 1 2 8.7042619386321851e-01 -1.2020465790922146e+07 1.0000000000000000e+00 1.5675845535078514e+01 1.2214995795246056e+01 1.2212592124202713e+01 
131 1 2 8.7042619386321851e-01 -1.2317439573339548e+07 1.0000000000000000e+00 1.5675845535076848e+01 1.2214995795246397e+01 1.2212592124202505e+01 
137 1 2 8.7042619386321851e-01 -1.0822083925500680e+07 1.0000000000000000e+00 1.5675845535077894e+01 1.2214995795245628e+01 1.2212592124201342e+01 
136 1 2 8.7042619386321851e-01 -1.1418605365048885e+07 1.0000000000000000e+00 1.5675845535077714e+01 1.2214995795246814e+01 1.2212592124201850e+01 
172 1 2 8.7042619386321851e-01 -1.4959199715649646e+07 1.0000000000000000e+00 1.5675845535078292e+01 1.2214995795247582e+01 1.2212592124202740e+01 
167 1 2 8.7042619386321851e-01 -1.2620303571416561e+07 1.0000000000000000e+00 1.5675845535078242e+01 1.2214995795246208e+01 1.2212592124203105e+01 
143 1 2 1.0154969321944476e+00 -1.6563379802192919e+07 1.0000000000000000e+00 1.6626328754619390e+01 1.5526013950937454e+01 1.4744136559295979e+01 
138 1 2 1.0154970227599025e+00 -1.4692611831312135e+07 1.0000000000000000e+00 1.6626059856329892e+01 1.5526021974006591e+01 1.4743662195313242e+01 
173 1 2 1.0154963735801470e+00 -1.4554884061212454e+07 1.0000000000000000e+00 1.6624550145947516e+01 1.5526836816387226e+01 1.4743466266553003e+01 
179 1 2 1.0154969946170260e+00 -1.6438251963232782e+07 1.0000000000000000e+00 1.6625758682357585e+01 1.5526467076207503e+01 1.4743456958429668e+01 
174 1 2 1.0154970052428882e+00 -1.5973675655979557e+07 1.0000000000000000e+00 1.6625728805229723e+01 1.5526242594968410e+01 1.4743473269853315e+01 
178 1 2 1.0154966717248788e+00 -1.2059269103675263e+07 1.0000000000000000e+00 1.6627097308976172e+01 1.5525708727262916e+01 1.4743437058006224e+01 
180 1 2 1.0154969037036350e+00 -1.4634981727668868e+07 1.0000000000000000e+00 1.6626745473327492e+01 1.5526342900337246e+01 1.4743678080763786e+01 
168 1 2 2.9014206462107284e-01 -8.0513114561717892e+06 1.0000000000000000e+00 1.6218910419032461e+01 1.0862124487071316e+01 1.6924349110211086e+01 
132 1 2 2.9014206462107284e-01 -8.5860752939739265e+06 1.0000000000000000e+00 1.6218910419032461e+01 1.0862124487071535e+01 1.6924349110211086e+01 

Velocities

1 -3.4028078521091940e-24 -2.8651638929824745e-11 -1.6441189740997842e-27
7 2.4410214333143997e-10 5.7303277859643926e-11 1.7770835851665312e-11
37 -2.4410214333144762e-10 -2.8651638929822894e-11 -1.7770835851665347e-11
8 1.1441285699845974e-05 1.2477714729703430e-05 -1.3783894745305409e-05
38 8.0718064253024503e-06 2.5693448228449783e-06 -1.2688068049666458e-05
45 1.3169482999135476e-05 4.2293824201547774e-06 -1.0430072111911320e-05
2 6.3459134009018876e-06 1.4136638773250244e-06 -1.3091326024829299e-05
14 -9.0654956790215148e-11 8.5205816542646842e-10 -1.4216668681341826e-10
21 -9.0654956790213158e-11 -5.9252430371188528e-10 -3.7309039141539109e-23
20 1.8130991358045441e-10 -2.5953386171468338e-10 1.4216668681336856e-10
3 -3.5680662280211911e-05 4.1581884659890747e-05 7.4886163377505088e-05
9 -8.8542236732344245e-07 -1.5592195766306936e-05 -6.2225124569736657e-06
10 -8.2582069301605201e-07 -1.5580902818611848e-05 -6.2144394426361420e-06
15 -8.2049026074833619e-07 -1.5554246276277909e-05 -6.2332539345791301e-06
16 -8.1609292388998542e-07 -1.5544645648695114e-05 -6.2225966116009072e-06
18 -4.4372598683008078e-10 9.0398971795010896e-24 1.4027269407496676e-09
12 3.6906535387616123e-10 2.7589321058218429e-10 -2.8247104081858422e-11
13 7.4660632953785071e-11 -2.7589321058213709e-10 -1.3744798366675010e-09
25 5.8584426258030615e-08 -1.6573335132444885e-07 2.4075402991815834e-07
31 9.1283912503137065e-08 -2.6424909762627457e-07 1.6055810021700351e-07
32 9.4303003594684897e-08 -2.7599381396427389e-07 1.4958315160641787e-07
68 -3.0628649582395403e-08 -4.0790726777482693e-07 -1.3524011774674124e-07
67 -3.2371539289997461e-08 -4.0845527276847111e-07 -1.3565244593348431e-07
26 -8.8742452234470909e-08 1.5745036164378579e-07 3.6220221147462515e-07
27 -8.8823868531935684e-08 1.5734939380112941e-07 3.6266555024428998e-07
63 -8.8530120831137962e-08 1.5774552052853434e-07 3.6140308046400629e-07
62 -8.8330754959017578e-08 1.5769856998508615e-07 3.6067463137077139e-07
34 -1.7651622332473043e-10 -1.0140664144545122e-11 -3.6075359370307459e-10
70 4.4129055831266081e-11 1.6851655852073712e-09 -9.8787305551007046e-10
33 4.4129055831180197e-11 1.6851655852074947e-09 -1.4923054228375239e-10
69 4.4129055831063855e-11 -1.6800952531352742e-09 7.4892859574889124e-10
39 4.4129055831063855e-11 -1.6800952531352742e-09 7.4892859574889124e-10
22 1.3088823808249087e-10 -2.6177647616498175e-10 -2.6177647616498175e-10
28 -1.3088823808249087e-10 2.6177647616498175e-10 2.6177647616498175e-10
66 -2.4849881204676587e-07 6.4531424535849970e-07 3.2159687628428587e-07
72 -2.4887565017076447e-07 6.4622816133236475e-07 3.2196900041593065e-07
65 -2.4778635198568056e-07 6.4358639335630351e-07 3.2089335337667708e-07
30 -2.4786773667313708e-07 6.4378377891973040e-07 3.2097372289700926e-07
29 -2.4814553769423172e-07 6.4445754143812394e-07 3.2124807334595022e-07
24 1.5385614797564077e-06 -1.1937411947075406e-06 -5.7574584873992005e-07
71 6.4414015056372523e-02 -4.3732388820598267e-01 -1.0200534752353077e-01
41 -2.5265221087227563e-01 9.3638752100569000e-01 4.2115555989365408e-02