LAMMPS data file via write_data, version 30 Jul 2016, timestep = 50000000

4620 atoms
8 atom types

0.0000000000000000e+00 1.0000000000000000e+02 xlo xhi
0.0000000000000000e+00 4.0000000000000000e+01 ylo yhi
0.0000000000000000e+00 4.0000000000000000e+01 zlo zhi

Masses

1 3.896
2 5.36
3 20.064
4 8.378
5 8.378
6 8.378
7 8.378
8 8.378

Atoms # meso-molecular

3826 3827 2 1.0279999993566524e+00 3.2179985582455998e+02 1.0000000000000000e+00 3.2080390551149058e+01 5.6403790777245755e+00 5.0673706375064664e-01 
4162 4163 2 1.0280000001690128e+00 7.4330540918230110e+02 1.0000000000000000e+00 3.2857415983350577e+01 1.1300694766972518e+01 7.5877719157405155e-01 
294 295 2 1.0279999999999998e+00 1.3124467345869212e+02 1.0000000000000000e+00 2.1496626908408171e+01 1.2265489949958233e+01 3.6470116245066825e-01 
2226 2227 2 1.0279999999999998e+00 5.2096081840178272e+02 1.0000000000000000e+00 2.0637154630765689e+01 1.3222701226410599e+01 2.8864343675640433e-02 
99 100 2 1.0280000902765432e+00 -4.8511185272016741e+02 1.0000000000000000e+00 3.2780144076353771e+01 1.3671688667632758e+01 8.4645185201391671e-01 
3945 3946 2 1.0279999999999958e+00 4.2595475985214728e+02 1.0000000000000000e+00 3.1929031468193966e+01 1.6553348408849867e+01 2.4501381003707950e-01 
3704 3705 2 1.0279999994152613e+00 -3.5045262879949166e+02 1.0000000000000000e+00 3.2680829592968387e+01 1.8718217046633125e+01 1.0325654025328683e+00 
3910 3911 2 1.0280000000000000e+00 4.3742221293521072e+02 1.0000000000000000e+00 2.2889202080841599e+01 3.5710423672995124e+00 2.0962164840019928e+00 
4145 4146 2 1.0280000000000005e+00 5.9719797041177537e+02 1.0000000000000000e+00 1.9523632230651128e+01 7.4698237294947400e+00 2.7981441549263861e+00 
3161 3162 2 1.0280000000000005e+00 1.9871616231797299e+02 1.0000000000000000e+00 2.8913491540268755e+01 8.2251693951128484e+00 1.9902573795323719e+00 
3286 3287 2 1.0280000000000005e+00 3.4387086912730581e+01 1.0000000000000000e+00 3.2682652097107422e+01 7.6606547736343735e+00 2.9633070472115088e+00 
4607 4608 2 1.0280000000000005e+00 -6.1678875748463793e+02 1.0000000000000000e+00 1.9849037229308387e+01 8.7255808441248188e+00 2.5067371396483407e+00 
3580 3581 2 1.0280000000000005e+00 -5.9443625160969736e+02 1.0000000000000000e+00 2.9687812481696579e+01 9.2961745018933257e+00 2.1355416992813288e+00 
2317 2318 2 1.0280000000000005e+00 7.1517174445624869e+02 1.0000000000000000e+00 3.1687953142389880e+01 8.4656476634114419e+00 3.3242680278460415e+00 
3489 3490 2 1.0280000001277911e+00 7.5567258051232386e+02 1.0000000000000000e+00 2.8025488755663307e+01 1.5806379678326810e+01 3.0027899663186539e+00 
2635 2636 2 1.0280000001067005e+00 2.4396251225301705e+02 1.0000000000000000e+00 2.5704212620320135e+01 1.7648787613090313e+01 3.1571790975088576e+00 
2636 2637 2 1.0279999999383000e+00 1.0757128659603231e+02 1.0000000000000000e+00 2.7195387851150336e+01 1.7675498317831096e+01 3.2869498977462226e+00 
846 847 2 1.0279999997964788e+00 -1.0030967431276861e+03 1.0000000000000000e+00 2.9711395147647487e+01 1.6720359162152938e+01 2.7165965583065330e+00 
925 926 2 1.0280000000169540e+00 -5.8528766066031494e+02 1.0000000000000000e+00 3.1362579961579367e+01 1.8282505039482878e+01 2.9185114232193294e+00 
2527 2528 2 1.0279999998925926e+00 3.9047776534783247e+02 1.0000000000000000e+00 2.6689367734023303e+01 1.9508261224043508e+01 2.8930076307723822e+00 
2485 2486 2 1.0279999999591927e+00 -7.4831029693282790e+02 1.0000000000000000e+00 2.7524943059502505e+01 1.9280574156544333e+01 1.7771921007561922e+00 
4040 4041 2 1.0279999999613969e+00 3.6018529677346166e+01 1.0000000000000000e+00 3.1192599164822088e+01 1.9695887644192020e+01 1.7105828834624872e+00 
3864 3865 2 1.0280000000000002e+00 -5.6069884304647758e+02 1.0000000000000000e+00 2.6096157990325771e+01 4.5476114088216629e-01 3.4786499874707228e+00 
4284 4285 2 1.0280000000000002e+00 -6.9768817847295554e+02 1.0000000000000000e+00 2.5515107534646841e+01 7.9517497609516818e-01 4.6250492117374415e+00 
1513 1514 2 1.0280000000310916e+00 -4.8299887965043058e+02 1.0000000000000000e+00 3.0588236158629453e+01 4.4618484754999549e-01 4.9098875205885149e+00 
2271 2272 2 1.0279999999999982e+00 4.6622367758989651e+02 1.0000000000000000e+00 1.8067352365890166e+01 4.1221407542225572e+00 4.2693957893337799e+00 
4372 4373 2 1.0280000000000000e+00 4.9149129541260538e+02 1.0000000000000000e+00 2.2778952487330265e+01 3.3735823782442531e+00 3.4064023381850301e+00 
1723 1724 2 1.0279999999999982e+00 8.2438977545791488e+01 1.0000000000000000e+00 1.7644857930604392e+01 5.3752545960746048e+00 4.1317856728458624e+00 
22 23 2 1.0279998024999835e+00 1.4328545362991352e+02 1.0000000000000000e+00 2.3569905708907388e+01 9.3995731690512283e+00 4.6203223212536368e+00 
442 443 2 1.0280001990522527e+00 7.9011010433332288e+01 1.0000000000000000e+00 2.4569500771077230e+01 1.0072538809873913e+01 4.0584857140437043e+00 
3242 3243 2 1.0280000000000002e+00 9.3570657001273048e+01 1.0000000000000000e+00 2.7676400684050005e+01 1.0855633000148297e+01 3.6850204361566434e+00 
3241 3242 2 1.0280000000000002e+00 5.5879807429204618e+01 1.0000000000000000e+00 2.8284162973096318e+01 1.0949675914258094e+01 4.8637966333066256e+00 
840 841 2 1.0280000000000000e+00 -8.7306422072882424e+02 1.0000000000000000e+00 2.3288468044497595e+01 1.3324076545318556e+01 4.9493843592571549e+00 
1302 1303 2 1.0280000000000000e+00 -4.1534244377379977e+01 1.0000000000000000e+00 2.3838916605984505e+01 1.3112004550054586e+01 3.7578457561770016e+00 
4366 4367 2 1.0279999997486549e+00 -2.8985858958440667e+02 1.0000000000000000e+00 2.8885843267891772e+01 1.4999741398870142e+01 4.4485968100512743e+00 
3871 3872 2 1.0279999999999985e+00 1.1937358191776617e+02 1.0000000000000000e+00 3.1467279725689938e+01 1.3870408995607141e+01 4.4543514257385812e+00 
4252 4253 2 1.0279999999999985e+00 -4.8318168602796857e+02 1.0000000000000000e+00 3.2686217965581783e+01 1.4107599859992591e+01 3.9793120022904658e+00 
3314 3315 2 1.0280000000188083e+00 -3.0970923437535987e+02 1.0000000000000000e+00 2.5270078564112737e+01 1.6337928577576527e+01 4.1329293746789206e+00 
3609 3610 2 1.0280000000098410e+00 -1.0698882542560395e+02 1.0000000000000000e+00 2.6765599206944266e+01 1.5157212306673701e+01 3.7336262738383224e+00 
4569 4570 2 1.0279999998736344e+00 -5.5318304668376800e+02 1.0000000000000000e+00 2.6513692685681217e+01 1.7137342360792690e+01 4.7561230023916545e+00 
3027 3028 2 1.0280000001515532e+00 6.4326543935534505e+02 1.0000000000000000e+00 2.8687208429223428e+01 1.6740576361441004e+01 4.1411191681177781e+00 
884 885 2 1.0280000003912542e+00 9.9801873113939223e+01 1.0000000000000000e+00 3.0452104280124445e+01 1.6924752331118576e+01 3.9312817963829865e+00 
1387 1388 2 1.0279999999007872e+00 -5.4468099877942109e+02 1.0000000000000000e+00 3.1200173184187872e+01 1.8805439649773117e+01 4.2133045697898917e+00 
1985 1986 2 1.0280001986666458e+00 1.0945021676417795e+02 1.0000000000000000e+00 2.5984443434499973e+01 9.9616753139770520e+00 5.9543964772138969e+00 
4367 4368 2 1.0280000002630345e+00 1.0813436664984033e+02 1.0000000000000000e+00 2.7964510413007417e+01 1.4554153550066605e+01 5.4697645183585415e+00 
4614 4615 2 1.0280000000000000e+00 -1.8408367575750367e+02 1.0000000000000000e+00 1.2454329207852075e+01 1.5675282498036971e+01 5.5218879015566644e+00 
3769 3770 2 1.0280000000000000e+00 -1.1004774734853054e+03 1.0000000000000000e+00 1.3393830211333283e+01 1.6370123472397903e+01 6.1561325526617452e+00 
3357 3358 2 1.0280000000180216e+00 -1.0713640537849415e+02 1.0000000000000000e+00 2.6102527968216219e+01 1.5223416632129796e+01 5.1250890453241658e+00 
3776 3777 2 1.0279999997668454e+00 -2.4816776242206402e+02 1.0000000000000000e+00 2.7462041564938634e+01 1.6143690429576491e+01 5.8745805371571320e+00 
797 798 2 1.0279999999999960e+00 -6.4779300771868043e+02 1.0000000000000000e+00 3.6956953523832065e-01 1.6886864403792057e+01 5.9493444760884167e+00 
1986 1987 2 1.0279998021143768e+00 2.5786862322623585e+02 1.0000000000000000e+00 2.5226591211249676e+01 1.0309050174582289e+01 6.9901204419719152e+00 
166 167 2 1.0280000000330038e+00 5.5448820430010505e+02 1.0000000000000000e+00 3.0684053097486313e+01 1.4327034901024655e+01 7.9225152921675965e+00 
4233 4234 2 1.0279999999552414e+00 -5.5263390348389294e+02 1.0000000000000000e+00 2.8429579447996645e+01 1.6196757326613621e+01 7.1508580263581401e+00 
4280 4281 2 1.0279999998492946e+00 -1.0155498325944130e+01 1.0000000000000000e+00 2.9788496660396856e+01 1.6141759234387944e+01 7.7908340204292559e+00 
2812 2813 2 1.0280000000281981e+00 1.2088472853789520e+02 1.0000000000000000e+00 3.1369449736345071e+01 1.5850957865849329e+01 8.0228500004189254e+00 
2570 2571 2 1.0280000000000047e+00 2.8561527132146892e+02 1.0000000000000000e+00 3.2869902045371965e+01 1.9437668499055150e+01 8.2976032313297488e+00 
3878 3879 2 1.0280000000000000e+00 -2.0385588365195383e+02 1.0000000000000000e+00 1.8634045995561785e+00 9.9392481169298232e+00 9.7674198890331354e+00 
129 130 2 1.0279999999631113e+00 5.6372452138123492e+02 1.0000000000000000e+00 3.0787742915596997e+01 1.4915442322412099e+01 9.2609891226838474e+00 
208 209 2 1.0280000000000000e+00 -2.7138365510242011e+02 1.0000000000000000e+00 1.8611295721122708e+01 1.7987008083094842e+01 9.5963649748384636e+00 
3033 3034 2 1.0280000000000047e+00 1.9334388921836171e+03 1.0000000000000000e+00 3.1712778473487436e+01 1.9161247749717678e+01 8.8912268506150038e+00 
1353 1354 2 1.0280000000000002e+00 5.7868038929741192e+02 1.0000000000000000e+00 2.1102484690887227e+01 2.5727127235795137e+00 1.0722302787906687e+01 
258 259 2 1.0279999999999998e+00 1.1094760772982129e+03 1.0000000000000000e+00 3.0556679943183898e+01 3.1250622874003606e+00 1.0927091459990299e+01 
1766 1767 2 1.0279999999999998e+00 2.3227402331191620e+01 1.0000000000000000e+00 3.1737364824923837e+01 2.5161163835498601e+00 1.0873235273132179e+01 
1474 1475 2 1.0279999999999998e+00 -2.8670069589269292e+02 1.0000000000000000e+00 1.2740726620273774e+01 4.1865853579757042e+00 1.1045811177230016e+01 
4 5 2 1.0280000000000002e+00 7.3832461936500840e+02 1.0000000000000000e+00 2.1113353105171196e+01 3.9017720850383966e+00 1.0757166579122069e+01 
3837 3838 2 1.0280000000000000e+00 4.4882150077191102e+02 1.0000000000000000e+00 2.5824024280504796e+00 1.0907999288309165e+01 1.0326254107044242e+01 
4332 4333 2 1.0280000000000002e+00 1.1084660038297648e+03 1.0000000000000000e+00 2.5055759768963007e+01 1.5864728411944238e+01 1.0400566900979442e+01 
2816 2817 2 1.0280000000000002e+00 1.7926406410895812e+01 1.0000000000000000e+00 2.6364393707639984e+01 1.5639861068754303e+01 1.0332417908632271e+01 
209 210 2 1.0280000000000000e+00 1.2427794649189670e+02 1.0000000000000000e+00 1.9004876942615972e+01 1.6789041314721118e+01 1.0017911931426383e+01 
1299 1300 2 1.0279999999999985e+00 -1.0193025407420311e+02 1.0000000000000000e+00 2.1391707780386724e+01 1.8270422793681494e+01 1.1419949147307674e+01 
1047 1048 2 1.0279999999999985e+00 -1.0324529363257903e+02 1.0000000000000000e+00 2.2718598628646379e+01 1.8197596761456719e+01 1.1377647392218417e+01 
535 536 2 1.0280036103032562e+00 -1.0932699190407079e+03 1.0000000000000000e+00 3.3129187265780715e+01 1.8036353427269674e+01 1.1327742704687434e+01 
117 118 2 1.0279964023483545e+00 -4.8320879147462034e+02 1.0000000000000000e+00 3.1906422362588707e+01 1.8499806027272793e+01 1.1568177103760458e+01 
970 971 2 1.0279999999999998e+00 -2.3795971550577377e+02 1.0000000000000000e+00 1.3846985254188256e+01 4.3047926899627171e+00 1.1773788686637161e+01 
3689 3690 2 1.0279999999999996e+00 8.4998090742514023e+01 1.0000000000000000e+00 1.9053297939752163e+01 8.2178430445411390e+00 1.3053115943437847e+01 
4361 4362 2 1.0280000000000011e+00 5.4767365564096087e+02 1.0000000000000000e+00 3.3168088560564790e+01 8.9305976055675131e+00 1.2027021860325867e+01 
886 887 2 1.0280000000000005e+00 -6.8016488262361759e+02 1.0000000000000000e+00 1.8081464371258296e+01 1.4589961430087170e+01 1.2894997493523215e+01 
889 890 2 1.0280000000459191e+00 -1.6244447040380061e+02 1.0000000000000000e+00 3.2115529944504935e+01 1.3826742672537790e+01 1.2560669723731339e+01 
384 385 2 1.0280000000000005e+00 -2.9044083298461135e+02 1.0000000000000000e+00 1.9135841315170683e+01 1.5126701180862330e+01 1.2288423431489367e+01 
469 470 2 1.0279999999766289e+00 -2.2687866380403653e+02 1.0000000000000000e+00 3.1292176887587377e+01 1.5058443621367250e+01 1.3098162027495707e+01 
3644 3645 2 1.0280000002140863e+00 4.9047615555172433e+02 1.0000000000000000e+00 2.9611531558422556e+01 1.9396647401877210e+01 1.3051327837793103e+01 
1851 1852 2 1.0279999999999996e+00 4.4522786486195389e+02 1.0000000000000000e+00 2.9486050638292767e+01 4.9602409642507039e+00 1.4761314234884010e+01 
4106 4107 2 1.0279999999999996e+00 -1.0737246974515815e+03 1.0000000000000000e+00 1.8005600501962608e+01 8.2689508891446390e+00 1.3870092356633259e+01 
2384 2385 2 1.0279999999999996e+00 -3.7237288388305657e+01 1.0000000000000000e+00 2.1291448793131320e+01 6.7761367504103402e+00 1.4017559879699531e+01 
2340 2341 2 1.0279999999999996e+00 -1.8688167065022481e+02 1.0000000000000000e+00 2.1616427551812858e+01 8.0650541542467806e+00 1.3989044530468068e+01 
334 335 2 1.0280000000000002e+00 5.6234328853033401e+02 1.0000000000000000e+00 1.7433508579100668e+01 1.1100069601998007e+01 1.4350569774780109e+01 
297 298 2 1.0280000000000002e+00 5.6615455640837195e+02 1.0000000000000000e+00 1.7653151036436721e+01 1.2274074061168660e+01 1.4934695714480831e+01 
2224 2225 2 1.0279999999274640e+00 -3.9369364891424300e+02 1.0000000000000000e+00 3.2256542471210508e+01 1.2727306053773619e+01 1.3780710643004092e+01 
2272 2273 2 1.0280000000172411e+00 -3.6858778167219384e+01 1.0000000000000000e+00 3.2132722116088402e+01 1.4427139547799024e+01 1.4203759436740720e+01 
44 45 2 1.0280000000000007e+00 1.1738375555092267e+02 1.0000000000000000e+00 1.9615792806600499e-01 1.8072423528753660e+01 1.4078661684841894e+01 
1 2 2 1.0280000000000007e+00 1.2973384031450800e+02 1.0000000000000000e+00 1.3205466702533790e+00 1.7375937412039637e+01 1.3943054021653698e+01 
3233 3234 2 1.0280000005212648e+00 5.5856600566094365e+01 1.0000000000000000e+00 2.8334517564195913e+01 1.7260472147348917e+01 1.4984418299457532e+01 
4107 4108 2 1.0279999998493039e+00 -1.1022062839316022e+03 1.0000000000000000e+00 2.8834618155919639e+01 1.7911709016463167e+01 1.3502418534286601e+01 
4527 4528 2 1.0279999999953489e+00 -4.9033648095532038e+02 1.0000000000000000e+00 3.0154399509632444e+01 1.8407176553696921e+01 1.4145597875674168e+01 
3782 3783 2 1.0280000000000005e+00 3.8801964824506507e+02 1.0000000000000000e+00 1.2985368239341094e+01 6.2660862566367586e+00 1.6415073804680464e+01 
1471 1472 2 1.0279999999999996e+00 7.0913233772059826e+01 1.0000000000000000e+00 3.0770021005316554e+01 5.0761465156494410e+00 1.5086457883765869e+01 
1875 1876 2 1.0279999999999985e+00 -1.3583153975743271e+03 1.0000000000000000e+00 1.0817718690768711e+01 9.3832793091204394e+00 1.5693827132124163e+01 
113 114 2 1.0279999999999985e+00 1.8708661038494290e+02 1.0000000000000000e+00 1.1626975503123051e+01 8.6567266208306179e+00 1.6458651945689589e+01 
3448 3449 2 1.0279999999683564e+00 -1.2414499566944605e+03 1.0000000000000000e+00 3.2151172448084708e+01 9.6404477979999434e+00 1.6246264595257923e+01 
3450 3451 2 1.0280000001852316e+00 7.5809257046721939e+02 1.0000000000000000e+00 2.9882221340623040e+01 1.0294785309941782e+01 1.6031216611507467e+01 
4108 4109 2 1.0279999997964662e+00 -9.8612169272439974e+02 1.0000000000000000e+00 3.3178535167636902e+01 1.1117495356092038e+01 1.5440217813047303e+01 
1972 1973 2 1.0280000000873768e+00 -3.9285447550583956e+02 1.0000000000000000e+00 3.1516024979188206e+01 1.2801546376006154e+01 1.5165365237981105e+01 
1140 1141 2 1.0279999998673541e+00 7.5845749964885567e+02 1.0000000000000000e+00 3.0973920487206730e+01 1.1760685457188840e+01 1.6180641652465955e+01 
4272 4273 2 1.0280000002005925e+00 6.8708390965084254e+02 1.0000000000000000e+00 2.8661064861175284e+01 1.6267524419675158e+01 1.6505842567396360e+01 
4572 4573 2 1.0279999995559488e+00 -4.9685506771595078e+02 1.0000000000000000e+00 2.9599374142408763e+01 1.7388948600433142e+01 1.5773663690178083e+01 
2436 2437 2 1.0280000000000014e+00 5.1916965992549240e+02 1.0000000000000000e+00 2.6903624121262194e+01 6.0582145933980047e-01 1.7263430469631054e+01 
3741 3742 2 1.0280000000000005e+00 4.8863121191841503e+02 1.0000000000000000e+00 1.3221192075008963e+01 5.2720157712514766e+00 1.7265922428858239e+01 
766 767 2 1.0280000000215777e+00 8.5646266818701383e+02 1.0000000000000000e+00 3.1011969269081206e+01 7.4866205347443096e+00 1.7173735361616494e+01 
4157 4158 2 1.0279999997652494e+00 9.6835979645180885e+01 1.0000000000000000e+00 2.8885558875338845e+01 9.8468357333058947e+00 1.8270024318449209e+01 
3827 3828 2 1.0280000001309930e+00 -4.0516969748982012e+02 1.0000000000000000e+00 3.0178126856117153e+01 8.7896890734299902e+00 1.7072115027101781e+01 
4462 4463 2 1.0280000000136305e+00 -7.0858176846069568e+02 1.0000000000000000e+00 3.2309931771016537e+01 8.4015175443323891e+00 1.7106741725802124e+01 
90 91 2 1.0279999998133043e+00 4.6876312839682896e+02 1.0000000000000000e+00 2.9470616650704983e+01 1.1212315265435723e+01 1.7044615482789258e+01 
1138 1139 2 1.0280000001552032e+00 -1.2411709399656479e+03 1.0000000000000000e+00 3.2825869411222648e+01 1.0735007699527026e+01 1.7225740039115351e+01 
4111 4112 2 1.0279999998789995e+00 -1.0302845121162836e+03 1.0000000000000000e+00 2.8104806134855306e+01 1.3287005089994119e+01 1.7215101710016260e+01 
1178 1179 2 1.0280000002613778e+00 -2.1407249360790226e+02 1.0000000000000000e+00 3.0009465977995944e+01 1.3178437981331060e+01 1.8304745252658179e+01 
136 137 2 1.0280000001550758e+00 -7.1128684878625131e+02 1.0000000000000000e+00 3.1087579211096045e+01 1.2083116309212686e+01 1.7876711033110070e+01 
2189 2190 2 1.0279999999651486e+00 5.9267143264467029e+02 1.0000000000000000e+00 3.3226371989346909e+01 1.2247272577584747e+01 1.6855308842965030e+01 
4573 4574 2 1.0280000001444316e+00 -2.8594964406249721e+02 1.0000000000000000e+00 2.7372131533626412e+01 1.4247304885256460e+01 1.7780185540914804e+01 
4067 4068 2 1.0280000001568561e+00 3.2830914162690902e+01 1.0000000000000000e+00 2.9431547336910928e+01 1.4967324882106608e+01 1.6791794654911239e+01 
2273 2274 2 1.0279999999045337e+00 -2.7676691755484421e+02 1.0000000000000000e+00 3.3029391912375409e+01 1.3991361488689034e+01 1.6892447362234620e+01 
2187 2188 2 1.0280000001014487e+00 -3.9394979766209042e+02 1.0000000000000000e+00 3.2667266886018361e+01 1.3756431486734316e+01 1.8268028680904912e+01 
2781 2782 2 1.0279999613385160e+00 -9.0749097224711159e+02 1.0000000000000000e+00 2.3625329158423352e+01 1.6227244717450006e+01 1.7899099570256968e+01 
1925 1926 2 1.0280000386311172e+00 -2.7168006966044260e+02 1.0000000000000000e+00 2.5366603334453472e+01 1.7345485432998696e+01 1.7717526396788458e+01 
172 173 2 1.0279999999981950e+00 -3.2060371703497833e+02 1.0000000000000000e+00 2.9930773048820260e+01 1.8498844632223651e+01 1.8073568437356130e+01 
2766 2767 2 1.0280000002359164e+00 7.1982324083799381e+02 1.0000000000000000e+00 2.8518626176733555e+01 9.9339480805959468e+00 1.9584634528653144e+01 
4192 4193 2 1.0279999999615472e+00 -1.7930574052470627e+02 1.0000000000000000e+00 3.0653270194221751e+01 8.6907339418415965e+00 1.8632667005757998e+01 
304 305 2 1.0279999997535512e+00 -7.1074609606802414e+02 1.0000000000000000e+00 3.1572396662843932e+01 1.0088295919074920e+01 1.8498049725734390e+01 
716 717 2 1.0280000002076310e+00 1.8923938584916803e+02 1.0000000000000000e+00 3.0862281052075240e+01 1.1187416800211686e+01 1.9266016102331676e+01 
1935 1936 2 1.0280000000195832e+00 -3.9317485764279218e+02 1.0000000000000000e+00 3.3152770134069904e+01 1.3143888464175740e+01 1.9775647884604304e+01 
931 932 2 1.0280000000000005e+00 5.5647457906800419e+01 1.0000000000000000e+00 2.2165954159566439e+01 1.4191781529002743e+01 1.8915793454060612e+01 
932 933 2 1.0280000000000005e+00 8.6316609495897936e+01 1.0000000000000000e+00 2.0922562272512863e+01 1.4372165252968259e+01 1.8480855849356065e+01 
4109 4110 2 1.0279999998659526e+00 -8.9315414003970659e+02 1.0000000000000000e+00 2.8916774859103661e+01 1.3836405617491224e+01 1.9168494426222075e+01 
2945 2946 2 1.0280000386310171e+00 4.4751365968897460e+02 1.0000000000000000e+00 2.4155837525132196e+01 1.5783923304972047e+01 1.9042331108596613e+01 
4485 4486 2 1.0280000001505192e+00 -7.0189640061326895e+02 1.0000000000000000e+00 2.9478168070872321e+01 1.5052482619193512e+01 1.8353371397320572e+01 
1885 1886 2 1.0279999613384638e+00 -3.6494154305797758e+02 1.0000000000000000e+00 2.5571501854828924e+01 1.7304230503768832e+01 1.9037096773587677e+01 
88 89 2 1.0280000000016474e+00 2.0855813247744155e+02 1.0000000000000000e+00 3.0147916242905552e+01 1.7332879696427728e+01 1.8674490224625188e+01 
2926 2927 2 1.0279996253192567e+00 -3.2442965131312860e+02 1.0000000000000000e+00 6.6475895603416268e-01 5.4424870699445620e+00 2.1054275809862141e+01 
3348 3349 2 1.0280003730407952e+00 -3.6185890828126963e+02 1.0000000000000000e+00 2.4949608498972425e-01 6.5494523911765476e+00 2.0446066258627980e+01 
1680 1681 2 1.0279999999153850e+00 -4.8322607991900213e+01 1.0000000000000000e+00 2.9980581832721580e+01 8.9205811319516712e+00 2.0181655865036252e+01 
2142 2143 2 1.0280000005092165e+00 1.3185194247169426e+02 1.0000000000000000e+00 3.1187774989896024e+01 9.7853161572051217e+00 2.0406160233885785e+01 
2774 2775 2 1.0280000004447798e+00 -1.0930126039880901e+02 1.0000000000000000e+00 3.2915432480128807e+01 9.9383398739720246e+00 2.0308208836852859e+01 
2908 2909 2 1.0279999994798859e+00 2.3463065657922151e+01 1.0000000000000000e+00 3.3310620353221964e+01 1.0796229779879882e+01 2.1604552110057007e+01 
292 293 2 1.0280000000000020e+00 -2.9628189827312235e+02 1.0000000000000000e+00 1.5694693599810385e+01 1.3912925811344245e+01 2.1302976830940111e+01 
969 970 2 1.0280000000094096e+00 1.6117710093374490e+02 1.0000000000000000e+00 2.7052674980562529e+01 1.5781485614952263e+01 2.1119508490768425e+01 
926 927 2 1.0279999999882152e+00 -3.2312597779953262e+02 1.0000000000000000e+00 2.8335753518915141e+01 1.5909343569170201e+01 2.1443690847894196e+01 
2019 2020 2 1.0280000000000011e+00 8.4041807980365661e+02 1.0000000000000000e+00 2.7329946127660076e+01 4.5102223617243062e+00 2.1707892923010768e+01 
2021 2022 2 1.0280000000000011e+00 -1.3092684346616164e+02 1.0000000000000000e+00 2.7464441869254731e+01 4.1384961289720517e+00 2.2977327007957744e+01 
4531 4532 2 1.0279996264983464e+00 4.6177225511655831e+02 1.0000000000000000e+00 6.1102024071409355e-01 7.5386983921837993e+00 2.2730535687444743e+01 
2308 2309 2 1.0279999999016149e+00 4.6078279652231151e+02 1.0000000000000000e+00 3.0575762330057092e+01 7.8080614010592813e+00 2.1799380999331277e+01 
1764 1765 2 1.0280000001063492e+00 7.6203513949750970e+01 1.0000000000000000e+00 2.9397818357181631e+01 8.3808773549446265e+00 2.2073237513484514e+01 
293 294 2 1.0280000000000020e+00 1.0133454542818694e+02 1.0000000000000000e+00 1.5302313178996400e+01 1.4002617805514399e+01 2.2570149015054039e+01 
3315 3316 2 1.0280000000000000e+00 -2.3711920962947056e+02 1.0000000000000000e+00 9.2716591295295849e+00 1.8023798325754139e+01 2.2218563019053530e+01 
2895 2896 2 1.0280000000000000e+00 -2.9099289216555064e+02 1.0000000000000000e+00 1.0243883335643348e+01 1.7228944656078159e+01 2.1781847860743742e+01 
1356 1357 2 1.0280000000101028e+00 8.5059848626385019e+01 1.0000000000000000e+00 2.6679364692659870e+01 1.7753869741220779e+01 2.2429933015768071e+01 
429 430 2 1.0279999999889085e+00 -1.6881961436918243e+02 1.0000000000000000e+00 2.5441999332557398e+01 1.7367727190928498e+01 2.2725827066364147e+01 
3410 3411 2 1.0279999999999880e+00 8.0447287159444113e+02 1.0000000000000000e+00 2.6942047199245810e+01 1.9837160267074556e-02 2.3793821959103411e+01 
2901 2902 2 1.0280000000000005e+00 -2.1281518391845526e+02 1.0000000000000000e+00 2.5959060223171011e+01 6.3949080101378080e+00 2.4871072387765405e+01 
2815 2816 2 1.0280000000000005e+00 -7.1188940382031785e-01 1.0000000000000000e+00 2.5501138040538351e+01 7.4742005271758094e+00 2.4244041822348404e+01 
1371 1372 2 1.0280000000000018e+00 3.6110640402895015e+01 1.0000000000000000e+00 1.9332495571446142e+01 7.4965537746405904e+00 2.5777546327220115e+01 
1372 1373 2 1.0280000000000018e+00 -2.0676914788508505e+01 1.0000000000000000e+00 2.0219226954720448e+01 8.4849101915331815e+00 2.5845306490680059e+01 
2223 2224 2 1.0280000000000000e+00 7.5337151177436994e+01 1.0000000000000000e+00 1.9995516076301183e+01 1.1631898079044950e+01 2.6405110428739125e+01 
2689 2690 2 1.0279999999999985e+00 -4.3280962985225403e+02 1.0000000000000000e+00 3.2031597992722887e+01 1.0962733679401071e+01 2.5970282427635670e+01 
3243 3244 2 1.0280000000000005e+00 5.6252858382678608e+02 1.0000000000000000e+00 3.3320571260123025e+01 1.3998228040236821e+01 2.5311721906224758e+01 
3749 3750 2 1.0280000000000005e+00 -1.0650298011412401e+03 1.0000000000000000e+00 3.2186514013832969e+01 1.4617772846643494e+01 2.5624469068705867e+01 
2610 2611 2 1.0280000000000000e+00 -1.2259630955546590e+03 1.0000000000000000e+00 1.8437138991190078e+01 1.6017313159609106e+01 2.5441965364749791e+01 
2143 2144 2 1.0279999999999996e+00 -6.4655173494340374e+01 1.0000000000000000e+00 2.2897943026983469e+01 1.5041062242852796e+01 2.5177898370243316e+01 
2184 2185 2 1.0279999999999996e+00 -7.0093450696763171e+01 1.0000000000000000e+00 2.3005484069413860e+01 1.6366264902310810e+01 2.5180184897489241e+01 
1096 1097 2 1.0279999999999998e+00 3.7712616205622521e+02 1.0000000000000000e+00 1.0737686857635116e+00 1.7584739844287146e+01 2.6604179673762584e+01 
3030 3031 2 1.0280000000000000e+00 1.4539808707609660e+02 1.0000000000000000e+00 1.8401719198223240e+01 1.6821923853996523e+01 2.6499830886161675e+01 
1599 1600 2 1.0279999999999996e+00 -8.8108706669805724e+02 1.0000000000000000e+00 3.2795995314266278e+01 1.7659361415113860e+01 2.6303697365674122e+01 
959 960 2 1.0280000000000002e+00 1.4087981695630413e+02 1.0000000000000000e+00 2.9942088898610496e+01 4.9413406391720800e+00 2.8106172702954282e+01 
921 922 2 1.0280000000000002e+00 -6.2554528824060526e+02 1.0000000000000000e+00 3.1009629253091134e+01 5.5253199968394942e+00 2.7570394676135191e+01 
2059 2060 2 1.0279999999999996e+00 -3.3947479042436350e+02 1.0000000000000000e+00 2.6037386678373217e+01 9.4202980800612206e+00 2.7618168533462505e+01 
2730 2731 2 1.0279999999999985e+00 -4.3093969842584499e+02 1.0000000000000000e+00 3.1402847955467813e+01 1.0163020297628927e+01 2.6826357360287460e+01 
2222 2223 2 1.0280000000000000e+00 5.9315810388414604e+02 1.0000000000000000e+00 2.0642631723453921e+01 1.2077117877954837e+01 2.7477842017962256e+01 
2481 2482 2 1.0279999999999985e+00 8.3863446720645334e+02 1.0000000000000000e+00 2.4628588862468501e+01 1.5665959966651018e+01 2.6840449439294055e+01 
2483 2484 2 1.0279999999999985e+00 -1.3255616474679738e+02 1.0000000000000000e+00 2.3809956913337238e+01 1.6116936129836095e+01 2.7786068085868283e+01 
170 171 2 1.0280000000000047e+00 1.0060590924859503e+02 1.0000000000000000e+00 3.0542226129596354e+01 1.6117209641034496e+01 2.8160848744672140e+01 
1556 1557 2 1.0279999999999998e+00 3.1904729040253255e+02 1.0000000000000000e+00 1.8991153967524030e+00 1.6680934242608952e+01 2.7123477886433676e+01 
1600 1601 2 1.0279999999999996e+00 -2.1561670323299535e+02 1.0000000000000000e+00 3.2265709562489313e+01 1.8525784993318240e+01 2.7161508298946899e+01 
1470 1471 2 1.0279999999999994e+00 6.8905538342931791e+00 1.0000000000000000e+00 2.5068799839270440e+01 8.6691167162376570e-01 2.9512025847030145e+01 
4291 4292 2 1.0280000000000005e+00 -3.7879562129467581e+02 1.0000000000000000e+00 3.2007673397844101e+01 2.7784987974430635e+00 2.8751417569704380e+01 
4292 4293 2 1.0280000000000005e+00 -1.0326735683553312e+02 1.0000000000000000e+00 3.2096183455301485e+01 4.0244731057150602e+00 2.9206880395304296e+01 
674 675 2 1.0279999999999996e+00 -1.0847165178608980e+03 1.0000000000000000e+00 2.7030509823953583e+01 9.7090317263133485e+00 2.8453675380761176e+01 
3955 3956 2 1.0279999999999998e+00 1.1823391901089681e+02 1.0000000000000000e+00 2.6282680484009312e+01 1.2978780205623265e+01 2.9514308912835581e+01 
171 172 2 1.0280000000000047e+00 -2.9449185803364037e+02 1.0000000000000000e+00 2.9849944272176231e+01 1.5233803716477777e+01 2.8873640576130288e+01 
2521 2522 2 1.0279999999999996e+00 -3.3891857389109668e+02 1.0000000000000000e+00 3.2327047741458934e+01 1.5847372331003260e+01 2.9795413692323205e+01 
891 892 2 1.0279999999999974e+00 -8.3025157437660641e+02 1.0000000000000000e+00 2.3916856814906861e+01 1.8854555250272522e+01 2.8951758369037954e+01 
1552 1553 2 1.0279999999999994e+00 -2.0019587063492838e+02 1.0000000000000000e+00 2.3998665794756473e+01 1.1268263744227045e+00 3.0257002267254016e+01 
2884 2885 2 1.0280000000000000e+00 4.0194318595661730e+02 1.0000000000000000e+00 2.9561929243200360e+01 6.3929417528916579e+00 3.0781372265792164e+01 
70 71 2 1.0280000000000005e+00 -7.3033287197519968e+01 1.0000000000000000e+00 2.0389216715042309e+01 8.0312185572919148e+00 3.1017586411688608e+01 
36 37 2 1.0280000000000005e+00 -1.6687626040540587e+02 1.0000000000000000e+00 2.0720183372169455e+01 7.0723534239525421e+00 3.0158068453420952e+01 
4234 4235 2 1.0280000000000000e+00 6.5114970782933199e+01 1.0000000000000000e+00 2.9258393112944994e+01 7.6578680571800328e+00 3.1056253431020711e+01 
4504 4505 2 1.0279999999999998e+00 -4.8538029781663943e+02 1.0000000000000000e+00 2.6820275910785700e+01 1.2014852899539870e+01 3.0255637246534203e+01 
3952 3953 2 1.0280000000000002e+00 -3.0715266511869589e+02 1.0000000000000000e+00 5.4736484726629451e+00 1.8148007938502602e+01 3.2896552394903260e+01 
2770 2771 2 1.0279999999999998e+00 4.6514973723527794e+02 1.0000000000000000e+00 1.8108213329575673e+00 5.1312159412360558e-01 3.3993318776554709e+01 