LAMMPS data file via write_data, version 30 Jul 2016, timestep = 50400000

2772 atoms
8 atom types

0.0000000000000000e+00 1.0000000000000000e+02 xlo xhi
0.0000000000000000e+00 4.0000000000000000e+01 ylo yhi
0.0000000000000000e+00 4.0000000000000000e+01 zlo zhi

Masses

1 3.896
2 5.36
3 20.064
4 8.378
5 8.378
6 8.378
7 8.378
8 8.378

Atoms # meso-molecular

273 274 2 1.0279999999995650e+00 3.1399282397475990e+03 1.0000000000000000e+00 3.7715579403513874e-02 1.0000000000000000e+01 3.0377336183073939e-01 
233 234 2 1.0279999999880198e+00 -7.8200226898072087e+03 1.0000000000000000e+00 2.2533628124237395e+00 1.0000000000000000e+01 2.4396812749774782e-01 
21 22 2 1.0280000000118221e+00 3.6121580869165257e+02 1.0000000000000000e+00 2.1984798618345023e+00 1.0000000000000000e+01 6.1522881814649222e-01 
221 222 2 1.0279999999995961e+00 6.6289622469127808e+03 1.0000000000000000e+00 5.8405292426067659e+00 1.0000000000000000e+01 4.0298892861733321e-01 
222 223 2 1.0279999999977976e+00 -5.7763725908231127e+03 1.0000000000000000e+00 6.8595929729161398e+00 1.0000000000000000e+01 1.4687406221467085e+00 
316 317 2 1.0279999999994807e+00 1.1380089911967596e+03 1.0000000000000000e+00 8.8746483823153088e+00 1.0000000000000000e+01 8.3210441971078819e-01 
274 275 2 1.0279999999997407e+00 3.4845079535639798e+03 1.0000000000000000e+00 8.4772380324215284e+00 1.0000000000000000e+01 1.5721084604265432e+00 
27 28 2 1.0279999999984624e+00 -2.6771770279356269e+03 1.0000000000000000e+00 1.0435526222260169e+01 1.0000000000000000e+01 2.0571540985166578e-01 
62 63 2 1.0279999999996001e+00 1.9082456610514919e+03 1.0000000000000000e+00 1.2434313221414099e+01 1.0000000000000000e+01 1.2036087195530651e+00 
355 356 2 1.0280000000012008e+00 -6.2529277418490506e+02 1.0000000000000000e+00 1.4195028770065910e+01 1.0000000000000000e+01 5.2433387592236291e-01 
272 273 2 1.0279999999994012e+00 1.5903207928730103e+03 1.0000000000000000e+00 1.5314937061524772e+01 1.0000000000000000e+01 5.2476188117234102e-01 
857 858 2 1.0280000000000149e+00 -8.4014938547779479e+02 1.0000000000000000e+00 4.7830734401300684e-01 1.3400000000000000e+01 4.5282681809488023e-01 
735 736 2 1.0279999999999747e+00 3.1409143855371185e+03 1.0000000000000000e+00 1.5368940150697439e+00 1.3400000000000000e+01 1.6882912877655587e+00 
484 485 2 1.0280000000000049e+00 8.6439547869246121e+02 1.0000000000000000e+00 3.3259040840065617e+00 1.3400000000000000e+01 3.0106223019922379e-01 
695 696 2 1.0279999999999838e+00 -7.8199969652290129e+03 1.0000000000000000e+00 4.5282135200179070e+00 1.3400000000000000e+01 1.4752645548847567e+00 
901 902 2 1.0280000000000009e+00 6.2036499165783425e+02 1.0000000000000000e+00 1.4902562306149903e+01 1.3400000000000000e+01 8.5844353363297110e-01 
475 476 2 1.0280000000000027e+00 2.1077055157990471e+03 1.0000000000000000e+00 1.5401307683082898e+01 1.3400000000000000e+01 9.4243986059961016e-01 
1028 1029 2 1.0279999999999829e+00 6.0125791006751463e+01 1.0000000000000000e+00 1.8191981697026183e-01 1.6800000000000001e+01 6.0020683084144144e-01 
1149 1150 2 1.0279999999999934e+00 -5.8917876147057814e+03 1.0000000000000000e+00 1.7165010566676866e+00 1.6800000000000001e+01 1.1624501065543340e+00 
984 985 2 1.0280000000000147e+00 2.2157785287289616e+03 1.0000000000000000e+00 3.3411534439187185e+00 1.6800000000000001e+01 6.9301568647920619e-01 
942 943 2 1.0279999999999907e+00 -6.3948788106267034e+02 1.0000000000000000e+00 4.5972174090868876e+00 1.6800000000000001e+01 7.1149434284036683e-01 
1349 1350 2 1.0279999999999978e+00 -2.2576037971751782e+02 1.0000000000000000e+00 6.3869271812751673e+00 1.6800000000000001e+01 1.0065740432735835e+00 
1223 1224 2 1.0280000000000040e+00 -7.4536171831239562e+02 1.0000000000000000e+00 7.3267159832846680e+00 1.6800000000000001e+01 1.3726224540803449e+00 
1191 1192 2 1.0280000000000034e+00 2.2480800668240136e+02 1.0000000000000000e+00 8.4420475182184376e+00 1.6800000000000001e+01 5.6231287560591403e-01 
1233 1234 2 1.0280000000000040e+00 1.0644084362112079e+02 1.0000000000000000e+00 9.8353894841204728e+00 1.6800000000000001e+01 3.0488986396894591e-01 
1274 1275 2 1.0279999999999780e+00 2.2480371945021243e+03 1.0000000000000000e+00 1.1152586571062114e+01 1.6800000000000001e+01 5.6317805178437108e-01 
1061 1062 2 1.0279999999999987e+00 -1.3520488862901439e+03 1.0000000000000000e+00 1.2305068455944351e+01 1.6800000000000001e+01 1.7367956355033352e+00 
934 935 2 1.0279999999999889e+00 -2.7965649862880882e+03 1.0000000000000000e+00 1.2679432142603716e+01 1.6800000000000001e+01 9.6055915559554117e-01 
977 978 2 1.0279999999999769e+00 5.0363011672801595e+03 1.0000000000000000e+00 1.4528060336321879e+01 1.6800000000000001e+01 1.4062400387726165e-01 
1317 1318 2 1.0279999999999989e+00 -8.5836650507789571e+01 1.0000000000000000e+00 1.5376570307541693e+01 1.6800000000000001e+01 1.5396535031613965e+00 
1032 1033 2 1.0280000000000009e+00 -8.0030941497460685e+02 1.0000000000000000e+00 1.6608383080063149e+01 1.6800000000000001e+01 2.0594507302677134e-01 
994 995 2 1.0280000000000022e+00 -2.4678070492701207e+02 1.0000000000000000e+00 1.7638312753328439e+01 1.6800000000000001e+01 2.5620241766526475e-01 
1322 1323 2 1.0280000000000000e+00 1.8719264759800908e+03 1.0000000000000000e+00 1.7284053783621584e+01 1.6800000000000001e+01 1.6378768687946532e+00 
1326 1327 2 1.0280000000000102e+00 3.8275416221701930e+03 1.0000000000000000e+00 1.9539639873203306e+01 1.6800000000000001e+01 8.7794527552787027e-01 
1325 1326 2 1.0279999999999918e+00 1.7245607010502113e+03 1.0000000000000000e+00 1.9431585807772972e+01 1.6800000000000001e+01 1.3375052412893713e+00 
307 308 2 1.0280000000028289e+00 1.2946496445620833e+03 1.0000000000000000e+00 6.5967168561020051e-01 1.0000000000000000e+01 3.4342281965855803e+00 
6 7 2 1.0280000000000737e+00 4.1772052458123903e+02 1.0000000000000000e+00 1.7615556046165795e+00 1.0000000000000000e+01 3.3576678376522824e+00 
128 129 2 1.0279999999985321e+00 9.0834320678204222e+02 1.0000000000000000e+00 3.3649458846512199e+00 1.0000000000000000e+01 2.9120336998276288e+00 
347 348 2 1.0280000000030627e+00 -4.5476987426867017e+03 1.0000000000000000e+00 4.2081180925994142e+00 1.0000000000000000e+01 2.3972260757578581e+00 
218 219 2 1.0279999999993097e+00 -2.9502017825330140e+03 1.0000000000000000e+00 5.6262418813195296e+00 1.0000000000000000e+01 2.6542340524427108e+00 
220 221 2 1.0280000000025733e+00 -6.1055937944647167e+02 1.0000000000000000e+00 6.9016820577661120e+00 1.0000000000000000e+01 3.1608103814544259e+00 
186 187 2 1.0279999999988594e+00 4.5892496037993478e+03 1.0000000000000000e+00 8.1515220342633103e+00 1.0000000000000000e+01 3.6613428236975447e+00 
442 443 2 1.0280000000003693e+00 8.8061211685335843e+02 1.0000000000000000e+00 9.5122145620311578e+00 1.0000000000000000e+01 3.7175155316333464e+00 
16 17 2 1.0279999999995753e+00 -2.5953184897902338e+03 1.0000000000000000e+00 1.2067024715640221e+01 1.0000000000000000e+01 2.0347276057171495e+00 
57 58 2 1.0279999999990681e+00 -7.1871714682264468e+01 1.0000000000000000e+00 1.2908516728103054e+01 1.0000000000000000e+01 3.1744714655760018e+00 
312 313 2 1.0280000000006524e+00 5.7547567128219873e+02 1.0000000000000000e+00 1.4508960245096944e+01 1.0000000000000000e+01 2.6037776828568377e+00 
144 145 2 1.0279999999995559e+00 5.0529214087565708e+02 1.0000000000000000e+00 1.5202108749899999e+01 1.0000000000000000e+01 2.1847073013219678e+00 
856 857 2 1.0279999999999703e+00 3.8925822328090544e+03 1.0000000000000000e+00 5.3863779472125450e-01 1.3400000000000000e+01 2.5653813135011156e+00 
777 778 2 1.0279999999999982e+00 6.5851643771708814e+02 1.0000000000000000e+00 1.8758982945382663e+00 1.3400000000000000e+01 3.0410502613308550e+00 
858 859 2 1.0280000000000009e+00 2.2618819096362276e+03 1.0000000000000000e+00 3.6692403209635129e+00 1.3400000000000000e+01 3.9552927338572341e+00 
483 484 2 1.0280000000000160e+00 3.6180381001746321e+02 1.0000000000000000e+00 4.3925496135270210e+00 1.3400000000000000e+01 2.2033086333454710e+00 
697 698 2 1.0280000000000067e+00 -8.0649782165735178e+03 1.0000000000000000e+00 7.1279737277227335e+00 1.3400000000000000e+01 2.9929480790037721e+00 
694 695 2 1.0280000000000071e+00 -5.6937001913128561e+03 1.0000000000000000e+00 6.0567483154753763e+00 1.3400000000000000e+01 3.0452974594007522e+00 
478 479 2 1.0279999999999943e+00 -2.5953419707617431e+03 1.0000000000000000e+00 1.4528845920319503e+01 1.3400000000000000e+01 2.7916087125511142e+00 
524 525 2 1.0279999999999991e+00 1.9053387621755032e+03 1.0000000000000000e+00 1.5416326042790033e+01 1.3400000000000000e+01 3.0741504649554501e+00 
1197 1198 2 1.0280000000000091e+00 3.1384837162896893e+03 1.0000000000000000e+00 9.7354659681188482e-01 1.6800000000000001e+01 3.8204338708551639e+00 
1153 1154 2 1.0280000000000036e+00 -1.1049601578318576e+04 1.0000000000000000e+00 1.5629596431225017e+00 1.6800000000000001e+01 2.2304553432603522e+00 
1154 1155 2 1.0279999999999863e+00 -7.8268042624972077e+03 1.0000000000000000e+00 2.7445214900816315e+00 1.6800000000000001e+01 3.5224731593593313e+00 
982 983 2 1.0280000000000065e+00 3.7720308065371410e+03 1.0000000000000000e+00 4.6561457825264752e+00 1.6800000000000001e+01 2.2134221694468215e+00 
1071 1072 2 1.0280000000000009e+00 4.8397948421276692e+02 1.0000000000000000e+00 3.9521448281482487e+00 1.6800000000000001e+01 3.1633761829537237e+00 
1024 1025 2 1.0279999999999965e+00 2.5880032208205876e+03 1.0000000000000000e+00 5.9792234683269170e+00 1.6800000000000001e+01 3.3534682846016457e+00 
1025 1026 2 1.0279999999999978e+00 2.2505115339674721e+03 1.0000000000000000e+00 6.6631907713593623e+00 1.6800000000000001e+01 3.6404224063851292e+00 
1065 1066 2 1.0280000000000022e+00 8.1828382277878831e+01 1.0000000000000000e+00 9.3470894991863851e+00 1.6800000000000001e+01 2.5039484524302478e+00 
1022 1023 2 1.0280000000000018e+00 2.2584041250859382e+03 1.0000000000000000e+00 1.0285946438771159e+01 1.6800000000000001e+01 2.4695430349966681e+00 
1113 1114 2 1.0279999999999978e+00 3.3181293126179589e+03 1.0000000000000000e+00 1.1226814236706996e+01 1.6800000000000001e+01 3.7877004210158804e+00 
1370 1371 2 1.0279999999999985e+00 -2.6033835172299350e+03 1.0000000000000000e+00 1.3464074873082632e+01 1.6800000000000001e+01 3.4033317245934964e+00 
1371 1372 2 1.0279999999999938e+00 -2.6954625139813079e+03 1.0000000000000000e+00 1.3249838901731627e+01 1.6800000000000001e+01 3.8554569067545144e+00 
1360 1361 2 1.0280000000000000e+00 -2.5648612734189874e+03 1.0000000000000000e+00 1.5599595106845239e+01 1.6800000000000001e+01 2.5379622553747705e+00 
1073 1074 2 1.0279999999999974e+00 1.2367481357129845e+03 1.0000000000000000e+00 1.7436650448364567e+01 1.6800000000000001e+01 3.2318986380395942e+00 
1075 1076 2 1.0279999999999938e+00 4.8086068890040008e+02 1.0000000000000000e+00 1.6695543238990503e+01 1.6800000000000001e+01 3.6374987940973136e+00 
84 85 2 1.0279999999992837e+00 -4.9810047610654988e+02 1.0000000000000000e+00 1.6295193753725459e+00 1.0000000000000000e+01 4.9717799706083552e+00 
47 48 2 1.0280000000038090e+00 -3.6031225808386507e+03 1.0000000000000000e+00 3.1764016502076915e+00 1.0000000000000000e+01 4.6947281895270265e+00 
211 212 2 1.0279999999971641e+00 2.0625661951188010e+02 1.0000000000000000e+00 4.8854154298811299e+00 1.0000000000000000e+01 4.2162231562133226e+00 
4 5 2 1.0279999999977754e+00 -3.2981804553832562e+03 1.0000000000000000e+00 4.2258195339655211e+00 1.0000000000000000e+01 5.6056182789487101e+00 
296 297 2 1.0280000000055585e+00 9.9828951165174158e+02 1.0000000000000000e+00 5.9027020196025743e+00 1.0000000000000000e+01 5.2226204333209036e+00 
95 96 2 1.0279999999964291e+00 -4.5440925835282123e+03 1.0000000000000000e+00 7.2594807420238032e+00 1.0000000000000000e+01 5.0889705946903758e+00 
139 140 2 1.0280000000060696e+00 1.3203721131479870e+03 1.0000000000000000e+00 8.6627416329737486e+00 1.0000000000000000e+01 5.5841613882004042e+00 
441 442 2 1.0279999999998159e+00 8.6998862362389588e+01 1.0000000000000000e+00 1.0548201862443197e+01 1.0000000000000000e+01 4.0074562189053813e+00 
271 272 2 1.0279999999970291e+00 4.1663181916271869e+03 1.0000000000000000e+00 1.0297603618001547e+01 1.0000000000000000e+01 5.7195826337325606e+00 
227 228 2 1.0280000000027418e+00 -9.1250065964402256e+03 1.0000000000000000e+00 1.1291869569298340e+01 1.0000000000000000e+01 5.2858600515460399e+00 
390 391 2 1.0279999999985483e+00 -2.4539492553497206e+02 1.0000000000000000e+00 1.3295530686869879e+01 1.0000000000000000e+01 4.3435446281471952e+00 
392 393 2 1.0279999999991594e+00 5.7648317444489530e+03 1.0000000000000000e+00 1.3073745550443430e+01 1.0000000000000000e+01 5.4733921700695465e+00 
900 901 2 1.0280000000000074e+00 -6.6100775622610058e+02 1.0000000000000000e+00 1.3959957471414941e+00 1.3400000000000000e+01 4.4863122786995682e+00 
525 526 2 1.0279999999999858e+00 1.6687720059545893e+02 1.0000000000000000e+00 4.7691887665775146e-01 1.3400000000000000e+01 5.4091798181301725e+00 
482 483 2 1.0280000000000047e+00 -7.9553742540047296e+01 1.0000000000000000e+00 2.7861603009360576e+00 1.3400000000000000e+01 4.9815055985774404e+00 
809 810 2 1.0279999999999991e+00 -4.5408102246283070e+03 1.0000000000000000e+00 4.4696432249973004e+00 1.3400000000000000e+01 4.8182071733485836e+00 
683 684 2 1.0280000000000009e+00 6.6323352229450647e+03 1.0000000000000000e+00 6.4390203934616608e+00 1.3400000000000000e+01 4.4266436084342518e+00 
684 685 2 1.0280000000000060e+00 -5.7797332552378184e+03 1.0000000000000000e+00 7.3634308198521445e+00 1.3400000000000000e+01 5.8532906621975140e+00 
736 737 2 1.0279999999999960e+00 3.4851621164589205e+03 1.0000000000000000e+00 8.2965160735720556e+00 1.3400000000000000e+01 4.0696426881133352e+00 
778 779 2 1.0279999999999980e+00 1.1377288980109147e+03 1.0000000000000000e+00 9.2747704374987343e+00 1.3400000000000000e+01 4.1993241122560390e+00 
912 913 2 1.0280000000000109e+00 1.8714471504143276e+03 1.0000000000000000e+00 1.0188522943480987e+01 1.3400000000000000e+01 5.3964406771189291e+00 
486 487 2 1.0280000000000011e+00 1.2719588727993143e+03 1.0000000000000000e+00 1.1106975255281798e+01 1.3400000000000000e+01 4.1332791399930695e+00 
488 489 2 1.0280000000000042e+00 -2.5712944891714205e+03 1.0000000000000000e+00 1.2327048669016333e+01 1.3400000000000000e+01 4.5462398336729422e+00 
489 490 2 1.0279999999999869e+00 -2.6772361251245811e+03 1.0000000000000000e+00 1.1439479037275845e+01 1.3400000000000000e+01 5.6374961356524969e+00 
601 602 2 1.0279999999999929e+00 1.3202148961762223e+03 1.0000000000000000e+00 1.3943220946825424e+01 1.3400000000000000e+01 4.2663547150166430e+00 
648 649 2 1.0280000000000040e+00 4.5845264763483656e+03 1.0000000000000000e+00 1.3734527057052807e+01 1.3400000000000000e+01 5.9619061753020013e+00 
519 520 2 1.0280000000000027e+00 -7.1775677538752632e+01 1.0000000000000000e+00 1.4939189887664838e+01 1.3400000000000000e+01 5.2579917599854964e+00 
861 862 2 1.0280000000000014e+00 2.2457837655940290e+02 1.0000000000000000e+00 1.6464585910534552e+01 1.3400000000000000e+01 4.3522224625797366e+00 
902 903 2 1.0280000000000022e+00 -3.7593067198479801e+01 1.0000000000000000e+00 1.7238478619563924e+01 1.3400000000000000e+01 4.9003188300104927e+00 
1110 1111 2 1.0280000000000067e+00 4.5906732928151987e+03 1.0000000000000000e+00 1.7543664396171483e+00 1.6800000000000001e+01 5.2828901293476962e+00 
1362 1363 2 1.0279999999999856e+00 -6.6133609010829923e+02 1.0000000000000000e+00 1.1323641371973325e-01 1.6800000000000001e+01 5.9536972799837935e+00 
1063 1064 2 1.0279999999999898e+00 1.3213470245002372e+03 1.0000000000000000e+00 3.0780035274668993e+00 1.6800000000000001e+01 5.0411191256769179e+00 
1027 1028 2 1.0280000000000058e+00 -6.7454973775238250e+02 1.0000000000000000e+00 8.2396361392627835e+00 1.6800000000000001e+01 4.0154323216097785e+00 
1112 1113 2 1.0280000000000007e+00 1.6078122623216327e+03 1.0000000000000000e+00 9.1112000022177622e+00 1.6800000000000001e+01 4.1558268432294794e+00 
983 984 2 1.0280000000000007e+00 -7.5524945089094786e+02 1.0000000000000000e+00 1.1148467071248968e+01 1.6800000000000001e+01 4.6941820707000268e+00 
132 133 2 1.0279999999984961e+00 -1.7519503359939249e+03 1.0000000000000000e+00 9.8363310565408379e-01 1.0000000000000000e+01 6.2959318109035811e+00 
87 88 2 1.0280000000000888e+00 3.8496257431523291e+03 1.0000000000000000e+00 2.4954469483015722e+00 1.0000000000000000e+01 6.4516623614364059e+00 
36 37 2 1.0279999999987683e+00 -1.0026878065045913e+03 1.0000000000000000e+00 2.2606164758598455e+00 1.0000000000000000e+01 7.8630001486148933e+00 
35 36 2 1.0279999999996239e+00 -1.8606436933085897e+03 1.0000000000000000e+00 4.8592693727991261e+00 1.0000000000000000e+01 7.1691877891817501e+00 
7 8 2 1.0279999999986260e+00 -1.3886856040956259e+03 1.0000000000000000e+00 6.6398211571722019e+00 1.0000000000000000e+01 6.8187937917779733e+00 
163 164 2 1.0279999999996130e+00 -1.6851921125697095e+03 1.0000000000000000e+00 5.9342095557746601e+00 1.0000000000000000e+01 7.9774491012587543e+00 
343 344 2 1.0279999999961977e+00 -1.3639683775603226e+03 1.0000000000000000e+00 8.7253875367019340e+00 1.0000000000000000e+01 6.8720103368984331e+00 
422 423 2 1.0280000000036857e+00 -2.0467725780930763e+02 1.0000000000000000e+00 7.7944656593448896e+00 1.0000000000000000e+01 7.9054101287689607e+00 
303 304 2 1.0280000000005052e+00 2.5169221578447105e+03 1.0000000000000000e+00 1.1487195299512521e+01 1.0000000000000000e+01 7.9099079412069058e+00 
223 224 2 1.0279999999993426e+00 -8.4752716105966392e+03 1.0000000000000000e+00 1.2954232894699626e+01 1.0000000000000000e+01 6.8234968583092073e+00 
224 225 2 1.0279999999998286e+00 -1.0396778216216928e+04 1.0000000000000000e+00 1.2975092391415030e+01 1.0000000000000000e+01 7.9730404582603631e+00 
65 66 2 1.0279999999994851e+00 1.5706817258882829e+03 1.0000000000000000e+00 1.6109995747528941e+01 1.0000000000000000e+01 6.5913776703695017e+00 
66 67 2 1.0279999999999854e+00 3.8981531291900856e+03 1.0000000000000000e+00 1.6451077236049937e+01 1.0000000000000000e+01 6.8458301473274501e+00 
590 591 2 1.0279999999999838e+00 9.1837869206190635e+02 1.0000000000000000e+00 1.3362099715520475e+00 1.3400000000000000e+01 6.8687473677146915e+00 
509 510 2 1.0279999999999978e+00 -3.5917262144500637e+03 1.0000000000000000e+00 2.8740970229116773e+00 1.3400000000000000e+01 6.7698550021316075e+00 
517 518 2 1.0280000000000058e+00 6.8244898239615231e+03 1.0000000000000000e+00 3.6616482658292555e+00 1.3400000000000000e+01 7.8038234086338969e+00 
673 674 2 1.0280000000000014e+00 2.0964342788371903e+02 1.0000000000000000e+00 4.5183605785311682e+00 1.3400000000000000e+01 6.5200708454244829e+00 
557 558 2 1.0280000000000016e+00 -4.5454152490223478e+03 1.0000000000000000e+00 5.8162112697471988e+00 1.3400000000000000e+01 6.0423214906653007e+00 
680 681 2 1.0279999999999931e+00 -2.9465334301378480e+03 1.0000000000000000e+00 7.0982039864547994e+00 1.3400000000000000e+01 7.2833405411914169e+00 
904 905 2 1.0280000000000011e+00 8.8025005010505902e+02 1.0000000000000000e+00 8.6480539216875965e+00 1.3400000000000000e+01 6.7294860432716481e+00 
903 904 2 1.0280000000000020e+00 8.6713950953010823e+01 1.0000000000000000e+00 9.4774091435121619e+00 1.3400000000000000e+01 7.6274904540507356e+00 
854 855 2 1.0279999999999934e+00 5.7651532364763152e+03 1.0000000000000000e+00 1.4115715092826715e+01 1.3400000000000000e+01 7.4748037225515027e+00 
852 853 2 1.0279999999999971e+00 -2.4551779767387887e+02 1.0000000000000000e+00 1.5024399673222243e+01 1.3400000000000000e+01 6.9771179332651831e+00 
817 818 2 1.0280000000000038e+00 -6.2331111649042396e+02 1.0000000000000000e+00 1.6941863991283128e+01 1.3400000000000000e+01 6.4485059252345325e+00 
734 735 2 1.0280000000000020e+00 1.5888689235280131e+03 1.0000000000000000e+00 1.8056681483697627e+01 1.3400000000000000e+01 6.5210734964562942e+00 
1320 1321 2 1.0279999999999965e+00 2.2668293658119774e+03 1.0000000000000000e+00 1.4399943757834508e+00 1.6800000000000001e+01 6.8114163115314410e+00 
1231 1232 2 1.0279999999999996e+00 1.2947998959770130e+03 1.0000000000000000e+00 2.6322392673751254e+00 1.6800000000000001e+01 7.4125555835028987e+00 
1282 1283 2 1.0279999999999985e+00 9.9111978590143326e+02 1.0000000000000000e+00 3.9395291874445379e+00 1.6800000000000001e+01 6.1422474613015856e+00 
1237 1238 2 1.0279999999999978e+00 -1.4575648801750972e+03 1.0000000000000000e+00 4.9739726578359811e+00 1.6800000000000001e+01 6.5600569285302832e+00 
1052 1053 2 1.0279999999999914e+00 9.1100897900189398e+02 1.0000000000000000e+00 5.6707757507817984e+00 1.6800000000000001e+01 7.5576276143583021e+00 
1271 1272 2 1.0280000000000089e+00 -4.5483741567873349e+03 1.0000000000000000e+00 7.3290969326076612e+00 1.6800000000000001e+01 7.2098229806603564e+00 
1135 1136 2 1.0279999999999903e+00 2.1165319658227943e+02 1.0000000000000000e+00 8.5919825644141721e+00 1.6800000000000001e+01 7.4516319893349401e+00 
1277 1278 2 1.0279999999999989e+00 2.2279152603466750e+03 1.0000000000000000e+00 1.0024731145747220e+01 1.6800000000000001e+01 6.2487579988165152e+00 
1276 1277 2 1.0280000000000034e+00 2.5247775758084081e+03 1.0000000000000000e+00 1.0729799537083313e+01 1.6800000000000001e+01 6.2945403810668834e+00 
90 91 2 1.0280000000035925e+00 2.3962442466320688e+01 1.0000000000000000e+00 7.0105567127450552e-01 1.0000000000000000e+01 8.1120925770926746e+00 
251 252 2 1.0279999999968465e+00 -4.7160997746063822e+03 1.0000000000000000e+00 8.6149146983125158e-01 1.0000000000000000e+01 9.6086497965639719e+00 
121 122 2 1.0280000000028480e+00 2.0290779410541217e+02 1.0000000000000000e+00 3.5871128224532507e+00 1.0000000000000000e+01 8.0099279047881833e+00 
294 295 2 1.0279999999971794e+00 1.7821277260015308e+03 1.0000000000000000e+00 4.6048723261769107e+00 1.0000000000000000e+01 9.1478131902995088e+00 
173 174 2 1.0280000000022902e+00 2.8348425254943318e+03 1.0000000000000000e+00 9.0201916402323512e+00 1.0000000000000000e+01 8.6362511372561617e+00 
219 220 2 1.0279999999984673e+00 1.3564210263005834e+03 1.0000000000000000e+00 1.0558700568963033e+01 1.0000000000000000e+01 8.4527330215805083e+00 
432 433 2 1.0280000000000626e+00 3.9084509608587005e+03 1.0000000000000000e+00 1.2325306910315788e+01 1.0000000000000000e+01 9.7638587475105254e+00 
30 31 2 1.0280000000004077e+00 1.8131558925030131e+03 1.0000000000000000e+00 1.4170759018014035e+01 1.0000000000000000e+01 9.7386845815883216e+00 
444 445 2 1.0280000000002727e+00 1.1481222247342123e+03 1.0000000000000000e+00 1.4827828605320217e+01 1.0000000000000000e+01 8.2394436293399647e+00 
319 320 2 1.0279999999993230e+00 5.0069559086584979e+02 1.0000000000000000e+00 1.5532564130110869e+01 1.0000000000000000e+01 8.9233438582826192e+00 
642 643 2 1.0280000000000558e+00 -1.8353285443290147e+03 1.0000000000000000e+00 1.3456812470818884e+00 1.3400000000000000e+01 8.1868030075500631e+00 
507 508 2 1.0279999999999843e+00 -1.5264947715343696e+03 1.0000000000000000e+00 1.7320418172484024e+00 1.3400000000000000e+01 9.7226766946898540e+00 
594 595 2 1.0280000000000096e+00 -1.7521062035612676e+03 1.0000000000000000e+00 3.0635619768343356e+00 1.3400000000000000e+01 9.2928270161315165e+00 
546 547 2 1.0279999999999974e+00 -4.9794094720236535e+02 1.0000000000000000e+00 4.8792616537967044e+00 1.3400000000000000e+01 9.3444816857974864e+00 
635 636 2 1.0280000000000011e+00 2.8438101618022029e+03 1.0000000000000000e+00 5.5967149294399485e+00 1.3400000000000000e+01 8.2454303840257133e+00 
587 588 2 1.0279999999999936e+00 -1.8507299891278249e+03 1.0000000000000000e+00 6.7408294561941355e+00 1.3400000000000000e+01 9.0199016082555730e+00 
682 683 2 1.0280000000000009e+00 -6.0897207194509701e+02 1.0000000000000000e+00 8.3032513016652061e+00 1.3400000000000000e+01 8.6752711990573061e+00 
689 690 2 1.0279999999999978e+00 -9.1249141298463892e+03 1.0000000000000000e+00 1.0327377611406344e+01 1.3400000000000000e+01 8.8051535473209110e+00 
733 734 2 1.0279999999999974e+00 4.1675176180822464e+03 1.0000000000000000e+00 1.0344776378193137e+01 1.3400000000000000e+01 9.8425829294771034e+00 
906 907 2 1.0280000000000025e+00 1.1480105698796021e+03 1.0000000000000000e+00 1.3949786115099297e+01 1.3400000000000000e+01 9.1495932776014719e+00 
774 775 2 1.0280000000000007e+00 5.7552790277954239e+02 1.0000000000000000e+00 1.7497021675273785e+01 1.3400000000000000e+01 8.1922896478289484e+00 
606 607 2 1.0280000000000047e+00 5.0508232219623039e+02 1.0000000000000000e+00 1.8287439863376324e+01 1.3400000000000000e+01 8.0979768521981850e+00 
975 976 2 1.0279999999999985e+00 3.2719354242446711e+03 1.0000000000000000e+00 8.9244117473760631e-01 1.6800000000000001e+01 9.4499791796963883e+00 
1104 1105 2 1.0280000000000062e+00 -1.8295808036411945e+03 1.0000000000000000e+00 1.6555480584539084e+00 1.6800000000000001e+01 8.5707937190800276e+00 
979 980 2 1.0279999999999989e+00 6.8215424360399365e+03 1.0000000000000000e+00 3.5296520395413755e+00 1.6800000000000001e+01 8.7022819640086215e+00 
930 931 2 1.0279999999999982e+00 4.1530986942812876e+02 1.0000000000000000e+00 4.8242026668856628e+00 1.6800000000000001e+01 8.8529587657558793e+00 
971 972 2 1.0280000000000087e+00 -3.5884925543843001e+03 1.0000000000000000e+00 7.2303917875079726e+00 1.6800000000000001e+01 8.5217802724187948e+00 
1220 1221 2 1.0280000000000009e+00 1.0006695643532721e+03 1.0000000000000000e+00 8.6862880781170375e+00 1.6800000000000001e+01 8.8366005245597545e+00 
1089 1090 2 1.0279999999999987e+00 -3.2801907453519902e+02 1.0000000000000000e+00 1.0136338743573994e+01 1.6800000000000001e+01 9.5965119535805723e+00 
1019 1020 2 1.0280000000000016e+00 -4.5407222330925724e+03 1.0000000000000000e+00 1.1280300027676857e+01 1.6800000000000001e+01 8.7306230991228073e+00 
1142 1143 2 1.0279999999999929e+00 -2.9508817351418757e+03 1.0000000000000000e+00 1.1672900129633998e+01 1.6800000000000001e+01 9.5235140114557293e+00 
298 299 2 1.0280000000017528e+00 -3.4171874180797431e+02 1.0000000000000000e+00 1.1556010665270190e-01 1.0000000000000000e+01 1.1255333346035924e+01 
339 340 2 1.0279999999991332e+00 3.7724960344104779e+03 1.0000000000000000e+00 1.4472008103515843e+00 1.0000000000000000e+01 1.1781617144579297e+01 
333 334 2 1.0280000000023850e+00 -3.0570683328429982e+02 1.0000000000000000e+00 1.9473378859733423e+00 1.0000000000000000e+01 1.0115216142044662e+01 
253 254 2 1.0279999999991927e+00 1.8091959710199621e+03 1.0000000000000000e+00 3.3824794379762215e+00 1.0000000000000000e+01 1.0255465917159848e+01 
424 425 2 1.0279999999992104e+00 -3.2852787020458381e+03 1.0000000000000000e+00 3.6138041206857410e+00 1.0000000000000000e+01 1.1480282453317486e+01 
262 263 2 1.0280000000038403e+00 1.5131984692643632e+03 1.0000000000000000e+00 5.4223518996419786e+00 1.0000000000000000e+01 1.0246111846804622e+01 
212 213 2 1.0279999999988587e+00 -4.5525054153190886e+03 1.0000000000000000e+00 6.8650028092646975e+00 1.0000000000000000e+01 1.0004931666106952e+01 
119 120 2 1.0279999999947145e+00 1.7411896310198865e+03 1.0000000000000000e+00 6.0492322229256361e+00 1.0000000000000000e+01 1.1625694952908390e+01 
383 384 2 1.0279999999970779e+00 -3.5761946062865609e+03 1.0000000000000000e+00 8.2559844973420429e+00 1.0000000000000000e+01 1.0193817582329839e+01 
388 389 2 1.0280000000047642e+00 3.6622105599491952e+03 1.0000000000000000e+00 7.4926406680347712e+00 1.0000000000000000e+01 1.1460444106867454e+01 
52 53 2 1.0280000000003355e+00 3.7820702677989157e+03 1.0000000000000000e+00 9.9982835416793101e+00 1.0000000000000000e+01 1.0039788280486393e+01 
426 427 2 1.0280000000003486e+00 2.5152946015384094e+02 1.0000000000000000e+00 9.8907302480914261e+00 1.0000000000000000e+01 1.1213556977130331e+01 
261 262 2 1.0279999999992320e+00 1.8437249702098654e+02 1.0000000000000000e+00 1.2104738141985885e+01 1.0000000000000000e+01 1.0586542365666636e+01 
317 318 2 1.0279999999994038e+00 1.2065188027998122e+03 1.0000000000000000e+00 1.5070113028283997e+01 1.0000000000000000e+01 1.0625813140798874e+01 
550 551 2 1.0279999999999985e+00 -8.4336891210301690e+02 1.0000000000000000e+00 1.8309224146368370e+00 1.3400000000000000e+01 1.1181164070646634e+01 
552 553 2 1.0280000000000087e+00 4.8430828028761702e+01 1.0000000000000000e+00 3.3620941748497426e+00 1.3400000000000000e+01 1.0765009079639958e+01 
549 550 2 1.0279999999999976e+00 3.8501738297612869e+03 1.0000000000000000e+00 5.2394535647719662e+00 1.3400000000000000e+01 1.0777968545441860e+01 
498 499 2 1.0279999999999954e+00 -9.7630217620591475e+02 1.0000000000000000e+00 4.3920450122943002e+00 1.3400000000000000e+01 1.1870841163043650e+01 
466 467 2 1.0279999999999865e+00 -3.3068040064733768e+03 1.0000000000000000e+00 6.8903080777385028e+00 1.3400000000000000e+01 1.0666463594392185e+01 
758 759 2 1.0280000000000036e+00 1.0135248062590256e+03 1.0000000000000000e+00 8.7731415275769713e+00 1.3400000000000000e+01 1.0022306476628403e+01 
469 470 2 1.0280000000000027e+00 -1.3977719707143151e+03 1.0000000000000000e+00 8.2506590519741785e+00 1.3400000000000000e+01 1.1517768062141345e+01 
681 682 2 1.0280000000000020e+00 1.3617739294691155e+03 1.0000000000000000e+00 9.9931099364351343e+00 1.3400000000000000e+01 1.1476714577019555e+01 
492 493 2 1.0280000000000011e+00 1.8130583919439919e+03 1.0000000000000000e+00 1.2876694928153286e+01 1.3400000000000000e+01 1.0325111219278261e+01 
781 782 2 1.0279999999999989e+00 5.0079514662969348e+02 1.0000000000000000e+00 1.4492859738057968e+01 1.3400000000000000e+01 1.0057877951072763e+01 
779 780 2 1.0279999999999998e+00 1.2065226655900265e+03 1.0000000000000000e+00 1.3431024890771546e+01 1.3400000000000000e+01 1.1198001240080817e+01 
1057 1058 2 1.0280000000000016e+00 9.8088081167573318e+02 1.0000000000000000e+00 9.0578025564923037e-01 1.6800000000000001e+01 1.0829504838395652e+01 
969 970 2 1.0280000000000049e+00 -1.5485571111184736e+03 1.0000000000000000e+00 2.0256067417480259e+00 1.6800000000000001e+01 1.1305183793570020e+01 
1056 1057 2 1.0280000000000058e+00 -1.7442233182830373e+03 1.0000000000000000e+00 3.3005367241322361e+00 1.6800000000000001e+01 1.0200997681721871e+01 