LAMMPS data file via write_data, version 30 Jul 2016, timestep = 50000000

644 atoms
2 atom types

0.0000000000000000e+00 2.0000000000000000e+01 xlo xhi
0.0000000000000000e+00 2.0000000000000000e+01 ylo yhi
0.0000000000000000e+00 2.0000000000000000e+01 zlo zhi

Masses

1 4.31
2 3.896

Atoms # meso-molecular

315 0 1 1.0279999999999461e+00 -2.0729857399694204e+01 1.0000000000000000e+00 2.2620193274478897e+00 1.3262191001105488e+00 3.2674737154907318e+00 
477 0 1 1.0279999999998415e+00 -1.9301498521524600e+01 1.0000000000000000e+00 1.8454529136015454e+00 1.1743272403416207e+00 2.2535671274747271e+00 
124 0 1 1.0279999999998843e+00 4.5907279183885032e+00 1.0000000000000000e+00 1.8855368344798527e+00 8.6189890286099469e-01 2.0700586300124395e+00 
459 0 1 1.0279999999999545e+00 -8.0431709493316195e-01 1.0000000000000000e+00 1.8454892413051256e+00 7.9149556339435900e-01 2.0274481035655354e+00 
312 0 1 1.0279999999999927e+00 5.5609226877724343e+00 1.0000000000000000e+00 1.7982070218788990e+00 7.2090911159551629e-01 1.9904796106521094e+00 
392 0 1 1.0279999999999074e+00 -2.2540285450419148e+01 1.0000000000000000e+00 1.6790285526775894e+00 5.5012451699154097e-01 1.9327590916142543e+00 
448 0 1 1.0279999999998457e+00 -2.1090961751171207e+01 1.0000000000000000e+00 5.4347076572432416e+00 9.4839495198924084e-01 3.3118417020886195e+00 
295 0 1 1.0279999999999767e+00 -8.0455789881680151e-01 1.0000000000000000e+00 5.4347076576563582e+00 9.4839495248012895e-01 3.3118417028584144e+00 
534 0 1 1.0280000000000271e+00 -5.4135195053644267e+00 1.0000000000000000e+00 5.4347076573253537e+00 9.4839495207633617e-01 3.3118417022371465e+00 
640 0 1 1.0280000000000211e+00 -1.7600665364799085e+01 1.0000000000000000e+00 5.4347075733491765e+00 9.4839485746036434e-01 3.3118415469543034e+00 
57 0 1 1.0280000000000442e+00 -2.7066991709190308e+01 1.0000000000000000e+00 5.4340577255227824e+00 9.4792961666805642e-01 3.3107102020573755e+00 
611 0 1 1.0280000000000034e+00 -1.6331047130796225e+01 1.0000000000000000e+00 5.4339718083035686e+00 9.4813607538800504e-01 3.3106364273186846e+00 
292 0 1 1.0279999999999649e+00 1.4902791107088241e+01 1.0000000000000000e+00 6.6292587201176563e+00 4.5592907526374047e+00 2.2254628920689266e+00 
316 0 1 1.0280000000000049e+00 -8.5996374901029604e+00 1.0000000000000000e+00 6.5410941594586172e+00 4.3189487047043675e+00 2.1699174528175464e+00 
191 0 1 1.0279999999999478e+00 3.8841750893944966e+00 1.0000000000000000e+00 6.5410942197794855e+00 4.3189489757887447e+00 2.1699174882450567e+00 
234 0 1 1.0279999999999485e+00 1.9521659399349392e+01 1.0000000000000000e+00 6.5410941088953480e+00 4.3189485602894386e+00 2.1699174497638336e+00 
116 0 1 1.0279999999999483e+00 6.7205138339670158e+00 1.0000000000000000e+00 6.5410942207004013e+00 4.3189489737690101e+00 2.1699174868047373e+00 
211 0 1 1.0279999999998997e+00 4.4335268353948099e+00 1.0000000000000000e+00 3.2335792620770989e+00 7.5506920642176585e+00 4.9499954614597186e-01 
200 0 1 1.0279999999998957e+00 4.9672663490095266e+00 1.0000000000000000e+00 3.2341732493179265e+00 7.5429021971317889e+00 4.8411757076748041e-01 
507 0 1 1.0279999999999172e+00 -5.8233357204840508e-01 1.0000000000000000e+00 3.2343456432279329e+00 7.5406172976238413e+00 4.8087226974589475e-01 
346 0 1 1.0279999999998688e+00 6.0505897609398138e+00 1.0000000000000000e+00 3.2345614179520972e+00 7.5377430016207558e+00 4.7675451304639027e-01 
303 0 1 1.0279999999999565e+00 -3.3332927008852788e+00 1.0000000000000000e+00 3.2420511911235659e+00 7.4707412316084572e+00 3.6948019849895741e-01 
590 0 1 1.0280000000001164e+00 -1.8566066104630812e+00 1.0000000000000000e+00 3.6507994808398010e+00 8.8899303574619264e+00 1.0002527811887052e+00 
633 0 1 1.0279999999998384e+00 -1.1568965747096515e+01 1.0000000000000000e+00 4.1652476048420937e+00 9.0828237695772280e+00 1.0021139868751887e+00 
9 0 1 1.0280000000000618e+00 -1.2201305734924583e+01 1.0000000000000000e+00 3.6280266952018212e+00 9.2913314527650144e+00 7.6651241971745343e-01 
356 0 1 1.0279999999999661e+00 9.4791120636685360e+00 1.0000000000000000e+00 6.3269319281036385e+00 9.4681428813340709e+00 1.6493677174049978e-01 
334 0 1 1.0280000000000131e+00 9.8097018373806701e+00 1.0000000000000000e+00 6.2716514193895732e+00 9.3509695659292422e+00 2.3080055703199751e-02 
342 0 1 1.0280000000000700e+00 1.2549017952793637e+01 1.0000000000000000e+00 6.2601336597336008e+00 9.3375783353020196e+00 1.4168587473833323e-02 
617 0 1 1.0280000000000376e+00 -1.4975982392564088e+01 1.0000000000000000e+00 2.5712262768280159e+00 7.0888292447983026e-01 4.5745735899738467e+00 
119 0 1 1.0280000000000677e+00 -8.1031404371492748e+00 1.0000000000000000e+00 2.5180067802669788e+00 7.0477858519084746e-01 4.6377213075797279e+00 
176 0 1 1.0280000000000760e+00 -1.6134448876175441e+01 1.0000000000000000e+00 2.5218507114347539e+00 7.0541147481998367e-01 4.6328379600953786e+00 
270 0 1 1.0279999999999498e+00 1.8058761970727765e+01 1.0000000000000000e+00 2.5062141100302977e+00 7.0369955441791066e-01 4.6514656599223523e+00 
36 0 1 1.0280000000002913e+00 -1.9269883178504962e+01 1.0000000000000000e+00 1.9663978433922016e+00 2.1547188908207937e-01 6.1572854468269291e+00 
188 0 1 1.0279999999998208e+00 -8.3770059147493718e+00 1.0000000000000000e+00 2.0402559784018046e+00 1.1883830577108740e+00 7.7950119279965531e+00 
635 0 1 1.0279999999999871e+00 -1.0393889060911121e+01 1.0000000000000000e+00 2.8731452703808684e+00 1.3511827292478811e+00 8.2071821045296929e+00 
489 0 1 1.0279999999999510e+00 -6.1409259785415653e+00 1.0000000000000000e+00 3.2142245759103955e-01 3.4857060046454175e-01 8.2259585720121944e+00 
165 0 1 1.0279999999999490e+00 7.5693097700168976e-01 1.0000000000000000e+00 3.4370677890078510e-01 3.4509287097246977e-01 8.2584583562963658e+00 
503 0 1 1.0279999999999521e+00 -1.1321488906197470e+01 1.0000000000000000e+00 3.4509839879997628e-01 3.4352179684807915e-01 8.2610509780771846e+00 
247 0 1 1.0279999999999494e+00 -6.3781602242729605e+00 1.0000000000000000e+00 3.4423939002493986e-01 3.4323578167379415e-01 8.2601061311827007e+00 
73 0 1 1.0279999999999512e+00 -8.0646436372597812e+00 1.0000000000000000e+00 3.4420567561115484e-01 3.4317785650220478e-01 8.2600930895691533e+00 
161 0 1 1.0280000000002085e+00 -1.2189019566257649e+01 1.0000000000000000e+00 3.2221295619243366e+00 8.6163721423580109e-01 8.5067467931226162e+00 
172 0 1 1.0280000000001328e+00 -2.8898327621742013e+00 1.0000000000000000e+00 3.3006232806719673e+00 1.3274246907714973e+00 8.7436976851061470e+00 
67 0 1 1.0279999999999194e+00 -7.4286331737036431e+00 1.0000000000000000e+00 3.0950016708421852e+00 1.6790075103787219e+00 8.8069371833867489e+00 
355 0 1 1.0280000000001761e+00 1.0142685539860908e+01 1.0000000000000000e+00 3.3069401842256463e+00 1.5077762895000881e+00 8.9102102469949731e+00 
523 0 1 1.0279999999997531e+00 -3.2891733617950303e+00 1.0000000000000000e+00 3.2523672737720393e+00 1.6720460971333220e+00 9.0670198197381300e+00 
500 0 1 1.0279999999999545e+00 2.7551644074501525e+00 1.0000000000000000e+00 3.2811664313680615e+00 2.5079200928385559e+00 1.1765985755662614e+01 
345 0 1 1.0280000000000900e+00 7.2783574050661048e+00 1.0000000000000000e+00 3.3379826217517072e+00 3.1274263110285290e+00 1.1213661720007192e+01 
140 0 1 1.0279999999999825e+00 -3.0631682045932926e+01 1.0000000000000000e+00 5.3028908506611732e+00 2.8126684336433994e+00 1.1278323022101654e+01 
80 0 1 1.0279999999999927e+00 -6.2901958933633022e+00 1.0000000000000000e+00 5.1776067103918511e+00 2.6998145625222030e+00 1.1171957442499480e+01 
50 0 1 1.0279999999999980e+00 -2.5268310477890477e+01 1.0000000000000000e+00 5.2005601206658385e+00 2.8085843799764554e+00 1.1143213173639367e+01 
167 0 1 1.0279999999999991e+00 1.3951278042655697e+00 1.0000000000000000e+00 5.1038135986847264e+00 2.7543682300287267e+00 1.1049750595926028e+01 
563 0 1 1.0280000000000336e+00 -2.9306400648829838e+00 1.0000000000000000e+00 3.5141723757074290e+00 3.3095719837833428e+00 1.0991077400380499e+01 
492 0 1 1.0280000000000034e+00 -1.0265576657748149e+01 1.0000000000000000e+00 3.5298141964624405e+00 2.2455429258109016e+00 1.0113838983998338e+01 
341 0 1 1.0280000000000133e+00 6.9302699253988038e+00 1.0000000000000000e+00 3.9552133110614918e+00 6.4117973923621143e+00 1.3317011567395227e+01 
614 0 1 1.0280000000000020e+00 -1.0986561270154294e+01 1.0000000000000000e+00 3.9238655417932420e+00 6.3887363772847952e+00 1.3274207470841418e+01 
450 0 1 1.0279999999999949e+00 -2.5557493535237175e+00 1.0000000000000000e+00 4.4552106576698218e+00 5.3071302238547204e+00 1.2573191390071987e+01 
39 0 1 1.0280000000000125e+00 -7.3661997256653873e+00 1.0000000000000000e+00 4.4296030751336994e+00 5.2379648117979505e+00 1.2516450889593044e+01 
470 0 1 1.0280000000000287e+00 -3.2057800773327951e+00 1.0000000000000000e+00 3.6070142741138778e+00 4.5620381691057883e+00 1.2271920022380234e+01 
594 0 1 1.0279999999999851e+00 -1.5888187655508204e+01 1.0000000000000000e+00 3.5600372083140841e+00 3.6205166881602673e+00 1.1263178850300255e+01 
501 0 1 1.0280000000000298e+00 -1.1297546125843447e+00 1.0000000000000000e+00 4.6325530970682909e+00 7.7329728244274882e+00 1.0346925214996952e+01 
201 0 1 1.0280000000000213e+00 9.3813373601650181e+00 1.0000000000000000e+00 4.6325538617417319e+00 7.7329721171723813e+00 1.0346923459224319e+01 
436 0 1 1.0280000000000489e+00 5.6159872970914237e-01 1.0000000000000000e+00 4.6325465407575335e+00 7.7329793627371641e+00 1.0346940780511829e+01 
187 0 1 1.0280000000000624e+00 3.2886034411658109e+01 1.0000000000000000e+00 4.6325653268084412e+00 7.7329602023978419e+00 1.0346895742124188e+01 
416 0 1 1.0280000000000309e+00 5.8071413174456854e+00 1.0000000000000000e+00 4.6325679043338805e+00 7.7329576825694639e+00 1.0346889683632886e+01 
491 0 1 1.0280000000000491e+00 -1.0018385855355643e+01 1.0000000000000000e+00 4.6325659100562415e+00 7.7329596216997256e+00 1.0346894359869657e+01 
475 0 1 1.0279999999999860e+00 6.3681451938753284e+00 1.0000000000000000e+00 4.6575705219166297e+00 7.7243779981641643e+00 1.0318832165492122e+01 
451 0 1 1.0279999999999729e+00 1.9294994266036344e+01 1.0000000000000000e+00 3.0571493342392024e+00 1.8471256511570826e+00 1.3654116698229606e+01 
77 0 1 1.0279999999999556e+00 -2.3322979363725366e+01 1.0000000000000000e+00 3.0773662861967210e+00 1.8496819785178713e+00 1.3651055004950633e+01 
251 0 1 1.0279999999999223e+00 -3.5700574674219707e+00 1.0000000000000000e+00 2.9667324910523574e+00 1.8244627114010721e+00 1.3734748324582089e+01 
177 0 1 1.0279999999999410e+00 -6.2201292275901432e+00 1.0000000000000000e+00 2.9742126659944939e+00 1.8199148650857122e+00 1.3811546807044047e+01 
48 0 1 1.0280000000000393e+00 -1.2063515748926815e+01 1.0000000000000000e+00 6.1087160788872663e-01 2.1008797747976829e-01 1.4081894458845037e+01 
419 0 1 1.0280000000000713e+00 -2.6191835277287634e-01 1.0000000000000000e+00 9.4812579922289686e-01 8.0746702573992568e-01 1.4138679572934356e+01 
279 0 1 1.0280000000001313e+00 1.7278488409682943e+01 1.0000000000000000e+00 5.6370836889089104e-01 8.2085134752960898e-01 1.4293231132527655e+01 
129 0 1 1.0280000000002094e+00 7.4093625526009834e+00 1.0000000000000000e+00 2.9345487989057544e+00 2.8227871692232513e+00 1.4321949284450497e+01 
542 0 1 1.0280000000002005e+00 1.0903346236858336e+01 1.0000000000000000e+00 2.0878184556456122e-01 5.6510598755590757e-01 1.4372336737721643e+01 
21 0 1 1.0279999999999085e+00 -7.4982383012180911e+00 1.0000000000000000e+00 2.8375898979520420e+00 2.3756164067553551e+00 1.4384437735734094e+01 
598 0 1 1.0279999999999148e+00 -5.1441741060729900e+00 1.0000000000000000e+00 1.6134870579205651e+00 2.4715302741307106e+00 1.4891484218668039e+01 
149 0 1 1.0279999999999796e+00 7.5778520724357064e+00 1.0000000000000000e+00 5.6002767327583380e-01 2.0521572489961346e+00 1.6404765252013732e+01 
302 0 1 1.0280000000000944e+00 -2.3348865944126096e+01 1.0000000000000000e+00 6.7260342558502417e-01 2.1237965158667174e+00 1.6623840867187475e+01 
440 0 1 1.0280000000001057e+00 9.7350126198809050e+00 1.0000000000000000e+00 6.7193334357709489e-01 2.1219949182198010e+00 1.6621863077676441e+01 
391 0 1 1.0280000000000669e+00 -2.0339695793942276e+00 1.0000000000000000e+00 6.5530079452079959e-01 2.1120066203972740e+00 1.6596739397900940e+01 
254 0 1 1.0280000000000302e+00 1.3795185828981344e+01 1.0000000000000000e+00 6.7700162567980560e-01 2.1337783392643979e+00 1.6635400734639404e+01 
370 0 1 1.0279999999999996e+00 2.8323742272932075e+00 1.0000000000000000e+00 5.4241822703738132e+00 3.2190522403370672e+00 1.3361482966019048e+01 
460 0 1 1.0279999999999867e+00 5.7520456619970730e+00 1.0000000000000000e+00 5.4242214921559517e+00 3.2196696143902241e+00 1.3361517214909611e+01 
238 0 1 1.0279999999999947e+00 -4.6519267164425528e+00 1.0000000000000000e+00 5.4242215504372711e+00 3.2196705236242824e+00 1.3361517264235417e+01 
146 0 1 1.0279999999999976e+00 -6.0967040011800098e+00 1.0000000000000000e+00 5.4242213209059038e+00 3.2196669442418795e+00 1.3361517070179890e+01 
361 0 1 1.0279999999999958e+00 5.0682685232871441e+00 1.0000000000000000e+00 5.4242180478766597e+00 3.2196158881035872e+00 1.3361514298838836e+01 
417 0 1 1.0279999999999272e+00 -3.3047454571102353e-01 1.0000000000000000e+00 2.7761449151275195e+00 4.6653846764375295e+00 1.3942272381224173e+01 
526 0 1 1.0279999999999536e+00 -2.0324478179458055e+01 1.0000000000000000e+00 2.4962289476564008e+00 5.2074763660856620e+00 1.4210664811248908e+01 
289 0 1 1.0280000000000684e+00 1.8023382089146567e+00 1.0000000000000000e+00 2.4785276088249533e+00 5.2266678271725322e+00 1.4242091894160309e+01 
81 0 1 1.0280000000000087e+00 -1.6896110057740783e+00 1.0000000000000000e+00 2.3550229496745696e+00 5.5701652275414659e+00 1.4578939202188256e+01 
551 0 1 1.0280000000000351e+00 -1.6144306359814640e+00 1.0000000000000000e+00 1.7482505337736827e+00 4.6691744643713564e+00 1.5845598899455236e+01 
384 0 1 1.0280000000000364e+00 -9.2905156161740643e-01 1.0000000000000000e+00 1.7736125104113698e+00 4.9805553211524343e+00 1.5983945920840362e+01 
330 0 1 1.0279999999999725e+00 -8.9374059392626855e+00 1.0000000000000000e+00 2.0247296110574249e+00 5.6732911139388911e+00 1.6209517659957751e+01 
163 0 1 1.0279999999999812e+00 -8.5583719245697516e+00 1.0000000000000000e+00 2.1951959045364382e+00 5.9297077349198446e+00 1.6254452021535066e+01 
430 0 1 1.0280000000000091e+00 4.4992977392176341e+00 1.0000000000000000e+00 4.4111462136006763e+00 6.4407923360779851e+00 1.3636148491279753e+01 
401 0 1 1.0280000000000240e+00 4.9758737245905209e+00 1.0000000000000000e+00 4.6601306859710148e+00 6.1248099546630330e+00 1.3845135602991292e+01 
240 0 1 1.0280000000000855e+00 2.3716492111262024e+00 1.0000000000000000e+00 4.2185641559930218e+00 6.3903164124644150e+00 1.4361285031229214e+01 
408 0 1 1.0280000000000031e+00 -4.0869565510639543e+00 1.0000000000000000e+00 5.6442636257272287e+00 3.5387865224346458e+00 1.6590323977839535e+01 
457 0 1 1.0280000000000551e+00 2.5983130147104475e+01 1.0000000000000000e+00 5.5792485370419591e+00 3.5416164580125615e+00 1.6606509000847854e+01 
122 0 1 1.0279999999999194e+00 1.1447490225399010e+01 1.0000000000000000e+00 5.7114040870134986e+00 3.5495727911098043e+00 1.6565843544797293e+01 
184 0 1 1.0279999999999896e+00 7.0224519782272559e+00 1.0000000000000000e+00 6.1545275771777597e+00 3.7508697247795868e+00 1.6557495987970714e+01 
630 0 1 1.0279999999999949e+00 -1.3052233685328272e+01 1.0000000000000000e+00 5.3521419610253407e+00 3.8743620737984092e+00 1.6443916783979265e+01 
309 0 1 1.0279999999997789e+00 1.3352442363826840e+00 1.0000000000000000e+00 2.7019248361892267e+00 6.7249675169130922e+00 1.6409344998758041e+01 
233 0 1 1.0280000000000109e+00 4.7165942450358083e+00 1.0000000000000000e+00 3.3849893005802554e+00 8.3651405589153853e+00 1.6358817316491443e+01 
299 0 1 1.0279999999999987e+00 7.7939725115680787e+00 1.0000000000000000e+00 3.4565378929360997e+00 8.4662288643010317e+00 1.6385099895231523e+01 
529 0 1 1.0280000000000133e+00 1.3433777665131048e+00 1.0000000000000000e+00 3.4576816885083468e+00 8.4661878598708782e+00 1.6383542409167639e+01 
54 0 1 1.0279999999999516e+00 -8.1745589247941570e+00 1.0000000000000000e+00 3.4580912207475545e+00 8.4661937294023435e+00 1.6383011889210351e+01 
159 0 1 1.0279999999999845e+00 -5.3072347914767750e+00 1.0000000000000000e+00 6.0155811329726623e+00 7.6596336383591099e+00 1.5135514041906948e+01 
243 0 1 1.0279999999999905e+00 5.3977839917121404e+00 1.0000000000000000e+00 6.0088381229438266e+00 7.6575177812147777e+00 1.5131997740984250e+01 
41 0 1 1.0280000000000225e+00 -1.4695773113231565e+01 1.0000000000000000e+00 6.2145986336184471e+00 7.7724746985801962e+00 1.5230175020838340e+01 
32 0 1 1.0280000000000065e+00 -9.7879586357111226e+00 1.0000000000000000e+00 6.1632737027897031e+00 7.6805476933990615e+00 1.5245568193368159e+01 
571 0 1 1.0280000000000233e+00 -1.4144681567780506e+01 1.0000000000000000e+00 6.1624197297567536e+00 7.6813332413701616e+00 1.5244083249173745e+01 
411 0 1 1.0280000000002334e+00 5.9891700639845329e+00 1.0000000000000000e+00 5.7088865494474161e+00 9.3681474807930041e+00 1.5854143528405519e+01 
422 0 1 1.0279999999998457e+00 -9.4992198378725856e+00 1.0000000000000000e+00 6.3604820360632459e+00 9.6763175902900134e+00 1.6420878614255599e+01 
344 0 1 1.0279999999998157e+00 -9.6194805202691569e+00 1.0000000000000000e+00 6.4329074241784525e+00 9.6660116629641273e+00 1.6463996670971870e+01 
208 0 1 1.0279999999998581e+00 1.2174194784530929e+01 1.0000000000000000e+00 1.5327411546802683e+00 3.5310023135785356e+00 1.7074884113023156e+01 
397 0 1 1.0279999999998535e+00 5.7871320345343573e+00 1.0000000000000000e+00 1.5323987153439194e+00 3.5342315612508366e+00 1.7075368943871226e+01 
207 0 1 1.0279999999998528e+00 1.2749935846243359e+01 1.0000000000000000e+00 1.5323749217759346e+00 3.5344156424701212e+00 1.7075397631146554e+01 
1 0 1 1.0280000000000649e+00 -2.8295278724197026e+01 1.0000000000000000e+00 2.4926115920477585e+00 5.2241277057742774e+00 1.8944704686316783e+01 
426 0 1 1.0280000000000369e+00 5.1369324851949498e+00 1.0000000000000000e+00 2.4283007850320426e+00 5.2115502101389470e+00 1.8920845548896818e+01 
118 0 1 1.0280000000000349e+00 -8.3301976345369937e+00 1.0000000000000000e+00 2.4675129946575236e+00 5.1821763828477359e+00 1.8919284494821202e+01 
499 0 1 1.0280000000000280e+00 -5.7044086834671415e+00 1.0000000000000000e+00 2.4559559500252379e+00 5.1802627023680579e+00 1.8915438197844448e+01 
181 0 1 1.0280000000000140e+00 7.7418887449360660e+00 1.0000000000000000e+00 2.4559290426077762e+00 5.1802029276263823e+00 1.8915402415531485e+01 
496 0 1 1.0280000000000360e+00 -1.2035031000289546e+01 1.0000000000000000e+00 2.4551465789060734e+00 5.1785368782821335e+00 1.8914395030946686e+01 
206 0 1 1.0280000000000324e+00 1.3294853756692671e+01 1.0000000000000000e+00 6.4096826632825525e+00 4.9436354057170000e+00 1.7588705516176145e+01 
239 0 1 1.0280000000000218e+00 9.9984189415456193e-01 1.0000000000000000e+00 6.1950415305021842e+00 4.9923598169153882e+00 1.7851583257006599e+01 
579 0 1 1.0279999999999860e+00 -1.4851229311844026e+01 1.0000000000000000e+00 6.2004543284986369e+00 4.9924031274747485e+00 1.7846777683537571e+01 
6 0 1 1.0280000000000400e+00 -3.1674658990285982e+00 1.0000000000000000e+00 6.2005428260172986e+00 4.9924068963435708e+00 1.7846695277286230e+01 
86 0 1 1.0279999999999474e+00 -3.2612184343489803e-01 1.0000000000000000e+00 5.0139181195656262e+00 4.5631397218989971e+00 1.7879786852649101e+01 
512 0 1 1.0279999999999878e+00 -8.8316488087517726e+00 1.0000000000000000e+00 5.0782459407440523e+00 4.5542190820236454e+00 1.7937860849566970e+01 
114 0 1 1.0280000000001164e+00 -7.6940045019696548e+00 1.0000000000000000e+00 2.7907787330898053e+00 6.9273540773441500e+00 1.7029020746009955e+01 
183 0 1 1.0280000000000400e+00 1.6869648907730447e+01 1.0000000000000000e+00 5.8096310279842687e+00 9.7619242792902234e+00 1.6808814563360372e+01 
519 0 1 1.0280000000002452e+00 -1.2085893003763669e+01 1.0000000000000000e+00 4.5799016749856083e+00 8.9859058324982097e+00 1.8291528115366635e+01 
4 0 1 1.0280000000000273e+00 -1.3760579578075635e+01 1.0000000000000000e+00 3.7772108258215344e+00 9.2003522235814685e+00 1.9545828387645496e+01 
449 0 1 1.0279999999997880e+00 -1.9430036733090937e+01 1.0000000000000000e+00 5.8807759654051397e+00 8.9420902001470992e+00 1.8510580804053696e+01 
444 0 1 1.0280000000000311e+00 7.3216642368030840e+00 1.0000000000000000e+00 6.1913687015224985e+00 9.2091645735789935e+00 1.9811602227763426e+01 
569 0 1 1.0279999999998590e+00 -2.4656901088109926e+01 1.0000000000000000e+00 4.8247270917371132e+00 7.7580203787148996e+00 1.7720753617675086e+01 
510 0 1 1.0280000000000278e+00 -1.5015031675118337e+01 1.0000000000000000e+00 6.1155973833326591e+00 8.0041019372015665e+00 1.7193156988012678e+01 
520 0 1 1.0280000000001446e+00 -5.9823553956872519e+00 1.0000000000000000e+00 6.0592680376372590e+00 8.0159770613626158e+00 1.7263317155646281e+01 
101 0 1 1.0279999999999136e+00 2.4227874728633183e+00 1.0000000000000000e+00 3.7210721572236034e+00 7.0777825622664414e+00 1.7308837926516457e+01 
462 0 1 1.0280000000000107e+00 -2.0880571434048441e+01 1.0000000000000000e+00 3.6238015985756089e+00 8.4456403694815947e+00 1.7691161013670502e+01 
468 0 1 1.0280000000000395e+00 -4.9556818875138481e-01 1.0000000000000000e+00 4.2668405258781954e+00 1.2120325016652034e+01 2.4127066466428380e+00 
461 0 1 1.0280000000000069e+00 -1.7815312038428743e+00 1.0000000000000000e+00 4.1541262674392723e+00 1.2160422584944575e+01 2.3646344883485657e+00 
232 0 1 1.0280000000000269e+00 -4.9435067348171788e+00 1.0000000000000000e+00 3.8083173501082732e+00 1.1881038613467210e+01 1.8066899640355205e+00 
326 0 1 1.0279999999999565e+00 -1.2272426123104237e-01 1.0000000000000000e+00 3.6413020680308814e+00 1.2729147365723087e+01 1.7090394605284311e+00 
404 0 1 1.0280000000000098e+00 6.3594481156858480e+00 1.0000000000000000e+00 3.6688172407529875e+00 1.2056554408634426e+01 1.0228334600561346e+00 
623 0 1 1.0280000000000131e+00 -3.9995352357846599e+01 1.0000000000000000e+00 3.6696258982904260e+00 1.2350669480206864e+01 1.0197710350808353e+00 
546 0 1 1.0280000000000116e+00 -6.7219411686494928e+00 1.0000000000000000e+00 4.1405625759462961e+00 1.0343552430043745e+01 6.5814558013184854e-01 
484 0 1 1.0279999999999605e+00 -2.4020177513249706e+01 1.0000000000000000e+00 4.7093217487602184e+00 1.3610627004572761e+01 1.1116232495822114e+00 
442 0 1 1.0279999999999705e+00 -3.1260742356605973e-04 1.0000000000000000e+00 4.6480685824775794e+00 1.3530486857900645e+01 1.0215534753958506e+00 
151 0 1 1.0280000000000058e+00 3.3542212546678858e+00 1.0000000000000000e+00 6.4684085806232137e+00 1.4421890733156935e+01 1.0096649818247481e+00 
156 0 1 1.0280000000000074e+00 2.0186235041589445e+01 1.0000000000000000e+00 6.4710072582317935e+00 1.4421733433548185e+01 1.0067699582339378e+00 
306 0 1 1.0279999999999692e+00 1.1229588020577625e+01 1.0000000000000000e+00 6.4844438844740155e+00 1.4417340181784654e+01 9.8721030791972364e-01 
413 0 1 1.0280000000000313e+00 -3.8183729032832021e+00 1.0000000000000000e+00 4.8016861693704609e+00 1.3508516206867682e+01 8.6627096672091830e-01 
168 0 1 1.0279999999999001e+00 3.4585875582531731e+00 1.0000000000000000e+00 6.7226060926573283e-01 1.9751663352780870e+01 2.0738952600060787e+00 
562 0 1 1.0280000000000005e+00 -6.5268482983908003e+00 1.0000000000000000e+00 5.6638081481541827e+00 1.3025515814251953e+01 3.9125777176041905e+00 
570 0 1 1.0279999999999934e+00 -2.1375921202459132e+01 1.0000000000000000e+00 5.5843135444975820e+00 1.3156450633783070e+01 4.1093179413086087e+00 
480 0 1 1.0279999999999563e+00 -2.3074928060364264e+00 1.0000000000000000e+00 4.5975000733411271e+00 1.4058311535153667e+01 3.9321320052663911e+00 
610 0 1 1.0279999999999609e+00 -4.4471058065193830e+01 1.0000000000000000e+00 4.5974317680129984e+00 1.4052313999557676e+01 3.9309192121000796e+00 
488 0 1 1.0279999999999565e+00 -1.3621354236994163e+00 1.0000000000000000e+00 4.5966600115634266e+00 1.4044605557886054e+01 3.9353434775394076e+00 
528 0 1 1.0280000000000955e+00 9.9793829999916834e+00 1.0000000000000000e+00 4.6293666765620376e+00 1.4560411841209076e+01 5.0179474990455999e+00 
445 0 1 1.0280000000000535e+00 3.4440200431715451e+00 1.0000000000000000e+00 4.6292144338181247e+00 1.4559579829856293e+01 5.0170347952358734e+00 
59 0 1 1.0279999999999783e+00 2.1367055901542713e+00 1.0000000000000000e+00 5.4938648399291932e+00 1.6061208686844680e+01 5.4885321259460023e+00 
328 0 1 1.0279999999999689e+00 1.9626259069794805e-01 1.0000000000000000e+00 5.5043697693198128e+00 1.6063850322831538e+01 5.5005856252847876e+00 
359 0 1 1.0279999999999718e+00 2.5090467198488316e+01 1.0000000000000000e+00 5.4988641192725547e+00 1.6062945690379347e+01 5.4933995537825586e+00 
603 0 1 1.0279999999999787e+00 -1.9201270819685332e+00 1.0000000000000000e+00 5.4983418713592842e+00 1.6062864041463641e+01 5.4927048533714133e+00 
383 0 1 1.0279999999999818e+00 1.8186383797355699e+01 1.0000000000000000e+00 5.4953207839060862e+00 1.6062082685860851e+01 5.4892548386481037e+00 
559 0 1 1.0280000000001275e+00 -8.8833198241960751e+00 1.0000000000000000e+00 2.3257808682796330e+00 1.9391549384455608e+01 4.0724397453008292e+00 
407 0 1 1.0280000000002012e+00 -2.5531202589352194e+01 1.0000000000000000e+00 1.7520263500195061e+00 1.9002859532562361e+01 4.0722416492847895e+00 
578 0 1 1.0279999999999445e+00 -1.2962912338013114e+01 1.0000000000000000e+00 5.9192053182833093e-01 1.8957276115673668e+01 4.0881747854745480e+00 
308 0 1 1.0279999999999032e+00 -4.8702018936311493e+00 1.0000000000000000e+00 5.9454980947062197e-01 1.8957408511155975e+01 4.0921973312893485e+00 
634 0 1 1.0279999999999441e+00 -1.3981970241026382e+01 1.0000000000000000e+00 5.9351472859869503e-01 1.8957355923324013e+01 4.0906123485620638e+00 
248 0 1 1.0279999999999982e+00 1.0890085037453845e+01 1.0000000000000000e+00 1.0398554826388917e+00 1.9095647271273556e+01 6.4361077168474239e+00 
180 0 1 1.0280000000000800e+00 2.3022784860658367e+00 1.0000000000000000e+00 1.1065879399788903e+00 1.9016954898243064e+01 6.5231199357844529e+00 
592 0 1 1.0280000000001088e+00 -1.0803118096099794e+01 1.0000000000000000e+00 1.0391858253962507e+00 1.9030727719225631e+01 6.5770007159254815e+00 
58 0 1 1.0280000000000755e+00 -3.8173831695966345e+00 1.0000000000000000e+00 2.0941663295773303e+00 1.9355816290314792e+01 6.6491624931958135e+00 
389 0 1 1.0279999999999987e+00 1.0762185476408343e+01 1.0000000000000000e+00 2.5143185856594825e+00 1.5168874076238692e+01 7.3797185245616097e+00 
367 0 1 1.0280000000000116e+00 1.8323015511579413e+01 1.0000000000000000e+00 2.5143663625943264e+00 1.5168834111044513e+01 7.3797423298426565e+00 
398 0 1 1.0280000000000069e+00 9.3233784715324450e+00 1.0000000000000000e+00 2.5143574480198359e+00 1.5168840978649005e+01 7.3797454924193104e+00 
613 0 1 1.0280000000000076e+00 -2.7781385909473384e+00 1.0000000000000000e+00 2.5143589445618852e+00 1.5168840245958743e+01 7.3797394874855229e+00 
290 0 1 1.0280000000000111e+00 1.8852380266533171e+01 1.0000000000000000e+00 2.5143496255295714e+00 1.5168848416761513e+01 7.3797299202077964e+00 
293 0 1 1.0280000000000094e+00 1.6405713427513270e+01 1.0000000000000000e+00 2.5143727206244790e+00 1.5168828381645207e+01 7.3797509286712355e+00 
189 0 1 1.0280000000000096e+00 -7.0608480247671945e+00 1.0000000000000000e+00 2.5143727206371516e+00 1.5168828381635118e+01 7.3797509286712488e+00 
348 0 1 1.0280000000000142e+00 1.5488676697705976e+01 1.0000000000000000e+00 1.7404693861431075e+00 1.8436561155076895e+01 8.1652407754063638e+00 
109 0 1 1.0280000000000435e+00 4.8645020233544924e+00 1.0000000000000000e+00 1.7401658572072884e+00 1.8436725439495198e+01 8.1647064185121749e+00 
11 0 1 1.0279999999998983e+00 -1.0810383341388683e+01 1.0000000000000000e+00 2.0450678163891953e+00 1.8198301871165000e+01 8.7238602062497730e+00 
381 0 1 1.0279999999998577e+00 1.0556179207623321e+01 1.0000000000000000e+00 3.0377629302547491e+00 1.7660822611311204e+01 9.8850871464145023e+00 
135 0 1 1.0279999999998801e+00 -2.7077715563281011e+00 1.0000000000000000e+00 3.0377745255360917e+00 1.7660829624252536e+01 9.8850931946709863e+00 
374 0 1 1.0279999999997373e+00 1.1921615581886744e+01 1.0000000000000000e+00 3.0377344385376754e+00 1.7660805479394600e+01 9.8850723211873870e+00 
257 0 1 1.0280000000000946e+00 1.2282302687858518e+01 1.0000000000000000e+00 3.6862039375303155e+00 1.7413537883287585e+01 9.5813173951473551e+00 
284 0 1 1.0280000000000551e+00 1.2706892930341027e+01 1.0000000000000000e+00 3.8602231506260396e+00 1.7485707872068279e+01 8.9965744167454442e+00 
385 0 1 1.0280000000000502e+00 -1.5439271432611046e-01 1.0000000000000000e+00 3.7900228252032471e+00 1.8450544792943845e+01 8.7083623067327114e+00 
134 0 1 1.0280000000001093e+00 1.5913816636021043e+00 1.0000000000000000e+00 3.8146133434154841e+00 1.8467612816632201e+01 8.7619043226536082e+00 
466 0 1 1.0280000000000624e+00 6.9578862688182674e+00 1.0000000000000000e+00 3.9740838007473824e+00 1.8311177526986768e+01 9.2366946472850735e+00 
144 0 1 1.0280000000000997e+00 -2.5012571873425422e+00 1.0000000000000000e+00 2.3474969862423016e+00 1.0868940612401785e+01 1.3216469734939633e+01 
244 0 1 1.0280000000000158e+00 3.5192733995944212e+00 1.0000000000000000e+00 2.3475020286806716e+00 1.0868928944735249e+01 1.3216489028246453e+01 
242 0 1 1.0280000000000475e+00 2.3347888162622863e+00 1.0000000000000000e+00 2.3474969879687833e+00 1.0868940610869855e+01 1.3216469736987909e+01 
335 0 1 1.0280000000000979e+00 -7.6691966344750984e-01 1.0000000000000000e+00 2.3474969879226801e+00 1.0868940610931695e+01 1.3216469736896432e+01 
418 0 1 1.0280000000001130e+00 8.7072926071509276e+00 1.0000000000000000e+00 2.3474969878515197e+00 1.0868940610991396e+01 1.3216469736818873e+01 
329 0 1 1.0280000000000848e+00 -2.5303446715398867e+00 1.0000000000000000e+00 2.3474969878241132e+00 1.0868940611017019e+01 1.3216469736782820e+01 