LAMMPS data file via write_data, version 30 Jul 2016, timestep = 50400000

644 atoms
2 atom types

0.0000000000000000e+00 2.0000000000000000e+01 xlo xhi
0.0000000000000000e+00 2.0000000000000000e+01 ylo yhi
0.0000000000000000e+00 2.0000000000000000e+01 zlo zhi

Masses

1 4.31
2 3.896

Atoms # meso-molecular

503 0 1 1.0279999999999343e+00 -1.1321488906197470e+01 1.0000000000000000e+00 1.3857969981527996e+00 2.5537455063372847e+00 3.2382339890391725e+00 
73 0 1 1.0279999999999898e+00 -8.0646436372597812e+00 1.0000000000000000e+00 1.3849042749646610e+00 2.5534015659914941e+00 3.2372761005315782e+00 
247 0 1 1.0279999999999780e+00 -6.3781602242729605e+00 1.0000000000000000e+00 1.3849379893782012e+00 2.5534594911628035e+00 3.2372891421450314e+00 
165 0 1 1.0279999999999856e+00 7.5693097700168976e-01 1.0000000000000000e+00 1.3844053782534711e+00 2.5553165804611626e+00 3.2356413672579092e+00 
489 0 1 1.0279999999999418e+00 -6.1409259785415653e+00 1.0000000000000000e+00 1.3621210569471394e+00 2.5587943099539809e+00 3.2031415829772554e+00 
348 0 1 1.0280000000000031e+00 1.5488676697705976e+01 1.0000000000000000e+00 2.7811679855221190e+00 6.4678486467365770e-01 3.1424237863624502e+00 
109 0 1 1.0279999999999965e+00 4.8645020233544924e+00 1.0000000000000000e+00 2.7808644565857565e+00 6.4694914909206336e-01 3.1418894294682436e+00 
58 0 1 1.0280000000000225e+00 -3.8173831695966345e+00 1.0000000000000000e+00 3.1348649289515844e+00 1.5660399998147472e+00 1.6263455041520305e+00 
592 0 1 1.0279999999999805e+00 -1.0803118096099794e+01 1.0000000000000000e+00 2.0798844247238937e+00 1.2409514287618821e+00 1.5541837268827392e+00 
180 0 1 1.0279999999999878e+00 2.3022784860658367e+00 1.0000000000000000e+00 2.1472865392996794e+00 1.2271786077822326e+00 1.5003029467414424e+00 
248 0 1 1.0279999999999894e+00 1.0890085037453845e+01 1.0000000000000000e+00 2.0805540819907660e+00 1.3058709808033166e+00 1.4132907278040230e+00 
36 0 1 1.0279999999999518e+00 -1.9269883178504962e+01 1.0000000000000000e+00 3.0070964427937472e+00 2.4256955985476654e+00 1.1344684577820436e+00 
188 0 1 1.0279999999999987e+00 -8.3770059147493718e+00 1.0000000000000000e+00 3.0809545777649934e+00 3.3986067671870153e+00 2.7721949389524339e+00 
635 0 1 1.0279999999998528e+00 -1.0393889060911121e+01 1.0000000000000000e+00 3.9138438697578146e+00 3.5614064387262516e+00 3.1843651154890993e+00 
11 0 1 1.0280000000000364e+00 -1.0810383341388683e+01 1.0000000000000000e+00 3.0857664158513449e+00 4.0852558077922518e-01 3.7010432172023808e+00 
161 0 1 1.0279999999999734e+00 -1.2189019566257649e+01 1.0000000000000000e+00 4.2628281613651042e+00 3.0718609237129511e+00 3.4839298040839122e+00 
385 0 1 1.0280000000000205e+00 -1.5439271432611046e-01 1.0000000000000000e+00 4.8307214247195907e+00 6.6076850251984653e-01 3.6855453176767048e+00 
134 0 1 1.0279999999999907e+00 1.5913816636021043e+00 1.0000000000000000e+00 4.8553119429372469e+00 6.7783652620596535e-01 3.7390873335977157e+00 
466 0 1 1.0279999999999943e+00 6.9578862688182674e+00 1.0000000000000000e+00 5.0147824002649974e+00 5.2140123657777104e-01 4.2138776582360666e+00 
172 0 1 1.0279999999999998e+00 -2.8898327621742013e+00 1.0000000000000000e+00 4.3413218800735658e+00 3.5376484002672948e+00 3.7208806960692913e+00 
67 0 1 1.0280000000001339e+00 -7.4286331737036431e+00 1.0000000000000000e+00 4.1357002702079306e+00 3.8892312198447447e+00 3.7841201943469973e+00 
355 0 1 1.0279999999999290e+00 1.0142685539860908e+01 1.0000000000000000e+00 4.3476387836141166e+00 3.7179999989955577e+00 3.8873932579579678e+00 
523 0 1 1.0279999999998928e+00 -3.2891733617950303e+00 1.0000000000000000e+00 4.2930658731321465e+00 3.8822698066098495e+00 4.0442028307015185e+00 
492 0 1 1.0280000000000458e+00 -1.0265576657748149e+01 1.0000000000000000e+00 4.5705127958600551e+00 4.4557666353190788e+00 5.0910219949551925e+00 
563 0 1 1.0279999999999831e+00 -2.9306400648829838e+00 1.0000000000000000e+00 4.5548709751173462e+00 5.5197956932261611e+00 5.9682604113316327e+00 
167 0 1 1.0279999999999829e+00 1.3951278042655697e+00 1.0000000000000000e+00 6.1445121981114843e+00 4.9645919395151674e+00 6.0269336068716530e+00 
50 0 1 1.0279999999999616e+00 -2.5268310477890477e+01 1.0000000000000000e+00 6.2412587200960870e+00 5.0188080894620457e+00 6.1203961845854549e+00 
80 0 1 1.0279999999999427e+00 -6.2901958933633022e+00 1.0000000000000000e+00 6.2183053098195398e+00 4.9100382720037592e+00 6.1491404534459679e+00 
345 0 1 1.0279999999999692e+00 7.2783574050661048e+00 1.0000000000000000e+00 4.3786812212027426e+00 5.3376500205629478e+00 6.1908447309546535e+00 
594 0 1 1.0279999999999907e+00 -1.5888187655508204e+01 1.0000000000000000e+00 4.6007358077370704e+00 5.8307403976138055e+00 6.2403618612485605e+00 
140 0 1 1.0280000000000007e+00 -3.0631682045932926e+01 1.0000000000000000e+00 6.3435894500923435e+00 5.0228921431219149e+00 6.2555060330477179e+00 
475 0 1 1.0279999999999754e+00 6.3681451938753284e+00 1.0000000000000000e+00 5.6982691212416192e+00 9.9346017077505042e+00 5.2960151764500409e+00 
201 0 1 1.0279999999999987e+00 9.3813373601650181e+00 1.0000000000000000e+00 5.6732524610807840e+00 9.9431958267592186e+00 5.3241064701790970e+00 
501 0 1 1.0280000000000160e+00 -1.1297546125843447e+00 1.0000000000000000e+00 5.6732516964090278e+00 9.9431965340160389e+00 5.3241082259517274e+00 
436 0 1 1.0279999999999896e+00 5.6159872970914237e-01 1.0000000000000000e+00 5.6732451401012298e+00 9.9432030723312010e+00 5.3241237914666328e+00 
187 0 1 1.0279999999999909e+00 3.2886034411658109e+01 1.0000000000000000e+00 5.6732639261493878e+00 9.9431839119890295e+00 5.3240787530789655e+00 
416 0 1 1.0279999999999934e+00 5.8071413174456854e+00 1.0000000000000000e+00 5.6732665036725001e+00 9.9431813921564007e+00 5.3240726945876551e+00 
491 0 1 1.0280000000000182e+00 -1.0018385855355643e+01 1.0000000000000000e+00 5.6732645093987992e+00 9.9431833312911913e+00 5.3240773708244342e+00 
48 0 1 1.0279999999998011e+00 -1.2063515748926815e+01 1.0000000000000000e+00 1.6515702074081036e+00 2.4203116869014680e+00 9.0590774697222809e+00 
419 0 1 1.0279999999999232e+00 -2.6191835277287634e-01 1.0000000000000000e+00 1.9888243987620753e+00 3.0176907351977142e+00 9.1158625838491307e+00 
279 0 1 1.0280000000000629e+00 1.7278488409682943e+01 1.0000000000000000e+00 1.6044069684047972e+00 3.0310750569914950e+00 9.2704141434503295e+00 
542 0 1 1.0279999999999210e+00 1.0903346236858336e+01 1.0000000000000000e+00 1.2494804450513171e+00 2.7753296970173920e+00 9.3495197486360091e+00 
56 0 1 1.0280000000000211e+00 -3.3561047950083505e+01 1.0000000000000000e+00 5.4837698586239514e-01 1.9678020440554707e+00 9.7722335036140429e+00 
487 0 1 1.0279999999999931e+00 8.0181854490586666e+00 1.0000000000000000e+00 5.6953514524520710e-01 2.0636029539992533e+00 9.7881185229725123e+00 
598 0 1 1.0280000000000276e+00 -5.1441741060729900e+00 1.0000000000000000e+00 2.6541856574507610e+00 4.6817539835935493e+00 9.8686672296172429e+00 
500 0 1 1.0280000000000220e+00 2.7551644074501525e+00 1.0000000000000000e+00 4.3218650308212077e+00 4.7181438023080915e+00 6.7431687666065159e+00 
370 0 1 1.0279999999999838e+00 2.8323742272932075e+00 1.0000000000000000e+00 6.4648808698655493e+00 5.4292759498411449e+00 8.3386659769658493e+00 
460 0 1 1.0279999999999831e+00 5.7520456619970730e+00 1.0000000000000000e+00 6.4649200916469161e+00 5.4298933238898188e+00 8.3387002258567904e+00 
238 0 1 1.0280000000000107e+00 -4.6519267164425528e+00 1.0000000000000000e+00 6.4649201499279707e+00 5.4298942331199944e+00 8.3387002751823189e+00 
146 0 1 1.0279999999999652e+00 -6.0967040011800098e+00 1.0000000000000000e+00 6.4649199203977776e+00 5.4298906537473002e+00 8.3387000811267686e+00 
361 0 1 1.0279999999999674e+00 5.0682685232871441e+00 1.0000000000000000e+00 6.4649166473674411e+00 5.4298395976013323e+00 8.3386973097861148e+00 
451 0 1 1.0280000000001412e+00 1.9294994266036344e+01 1.0000000000000000e+00 4.0978479337613543e+00 4.0573493606330917e+00 8.6312997091819437e+00 
77 0 1 1.0280000000000109e+00 -2.3322979363725366e+01 1.0000000000000000e+00 4.1180648857211972e+00 4.0599056879937301e+00 8.6282380159030367e+00 
251 0 1 1.0280000000000624e+00 -3.5700574674219707e+00 1.0000000000000000e+00 4.0074310905815098e+00 4.0346864208795337e+00 8.7119313355320767e+00 
177 0 1 1.0279999999999230e+00 -6.2201292275901432e+00 1.0000000000000000e+00 4.0149112655198769e+00 4.0301385745643588e+00 8.7887298179949305e+00 
129 0 1 1.0279999999998126e+00 7.4093625526009834e+00 1.0000000000000000e+00 3.9752473983806196e+00 5.0330108787482919e+00 9.2991322953969817e+00 
21 0 1 1.0280000000001326e+00 -7.4982383012180911e+00 1.0000000000000000e+00 3.8782884974622052e+00 4.5858401162613331e+00 9.3616207466862598e+00 
450 0 1 1.0280000000000820e+00 -2.5557493535237175e+00 1.0000000000000000e+00 5.4959092571680621e+00 7.5173539333240154e+00 7.5503744010082681e+00 
81 0 1 1.0280000000000755e+00 -1.6896110057740783e+00 1.0000000000000000e+00 3.3957215491475607e+00 7.7803889370343731e+00 9.5561222131440076e+00 
401 0 1 1.0279999999999989e+00 4.9758737245905209e+00 1.0000000000000000e+00 5.7008292854631932e+00 8.3350336640328013e+00 8.8223186139415226e+00 
526 0 1 1.0279999999999641e+00 -2.0324478179458055e+01 1.0000000000000000e+00 3.5369275471298716e+00 7.4177000755433795e+00 9.1878478222052884e+00 
470 0 1 1.0280000000000338e+00 -3.2057800773327951e+00 1.0000000000000000e+00 4.6477128736180919e+00 6.7722618786496191e+00 7.2491030333270672e+00 
417 0 1 1.0279999999999809e+00 -3.3047454571102353e-01 1.0000000000000000e+00 3.8168435146063451e+00 6.8756083858986816e+00 8.9194553921772588e+00 
341 0 1 1.0279999999998872e+00 6.9302699253988038e+00 1.0000000000000000e+00 4.9959119105065506e+00 8.6220211018356512e+00 8.2941945783369420e+00 
240 0 1 1.0280000000001148e+00 2.3716492111262024e+00 1.0000000000000000e+00 5.2592627554080158e+00 8.6005401219306101e+00 9.3384680421859265e+00 
430 0 1 1.0279999999999294e+00 4.4992977392176341e+00 1.0000000000000000e+00 5.4518448130609123e+00 8.6510160455643454e+00 8.6133315022271955e+00 
39 0 1 1.0280000000000482e+00 -7.3661997256653873e+00 1.0000000000000000e+00 5.4703016746386677e+00 7.4481885212720798e+00 7.4936339005333350e+00 
289 0 1 1.0280000000000178e+00 1.8023382089146567e+00 1.0000000000000000e+00 3.5192262082927828e+00 7.4368915366877637e+00 9.2192749051124583e+00 
614 0 1 1.0279999999999152e+00 -1.0986561270154294e+01 1.0000000000000000e+00 4.9645641413240638e+00 8.5989600867666169e+00 8.2513904817776478e+00 
454 0 1 1.0279999999999980e+00 5.7594241568005859e+00 1.0000000000000000e+00 2.9002463169092425e+00 1.2075236959747264e+00 1.0840108605031995e+01 
616 0 1 1.0280000000000464e+00 -1.6781534167328907e+01 1.0000000000000000e+00 2.9038566898646634e+00 1.2090291453208748e+00 1.0836684568447744e+01 
351 0 1 1.0280000000000091e+00 -1.8546808545624291e+01 1.0000000000000000e+00 2.9627257386103842e+00 1.2397082384782991e+00 1.0775535408618062e+01 
105 0 1 1.0280000000000142e+00 -8.2343221151642716e+00 1.0000000000000000e+00 2.9627409154874460e+00 1.2396612114108123e+00 1.0775475424999303e+01 
452 0 1 1.0280000000000113e+00 1.2914096974809292e+01 1.0000000000000000e+00 2.9675837944615346e+00 1.2373936924837055e+00 1.0765762686899981e+01 
412 0 1 1.0280000000000087e+00 1.4889383539046639e+00 1.0000000000000000e+00 3.1800373436104445e+00 1.9028816547903882e+00 1.0430498298218755e+01 
2 0 1 1.0279999999999603e+00 -2.1272645052081338e+00 1.0000000000000000e+00 8.7108572376392734e-01 6.3586746727602761e-01 1.0029788190654271e+01 
540 0 1 1.0279999999999008e+00 -1.5187777772813163e+01 1.0000000000000000e+00 8.7004687683906412e-01 6.3696029763729800e-01 1.0029037998281723e+01 
589 0 1 1.0279999999999530e+00 -7.9802264516673276e+00 1.0000000000000000e+00 8.6951254007506584e-01 6.3755092015669779e-01 1.0028619728529957e+01 
397 0 1 1.0279999999999927e+00 5.7871320345343573e+00 1.0000000000000000e+00 2.5730973148324470e+00 5.7444552707476300e+00 1.2052551954827651e+01 
207 0 1 1.0279999999999927e+00 1.2749935846243359e+01 1.0000000000000000e+00 2.5730735212644449e+00 5.7446393519670300e+00 1.2052580642102980e+01 
208 0 1 1.0279999999999816e+00 1.2174194784530929e+01 1.0000000000000000e+00 2.5734397541692533e+00 5.7412260230728869e+00 1.2052067123979523e+01 
254 0 1 1.0279999999999174e+00 1.3795185828981344e+01 1.0000000000000000e+00 1.7177002252303577e+00 4.3440020487550726e+00 1.1612583745595058e+01 
302 0 1 1.0279999999999483e+00 -2.3348865944126096e+01 1.0000000000000000e+00 1.7133020251367481e+00 4.3340202253569293e+00 1.1601023878142710e+01 
440 0 1 1.0279999999999678e+00 9.7350126198809050e+00 1.0000000000000000e+00 1.7126319431294599e+00 4.3322186277097163e+00 1.1599046088631802e+01 
391 0 1 1.0279999999999410e+00 -2.0339695793942276e+00 1.0000000000000000e+00 1.6959993940754818e+00 4.3222303298859917e+00 1.1573922408855646e+01 
149 0 1 1.0280000000000880e+00 7.5778520724357064e+00 1.0000000000000000e+00 1.6007262728382092e+00 4.2623809584851795e+00 1.1381948262956550e+01 
457 0 1 1.0279999999999969e+00 2.5983130147104475e+01 1.0000000000000000e+00 6.6199471365329776e+00 5.7518401675001529e+00 1.1583692011802038e+01 
630 0 1 1.0279999999999923e+00 -1.3052233685328272e+01 1.0000000000000000e+00 6.3928405604981080e+00 6.0845857832735559e+00 1.1421099794933150e+01 
163 0 1 1.0279999999998797e+00 -8.5583719245697516e+00 1.0000000000000000e+00 3.2358945040132636e+00 8.1399314444505251e+00 1.1231635032492912e+01 
330 0 1 1.0280000000001051e+00 -8.9374059392626855e+00 1.0000000000000000e+00 3.0654282105304187e+00 7.8835148234648829e+00 1.1186700670914888e+01 
384 0 1 1.0279999999999752e+00 -9.2905156161740643e-01 1.0000000000000000e+00 2.8143111098863778e+00 7.1907790306592139e+00 1.0961128931796269e+01 
551 0 1 1.0279999999999210e+00 -1.6144306359814640e+00 1.0000000000000000e+00 2.7889491332491003e+00 6.8793981738615848e+00 1.0822781910406118e+01 
512 0 1 1.0280000000000284e+00 -8.8316488087517726e+00 1.0000000000000000e+00 6.1189445401413929e+00 6.7644427914270340e+00 1.2915043860521831e+01 
86 0 1 1.0279999999999805e+00 -3.2612184343489803e-01 1.0000000000000000e+00 6.0546167189680098e+00 6.7733634313581570e+00 1.2856969863604363e+01 
569 0 1 1.0279999999999012e+00 -2.4656901088109926e+01 1.0000000000000000e+00 5.8654256910427858e+00 9.9682440883317796e+00 1.2697936628648863e+01 
101 0 1 1.0280000000000946e+00 2.4227874728633183e+00 1.0000000000000000e+00 4.7617707565613809e+00 9.2880062718066476e+00 1.2286020937472893e+01 
114 0 1 1.0279999999999054e+00 -7.6940045019696548e+00 1.0000000000000000e+00 3.8314773325190608e+00 9.1375777868496133e+00 1.2006203756971473e+01 
309 0 1 1.0279999999999161e+00 1.3352442363826840e+00 1.0000000000000000e+00 3.7426234356709731e+00 8.9351912263678521e+00 1.1386528009716848e+01 
496 0 1 1.0279999999999863e+00 -1.2035031000289546e+01 1.0000000000000000e+00 3.4958451783809386e+00 7.3887605878248817e+00 1.3891578041903227e+01 
499 0 1 1.0279999999999656e+00 -5.7044086834671415e+00 1.0000000000000000e+00 3.4966545495001031e+00 7.3904864119107385e+00 1.3892621208800975e+01 
181 0 1 1.0280000000000238e+00 7.7418887449360660e+00 1.0000000000000000e+00 3.4966276420826414e+00 7.3904266371699956e+00 1.3892585426488042e+01 
426 0 1 1.0280000000000054e+00 5.1369324851949498e+00 1.0000000000000000e+00 3.4689993845069078e+00 7.4217739196898700e+00 1.3898028559856551e+01 
118 0 1 1.0280000000000085e+00 -8.3301976345369937e+00 1.0000000000000000e+00 3.5082115941323888e+00 7.3924000923915862e+00 1.3896467505777856e+01 
1 0 1 1.0279999999999523e+00 -2.8295278724197026e+01 1.0000000000000000e+00 3.5333101915226237e+00 7.4343514153330084e+00 1.3921887697279198e+01 
303 0 1 1.0279999999999343e+00 -3.3332927008852788e+00 1.0000000000000000e+00 4.2827497904963350e+00 9.6809649412308421e+00 1.5346663209457059e+01 
200 0 1 1.0279999999999758e+00 4.9672663490095266e+00 1.0000000000000000e+00 4.2748718486762129e+00 9.7531259067534251e+00 1.5461300581723245e+01 
507 0 1 1.0279999999999696e+00 -5.8233357204840508e-01 1.0000000000000000e+00 4.2750442425837383e+00 9.7508410072467750e+00 1.5458055280701664e+01 
346 0 1 1.0279999999999967e+00 6.0505897609398138e+00 1.0000000000000000e+00 4.2752600173084110e+00 9.7479667112441355e+00 1.5453937524002166e+01 
211 0 1 1.0280000000000000e+00 4.4335268353948099e+00 1.0000000000000000e+00 4.2742778614295496e+00 9.7609157738418162e+00 1.5472182557101721e+01 
392 0 1 1.0280000000000380e+00 -2.2540285450419148e+01 1.0000000000000000e+00 2.7197271520768025e+00 2.7603482264052848e+00 1.6909942102553682e+01 
312 0 1 1.0279999999999738e+00 5.5609226877724343e+00 1.0000000000000000e+00 2.8389056212745589e+00 2.9311328210115581e+00 1.6967662621588413e+01 
459 0 1 1.0279999999999900e+00 -8.0431709493316195e-01 1.0000000000000000e+00 2.8861878406981702e+00 3.0017192728099116e+00 1.7004631114500363e+01 
168 0 1 1.0279999999999592e+00 3.4585875582531731e+00 1.0000000000000000e+00 1.7129592086863450e+00 1.9618870622584983e+00 1.7051078270947301e+01 
124 0 1 1.0279999999999812e+00 4.5907279183885032e+00 1.0000000000000000e+00 2.9262354338743206e+00 3.0721226122714373e+00 1.7047241640946556e+01 
597 0 1 1.0279999999998273e+00 -1.7810134613994613e+01 1.0000000000000000e+00 4.3312491787789842e-01 1.5537711466624733e+00 1.7779138252474723e+01 
350 0 1 1.0279999999998386e+00 -1.2387029133072684e+01 1.0000000000000000e+00 4.3183739777162489e-01 1.5546559609910970e+00 1.7777898049438097e+01 
622 0 1 1.0279999999999914e+00 -2.0807292722351555e+01 1.0000000000000000e+00 6.8732406553355874e-01 1.3932057137371481e+00 1.8054409387616836e+01 
407 0 1 1.0280000000000002e+00 -2.5531202589352194e+01 1.0000000000000000e+00 2.7927249494840587e+00 1.2130832420848952e+00 1.9049424660177134e+01 
308 0 1 1.0279999999999887e+00 -4.8702018936311493e+00 1.0000000000000000e+00 1.6352484088670185e+00 1.1676322207012593e+00 1.9069380342241487e+01 
634 0 1 1.0279999999999960e+00 -1.3981970241026382e+01 1.0000000000000000e+00 1.6342133279949964e+00 1.1675796328694383e+00 1.9067795359514928e+01 
578 0 1 1.0279999999999723e+00 -1.2962912338013114e+01 1.0000000000000000e+00 1.6326191312257599e+00 1.1674998252186082e+00 1.9065357796427751e+01 
559 0 1 1.0280000000000167e+00 -8.8833198241960751e+00 1.0000000000000000e+00 3.3664794677467995e+00 1.6017730939662220e+00 1.9049622756168134e+01 
295 0 1 1.0280000000000147e+00 -8.0455789881680151e-01 1.0000000000000000e+00 6.4754062571308877e+00 3.1586186618649625e+00 1.8289024713769056e+01 
640 0 1 1.0280000000000145e+00 -1.7600665364799085e+01 1.0000000000000000e+00 6.4754061728235257e+00 3.1586185668451918e+00 1.8289024557865115e+01 
534 0 1 1.0280000000000205e+00 -5.4135195053644267e+00 1.0000000000000000e+00 6.4754062567992463e+00 3.1586186614613574e+00 1.8289024713147313e+01 
448 0 1 1.0280000000000222e+00 -2.1090961751171207e+01 1.0000000000000000e+00 6.4754062567177675e+00 3.1586186613749274e+00 1.8289024712998142e+01 
57 0 1 1.0280000000000113e+00 -2.7066991709190308e+01 1.0000000000000000e+00 6.4747563249969904e+00 3.1581533260527714e+00 1.8287893212968214e+01 
611 0 1 1.0280000000000376e+00 -1.6331047130796225e+01 1.0000000000000000e+00 6.4746704077784250e+00 3.1583597847722631e+00 1.8287819438229732e+01 
270 0 1 1.0279999999999643e+00 1.8058761970727765e+01 1.0000000000000000e+00 3.5469127094671737e+00 2.9139232638658892e+00 1.9628648670878093e+01 
617 0 1 1.0280000000000078e+00 -1.4975982392564088e+01 1.0000000000000000e+00 3.6119248762596881e+00 2.9191066339279290e+00 1.9551756600928698e+01 
119 0 1 1.0279999999999689e+00 -8.1031404371492748e+00 1.0000000000000000e+00 3.5587053797033734e+00 2.9150022946387995e+00 1.9614904318535469e+01 
176 0 1 1.0279999999999532e+00 -1.6134448876175441e+01 1.0000000000000000e+00 3.5625493108700352e+00 2.9156351842686372e+00 1.9610020971051117e+01 
225 0 1 1.0280000000000895e+00 1.6472493305351566e+01 1.0000000000000000e+00 4.5451285002313213e-01 3.6338031405568323e+00 1.8469515531588932e+01 
477 0 1 1.0280000000000524e+00 -1.9301498521524600e+01 1.0000000000000000e+00 2.8861515130008319e+00 3.3845509497387969e+00 1.7230750138412457e+01 
641 0 1 1.0280000000000424e+00 -1.9832282558732906e+01 1.0000000000000000e+00 2.4878754514299109e-01 3.8438267680975007e+00 1.7805745901262874e+01 
171 0 1 1.0280000000000715e+00 5.8587337780962550e+00 1.0000000000000000e+00 3.8399946621491332e-01 3.7592159966879883e+00 1.8302303999897408e+01 
605 0 1 1.0280000000000291e+00 -1.0715860487258652e+01 1.0000000000000000e+00 2.6327051398407153e-01 3.8540753272330259e+00 1.7872686165938006e+01 
599 0 1 1.0280000000000233e+00 -1.2911513342255521e+01 1.0000000000000000e+00 2.9702846546649281e-01 3.8542624052973906e+00 1.8015736169406154e+01 
315 0 1 1.0280000000000165e+00 -2.0729857399694204e+01 1.0000000000000000e+00 3.3027179268687608e+00 3.5364428095211413e+00 1.8244656726421987e+01 
160 0 1 1.0280000000000518e+00 8.0711135546074608e+00 1.0000000000000000e+00 2.8691173019776528e-01 1.2367202889770345e+01 7.0516144408666093e-01 
285 0 1 1.0280000000000551e+00 2.0351761226837169e+01 1.0000000000000000e+00 2.8622584865976425e-01 1.2366014617479825e+01 6.8928863678479779e-01 
314 0 1 1.0280000000000573e+00 9.3320551425243170e-01 1.0000000000000000e+00 2.8530905909786519e-01 1.2365530624845558e+01 6.8434514210641917e-01 
497 0 1 1.0280000000001457e+00 -2.2373375211902399e+01 1.0000000000000000e+00 2.4636210612526091e-01 1.2355923475959814e+01 6.3467877085751823e-01 
532 0 1 1.0280000000001510e+00 -1.0279600022153261e+01 1.0000000000000000e+00 2.4725173504283013e-01 1.2357715958136099e+01 6.0619193496119728e-01 
367 0 1 1.0280000000002045e+00 1.8323015511579413e+01 1.0000000000000000e+00 3.5550649619566816e+00 1.7379057820694285e+01 2.3569253407798962e+00 
398 0 1 1.0280000000002003e+00 9.3233784715324450e+00 1.0000000000000000e+00 3.5550560473828230e+00 1.7379064688298307e+01 2.3569285033565501e+00 
293 0 1 1.0280000000002028e+00 1.6405713427513270e+01 1.0000000000000000e+00 3.5550713199875750e+00 1.7379052091294426e+01 2.3569339396084752e+00 
189 0 1 1.0280000000002030e+00 -7.0608480247671945e+00 1.0000000000000000e+00 3.5550713199999135e+00 1.7379052091284578e+01 2.3569339396084859e+00 
389 0 1 1.0280000000002005e+00 1.0762185476408343e+01 1.0000000000000000e+00 3.5550171850228161e+00 1.7379097785887975e+01 2.3569015354988467e+00 
613 0 1 1.0280000000002028e+00 -2.7781385909473384e+00 1.0000000000000000e+00 3.5550575439234127e+00 1.7379063955609254e+01 2.3569224984227626e+00 
290 0 1 1.0280000000002028e+00 1.8852380266533171e+01 1.0000000000000000e+00 3.5550482248929831e+00 1.7379072126410396e+01 2.3569129311450334e+00 
328 0 1 1.0279999999999980e+00 1.9626259069794805e-01 1.0000000000000000e+00 6.5450683686353965e+00 1.8274074032484830e+01 4.7776863624117683e-01 
359 0 1 1.0280000000000020e+00 2.5090467198488316e+01 1.0000000000000000e+00 6.5395627185885106e+00 1.8273169400032639e+01 4.7058256473890381e-01 
603 0 1 1.0280000000000025e+00 -1.9201270819685332e+00 1.0000000000000000e+00 6.5390404706752330e+00 1.8273087751116933e+01 4.6988786432773955e-01 
383 0 1 1.0279999999999943e+00 1.8186383797355699e+01 1.0000000000000000e+00 6.5360193832224018e+00 1.8272306395514143e+01 4.6643784960478429e-01 
59 0 1 1.0279999999999947e+00 2.1367055901542713e+00 1.0000000000000000e+00 6.5345634392456091e+00 1.8271432396497971e+01 4.6571513690267824e-01 
284 0 1 1.0279999999999434e+00 1.2706892930341027e+01 1.0000000000000000e+00 4.9009217501193278e+00 1.9695931581721570e+01 3.9737574276916403e+00 
257 0 1 1.0279999999999101e+00 1.2282302687858518e+01 1.0000000000000000e+00 4.7269025370335722e+00 1.9623761592937406e+01 4.5585004061006726e+00 
381 0 1 1.0280000000000264e+00 1.0556179207623321e+01 1.0000000000000000e+00 4.0784615297449456e+00 1.9871046320964496e+01 4.8622701573606211e+00 
135 0 1 1.0280000000000999e+00 -2.7077715563281011e+00 1.0000000000000000e+00 4.0784731250289870e+00 1.9871053333905827e+01 4.8622762056177491e+00 
374 0 1 1.0280000000001455e+00 1.1921615581886744e+01 1.0000000000000000e+00 4.0784330380322462e+00 1.9871029189047892e+01 4.8622553321340849e+00 
329 0 1 1.0280000000000813e+00 -2.5303446715398867e+00 1.0000000000000000e+00 3.3881955871213427e+00 1.3079164320669767e+01 8.1936527477337453e+00 
418 0 1 1.0280000000000380e+00 8.7072926071509276e+00 1.0000000000000000e+00 3.3881955871487492e+00 1.3079164320642374e+01 8.1936527477702850e+00 
335 0 1 1.0280000000000413e+00 -7.6691966344750984e-01 1.0000000000000000e+00 3.3881955872199097e+00 1.3079164320583375e+01 8.1936527478472723e+00 
242 0 1 1.0280000000000671e+00 2.3347888162622863e+00 1.0000000000000000e+00 3.3881955872660128e+00 1.3079164320523146e+01 8.1936527479387298e+00 
244 0 1 1.0280000000000404e+00 3.5192733995944212e+00 1.0000000000000000e+00 3.3882006279779011e+00 1.3079152654388540e+01 8.1936720391974767e+00 
144 0 1 1.0280000000000655e+00 -2.5012571873425422e+00 1.0000000000000000e+00 3.3881955855395312e+00 1.3079164322054112e+01 8.1936527458901391e+00 
60 0 1 1.0280000000000871e+00 -1.1225653338048662e+01 1.0000000000000000e+00 3.3881955855005157e+00 1.3079164322088463e+01 8.1936527458451494e+00 
170 0 1 1.0279999999998752e+00 2.7546235359675011e+00 1.0000000000000000e+00 4.0155603970686053e+00 1.5836125818338568e+01 9.6479915243968168e+00 
78 0 1 1.0280000000001377e+00 -1.2955871307383905e+01 1.0000000000000000e+00 4.0949288861471258e+00 1.5820964483843705e+01 9.7012734308127193e+00 
174 0 1 1.0279999999999234e+00 -2.5494388186997377e+00 1.0000000000000000e+00 4.0217246477220945e+00 1.5838332602596438e+01 9.6506587240188946e+00 
479 0 1 1.0280000000001288e+00 2.5044387752010202e+00 1.0000000000000000e+00 4.0856891823073269e+00 1.5810595757559730e+01 9.6980070896464472e+00 
219 0 1 1.0280000000001501e+00 -5.9022382553701558e+00 1.0000000000000000e+00 4.0929619935483483e+00 1.5818720342033231e+01 9.7005642371515624e+00 
519 0 1 1.0279999999999794e+00 -1.2085893003763669e+01 1.0000000000000000e+00 5.6206002742909575e+00 1.1196129542147403e+01 1.3268711126332645e+01 
462 0 1 1.0280000000000398e+00 -2.0880571434048441e+01 1.0000000000000000e+00 4.6645001979131626e+00 1.0655864079077034e+01 1.2668344024630109e+01 
299 0 1 1.0279999999999907e+00 7.7939725115680787e+00 1.0000000000000000e+00 4.4972364923070431e+00 1.0676452573905003e+01 1.1362282906189956e+01 
529 0 1 1.0280000000000700e+00 1.3433777665131048e+00 1.0000000000000000e+00 4.4983802878800248e+00 1.0676411569475404e+01 1.1360725420126021e+01 
54 0 1 1.0279999999999816e+00 -8.1745589247941570e+00 1.0000000000000000e+00 4.4987898201196552e+00 1.0676417439007455e+01 1.1360194900168722e+01 
233 0 1 1.0279999999999969e+00 4.7165942450358083e+00 1.0000000000000000e+00 4.4256878999748936e+00 1.0575364268532887e+01 1.1336000327450988e+01 
277 0 1 1.0279999999999223e+00 1.4174585538913101e+01 1.0000000000000000e+00 1.4140359795716941e+00 1.6180061205521618e+01 1.2743010845765207e+01 
473 0 1 1.0280000000001379e+00 3.1450542299851372e+00 1.0000000000000000e+00 1.6152420847558393e+00 1.6229070297870141e+01 1.2515112056977463e+01 
638 0 1 1.0279999999998370e+00 -4.0461827822204597e+01 1.0000000000000000e+00 2.2556793666718904e+00 1.6640915381936956e+01 1.2495021926046487e+01 
273 0 1 1.0280000000001084e+00 -2.0863675361342786e+01 1.0000000000000000e+00 3.9466313524088266e+00 1.6470778242402812e+01 1.1313417861868498e+01 
304 0 1 1.0279999999999505e+00 7.8710291439975393e+00 1.0000000000000000e+00 3.9479558991873267e+00 1.6471228111770355e+01 1.1311906454744836e+01 
283 0 1 1.0279999999999745e+00 1.4525008561582602e+01 1.0000000000000000e+00 3.9514557526710670e+00 1.6471749876171888e+01 1.1308103725025205e+01 
467 0 1 1.0280000000000460e+00 5.1316273153555247e+00 1.0000000000000000e+00 2.3895449896282619e+00 1.6669251865505704e+01 1.0857781177017161e+01 
25 0 1 1.0280000000000831e+00 -1.1446211670537959e+01 1.0000000000000000e+00 2.3898832201759608e+00 1.6668805704064326e+01 1.0857016431900885e+01 
324 0 1 1.0280000000001279e+00 -6.6703056475807170e+00 1.0000000000000000e+00 2.3900489943170773e+00 1.6668586235488984e+01 1.0856641220769513e+01 
40 0 1 1.0279999999998259e+00 -9.9780661727135076e+00 1.0000000000000000e+00 1.9224650536673931e+00 1.7213033613630575e+01 1.2936093148251484e+01 
45 0 1 1.0280000000003404e+00 -8.8128992768495458e+00 1.0000000000000000e+00 4.1391375485538675e-03 1.8617075405068697e+01 1.1620473036511424e+01 
4 0 1 1.0279999999999503e+00 -1.3760579578075635e+01 1.0000000000000000e+00 4.8179094251270973e+00 1.1410575933217164e+01 1.4523011398617195e+01 
76 0 1 1.0279999999999794e+00 -1.3054542579451534e+01 1.0000000000000000e+00 5.8572405563140828e+00 1.3308085449039947e+01 1.4855850511724210e+01 
546 0 1 1.0279999999999632e+00 -6.7219411686494928e+00 1.0000000000000000e+00 5.1812611752628301e+00 1.2553776139686509e+01 1.5635328591089310e+01 
9 0 1 1.0279999999999752e+00 -1.2201305734924583e+01 1.0000000000000000e+00 4.6687252945039104e+00 1.1501555162382408e+01 1.5743695430680393e+01 
633 0 1 1.0280000000000800e+00 -1.1568965747096515e+01 1.0000000000000000e+00 5.2059462041393232e+00 1.1293047479220990e+01 1.5979296997844267e+01 
590 0 1 1.0280000000000795e+00 -1.8566066104630812e+00 1.0000000000000000e+00 4.6914980801519270e+00 1.1100154067091948e+01 1.5977435792154235e+01 
100 0 1 1.0279999999997882e+00 -1.3914406464191135e+01 1.0000000000000000e+00 7.9859898847837885e-01 1.6420880543198425e+01 1.3690326795547469e+01 
126 0 1 1.0279999999999907e+00 -2.7028060684486981e+01 1.0000000000000000e+00 6.1650281634501445e+00 1.3412438014298314e+01 1.4561488394081399e+01 
413 0 1 1.0280000000000087e+00 -3.8183729032832021e+00 1.0000000000000000e+00 5.8423847686695538e+00 1.5718739916515723e+01 1.5843453977676660e+01 
404 0 1 1.0280000000000094e+00 6.3594481156858480e+00 1.0000000000000000e+00 4.7095158400643280e+00 1.4266778118278733e+01 1.6000016471011875e+01 
442 0 1 1.0280000000000147e+00 -3.1260742356605973e-04 1.0000000000000000e+00 5.6887671817864653e+00 1.5740710567551435e+01 1.5998736486351593e+01 