LAMMPS data file via write_data, version 30 Jul 2016, timestep = 50000000

2080 atoms
8 atom types

0.0000000000000000e+00 4.0000000000000000e+01 xlo xhi
0.0000000000000000e+00 4.0000000000000000e+01 ylo yhi
0.0000000000000000e+00 1.0000000000000000e+02 zlo zhi

Masses

1 3.896
2 5.36
3 20.064
4 8.378
5 8.378
6 8.378
7 8.378
8 8.378

Atoms # meso-molecular

1 2 4 2.2559723595316457e+00 -2.4209784807297618e-03 1.0000000000000000e+00 0.0000000000000000e+00 0.0000000000000000e+00 2.5000000000000000e+00 
2 2 4 2.2559723595316457e+00 8.3938760866748047e-08 1.0000000000000000e+00 0.0000000000000000e+00 2.0000000000000000e+00 2.5000000000000000e+00 
21 2 4 2.2559723595316457e+00 3.1811417089471785e-07 1.0000000000000000e+00 2.0000000000000000e+00 0.0000000000000000e+00 2.5000000000000000e+00 
22 2 4 2.2559723595316457e+00 1.7741274368847139e-08 1.0000000000000000e+00 2.0000000000000000e+00 2.0000000000000000e+00 2.5000000000000000e+00 
41 2 4 2.2559723595316457e+00 0.0000000000000000e+00 1.0000000000000000e+00 4.0000000000000000e+00 0.0000000000000000e+00 2.5000000000000000e+00 
42 2 4 2.2559723595316457e+00 7.5577011747544209e-09 1.0000000000000000e+00 4.0000000000000000e+00 2.0000000000000000e+00 2.5000000000000000e+00 
61 2 4 2.2559723595316457e+00 -1.4010842530296844e-06 1.0000000000000000e+00 6.0000000000000000e+00 0.0000000000000000e+00 2.5000000000000000e+00 
62 2 4 2.2559723595316457e+00 0.0000000000000000e+00 1.0000000000000000e+00 6.0000000000000000e+00 2.0000000000000000e+00 2.5000000000000000e+00 
81 2 4 2.2559723595316457e+00 -8.2136303380880734e-07 1.0000000000000000e+00 8.0000000000000000e+00 0.0000000000000000e+00 2.5000000000000000e+00 
82 2 4 2.2559723595316457e+00 8.5016457402043777e-09 1.0000000000000000e+00 8.0000000000000000e+00 2.0000000000000000e+00 2.5000000000000000e+00 
101 2 4 2.2559723595316457e+00 1.5385104541328921e-10 1.0000000000000000e+00 1.0000000000000000e+01 0.0000000000000000e+00 2.5000000000000000e+00 
102 2 4 2.2559723595316457e+00 5.8396485344795666e-11 1.0000000000000000e+00 1.0000000000000000e+01 2.0000000000000000e+00 2.5000000000000000e+00 
121 2 4 2.2559723595316457e+00 1.8942083396192915e-05 1.0000000000000000e+00 1.2000000000000000e+01 0.0000000000000000e+00 2.5000000000000000e+00 
122 2 4 2.2559723595316457e+00 3.7985339697917190e-10 1.0000000000000000e+00 1.2000000000000000e+01 2.0000000000000000e+00 2.5000000000000000e+00 
141 2 4 2.2559723595316457e+00 6.9745380071418050e-09 1.0000000000000000e+00 1.4000000000000000e+01 0.0000000000000000e+00 2.5000000000000000e+00 
142 2 4 2.2559723595316457e+00 2.0646935476918836e-11 1.0000000000000000e+00 1.4000000000000000e+01 2.0000000000000000e+00 2.5000000000000000e+00 
161 2 4 2.2559723595316457e+00 -4.1709770824905316e-04 1.0000000000000000e+00 1.6000000000000000e+01 0.0000000000000000e+00 2.5000000000000000e+00 
162 2 4 2.2559723595316457e+00 2.2817758226469696e-10 1.0000000000000000e+00 1.6000000000000000e+01 2.0000000000000000e+00 2.5000000000000000e+00 
181 2 4 2.2559723595316457e+00 5.9013830943064824e-04 1.0000000000000000e+00 1.8000000000000000e+01 0.0000000000000000e+00 2.5000000000000000e+00 
182 2 4 2.2559723595316457e+00 1.4732457265741201e-09 1.0000000000000000e+00 1.8000000000000000e+01 2.0000000000000000e+00 2.5000000000000000e+00 
3 2 4 2.2559723595316457e+00 2.8854817589802164e-10 1.0000000000000000e+00 0.0000000000000000e+00 4.0000000000000000e+00 2.5000000000000000e+00 
23 2 4 2.2559723595316457e+00 0.0000000000000000e+00 1.0000000000000000e+00 2.0000000000000000e+00 4.0000000000000000e+00 2.5000000000000000e+00 
43 2 4 2.2559723595316457e+00 0.0000000000000000e+00 1.0000000000000000e+00 4.0000000000000000e+00 4.0000000000000000e+00 2.5000000000000000e+00 
63 2 4 2.2559723595316457e+00 2.3509466908899806e-09 1.0000000000000000e+00 6.0000000000000000e+00 4.0000000000000000e+00 2.5000000000000000e+00 
83 2 4 2.2559723595316457e+00 9.8155903239438977e-09 1.0000000000000000e+00 8.0000000000000000e+00 4.0000000000000000e+00 2.5000000000000000e+00 
103 2 4 2.2559723595316457e+00 2.0177515292025419e-10 1.0000000000000000e+00 1.0000000000000000e+01 4.0000000000000000e+00 2.5000000000000000e+00 
123 2 4 2.2559723595316457e+00 4.4409373241141665e-08 1.0000000000000000e+00 1.2000000000000000e+01 4.0000000000000000e+00 2.5000000000000000e+00 
143 2 4 2.2559723595316457e+00 7.1128308671098757e-09 1.0000000000000000e+00 1.4000000000000000e+01 4.0000000000000000e+00 2.5000000000000000e+00 
163 2 4 2.2559723595316457e+00 2.3480348993123503e-08 1.0000000000000000e+00 1.6000000000000000e+01 4.0000000000000000e+00 2.5000000000000000e+00 
183 2 4 2.2559723595316457e+00 8.4528022992116136e-11 1.0000000000000000e+00 1.8000000000000000e+01 4.0000000000000000e+00 2.5000000000000000e+00 
4 2 4 2.2559723595316457e+00 1.4562659486564669e-10 1.0000000000000000e+00 0.0000000000000000e+00 6.0000000000000000e+00 2.5000000000000000e+00 
5 2 4 2.2559723595316457e+00 5.2302349757231049e-11 1.0000000000000000e+00 0.0000000000000000e+00 8.0000000000000000e+00 2.5000000000000000e+00 
24 2 4 2.2559723595316457e+00 2.4604280224027083e-11 1.0000000000000000e+00 2.0000000000000000e+00 6.0000000000000000e+00 2.5000000000000000e+00 
25 2 4 2.2559723595316457e+00 1.6674705759971506e-10 1.0000000000000000e+00 2.0000000000000000e+00 8.0000000000000000e+00 2.5000000000000000e+00 
44 2 4 2.2559723595316457e+00 1.3733526579809279e-08 1.0000000000000000e+00 4.0000000000000000e+00 6.0000000000000000e+00 2.5000000000000000e+00 
45 2 4 2.2559723595316457e+00 0.0000000000000000e+00 1.0000000000000000e+00 4.0000000000000000e+00 8.0000000000000000e+00 2.5000000000000000e+00 
64 2 4 2.2559723595316457e+00 0.0000000000000000e+00 1.0000000000000000e+00 6.0000000000000000e+00 6.0000000000000000e+00 2.5000000000000000e+00 
65 2 4 2.2559723595316457e+00 0.0000000000000000e+00 1.0000000000000000e+00 6.0000000000000000e+00 8.0000000000000000e+00 2.5000000000000000e+00 
84 2 4 2.2559723595316457e+00 3.3423833982621041e-11 1.0000000000000000e+00 8.0000000000000000e+00 6.0000000000000000e+00 2.5000000000000000e+00 
85 2 4 2.2559723595316457e+00 6.4493163847979691e-09 1.0000000000000000e+00 8.0000000000000000e+00 8.0000000000000000e+00 2.5000000000000000e+00 
104 2 4 2.2559723595316457e+00 0.0000000000000000e+00 1.0000000000000000e+00 1.0000000000000000e+01 6.0000000000000000e+00 2.5000000000000000e+00 
105 2 4 2.2559723595316457e+00 0.0000000000000000e+00 1.0000000000000000e+00 1.0000000000000000e+01 8.0000000000000000e+00 2.5000000000000000e+00 
124 2 4 2.2559723595316457e+00 3.1717370309355114e-14 1.0000000000000000e+00 1.2000000000000000e+01 6.0000000000000000e+00 2.5000000000000000e+00 
125 2 4 2.2559723595316457e+00 0.0000000000000000e+00 1.0000000000000000e+00 1.2000000000000000e+01 8.0000000000000000e+00 2.5000000000000000e+00 
144 2 4 2.2559723595316457e+00 0.0000000000000000e+00 1.0000000000000000e+00 1.4000000000000000e+01 6.0000000000000000e+00 2.5000000000000000e+00 
145 2 4 2.2559723595316457e+00 0.0000000000000000e+00 1.0000000000000000e+00 1.4000000000000000e+01 8.0000000000000000e+00 2.5000000000000000e+00 
164 2 4 2.2559723595316457e+00 0.0000000000000000e+00 1.0000000000000000e+00 1.6000000000000000e+01 6.0000000000000000e+00 2.5000000000000000e+00 
165 2 4 2.2559723595316457e+00 0.0000000000000000e+00 1.0000000000000000e+00 1.6000000000000000e+01 8.0000000000000000e+00 2.5000000000000000e+00 
184 2 4 2.2559723595316457e+00 3.8062550135497892e-08 1.0000000000000000e+00 1.8000000000000000e+01 6.0000000000000000e+00 2.5000000000000000e+00 
185 2 4 2.2559723595316457e+00 0.0000000000000000e+00 1.0000000000000000e+00 1.8000000000000000e+01 8.0000000000000000e+00 2.5000000000000000e+00 
6 2 4 2.2559723595316457e+00 2.7095809733424822e-09 1.0000000000000000e+00 0.0000000000000000e+00 1.0000000000000000e+01 2.5000000000000000e+00 
26 2 4 2.2559723595316457e+00 1.5502494184047247e-08 1.0000000000000000e+00 2.0000000000000000e+00 1.0000000000000000e+01 2.5000000000000000e+00 
46 2 4 2.2559723595316457e+00 0.0000000000000000e+00 1.0000000000000000e+00 4.0000000000000000e+00 1.0000000000000000e+01 2.5000000000000000e+00 
66 2 4 2.2559723595316457e+00 1.2439078785815323e-08 1.0000000000000000e+00 6.0000000000000000e+00 1.0000000000000000e+01 2.5000000000000000e+00 
86 2 4 2.2559723595316457e+00 0.0000000000000000e+00 1.0000000000000000e+00 8.0000000000000000e+00 1.0000000000000000e+01 2.5000000000000000e+00 
106 2 4 2.2559723595316457e+00 0.0000000000000000e+00 1.0000000000000000e+00 1.0000000000000000e+01 1.0000000000000000e+01 2.5000000000000000e+00 
126 2 4 2.2559723595316457e+00 0.0000000000000000e+00 1.0000000000000000e+00 1.2000000000000000e+01 1.0000000000000000e+01 2.5000000000000000e+00 
146 2 4 2.2559723595316457e+00 0.0000000000000000e+00 1.0000000000000000e+00 1.4000000000000000e+01 1.0000000000000000e+01 2.5000000000000000e+00 
166 2 4 2.2559723595316457e+00 0.0000000000000000e+00 1.0000000000000000e+00 1.6000000000000000e+01 1.0000000000000000e+01 2.5000000000000000e+00 
186 2 4 2.2559723595316457e+00 0.0000000000000000e+00 1.0000000000000000e+00 1.8000000000000000e+01 1.0000000000000000e+01 2.5000000000000000e+00 
7 2 4 2.2559723595316457e+00 0.0000000000000000e+00 1.0000000000000000e+00 0.0000000000000000e+00 1.2000000000000000e+01 2.5000000000000000e+00 
8 2 4 2.2559723595316457e+00 2.2766938021157413e-02 1.0000000000000000e+00 0.0000000000000000e+00 1.4000000000000000e+01 2.5000000000000000e+00 
27 2 4 2.2559723595316457e+00 2.1702701950144991e-08 1.0000000000000000e+00 2.0000000000000000e+00 1.2000000000000000e+01 2.5000000000000000e+00 
28 2 4 2.2559723595316457e+00 0.0000000000000000e+00 1.0000000000000000e+00 2.0000000000000000e+00 1.4000000000000000e+01 2.5000000000000000e+00 
47 2 4 2.2559723595316457e+00 0.0000000000000000e+00 1.0000000000000000e+00 4.0000000000000000e+00 1.2000000000000000e+01 2.5000000000000000e+00 
48 2 4 2.2559723595316457e+00 0.0000000000000000e+00 1.0000000000000000e+00 4.0000000000000000e+00 1.4000000000000000e+01 2.5000000000000000e+00 
67 2 4 2.2559723595316457e+00 0.0000000000000000e+00 1.0000000000000000e+00 6.0000000000000000e+00 1.2000000000000000e+01 2.5000000000000000e+00 
68 2 4 2.2559723595316457e+00 0.0000000000000000e+00 1.0000000000000000e+00 6.0000000000000000e+00 1.4000000000000000e+01 2.5000000000000000e+00 
87 2 4 2.2559723595316457e+00 0.0000000000000000e+00 1.0000000000000000e+00 8.0000000000000000e+00 1.2000000000000000e+01 2.5000000000000000e+00 
88 2 4 2.2559723595316457e+00 0.0000000000000000e+00 1.0000000000000000e+00 8.0000000000000000e+00 1.4000000000000000e+01 2.5000000000000000e+00 
107 2 4 2.2559723595316457e+00 0.0000000000000000e+00 1.0000000000000000e+00 1.0000000000000000e+01 1.2000000000000000e+01 2.5000000000000000e+00 
108 2 4 2.2559723595316457e+00 0.0000000000000000e+00 1.0000000000000000e+00 1.0000000000000000e+01 1.4000000000000000e+01 2.5000000000000000e+00 
127 2 4 2.2559723595316457e+00 0.0000000000000000e+00 1.0000000000000000e+00 1.2000000000000000e+01 1.2000000000000000e+01 2.5000000000000000e+00 
128 2 4 2.2559723595316457e+00 0.0000000000000000e+00 1.0000000000000000e+00 1.2000000000000000e+01 1.4000000000000000e+01 2.5000000000000000e+00 
147 2 4 2.2559723595316457e+00 0.0000000000000000e+00 1.0000000000000000e+00 1.4000000000000000e+01 1.2000000000000000e+01 2.5000000000000000e+00 
148 2 4 2.2559723595316457e+00 0.0000000000000000e+00 1.0000000000000000e+00 1.4000000000000000e+01 1.4000000000000000e+01 2.5000000000000000e+00 
167 2 4 2.2559723595316457e+00 0.0000000000000000e+00 1.0000000000000000e+00 1.6000000000000000e+01 1.2000000000000000e+01 2.5000000000000000e+00 
168 2 4 2.2559723595316457e+00 0.0000000000000000e+00 1.0000000000000000e+00 1.6000000000000000e+01 1.4000000000000000e+01 2.5000000000000000e+00 
187 2 4 2.2559723595316457e+00 0.0000000000000000e+00 1.0000000000000000e+00 1.8000000000000000e+01 1.2000000000000000e+01 2.5000000000000000e+00 
188 2 4 2.2559723595316457e+00 0.0000000000000000e+00 1.0000000000000000e+00 1.8000000000000000e+01 1.4000000000000000e+01 2.5000000000000000e+00 
9 2 4 2.2559723595316457e+00 -4.3397783120267321e-05 1.0000000000000000e+00 0.0000000000000000e+00 1.6000000000000000e+01 2.5000000000000000e+00 
29 2 4 2.2559723595316457e+00 0.0000000000000000e+00 1.0000000000000000e+00 2.0000000000000000e+00 1.6000000000000000e+01 2.5000000000000000e+00 
49 2 4 2.2559723595316457e+00 0.0000000000000000e+00 1.0000000000000000e+00 4.0000000000000000e+00 1.6000000000000000e+01 2.5000000000000000e+00 
69 2 4 2.2559723595316457e+00 0.0000000000000000e+00 1.0000000000000000e+00 6.0000000000000000e+00 1.6000000000000000e+01 2.5000000000000000e+00 
89 2 4 2.2559723595316457e+00 0.0000000000000000e+00 1.0000000000000000e+00 8.0000000000000000e+00 1.6000000000000000e+01 2.5000000000000000e+00 
109 2 4 2.2559723595316457e+00 0.0000000000000000e+00 1.0000000000000000e+00 1.0000000000000000e+01 1.6000000000000000e+01 2.5000000000000000e+00 
129 2 4 2.2559723595316457e+00 0.0000000000000000e+00 1.0000000000000000e+00 1.2000000000000000e+01 1.6000000000000000e+01 2.5000000000000000e+00 
149 2 4 2.2559723595316457e+00 0.0000000000000000e+00 1.0000000000000000e+00 1.4000000000000000e+01 1.6000000000000000e+01 2.5000000000000000e+00 
169 2 4 2.2559723595316457e+00 0.0000000000000000e+00 1.0000000000000000e+00 1.6000000000000000e+01 1.6000000000000000e+01 2.5000000000000000e+00 
189 2 4 2.2559723595316457e+00 0.0000000000000000e+00 1.0000000000000000e+00 1.8000000000000000e+01 1.6000000000000000e+01 2.5000000000000000e+00 
10 2 4 2.2559723595316457e+00 2.5023066065964300e-07 1.0000000000000000e+00 0.0000000000000000e+00 1.8000000000000000e+01 2.5000000000000000e+00 
30 2 4 2.2559723595316457e+00 0.0000000000000000e+00 1.0000000000000000e+00 2.0000000000000000e+00 1.8000000000000000e+01 2.5000000000000000e+00 
50 2 4 2.2559723595316457e+00 0.0000000000000000e+00 1.0000000000000000e+00 4.0000000000000000e+00 1.8000000000000000e+01 2.5000000000000000e+00 
70 2 4 2.2559723595316457e+00 2.0500295489908488e-04 1.0000000000000000e+00 6.0000000000000000e+00 1.8000000000000000e+01 2.5000000000000000e+00 
90 2 4 2.2559723595316457e+00 -2.8806371279511783e-01 1.0000000000000000e+00 8.0000000000000000e+00 1.8000000000000000e+01 2.5000000000000000e+00 
110 2 4 2.2559723595316457e+00 -1.4698117176611849e-02 1.0000000000000000e+00 1.0000000000000000e+01 1.8000000000000000e+01 2.5000000000000000e+00 
130 2 4 2.2559723595316457e+00 7.5901259301854068e-02 1.0000000000000000e+00 1.2000000000000000e+01 1.8000000000000000e+01 2.5000000000000000e+00 
150 2 4 2.2559723595316457e+00 3.0079293333034024e-01 1.0000000000000000e+00 1.4000000000000000e+01 1.8000000000000000e+01 2.5000000000000000e+00 
170 2 4 2.2559723595316457e+00 -4.5651136375238474e-02 1.0000000000000000e+00 1.6000000000000000e+01 1.8000000000000000e+01 2.5000000000000000e+00 
190 2 4 2.2559723595316457e+00 -1.6121929992175484e-02 1.0000000000000000e+00 1.8000000000000000e+01 1.8000000000000000e+01 2.5000000000000000e+00 
573 175 2 1.0279999896187269e+00 -3.2680730549356936e+03 1.0000000000000000e+00 2.4320718716748360e-01 1.9441880065266572e+00 6.5103420349195549e+00 
576 178 2 1.0280000319979121e+00 -3.2680877004229824e+03 1.0000000000000000e+00 1.5330583982928432e+00 1.9290679462253018e+00 6.4718411577388384e+00 
1749 1351 2 1.0280000621849643e+00 -3.2674920453185214e+03 1.0000000000000000e+00 4.0875564211720300e-01 1.6694983659321390e+00 6.4650428912790767e+00 
1752 1354 2 1.0279999939489817e+00 -3.2678332483379713e+03 1.0000000000000000e+00 1.3874700793417551e+00 1.6604629324715090e+00 6.4480088692141884e+00 
1359 961 2 1.0279999783207436e+00 -1.1624569720866555e+03 1.0000000000000000e+00 2.3647115677415496e+00 1.1212739140147807e+00 7.8299928914357828e+00 
737 339 2 1.0280000218830780e+00 2.4956609001973538e+03 1.0000000000000000e+00 3.6670160231557278e+00 2.8490008469093620e+00 6.3945247756645003e+00 
409 11 2 1.0280000004611862e+00 3.7301279052802383e+03 1.0000000000000000e+00 4.7923459758755875e+00 2.3861685309547220e+00 6.4203151006635153e+00 
1921 1523 2 1.0280000004534411e+00 3.7301264106257122e+03 1.0000000000000000e+00 4.7772374968320053e+00 2.3791011288529336e+00 6.4216788885313250e+00 
757 359 2 1.0279999937470061e+00 6.7048164417812641e+03 1.0000000000000000e+00 5.5631246316048175e+00 2.2159024449646685e+00 7.6406097998910223e+00 
1073 675 2 1.0279999715674584e+00 2.8173181812692824e+03 1.0000000000000000e+00 3.0315039170950655e+00 1.0935496510963065e+00 7.1557371113167187e+00 
1923 1525 2 1.0279999914049507e+00 -1.2348568960640876e+03 1.0000000000000000e+00 8.3615554095477247e+00 2.8125280829612409e+00 6.3998207893153527e+00 
1641 1243 2 1.0279999983332697e+00 3.7538416629904477e+03 1.0000000000000000e+00 6.1018628869117286e+00 2.6149472481780887e+00 7.8657933345688722e+00 
411 13 2 1.0280000084758107e+00 -1.2348257253662687e+03 1.0000000000000000e+00 8.4994569060333021e+00 1.1394625653552364e+00 6.3741386143294960e+00 
1608 1210 2 1.0279999815815368e+00 4.2687034197308485e+03 1.0000000000000000e+00 6.2861301127249662e+00 8.9027636551068545e-01 7.5113432284487152e+00 
580 182 2 1.0280000027945553e+00 3.0083719709285510e+03 1.0000000000000000e+00 8.3659665583408334e+00 7.0184746624241612e-01 6.4208037792375672e+00 
738 340 2 1.0280000023659448e+00 -1.3973549889230312e+03 1.0000000000000000e+00 8.3412628057070801e+00 6.4736826727621843e-01 6.4323872120102994e+00 
579 181 2 1.0280000127326454e+00 1.9325473126073134e+00 1.0000000000000000e+00 6.6112561679836483e+00 3.6194899050230300e-01 6.4362694999455901e+00 
743 345 2 1.0280000025666964e+00 6.5854813995440892e+01 1.0000000000000000e+00 7.8132425797575786e+00 1.0914278753878907e-01 6.4940214002698982e+00 
741 343 2 1.0280000153321849e+00 2.6387782744605593e+03 1.0000000000000000e+00 7.3273012933556734e+00 2.5031337218437432e-02 6.4427823863337821e+00 
874 476 2 1.0280000021215605e+00 -1.2331928190483559e+02 1.0000000000000000e+00 1.1421875866152245e+01 1.9786934911576399e+00 7.5604978648072612e+00 
710 312 2 1.0280000118777382e+00 -1.7985114674525337e+03 1.0000000000000000e+00 1.1016085498434858e+01 1.9658707927002912e+00 7.6864986960163701e+00 
582 184 2 1.0280000204331807e+00 -2.6233386165772504e+03 1.0000000000000000e+00 1.0830680573744413e+01 1.9507095859476185e+00 7.7795561723545612e+00 
1072 674 2 1.0280000019410136e+00 -5.5846211420899817e+02 1.0000000000000000e+00 2.7509192327374437e+00 3.0586468041803068e+00 8.3057368653409895e+00 
896 498 2 1.0279999973131904e+00 9.4079809169398832e+03 1.0000000000000000e+00 2.2586850406633290e+00 5.0090069866322215e+00 8.2698970699297476e+00 
1577 1179 2 1.0280000099888631e+00 2.4957272757686469e+03 1.0000000000000000e+00 3.8947893730604162e+00 2.9544466532215785e+00 6.3829601402284979e+00 
1296 898 2 1.0280000015069117e+00 -8.7979114842598676e+02 1.0000000000000000e+00 3.3793638337152276e+00 3.6802559223661229e+00 6.9662203182183600e+00 
732 334 2 1.0279999963808735e+00 -2.8587499525555968e+03 1.0000000000000000e+00 5.4286451321689304e+00 4.8050161741292463e+00 8.1323075818482611e+00 
1565 1167 2 1.0279999972130014e+00 2.7374540551946584e+03 1.0000000000000000e+00 5.5305241693267648e+00 4.6636690144741930e+00 8.1845055303143113e+00 
1061 663 2 1.0279999989229422e+00 2.7371198141230634e+03 1.0000000000000000e+00 5.6363645246448923e+00 4.2378484652883515e+00 8.3208587634132201e+00 
1756 1358 2 1.0279999950921426e+00 3.0085244492073598e+03 1.0000000000000000e+00 8.1967519359103811e+00 3.3258009427073749e+00 6.4899862204479044e+00 
1578 1180 2 1.0279999982589187e+00 -1.3971841684740828e+03 1.0000000000000000e+00 8.1783569122277378e+00 3.3888090995395634e+00 6.5346004797488186e+00 
1583 1185 2 1.0280000100500730e+00 6.6180979142697211e+01 1.0000000000000000e+00 7.7156103256746311e+00 3.8713938265691823e+00 6.4876953224421614e+00 
1581 1183 2 1.0280000132433793e+00 2.6394894080024151e+03 1.0000000000000000e+00 7.4629734357123789e+00 3.9810209627864883e+00 6.4636203393194647e+00 
1755 1357 2 1.0280000061741046e+00 2.7020689139266816e+00 1.0000000000000000e+00 6.4973723931488720e+00 4.1012267289880615e+00 6.4675755460220072e+00 
1561 1163 2 1.0280000341363655e+00 7.1711081458300632e+03 1.0000000000000000e+00 1.1166166041002475e+01 4.7127652835802589e+00 6.3464491459137733e+00 
1057 659 2 1.0280000350382390e+00 7.1709327439446097e+03 1.0000000000000000e+00 1.1157425358531757e+01 4.7419988219450477e+00 6.3390075370818408e+00 
1612 1214 2 1.0279999937514264e+00 2.7946082178458705e+03 1.0000000000000000e+00 1.1099491312336616e+01 5.1277662136698625e+00 6.3009006757521426e+00 
772 374 2 1.0279999931170349e+00 2.7943904656456339e+03 1.0000000000000000e+00 1.1116196614629658e+01 5.4024348829652169e+00 6.3562089032235907e+00 
1886 1488 2 1.0280000086433234e+00 -1.7983622260104048e+03 1.0000000000000000e+00 9.9108191404967574e+00 5.5493007666294112e+00 8.2409282194830205e+00 
1634 1236 2 1.0280000061985750e+00 -2.5785594211766097e+03 1.0000000000000000e+00 1.3547193221030149e+01 3.0657336808605926e+00 6.7043925032529765e+00 
794 396 2 1.0280000406334946e+00 -2.5788937944388667e+03 1.0000000000000000e+00 1.4063908132945274e+01 3.1406239675486098e+00 7.9115236149488366e+00 
1574 1176 2 1.0279999894768839e+00 1.7296735887001009e+03 1.0000000000000000e+00 1.2807215549105129e+01 4.3374117745187082e+00 6.4217452133983892e+00 
1070 672 2 1.0279999872712975e+00 1.7307484738444282e+03 1.0000000000000000e+00 1.2724321558297977e+01 4.3703173961207380e+00 6.4390193687095598e+00 
641 243 2 1.0280000005156331e+00 -8.1338088090499934e+02 1.0000000000000000e+00 1.5055209011208211e+01 3.0911191397298547e+00 6.2789321353180512e+00 
1317 919 2 1.0280000005156325e+00 -2.2533463085798026e+03 1.0000000000000000e+00 1.5055208549549574e+01 3.0911189965241772e+00 6.2789319854528083e+00 
1144 746 2 1.0280000005019996e+00 -1.2078262935967091e+03 1.0000000000000000e+00 1.5060133445447789e+01 3.0926588897322809e+00 6.2805297960869462e+00 
1149 751 2 1.0280000002457781e+00 -2.2527316895028557e+03 1.0000000000000000e+00 1.5386805244019106e+01 4.6598410108403785e+00 6.3971491651420003e+00 
1312 914 2 1.0279999999214080e+00 -1.2076986898589555e+03 1.0000000000000000e+00 1.5000044571174552e+01 4.6689022034742447e+00 6.3147028066408453e+00 
1817 1419 2 1.0280000004651593e+00 -8.1329250007838300e+02 1.0000000000000000e+00 1.4994921218699508e+01 4.6698013571990167e+00 6.3158230045801416e+00 
1414 1016 2 1.0280000028425456e+00 -7.1309449633743202e+02 1.0000000000000000e+00 1.8414761240397826e+01 3.2293540193386923e+00 7.5426292394735119e+00 
1438 1040 2 1.0280000023072737e+00 -2.1011276327081464e+03 1.0000000000000000e+00 1.8461866911233226e+01 3.4377061474571309e+00 7.1904711279492766e+00 
1656 1258 2 1.0279999962995607e+00 2.6905709668556083e+03 1.0000000000000000e+00 1.8201965409168064e+01 3.9134965632246539e+00 6.7951996668874024e+00 
1731 1333 2 1.0279999841704202e+00 -3.1464712636114045e+03 1.0000000000000000e+00 1.9698776558239960e+01 4.8789260347579244e+00 6.4447727785581579e+00 
717 319 2 1.0279999840478569e+00 -1.4700487429091131e+03 1.0000000000000000e+00 1.9703181031193957e+01 4.8804816215182338e+00 6.4453900465901999e+00 
1462 1064 2 1.0280000346202873e+00 -2.4517206733436901e+03 1.0000000000000000e+00 1.7442776406550003e+01 5.2397346577573289e+00 6.3871288839639160e+00 
1831 1433 2 1.0280000025068861e+00 -1.1053099334746187e+03 1.0000000000000000e+00 1.7294593678477693e+01 3.5248253321187968e+00 8.1522595230337984e+00 
1191 793 2 1.0279999971989562e+00 -1.1660791359058462e+03 1.0000000000000000e+00 1.8277769009514540e+00 5.9938634724602213e+00 7.2899318421894108e+00 
978 580 2 1.0279999965620761e+00 -4.1701812821638214e+03 1.0000000000000000e+00 2.2364605287135015e+00 7.5621688480938740e+00 7.0381080634044029e+00 
1249 851 2 1.0279999993614655e+00 2.1166390358022895e+03 1.0000000000000000e+00 1.7346767096414120e+00 8.2645064391015737e+00 7.8893868867520913e+00 
1077 679 2 1.0280000026534475e+00 3.6275281859596709e+02 1.0000000000000000e+00 9.2937759389589469e-01 8.2641047025596208e+00 8.3200984912134004e+00 
1080 682 2 1.0280000027437364e+00 3.6297078206079408e+02 1.0000000000000000e+00 8.9110126963827907e-01 8.2669691975072652e+00 8.3214338658260374e+00 
1597 1199 2 1.0279999951998335e+00 6.7057582209836146e+03 1.0000000000000000e+00 5.1376581831624497e+00 5.9628007563125314e+00 7.0625465892412942e+00 
1241 843 2 1.0280000230109396e+00 2.8160424797056698e+03 1.0000000000000000e+00 3.5846952067931128e+00 6.1347739351036870e+00 6.4759352901571852e+00 
801 403 2 1.0279999955975283e+00 3.7533113211582522e+03 1.0000000000000000e+00 4.6000875468891405e+00 6.2412003800420441e+00 6.5738525129031604e+00 
1128 730 2 1.0279999966811459e+00 -8.8399581927346162e+02 1.0000000000000000e+00 3.6959860169769656e+00 7.0910531222953024e+00 6.5241522861642895e+00 
1721 1323 2 1.0279999982191519e+00 6.7098075780710660e+03 1.0000000000000000e+00 4.3832352085298787e+00 7.1075795734156095e+00 7.3089327198324758e+00 
768 370 2 1.0279999965178861e+00 4.2696857747101349e+03 1.0000000000000000e+00 4.4101995697157914e+00 7.1314227760381739e+00 6.9026315559582390e+00 
1596 1198 2 1.0280000084209928e+00 3.4912687672129432e+03 1.0000000000000000e+00 8.0019945501042820e+00 7.3471028990928700e+00 6.4462744083223642e+00 
756 358 2 1.0280000083227812e+00 3.4918695194760185e+03 1.0000000000000000e+00 8.0044721195149382e+00 7.3512163528051193e+00 6.4469510645412997e+00 
1272 874 2 1.0280000080847089e+00 5.0621963940668911e+02 1.0000000000000000e+00 8.0101381003373575e+00 7.3600040390387047e+00 6.4483757480225741e+00 
1104 706 2 1.0280000080712601e+00 5.0520540757568614e+02 1.0000000000000000e+00 8.0104468976569407e+00 7.3604603792865504e+00 6.4484489229902806e+00 
1714 1316 2 1.0279999999532003e+00 -1.2348809313314875e+02 1.0000000000000000e+00 1.0658092192360789e+01 6.4575395463974612e+00 7.9512657529723700e+00 
942 544 2 1.0280000003428023e+00 -3.6624179333897337e+03 1.0000000000000000e+00 8.8654865696644443e+00 6.6801896636267042e+00 6.3739361783511548e+00 
1446 1048 2 1.0279999941753559e+00 -3.6631528274127950e+03 1.0000000000000000e+00 8.8413141982524621e+00 6.9794170612346997e+00 6.3600750501661274e+00 
816 418 2 1.0279999957317640e+00 2.6907458301208362e+03 1.0000000000000000e+00 1.7182156946436002e+01 6.2412321019768164e+00 7.2580665475738071e+00 
958 560 2 1.0280000030789398e+00 -2.4514047412167802e+03 1.0000000000000000e+00 1.7612184835288623e+01 6.2127098299299366e+00 6.4753483690585858e+00 
934 536 2 1.0280000077739797e+00 -2.1011118643190766e+03 1.0000000000000000e+00 1.8541582051505177e+01 6.9323957076810707e+00 8.0386065244114917e+00 
633 235 2 1.0279999938398956e+00 -1.8383746601761536e+02 1.0000000000000000e+00 1.8619833687938076e+01 6.9688304308549798e+00 6.3347380196552328e+00 
1809 1411 2 1.0279999936138939e+00 -1.8373321574936890e+02 1.0000000000000000e+00 1.8699862090806132e+01 6.9829953734560606e+00 6.3187548426879605e+00 
1412 1014 2 1.0280000011518853e+00 -9.2743221526772584e+02 1.0000000000000000e+00 8.6714795926249411e-01 9.3467388361071304e+00 6.3497467263879184e+00 
748 350 2 1.0280000208634488e+00 8.7919298277884336e+03 1.0000000000000000e+00 1.0006027273486497e+00 9.5681467089486159e+00 6.3488127014159517e+00 
879 481 2 1.0279999902359882e+00 -4.5860422932590654e+02 1.0000000000000000e+00 1.3590537796395767e+00 1.0703913285543527e+01 6.5333705765510652e+00 
1098 700 2 1.0280000002326106e+00 -1.4233758384274536e+03 1.0000000000000000e+00 8.2243420780976362e-01 1.0827003159780459e+01 8.0470860762989265e+00 
916 518 2 1.0279999895569785e+00 3.5397591035500709e+03 1.0000000000000000e+00 1.3053776302985387e+00 1.0834360160612691e+01 6.4718390974113253e+00 
1622 1224 2 1.0280000072563669e+00 -1.6546730268939043e+03 1.0000000000000000e+00 5.2431612750528602e+00 1.0133704880100881e+01 6.4253495284255298e+00 
782 384 2 1.0280000038435428e+00 -1.6531229979895481e+03 1.0000000000000000e+00 5.2492394203034651e+00 1.0796679486247401e+01 7.6920303066095199e+00 
1965 1567 2 1.0280000249166177e+00 -2.3777670111538000e+03 1.0000000000000000e+00 4.5519277596782786e+00 1.0997630745717355e+01 8.0912364680955733e+00 
453 55 2 1.0279999966978359e+00 -2.3788126980282486e+03 1.0000000000000000e+00 4.6477537489395830e+00 1.1173786648909886e+01 7.8236956955631838e+00 
1103 705 2 1.0280000005004295e+00 -4.6454040199825464e+01 1.0000000000000000e+00 6.0342701014223525e+00 9.7789461574432242e+00 6.4936585355284295e+00 
1271 873 2 1.0280000005181085e+00 -4.3547234201806432e+01 1.0000000000000000e+00 6.0340499801654230e+00 9.7784777446052402e+00 6.4936343965535857e+00 
1456 1058 2 1.0280000005893586e+00 8.8297948888458632e+03 1.0000000000000000e+00 6.0331601013481473e+00 9.7766013529895783e+00 6.4935370921669886e+00 
952 554 2 1.0280000006077967e+00 8.8272120828344996e+03 1.0000000000000000e+00 6.0329291499966198e+00 9.7761188182645178e+00 6.4935119115695068e+00 
1782 1384 2 1.0280000089011776e+00 -2.5788905344483264e+03 1.0000000000000000e+00 2.6086538952933656e+00 1.1566201077519102e+01 8.2052662927209816e+00 
1090 692 2 1.0280000261005724e+00 -8.3474722156315373e+00 1.0000000000000000e+00 1.1030888464053921e+00 1.1811216496366095e+01 6.3933791366373871e+00 
1258 860 2 1.0279999938293323e+00 -7.4073272375531936e+00 1.0000000000000000e+00 1.0596215167402028e+00 1.2796033465132293e+01 6.3722512988744446e+00 
1266 868 2 1.0280000016280828e+00 -1.4233263600387006e+03 1.0000000000000000e+00 1.4923640225389492e+00 1.3388887719877241e+01 7.4562639895680167e+00 
1420 1022 2 1.0279999989916442e+00 3.5393876791901375e+03 1.0000000000000000e+00 1.1492645988533021e+00 1.4044236068927253e+01 6.4299598920908823e+00 
1719 1321 2 1.0279999995186451e+00 -4.5883406571164772e+02 1.0000000000000000e+00 1.1269659907840479e+00 1.4228238654855065e+01 6.4718400822132223e+00 
606 208 2 1.0279999916592937e+00 -2.5790562939885058e+03 1.0000000000000000e+00 3.5970746181781617e+00 1.1578199210382914e+01 8.0686283028657684e+00 