LAMMPS data file via write_data, version 30 Jul 2016, timestep = 50400000

2080 atoms
8 atom types

0.0000000000000000e+00 4.0000000000000000e+01 xlo xhi
0.0000000000000000e+00 4.0000000000000000e+01 ylo yhi
0.0000000000000000e+00 1.0000000000000000e+02 zlo zhi

Masses

1 3.896
2 5.36
3 20.064
4 8.378
5 8.378
6 8.378
7 8.378
8 8.378

Atoms # meso-molecular

1 2 4 2.2559723595316457e+00 -2.4209784807297618e-03 1.0000000000000000e+00 0.0000000000000000e+00 0.0000000000000000e+00 2.5000000000000000e+00 
2 2 4 2.2559723595316457e+00 8.6156565407456509e-08 1.0000000000000000e+00 0.0000000000000000e+00 2.0000000000000000e+00 2.5000000000000000e+00 
21 2 4 2.2559723595316457e+00 3.1989414442974808e-07 1.0000000000000000e+00 2.0000000000000000e+00 0.0000000000000000e+00 2.5000000000000000e+00 
22 2 4 2.2559723595316457e+00 1.7798683623569940e-08 1.0000000000000000e+00 2.0000000000000000e+00 2.0000000000000000e+00 2.5000000000000000e+00 
41 2 4 2.2559723595316457e+00 0.0000000000000000e+00 1.0000000000000000e+00 4.0000000000000000e+00 0.0000000000000000e+00 2.5000000000000000e+00 
42 2 4 2.2559723595316457e+00 6.3603190535873495e-09 1.0000000000000000e+00 4.0000000000000000e+00 2.0000000000000000e+00 2.5000000000000000e+00 
61 2 4 2.2559723595316457e+00 -1.4020225886282779e-06 1.0000000000000000e+00 6.0000000000000000e+00 0.0000000000000000e+00 2.5000000000000000e+00 
62 2 4 2.2559723595316457e+00 0.0000000000000000e+00 1.0000000000000000e+00 6.0000000000000000e+00 2.0000000000000000e+00 2.5000000000000000e+00 
81 2 4 2.2559723595316457e+00 -8.2140374400930319e-07 1.0000000000000000e+00 8.0000000000000000e+00 0.0000000000000000e+00 2.5000000000000000e+00 
82 2 4 2.2559723595316457e+00 9.3584895689868489e-09 1.0000000000000000e+00 8.0000000000000000e+00 2.0000000000000000e+00 2.5000000000000000e+00 
101 2 4 2.2559723595316457e+00 1.5385104541328921e-10 1.0000000000000000e+00 1.0000000000000000e+01 0.0000000000000000e+00 2.5000000000000000e+00 
102 2 4 2.2559723595316457e+00 5.8396485344795666e-11 1.0000000000000000e+00 1.0000000000000000e+01 2.0000000000000000e+00 2.5000000000000000e+00 
121 2 4 2.2559723595316457e+00 1.8942083396192915e-05 1.0000000000000000e+00 1.2000000000000000e+01 0.0000000000000000e+00 2.5000000000000000e+00 
122 2 4 2.2559723595316457e+00 3.7985339697917190e-10 1.0000000000000000e+00 1.2000000000000000e+01 2.0000000000000000e+00 2.5000000000000000e+00 
141 2 4 2.2559723595316457e+00 6.9745380071418050e-09 1.0000000000000000e+00 1.4000000000000000e+01 0.0000000000000000e+00 2.5000000000000000e+00 
142 2 4 2.2559723595316457e+00 2.0646935476918836e-11 1.0000000000000000e+00 1.4000000000000000e+01 2.0000000000000000e+00 2.5000000000000000e+00 
161 2 4 2.2559723595316457e+00 -4.1709770824905316e-04 1.0000000000000000e+00 1.6000000000000000e+01 0.0000000000000000e+00 2.5000000000000000e+00 
162 2 4 2.2559723595316457e+00 2.2817758226469696e-10 1.0000000000000000e+00 1.6000000000000000e+01 2.0000000000000000e+00 2.5000000000000000e+00 
181 2 4 2.2559723595316457e+00 5.9013830943064824e-04 1.0000000000000000e+00 1.8000000000000000e+01 0.0000000000000000e+00 2.5000000000000000e+00 
182 2 4 2.2559723595316457e+00 1.4732457265741201e-09 1.0000000000000000e+00 1.8000000000000000e+01 2.0000000000000000e+00 2.5000000000000000e+00 
3 2 4 2.2559723595316457e+00 2.8854817589802164e-10 1.0000000000000000e+00 0.0000000000000000e+00 4.0000000000000000e+00 2.5000000000000000e+00 
23 2 4 2.2559723595316457e+00 0.0000000000000000e+00 1.0000000000000000e+00 2.0000000000000000e+00 4.0000000000000000e+00 2.5000000000000000e+00 
43 2 4 2.2559723595316457e+00 0.0000000000000000e+00 1.0000000000000000e+00 4.0000000000000000e+00 4.0000000000000000e+00 2.5000000000000000e+00 
63 2 4 2.2559723595316457e+00 2.4916077911615135e-09 1.0000000000000000e+00 6.0000000000000000e+00 4.0000000000000000e+00 2.5000000000000000e+00 
83 2 4 2.2559723595316457e+00 1.0271269947324492e-08 1.0000000000000000e+00 8.0000000000000000e+00 4.0000000000000000e+00 2.5000000000000000e+00 
103 2 4 2.2559723595316457e+00 2.0177515292025419e-10 1.0000000000000000e+00 1.0000000000000000e+01 4.0000000000000000e+00 2.5000000000000000e+00 
123 2 4 2.2559723595316457e+00 4.3009479437166789e-08 1.0000000000000000e+00 1.2000000000000000e+01 4.0000000000000000e+00 2.5000000000000000e+00 
143 2 4 2.2559723595316457e+00 9.9218004458993939e-09 1.0000000000000000e+00 1.4000000000000000e+01 4.0000000000000000e+00 2.5000000000000000e+00 
163 2 4 2.2559723595316457e+00 2.1880521190005523e-08 1.0000000000000000e+00 1.6000000000000000e+01 4.0000000000000000e+00 2.5000000000000000e+00 
183 2 4 2.2559723595316457e+00 8.4528022992116136e-11 1.0000000000000000e+00 1.8000000000000000e+01 4.0000000000000000e+00 2.5000000000000000e+00 
4 2 4 2.2559723595316457e+00 1.4562659486564669e-10 1.0000000000000000e+00 0.0000000000000000e+00 6.0000000000000000e+00 2.5000000000000000e+00 
5 2 4 2.2559723595316457e+00 5.2302349757231049e-11 1.0000000000000000e+00 0.0000000000000000e+00 8.0000000000000000e+00 2.5000000000000000e+00 
24 2 4 2.2559723595316457e+00 2.4604280224027083e-11 1.0000000000000000e+00 2.0000000000000000e+00 6.0000000000000000e+00 2.5000000000000000e+00 
25 2 4 2.2559723595316457e+00 1.6674705759971506e-10 1.0000000000000000e+00 2.0000000000000000e+00 8.0000000000000000e+00 2.5000000000000000e+00 
44 2 4 2.2559723595316457e+00 1.3643949017902635e-08 1.0000000000000000e+00 4.0000000000000000e+00 6.0000000000000000e+00 2.5000000000000000e+00 
45 2 4 2.2559723595316457e+00 0.0000000000000000e+00 1.0000000000000000e+00 4.0000000000000000e+00 8.0000000000000000e+00 2.5000000000000000e+00 
64 2 4 2.2559723595316457e+00 0.0000000000000000e+00 1.0000000000000000e+00 6.0000000000000000e+00 6.0000000000000000e+00 2.5000000000000000e+00 
65 2 4 2.2559723595316457e+00 0.0000000000000000e+00 1.0000000000000000e+00 6.0000000000000000e+00 8.0000000000000000e+00 2.5000000000000000e+00 
84 2 4 2.2559723595316457e+00 3.3423833982621041e-11 1.0000000000000000e+00 8.0000000000000000e+00 6.0000000000000000e+00 2.5000000000000000e+00 
85 2 4 2.2559723595316457e+00 6.5264853042454913e-09 1.0000000000000000e+00 8.0000000000000000e+00 8.0000000000000000e+00 2.5000000000000000e+00 
104 2 4 2.2559723595316457e+00 0.0000000000000000e+00 1.0000000000000000e+00 1.0000000000000000e+01 6.0000000000000000e+00 2.5000000000000000e+00 
105 2 4 2.2559723595316457e+00 0.0000000000000000e+00 1.0000000000000000e+00 1.0000000000000000e+01 8.0000000000000000e+00 2.5000000000000000e+00 
124 2 4 2.2559723595316457e+00 3.1717370309355114e-14 1.0000000000000000e+00 1.2000000000000000e+01 6.0000000000000000e+00 2.5000000000000000e+00 
125 2 4 2.2559723595316457e+00 0.0000000000000000e+00 1.0000000000000000e+00 1.2000000000000000e+01 8.0000000000000000e+00 2.5000000000000000e+00 
144 2 4 2.2559723595316457e+00 0.0000000000000000e+00 1.0000000000000000e+00 1.4000000000000000e+01 6.0000000000000000e+00 2.5000000000000000e+00 
145 2 4 2.2559723595316457e+00 0.0000000000000000e+00 1.0000000000000000e+00 1.4000000000000000e+01 8.0000000000000000e+00 2.5000000000000000e+00 
164 2 4 2.2559723595316457e+00 0.0000000000000000e+00 1.0000000000000000e+00 1.6000000000000000e+01 6.0000000000000000e+00 2.5000000000000000e+00 
165 2 4 2.2559723595316457e+00 0.0000000000000000e+00 1.0000000000000000e+00 1.6000000000000000e+01 8.0000000000000000e+00 2.5000000000000000e+00 
184 2 4 2.2559723595316457e+00 4.0210497304963324e-08 1.0000000000000000e+00 1.8000000000000000e+01 6.0000000000000000e+00 2.5000000000000000e+00 
185 2 4 2.2559723595316457e+00 0.0000000000000000e+00 1.0000000000000000e+00 1.8000000000000000e+01 8.0000000000000000e+00 2.5000000000000000e+00 
6 2 4 2.2559723595316457e+00 3.2293905416867024e-09 1.0000000000000000e+00 0.0000000000000000e+00 1.0000000000000000e+01 2.5000000000000000e+00 
26 2 4 2.2559723595316457e+00 1.5300657251778197e-08 1.0000000000000000e+00 2.0000000000000000e+00 1.0000000000000000e+01 2.5000000000000000e+00 
46 2 4 2.2559723595316457e+00 0.0000000000000000e+00 1.0000000000000000e+00 4.0000000000000000e+00 1.0000000000000000e+01 2.5000000000000000e+00 
66 2 4 2.2559723595316457e+00 1.2238842673057899e-08 1.0000000000000000e+00 6.0000000000000000e+00 1.0000000000000000e+01 2.5000000000000000e+00 
86 2 4 2.2559723595316457e+00 0.0000000000000000e+00 1.0000000000000000e+00 8.0000000000000000e+00 1.0000000000000000e+01 2.5000000000000000e+00 
106 2 4 2.2559723595316457e+00 0.0000000000000000e+00 1.0000000000000000e+00 1.0000000000000000e+01 1.0000000000000000e+01 2.5000000000000000e+00 
126 2 4 2.2559723595316457e+00 0.0000000000000000e+00 1.0000000000000000e+00 1.2000000000000000e+01 1.0000000000000000e+01 2.5000000000000000e+00 
146 2 4 2.2559723595316457e+00 0.0000000000000000e+00 1.0000000000000000e+00 1.4000000000000000e+01 1.0000000000000000e+01 2.5000000000000000e+00 
166 2 4 2.2559723595316457e+00 0.0000000000000000e+00 1.0000000000000000e+00 1.6000000000000000e+01 1.0000000000000000e+01 2.5000000000000000e+00 
186 2 4 2.2559723595316457e+00 0.0000000000000000e+00 1.0000000000000000e+00 1.8000000000000000e+01 1.0000000000000000e+01 2.5000000000000000e+00 
7 2 4 2.2559723595316457e+00 0.0000000000000000e+00 1.0000000000000000e+00 0.0000000000000000e+00 1.2000000000000000e+01 2.5000000000000000e+00 
8 2 4 2.2559723595316457e+00 2.2766938021157413e-02 1.0000000000000000e+00 0.0000000000000000e+00 1.4000000000000000e+01 2.5000000000000000e+00 
27 2 4 2.2559723595316457e+00 2.0378756614656908e-08 1.0000000000000000e+00 2.0000000000000000e+00 1.2000000000000000e+01 2.5000000000000000e+00 
28 2 4 2.2559723595316457e+00 0.0000000000000000e+00 1.0000000000000000e+00 2.0000000000000000e+00 1.4000000000000000e+01 2.5000000000000000e+00 
47 2 4 2.2559723595316457e+00 0.0000000000000000e+00 1.0000000000000000e+00 4.0000000000000000e+00 1.2000000000000000e+01 2.5000000000000000e+00 
48 2 4 2.2559723595316457e+00 0.0000000000000000e+00 1.0000000000000000e+00 4.0000000000000000e+00 1.4000000000000000e+01 2.5000000000000000e+00 
67 2 4 2.2559723595316457e+00 0.0000000000000000e+00 1.0000000000000000e+00 6.0000000000000000e+00 1.2000000000000000e+01 2.5000000000000000e+00 
68 2 4 2.2559723595316457e+00 0.0000000000000000e+00 1.0000000000000000e+00 6.0000000000000000e+00 1.4000000000000000e+01 2.5000000000000000e+00 
87 2 4 2.2559723595316457e+00 0.0000000000000000e+00 1.0000000000000000e+00 8.0000000000000000e+00 1.2000000000000000e+01 2.5000000000000000e+00 
88 2 4 2.2559723595316457e+00 0.0000000000000000e+00 1.0000000000000000e+00 8.0000000000000000e+00 1.4000000000000000e+01 2.5000000000000000e+00 
107 2 4 2.2559723595316457e+00 0.0000000000000000e+00 1.0000000000000000e+00 1.0000000000000000e+01 1.2000000000000000e+01 2.5000000000000000e+00 
108 2 4 2.2559723595316457e+00 0.0000000000000000e+00 1.0000000000000000e+00 1.0000000000000000e+01 1.4000000000000000e+01 2.5000000000000000e+00 
127 2 4 2.2559723595316457e+00 0.0000000000000000e+00 1.0000000000000000e+00 1.2000000000000000e+01 1.2000000000000000e+01 2.5000000000000000e+00 
128 2 4 2.2559723595316457e+00 0.0000000000000000e+00 1.0000000000000000e+00 1.2000000000000000e+01 1.4000000000000000e+01 2.5000000000000000e+00 
147 2 4 2.2559723595316457e+00 0.0000000000000000e+00 1.0000000000000000e+00 1.4000000000000000e+01 1.2000000000000000e+01 2.5000000000000000e+00 
148 2 4 2.2559723595316457e+00 0.0000000000000000e+00 1.0000000000000000e+00 1.4000000000000000e+01 1.4000000000000000e+01 2.5000000000000000e+00 
167 2 4 2.2559723595316457e+00 0.0000000000000000e+00 1.0000000000000000e+00 1.6000000000000000e+01 1.2000000000000000e+01 2.5000000000000000e+00 
168 2 4 2.2559723595316457e+00 0.0000000000000000e+00 1.0000000000000000e+00 1.6000000000000000e+01 1.4000000000000000e+01 2.5000000000000000e+00 
187 2 4 2.2559723595316457e+00 0.0000000000000000e+00 1.0000000000000000e+00 1.8000000000000000e+01 1.2000000000000000e+01 2.5000000000000000e+00 
188 2 4 2.2559723595316457e+00 0.0000000000000000e+00 1.0000000000000000e+00 1.8000000000000000e+01 1.4000000000000000e+01 2.5000000000000000e+00 
9 2 4 2.2559723595316457e+00 -4.3397405844298406e-05 1.0000000000000000e+00 0.0000000000000000e+00 1.6000000000000000e+01 2.5000000000000000e+00 
29 2 4 2.2559723595316457e+00 0.0000000000000000e+00 1.0000000000000000e+00 2.0000000000000000e+00 1.6000000000000000e+01 2.5000000000000000e+00 
49 2 4 2.2559723595316457e+00 0.0000000000000000e+00 1.0000000000000000e+00 4.0000000000000000e+00 1.6000000000000000e+01 2.5000000000000000e+00 
69 2 4 2.2559723595316457e+00 0.0000000000000000e+00 1.0000000000000000e+00 6.0000000000000000e+00 1.6000000000000000e+01 2.5000000000000000e+00 
89 2 4 2.2559723595316457e+00 0.0000000000000000e+00 1.0000000000000000e+00 8.0000000000000000e+00 1.6000000000000000e+01 2.5000000000000000e+00 
109 2 4 2.2559723595316457e+00 0.0000000000000000e+00 1.0000000000000000e+00 1.0000000000000000e+01 1.6000000000000000e+01 2.5000000000000000e+00 
129 2 4 2.2559723595316457e+00 0.0000000000000000e+00 1.0000000000000000e+00 1.2000000000000000e+01 1.6000000000000000e+01 2.5000000000000000e+00 
149 2 4 2.2559723595316457e+00 0.0000000000000000e+00 1.0000000000000000e+00 1.4000000000000000e+01 1.6000000000000000e+01 2.5000000000000000e+00 
169 2 4 2.2559723595316457e+00 0.0000000000000000e+00 1.0000000000000000e+00 1.6000000000000000e+01 1.6000000000000000e+01 2.5000000000000000e+00 
189 2 4 2.2559723595316457e+00 0.0000000000000000e+00 1.0000000000000000e+00 1.8000000000000000e+01 1.6000000000000000e+01 2.5000000000000000e+00 
10 2 4 2.2559723595316457e+00 2.5023066065964300e-07 1.0000000000000000e+00 0.0000000000000000e+00 1.8000000000000000e+01 2.5000000000000000e+00 
30 2 4 2.2559723595316457e+00 0.0000000000000000e+00 1.0000000000000000e+00 2.0000000000000000e+00 1.8000000000000000e+01 2.5000000000000000e+00 
50 2 4 2.2559723595316457e+00 0.0000000000000000e+00 1.0000000000000000e+00 4.0000000000000000e+00 1.8000000000000000e+01 2.5000000000000000e+00 
70 2 4 2.2559723595316457e+00 2.0500295489908488e-04 1.0000000000000000e+00 6.0000000000000000e+00 1.8000000000000000e+01 2.5000000000000000e+00 
90 2 4 2.2559723595316457e+00 -2.8806371279511783e-01 1.0000000000000000e+00 8.0000000000000000e+00 1.8000000000000000e+01 2.5000000000000000e+00 
110 2 4 2.2559723595316457e+00 -1.4698117176611849e-02 1.0000000000000000e+00 1.0000000000000000e+01 1.8000000000000000e+01 2.5000000000000000e+00 
130 2 4 2.2559723595316457e+00 7.5901259301854068e-02 1.0000000000000000e+00 1.2000000000000000e+01 1.8000000000000000e+01 2.5000000000000000e+00 
150 2 4 2.2559723595316457e+00 3.0079293333034024e-01 1.0000000000000000e+00 1.4000000000000000e+01 1.8000000000000000e+01 2.5000000000000000e+00 
170 2 4 2.2559723595316457e+00 -4.5651136375238474e-02 1.0000000000000000e+00 1.6000000000000000e+01 1.8000000000000000e+01 2.5000000000000000e+00 
190 2 4 2.2559723595316457e+00 -1.6121929992175484e-02 1.0000000000000000e+00 1.8000000000000000e+01 1.8000000000000000e+01 2.5000000000000000e+00 
573 175 2 1.0279999892909026e+00 -3.2680730545718957e+03 1.0000000000000000e+00 2.4330681871667728e-01 1.9490860520034061e+00 6.5104327457705660e+00 
576 178 2 1.0280000319150107e+00 -3.2680877004229824e+03 1.0000000000000000e+00 1.5344640238599341e+00 1.9340574046268209e+00 6.4720919306625753e+00 
1749 1351 2 1.0280000636593067e+00 -3.2674920445909256e+03 1.0000000000000000e+00 4.0909390881565200e-01 1.6740624128673203e+00 6.4653825501698874e+00 
1752 1354 2 1.0279999936836550e+00 -3.2678332479741734e+03 1.0000000000000000e+00 1.3889028037520708e+00 1.6650161283078766e+00 6.4484231742029987e+00 
1359 961 2 1.0279999782249152e+00 -1.1624569719047565e+03 1.0000000000000000e+00 2.3665893065832848e+00 1.1258882261016170e+00 7.8295198692215582e+00 
737 339 2 1.0280000207169724e+00 2.4956609001973538e+03 1.0000000000000000e+00 3.6681983739233845e+00 2.8522225276903521e+00 6.3939270878360883e+00 
409 11 2 1.0280000005805692e+00 3.7301279052802383e+03 1.0000000000000000e+00 4.7939525853091434e+00 2.3884267300014175e+00 6.4197562493754141e+00 
1921 1523 2 1.0280000005790881e+00 3.7301264106257122e+03 1.0000000000000000e+00 4.7788448175573803e+00 2.3813621927806450e+00 6.4211230631003060e+00 
757 359 2 1.0279999940474194e+00 6.7048164417812641e+03 1.0000000000000000e+00 5.5643501979750907e+00 2.2183880822469813e+00 7.6394958070282097e+00 
1073 675 2 1.0279999726660252e+00 2.8173181816330803e+03 1.0000000000000000e+00 3.0332228067854969e+00 1.0978221445339893e+00 7.1563256170806309e+00 
1923 1525 2 1.0279999906492641e+00 -1.2348568958821886e+03 1.0000000000000000e+00 8.3626215029784259e+00 2.8140183504249037e+00 6.3994216204695640e+00 
1641 1243 2 1.0279999983497750e+00 3.7538416629904477e+03 1.0000000000000000e+00 6.1028195447642819e+00 2.6172028010892290e+00 7.8647263798933480e+00 
411 13 2 1.0280000096252331e+00 -1.2348257250024708e+03 1.0000000000000000e+00 8.5020555913925797e+00 1.1405594204474736e+00 6.3740396343743333e+00 
1608 1210 2 1.0279999813710854e+00 4.2687034204584443e+03 1.0000000000000000e+00 6.2876529902714582e+00 8.9218683759878858e-01 7.5092085284725831e+00 
580 182 2 1.0280000027720086e+00 3.0083719712923489e+03 1.0000000000000000e+00 8.3683386050712496e+00 7.0316083720063460e-01 6.4203500587862248e+00 
738 340 2 1.0280000024096292e+00 -1.3973549885592333e+03 1.0000000000000000e+00 8.3436299422192732e+00 6.4865635584977599e-01 6.4319719141251133e+00 
579 181 2 1.0280000108878347e+00 1.9325476734340472e+00 1.0000000000000000e+00 6.6127857239831629e+00 3.6368483311327465e-01 6.4358766754429899e+00 
743 345 2 1.0280000029802050e+00 6.5854814450188243e+01 1.0000000000000000e+00 7.8155111928304821e+00 1.1006817541086643e-01 6.4941004229709094e+00 
741 343 2 1.0280000159027158e+00 2.6387782751881550e+03 1.0000000000000000e+00 7.3290319834951578e+00 2.5473043220649836e-02 6.4430729017682538e+00 
874 476 2 1.0280000021951829e+00 -1.2331928175704270e+02 1.0000000000000000e+00 1.1422830589975900e+01 1.9786153256762629e+00 7.5580844598362953e+00 
710 312 2 1.0280000117853036e+00 -1.7985114672706347e+03 1.0000000000000000e+00 1.1016974560124332e+01 1.9657914954580415e+00 7.6836955419485307e+00 
582 184 2 1.0280000201909709e+00 -2.6233386162134525e+03 1.0000000000000000e+00 1.0831410080348819e+01 1.9505822489964095e+00 7.7765481961259804e+00 
1072 674 2 1.0280000020684639e+00 -5.5846211420899817e+02 1.0000000000000000e+00 2.7521848272409453e+00 3.0620375268823787e+00 8.3058210666494574e+00 
896 498 2 1.0279999974380845e+00 9.4079809169398832e+03 1.0000000000000000e+00 2.2595309380050694e+00 5.0127456671866710e+00 8.2694358938445394e+00 
1577 1179 2 1.0280000086220809e+00 2.4957272757686469e+03 1.0000000000000000e+00 3.8962504025293589e+00 2.9573902287830158e+00 6.3822859976921844e+00 
1296 898 2 1.0280000016448920e+00 -8.7979114833503729e+02 1.0000000000000000e+00 3.3805712205709049e+00 3.6836384616756912e+00 6.9660449942739957e+00 
732 334 2 1.0279999964644786e+00 -2.8587499525555968e+03 1.0000000000000000e+00 5.4296828828866381e+00 4.8078111034663795e+00 8.1315524512120891e+00 
1565 1167 2 1.0279999972717950e+00 2.7374540551946584e+03 1.0000000000000000e+00 5.5315369649782786e+00 4.6664593766888665e+00 8.1837627655655307e+00 
1061 663 2 1.0279999989741060e+00 2.7371198141230634e+03 1.0000000000000000e+00 5.6374073750526668e+00 4.2406034986083903e+00 8.3201441582706792e+00 
1756 1358 2 1.0279999945882965e+00 3.0085244492073598e+03 1.0000000000000000e+00 8.1978840223382665e+00 3.3271320972869471e+00 6.4894119878084817e+00 
1578 1180 2 1.0279999976438030e+00 -1.3971841682921838e+03 1.0000000000000000e+00 8.1795604992569082e+00 3.3901824855206897e+00 6.5339808055816810e+00 
1583 1185 2 1.0280000103126337e+00 6.6180979267752733e+01 1.0000000000000000e+00 7.7170044820299299e+00 3.8732392911587614e+00 6.4878515703990391e+00 
1581 1183 2 1.0280000135736083e+00 2.6394894080024151e+03 1.0000000000000000e+00 7.4641896692019527e+00 3.9831554714227466e+00 6.4637929883394314e+00 
1755 1357 2 1.0280000062389769e+00 2.7020689898574735e+00 1.0000000000000000e+00 6.4984732810708454e+00 4.1037015158285133e+00 6.4673716865262012e+00 
1561 1163 2 1.0280000336544479e+00 7.1711081458300632e+03 1.0000000000000000e+00 1.1165802021964375e+01 4.7138862553152041e+00 6.3461640253803617e+00 
1057 659 2 1.0280000341919175e+00 7.1709327439446097e+03 1.0000000000000000e+00 1.1157031207866057e+01 4.7432254266984408e+00 6.3386862238994750e+00 
1612 1214 2 1.0279999936871405e+00 2.7946082178458705e+03 1.0000000000000000e+00 1.1099944057436391e+01 5.1294248843516970e+00 6.3002775020986963e+00 
772 374 2 1.0279999930328489e+00 2.7943904656456339e+03 1.0000000000000000e+00 1.1116642270356277e+01 5.4041339613472958e+00 6.3556405087878156e+00 
1886 1488 2 1.0280000085552923e+00 -1.7983622256466069e+03 1.0000000000000000e+00 9.9103535526349464e+00 5.5501429105072475e+00 8.2402344106958285e+00 
1634 1236 2 1.0280000061094781e+00 -2.5785594208128118e+03 1.0000000000000000e+00 1.3547132743798810e+01 3.0655380542378068e+00 6.7022114543228861e+00 
794 396 2 1.0280000409593206e+00 -2.5788937940145297e+03 1.0000000000000000e+00 1.4065045519725295e+01 3.1392482065420224e+00 7.9104985924609670e+00 
1574 1176 2 1.0279999886379070e+00 1.7296735887001009e+03 1.0000000000000000e+00 1.2807948949449893e+01 4.3382313695710231e+00 6.4207677978524051e+00 
1070 672 2 1.0279999866496097e+00 1.7307484738444282e+03 1.0000000000000000e+00 1.2725112431761028e+01 4.3711364484513480e+00 6.4381358779837683e+00 
641 243 2 1.0280000008369135e+00 -8.1338088063215093e+02 1.0000000000000000e+00 1.5054808528002200e+01 3.0907482162022157e+00 6.2787402022171541e+00 
1317 919 2 1.0280000008369139e+00 -2.2533463082160047e+03 1.0000000000000000e+00 1.5054808066202323e+01 3.0907480729277519e+00 6.2787400522277697e+00 
1144 746 2 1.0280000008246737e+00 -1.2078262932329112e+03 1.0000000000000000e+00 1.5059734461989219e+01 3.0922887017517375e+00 6.2803391844748901e+00 
1149 751 2 1.0280000003075456e+00 -2.2527316891390578e+03 1.0000000000000000e+00 1.5385966947976312e+01 4.6605677489940076e+00 6.3968990787103381e+00 
1312 914 2 1.0279999997957465e+00 -1.2076986896770566e+03 1.0000000000000000e+00 1.4999544116951220e+01 4.6696978518245622e+00 6.3146420734844115e+00 
1817 1419 2 1.0279999997733389e+00 -8.1329249989648406e+02 1.0000000000000000e+00 1.4994478421905256e+01 4.6706121412663784e+00 6.3158053340083589e+00 
1414 1016 2 1.0280000027213863e+00 -7.1309449615553308e+02 1.0000000000000000e+00 1.8414909263143947e+01 3.2293858538260087e+00 7.5403434360569035e+00 
1438 1040 2 1.0280000021664668e+00 -2.1011276323443485e+03 1.0000000000000000e+00 1.8461972764852430e+01 3.4379135003857288e+00 7.1883756765517424e+00 
1656 1258 2 1.0279999962067563e+00 2.6905709672194062e+03 1.0000000000000000e+00 1.8202184293296707e+01 3.9140633005441914e+00 6.7937170902787880e+00 
1731 1333 2 1.0279999840983287e+00 -3.1464712636114045e+03 1.0000000000000000e+00 1.9698478438076108e+01 4.8804942691497892e+00 6.4445609105974331e+00 
717 319 2 1.0279999839789833e+00 -1.4700487429091131e+03 1.0000000000000000e+00 1.9702879281982533e+01 4.8820511369462940e+00 6.4451820039693919e+00 
1462 1064 2 1.0280000376527640e+00 -2.4517206729798922e+03 1.0000000000000000e+00 1.7441586472129512e+01 5.2398355432117381e+00 6.3869710238552457e+00 
1831 1433 2 1.0280000026421952e+00 -1.1053099332927197e+03 1.0000000000000000e+00 1.7294657355754975e+01 3.5247190380414981e+00 8.1500423612158617e+00 
1191 793 2 1.0279999971039373e+00 -1.1660791359058462e+03 1.0000000000000000e+00 1.8285539107219935e+00 5.9976777089181734e+00 7.2895758435540028e+00 
978 580 2 1.0279999962758599e+00 -4.1701812821638214e+03 1.0000000000000000e+00 2.2374851983627027e+00 7.5656129012380280e+00 7.0378578027682046e+00 
1249 851 2 1.0279999992679012e+00 2.1166390358022895e+03 1.0000000000000000e+00 1.7357305781579644e+00 8.2681024109009371e+00 7.8889899709917568e+00 
1077 679 2 1.0280000026992739e+00 3.6275281864144182e+02 1.0000000000000000e+00 9.3026426310660171e-01 8.2678768739342008e+00 8.3199102005735721e+00 
1080 682 2 1.0280000027899083e+00 3.6297078210626881e+02 1.0000000000000000e+00 8.9197050827661817e-01 8.2707464385372269e+00 8.3212525651150280e+00 
1597 1199 2 1.0279999949078518e+00 6.7057582209836146e+03 1.0000000000000000e+00 5.1385627258418687e+00 5.9658908141900637e+00 7.0622769853596186e+00 
1241 843 2 1.0280000228184707e+00 2.8160424797056698e+03 1.0000000000000000e+00 3.5852009972772829e+00 6.1379024088401097e+00 6.4758811670247445e+00 
801 403 2 1.0279999955100594e+00 3.7533113211582522e+03 1.0000000000000000e+00 4.6012621562211908e+00 6.2445369006084697e+00 6.5737712136853608e+00 
1128 730 2 1.0279999966123883e+00 -8.8399581927346162e+02 1.0000000000000000e+00 3.6971897285904802e+00 7.0944890141615105e+00 6.5239778519762863e+00 
1721 1323 2 1.0279999983863057e+00 6.7098075780710660e+03 1.0000000000000000e+00 4.3844279715630634e+00 7.1108270151673239e+00 7.3084738653029300e+00 
768 370 2 1.0279999967826441e+00 4.2696857747101349e+03 1.0000000000000000e+00 4.4113484709238575e+00 7.1346248063641857e+00 6.9023155275880033e+00 
1596 1198 2 1.0280000078751959e+00 3.4912687672129432e+03 1.0000000000000000e+00 8.0025637084216381e+00 7.3492592898529399e+00 6.4466298474686337e+00 
756 358 2 1.0280000077572546e+00 3.4918695194760185e+03 1.0000000000000000e+00 8.0050468749209056e+00 7.3533774844355824e+00 6.4473046490522288e+00 
1272 874 2 1.0280000074817615e+00 5.0621963945216385e+02 1.0000000000000000e+00 8.0107254281320657e+00 7.3621747706859590e+00 6.4487251737787350e+00 
1104 706 2 1.0280000074665601e+00 5.0520540762116087e+02 1.0000000000000000e+00 8.0110349011301984e+00 7.3626315879328494e+00 6.4487981250096533e+00 
1714 1316 2 1.0279999999475238e+00 -1.2348809299405622e+02 1.0000000000000000e+00 1.0658376231515065e+01 6.4591363401891204e+00 7.9502090496696862e+00 
942 544 2 1.0279999998630978e+00 -3.6624179333897337e+03 1.0000000000000000e+00 8.8662419108780544e+00 6.6821457333869452e+00 6.3735242917513641e+00 
1446 1048 2 1.0279999943266369e+00 -3.6631528274127950e+03 1.0000000000000000e+00 8.8420384898458337e+00 6.9813241494953813e+00 6.3598593760615003e+00 
816 418 2 1.0279999955396455e+00 2.6907458301208362e+03 1.0000000000000000e+00 1.7182102990140677e+01 6.2425029786309834e+00 7.2571353224596713e+00 
958 560 2 1.0280000019552127e+00 -2.4514047412167802e+03 1.0000000000000000e+00 1.7611962223073270e+01 6.2142865926877189e+00 6.4752491795482960e+00 
934 536 2 1.0280000076942437e+00 -2.1011118643190766e+03 1.0000000000000000e+00 1.8541390720194059e+01 6.9343222954073056e+00 8.0377547204972810e+00 
633 235 2 1.0279999936697868e+00 -1.8383746604770806e+02 1.0000000000000000e+00 1.8619969795956319e+01 6.9697651713964985e+00 6.3341500647637581e+00 
1809 1411 2 1.0279999934608794e+00 -1.8373321577210626e+02 1.0000000000000000e+00 1.8699971980977818e+01 6.9838986512432850e+00 6.3181848924260828e+00 
1412 1014 2 1.0280000017601660e+00 -9.2743221517677637e+02 1.0000000000000000e+00 8.6810347475786487e-01 9.3502101622220799e+00 6.3501129338559776e+00 
748 350 2 1.0280000204582493e+00 8.7919298277884336e+03 1.0000000000000000e+00 1.0016619310122576e+00 9.5712570866385818e+00 6.3494360488198476e+00 
879 481 2 1.0279999903291848e+00 -4.5860422923495707e+02 1.0000000000000000e+00 1.3594860718893282e+00 1.0707857062641457e+01 6.5334840674051637e+00 
1098 700 2 1.0280000005895926e+00 -1.4233758382455546e+03 1.0000000000000000e+00 8.2324785305249892e-01 1.0830955480521865e+01 8.0465674191086691e+00 
916 518 2 1.0279999896578427e+00 3.5397591035500709e+03 1.0000000000000000e+00 1.3058054444068052e+00 1.0838281797227131e+01 6.4720253852798564e+00 
1622 1224 2 1.0280000072364732e+00 -1.6546730267120054e+03 1.0000000000000000e+00 5.2442631104159689e+00 1.0136721205254235e+01 6.4254596452624249e+00 
782 384 2 1.0280000042184909e+00 -1.6531229978076492e+03 1.0000000000000000e+00 5.2510410230053175e+00 1.0800204146555940e+01 7.6912769229318565e+00 
1965 1567 2 1.0280000243589167e+00 -2.3777670111538000e+03 1.0000000000000000e+00 4.5534079712330913e+00 1.1001133289881361e+01 8.0904196700898545e+00 
453 55 2 1.0279999963360511e+00 -2.3788126980282486e+03 1.0000000000000000e+00 4.6490842997400037e+00 1.1177595731326473e+01 7.8225354250942294e+00 
1103 705 2 1.0280000002137555e+00 -4.6454040148666387e+01 1.0000000000000000e+00 6.0359500848784187e+00 9.7817743858420947e+00 6.4937992086183636e+00 
1271 873 2 1.0280000002316176e+00 -4.3547234150647355e+01 1.0000000000000000e+00 6.0357301809096091e+00 9.7813056749182170e+00 6.4937754736299711e+00 
1456 1058 2 1.0280000003036602e+00 8.8297948888458632e+03 1.0000000000000000e+00 6.0348411696499786e+00 9.7794280694604030e+00 6.4936797894496099e+00 
952 554 2 1.0280000003223126e+00 8.8272120828344996e+03 1.0000000000000000e+00 6.0346104406043519e+00 9.7789452174058678e+00 6.4936550259959791e+00 
1782 1384 2 1.0280000091466857e+00 -2.5788905344483264e+03 1.0000000000000000e+00 2.6096873699634280e+00 1.1570201413860515e+01 8.2037799506830158e+00 
1090 692 2 1.0280000247391672e+00 -8.3474720903955255e+00 1.0000000000000000e+00 1.1041311557192530e+00 1.1815486193963235e+01 6.3938278025170350e+00 
1258 860 2 1.0279999938875359e+00 -7.4073271770027640e+00 1.0000000000000000e+00 1.0601975990102204e+00 1.2800726729164344e+01 6.3720227914262164e+00 
1266 868 2 1.0280000018204900e+00 -1.4233263600387006e+03 1.0000000000000000e+00 1.4934639771742857e+00 1.3393653836258174e+01 7.4554682960289789e+00 
1420 1022 2 1.0279999990012654e+00 3.5393876791901375e+03 1.0000000000000000e+00 1.1500642470742610e+00 1.4048927585911841e+01 6.4294411368055497e+00 
1719 1321 2 1.0279999995308653e+00 -4.5883406566617299e+02 1.0000000000000000e+00 1.1278122723766737e+00 1.4232924716491981e+01 6.4713264893357900e+00 
606 208 2 1.0279999914297266e+00 -2.5790562939885058e+03 1.0000000000000000e+00 3.5981206842470965e+00 1.1582364185675893e+01 8.0673954633385740e+00 