LAMMPS data file via write_data, version 30 Jul 2016, timestep = 600000

2080 atoms
8 atom types

0.0000000000000000e+00 4.0000000000000000e+01 xlo xhi
0.0000000000000000e+00 4.0000000000000000e+01 ylo yhi
0.0000000000000000e+00 1.0000000000000000e+02 zlo zhi

Masses

1 3.896
2 4.306
3 20.064
4 8.378
5 8.378
6 8.378
7 8.378
8 8.378

Atoms # meso-molecular

1 2 4 2.2559723595316457e+00 0.0000000000000000e+00 1.0000000000000000e+00 0.0000000000000000e+00 0.0000000000000000e+00 2.5000000000000000e+00 
2 2 4 2.2559723595316457e+00 0.0000000000000000e+00 1.0000000000000000e+00 0.0000000000000000e+00 2.0000000000000000e+00 2.5000000000000000e+00 
21 2 4 2.2559723595316457e+00 0.0000000000000000e+00 1.0000000000000000e+00 2.0000000000000000e+00 0.0000000000000000e+00 2.5000000000000000e+00 
22 2 4 2.2559723595316457e+00 0.0000000000000000e+00 1.0000000000000000e+00 2.0000000000000000e+00 2.0000000000000000e+00 2.5000000000000000e+00 
41 2 4 2.2559723595316457e+00 0.0000000000000000e+00 1.0000000000000000e+00 4.0000000000000000e+00 0.0000000000000000e+00 2.5000000000000000e+00 
42 2 4 2.2559723595316457e+00 0.0000000000000000e+00 1.0000000000000000e+00 4.0000000000000000e+00 2.0000000000000000e+00 2.5000000000000000e+00 
61 2 4 2.2559723595316457e+00 0.0000000000000000e+00 1.0000000000000000e+00 6.0000000000000000e+00 0.0000000000000000e+00 2.5000000000000000e+00 
62 2 4 2.2559723595316457e+00 0.0000000000000000e+00 1.0000000000000000e+00 6.0000000000000000e+00 2.0000000000000000e+00 2.5000000000000000e+00 
81 2 4 2.2559723595316457e+00 0.0000000000000000e+00 1.0000000000000000e+00 8.0000000000000000e+00 0.0000000000000000e+00 2.5000000000000000e+00 
82 2 4 2.2559723595316457e+00 0.0000000000000000e+00 1.0000000000000000e+00 8.0000000000000000e+00 2.0000000000000000e+00 2.5000000000000000e+00 
101 2 4 2.2559723595316457e+00 0.0000000000000000e+00 1.0000000000000000e+00 1.0000000000000000e+01 0.0000000000000000e+00 2.5000000000000000e+00 
102 2 4 2.2559723595316457e+00 0.0000000000000000e+00 1.0000000000000000e+00 1.0000000000000000e+01 2.0000000000000000e+00 2.5000000000000000e+00 
121 2 4 2.2559723595316457e+00 0.0000000000000000e+00 1.0000000000000000e+00 1.2000000000000000e+01 0.0000000000000000e+00 2.5000000000000000e+00 
122 2 4 2.2559723595316457e+00 0.0000000000000000e+00 1.0000000000000000e+00 1.2000000000000000e+01 2.0000000000000000e+00 2.5000000000000000e+00 
141 2 4 2.2559723595316457e+00 0.0000000000000000e+00 1.0000000000000000e+00 1.4000000000000000e+01 0.0000000000000000e+00 2.5000000000000000e+00 
142 2 4 2.2559723595316457e+00 0.0000000000000000e+00 1.0000000000000000e+00 1.4000000000000000e+01 2.0000000000000000e+00 2.5000000000000000e+00 
161 2 4 2.2559723595316457e+00 0.0000000000000000e+00 1.0000000000000000e+00 1.6000000000000000e+01 0.0000000000000000e+00 2.5000000000000000e+00 
162 2 4 2.2559723595316457e+00 0.0000000000000000e+00 1.0000000000000000e+00 1.6000000000000000e+01 2.0000000000000000e+00 2.5000000000000000e+00 
181 2 4 2.2559723595316457e+00 0.0000000000000000e+00 1.0000000000000000e+00 1.8000000000000000e+01 0.0000000000000000e+00 2.5000000000000000e+00 
182 2 4 2.2559723595316497e+00 2.0570280025683855e-06 1.0000000000000000e+00 1.8000000000000000e+01 2.0000000000000000e+00 2.5000000000000000e+00 
3 2 4 2.2559723595316457e+00 0.0000000000000000e+00 1.0000000000000000e+00 0.0000000000000000e+00 4.0000000000000000e+00 2.5000000000000000e+00 
4 2 4 2.2559723595316457e+00 0.0000000000000000e+00 1.0000000000000000e+00 0.0000000000000000e+00 6.0000000000000000e+00 2.5000000000000000e+00 
23 2 4 2.2559723595316457e+00 0.0000000000000000e+00 1.0000000000000000e+00 2.0000000000000000e+00 4.0000000000000000e+00 2.5000000000000000e+00 
24 2 4 2.2559723595316457e+00 0.0000000000000000e+00 1.0000000000000000e+00 2.0000000000000000e+00 6.0000000000000000e+00 2.5000000000000000e+00 
43 2 4 2.2559723595316457e+00 0.0000000000000000e+00 1.0000000000000000e+00 4.0000000000000000e+00 4.0000000000000000e+00 2.5000000000000000e+00 
44 2 4 2.2559723595316457e+00 0.0000000000000000e+00 1.0000000000000000e+00 4.0000000000000000e+00 6.0000000000000000e+00 2.5000000000000000e+00 
63 2 4 2.2559723595316457e+00 0.0000000000000000e+00 1.0000000000000000e+00 6.0000000000000000e+00 4.0000000000000000e+00 2.5000000000000000e+00 
64 2 4 2.2559723595316457e+00 0.0000000000000000e+00 1.0000000000000000e+00 6.0000000000000000e+00 6.0000000000000000e+00 2.5000000000000000e+00 
83 2 4 2.2559723595316457e+00 0.0000000000000000e+00 1.0000000000000000e+00 8.0000000000000000e+00 4.0000000000000000e+00 2.5000000000000000e+00 
84 2 4 2.2559723595316457e+00 0.0000000000000000e+00 1.0000000000000000e+00 8.0000000000000000e+00 6.0000000000000000e+00 2.5000000000000000e+00 
103 2 4 2.2559723595316457e+00 0.0000000000000000e+00 1.0000000000000000e+00 1.0000000000000000e+01 4.0000000000000000e+00 2.5000000000000000e+00 
104 2 4 2.2559723595316457e+00 2.0747903814153226e-08 1.0000000000000000e+00 1.0000000000000000e+01 6.0000000000000000e+00 2.5000000000000000e+00 
123 2 4 2.2559723595316457e+00 0.0000000000000000e+00 1.0000000000000000e+00 1.2000000000000000e+01 4.0000000000000000e+00 2.5000000000000000e+00 
124 2 4 2.2559723595316457e+00 4.3329894429309166e-06 1.0000000000000000e+00 1.2000000000000000e+01 6.0000000000000000e+00 2.5000000000000000e+00 
143 2 4 2.2559723595316457e+00 5.5560191819531530e-09 1.0000000000000000e+00 1.4000000000000000e+01 4.0000000000000000e+00 2.5000000000000000e+00 
144 2 4 2.2559723595316457e+00 3.8374237654843848e-08 1.0000000000000000e+00 1.4000000000000000e+01 6.0000000000000000e+00 2.5000000000000000e+00 
163 2 4 2.2559723595316457e+00 1.1323853766594273e-06 1.0000000000000000e+00 1.6000000000000000e+01 4.0000000000000000e+00 2.5000000000000000e+00 
164 2 4 2.2559723595316457e+00 4.1659712437966208e-05 1.0000000000000000e+00 1.6000000000000000e+01 6.0000000000000000e+00 2.5000000000000000e+00 
183 2 4 2.2559723595316457e+00 4.5914476907500407e-06 1.0000000000000000e+00 1.8000000000000000e+01 4.0000000000000000e+00 2.5000000000000000e+00 
184 2 4 2.2559723595316457e+00 7.9202088190305947e-05 1.0000000000000000e+00 1.8000000000000000e+01 6.0000000000000000e+00 2.5000000000000000e+00 
5 2 4 2.2559723595316457e+00 0.0000000000000000e+00 1.0000000000000000e+00 0.0000000000000000e+00 8.0000000000000000e+00 2.5000000000000000e+00 
6 2 4 2.2559723595316457e+00 0.0000000000000000e+00 1.0000000000000000e+00 0.0000000000000000e+00 1.0000000000000000e+01 2.5000000000000000e+00 
25 2 4 2.2559723595316457e+00 0.0000000000000000e+00 1.0000000000000000e+00 2.0000000000000000e+00 8.0000000000000000e+00 2.5000000000000000e+00 
26 2 4 2.2559723595316457e+00 0.0000000000000000e+00 1.0000000000000000e+00 2.0000000000000000e+00 1.0000000000000000e+01 2.5000000000000000e+00 
45 2 4 2.2559723595316457e+00 0.0000000000000000e+00 1.0000000000000000e+00 4.0000000000000000e+00 8.0000000000000000e+00 2.5000000000000000e+00 
46 2 4 2.2559723595316457e+00 0.0000000000000000e+00 1.0000000000000000e+00 4.0000000000000000e+00 1.0000000000000000e+01 2.5000000000000000e+00 
65 2 4 2.2559723595316457e+00 0.0000000000000000e+00 1.0000000000000000e+00 6.0000000000000000e+00 8.0000000000000000e+00 2.5000000000000000e+00 
66 2 4 2.2559723595316457e+00 4.5565792109544068e-07 1.0000000000000000e+00 6.0000000000000000e+00 1.0000000000000000e+01 2.5000000000000000e+00 
85 2 4 2.2559723595316457e+00 2.0543321764190820e-06 1.0000000000000000e+00 8.0000000000000000e+00 8.0000000000000000e+00 2.5000000000000000e+00 
86 2 4 2.2559723595316457e+00 2.5637587148630909e-05 1.0000000000000000e+00 8.0000000000000000e+00 1.0000000000000000e+01 2.5000000000000000e+00 
105 2 4 2.2559723595316457e+00 0.0000000000000000e+00 1.0000000000000000e+00 1.0000000000000000e+01 8.0000000000000000e+00 2.5000000000000000e+00 
106 2 4 2.2559723595316457e+00 -1.4016725363777958e-07 1.0000000000000000e+00 1.0000000000000000e+01 1.0000000000000000e+01 2.5000000000000000e+00 
125 2 4 2.2559723595316457e+00 1.1658683386667500e-05 1.0000000000000000e+00 1.2000000000000000e+01 8.0000000000000000e+00 2.5000000000000000e+00 
126 2 4 2.2559723595316457e+00 4.2857945474238115e-08 1.0000000000000000e+00 1.2000000000000000e+01 1.0000000000000000e+01 2.5000000000000000e+00 
145 2 4 2.2559723595316457e+00 -3.9414866269429176e+01 1.0000000000000000e+00 1.4000000000000000e+01 8.0000000000000000e+00 2.5000000000000000e+00 
146 2 4 2.2559723595316457e+00 -2.0645359796336388e+02 1.0000000000000000e+00 1.4000000000000000e+01 1.0000000000000000e+01 2.5000000000000000e+00 
165 2 4 2.2559723595316457e+00 -2.0664804996376020e+02 1.0000000000000000e+00 1.6000000000000000e+01 8.0000000000000000e+00 2.5000000000000000e+00 
166 2 4 2.2559723595316457e+00 -8.7837242838365182e+02 1.0000000000000000e+00 1.6000000000000000e+01 1.0000000000000000e+01 2.5000000000000000e+00 
185 2 4 2.2559723595316457e+00 -2.8774212550753634e+02 1.0000000000000000e+00 1.8000000000000000e+01 8.0000000000000000e+00 2.5000000000000000e+00 
186 2 4 2.2559723595316457e+00 -1.2097871277587485e+03 1.0000000000000000e+00 1.8000000000000000e+01 1.0000000000000000e+01 2.5000000000000000e+00 
7 2 4 2.2559723595316457e+00 0.0000000000000000e+00 1.0000000000000000e+00 0.0000000000000000e+00 1.2000000000000000e+01 2.5000000000000000e+00 
8 2 4 2.2559723595316457e+00 0.0000000000000000e+00 1.0000000000000000e+00 0.0000000000000000e+00 1.4000000000000000e+01 2.5000000000000000e+00 
27 2 4 2.2559723595316457e+00 0.0000000000000000e+00 1.0000000000000000e+00 2.0000000000000000e+00 1.2000000000000000e+01 2.5000000000000000e+00 
28 2 4 2.2559723595316457e+00 0.0000000000000000e+00 1.0000000000000000e+00 2.0000000000000000e+00 1.4000000000000000e+01 2.5000000000000000e+00 
47 2 4 2.2559723595316457e+00 0.0000000000000000e+00 1.0000000000000000e+00 4.0000000000000000e+00 1.2000000000000000e+01 2.5000000000000000e+00 
48 2 4 2.2559723595316457e+00 0.0000000000000000e+00 1.0000000000000000e+00 4.0000000000000000e+00 1.4000000000000000e+01 2.5000000000000000e+00 
67 2 4 2.2559723595316457e+00 0.0000000000000000e+00 1.0000000000000000e+00 6.0000000000000000e+00 1.2000000000000000e+01 2.5000000000000000e+00 
68 2 4 2.2559723595316457e+00 0.0000000000000000e+00 1.0000000000000000e+00 6.0000000000000000e+00 1.4000000000000000e+01 2.5000000000000000e+00 
87 2 4 2.2559723595316457e+00 3.6636703659920912e-05 1.0000000000000000e+00 8.0000000000000000e+00 1.2000000000000000e+01 2.5000000000000000e+00 
88 2 4 2.2559723595316457e+00 6.0610181042078943e-05 1.0000000000000000e+00 8.0000000000000000e+00 1.4000000000000000e+01 2.5000000000000000e+00 
107 2 4 2.2559723595316457e+00 1.1407779282340805e-04 1.0000000000000000e+00 1.0000000000000000e+01 1.2000000000000000e+01 2.5000000000000000e+00 
108 2 4 2.2559723595316457e+00 2.1683835558518409e-04 1.0000000000000000e+00 1.0000000000000000e+01 1.4000000000000000e+01 2.5000000000000000e+00 
127 2 4 2.2559723595316457e+00 5.6002486269774809e-05 1.0000000000000000e+00 1.2000000000000000e+01 1.2000000000000000e+01 2.5000000000000000e+00 
128 2 4 2.2559723595316457e+00 -8.5513663144662819e-06 1.0000000000000000e+00 1.2000000000000000e+01 1.4000000000000000e+01 2.5000000000000000e+00 
147 2 4 2.2559723595316457e+00 -2.8695934393223547e+02 1.0000000000000000e+00 1.4000000000000000e+01 1.2000000000000000e+01 2.5000000000000000e+00 
148 2 4 2.2559723595316457e+00 -2.9863108854920557e+02 1.0000000000000000e+00 1.4000000000000000e+01 1.4000000000000000e+01 2.5000000000000000e+00 
167 2 4 2.2559723595316457e+00 -1.2061284042923940e+03 1.0000000000000000e+00 1.6000000000000000e+01 1.2000000000000000e+01 2.5000000000000000e+00 
168 2 4 2.2559723595316457e+00 -1.2401615163738243e+03 1.0000000000000000e+00 1.6000000000000000e+01 1.4000000000000000e+01 2.5000000000000000e+00 
187 2 4 2.2559723595316457e+00 -1.6138047077781953e+03 1.0000000000000000e+00 1.8000000000000000e+01 1.2000000000000000e+01 2.5000000000000000e+00 
188 2 4 2.2559723595316457e+00 -1.6420871031998784e+03 1.0000000000000000e+00 1.8000000000000000e+01 1.4000000000000000e+01 2.5000000000000000e+00 
9 2 4 2.2559723595316457e+00 0.0000000000000000e+00 1.0000000000000000e+00 0.0000000000000000e+00 1.6000000000000000e+01 2.5000000000000000e+00 
10 2 4 2.2559723595316457e+00 -1.7475012658542484e-03 1.0000000000000000e+00 0.0000000000000000e+00 1.8000000000000000e+01 2.5000000000000000e+00 
29 2 4 2.2559723595316457e+00 0.0000000000000000e+00 1.0000000000000000e+00 2.0000000000000000e+00 1.6000000000000000e+01 2.5000000000000000e+00 
30 2 4 2.2559723595316457e+00 -3.4052404376982322e-03 1.0000000000000000e+00 2.0000000000000000e+00 1.8000000000000000e+01 2.5000000000000000e+00 
49 2 4 2.2559723595316457e+00 0.0000000000000000e+00 1.0000000000000000e+00 4.0000000000000000e+00 1.6000000000000000e+01 2.5000000000000000e+00 
50 2 4 2.2559723595316457e+00 -2.9078391707106066e-04 1.0000000000000000e+00 4.0000000000000000e+00 1.8000000000000000e+01 2.5000000000000000e+00 
69 2 4 2.2559723595316457e+00 0.0000000000000000e+00 1.0000000000000000e+00 6.0000000000000000e+00 1.6000000000000000e+01 2.5000000000000000e+00 
70 2 4 2.2559723595316457e+00 -3.4367060087482090e-04 1.0000000000000000e+00 6.0000000000000000e+00 1.8000000000000000e+01 2.5000000000000000e+00 
89 2 4 2.2559723595316457e+00 3.9640496856247715e-09 1.0000000000000000e+00 8.0000000000000000e+00 1.6000000000000000e+01 2.5000000000000000e+00 
90 2 4 2.2559723595316457e+00 -1.8165297598052996e-04 1.0000000000000000e+00 8.0000000000000000e+00 1.8000000000000000e+01 2.5000000000000000e+00 
109 2 4 2.2559723595316457e+00 3.5998275116193551e-04 1.0000000000000000e+00 1.0000000000000000e+01 1.6000000000000000e+01 2.5000000000000000e+00 
110 2 4 2.2559723595316457e+00 -5.0269778305225867e-05 1.0000000000000000e+00 1.0000000000000000e+01 1.8000000000000000e+01 2.5000000000000000e+00 
129 2 4 2.2559723595316457e+00 -3.5354132636847003e-04 1.0000000000000000e+00 1.2000000000000000e+01 1.6000000000000000e+01 2.5000000000000000e+00 
130 2 4 2.2559723595316457e+00 1.1478431255373562e-05 1.0000000000000000e+00 1.2000000000000000e+01 1.8000000000000000e+01 2.5000000000000000e+00 
149 2 4 2.2559723595316457e+00 -2.9417344220138216e+02 1.0000000000000000e+00 1.4000000000000000e+01 1.6000000000000000e+01 2.5000000000000000e+00 
150 2 4 2.2559723595316457e+00 -2.9587486188458877e+02 1.0000000000000000e+00 1.4000000000000000e+01 1.8000000000000000e+01 2.5000000000000000e+00 
169 2 4 2.2559723595316457e+00 -1.2164932788899303e+03 1.0000000000000000e+00 1.6000000000000000e+01 1.6000000000000000e+01 2.5000000000000000e+00 
170 2 4 2.2559723595316457e+00 -1.2166961506599732e+03 1.0000000000000000e+00 1.6000000000000000e+01 1.8000000000000000e+01 2.5000000000000000e+00 
189 2 4 2.2559723595316457e+00 -1.5989122021384151e+03 1.0000000000000000e+00 1.8000000000000000e+01 1.6000000000000000e+01 2.5000000000000000e+00 
190 2 4 2.2559723595316457e+00 -1.5605015859425246e+03 1.0000000000000000e+00 1.8000000000000000e+01 1.8000000000000000e+01 2.5000000000000000e+00 
1273 875 2 1.0280001312761435e+00 -1.5066042095307776e+03 1.0000000000000000e+00 1.2010295916891675e+01 7.6335590222095036e+00 9.1408944873057891e+01 
1535 1137 2 1.0280001218485502e+00 -1.7628137205480768e+03 1.0000000000000000e+00 1.2038606501285832e+01 7.6728744630695687e+00 9.1395181475046428e+01 
1545 1147 2 1.0280001480581742e+00 1.5681854468319493e+03 1.0000000000000000e+00 1.2150991659679013e+01 7.5299006255972047e+00 9.1352567052959898e+01 
1381 983 2 1.0280001718175815e+00 -2.5474076670370919e+03 1.0000000000000000e+00 1.2174946355710603e+01 7.4284568343156785e+00 9.1353267271522256e+01 
1337 939 2 1.0280009783270150e+00 -2.8404853705657601e+03 1.0000000000000000e+00 1.3304531085109110e+01 6.8012838309391901e+00 9.1514235583236314e+01 
1035 637 2 1.0280012174045774e+00 -1.1008504176584765e+03 1.0000000000000000e+00 1.3430733609005406e+01 6.6719182453003221e+00 9.1608665208791535e+01 
762 364 2 1.0280002700284598e+00 7.6917810646580904e+02 1.0000000000000000e+00 1.2389913890855743e+01 6.5305930041285940e+00 9.1653465995026849e+01 
1016 618 2 1.0279997247945007e+00 -4.6714110210939079e+03 1.0000000000000000e+00 1.8902648294553067e+01 6.0394994556665544e+00 9.1405807778939717e+01 
1013 615 2 1.0279996493470909e+00 -4.6714304413716409e+03 1.0000000000000000e+00 1.9273016675479735e+01 6.0283081648289558e+00 9.1422867055075486e+01 
708 310 2 1.0279997250001431e+00 4.5985608325111034e+03 1.0000000000000000e+00 1.8169942939595153e+01 6.3906167769063336e+00 9.1501468161315856e+01 
705 307 2 1.0279993620528596e+00 4.5984892362027167e+03 1.0000000000000000e+00 1.9909811112119502e+01 6.3403524284951942e+00 9.1555384907352277e+01 
551 153 2 1.0280000186203977e+00 2.7115158374889115e+03 1.0000000000000000e+00 1.7973994257968823e+01 6.1865781411924434e+00 9.1552977146068926e+01 
1613 1215 2 1.0280003805771580e+00 3.0380249996821349e+03 1.0000000000000000e+00 1.7960731390084931e+01 5.6494027459727869e+00 9.1620951763104273e+01 
837 439 2 1.0279998934457326e+00 1.7193792442152139e+03 1.0000000000000000e+00 1.7766744468087499e+01 6.4320882715299144e+00 9.1628243308432261e+01 
1226 828 2 1.0279981545264842e+00 -3.1435093444296872e+03 1.0000000000000000e+00 1.8368387643894895e+01 7.4792021609364330e+00 9.1651580482831406e+01 
1114 716 2 1.0280000836589269e+00 -4.0327206558230223e+03 1.0000000000000000e+00 1.1833375988421789e+01 8.2068035684197937e+00 9.1596549823216307e+01 
1874 1476 2 1.0280000793861968e+00 3.4437068368536552e+02 1.0000000000000000e+00 1.1874864993870016e+01 8.1284815801392121e+00 9.1546579578191128e+01 
1473 1075 2 1.0280001266122769e+00 -5.0663926391451005e+03 1.0000000000000000e+00 1.1743598982517844e+01 8.0906734227929551e+00 9.1625549459502480e+01 
1078 680 2 1.0279971191258652e+00 -9.4855524291769725e+03 1.0000000000000000e+00 1.5998089979294528e+01 1.0495933437889756e+01 9.1442013394521410e+01 
472 74 2 1.0279981816868533e+00 -7.5274405713264559e+02 1.0000000000000000e+00 1.5941607645635944e+01 1.1504363726458900e+01 9.1178772371583307e+01 
586 188 2 1.0279979488073596e+00 -1.0907378978039981e+03 1.0000000000000000e+00 1.5710992401357736e+01 1.1949666492621246e+01 9.1351375198281957e+01 
1135 737 2 1.0279981255072410e+00 1.5071610520484548e+03 1.0000000000000000e+00 1.6011409660403615e+01 1.1159230744810857e+01 9.1196430016707552e+01 
530 132 2 1.0279981505700468e+00 6.5890269893296500e+03 1.0000000000000000e+00 1.6040025870778340e+01 1.1140588245057689e+01 9.1179936474164364e+01 
718 320 2 1.0279981069097928e+00 2.4679931716935380e+03 1.0000000000000000e+00 1.6200197760062700e+01 1.0818560390487709e+01 9.1173078636583739e+01 
858 460 2 1.0279980527404535e+00 9.9590563084118858e+03 1.0000000000000000e+00 1.6379357031356257e+01 1.0541698350643953e+01 9.1189275433554542e+01 
758 360 2 1.0279985978741979e+00 -2.5343959241722919e+03 1.0000000000000000e+00 1.7145167993656649e+01 1.0022786529660943e+01 9.1285474161339565e+01 
987 589 2 1.0279988021166586e+00 -2.5759639594212140e+03 1.0000000000000000e+00 1.7175124525560260e+01 1.0091414104866821e+01 9.1249043152660292e+01 
462 64 2 1.0279987334387262e+00 2.4738484660594786e+03 1.0000000000000000e+00 1.7079001289640583e+01 1.0162188214092650e+01 9.1214271884335844e+01 
460 62 2 1.0279984919976215e+00 -4.1168604925462332e+03 1.0000000000000000e+00 1.6893235461534360e+01 1.0234913413176391e+01 9.1192632847837629e+01 
1419 1021 2 1.0279985790012078e+00 -7.8362962028519878e+03 1.0000000000000000e+00 1.6946901459814690e+01 1.0225142625435788e+01 9.1191653827381316e+01 
467 69 2 1.0279985999861281e+00 2.9738469573162743e+03 1.0000000000000000e+00 1.6934163018754671e+01 1.0252037786496345e+01 9.1179986659825417e+01 
1162 764 2 1.0279986179543450e+00 -5.6895551875400852e+03 1.0000000000000000e+00 1.6929167573649107e+01 1.0268660037920629e+01 9.1172629122884970e+01 
1967 1569 2 1.0279985597516048e+00 2.7378669802541244e+03 1.0000000000000000e+00 1.6580983629148140e+01 1.0678937891784802e+01 9.1066193115216691e+01 
1783 1385 2 1.0279988723648772e+00 8.1684099226337673e+02 1.0000000000000000e+00 1.6559328305478815e+01 1.1380494817867064e+01 9.0890596140599698e+01 
1184 786 2 1.0279996894272494e+00 -2.5448671439368441e+03 1.0000000000000000e+00 1.2459810091684723e+01 1.5864365193941678e+01 9.0621550513446465e+01 
1707 1309 2 1.0279942884252955e+00 4.6008811967109041e+03 1.0000000000000000e+00 1.4919797988349435e+01 1.4321765387384916e+01 9.1448805262122789e+01 
539 141 2 1.0279948973186523e+00 3.1070972335418378e+02 1.0000000000000000e+00 1.4704016896507014e+01 1.4513865119572740e+01 9.1326651886658098e+01 
578 180 2 1.0279975268039199e+00 -5.9422234586514242e+03 1.0000000000000000e+00 1.4088145773615061e+01 1.5024546356513785e+01 9.0867147419078506e+01 
1084 686 2 1.0279955649765529e+00 -7.7682316044710342e+03 1.0000000000000000e+00 1.4550744311514432e+01 1.4637571826901436e+01 9.1221772712272170e+01 
1817 1419 2 1.0279978008942785e+00 -1.5985752493724867e+03 1.0000000000000000e+00 1.4010330902633859e+01 1.5102108546776075e+01 9.0803624821323027e+01 
1380 982 2 1.0279981683737724e+00 -2.5745290238033836e+03 1.0000000000000000e+00 1.3885935601472728e+01 1.5216114674579414e+01 9.0716096563517752e+01 
1197 799 2 1.0279976814398211e+00 -1.5285082382081316e+03 1.0000000000000000e+00 1.5636147644037198e+01 1.2412603035582594e+01 9.1405674543351324e+01 
1328 930 2 1.0279984129179529e+00 -2.9566116655720293e+03 1.0000000000000000e+00 1.3804238859204863e+01 1.5304345105593743e+01 9.0655592267129990e+01 
778 380 2 1.0279960953934404e+00 5.8202543438175744e+03 1.0000000000000000e+00 1.5012738781719674e+01 1.4650574552047420e+01 9.1229250446030861e+01 
1714 1316 2 1.0279993957945348e+00 4.6532924982751393e+02 1.0000000000000000e+00 1.3478538573623034e+01 1.5853263350120050e+01 9.0400221589394476e+01 
1279 881 2 1.0279996732244285e+00 -6.7617290404130690e+03 1.0000000000000000e+00 1.2959466252234515e+01 1.5932725048715335e+01 9.0415818467891000e+01 
848 450 2 1.0280019148794799e+00 2.8260533800482831e+03 1.0000000000000000e+00 1.6157583524991665e+01 1.5094639182060842e+01 9.1453445697591661e+01 
1379 981 2 1.0279993976411017e+00 -3.1575858529491011e+03 1.0000000000000000e+00 1.8855259963373658e+01 1.2904804990203210e+01 9.1015772402269207e+01 
1378 980 2 1.0279993317205212e+00 -3.1575873211967510e+03 1.0000000000000000e+00 1.9110213995310794e+01 1.2911013090430616e+01 9.1031366738416637e+01 
1446 1048 2 1.0279996153752498e+00 -3.3113324180967238e+03 1.0000000000000000e+00 1.7576868543771937e+01 1.2724083996572645e+01 9.0839603907325440e+01 
1396 998 2 1.0279995366993016e+00 -1.4095262189947152e+03 1.0000000000000000e+00 1.7277210925291048e+01 1.2444075647296431e+01 9.0792450166264672e+01 
1720 1322 2 1.0279993980202378e+00 1.7535298849956789e+03 1.0000000000000000e+00 1.7034814204931241e+01 1.2135689764945974e+01 9.0778506529189130e+01 
434 36 2 1.0279979143550100e+00 -3.1843877512359713e+03 1.0000000000000000e+00 1.9841030550987778e+01 1.4197433070500253e+01 9.1423475883569367e+01 
435 37 2 1.0279998693169594e+00 -3.1839773177012848e+03 1.0000000000000000e+00 1.8257670780728120e+01 1.4168094889852910e+01 9.1307197299114591e+01 
899 501 2 1.0279988186861928e+00 -5.3336154541020351e+03 1.0000000000000000e+00 1.9177201354153237e+01 1.4580186150767245e+01 9.1577672831931679e+01 
898 500 2 1.0279997110456933e+00 -5.3334701153475507e+03 1.0000000000000000e+00 1.8897674714509204e+01 1.4576052115373681e+01 9.1557034270665341e+01 
446 48 2 1.0280003661106603e+00 4.0112584963825043e+03 1.0000000000000000e+00 1.8039715096469287e+01 1.4335045719497783e+01 9.1328060771151328e+01 
1716 1318 2 1.0280010329471678e+00 5.5489036429843839e+02 1.0000000000000000e+00 1.8275994469384596e+01 1.4657532960142484e+01 9.1488504134603218e+01 
1713 1315 2 1.0279975818701765e+00 5.5411167478852713e+02 1.0000000000000000e+00 1.9870771341004033e+01 1.4697889442437530e+01 9.1577977052311354e+01 
2002 1604 2 1.0280029013709895e+00 1.6990884544285479e+03 1.0000000000000000e+00 1.8375257460038881e+01 1.5057454562704393e+01 9.1653369756628749e+01 
1510 1112 2 1.0279986967147068e+00 -2.0382617193444939e+03 1.0000000000000000e+00 1.1479700072023098e+01 1.6088885924919477e+01 9.1324189150019464e+01 
1180 782 2 1.0279998271469324e+00 -2.8652829371196108e+03 1.0000000000000000e+00 1.0212369308238266e+01 1.8648549319665143e+01 9.1313310988949880e+01 
1348 950 2 1.0279996881952178e+00 -2.8654199218269077e+03 1.0000000000000000e+00 1.0255539583120708e+01 1.8777154530200512e+01 9.1339348420286598e+01 
1312 914 2 1.0279978050680902e+00 -2.0222344958869767e+03 1.0000000000000000e+00 1.0856594431722483e+01 1.8612889757679291e+01 9.1336801729354690e+01 
1144 746 2 1.0279977965869647e+00 -2.0222183621277502e+03 1.0000000000000000e+00 1.0861193908951998e+01 1.8591234810612853e+01 9.1330849893402061e+01 
1089 691 2 1.0279988410239875e+00 -9.5075384866707611e+02 1.0000000000000000e+00 1.1550100473207326e+01 1.6870641477887784e+01 9.0900092145901837e+01 
1565 1167 2 1.0279991353351852e+00 3.4725130730700275e+03 1.0000000000000000e+00 1.1647933599394216e+01 1.6130135653261132e+01 9.1099164014790446e+01 
553 155 2 1.0279993746165170e+00 -4.4423185072344398e+02 1.0000000000000000e+00 1.1810228411016071e+01 1.6101875589187525e+01 9.0959279078639952e+01 
2069 1671 2 1.0279995555751369e+00 6.1586818918055933e+03 1.0000000000000000e+00 1.1964565069946582e+01 1.6388507374302996e+01 9.0718360543276276e+01 
2071 1673 2 1.0279963486129171e+00 -1.0887910271029448e+03 1.0000000000000000e+00 1.1635514945563493e+01 1.7968449246855688e+01 9.1093959989058916e+01 
559 161 2 1.0279947313076940e+00 -1.0891402005712198e+03 1.0000000000000000e+00 1.1462839101497087e+01 1.9010405004238621e+01 9.1626718750471255e+01 
1232 834 2 1.0279973376927920e+00 1.1171977335763434e+03 1.0000000000000000e+00 1.1944321056327007e+01 1.7726592443215413e+01 9.0903611032885905e+01 
1182 784 2 1.0279909626216392e+00 -2.4191484150998440e+03 1.0000000000000000e+00 1.2168039478501250e+01 1.8621566273289435e+01 9.1463685240324736e+01 
1741 1343 2 1.0279997651960666e+00 5.3191202696560849e+03 1.0000000000000000e+00 1.2352870489411409e+01 1.6481984329981721e+01 9.0496307532752013e+01 
1871 1473 2 1.0279998316617376e+00 4.7124598024166829e+02 1.0000000000000000e+00 1.2519856077181110e+01 1.6448892632270216e+01 9.0435906145436846e+01 
1993 1595 2 1.0279991417679384e+00 -1.7933686038085682e+03 1.0000000000000000e+00 1.2557143871101362e+01 1.7314510512861851e+01 9.0559694045878118e+01 
673 275 2 1.0279996988590023e+00 1.1162835498128516e+03 1.0000000000000000e+00 1.3329901094455273e+01 1.6136701908391121e+01 9.0336024519326813e+01 
722 324 2 1.0279997509794412e+00 3.4210985054222738e+03 1.0000000000000000e+00 1.3127817479236999e+01 1.6121611620718756e+01 9.0345842134560883e+01 
869 471 2 1.0279992466938204e+00 2.5588911690502305e+03 1.0000000000000000e+00 1.4699860432969082e+01 1.7580313551743416e+01 9.1040649362935028e+01 
1839 1441 2 1.0279999004875964e+00 1.6661068543058042e+02 1.0000000000000000e+00 1.5478867049672841e+01 1.6777729971079125e+01 9.1349034216623991e+01 
1833 1435 2 1.0279997723443908e+00 5.6383111297120411e+02 1.0000000000000000e+00 1.5395299456724670e+01 1.7695273617136529e+01 9.1514136263878157e+01 
1459 1061 2 1.0279998791936753e+00 -9.9518214239313693e+02 1.0000000000000000e+00 1.5446693339375750e+01 1.7621281194308878e+01 9.1523383140605020e+01 
895 497 2 1.0280010377867237e+00 7.4659329101540879e+03 1.0000000000000000e+00 1.1343640449554803e+01 3.8821420283652039e+00 9.5660119886665811e+01 
965 567 2 1.0279992207665880e+00 -1.2449795847511830e+03 1.0000000000000000e+00 1.5318783769481888e+01 2.1151351334312323e+00 9.5111278013897959e+01 
2035 1637 2 1.0279997280977806e+00 6.4851258280073926e+03 1.0000000000000000e+00 1.5165208078336319e+01 2.1224407202503461e+00 9.5288375719619438e+01 
2020 1622 2 1.0279977805225837e+00 -3.0857211085098184e+03 1.0000000000000000e+00 1.5922136870106456e+01 2.3646757429396605e+00 9.4491791418334714e+01 
1873 1475 2 1.0280001016884213e+00 -1.6422526887925394e+03 1.0000000000000000e+00 1.4356591253880334e+01 3.2612636501926957e+00 9.4339949571430395e+01 
507 109 2 1.0280021394146055e+00 5.3815929247530785e+03 1.0000000000000000e+00 1.2219803236900450e+01 3.5562472424583702e+00 9.5406857815001416e+01 
1784 1386 2 1.0280009348380761e+00 3.3057912491182578e+03 1.0000000000000000e+00 1.4882150712351201e+01 2.2336352286681986e+00 9.5698179561058637e+01 
1020 622 2 1.0279968975586802e+00 -2.7420006054454657e+03 1.0000000000000000e+00 1.8656945697808801e+01 1.3289563096786181e+00 9.5166873475914514e+01 
1017 619 2 1.0279968001629212e+00 -2.7419957285013802e+03 1.0000000000000000e+00 1.9494353934567080e+01 1.3322797457310149e+00 9.5194557869945271e+01 
1931 1533 2 1.0279983287065393e+00 1.1329047320811604e+02 1.0000000000000000e+00 1.7171400410363706e+01 1.6960524856544270e+00 9.4882456282342957e+01 
652 254 2 1.0279962514079415e+00 5.0665546090264604e+02 1.0000000000000000e+00 1.7375101638552607e+01 2.3810957566760353e+00 9.4458427435319066e+01 
1727 1329 2 1.0279968475291643e+00 1.8662288675794450e+03 1.0000000000000000e+00 1.6728880258385729e+01 2.7423798864491373e+00 9.4138412606593704e+01 
1082 684 2 1.0279973213702223e+00 -8.4754562545281715e+03 1.0000000000000000e+00 1.6943697497169893e+01 3.6801267534272957e+00 9.3577924678468293e+01 
648 250 2 1.0280038114302052e+00 -2.8868748847040038e+03 1.0000000000000000e+00 1.8605952562993888e+01 3.7634913560213188e+00 9.3961399030743920e+01 
2021 1623 2 1.0279993017392264e+00 -9.0990345258504271e+02 1.0000000000000000e+00 1.7858393177925304e+01 3.7865181818353353e+00 9.3524846105967185e+01 
645 247 2 1.0280077472576814e+00 -2.8868298601556135e+03 1.0000000000000000e+00 1.9371900890927691e+01 3.8570843565319266e+00 9.4096215564683519e+01 
615 217 2 1.0280004379930341e+00 -1.3087523649574753e+03 1.0000000000000000e+00 1.8170650629943292e+01 3.9417993585069699e+00 9.3248243904220402e+01 