ITEM: TIMESTEP
0
ITEM: NUMBER OF ATOMS
9184
ITEM: BOX BOUNDS pp pp pp
85.1507 114.849
85.1507 114.849
255.452 344.548
ITEM: ATOMS id type mol xs ys zs 
57 3 0 0.646306 0.0431695 0.00797079 
129 3 0 0.155354 0.305785 0.00600421 
118 3 0 0.928445 0.00273812 0.0279844 
143 3 0 0.771122 0.0265426 0.0323597 
120 1 0 0.221466 0.334987 0.0451877 
110 3 0 0.0633876 0.38256 0.0328613 
9 3 0 0.909124 0.492283 0.0356275 
18 3 0 0.37242 0.62864 0.0371801 
2 3 0 0.66547 0.762392 0.041569 
8 3 0 0.437727 0.885165 0.0348099 
26 3 0 0.0265382 0.0563133 0.0514375 
121 3 0 0.331576 0.38885 0.0499916 
187 3 0 0.450788 0.464754 0.054218 
155 3 0 0.735933 0.584889 0.0556858 
124 3 0 0.668911 0.618538 0.0567457 
145 3 0 0.843615 0.753599 0.0601074 
60 3 0 0.524546 0.921684 0.0554206 
97 3 0 0.534654 0.0269009 0.0739202 
119 3 0 0.208554 0.36403 0.065619 
13 3 0 0.620329 0.518145 0.073693 
46 3 0 0.00908499 0.579332 0.0736731 
162 3 0 0.981305 0.872274 0.0638593 
84 3 0 0.384135 0.92942 0.064882 
36 3 0 0.0489398 0.0303163 0.0865254 
93 3 0 0.0560136 0.152488 0.0804394 
54 3 0 0.88068 0.188064 0.0866971 
16 3 0 0.22775 0.298482 0.0890839 
108 3 0 0.420945 0.288855 0.0823669 
164 1 0 0.140375 0.869667 0.0851292 
51 3 0 0.162844 0.195299 0.0985989 
44 3 0 0.938119 0.311632 0.0927798 
94 1 0 0.976406 0.354121 0.10458 
114 3 0 0.304831 0.652339 0.0984944 
167 3 0 0.816595 0.887629 0.105506 
172 3 0 0.575699 0.144178 0.115128 
150 3 0 0.304988 0.29741 0.119035 
211 1 0 0.910871 0.363647 0.108672 
199 3 0 0.541872 0.498925 0.112761 
11 3 0 0.0513302 0.781702 0.114944 
43 3 0 0.882931 0.897728 0.10793 
98 3 0 0.437294 0.953867 0.120124 
127 3 0 0.67961 0.304144 0.13028 
142 3 0 0.52685 0.43015 0.126385 
32 3 0 0.476196 0.655184 0.133618 
160 3 0 0.929502 0.738466 0.123122 
1 1 0 0.821229 0.901895 0.127538 
198 3 0 0.479853 0.0586326 0.137619 
74 3 0 0.201474 0.12643 0.143364 
87 3 0 0.292349 0.296105 0.147584 
153 3 0 0.359848 0.631582 0.149046 
59 1 0 0.88897 0.701445 0.139088 
191 3 0 0.679892 0.763655 0.148627 
23 3 0 0.8394 0.746323 0.136457 
56 3 0 0.133669 0.609597 0.157163 
7 3 0 0.467762 0.65597 0.166165 
12 1 0 0.0345411 0.757795 0.163746 
42 3 0 0.816365 0.727736 0.164589 
137 1 0 0.0224525 0.82332 0.154654 
80 3 0 0.711602 0.822128 0.152123 
73 3 0 0.803986 0.954414 0.163012 
58 1 0 0.667422 0.312397 0.847229 
6 3 0 0.794371 0.909846 0.842441 
182 3 0 0.27893 0.701652 0.85782 
149 3 0 0.585754 0.741591 0.861442 
50 3 0 0.550928 0.210155 0.868777 
126 3 0 0.699089 0.315145 0.87874 
61 3 0 0.91671 0.963517 0.877726 
4 1 0 0.967136 0.528969 0.883963 
3 3 0 0.0217244 0.857393 0.893555 
147 1 0 0.152684 0.201491 0.898933 
134 3 0 0.226527 0.813443 0.923803 
14 3 0 0.00219179 0.970523 0.915985 
29 1 0 0.39746 0.0140398 0.929716 
27 3 0 0.502142 0.676518 0.930977 
65 3 0 0.728755 0.836974 0.934923 
53 3 0 0.415417 0.721502 0.952219 
69 3 0 0.91534 0.493417 0.957259 
173 3 0 0.229242 0.215759 0.981269 
47 3 0 0.600884 0.449528 0.984576 
25 3 0 0.946505 0.984482 0.971954 
205 3 0 0.205421 0.119146 0.998554 
161 3 0 0.719813 0.183556 0.986526 
157 3 0 0.697462 0.243145 0.993692 
34 3 0 0.516037 0.484388 0.986975 
17 3 0 0.812582 0.575374 0.995115 
99 3 0 0.582558 0.18178 0.175172 
103 3 0 0.766107 0.210409 0.174986 
15 3 0 0.576399 0.248632 0.176687 
141 1 0 0.496289 0.327083 0.171988 
10 1 0 0.0857424 0.415342 0.180177 
62 3 0 0.504352 0.577651 0.167919 
19 3 0 0.424454 0.707017 0.168731 
78 3 0 0.747062 0.902814 0.171411 
35 3 0 0.462388 0.914568 0.169912 
128 3 0 0.922145 0.941539 0.169533 
170 3 0 0.137758 0.25322 0.193991 
210 3 0 0.288698 0.452607 0.194524 
139 3 0 0.698709 0.571836 0.192093 
201 1 0 0.777343 0.797352 0.196184 
131 3 0 0.684745 0.0592192 0.199547 
224 3 0 0.311953 0.325703 0.206956 
21 3 0 0.970117 0.519969 0.20487 
189 3 0 0.744251 0.92713 0.198669 
176 3 0 0.229311 0.996979 0.209296 
5 3 0 0.768194 0.119345 0.223418 
37 3 0 0.177141 0.898395 0.213677 
218 3 0 0.251773 0.21625 0.236645 
96 1 0 0.362267 0.345566 0.230464 
95 1 0 0.682831 0.342596 0.238874 
185 3 0 0.938756 0.411975 0.23202 
196 3 0 0.188294 0.855223 0.240946 
100 1 0 0.820504 0.859335 0.230125 
184 3 0 0.453814 0.94461 0.234125 
40 3 0 0.198364 0.0671559 0.254038 
20 1 0 0.311244 0.0869329 0.242705 
81 3 0 0.585201 0.234869 0.24857 
195 3 0 0.46198 0.483404 0.242524 
55 3 0 0.014859 0.529796 0.246748 
33 3 0 0.935914 0.780548 0.247693 
71 1 0 0.0128994 0.819785 0.264111 
130 3 0 0.198151 0.0512821 0.286326 
216 3 0 0.969953 0.425371 0.285962 
30 3 0 0.369265 0.663187 0.276963 
49 3 0 0.434644 0.681979 0.285824 
115 3 0 0.128468 0.751435 0.278964 
188 3 0 0.536929 0.822164 0.278 
156 3 0 0.481202 0.891951 0.274929 
77 3 0 0.774355 0.899349 0.273196 
206 3 0 0.308423 0.929844 0.273627 
105 3 0 0.670653 0.938649 0.282705 
223 3 0 0.455664 0.117284 0.295015 
197 3 0 0.253789 0.384398 0.291424 
166 3 0 0.039442 0.433981 0.294004 
138 3 0 0.731519 0.503949 0.297557 
165 3 0 0.882555 0.541299 0.301993 
68 3 0 0.603032 0.558381 0.297999 
41 1 0 0.806849 0.700205 0.288431 
111 3 0 0.495195 0.925779 0.295243 
72 3 0 0.615449 0.223267 0.316225 
136 1 0 0.958858 0.252288 0.305866 
45 1 0 0.329179 0.375217 0.307695 
213 3 0 0.795254 0.616782 0.317319 
39 3 0 0.432116 0.988223 0.304459 
200 3 0 0.59392 0.000432128 0.319008 
133 3 0 0.762917 0.364134 0.3263 
86 3 0 0.753269 0.477009 0.32004 
63 3 0 0.733485 0.573384 0.31915 
181 3 0 0.0424812 0.688063 0.332518 
24 3 0 0.674603 0.733465 0.321707 
48 3 0 0.812515 0.777533 0.318208 
178 3 0 0.107814 0.914229 0.329027 
148 3 0 0.37261 0.0762436 0.346206 
76 3 0 0.703339 0.882658 0.346829 
70 3 0 0.257093 0.207059 0.350912 
132 3 0 0.207851 0.567243 0.352511 
112 3 0 0.526272 0.907719 0.360641 
109 3 0 0.267583 0.984088 0.357292 
83 3 0 0.351782 0.0550892 0.37834 
194 1 0 0.160711 0.185421 0.365562 
92 3 0 0.0567375 0.232058 0.366859 
217 3 0 0.0756141 0.389936 0.367134 
52 3 0 0.908618 0.525992 0.368646 
186 1 0 0.705177 0.600538 0.371033 
102 3 0 0.366578 0.812306 0.378773 
179 3 0 0.93101 0.530403 0.390331 
116 3 0 0.790242 0.684211 0.38496 
89 3 0 0.0256352 0.820447 0.385085 
91 1 0 0.946191 0.821588 0.389212 
90 3 0 0.504922 0.000368229 0.394356 
75 3 0 0.418243 0.436293 0.394154 
212 3 0 0.885258 0.479417 0.400488 
144 3 0 0.00271578 0.167399 0.415248 
183 3 0 0.579516 0.501973 0.421918 
209 3 0 0.522405 0.617434 0.423268 
107 1 0 0.0215372 0.648621 0.414462 
117 3 0 0.652051 0.895777 0.414282 
159 3 0 0.133357 0.0583384 0.428903 
171 3 0 0.856022 0.257461 0.425526 
174 3 0 0.0938768 0.519022 0.432861 
214 1 0 0.625458 0.501248 0.439044 
64 3 0 0.447394 0.546384 0.426943 
66 3 0 0.650632 0.392085 0.448159 
125 3 0 0.294411 0.454049 0.450095 
122 3 0 0.296132 0.120713 0.459022 
208 1 0 0.259488 0.569588 0.455459 
28 3 0 0.391224 0.434554 0.483768 
79 3 0 0.528054 0.860621 0.476005 
204 3 0 0.813039 0.631377 0.496089 
106 3 0 0.6936 0.0153414 0.523021 
177 3 0 0.131042 0.184109 0.522041 
220 3 0 0.0705393 0.240019 0.524218 
193 3 0 0.28122 0.296574 0.519335 
85 3 0 0.600191 0.861361 0.522293 
140 3 0 0.104175 0.156686 0.545184 
180 3 0 0.564452 0.315412 0.530889 
219 3 0 0.0689251 0.423394 0.538492 
169 3 0 0.358548 0.520118 0.535453 
67 3 0 0.306975 0.389924 0.554628 
88 3 0 0.193302 0.552892 0.546836 
207 1 0 0.0458779 0.786404 0.555006 
202 3 0 0.208446 0.257781 0.575469 
146 1 0 0.486574 0.694848 0.582493 
135 3 0 0.0474692 0.956172 0.587092 
175 3 0 0.839597 0.962088 0.583637 
104 3 0 0.465829 0.0928345 0.594717 
152 3 0 0.980811 0.108334 0.59534 
221 3 0 0.448796 0.181103 0.617183 
154 3 0 0.333624 0.500989 0.606892 
113 3 0 0.50155 0.885369 0.624202 
168 3 0 0.235687 0.335613 0.658964 
203 3 0 0.701727 0.771928 0.666298 
158 3 0 0.100604 0.0863137 0.666825 
215 3 0 0.86245 0.797723 0.680066 
222 3 0 0.417241 0.239007 0.684864 
38 3 0 0.647169 0.459898 0.694798 
151 3 0 0.545737 0.508317 0.683777 
31 3 0 0.680847 0.773154 0.695409 
22 3 0 0.503702 0.0556104 0.699544 
101 3 0 0.657725 0.391964 0.705287 
82 3 0 0.550467 0.770602 0.698126 
192 3 0 0.108356 0.136563 0.725849 
163 3 0 0.0199026 0.317011 0.772867 
190 3 0 0.291346 0.389539 0.78537 
123 3 0 0.984725 0.559396 0.805784 
264 3 1 0.723571 0.437639 0.0802274 
300 3 1 0.904651 0.642607 0.0899448 
310 3 1 0.235906 0.747878 0.0902635 
292 3 1 0.692733 0.383172 0.102966 
261 3 1 0.0912189 0.494382 0.130233 
309 3 1 0.43464 0.898879 0.133242 
304 3 1 0.314717 0.832846 0.158512 
334 3 1 0.249896 0.965314 0.83972 
331 1 1 0.655355 0.208793 0.857475 
275 3 1 0.294329 0.369053 0.852928 
330 3 1 0.122741 0.858141 0.857414 
315 1 1 0.0135745 0.315018 0.877225 
329 3 1 0.847155 0.293303 0.898064 
327 1 1 0.596966 0.715273 0.911854 
319 3 1 0.845548 0.954068 0.929179 
324 3 1 0.785217 0.587644 0.948453 
307 3 1 0.71973 0.598805 0.960194 
317 3 1 0.600463 0.20149 0.978945 
325 3 1 0.643567 0.0518265 0.98577 
288 3 1 0.0405428 0.29574 0.992187 
272 3 1 0.336498 0.795115 0.987355 
257 3 1 0.50299 0.534863 0.193902 
316 3 1 0.508611 0.468088 0.226132 
297 3 1 0.344063 0.725616 0.226255 
278 3 1 0.17049 0.967768 0.226206 
263 3 1 0.304708 0.205247 0.250794 
322 3 1 0.730317 0.847089 0.271311 
265 3 1 0.468508 0.985116 0.284144 
260 3 1 0.181444 0.764899 0.294935 
270 3 1 0.233938 0.33251 0.304156 
305 3 1 0.0683811 0.369833 0.333615 
262 1 1 0.835845 0.643032 0.348321 
238 2 1 0.954892 0.0348361 0.351925 
250 2 1 0.911597 0.07932 0.360629 
240 2 1 0.0274205 0.0924951 0.359269 
228 2 1 0.0383539 0.998039 0.361056 
234 2 1 0.92253 0.984864 0.362417 
246 2 1 0.879235 0.0293478 0.371121 
237 2 1 0.995058 0.0425229 0.36976 
249 2 1 0.951763 0.0870067 0.378464 
239 2 1 0.0675867 0.100182 0.377104 
252 2 1 0.984125 0.136979 0.367973 
226 2 1 0.00599185 0.948067 0.371548 
282 3 1 0.310392 0.961698 0.375944 
227 2 1 0.0785201 0.00572572 0.378891 
245 2 1 0.919401 0.0370345 0.388955 
236 2 1 0.0352246 0.0502096 0.387595 
256 2 1 0.908468 0.131491 0.387168 
251 2 1 0.0242912 0.144666 0.385808 
273 3 1 0.210401 0.373362 0.39329 
266 3 1 0.00885421 0.511782 0.37888 
276 3 1 0.376912 0.906729 0.391688 
230 2 1 0.930334 0.942578 0.390743 
225 2 1 0.046158 0.955754 0.389382 
233 2 1 0.962696 0.992551 0.380252 
232 2 1 0.0028626 0.000237377 0.398086 
244 2 1 0.959567 0.0447212 0.40679 
235 2 1 0.0753908 0.0578963 0.40543 
254 2 1 0.876106 0.0815184 0.397659 
248 2 1 0.991929 0.0946934 0.396299 
255 2 1 0.948634 0.139177 0.405003 
229 2 1 0.970501 0.950265 0.408578 
242 2 1 0.887039 0.987062 0.399447 
231 2 1 0.0430288 0.00792409 0.415921 
253 2 1 0.916272 0.0892051 0.415494 
247 2 1 0.0320954 0.10238 0.414134 
298 3 1 0.221392 0.208755 0.411753 
326 3 1 0.0366559 0.454121 0.410544 
303 3 1 0.0145349 0.739549 0.420845 
268 3 1 0.579635 0.906508 0.421751 
241 2 1 0.927205 0.994749 0.417281 
243 2 1 0.999733 0.052408 0.424625 
301 3 1 0.689578 0.558967 0.433511 
277 3 1 0.623719 0.619888 0.481381 
308 3 1 0.31904 0.902562 0.470272 
323 3 1 0.932568 0.283862 0.51266 
318 3 1 0.243452 0.488718 0.513974 
313 3 1 0.651526 0.504746 0.514643 
320 3 1 0.8617 0.555632 0.537723 
274 3 1 0.855336 0.64764 0.531491 
296 3 1 0.303922 0.0191699 0.560115 
299 3 1 0.518669 0.180423 0.562534 
287 3 1 0.239855 0.590734 0.561632 
290 3 1 0.560393 0.768777 0.566261 
289 3 1 0.278054 0.279819 0.583428 
291 3 1 0.960799 0.725883 0.613397 
294 3 1 0.210204 0.778882 0.606559 
284 3 1 0.853304 0.941711 0.621065 
332 3 1 0.895371 0.886228 0.632516 
271 3 1 0.797677 0.911435 0.631743 
333 3 1 0.285244 0.240424 0.643892 
259 1 1 0.180255 0.344419 0.642372 
269 3 1 0.7775 0.434072 0.637226 
314 3 1 0.893332 0.320502 0.65856 
267 3 1 0.344341 0.640743 0.653728 
283 3 1 0.376038 0.607989 0.692984 
280 3 1 0.613891 0.649332 0.682952 
328 3 1 0.433139 0.0139259 0.707918 
293 3 1 0.968307 0.0387025 0.70031 
306 3 1 0.292683 0.246109 0.706937 
286 3 1 0.722668 0.684379 0.715145 
321 3 1 0.451311 0.160938 0.751347 
285 3 1 0.270339 0.343647 0.748524 
279 1 1 0.825298 0.3738 0.747494 
311 3 1 0.848689 0.540661 0.75202 
258 3 1 0.178915 0.995938 0.751565 
295 3 1 0.227266 0.0047111 0.766835 
281 3 1 0.503696 0.0196108 0.799022 
302 3 1 0.509538 0.568544 0.814474 
312 3 1 0.535387 0.723488 0.827175 
645 3 2 0.0669749 0.0542742 0.00439028 
671 3 2 0.799316 0.105987 0.00756154 
506 3 2 0.192744 0.401104 0.0030111 
374 3 2 0.858969 0.425169 0.0147638 
525 3 2 0.7339 0.461985 0.00764424 
463 1 2 0.620813 0.517744 0.00133589 
593 1 2 0.140138 0.587831 0.00200072 
555 3 2 0.496483 0.56737 0.00028273 
542 3 2 0.1576 0.662415 0.00392542 
610 3 2 0.604143 0.647046 0.00951392 
643 3 2 0.263249 0.771674 0.013664 
518 3 2 0.321297 0.804674 0.00942196 
406 3 2 0.0423444 0.871191 0.0081185 
576 3 2 0.294109 0.864249 0.00409954 
594 3 2 0.0584726 0.499356 0.0265438 
760 1 2 0.907772 0.598334 0.0181571 
634 3 2 0.137466 0.829862 0.029728 
558 3 2 0.0594597 0.911513 0.0251366 
591 3 2 0.291193 0.91543 0.0186945 
551 3 2 0.369874 0.926097 0.0250891 
637 3 2 0.97372 0.505814 0.0405406 
670 3 2 0.53584 0.712427 0.0326068 
494 3 2 0.767165 0.698318 0.0308561 
493 3 2 0.98308 0.721764 0.0396747 
686 3 2 0.77343 0.822629 0.0317145 
579 1 2 0.699185 0.87202 0.0393083 
627 3 2 0.266502 0.944617 0.044077 
620 3 2 0.805799 0.3532 0.0476763 
497 3 2 0.486788 0.657667 0.0492588 
589 3 2 0.185272 0.821761 0.0549476 
490 3 2 0.287699 0.845728 0.04876 
519 3 2 0.420824 0.842761 0.0512525 
696 3 2 0.0764963 0.911101 0.0481094 
592 3 2 0.959101 0.933329 0.0580976 
708 3 2 0.200164 0.069043 0.0681584 
532 3 2 0.0249135 0.0956701 0.0743266 
409 3 2 0.0384838 0.23638 0.0626889 
694 3 2 0.00854134 0.296502 0.0637239 
703 3 2 0.0439225 0.346538 0.0732789 
522 3 2 0.852135 0.360816 0.0685757 
672 3 2 0.107901 0.453546 0.0650581 
638 3 2 0.249724 0.552739 0.0606473 
603 3 2 0.474211 0.583227 0.0607546 
666 3 2 0.427419 0.613828 0.0744513 
705 3 2 0.950863 0.641593 0.0655819 
777 1 2 0.341867 0.814969 0.0725274 
530 3 2 0.542375 0.859711 0.062136 
724 3 2 0.41836 0.986606 0.0697009 
524 3 2 0.423158 0.221915 0.0805047 
568 3 2 0.673731 0.197372 0.0846828 
545 1 2 0.821166 0.29875 0.0813562 
553 3 2 0.232364 0.425877 0.0781676 
641 3 2 0.46091 0.469537 0.0763975 
722 3 2 0.96444 0.496719 0.0819993 
371 3 2 0.90399 0.519933 0.0758537 
716 3 2 0.152601 0.6246 0.0791292 
540 3 2 0.00420434 0.722845 0.0789112 
616 3 2 0.184943 0.714151 0.0809684 
548 1 2 0.69796 0.702455 0.0908529 
600 3 2 0.436974 0.793323 0.08746 
665 3 2 0.774448 0.923581 0.0901328 
459 3 2 0.123378 0.132686 0.0976189 
618 3 2 0.968604 0.140239 0.1057 
556 3 2 0.470508 0.246686 0.0940792 
702 3 2 0.476253 0.311291 0.0999248 
675 3 2 0.636655 0.349696 0.0929593 
662 1 2 0.936382 0.45051 0.101625 
758 3 2 0.985687 0.548241 0.0946585 
562 3 2 0.558048 0.592842 0.103563 
755 3 2 0.186362 0.660444 0.0945309 
639 3 2 0.380693 0.714357 0.0983675 
780 3 2 0.84009 0.734397 0.097089 
729 3 2 0.309545 0.817132 0.0922309 
655 3 2 0.881077 0.0675463 0.120724 
554 3 2 0.58119 0.338581 0.106449 
507 3 2 0.61065 0.769889 0.118124 
615 3 2 0.125091 0.885656 0.106458 
602 3 2 0.937668 0.0220745 0.12215 
461 3 2 0.962739 0.0778011 0.132547 
741 3 2 0.682519 0.171616 0.125744 
527 3 2 0.236175 0.299332 0.135156 
396 3 2 0.150218 0.52741 0.127006 
526 3 2 0.604268 0.679806 0.129115 
714 3 2 0.283092 0.74472 0.125854 
416 3 2 0.570157 0.805165 0.132843 
691 3 2 0.869921 0.85398 0.124799 
631 3 2 0.031921 0.90495 0.13274 
630 3 2 0.537146 0.0281445 0.149317 
659 3 2 0.448133 0.127027 0.145454 
728 3 2 0.317654 0.22557 0.13857 
653 3 2 0.829865 0.208236 0.137697 
644 3 2 0.470921 0.281354 0.142951 
746 3 2 0.634386 0.273354 0.143314 
668 3 2 0.742421 0.267231 0.166123 
632 3 2 0.466643 0.342243 0.152367 
661 3 2 0.0100168 0.539306 0.153067 
677 1 2 0.37355 0.557587 0.166373 
744 3 2 0.558875 0.61588 0.164032 
654 3 2 0.57749 0.7231 0.153316 
664 3 2 0.57098 0.797893 0.155137 
739 3 2 0.0656039 0.965894 0.165353 
414 3 2 0.101577 0.0393466 0.839386 
505 3 2 0.504672 0.0877504 0.84229 
473 3 2 0.509932 0.532159 0.833553 
581 3 2 0.909596 0.653885 0.837776 
466 1 2 0.453588 0.973523 0.848371 
481 3 2 0.943485 0.977782 0.847631 
582 3 2 0.636979 0.142475 0.852485 
368 3 2 0.745704 0.633077 0.848861 
411 3 2 0.451209 0.735466 0.857982 
476 1 2 0.0697977 0.943302 0.851581 
731 3 2 0.485446 0.558582 0.875779 
529 3 2 0.117214 0.162051 0.884303 
491 3 2 0.2528 0.363611 0.88331 
552 3 2 0.448786 0.644421 0.8817 
605 3 2 0.922812 0.639446 0.890607 
543 3 2 0.62664 0.832531 0.886155 
528 3 2 0.527625 0.990248 0.892807 
496 3 2 0.735094 0.973086 0.878963 
389 3 2 0.591882 4.43383e-05 0.898674 
688 3 2 0.517633 0.0582044 0.906883 
657 1 2 0.544211 0.42319 0.895004 
508 3 2 0.047762 0.45471 0.898695 
570 1 2 0.469032 0.524041 0.89442 
557 3 2 0.526785 0.518045 0.905748 
468 3 2 0.881988 0.671966 0.904675 
546 3 2 0.507696 0.727425 0.896047 
480 3 2 0.873414 0.918254 0.894922 
417 3 2 0.422875 0.973825 0.906011 
484 3 2 0.830446 0.963547 0.907568 
438 3 2 0.882846 0.00448826 0.921087 
609 3 2 0.617435 0.179857 0.909598 
489 3 2 0.680227 0.17364 0.917477 
424 3 2 0.736644 0.209174 0.920508 
747 1 2 0.799734 0.230138 0.916895 
561 3 2 0.236512 0.457909 0.912034 
483 1 2 0.370618 0.628416 0.914003 
578 1 2 0.905166 0.728058 0.914585 
512 3 2 0.742228 0.841766 0.91173 
567 3 2 0.387023 0.950457 0.92343 
486 3 2 0.474955 0.989367 0.920519 
384 3 2 0.496486 0.0798333 0.926922 
433 3 2 0.555445 0.0478459 0.929082 
386 3 2 0.725158 0.14394 0.931807 
573 3 2 0.395495 0.254479 0.925488 
590 1 2 0.581431 0.261004 0.92902 
585 3 2 0.12318 0.445489 0.933553 
495 1 2 0.0236018 0.558909 0.92739 
723 3 2 0.78332 0.804504 0.924384 
619 3 2 0.0193632 0.920773 0.930025 
435 1 2 0.696064 0.913629 0.937293 
583 3 2 0.557598 0.0161755 0.953815 
652 3 2 0.815418 0.12693 0.947598 
710 3 2 0.507996 0.174125 0.944697 
503 3 2 0.107882 0.496002 0.947812 
682 3 2 0.74456 0.536273 0.953739 
676 3 2 0.115841 0.611544 0.940948 
440 3 2 0.545233 0.672374 0.949219 
601 3 2 0.632386 0.685402 0.953997 
674 3 2 0.951469 0.684073 0.945168 
648 1 2 0.868109 0.758231 0.952912 
695 3 2 0.691339 0.799339 0.94936 
372 3 2 0.0794167 0.931484 0.939432 
586 3 2 0.222945 0.0536607 0.9559 
769 3 2 0.120632 0.108075 0.963488 
692 3 2 0.565702 0.352811 0.959477 
569 3 2 0.787781 0.341243 0.956504 
623 3 2 0.258169 0.399657 0.963557 
437 3 2 0.525577 0.498856 0.962167 
511 3 2 0.558057 0.64679 0.969513 
629 3 2 0.77208 0.706744 0.966513 
721 1 2 0.062719 0.796063 0.960867 
622 3 2 0.318121 0.950999 0.960399 
523 1 2 0.157699 0.977972 0.968648 
499 1 2 0.769981 0.181636 0.970993 
640 1 2 0.168543 0.191178 0.970771 
509 3 2 0.99416 0.341643 0.981951 
487 3 2 0.960671 0.143253 0.998586 
598 1 2 0.115634 0.274513 0.989553 
667 3 2 0.0168478 0.396689 0.993693 
607 3 2 0.141397 0.392216 0.988638 
478 3 2 0.260035 0.365643 0.994433 
564 3 2 0.614619 0.369063 0.995516 
520 3 2 0.605306 0.561944 0.985269 
709 3 2 0.880392 0.57252 0.999461 
442 3 2 0.639162 0.61591 0.992524 
453 3 2 0.501308 0.638131 0.998591 
588 1 2 0.181759 0.720648 0.995858 
624 3 2 0.795705 0.712679 0.987826 
485 3 2 0.997394 0.716519 0.986606 
606 1 2 0.256225 0.729595 0.995974 
419 3 2 0.45811 0.763739 0.996456 
580 3 2 0.840095 0.832594 0.992122 
572 3 2 0.37896 0.908458 0.985281 
608 3 2 0.695286 0.070084 0.177307 
732 1 2 0.363309 0.111418 0.175563 
779 1 2 0.470347 0.248398 0.180323 
673 3 2 0.233751 0.335911 0.167229 
684 1 2 0.0697769 0.470832 0.1683 
533 3 2 0.877577 0.647119 0.180123 
751 1 2 0.125954 0.938114 0.168976 
761 3 2 0.629283 0.225205 0.188226 
449 3 2 0.668136 0.625785 0.183395 
550 3 2 0.490143 0.668982 0.186955 
369 3 2 0.672041 0.792195 0.192113 
577 3 2 0.902181 0.890274 0.182539 
488 3 2 0.590726 0.990213 0.185213 
754 3 2 0.0129958 0.126667 0.204229 
742 3 2 0.308646 0.0962638 0.200289 
636 1 2 0.0434772 0.247959 0.203391 
693 1 2 0.770729 0.423963 0.210564 
782 3 2 0.853849 0.553216 0.198958 
612 3 2 0.117815 0.851323 0.206503 
647 3 2 0.57216 0.073158 0.219768 
704 3 2 0.429547 0.0926665 0.22647 
773 3 2 0.330234 0.141436 0.216786 
765 3 2 0.422823 0.245005 0.222754 
651 1 2 0.760616 0.314774 0.220097 
517 3 2 0.98495 0.42964 0.21348 
531 3 2 0.0934289 0.475822 0.219476 
748 3 2 0.369146 0.458008 0.219547 
439 3 2 0.76664 0.491446 0.213281 
701 3 2 0.947157 0.714354 0.212291 
597 3 2 0.339604 0.792628 0.220868 
376 3 2 0.73315 0.986289 0.227086 
642 3 2 0.619125 0.131718 0.232137 
633 3 2 0.677486 0.103533 0.238909 
621 3 2 0.444202 0.220085 0.242365 
614 3 2 0.114406 0.314674 0.237532 
727 3 2 0.161838 0.362949 0.235114 
783 3 2 0.969708 0.714679 0.242414 
733 1 2 0.0818908 0.0726081 0.243193 
713 3 2 0.133466 0.04854 0.255467 
566 3 2 0.518303 0.0550571 0.255507 
595 3 2 0.263383 0.117934 0.255093 
690 1 2 0.18637 0.429393 0.245159 
587 3 2 0.630658 0.10918 0.257703 
626 1 2 0.836979 0.0965925 0.26692 
395 3 2 0.462429 0.159246 0.262568 
680 3 2 0.257606 0.79834 0.26028 
699 3 2 0.40736 0.947388 0.271932 
745 3 2 0.222816 0.965994 0.271955 
734 3 2 0.394583 0.449164 0.273358 
407 3 2 0.832735 0.468743 0.287292 
635 3 2 0.128967 0.507845 0.274194 
774 3 2 0.15757 0.630696 0.286172 
628 3 2 0.3621 0.903466 0.28702 
764 3 2 0.239588 0.0239887 0.302481 
730 3 2 0.208116 0.254544 0.293413 
740 3 2 0.77201 0.447538 0.294187 
563 3 2 0.728869 0.605465 0.297015 
388 3 2 0.565318 0.719073 0.293428 
767 3 2 0.541508 0.87449 0.292405 
669 3 2 0.520393 0.12305 0.307943 
514 3 2 0.366456 0.672373 0.303594 
380 3 2 0.453568 0.678961 0.308894 
539 3 2 0.700758 0.831544 0.304898 
759 3 2 0.907629 0.874179 0.303384 
515 3 2 0.32783 0.91661 0.317521 
656 3 2 0.545761 0.191844 0.32818 
501 3 2 0.489473 0.504399 0.328751 
717 1 2 0.82843 0.553985 0.32278 
679 3 2 0.846559 0.661003 0.320418 
611 3 2 0.617948 0.693878 0.320951 
715 1 2 0.0520513 0.951119 0.327283 
687 3 2 0.126617 0.850806 0.345227 
711 3 2 0.343586 0.867527 0.346532 
663 3 2 0.616012 0.882743 0.339042 
596 3 2 0.441872 0.932844 0.335969 
400 3 2 0.453795 0.244644 0.357564 
617 3 2 0.718141 0.375935 0.36147 
683 3 2 0.609906 0.515237 0.360608 
549 3 2 0.333188 0.564984 0.358163 
726 3 2 0.677836 0.658109 0.360322 
385 1 2 0.97518 0.693804 0.362605 
434 3 2 0.425753 0.673862 0.374859 
771 3 2 0.798064 0.81745 0.372394 
678 3 2 0.94423 0.856957 0.370147 
500 1 2 0.384385 0.870521 0.367209 
737 3 2 0.71259 0.960269 0.373717 
536 3 2 0.816594 0.253473 0.393835 
752 3 2 0.10215 0.664203 0.385233 
720 1 2 0.717879 0.647255 0.388237 
448 3 2 0.318272 0.865484 0.390771 
762 3 2 0.228703 0.306766 0.394481 
458 3 2 0.5568 0.374935 0.416318 
387 3 2 0.915501 0.42314 0.412494 
697 3 2 0.95141 0.486051 0.415901 
571 3 2 0.82282 0.520444 0.421412 
381 3 2 0.0954618 0.655005 0.412738 
698 3 2 0.684548 0.160088 0.438871 
401 3 2 0.154036 0.422074 0.428642 
393 3 2 0.992774 0.645847 0.434647 
719 3 2 0.406794 0.860383 0.433085 
375 3 2 0.63724 0.844295 0.435023 
725 3 2 0.561176 0.281191 0.440223 
408 3 2 0.571349 0.382799 0.444039 
477 1 2 0.690013 0.984991 0.441151 
753 3 2 0.901381 0.97279 0.439632 
429 3 2 0.656737 0.00865153 0.461358 
455 3 2 0.403624 0.483491 0.458798 
772 3 2 0.461062 0.608638 0.468324 
776 1 2 0.604787 0.256785 0.480103 
565 3 2 0.564074 0.316088 0.470883 
743 3 2 0.962798 0.31786 0.471831 
766 3 2 0.436378 0.56639 0.483817 
379 3 2 0.625849 0.0991067 0.49101 
646 3 2 0.239563 0.413789 0.504327 
367 3 2 0.851646 0.500637 0.501426 
427 3 2 0.549071 0.616811 0.511764 
398 1 2 0.613504 0.607058 0.503346 
689 3 2 0.533463 0.754172 0.513206 
681 3 2 0.374643 0.975664 0.506344 
707 3 2 0.165796 0.0341604 0.522936 
770 3 2 0.261493 0.176663 0.525002 
465 3 2 0.492453 0.176301 0.519996 
763 3 2 0.410699 0.235514 0.516865 
736 1 2 0.903931 0.439575 0.52399 
738 3 2 0.452326 0.0758482 0.540371 
370 3 2 0.279121 0.267863 0.540804 
768 1 2 0.512135 0.40197 0.544643 
718 3 2 0.629711 0.553505 0.531553 
415 3 2 0.448419 0.767356 0.535179 
450 3 2 0.381394 0.887503 0.536825 
706 3 2 0.773201 0.0168661 0.555151 
373 3 2 0.425903 0.324448 0.550543 
404 3 2 0.696247 0.800281 0.554038 
749 3 2 0.656446 0.177546 0.568056 
397 3 2 0.0488825 0.592527 0.57201 
443 3 2 0.0674712 0.742131 0.573416 
472 3 2 0.384211 0.990275 0.570957 
418 3 2 0.675402 0.183122 0.592108 
700 3 2 0.643846 0.682914 0.598955 
757 3 2 0.115173 0.928167 0.592468 
574 3 2 0.810277 0.167388 0.613175 
750 3 2 0.146723 0.400811 0.618241 
599 3 2 0.137493 0.999718 0.610563 
345 2 2 0.860752 0.0265678 0.636196 
403 3 2 0.89989 0.274605 0.630701 
405 1 2 0.314599 0.539975 0.635975 
775 1 2 0.0886885 0.0176569 0.648892 
335 2 2 0.752472 0.0287191 0.650634 
436 3 2 0.0207378 0.0510881 0.642001 
337 2 2 0.793815 0.0817284 0.649307 
447 3 2 0.619209 0.172277 0.649982 
441 3 2 0.764835 0.219067 0.64764 
479 3 2 0.931076 0.77627 0.647934 
353 2 2 0.869988 0.935884 0.645393 
341 2 2 0.819409 0.973558 0.637523 
357 2 2 0.911331 0.988893 0.644066 
346 2 2 0.844395 0.0440539 0.657177 
358 2 2 0.894974 0.00637939 0.665047 
541 3 2 0.505094 0.0521752 0.663878 
361 2 2 0.936318 0.0593887 0.663719 
349 2 2 0.885738 0.0970632 0.655849 
650 3 2 0.830879 0.14828 0.657801 
778 1 2 0.415728 0.473263 0.663425 
613 3 2 0.292461 0.570331 0.656094 
735 3 2 0.835111 0.547562 0.657362 
452 3 2 0.886709 0.856342 0.663378 
339 2 2 0.761708 0.938035 0.659832 
354 2 2 0.853631 0.95337 0.666374 
660 3 2 0.95931 0.928531 0.651987 
342 2 2 0.803052 0.991045 0.658504 
343 2 2 0.786695 0.00853077 0.679485 
336 2 2 0.736115 0.0462053 0.671615 
347 2 2 0.828038 0.0615401 0.678158 
338 2 2 0.777458 0.0992146 0.670288 
350 2 2 0.869381 0.114549 0.67683 
460 1 2 0.557856 0.17038 0.673075 
521 3 2 0.513347 0.419804 0.672358 
390 3 2 0.526044 0.908792 0.678541 
351 2 2 0.812288 0.900361 0.667702 
363 2 2 0.904211 0.915696 0.674245 
482 3 2 0.0466144 0.959063 0.679421 
340 2 2 0.745351 0.955521 0.680813 
365 2 2 0.945554 0.968705 0.672917 
359 2 2 0.878618 0.0238655 0.686028 
362 2 2 0.919961 0.0768748 0.6847 
352 2 2 0.795931 0.917847 0.688683 
364 2 2 0.887854 0.933182 0.695226 
355 2 2 0.837274 0.970856 0.687355 
366 2 2 0.929197 0.986191 0.693898 
344 2 2 0.770338 0.0260169 0.700466 
360 2 2 0.862261 0.0413517 0.707009 
348 2 2 0.811681 0.0790262 0.699139 
475 3 2 0.913093 0.0873936 0.708202 
535 3 2 0.0275417 0.259388 0.700791 
537 3 2 0.531384 0.376125 0.699994 
432 3 2 0.24192 0.610367 0.697623 
467 3 2 0.578229 0.639079 0.701659 
383 3 2 0.0226254 0.757438 0.710409 
394 3 2 0.821168 0.858431 0.697497 
356 2 2 0.820917 0.988342 0.708336 
492 3 2 0.458123 0.0886589 0.713018 
446 3 2 0.191913 0.475486 0.726865 
584 3 2 0.690846 0.746616 0.716955 
412 3 2 0.929009 0.932236 0.715339 
625 3 2 0.447403 0.10802 0.735679 
516 3 2 0.154003 0.219405 0.734468 
658 3 2 0.345786 0.223915 0.741266 
470 3 2 0.498357 0.608756 0.735111 
510 1 2 0.750338 0.705972 0.739308 
425 3 2 0.476894 0.73832 0.737555 
423 3 2 0.813651 0.968689 0.735878 
712 3 2 0.414561 0.0600481 0.750294 
559 1 2 0.988328 0.169806 0.757013 
421 3 2 0.33258 0.296879 0.754627 
444 3 2 0.752773 0.299349 0.756265 
456 3 2 0.203816 0.35215 0.753106 
391 3 2 0.643184 0.430308 0.749187 
685 1 2 0.0265439 0.50552 0.751474 
649 1 2 0.834998 0.613841 0.747825 
502 3 2 0.866729 0.695015 0.757303 
547 3 2 0.529393 0.882486 0.747468 
471 3 2 0.988032 0.116304 0.7708 
604 3 2 0.849693 0.317546 0.757865 
474 3 2 0.64885 0.32687 0.768076 
513 1 2 0.0828408 0.416442 0.76491 
462 3 2 0.321073 0.472062 0.767753 
451 3 2 0.121325 0.547782 0.770843 
378 3 2 0.368672 0.594888 0.772462 
431 3 2 0.614451 0.06289 0.776962 
426 3 2 0.00733557 0.181835 0.780541 
464 3 2 0.237164 0.584127 0.783534 
544 3 2 0.546191 0.810796 0.774899 
402 3 2 0.658938 0.903265 0.786142 
781 3 2 0.333732 0.924559 0.774261 
457 3 2 0.577129 0.914307 0.784561 
428 3 2 0.72588 0.910115 0.787007 
392 3 2 0.14682 0.988144 0.775251 
756 3 2 0.5772 0.0383201 0.793789 
538 3 2 0.665633 0.102114 0.790967 
413 3 2 0.235572 0.22115 0.789823 
575 3 2 0.0730275 0.263354 0.799046 
534 3 2 0.288894 0.54093 0.794444 
445 3 2 0.828019 0.682462 0.798528 
420 3 2 0.800995 0.753847 0.801827 
410 3 2 0.475449 0.835051 0.789314 
382 3 2 0.438308 0.135775 0.809008 
454 3 2 0.39297 0.364673 0.807597 
498 3 2 0.7356 0.599247 0.810173 
504 3 2 0.415464 0.169794 0.827626 
560 1 2 0.251372 0.390288 0.829453 
469 3 2 0.360103 0.402084 0.829619 
399 3 2 0.469122 0.500052 0.818638 
430 3 2 0.272006 0.623379 0.822003 
422 3 2 0.711748 0.602305 0.831076 
377 3 2 0.960791 0.872147 0.819163 
1029 3 3 0.38903 0.676227 0.0212437 
983 3 3 0.973152 0.963075 0.0166002 
937 3 3 0.288191 0.34251 0.0424478 
839 3 3 0.694534 0.537103 0.0334249 
834 3 3 0.160408 0.411604 0.0674335 
966 1 3 0.558666 0.551072 0.0672339 
959 3 3 0.373194 0.636396 0.0633774 
824 3 3 0.822732 0.812222 0.0687205 
980 3 3 0.04247 0.225913 0.0849085 
1021 1 3 0.652512 0.285515 0.0882122 
987 3 3 0.64394 0.798779 0.0806083 
890 3 3 0.00236755 0.485196 0.100219 
958 3 3 0.506367 0.701004 0.0970719 
1023 3 3 0.796316 0.785174 0.0944005 
990 3 3 0.645151 0.258129 0.110891 
1025 3 3 0.0390843 0.460652 0.117157 
1020 3 3 0.259587 0.589557 0.115104 
853 3 3 0.446343 0.170718 0.128329 
962 1 3 0.560543 0.737528 0.128434 
816 1 3 0.414171 0.0686416 0.141506 
852 3 3 0.255312 0.737332 0.147427 
925 3 3 0.778166 0.42235 0.163523 
1003 3 3 0.510149 0.599318 0.835143 
971 3 3 0.853033 0.603586 0.84465 
855 3 3 0.189018 0.934084 0.838645 
938 3 3 0.293392 0.912462 0.833686 
875 3 3 0.0758506 0.00896369 0.85846 
1026 3 3 0.187778 0.534903 0.863183 
997 3 3 0.785841 0.51523 0.857566 
1030 1 3 0.890389 0.577007 0.861042 
902 3 3 0.238845 0.755917 0.855033 
969 1 3 0.531244 0.11514 0.86844 
1002 3 3 0.608736 0.17564 0.86971 
906 1 3 0.402026 0.364002 0.866363 
946 3 3 0.850097 0.950255 0.87658 
1012 3 3 0.887575 0.261277 0.879028 
975 3 3 0.415855 0.348456 0.893169 
985 3 3 0.00168576 0.387886 0.889614 
953 3 3 0.458445 0.962361 0.887099 
1005 3 3 0.310904 0.236566 0.900324 
968 3 3 0.140457 0.524828 0.906052 
874 3 3 0.829988 0.780666 0.910301 
1007 1 3 0.570565 0.82589 0.919067 
964 1 3 0.281433 0.0124796 0.930375 
979 1 3 0.623435 0.442644 0.937791 
1031 3 3 0.143701 0.913445 0.936761 