LAMMPS data file via write_data, version 30 Jul 2016, timestep = 1000000

2080 atoms
8 atom types

0.0000000000000000e+00 4.0000000000000000e+01 xlo xhi
0.0000000000000000e+00 4.0000000000000000e+01 ylo yhi
0.0000000000000000e+00 1.0000000000000000e+02 zlo zhi

Masses

1 3.896
2 5.36
3 1058.08
4 8.378
5 8.378
6 8.378
7 8.378
8 8.378

Atoms # meso-molecular

1 2 4 2.2559723595316457e+00 1.0000000000000000e+00 4.2000000000000000e+03 0.0000000000000000e+00 0.0000000000000000e+00 2.5000000000000000e+00 
2 2 4 2.2559723595316457e+00 1.0000000000000000e+00 4.2000000000000000e+03 0.0000000000000000e+00 2.0000000000000000e+00 2.5000000000000000e+00 
21 2 4 2.2559723595316457e+00 1.0000000000000000e+00 4.2000000000000000e+03 2.0000000000000000e+00 0.0000000000000000e+00 2.5000000000000000e+00 
22 2 4 2.2559723595316457e+00 1.0000000000000000e+00 4.2000000000000000e+03 2.0000000000000000e+00 2.0000000000000000e+00 2.5000000000000000e+00 
41 2 4 2.2559723595316457e+00 1.0000000000000000e+00 4.2000000000000000e+03 4.0000000000000000e+00 0.0000000000000000e+00 2.5000000000000000e+00 
42 2 4 2.2559723595316457e+00 1.0000000000000000e+00 4.2000000000000000e+03 4.0000000000000000e+00 2.0000000000000000e+00 2.5000000000000000e+00 
61 2 4 2.2559723595316457e+00 1.0000000000000000e+00 4.2000000000000000e+03 6.0000000000000000e+00 0.0000000000000000e+00 2.5000000000000000e+00 
62 2 4 2.2559723595316457e+00 1.0000000000000000e+00 4.2000000000000000e+03 6.0000000000000000e+00 2.0000000000000000e+00 2.5000000000000000e+00 
81 2 4 2.2559723595316457e+00 1.0000000000000000e+00 4.2000000000000000e+03 8.0000000000000000e+00 0.0000000000000000e+00 2.5000000000000000e+00 
82 2 4 2.2559723595316457e+00 1.0000000000000000e+00 4.2000000000000000e+03 8.0000000000000000e+00 2.0000000000000000e+00 2.5000000000000000e+00 
101 2 4 2.2559723595316457e+00 1.0000000000000000e+00 4.2000000000000000e+03 1.0000000000000000e+01 0.0000000000000000e+00 2.5000000000000000e+00 
102 2 4 2.2559723595316457e+00 1.0000000000000000e+00 4.2000000000000000e+03 1.0000000000000000e+01 2.0000000000000000e+00 2.5000000000000000e+00 
121 2 4 2.2559723595318406e+00 1.0000260415495743e+00 4.2000000000000000e+03 1.2000000000000000e+01 0.0000000000000000e+00 2.5000000000000000e+00 
122 2 4 2.2559723595316457e+00 1.0000000532073701e+00 4.2000000000000000e+03 1.2000000000000000e+01 2.0000000000000000e+00 2.5000000000000000e+00 
141 2 4 2.2559723595316457e+00 1.0000000347249549e+00 4.2000000000000000e+03 1.4000000000000000e+01 0.0000000000000000e+00 2.5000000000000000e+00 
142 2 4 2.2559723595316457e+00 1.0000003663765611e+00 4.2000000000000000e+03 1.4000000000000000e+01 2.0000000000000000e+00 2.5000000000000000e+00 
161 2 4 2.2559723595316457e+00 1.0000004873171031e+00 4.2000000000000000e+03 1.6000000000000000e+01 0.0000000000000000e+00 2.5000000000000000e+00 
162 2 4 2.2559723595316457e+00 1.0000004873977810e+00 4.2000000000000000e+03 1.6000000000000000e+01 2.0000000000000000e+00 2.5000000000000000e+00 
181 2 4 2.2559723595316457e+00 1.0000001442934781e+00 4.2000000000000000e+03 1.8000000000000000e+01 0.0000000000000000e+00 2.5000000000000000e+00 
182 2 4 2.2559723595316457e+00 1.0000004340870565e+00 4.2000000000000000e+03 1.8000000000000000e+01 2.0000000000000000e+00 2.5000000000000000e+00 
3 2 4 2.2559723595316457e+00 1.0000000000000000e+00 4.2000000000000000e+03 0.0000000000000000e+00 4.0000000000000000e+00 2.5000000000000000e+00 
4 2 4 2.2559723595316457e+00 1.0000000000000000e+00 4.2000000000000000e+03 0.0000000000000000e+00 6.0000000000000000e+00 2.5000000000000000e+00 
23 2 4 2.2559723595316457e+00 1.0000000000000000e+00 4.2000000000000000e+03 2.0000000000000000e+00 4.0000000000000000e+00 2.5000000000000000e+00 
24 2 4 2.2559723595316457e+00 1.0000000000000000e+00 4.2000000000000000e+03 2.0000000000000000e+00 6.0000000000000000e+00 2.5000000000000000e+00 
43 2 4 2.2559723595316457e+00 1.0000000000000000e+00 4.2000000000000000e+03 4.0000000000000000e+00 4.0000000000000000e+00 2.5000000000000000e+00 
44 2 4 2.2559723595316457e+00 1.0000000000000000e+00 4.2000000000000000e+03 4.0000000000000000e+00 6.0000000000000000e+00 2.5000000000000000e+00 
63 2 4 2.2559723595316457e+00 1.0000000000000000e+00 4.2000000000000000e+03 6.0000000000000000e+00 4.0000000000000000e+00 2.5000000000000000e+00 
64 2 4 2.2559723595316457e+00 1.0000000000000000e+00 4.2000000000000000e+03 6.0000000000000000e+00 6.0000000000000000e+00 2.5000000000000000e+00 
83 2 4 2.2559723595316457e+00 1.0000000000000000e+00 4.2000000000000000e+03 8.0000000000000000e+00 4.0000000000000000e+00 2.5000000000000000e+00 
84 2 4 2.2559723595316457e+00 1.0000000000000000e+00 4.2000000000000000e+03 8.0000000000000000e+00 6.0000000000000000e+00 2.5000000000000000e+00 
103 2 4 2.2559723595316457e+00 1.0000000000000000e+00 4.2000000000000000e+03 1.0000000000000000e+01 4.0000000000000000e+00 2.5000000000000000e+00 
104 2 4 2.2559723595316457e+00 1.0000000000000000e+00 4.2000000000000000e+03 1.0000000000000000e+01 6.0000000000000000e+00 2.5000000000000000e+00 
123 2 4 2.2559723595316483e+00 1.0000010971820075e+00 4.2000000000000000e+03 1.2000000000000000e+01 4.0000000000000000e+00 2.5000000000000000e+00 
124 2 4 2.2559723595316457e+00 1.0000000000000000e+00 4.2000000000000000e+03 1.2000000000000000e+01 6.0000000000000000e+00 2.5000000000000000e+00 
143 2 4 2.2559723595316457e+00 1.0000005435603381e+00 4.2000000000000000e+03 1.4000000000000000e+01 4.0000000000000000e+00 2.5000000000000000e+00 
144 2 4 2.2559723595316457e+00 1.0000024189890335e+00 4.2000000000000000e+03 1.4000000000000000e+01 6.0000000000000000e+00 2.5000000000000000e+00 
163 2 4 2.2559723595316457e+00 1.0000011102943080e+00 4.2000000000000000e+03 1.6000000000000000e+01 4.0000000000000000e+00 2.5000000000000000e+00 
164 2 4 2.2559723595316457e+00 1.0000032202030962e+00 4.2000000000000000e+03 1.6000000000000000e+01 6.0000000000000000e+00 2.5000000000000000e+00 
183 2 4 2.2559723595316457e+00 1.0000005568985311e+00 4.2000000000000000e+03 1.8000000000000000e+01 4.0000000000000000e+00 2.5000000000000000e+00 
184 2 4 2.2559723595316457e+00 1.0000018813396174e+00 4.2000000000000000e+03 1.8000000000000000e+01 6.0000000000000000e+00 2.5000000000000000e+00 
5 2 4 2.2559723595316457e+00 1.0000000000000000e+00 4.2000000000000000e+03 0.0000000000000000e+00 8.0000000000000000e+00 2.5000000000000000e+00 
6 2 4 2.2559723595316457e+00 1.0000000000000000e+00 4.2000000000000000e+03 0.0000000000000000e+00 1.0000000000000000e+01 2.5000000000000000e+00 
25 2 4 2.2559723595316457e+00 1.0000000000000000e+00 4.2000000000000000e+03 2.0000000000000000e+00 8.0000000000000000e+00 2.5000000000000000e+00 
26 2 4 2.2559723595316457e+00 1.0000000000000000e+00 4.2000000000000000e+03 2.0000000000000000e+00 1.0000000000000000e+01 2.5000000000000000e+00 
45 2 4 2.2559723595316457e+00 1.0000000000000000e+00 4.2000000000000000e+03 4.0000000000000000e+00 8.0000000000000000e+00 2.5000000000000000e+00 
46 2 4 2.2559723595316457e+00 1.0000000000000000e+00 4.2000000000000000e+03 4.0000000000000000e+00 1.0000000000000000e+01 2.5000000000000000e+00 
65 2 4 2.2559723595316457e+00 1.0000000000000000e+00 4.2000000000000000e+03 6.0000000000000000e+00 8.0000000000000000e+00 2.5000000000000000e+00 
66 2 4 2.2559723595316457e+00 1.0000000000000000e+00 4.2000000000000000e+03 6.0000000000000000e+00 1.0000000000000000e+01 2.5000000000000000e+00 
85 2 4 2.2559723595316457e+00 1.0000000000000000e+00 4.2000000000000000e+03 8.0000000000000000e+00 8.0000000000000000e+00 2.5000000000000000e+00 
86 2 4 2.2559723595316457e+00 1.0000000000000000e+00 4.2000000000000000e+03 8.0000000000000000e+00 1.0000000000000000e+01 2.5000000000000000e+00 
105 2 4 2.2559723595316457e+00 1.0000000000000000e+00 4.2000000000000000e+03 1.0000000000000000e+01 8.0000000000000000e+00 2.5000000000000000e+00 
106 2 4 2.2559723595316457e+00 1.0000000000000000e+00 4.2000000000000000e+03 1.0000000000000000e+01 1.0000000000000000e+01 2.5000000000000000e+00 
125 2 4 2.2559723595344474e+00 1.0001495290235216e+00 4.2000000000000000e+03 1.2000000000000000e+01 8.0000000000000000e+00 2.5000000000000000e+00 
126 2 4 2.2559723595316457e+00 9.9999990432725405e-01 4.2000000000000000e+03 1.2000000000000000e+01 1.0000000000000000e+01 2.5000000000000000e+00 
145 2 4 2.2559723595316457e+00 -5.9846245259229924e+01 4.2000000000000000e+03 1.4000000000000000e+01 8.0000000000000000e+00 2.5000000000000000e+00 
146 2 4 2.2559723595316457e+00 -3.0100793524342896e+02 4.2000000000000000e+03 1.4000000000000000e+01 1.0000000000000000e+01 2.5000000000000000e+00 
165 2 4 2.2559723595316457e+00 -3.0114984862216880e+02 4.2000000000000000e+03 1.6000000000000000e+01 8.0000000000000000e+00 2.5000000000000000e+00 
166 2 4 2.2559723595322230e+00 -1.2209957774077686e+03 4.2000000000000000e+03 1.6000000000000000e+01 1.0000000000000000e+01 2.5000000000000000e+00 
185 2 4 2.2559723595318402e+00 -3.9618836244212014e+02 4.2000000000000000e+03 1.8000000000000000e+01 8.0000000000000000e+00 2.5000000000000000e+00 
186 2 4 2.2559723595316457e+00 -1.6259737350416844e+03 4.2000000000000000e+03 1.8000000000000000e+01 1.0000000000000000e+01 2.5000000000000000e+00 
7 2 4 2.2559723595316457e+00 1.0000000000000000e+00 4.2000000000000000e+03 0.0000000000000000e+00 1.2000000000000000e+01 2.5000000000000000e+00 
8 2 4 2.2559723595316457e+00 1.0000000000000000e+00 4.2000000000000000e+03 0.0000000000000000e+00 1.4000000000000000e+01 2.5000000000000000e+00 
27 2 4 2.2559723595316457e+00 1.0000000000000000e+00 4.2000000000000000e+03 2.0000000000000000e+00 1.2000000000000000e+01 2.5000000000000000e+00 
28 2 4 2.2559723595316457e+00 1.0000000000000000e+00 4.2000000000000000e+03 2.0000000000000000e+00 1.4000000000000000e+01 2.5000000000000000e+00 
47 2 4 2.2559723595316457e+00 1.0000000000000000e+00 4.2000000000000000e+03 4.0000000000000000e+00 1.2000000000000000e+01 2.5000000000000000e+00 
48 2 4 2.2559723595316457e+00 1.0000000000000000e+00 4.2000000000000000e+03 4.0000000000000000e+00 1.4000000000000000e+01 2.5000000000000000e+00 
67 2 4 2.2559723595316457e+00 1.0000000000000000e+00 4.2000000000000000e+03 6.0000000000000000e+00 1.2000000000000000e+01 2.5000000000000000e+00 
68 2 4 2.2559723595316457e+00 1.0000000000000000e+00 4.2000000000000000e+03 6.0000000000000000e+00 1.4000000000000000e+01 2.5000000000000000e+00 
87 2 4 2.2559723595316457e+00 1.0000000000000000e+00 4.2000000000000000e+03 8.0000000000000000e+00 1.2000000000000000e+01 2.5000000000000000e+00 
88 2 4 2.2559723595316457e+00 1.0000000000000000e+00 4.2000000000000000e+03 8.0000000000000000e+00 1.4000000000000000e+01 2.5000000000000000e+00 
107 2 4 2.2559723595316457e+00 1.0000001248639805e+00 4.2000000000000000e+03 1.0000000000000000e+01 1.2000000000000000e+01 2.5000000000000000e+00 
108 2 4 2.2559723595317269e+00 1.0000144870692393e+00 4.2000000000000000e+03 1.0000000000000000e+01 1.4000000000000000e+01 2.5000000000000000e+00 
127 2 4 2.2559723595316457e+00 1.0000001221694048e+00 4.2000000000000000e+03 1.2000000000000000e+01 1.2000000000000000e+01 2.5000000000000000e+00 
128 2 4 2.2559723595341099e+00 1.0001791295112976e+00 4.2000000000000000e+03 1.2000000000000000e+01 1.4000000000000000e+01 2.5000000000000000e+00 
147 2 4 2.2559723595316457e+00 -3.9568702456798474e+02 4.2000000000000000e+03 1.4000000000000000e+01 1.2000000000000000e+01 2.5000000000000000e+00 
148 2 4 2.2559723595316457e+00 -4.0559353016446636e+02 4.2000000000000000e+03 1.4000000000000000e+01 1.4000000000000000e+01 2.5000000000000000e+00 
167 2 4 2.2559723595316457e+00 -1.6237658301388115e+03 4.2000000000000000e+03 1.6000000000000000e+01 1.2000000000000000e+01 2.5000000000000000e+00 
168 2 4 2.2559723595382146e+00 -1.6559772060346886e+03 4.2000000000000000e+03 1.6000000000000000e+01 1.4000000000000000e+01 2.5000000000000000e+00 
187 2 4 2.2559723595316457e+00 -2.1217818294341791e+03 4.2000000000000000e+03 1.8000000000000000e+01 1.2000000000000000e+01 2.5000000000000000e+00 
188 2 4 2.2559723595316457e+00 -2.1531280323727506e+03 4.2000000000000000e+03 1.8000000000000000e+01 1.4000000000000000e+01 2.5000000000000000e+00 
9 2 4 2.2559723595316457e+00 1.0000000000000000e+00 4.2000000000000000e+03 0.0000000000000000e+00 1.6000000000000000e+01 2.5000000000000000e+00 
10 2 4 2.2559723595316457e+00 1.0000000000000000e+00 4.2000000000000000e+03 0.0000000000000000e+00 1.8000000000000000e+01 2.5000000000000000e+00 
29 2 4 2.2559723595316457e+00 1.0000000000000000e+00 4.2000000000000000e+03 2.0000000000000000e+00 1.6000000000000000e+01 2.5000000000000000e+00 
30 2 4 2.2559723595316457e+00 1.0000000000000000e+00 4.2000000000000000e+03 2.0000000000000000e+00 1.8000000000000000e+01 2.5000000000000000e+00 
49 2 4 2.2559723595316457e+00 1.0000000000000000e+00 4.2000000000000000e+03 4.0000000000000000e+00 1.6000000000000000e+01 2.5000000000000000e+00 
50 2 4 2.2559723595316457e+00 1.0000000000000000e+00 4.2000000000000000e+03 4.0000000000000000e+00 1.8000000000000000e+01 2.5000000000000000e+00 
69 2 4 2.2559723595316457e+00 1.0000000205019370e+00 4.2000000000000000e+03 6.0000000000000000e+00 1.6000000000000000e+01 2.5000000000000000e+00 
70 2 4 2.2559723596011105e+00 1.0020505736371761e+00 4.2000000000000000e+03 6.0000000000000000e+00 1.8000000000000000e+01 2.5000000000000000e+00 
89 2 4 2.2559723595316457e+00 1.0000010281384104e+00 4.2000000000000000e+03 8.0000000000000000e+00 1.6000000000000000e+01 2.5000000000000000e+00 
90 2 4 2.2559723595316457e+00 1.0000007884747428e+00 4.2000000000000000e+03 8.0000000000000000e+00 1.8000000000000000e+01 2.5000000000000000e+00 
109 2 4 2.2559723595316457e+00 1.0000127691178076e+00 4.2000000000000000e+03 1.0000000000000000e+01 1.6000000000000000e+01 2.5000000000000000e+00 
110 2 4 2.2559723595316457e+00 1.0000002039578781e+00 4.2000000000000000e+03 1.0000000000000000e+01 1.8000000000000000e+01 2.5000000000000000e+00 
129 2 4 2.2559723595316457e+00 1.0000039746931171e+00 4.2000000000000000e+03 1.2000000000000000e+01 1.6000000000000000e+01 2.5000000000000000e+00 
130 2 4 2.2559723595326786e+00 1.0001328570459496e+00 4.2000000000000000e+03 1.2000000000000000e+01 1.8000000000000000e+01 2.5000000000000000e+00 
149 2 4 2.2559723595319801e+00 -4.0529415359631241e+02 4.2000000000000000e+03 1.4000000000000000e+01 1.6000000000000000e+01 2.5000000000000000e+00 
150 2 4 2.2559723595392702e+00 -4.0525725903316504e+02 4.2000000000000000e+03 1.4000000000000000e+01 1.8000000000000000e+01 2.5000000000000000e+00 
169 2 4 2.2559723595316457e+00 -1.6530421710542907e+03 4.2000000000000000e+03 1.6000000000000000e+01 1.6000000000000000e+01 2.5000000000000000e+00 
170 2 4 2.2559723595316457e+00 -1.6523328591484235e+03 4.2000000000000000e+03 1.6000000000000000e+01 1.8000000000000000e+01 2.5000000000000000e+00 
189 2 4 2.2559723595335517e+00 -2.1440045139866602e+03 4.2000000000000000e+03 1.8000000000000000e+01 1.6000000000000000e+01 2.5000000000000000e+00 
190 2 4 2.2559723595387862e+00 -2.1461975929928858e+03 4.2000000000000000e+03 1.8000000000000000e+01 1.8000000000000000e+01 2.5000000000000000e+00 
503 105 2 1.0279976748487474e+00 1.1994373941241388e+03 4.2000000000000000e+03 1.4179569407538201e+01 1.4935582237771385e+01 8.6992049296491629e+01 
825 427 2 1.0279974499425284e+00 6.9761630313355618e+03 4.2000000000000000e+03 1.4700389450647283e+01 1.4938022663441117e+01 8.6975074585553216e+01 
497 99 2 1.0279976539889515e+00 7.0090173916588674e+02 4.2000000000000000e+03 1.4098930267306109e+01 1.4830986860386639e+01 8.7037213159823139e+01 
1083 685 2 1.0279968312046979e+00 4.7883632580501635e+03 4.2000000000000000e+03 1.3504275916643206e+01 1.4714740477753155e+01 8.7230627035216017e+01 
1624 1226 2 1.0279944546516167e+00 5.5379992949334292e+03 4.2000000000000000e+03 1.2827025378047463e+01 1.5130953585780251e+01 8.7386485596728889e+01 
777 379 2 1.0279947010281525e+00 1.8624259398631923e+03 4.2000000000000000e+03 1.2834506933210680e+01 1.5045222855844150e+01 8.7428580197603495e+01 
1683 1285 2 1.0279944668516701e+00 2.5638902762275842e+02 4.2000000000000000e+03 1.2756441405818174e+01 1.5063516566331819e+01 8.7481242405835459e+01 
767 369 2 1.0279965253543462e+00 -7.1833943848167892e+03 4.2000000000000000e+03 1.5233942312622320e+01 1.4959242679449396e+01 8.6991319531741311e+01 
1825 1427 2 1.0279957772030683e+00 -3.0907662734416558e+03 4.2000000000000000e+03 1.5581375619333102e+01 1.4548218276075412e+01 8.7179586446836396e+01 
1566 1168 2 1.0279976953404089e+00 -9.9518807843883167e+02 4.2000000000000000e+03 1.8651905865377810e+01 1.5543369476547342e+01 8.6244109672554899e+01 
1567 1169 2 1.0279977468128867e+00 -9.9518865203473308e+02 4.2000000000000000e+03 1.9385414535702161e+01 1.5541423817725162e+01 8.6243465368470382e+01 
560 162 2 1.0279978778715768e+00 2.9228108740507387e+03 4.2000000000000000e+03 1.9320742822204629e+01 1.5457519218541117e+01 8.6308885876155458e+01 
557 159 2 1.0279978436425927e+00 2.9228113605933495e+03 4.2000000000000000e+03 1.8716708142946338e+01 1.5459123711245008e+01 8.6309324042782023e+01 
1039 641 2 1.0279968441515706e+00 4.1450647681416767e+03 4.2000000000000000e+03 1.8108804948503654e+01 1.5500726080123931e+01 8.6382289252972484e+01 
1038 640 2 1.0279969206562407e+00 4.1450631131384007e+03 4.2000000000000000e+03 1.9927740587978459e+01 1.5496136455576384e+01 8.6381053685139037e+01 
1320 922 2 1.0279932776382978e+00 1.2639597803530346e+03 4.2000000000000000e+03 1.6714037959441931e+01 1.5319427449073343e+01 8.6861799284818233e+01 
1224 826 2 1.0279956807573116e+00 7.6310385430123574e+02 4.2000000000000000e+03 7.0953241791181911e+00 1.8079054104952011e+01 8.7422241714061883e+01 
1764 1366 2 1.0279957022514157e+00 -1.8962843688698820e+03 4.2000000000000000e+03 7.3792696058191440e+00 1.8079582512585134e+01 8.7441156502504754e+01 
1392 994 2 1.0279954545643923e+00 7.6311091777895956e+02 4.2000000000000000e+03 7.0891928012721728e+00 1.9931045471480832e+01 8.7417755438548809e+01 
588 190 2 1.0279954633346495e+00 -1.8962736969802111e+03 4.2000000000000000e+03 7.3733792918419141e+00 1.9930923261200771e+01 8.7434371088265024e+01 
1514 1116 2 1.0279998959640790e+00 -4.1339937580737706e+03 4.2000000000000000e+03 9.1464236138280093e+00 1.8978051258294453e+01 8.6714898225483992e+01 
1010 612 2 1.0279998820401410e+00 -4.1339952958971026e+03 4.2000000000000000e+03 9.1462794041113842e+00 1.9053666707319707e+01 8.6714383172034601e+01 
1754 1356 2 1.0279986524148195e+00 -9.3546335317454068e+03 4.2000000000000000e+03 9.7682515612689169e+00 1.8551735405205811e+01 8.6742440263664648e+01 
578 180 2 1.0279984850613910e+00 -9.3546347475410003e+03 4.2000000000000000e+03 9.7684189981167187e+00 1.9484712346155739e+01 8.6733666352547900e+01 
768 370 2 1.0279994939181500e+00 6.2869731959118599e+03 4.2000000000000000e+03 9.3810534331159090e+00 1.8436171718001656e+01 8.6793370615700184e+01 
1608 1210 2 1.0279992995845528e+00 6.2869699092293249e+03 4.2000000000000000e+03 9.3809021429143495e+00 1.9594741219688935e+01 8.6782977909690175e+01 
1513 1115 2 1.0279950713419899e+00 4.1755607861000271e+03 4.2000000000000000e+03 1.0367887719899054e+01 1.9791419728960420e+01 8.6863607859835653e+01 
1009 611 2 1.0279954327458021e+00 4.1755466067080160e+03 4.2000000000000000e+03 1.0360813958877305e+01 1.8257959979560514e+01 8.6877225830023249e+01 
1767 1369 2 1.0279990566725721e+00 -6.4240068458186452e+03 4.2000000000000000e+03 8.4534219458915132e+00 1.8262711912520778e+01 8.7092333814396383e+01 
1897 1499 2 1.0279983248955180e+00 -2.0013459408094673e+03 4.2000000000000000e+03 8.2092774756792668e+00 1.8107983402850433e+01 8.7283808247343273e+01 
591 193 2 1.0279988491598104e+00 -6.4240024435046207e+03 4.2000000000000000e+03 8.4519281390789835e+00 1.9757253667003603e+01 8.7081611324798928e+01 
546 148 2 1.0279903265263379e+00 -9.9432395983551407e+02 4.2000000000000000e+03 1.0808981046619126e+01 1.7680549872520803e+01 8.7169713500351619e+01 
1408 1010 2 1.0279884207083927e+00 8.7121466655088752e+03 4.2000000000000000e+03 1.1118451618877121e+01 1.9213991907200544e+01 8.6932441921382576e+01 
1240 842 2 1.0279885616678783e+00 8.7121520117297550e+03 4.2000000000000000e+03 1.1118597795339554e+01 1.8855759908114749e+01 8.6936099228560295e+01 
721 323 2 1.0279981126270072e+00 -2.0013376644226812e+03 4.2000000000000000e+03 8.2064659988525896e+00 1.9908209349263416e+01 8.7270580734856651e+01 
516 118 2 1.0280008095253872e+00 2.5800164863374351e+02 4.2000000000000000e+03 1.5705623435850113e+01 1.8512890813668832e+01 8.5075801584998572e+01 
2028 1630 2 1.0280009985311391e+00 2.5800810177203448e+02 4.2000000000000000e+03 1.5701560855728085e+01 1.9542799237136876e+01 8.5075563686216285e+01 
1177 779 2 1.0280000296828944e+00 -5.6780482253116338e+02 4.2000000000000000e+03 1.5178027991324504e+01 1.9083259035712182e+01 8.5317917031382692e+01 
1345 947 2 1.0280000138993883e+00 -5.6780559928123955e+02 4.2000000000000000e+03 1.5178677390972053e+01 1.8976107888180259e+01 8.5317996865266949e+01 
1521 1123 2 1.0279995550389802e+00 3.8862685240769915e+03 4.2000000000000000e+03 1.5086351360223642e+01 1.8984217492839303e+01 8.5391753584350738e+01 
1017 619 2 1.0279995676589173e+00 3.8862707750109184e+03 4.2000000000000000e+03 1.5085829388091749e+01 1.9076387090934688e+01 8.5391615970642377e+01 
1013 615 2 1.0279981924935262e+00 6.6699994388948999e+03 4.2000000000000000e+03 1.4863805069524851e+01 1.9180162047105583e+01 8.5603759309882932e+01 
1517 1119 2 1.0279981670933485e+00 6.6699907329715779e+03 4.2000000000000000e+03 1.4865947587223323e+01 1.8883912758681099e+01 8.5604184801426641e+01 
834 436 2 1.0279953266990693e+00 2.1251370328339758e+03 4.2000000000000000e+03 1.4558907562105656e+01 1.8885583305691899e+01 8.5969608546867178e+01 
1674 1276 2 1.0279953202634278e+00 2.1251397625392947e+03 4.2000000000000000e+03 1.4556549432968753e+01 1.9186217186358462e+01 8.5968587950079296e+01 
1500 1102 2 1.0279877564511253e+00 2.5766421367895196e+03 4.2000000000000000e+03 1.4144346160937312e+01 1.9067287734467136e+01 8.6699129038021866e+01 
996 598 2 1.0279877856717043e+00 2.5766414601272977e+03 4.2000000000000000e+03 1.4144926484409439e+01 1.9031713546061727e+01 8.6698653496253030e+01 
1585 1187 2 1.0279869558002195e+00 4.3621350161001819e+03 4.2000000000000000e+03 1.3913630306768900e+01 1.9781320731664167e+01 8.7209376188436934e+01 
745 347 2 1.0279816633799261e+00 4.3621176635663660e+03 4.2000000000000000e+03 1.3889357302026671e+01 1.8279190093299238e+01 8.7177445590953454e+01 
1181 783 2 1.0279978426069669e+00 4.4274614847166404e+03 4.2000000000000000e+03 1.5835771389212674e+01 1.7482967103062165e+01 8.5536844882267786e+01 
1155 757 2 1.0280003356685943e+00 -3.0192488428994335e+02 4.2000000000000000e+03 1.5900268758883449e+01 1.8253082702034941e+01 8.5076495890638483e+01 
1323 925 2 1.0280006121057823e+00 -3.0191145888925774e+02 4.2000000000000000e+03 1.5895545229985501e+01 1.9802696512063648e+01 8.5076842375721711e+01 
2050 1652 2 1.0279978744126110e+00 8.1145267137000519e+02 4.2000000000000000e+03 1.7218869379046705e+01 1.8123646343435158e+01 8.4882692130723257e+01 
538 140 2 1.0279982172814306e+00 8.1146715323935291e+02 4.2000000000000000e+03 1.7211365926436482e+01 1.9915334638631879e+01 8.4886873629781945e+01 
1283 885 2 1.0279951968685381e+00 7.7050708313508903e+02 4.2000000000000000e+03 1.8190717985751434e+01 1.7791980665336936e+01 8.4982603886285403e+01 
1282 884 2 1.0279953058013189e+00 7.7050621923099516e+02 4.2000000000000000e+03 1.9847193886972256e+01 1.7791863160045168e+01 8.4977286352855515e+01 
645 247 2 1.0279953748761284e+00 -6.4987450337285718e+03 4.2000000000000000e+03 1.9841200253115709e+01 1.7336363251043487e+01 8.5132054689924914e+01 
648 250 2 1.0279952128129113e+00 -6.4987441482574841e+03 4.2000000000000000e+03 1.8195863096552742e+01 1.7337039719700329e+01 8.5137442487397692e+01 
1233 835 2 1.0279952648335855e+00 5.7643945217407611e+02 4.2000000000000000e+03 1.9508514175291126e+01 1.6798832638782979e+01 8.5373352358238250e+01 
1236 838 2 1.0279951418352253e+00 5.7644023567715067e+02 4.2000000000000000e+03 1.8527839661098294e+01 1.6800133934960542e+01 8.5376294705713917e+01 
927 529 2 1.0279963301287558e+00 2.4309602312993034e+03 4.2000000000000000e+03 1.8797718357791531e+01 1.6190585144830226e+01 8.5735477030660988e+01 
926 528 2 1.0279963802680434e+00 2.4309598830296754e+03 4.2000000000000000e+03 1.9238842710354799e+01 1.6189564647180546e+01 8.5734528333932275e+01 
965 567 2 1.0279942867718610e+00 2.7197273588062926e+03 4.2000000000000000e+03 1.7445842926243280e+01 1.6477162436119713e+01 8.5778128069220301e+01 
1050 652 2 1.0279966602406445e+00 3.4461382318740425e+03 4.2000000000000000e+03 1.6982224158915876e+01 7.9850315214615595e+00 9.1428698836706388e+01 
430 32 2 1.0279988619808356e+00 -1.1083845074236460e+03 4.2000000000000000e+03 1.3848634611807425e+01 8.9215970716693498e+00 9.1592558636375912e+01 
1877 1479 2 1.0279994993352910e+00 3.7045043714766143e+03 4.2000000000000000e+03 1.2952793197518970e+01 9.0034790423197020e+00 9.1528001613419676e+01 
1169 771 2 1.0279983651356861e+00 1.9678887739881878e+02 4.2000000000000000e+03 1.4023160692963701e+01 9.2208282568877316e+00 9.1555357066534981e+01 
717 319 2 1.0279997967544838e+00 5.4851187070554197e+03 4.2000000000000000e+03 1.2611171833438682e+01 1.0511878116619005e+01 9.1350115459958914e+01 
1441 1043 2 1.0279998927677225e+00 1.3879379131935943e+03 4.2000000000000000e+03 1.2432668399441413e+01 1.0664457118717456e+01 9.1401376599280837e+01 
1361 963 2 1.0279998400931714e+00 7.5726892762177351e+02 4.2000000000000000e+03 1.2125742328621586e+01 1.0766604391750098e+01 9.1527899979429108e+01 
962 564 2 1.0279989646478620e+00 -2.1747873124808975e+03 4.2000000000000000e+03 1.5556327992804777e+01 1.1749633631221853e+01 9.0996525152058652e+01 
906 508 2 1.0279947934605280e+00 -8.7033831419935370e+02 4.2000000000000000e+03 1.5137936903433735e+01 1.1805833995017185e+01 9.1300848066992344e+01 
1609 1211 2 1.0279982851331548e+00 4.9201606086946304e+03 4.2000000000000000e+03 1.7691288730965933e+01 8.1375461574543699e+00 9.0784641329254711e+01 
795 397 2 1.0279993759474952e+00 -2.4808773648425981e+02 4.2000000000000000e+03 1.8289487524018185e+01 8.4283956864964029e+00 9.0332334967865322e+01 
794 396 2 1.0279993100483755e+00 -2.4809018846688875e+02 4.2000000000000000e+03 1.9685153269766133e+01 8.4241071213254077e+00 9.0329559013948881e+01 
1293 895 2 1.0280002723053965e+00 8.3069137336085851e+02 4.2000000000000000e+03 1.9752411559795306e+01 9.1476773095911348e+00 9.0019744270162988e+01 
1296 898 2 1.0280003095759289e+00 8.3069580458141206e+02 4.2000000000000000e+03 1.8230413521439274e+01 9.1464345431254301e+00 9.0025747337498473e+01 
498 100 2 1.0279986448032385e+00 1.1023061225195615e+03 4.2000000000000000e+03 1.7317135267618788e+01 9.1235827168026091e+00 9.0562291179606547e+01 
1881 1483 2 1.0280012985823286e+00 5.5118809605756751e+03 4.2000000000000000e+03 1.9078493069556945e+01 9.5616676988003775e+00 8.9742915846810405e+01 
1884 1486 2 1.0280012971639065e+00 5.5118815460096894e+03 4.2000000000000000e+03 1.8901783787909412e+01 9.5611113257301312e+00 8.9743903271333622e+01 
747 349 2 1.0279990215493005e+00 -2.3737072164183069e+03 4.2000000000000000e+03 1.7041898886907660e+01 9.8445082714087562e+00 9.0518418068189050e+01 
1351 953 2 1.0279990387466520e+00 1.5955635262205513e+02 4.2000000000000000e+03 1.7002540786378319e+01 9.9498033274143900e+00 9.0514770774760123e+01 
1909 1511 2 1.0280015070235280e+00 -3.6579895595257121e+03 4.2000000000000000e+03 1.9406088272388700e+01 1.0180955484711502e+01 8.9602925107520122e+01 
1912 1514 2 1.0280015071868684e+00 -3.6579871304304406e+03 4.2000000000000000e+03 1.8586480610829547e+01 1.0180110554939803e+01 8.9605293997909342e+01 
470 72 2 1.0280000610904525e+00 8.4946801582595094e+02 4.2000000000000000e+03 1.7345030969775845e+01 1.0237396480869840e+01 9.0135679616295533e+01 
1106 708 2 1.0279988305390313e+00 2.1097785916195653e+03 4.2000000000000000e+03 1.6831600253205668e+01 1.1229834234185883e+01 9.0167656361413250e+01 
1623 1225 2 1.0279984738665613e+00 -1.6524346373967830e+02 4.2000000000000000e+03 1.7209028855778538e+01 1.1600247367338355e+01 8.9783624213609883e+01 
1954 1556 2 1.0279905489423600e+00 1.6868535996645337e+03 4.2000000000000000e+03 1.1688246956962757e+01 1.5845303514120641e+01 8.8073653196909603e+01 
1956 1558 2 1.0279923672093436e+00 2.0516475736984225e+03 4.2000000000000000e+03 1.1529669176553268e+01 1.5863853066241436e+01 8.8268109553761022e+01 
830 432 2 1.0279962321455809e+00 1.5582961643911390e+03 4.2000000000000000e+03 1.0237785627689389e+01 1.4918852409856052e+01 9.1576232088402051e+01 
402 4 2 1.0279951292295721e+00 5.1260615036868294e+03 4.2000000000000000e+03 9.8305891030831933e+00 1.5082535779200434e+01 9.1536064797169928e+01 
615 217 2 1.0279947205758799e+00 -4.4853097810776180e+03 4.2000000000000000e+03 9.6552118134252769e+00 1.5160654388004739e+01 9.1502843597644912e+01 
561 163 2 1.0280007697631022e+00 -3.0838692169014871e+03 4.2000000000000000e+03 1.0172390019539511e+01 1.5432042795892979e+01 9.0597670739255989e+01 
451 53 2 1.0280056605693157e+00 -2.0847374404651800e+03 4.2000000000000000e+03 1.0880489587643753e+01 1.5422885461443345e+01 9.0125570222874813e+01 
408 10 2 1.0280086095521206e+00 -4.8529799500321878e+03 4.2000000000000000e+03 1.1382017356051772e+01 1.5138777530808762e+01 9.0201582865167936e+01 
1769 1371 2 1.0279919040100067e+00 2.5438740334712370e+03 4.2000000000000000e+03 1.1951546291841311e+01 1.5569207760741532e+01 8.8005614699589728e+01 
1019 621 2 1.0279949760072946e+00 1.0886915514068512e+03 4.2000000000000000e+03 1.2684969164920112e+01 1.4911610568651851e+01 8.7671042446018973e+01 
1409 1011 2 1.0279917126167604e+00 8.3122625075433771e+03 4.2000000000000000e+03 1.2146742862289685e+01 1.5502011072812348e+01 8.7809434915948003e+01 
1636 1238 2 1.0279968384278226e+00 6.8113641818622900e+03 4.2000000000000000e+03 1.4788910066694614e+01 1.3731603636574979e+01 8.7772504440370994e+01 