LAMMPS data file via write_data, version 30 Jul 2016, timestep = 50000000

180 atoms
2 atom types

0.0000000000000000e+00 2.0000000000000000e+01 xlo xhi
0.0000000000000000e+00 2.0000000000000000e+01 ylo yhi
0.0000000000000000e+00 2.0000000000000000e+01 zlo zhi

Masses

1 3.896
2 4.31

Atoms # meso-molecular

153 1 2 5.1938233951851140e+00 -8.5781621128078541e+02 1.0000000000000000e+00 6.2219356264490608e+00 4.6832772679929588e+00 1.6180539769547021e+01 
10 1 2 4.5772509954944844e+00 -1.0779209557609511e+03 1.0000000000000000e+00 6.5465977999911553e+00 4.1158435695396145e+00 1.6025569293256449e+01 
64 1 2 4.6810554004767466e+00 -1.0623616750352048e+03 1.0000000000000000e+00 5.3696349196967859e+00 4.8020713681834017e+00 1.6378317996423299e+01 
52 1 2 5.0872225034714367e+00 -1.0339560514835887e+03 1.0000000000000000e+00 6.4408155635823432e+00 4.6807437841487882e+00 1.6173383080993680e+01 
7 1 2 5.3557596551847473e+00 -1.2834373830663430e+03 1.0000000000000000e+00 6.3470871501829924e+00 4.9859833170333205e+00 1.6521771703937425e+01 
34 1 2 4.9213557740349412e+00 -1.3891308721321152e+03 1.0000000000000000e+00 6.2294889281404933e+00 4.5168884479232503e+00 1.6021710372997745e+01 
5 1 2 4.7049409163976526e+00 -1.3203497754999053e+03 1.0000000000000000e+00 5.8716533812496046e+00 5.0820320637600132e+00 1.6156345050692817e+01 
41 1 2 4.7045843546799704e+00 -1.2548849806533237e+03 1.0000000000000000e+00 5.8709082538289108e+00 5.0826246502701213e+00 1.6156895510048937e+01 
42 1 2 4.7045843386271358e+00 -1.1977654990262297e+03 1.0000000000000000e+00 5.8709082239403196e+00 5.0826246749120125e+00 1.6156895531793911e+01 
4 1 2 4.7335753407473842e+00 -1.5209843244995927e+03 1.0000000000000000e+00 5.8752600013450822e+00 5.1020616832383761e+00 1.6189556026412543e+01 
1 1 2 4.7748952164410285e+00 -1.3995083610009431e+03 1.0000000000000000e+00 5.3772613330944328e+00 4.4668057265563759e+00 1.6359147807992816e+01 
6 1 2 4.7748952164432170e+00 -1.8575333128919308e+03 1.0000000000000000e+00 5.3772613330890264e+00 4.4668057265416019e+00 1.6359147808003350e+01 
79 1 2 4.9915818696085319e+00 -1.1587518761448839e+03 1.0000000000000000e+00 5.9105300681389714e+00 5.2435112951533922e+00 1.6607951421540207e+01 
36 1 2 4.7748952164417195e+00 -1.7705248582846716e+03 1.0000000000000000e+00 5.3772613330927772e+00 4.4668057265466974e+00 1.6359147807996383e+01 
9 1 2 4.7296214746467102e+00 -1.0701499526552154e+03 1.0000000000000000e+00 5.8119411559833676e+00 5.1186385037832549e+00 1.6231667745653979e+01 
81 1 2 5.0354775563808847e+00 -1.3281787346661638e+03 1.0000000000000000e+00 6.5560700750760033e+00 4.9457322000233850e+00 1.6332363281467352e+01 
63 1 2 4.9744313209313393e+00 -1.1690215647051523e+03 1.0000000000000000e+00 6.6038331620854187e+00 4.4438383823437144e+00 1.7634408432152370e+01 
2 1 2 4.6804261932037159e+00 -1.2394714736258018e+03 1.0000000000000000e+00 5.3478075239489158e+00 4.0065653253702784e+00 1.7239059646114395e+01 
80 1 2 4.6234950606563379e+00 -1.4450278128220000e+03 1.0000000000000000e+00 5.5169055884469627e+00 5.2482463546168292e+00 1.7012637865853616e+01 
18 1 2 4.5231909044244096e+00 -1.4013761239658427e+03 1.0000000000000000e+00 5.6309446071318545e+00 3.6501955303008096e+00 1.7346449915572304e+01 
43 1 2 4.7315056572392526e+00 -1.0724297777036311e+03 1.0000000000000000e+00 5.2725052314032688e+00 4.7118968548187912e+00 1.7188300305213215e+01 
12 1 2 4.7758653275083658e+00 -1.3940466242900636e+03 1.0000000000000000e+00 5.6546487821923854e+00 4.3165245919628505e+00 1.7687967907868114e+01 
44 1 2 4.9320459269194545e+00 -1.1738641128109937e+03 1.0000000000000000e+00 6.3820287296435279e+00 3.6720506700986122e+00 1.7231368676919818e+01 
55 1 2 4.4781796031274492e+00 -1.1072223062925480e+03 1.0000000000000000e+00 5.3612180668420244e+00 4.0679373218814847e+00 1.7510948463314140e+01 
53 1 2 4.8997823584297757e+00 -1.1781331470478713e+03 1.0000000000000000e+00 6.2508969772156915e+00 3.6297795758231830e+00 1.7229971921924765e+01 
176 1 2 5.6031842911306065e+00 -1.0880790801462438e+03 1.0000000000000000e+00 5.9845053234298993e+00 4.3415189317071032e+00 1.7335688335261157e+01 
60 1 2 4.6818885591061203e+00 -1.1527281361147054e+03 1.0000000000000000e+00 5.8398530121711891e+00 5.0013436463901213e+00 1.7647022645660382e+01 
38 1 2 4.8499399398975731e+00 -1.4591255029596514e+03 1.0000000000000000e+00 5.9626205470645424e+00 3.7303077138649585e+00 1.7432816337721686e+01 
146 1 2 5.0667984283713636e+00 -8.4342203604097699e+02 1.0000000000000000e+00 5.4919698808762503e+00 4.1197763559494538e+00 1.7201519354900192e+01 
45 1 2 4.3413764394195011e+00 -1.3915928236006084e+03 1.0000000000000000e+00 6.3959455585407357e+00 4.6801502303357720e+00 1.7979574220260574e+01 
26 1 2 5.0999282965745376e+00 -1.2644754856271848e+03 1.0000000000000000e+00 6.3778384524959577e+00 5.2348199824777524e+00 1.6916490046807922e+01 
32 1 2 5.2985340304522506e+00 -1.1235627573873771e+03 1.0000000000000000e+00 6.0631051736110884e+00 4.7229856064700728e+00 1.7517302881250966e+01 
20 1 2 4.6181385944676556e+00 -1.2106586051724273e+03 1.0000000000000000e+00 5.5838604882378835e+00 5.2930082708220079e+00 1.7053934058353992e+01 
33 1 2 5.1550305873394358e+00 -1.4217418947247402e+03 1.0000000000000000e+00 5.7373610604656040e+00 3.8337395179487883e+00 1.6951654039707417e+01 
17 1 2 4.8997823028915759e+00 -1.3378041830325060e+03 1.0000000000000000e+00 6.2508970941577067e+00 3.6297795702868401e+00 1.7229971951919321e+01 
50 1 2 4.6467111968564767e+00 -1.3496064973249461e+03 1.0000000000000000e+00 5.9993606653276927e+00 3.4932258497890425e+00 1.6749490915311320e+01 
61 1 2 4.7887257509151606e+00 -1.3950690804928086e+03 1.0000000000000000e+00 6.2501603405894022e+00 5.2101333888953656e+00 1.7448605476691345e+01 
16 1 2 4.8997822878616457e+00 -1.2665703867266820e+03 1.0000000000000000e+00 6.2508971257506989e+00 3.6297795687669097e+00 1.7229971959992032e+01 
47 1 2 4.8997823455254945e+00 -1.3714091702802145e+03 1.0000000000000000e+00 6.2508970043099907e+00 3.6297795745041781e+00 1.7229971928825627e+01 
11 1 2 4.8997822905667592e+00 -1.5078460225130004e+03 1.0000000000000000e+00 6.2508971197392142e+00 3.6297795688986443e+00 1.7229971958239123e+01 
35 1 2 1.4507103231053642e-01 1.2001024403442583e+01 1.0000000000000000e+00 4.4364606320957698e+00 1.7799977138770437e+01 1.2960264400397454e+01 
23 1 2 5.8028412924214567e-01 -8.1137764816040476e+02 1.0000000000000000e+00 4.4566592522863369e+00 1.2392965124166773e+01 1.5255685839197804e+01 
24 1 2 5.8028412924214567e-01 -8.8203573035126294e+02 1.0000000000000000e+00 4.4566592522863466e+00 1.2392965124166766e+01 1.5255685839197808e+01 
29 1 2 5.8028412924214567e-01 -7.7162127937047160e+02 1.0000000000000000e+00 4.4566592522863440e+00 1.2392965124166762e+01 1.5255685839197804e+01 
30 1 2 5.8028412924214567e-01 -7.0379770752375316e+02 1.0000000000000000e+00 4.4566592522863511e+00 1.2392965124166773e+01 1.5255685839197810e+01 
76 1 2 1.1605682584842913e+00 -9.6756313334188667e+02 1.0000000000000000e+00 1.3232510527384251e+01 3.3163109466620497e+00 1.1951413511138322e+01 
77 1 2 1.1605682584842913e+00 -9.7116294557930303e+02 1.0000000000000000e+00 1.3232510527384227e+01 3.3163109466620497e+00 1.1951413511138345e+01 
112 1 2 1.1605682584842913e+00 -1.0673440587136154e+03 1.0000000000000000e+00 1.3232510527384227e+01 3.3163109466620511e+00 1.1951413511138345e+01 
113 1 2 1.1605682584842913e+00 -9.7774630023411794e+02 1.0000000000000000e+00 1.3232510527384251e+01 3.3163109466620488e+00 1.1951413511138345e+01 
82 1 2 1.1605682584842913e+00 -1.0668690978598861e+03 1.0000000000000000e+00 1.3232510527384244e+01 3.3163109466620480e+00 1.1951413511138336e+01 
83 1 2 1.1605682584842913e+00 -9.9960404641673824e+02 1.0000000000000000e+00 1.3232510527384244e+01 3.3163109466620484e+00 1.1951413511138334e+01 
118 1 2 1.1605682584842913e+00 -9.7212593581697865e+02 1.0000000000000000e+00 1.3232510527384244e+01 3.3163109466620475e+00 1.1951413511138336e+01 
124 1 2 1.1605682584842913e+00 -9.5077793062743581e+02 1.0000000000000000e+00 1.3232510527384251e+01 3.3163109466620502e+00 1.1951413511138336e+01 
88 1 2 2.9014206462107284e-01 -3.4917580247773327e+02 1.0000000000000000e+00 1.0889604098364996e+01 8.0810809629364897e+00 1.2142255932013875e+01 
89 1 2 2.9014206462107284e-01 -3.0702060055387176e+02 1.0000000000000000e+00 1.0889604098364996e+01 8.0810809629365181e+00 1.2142255932013878e+01 
114 1 2 7.2535516155268209e-01 -1.4568695087369852e+03 1.0000000000000000e+00 1.3233900446044265e+01 3.2335000555159743e+00 1.6145561443089196e+01 
78 1 2 7.2535516155268209e-01 -1.3393703636913672e+03 1.0000000000000000e+00 1.3233900446044261e+01 3.2335000555159747e+00 1.6145561443089196e+01 
120 1 2 7.2535516155268209e-01 -1.5633658386115931e+03 1.0000000000000000e+00 1.3233900446044263e+01 3.2335000555159747e+00 1.6145561443089171e+01 
84 1 2 7.2535516155268209e-01 -1.3947754275676732e+03 1.0000000000000000e+00 1.3233900446044268e+01 3.2335000555159743e+00 1.6145561443089196e+01 
119 1 2 7.2535516155268209e-01 -1.5108125607167867e+03 1.0000000000000000e+00 1.3233900446044279e+01 3.2335000555159747e+00 1.6145561443089196e+01 
14 1 2 4.6685928485915094e+00 -1.3815877072685980e+03 1.0000000000000000e+00 6.9340584694334204e+00 4.9799062712071382e+00 1.6510501219703304e+01 
152 1 2 4.9653503842472926e+00 -1.2180364853247750e+03 1.0000000000000000e+00 6.9196620226090984e+00 4.4946244923585192e+00 1.6496246703844847e+01 
147 1 2 5.0836661443787863e+00 -1.0665260558339667e+03 1.0000000000000000e+00 6.8986116213441262e+00 4.3089706659093521e+00 1.6637089370581002e+01 
48 1 2 4.8057643098409937e+00 -1.3311708489110208e+03 1.0000000000000000e+00 7.0750304245920219e+00 4.6770705851201670e+00 1.6887330550493985e+01 
51 1 2 4.9716659348109218e+00 -9.9548760401513982e+02 1.0000000000000000e+00 6.9606778970364100e+00 4.7837231558198843e+00 1.6879214958530273e+01 
139 1 2 4.7721181363759522e+00 -1.6350121654224313e+03 1.0000000000000000e+00 7.0825729567678968e+00 4.2304860524634078e+00 1.6876110189084027e+01 
27 1 2 4.7234013742840926e+00 -1.3067539895557941e+03 1.0000000000000000e+00 7.0146677067412524e+00 4.9294355010052673e+00 1.6788787112892898e+01 
54 1 2 4.5994188317292490e+00 -1.5219061019804371e+03 1.0000000000000000e+00 6.7912134050173574e+00 3.7102056067014670e+00 1.7231712012375365e+01 
57 1 2 4.0722064143572201e+00 -1.3721147292797048e+03 1.0000000000000000e+00 7.1227404011523143e+00 4.5474039756709708e+00 1.7686906292853674e+01 
40 1 2 4.3729416615684382e+00 -1.6715293974808062e+03 1.0000000000000000e+00 6.9477429816063880e+00 4.7669620522516976e+00 1.7635136574767660e+01 
19 1 2 5.1349595131645334e+00 -1.2290145969384205e+03 1.0000000000000000e+00 6.6786407650729398e+00 3.8917893388741938e+00 1.6982112563857029e+01 
96 1 2 4.3521309693160926e-01 -1.0587606187961412e+03 1.0000000000000000e+00 1.3131047321058121e+01 9.4172254299070488e+00 1.6897822314548250e+01 
90 1 2 4.3521309693160926e-01 -1.0757303090662422e+03 1.0000000000000000e+00 1.3131047321058121e+01 9.4172254299070506e+00 1.6897822314548268e+01 
132 1 2 4.3521309693160926e-01 -1.0251080768475404e+03 1.0000000000000000e+00 1.3131047321058125e+01 9.4172254299070310e+00 1.6897822314548261e+01 
92 1 2 5.0370111500999029e+00 -1.3328788438157583e+03 1.0000000000000000e+00 1.2120587782820246e+01 1.8633437009790025e+01 7.0712832063932263e+00 
68 1 2 4.9806680170179671e+00 -1.5690501092419761e+03 1.0000000000000000e+00 1.2080906707037238e+01 1.8674135557102012e+01 7.0346601116430465e+00 
3 1 2 5.0310481128252249e+00 -1.3698595843656965e+03 1.0000000000000000e+00 1.2116260152604298e+01 1.8623427478998899e+01 7.0670720003653660e+00 
163 1 2 5.0285888229710629e+00 -1.1161130191345692e+03 1.0000000000000000e+00 1.2107788409915321e+01 1.8633469032726314e+01 7.0730207192587766e+00 
86 1 2 5.0301662663801885e+00 -1.6186370818443461e+03 1.0000000000000000e+00 1.2115818501163647e+01 1.8624692699555144e+01 7.0661709431004489e+00 
91 1 2 5.0295653169500119e+00 -1.2989423221673117e+03 1.0000000000000000e+00 1.2115221541389245e+01 1.8622088100100932e+01 7.0660059890320364e+00 
128 1 2 5.0312661712440852e+00 -1.1152630528817483e+03 1.0000000000000000e+00 1.2116433996315964e+01 1.8621540148813306e+01 7.0672812744385940e+00 
13 1 2 5.0291610302756196e+00 -1.3746580947674045e+03 1.0000000000000000e+00 1.2112642260800328e+01 1.8631045506547991e+01 7.0681693250856377e+00 
99 1 2 5.0308446697322537e+00 -1.1558115003198375e+03 1.0000000000000000e+00 1.2115481940919260e+01 1.8622506809795592e+01 7.0676784971410589e+00 
136 1 2 5.0308448304952069e+00 -1.1287552194291923e+03 1.0000000000000000e+00 1.2115481663730744e+01 1.8622506479743176e+01 7.0676790774371900e+00 
177 1 2 5.0308448341881746e+00 -1.1779418980242058e+03 1.0000000000000000e+00 1.2115481657345788e+01 1.8622506472139641e+01 7.0676790907883911e+00 
141 1 2 5.0308447729082264e+00 -1.0897310945380027e+03 1.0000000000000000e+00 1.2115481763042698e+01 1.8622506598011071e+01 7.0676788695442356e+00 
135 1 2 5.0308447893024848e+00 -1.2569392009859137e+03 1.0000000000000000e+00 1.2115481734624717e+01 1.8622506564169900e+01 7.0676789289014783e+00 
172 1 2 5.0308447841723858e+00 -1.2095149167232860e+03 1.0000000000000000e+00 1.2115481743393749e+01 1.8622506574610053e+01 7.0676789104746067e+00 
100 1 2 5.0308446568288590e+00 -1.3361733803407983e+03 1.0000000000000000e+00 1.2115481962909096e+01 1.8622506835970917e+01 7.0676784508725081e+00 
106 1 2 5.0308448715493901e+00 -1.2678013991412040e+03 1.0000000000000000e+00 1.2115481592613090e+01 1.8622506395037934e+01 7.0676792260243468e+00 
142 1 2 5.0308448056512542e+00 -1.3379355730038994e+03 1.0000000000000000e+00 1.2115481706446440e+01 1.8622506530612334e+01 7.0676789879025197e+00 
105 1 2 5.0308448525094223e+00 -1.3366196133424985e+03 1.0000000000000000e+00 1.2115481625643348e+01 1.8622506434380014e+01 7.0676791570564035e+00 
56 1 2 5.0324437940249602e+00 -9.3532905197725040e+02 1.0000000000000000e+00 1.2113771171696264e+01 1.8619291084586617e+01 7.0723164749900640e+00 
94 1 2 5.0552050714107057e+00 -1.0011521747412839e+03 1.0000000000000000e+00 1.2105840529297584e+01 1.8494091529385379e+01 7.1762181811466617e+00 
110 1 2 5.0377059535546076e+00 -1.5616220600159847e+03 1.0000000000000000e+00 1.2120519059516264e+01 1.8625012903267571e+01 7.0725255423440361e+00 
123 1 2 5.0352833480816965e+00 -1.0776196581895242e+03 1.0000000000000000e+00 1.2108061468558972e+01 1.8621750059130218e+01 7.0837494303116353e+00 
130 1 2 5.0336039937178976e+00 -9.2820807745613331e+02 1.0000000000000000e+00 1.2116177898796717e+01 1.8641176856164346e+01 7.0712207135727319e+00 
37 1 2 5.0488925671106610e+00 -1.3732726454251790e+03 1.0000000000000000e+00 1.2137885429382694e+01 1.8612972633970990e+01 7.0711572285041475e+00 
87 1 2 5.0339856193024044e+00 -1.2018635486859503e+03 1.0000000000000000e+00 1.2123666363074252e+01 1.8628903686358015e+01 7.0631880509565477e+00 
31 1 2 5.4242263137094566e+00 -1.5060432378527751e+03 1.0000000000000000e+00 1.2491918109390834e+01 1.8633531877449510e+01 7.4035341699687782e+00 
121 1 2 5.0290929124003423e+00 -1.5393870880191564e+03 1.0000000000000000e+00 1.2115487108155788e+01 1.8625410618017824e+01 7.0648700029516940e+00 
22 1 2 5.0268448597590210e+00 -1.2292486678201521e+03 1.0000000000000000e+00 1.2120146499258437e+01 1.8637561072627548e+01 7.0563196197458984e+00 
15 1 2 5.0391702422562190e+00 -1.1775537387259446e+03 1.0000000000000000e+00 1.2134664919703111e+01 1.8650554037691851e+01 7.0599565422600801e+00 
69 1 2 5.0494489094632033e+00 -1.4447597883819956e+03 1.0000000000000000e+00 1.2116528782925981e+01 1.8630455479059890e+01 7.0964367353551054e+00 
109 1 2 4.9067851023472437e+00 -9.6209191694193328e+02 1.0000000000000000e+00 1.1991208280401164e+01 1.8576465172846323e+01 7.0380907891605773e+00 
175 1 2 5.0308210028122264e+00 -1.3907206755687073e+03 1.0000000000000000e+00 1.2114654145614921e+01 1.8621651925465194e+01 7.0686276816621474e+00 
70 1 2 4.3521309693160926e-01 -9.4361201648062115e+02 1.0000000000000000e+00 8.9409535700737983e+00 1.6659287762046571e+01 1.2978804739668117e+01 
107 1 2 4.3521309693160926e-01 -1.2089005909216964e+03 1.0000000000000000e+00 8.9409535700738001e+00 1.6659287762046542e+01 1.2978804739668117e+01 
71 1 2 4.3521309693160926e-01 -1.1386492088245584e+03 1.0000000000000000e+00 8.9409535700737912e+00 1.6659287762046542e+01 1.2978804739668124e+01 
58 1 2 1.3056392907948278e+00 -1.2548807095256764e+03 1.0000000000000000e+00 1.0184406230934357e+01 1.2901014990401336e+01 1.4498046869715353e+01 
59 1 2 1.3056392907948278e+00 -1.3473863486745704e+03 1.0000000000000000e+00 1.0184406230934357e+01 1.2901014990401361e+01 1.4498046869715344e+01 
65 1 2 1.3056392907948278e+00 -1.4880781834014247e+03 1.0000000000000000e+00 1.0184406230934357e+01 1.2901014990401345e+01 1.4498046869715331e+01 
66 1 2 1.3056392907948278e+00 -1.2395360568748879e+03 1.0000000000000000e+00 1.0184406230934357e+01 1.2901014990401336e+01 1.4498046869715331e+01 
95 1 2 1.3056392907948278e+00 -1.5656729834493840e+03 1.0000000000000000e+00 1.0184406230934357e+01 1.2901014990401336e+01 1.4498046869715331e+01 
102 1 2 1.3056392907948278e+00 -1.6611527285639277e+03 1.0000000000000000e+00 1.0184406230934357e+01 1.2901014990401361e+01 1.4498046869715353e+01 
101 1 2 1.3056392907948278e+00 -1.3940858639816990e+03 1.0000000000000000e+00 1.0184406230934359e+01 1.2901014990401361e+01 1.4498046869715331e+01 
138 1 2 1.3056392907948278e+00 -1.3288741388721944e+03 1.0000000000000000e+00 1.0184406230934359e+01 1.2901014990401336e+01 1.4498046869715353e+01 
137 1 2 1.3056392907948278e+00 -1.2879535559126641e+03 1.0000000000000000e+00 1.0184406230934357e+01 1.2901014990401336e+01 1.4498046869715331e+01 
103 1 2 4.3521309693160926e-01 -9.3802132134720534e+02 1.0000000000000000e+00 1.0101509255448011e+01 1.7223417671246935e+01 1.8217776230191234e+01 
72 1 2 4.3521309693160926e-01 -8.4298176578167011e+02 1.0000000000000000e+00 1.0101509255448011e+01 1.7223417671246935e+01 1.8217776230191248e+01 
108 1 2 4.3521309693160926e-01 -1.0175029726126738e+03 1.0000000000000000e+00 1.0101509255448018e+01 1.7223417671246935e+01 1.8217776230191244e+01 
125 1 2 1.1605682584842913e+00 -1.1770498065320953e+03 1.0000000000000000e+00 1.6910206735924127e+01 7.4448166532579227e+00 1.2006087651759193e+01 
131 1 2 1.1605682584842913e+00 -1.1864904906293400e+03 1.0000000000000000e+00 1.6910206735924127e+01 7.4448166532579227e+00 1.2006087651759179e+01 
154 1 2 1.1605682584842913e+00 -1.2479143503287683e+03 1.0000000000000000e+00 1.6910206735924124e+01 7.4448166532579263e+00 1.2006087651759204e+01 
155 1 2 1.1605682584842913e+00 -1.2309966962238566e+03 1.0000000000000000e+00 1.6910206735924135e+01 7.4448166532579263e+00 1.2006087651759204e+01 
160 1 2 1.1605682584842913e+00 -1.5153380167011092e+03 1.0000000000000000e+00 1.6910206735924135e+01 7.4448166532579227e+00 1.2006087651759179e+01 
166 1 2 1.1605682584842913e+00 -1.5384947738830517e+03 1.0000000000000000e+00 1.6910206735924124e+01 7.4448166532579227e+00 1.2006087651759193e+01 
161 1 2 1.1605682584842913e+00 -1.3986123624015672e+03 1.0000000000000000e+00 1.6910206735924124e+01 7.4448166532579227e+00 1.2006087651759204e+01 
159 1 2 1.1605682584842913e+00 -1.4099788228742843e+03 1.0000000000000000e+00 1.6910206735924135e+01 7.4448166532579227e+00 1.2006087651759193e+01 
150 1 2 1.0154972261737549e+00 -1.3574998218936994e+03 1.0000000000000000e+00 1.6876345025846401e+01 5.1661892938377596e+00 1.8251755711683892e+01 
156 1 2 1.0154972261737549e+00 -1.3274593716696991e+03 1.0000000000000000e+00 1.6876345025846401e+01 5.1661892938377552e+00 1.8251755711683892e+01 
126 1 2 1.0154972261737549e+00 -1.4206102397428840e+03 1.0000000000000000e+00 1.6876345025846401e+01 5.1661892938377552e+00 1.8251755711683892e+01 
115 1 2 1.0154972261737549e+00 -1.3000862890624021e+03 1.0000000000000000e+00 1.6876345025846401e+01 5.1661892938377560e+00 1.8251755711683892e+01 
157 1 2 1.0154972261737549e+00 -1.4115525718026693e+03 1.0000000000000000e+00 1.6876345025846401e+01 5.1661892938377552e+00 1.8251755711683892e+01 
162 1 2 1.0154972261737549e+00 -1.4410895059901945e+03 1.0000000000000000e+00 1.6876345025846401e+01 5.1661892938377560e+00 1.8251755711683892e+01 
151 1 2 1.0154972261737549e+00 -1.2289390756486191e+03 1.0000000000000000e+00 1.6876345025846401e+01 5.1661892938377507e+00 1.8251755711683892e+01 
39 1 2 5.0482406619600608e+00 -1.2797292423105018e+03 1.0000000000000000e+00 1.4233258077892545e+01 1.8752159947941063e+01 8.8844187098738274e+00 
75 1 2 5.0334153302288414e+00 -1.2077722563011589e+03 1.0000000000000000e+00 1.4271776787507802e+01 1.8773776390007953e+01 8.8580517528612610e+00 
117 1 2 5.0058164147039195e+00 -1.0491800285334009e+03 1.0000000000000000e+00 1.4153339105773776e+01 1.8828737934130473e+01 8.9877193279930587e+00 
127 1 2 5.0391127774742905e+00 -1.2379890135115716e+03 1.0000000000000000e+00 1.4258133642185486e+01 1.8774227431916319e+01 8.8668405020762169e+00 
122 1 2 5.0044808009388095e+00 -1.6276183381859487e+03 1.0000000000000000e+00 1.4253784233373816e+01 1.8773495895967223e+01 8.9249866627653542e+00 
74 1 2 5.0480143062089482e+00 -1.5759744527305591e+03 1.0000000000000000e+00 1.4230817428294401e+01 1.8744493741182676e+01 8.8877131744307256e+00 
67 1 2 5.0478252117408635e+00 -1.3770757174188991e+03 1.0000000000000000e+00 1.4231871700941502e+01 1.8745429245335117e+01 8.8868299024648216e+00 
171 1 2 5.0707316799577971e+00 -1.0808675042114714e+03 1.0000000000000000e+00 1.3897318784985922e+01 1.8967823482568061e+01 8.9340843979471636e+00 
116 1 2 5.0390977380508488e+00 -1.3789446763488456e+03 1.0000000000000000e+00 1.4260558825224482e+01 1.8775363565280529e+01 8.8634721462012536e+00 
134 1 2 5.0425702877235556e+00 -1.3218061492377722e+03 1.0000000000000000e+00 1.4262756625062446e+01 1.8782584371153096e+01 8.8530936543715093e+00 
140 1 2 5.0410663212542186e+00 -1.2745788867869874e+03 1.0000000000000000e+00 1.4249449971185605e+01 1.8777606186236966e+01 8.8741077765924619e+00 
73 1 2 5.0484208647125834e+00 -1.0425437471823063e+03 1.0000000000000000e+00 1.4229380646976335e+01 1.8782906308999582e+01 8.8849194362148847e+00 
164 1 2 5.0419543910509805e+00 -1.1067304783435720e+03 1.0000000000000000e+00 1.4256730909534905e+01 1.8759524290470377e+01 8.8656763016787767e+00 
133 1 2 5.0354380489263413e+00 -1.3521681692763782e+03 1.0000000000000000e+00 1.4266423615921939e+01 1.8769139459158474e+01 8.8627007857550524e+00 
8 1 2 5.0417750918401714e+00 -1.3239852786744989e+03 1.0000000000000000e+00 1.4262256960531454e+01 1.8774360059154279e+01 8.8566893481837692e+00 
98 1 2 5.0315243676566634e+00 -1.3200128779423189e+03 1.0000000000000000e+00 1.4277687402717925e+01 1.8770973811414542e+01 8.8532311115853872e+00 
28 1 2 5.0318411040097235e+00 -1.4109150678040501e+03 1.0000000000000000e+00 1.4284228279545417e+01 1.8785284423724569e+01 8.8397424664470119e+00 
49 1 2 5.0335617673537154e+00 -8.3915605211873969e+02 1.0000000000000000e+00 1.4278691100705446e+01 1.8783860831777517e+01 8.8455978945684635e+00 
129 1 2 5.0387651759569021e+00 -1.2229066782274774e+03 1.0000000000000000e+00 1.4286416927434740e+01 1.8795741649390077e+01 8.8192090155819738e+00 
111 1 2 5.0366104668887361e+00 -1.5107737786639523e+03 1.0000000000000000e+00 1.4268943751353717e+01 1.8773828158266912e+01 8.8564412269097392e+00 
85 1 2 5.0397236892848021e+00 -1.3596568191492822e+03 1.0000000000000000e+00 1.4280230038798786e+01 1.8788707689893542e+01 8.8300826195759470e+00 
170 1 2 5.0361631030414165e+00 -1.0551932420921212e+03 1.0000000000000000e+00 1.4271935122926681e+01 1.8788493263312294e+01 8.8500071504215096e+00 
21 1 2 5.0328878671662132e+00 -1.2993273377745807e+03 1.0000000000000000e+00 1.4263020092099760e+01 1.8765377695845295e+01 8.8720307708754600e+00 
104 1 2 5.0345978885733205e+00 -1.3239894769015111e+03 1.0000000000000000e+00 1.4272217604700851e+01 1.8776789882943053e+01 8.8548132313555108e+00 
93 1 2 5.0342551243245302e+00 -1.3264091990623338e+03 1.0000000000000000e+00 1.4273009979666327e+01 1.8771741164373950e+01 8.8550943076820587e+00 
158 1 2 5.0201221024832519e+00 -1.1305045772834444e+03 1.0000000000000000e+00 1.4070092149818702e+01 1.8660464839333095e+01 9.0111706512914296e+00 
97 1 2 5.0307596626418949e+00 -1.3441382544996320e+03 1.0000000000000000e+00 1.4275482910423658e+01 1.8764554010190281e+01 8.8586795808431109e+00 
25 1 2 5.0365557810941528e+00 -1.2711920798588437e+03 1.0000000000000000e+00 1.4290102193891721e+01 1.8809268538815026e+01 8.8122139218049380e+00 
165 1 2 5.0308498647352335e+00 -1.1416908047100485e+03 1.0000000000000000e+00 1.4271975019611554e+01 1.8770437709468496e+01 8.8627645322483453e+00 
62 1 2 5.0353025280907859e+00 -1.4120471171760121e+03 1.0000000000000000e+00 1.4269106010562558e+01 1.8771758685665546e+01 8.8588327683176882e+00 
169 1 2 5.0332591880867268e+00 -1.2368248914527510e+03 1.0000000000000000e+00 1.4272585961703648e+01 1.8774060197021747e+01 8.8571212139465718e+00 
145 1 2 5.1282478459229166e+00 -6.7411166861310073e+02 1.0000000000000000e+00 1.3869932153378057e+01 1.8474022658010835e+01 8.8664357683336465e+00 
46 1 2 5.1899675181455889e+00 -1.1324301763488415e+03 1.0000000000000000e+00 1.3339970864116010e+01 1.8129646002715532e+01 8.0041085592223595e+00 
178 1 2 4.3521309693160926e-01 -9.4994804523630989e+02 1.0000000000000000e+00 1.7728781890035346e+01 1.9554197417873279e+01 1.1813714371021927e+01 
148 1 2 4.3521309693160926e-01 -1.2192864450873922e+03 1.0000000000000000e+00 1.7728781890035346e+01 1.9554197417873279e+01 1.1813714371021927e+01 
149 1 2 4.3521309693160926e-01 -1.0646693121412304e+03 1.0000000000000000e+00 1.7728781890035346e+01 1.9554197417873279e+01 1.1813714371021931e+01 
167 1 2 4.3521309693160926e-01 -1.0182832776354542e+03 1.0000000000000000e+00 1.7992938091292057e+01 1.1937719835489240e+01 1.5742664773189913e+01 
168 1 2 4.3521309693160926e-01 -1.1626594132103874e+03 1.0000000000000000e+00 1.7992938091292057e+01 1.1937719835489228e+01 1.5742664773189913e+01 
174 1 2 4.3521309693160926e-01 -1.0484182016106986e+03 1.0000000000000000e+00 1.7992938091292046e+01 1.1937719835489233e+01 1.5742664773189913e+01 
180 1 2 7.2535516155268209e-01 -1.1302991785305485e+03 1.0000000000000000e+00 1.6589646750882245e+01 1.6467201262007769e+01 1.4474249966839951e+01 
144 1 2 7.2535516155268209e-01 -1.1561550596412962e+03 1.0000000000000000e+00 1.6589646750882231e+01 1.6467201262007769e+01 1.4474249966839954e+01 
143 1 2 7.2535516155268209e-01 -1.2503118375159170e+03 1.0000000000000000e+00 1.6589646750882228e+01 1.6467201262007769e+01 1.4474249966839951e+01 
173 1 2 7.2535516155268209e-01 -1.2176477726667981e+03 1.0000000000000000e+00 1.6589646750882245e+01 1.6467201262007801e+01 1.4474249966839951e+01 
179 1 2 7.2535516155268209e-01 -1.2192624362694964e+03 1.0000000000000000e+00 1.6589646750882217e+01 1.6467201262007777e+01 1.4474249966839945e+01 

Velocities

153 2.0235059361273627e-01 1.0402554628433217e-01 4.5440014183058997e-01
10 4.6483658039012626e-01 -2.0075643851703345e-01 -6.5463283381800508e-01
64 -2.9957871635760397e-01 -9.9475776273543315e-02 -9.7589533488327648e-02
52 4.3693592657455987e-01 -1.6310169563704530e-01 5.8321587527766972e-01
7 2.8952170608165045e-01 -1.9398462615694509e-01 1.3825662810726058e-01
34 1.3385147986589496e-01 4.5427703691246274e-01 2.4225478213583440e-01
5 5.1992685180191289e-02 2.2446529982788049e-01 -4.1983571495167565e-01
41 5.2186085442283779e-02 2.2461908114414256e-01 -4.1915995827204539e-01
42 5.2186094317724481e-02 2.2461908513134771e-01 -4.1915992829617216e-01
4 9.5338197789079301e-02 9.5142127509765795e-01 -3.4547150152348705e-01
1 -1.2159260566416609e-01 1.3213210612724678e-02 -2.4765513012789409e-01
6 -1.2159260566376270e-01 1.3213210604958187e-02 -2.4765513011938067e-01
79 -2.2468975433815336e-01 -4.5331349108172458e-01 5.4093129432180287e-01
36 -1.2159260566391718e-01 1.3213210607864862e-02 -2.4765513012470930e-01
9 5.1240997653244791e-01 -1.0279526315958312e+00 8.3347106029231022e-01
81 -3.8474721948318857e-01 7.7148314598731779e-03 1.3314206202934423e-01
63 -4.6200616162807362e-01 -8.1396732095172497e-01 -3.5786394514464082e-01
2 -3.8894289657971959e-01 8.7369949786592049e-01 -2.6166705174700933e-01
80 -2.7665587002620751e-01 1.0003120448707660e-01 5.9032979575696853e-01
18 9.3424488352407997e-01 6.8891570347932085e-01 8.2464216556114311e-01
43 -3.2315371861174769e-01 -6.4999176573395134e-01 1.7087913021114721e-02
12 7.6692959930898830e-01 -9.4349351430634124e-02 1.9096574965083787e-01
44 -6.2056600944611062e-01 9.9786404764371528e-01 -2.3201096327726892e-01
55 3.4770637484758932e-01 -3.4946998179779698e-01 1.4102425834553473e-01
53 -3.6190124595865639e-02 5.9043598459021657e-03 -1.1149391217467898e-01
176 4.6250407778701524e-01 -5.7353184566287396e-01 -1.1064216162788014e+00
60 -2.6452041755123018e-01 -1.3246186223265943e-01 4.3659030918687275e-01
38 2.1975963721383340e-01 1.1944739303507253e-01 2.7898179483105756e-01
146 2.3918573978151145e-01 -7.8990290306568309e-04 -3.0649149305533907e-01
45 2.5032325971767139e-01 2.7339884037250317e-01 4.9391542526673812e-03
26 1.5396543949821775e-01 -1.1677543199661032e-01 -3.4258818399211804e-01
32 7.2559571088846239e-02 4.4147356446756142e-01 2.5758092283986767e-01
20 2.6751946418058874e-02 3.0668866669866474e-01 -4.1743946855392799e-01
33 -1.4679992788759155e-01 -2.6712754444619669e-01 2.3878547538120820e-01
17 -3.6190121289762102e-02 5.9043063483500370e-03 -1.1149388715076915e-01
50 2.2219031113573856e-01 -2.8192861386491214e-01 1.0086147433850393e-01
61 -2.8455052471902231e-01 -7.7705060214630961e-01 1.0552703587890290e-01
16 -3.6190120393233084e-02 5.9042918817107590e-03 -1.1149388037948364e-01
47 -3.6190123825368174e-02 5.9043474334283435e-03 -1.1149390636203266e-01
11 -3.6190120545655353e-02 5.9042945604022160e-03 -1.1149388160331805e-01
35 1.5316035021078643e-322 -1.5316035021078643e-322 -1.5316035021078643e-322
23 2.1915457851442553e-12 -1.2523118772278694e-12 6.2615593861422027e-13