LAMMPS data file via write_data, version 30 Jul 2016, timestep = 50400000

180 atoms
2 atom types

0.0000000000000000e+00 2.0000000000000000e+01 xlo xhi
0.0000000000000000e+00 2.0000000000000000e+01 ylo yhi
0.0000000000000000e+00 2.0000000000000000e+01 zlo zhi

Masses

1 3.896
2 4.31

Atoms # meso-molecular

1 1 2 5.1284142888284183e+00 -1.3971212737139101e+03 1.0000000000000000e+00 6.0302673489576737e+00 4.3355251573491742e+00 1.6077534742852183e+01 
36 1 2 5.1284142888128041e+00 -1.7681377709976164e+03 1.0000000000000000e+00 6.0302673489929779e+00 4.3355251573206148e+00 1.6077534742840843e+01 
6 1 2 5.1284142887940671e+00 -1.8551462256048856e+03 1.0000000000000000e+00 6.0302673490324450e+00 4.3355251572745344e+00 1.6077534742829311e+01 
64 1 2 5.0791060401876926e+00 -1.0588924243803719e+03 1.0000000000000000e+00 6.2741618478897463e+00 3.6934223621192910e+00 1.6519821359783457e+01 
139 1 2 5.1361616245948740e+00 -1.6321907848717647e+03 1.0000000000000000e+00 5.5745544182625304e+00 4.5124267590701370e+00 1.6340162458946054e+01 
45 1 2 4.7725035599573422e+00 -1.3880999157297392e+03 1.0000000000000000e+00 6.3835663684454849e+00 3.6294852445926318e+00 1.6368912410978155e+01 
55 1 2 5.1044192584472876e+00 -1.1026356243323612e+03 1.0000000000000000e+00 6.5552235298515829e+00 5.1549316251196915e+00 1.6606271661092123e+01 
44 1 2 5.5282487525104242e+00 -1.1688577008581904e+03 1.0000000000000000e+00 6.3482509193923793e+00 4.7313298871965142e+00 1.6369635920652591e+01 
79 1 2 5.1677420083606789e+00 -1.1550142616583978e+03 1.0000000000000000e+00 6.5826681430954963e+00 4.4579919154243592e+00 1.6186615417061986e+01 
19 1 2 5.0478742190365207e+00 -1.2234427665241324e+03 1.0000000000000000e+00 6.3259971512580719e+00 4.3913723537677161e+00 1.6030039435242919e+01 
80 1 2 5.0453061906679553e+00 -1.4421074328575874e+03 1.0000000000000000e+00 6.3888005259329512e+00 3.9238932915634801e+00 1.6221961132826298e+01 
147 1 2 4.9350031556705449e+00 -1.0611141882593436e+03 1.0000000000000000e+00 5.5862962371693845e+00 3.8792600012810774e+00 1.6496542114235289e+01 
63 1 2 4.6497360844225541e+00 -1.1605424602881938e+03 1.0000000000000000e+00 5.7520748439031539e+00 3.8023779191665636e+00 1.6186660493368255e+01 
176 1 2 4.4163026568458204e+00 -1.0817481805900838e+03 1.0000000000000000e+00 6.4083171386255477e+00 3.4192231430662332e+00 1.6470320547593182e+01 
152 1 2 5.0206713443440796e+00 -1.2134629157760091e+03 1.0000000000000000e+00 6.3077122927671274e+00 3.7834223717635731e+00 1.6323366886121228e+01 
38 1 2 5.3667869910479586e+00 -1.4561993647106954e+03 1.0000000000000000e+00 6.4271947322754412e+00 4.7978421990830702e+00 1.6326009340897119e+01 
32 1 2 5.1721756707113267e+00 -1.1209543494836371e+03 1.0000000000000000e+00 6.6394196409963708e+00 3.9603430063826894e+00 1.6457474304093186e+01 
14 1 2 4.9161250552441569e+00 -1.3762411626427911e+03 1.0000000000000000e+00 6.2409324911804740e+00 4.7295778246182145e+00 1.7813647405369419e+01 
146 1 2 4.8177793370008999e+00 -8.3755541380845227e+02 1.0000000000000000e+00 5.8791969132873927e+00 3.5453852561180486e+00 1.6884958294326164e+01 
18 1 2 4.7120927322013504e+00 -1.3907190072118781e+03 1.0000000000000000e+00 6.6576585493984677e+00 4.1491509264675415e+00 1.7699411499521595e+01 
27 1 2 4.7499509946178380e+00 -1.3008515680637206e+03 1.0000000000000000e+00 5.6011465835588101e+00 4.5952692305244458e+00 1.7747019839052484e+01 
7 1 2 4.9208500396969095e+00 -1.2786224961468008e+03 1.0000000000000000e+00 6.2947089223491748e+00 5.1030212569721112e+00 1.7612768358573060e+01 
81 1 2 5.1132675671064653e+00 -1.3203026360128683e+03 1.0000000000000000e+00 5.6246395583937172e+00 4.7173155843638686e+00 1.7523934396761895e+01 
41 1 2 5.0701588140441256e+00 -1.2526972279828612e+03 1.0000000000000000e+00 5.3363842584631982e+00 4.5866016874802424e+00 1.6789674012286046e+01 
2 1 2 5.1730147228775030e+00 -1.2302766118014854e+03 1.0000000000000000e+00 5.9735800026815369e+00 5.2522499408487660e+00 1.6780870803102971e+01 
26 1 2 5.1191443691017824e+00 -1.2620366492322648e+03 1.0000000000000000e+00 6.4224957628882429e+00 3.9309943306488764e+00 1.7446770391085280e+01 
57 1 2 5.1561912257281799e+00 -1.3633180506698222e+03 1.0000000000000000e+00 6.4192060336618191e+00 5.0556935278430144e+00 1.7448771415295031e+01 
50 1 2 5.1768881899067392e+00 -1.3441948649427939e+03 1.0000000000000000e+00 5.8953403618650322e+00 3.9151002246928570e+00 1.7395178132082361e+01 
4 1 2 4.9751462957946888e+00 -1.5146551163899192e+03 1.0000000000000000e+00 6.4162181607981017e+00 5.2802716344347562e+00 1.7273086169897674e+01 
16 1 2 4.9385525304561950e+00 -1.2637151011585720e+03 1.0000000000000000e+00 5.7803279334219644e+00 4.9231455219709463e+00 1.7650057847026336e+01 
5 1 2 5.0699266964092553e+00 -1.3181672282689963e+03 1.0000000000000000e+00 5.3357169439489187e+00 4.5932896793777198e+00 1.6799213238767656e+01 
42 1 2 5.0701588253645227e+00 -1.1955777461410910e+03 1.0000000000000000e+00 5.3363842897071381e+00 4.5866014184113517e+00 1.6789673625260271e+01 
17 1 2 4.9385525267334733e+00 -1.3349488975863765e+03 1.0000000000000000e+00 5.7803279581940350e+00 4.9231455394433237e+00 1.7650057852513466e+01 
11 1 2 4.9385525297945643e+00 -1.5049907369673435e+03 1.0000000000000000e+00 5.7803279381949384e+00 4.9231455251720568e+00 1.7650057848145508e+01 
47 1 2 4.9385525161844885e+00 -1.3685538851812173e+03 1.0000000000000000e+00 5.7803280286747718e+00 4.9231455890553031e+00 1.7650057868157216e+01 
33 1 2 4.8391966869204079e+00 -1.4178663413039765e+03 1.0000000000000000e+00 5.7621878362038306e+00 4.8781344271074154e+00 1.7720552292674725e+01 
54 1 2 5.0527027354667471e+00 -1.5219262882490905e+03 1.0000000000000000e+00 6.5506276210875001e+00 5.0670440819274605e+00 1.7428092636545898e+01 
20 1 2 5.1435281950411182e+00 -1.2072135334844470e+03 1.0000000000000000e+00 5.6905670058861757e+00 3.9565541813900289e+00 1.7308687586253981e+01 
53 1 2 4.9385525129873820e+00 -1.1752778620536428e+03 1.0000000000000000e+00 5.7803280499130834e+00 4.9231456040522046e+00 1.7650057872855076e+01 
34 1 2 5.1741118573092564e+00 -1.3853975020215494e+03 1.0000000000000000e+00 5.9322259662213117e+00 5.1751348580381142e+00 1.7293090822960870e+01 
9 1 2 4.5491660565747090e+00 -1.0644211487125172e+03 1.0000000000000000e+00 6.0413693060895923e+00 3.3971533508049578e+00 1.6933252609070720e+01 
61 1 2 4.9418614898665423e+00 -1.3900220357471976e+03 1.0000000000000000e+00 6.0752880979476132e+00 5.0156874226603811e+00 1.7681639541180644e+01 
48 1 2 4.9377944050370868e+00 -1.3273067974569044e+03 1.0000000000000000e+00 6.3241526383793856e+00 3.5706774143132236e+00 1.6927158170998180e+01 
51 1 2 5.4595225045376345e+00 -9.8690627024011826e+02 1.0000000000000000e+00 6.2297075577898227e+00 5.1189972176244574e+00 1.6781777237511307e+01 
35 1 2 1.4507103231053642e-01 1.2001024403442583e+01 1.0000000000000000e+00 4.4364606320957698e+00 1.7799977138770437e+01 1.2960264400397454e+01 
23 1 2 5.8028412924214567e-01 -8.1137764816040476e+02 1.0000000000000000e+00 4.4566592522863369e+00 1.2392965124166773e+01 1.5255685839197804e+01 
24 1 2 5.8028412924214567e-01 -8.8203573035126294e+02 1.0000000000000000e+00 4.4566592522863466e+00 1.2392965124166766e+01 1.5255685839197808e+01 
29 1 2 5.8028412924214567e-01 -7.7162127937047160e+02 1.0000000000000000e+00 4.4566592522863440e+00 1.2392965124166762e+01 1.5255685839197804e+01 
30 1 2 5.8028412924214567e-01 -7.0379770752375316e+02 1.0000000000000000e+00 4.4566592522863511e+00 1.2392965124166773e+01 1.5255685839197810e+01 
122 1 2 4.9791543867794816e+00 -1.6275385176341299e+03 1.0000000000000000e+00 1.3263701292190795e+01 1.2001406262671926e-01 7.8024884340125080e+00 
164 1 2 5.0240057159785394e+00 -1.1066615520841531e+03 1.0000000000000000e+00 1.3265972906792193e+01 7.5838094941042128e-02 7.8230201591376636e+00 
39 1 2 5.0156563887757866e+00 -1.2796645526515022e+03 1.0000000000000000e+00 1.3276253067011435e+01 8.4641642681787824e-02 7.8212713946328565e+00 
140 1 2 5.0212924186752455e+00 -1.2745091037956245e+03 1.0000000000000000e+00 1.3264314736870011e+01 7.7730560026988346e-02 7.8169859620064095e+00 
67 1 2 5.0128072540589494e+00 -1.3770111245151761e+03 1.0000000000000000e+00 1.3279688996794620e+01 8.8158601216292612e-02 7.8243445377262786e+00 
127 1 2 5.0180170962614348e+00 -1.2379212004785020e+03 1.0000000000000000e+00 1.3266064892914398e+01 8.2265410969415545e-02 7.8224363034937978e+00 
74 1 2 5.0110685076170309e+00 -1.5759097533006102e+03 1.0000000000000000e+00 1.3280739845082270e+01 8.9998350979649130e-02 7.8242670305699775e+00 
116 1 2 5.0157428877064936e+00 -1.3788785773196046e+03 1.0000000000000000e+00 1.3265208823254705e+01 8.4851904016740226e-02 7.8232724817815651e+00 
21 1 2 5.0150052218055512e+00 -1.2992570004846409e+03 1.0000000000000000e+00 1.3264258558847946e+01 8.4947645519238599e-02 7.8191491820566323e+00 
133 1 2 5.0146834379502723e+00 -1.3521004017642106e+03 1.0000000000000000e+00 1.3263474857224979e+01 8.5755399713094690e-02 7.8219899101218431e+00 
73 1 2 5.0129148101310221e+00 -1.0424798362793367e+03 1.0000000000000000e+00 1.3276325925764933e+01 8.7142884367763560e-02 7.8185097271304729e+00 
8 1 2 5.0131013818464574e+00 -1.3239226442544834e+03 1.0000000000000000e+00 1.3266363290772542e+01 8.8343271008130553e-02 7.8272989309378200e+00 
62 1 2 5.0128994403997540e+00 -1.4119802958633693e+03 1.0000000000000000e+00 1.3263600849473208e+01 8.7871271149934205e-02 7.8231400060320118e+00 
111 1 2 5.0128471308279794e+00 -1.5107079474425791e+03 1.0000000000000000e+00 1.3263432028547518e+01 8.8060877947434793e-02 7.8240067676710252e+00 
25 1 2 5.0231413987997060e+00 -1.2711141772924739e+03 1.0000000000000000e+00 1.3239695170324744e+01 7.3916045569141428e-02 7.8145978914966756e+00 
165 1 2 5.0118439119748510e+00 -1.1416215984301161e+03 1.0000000000000000e+00 1.3258214765234920e+01 8.8347577421777429e-02 7.8200925459561486e+00 
93 1 2 5.0104646914452422e+00 -1.3263429973597922e+03 1.0000000000000000e+00 1.3262734055829329e+01 9.0615106835552683e-02 7.8240369573219466e+00 
104 1 2 5.0106859316686680e+00 -1.3239230305001063e+03 1.0000000000000000e+00 1.3263697954492391e+01 9.0262277051583295e-02 7.8231591913961767e+00 
98 1 2 5.0103694117388020e+00 -1.3199445802159578e+03 1.0000000000000000e+00 1.3258586217845123e+01 9.0176287084395734e-02 7.8214575465388032e+00 
75 1 2 5.0088009082296026e+00 -1.2077059793196379e+03 1.0000000000000000e+00 1.3261889661936797e+01 9.2131495148842432e-02 7.8224538165647797e+00 
170 1 2 5.0092664653570127e+00 -1.0551274339662932e+03 1.0000000000000000e+00 1.3263146861124097e+01 9.1422925242231515e-02 7.8209667982412920e+00 
97 1 2 5.0059742791110864e+00 -1.3440723027431209e+03 1.0000000000000000e+00 1.3262872160772066e+01 9.5816397221133998e-02 7.8265505892515943e+00 
134 1 2 5.0045306679838779e+00 -1.3217462117598914e+03 1.0000000000000000e+00 1.3272675102432299e+01 9.7925131481202757e-02 7.8297145558859782e+00 
169 1 2 5.0045383600456805e+00 -1.2367600438441154e+03 1.0000000000000000e+00 1.3263478732062044e+01 9.6979477713402859e-02 7.8239723774976389e+00 
85 1 2 5.0055088963514889e+00 -1.3595928487727324e+03 1.0000000000000000e+00 1.3259052278208582e+01 9.5512646162965162e-02 7.8220876053613075e+00 
28 1 2 5.0039536966657234e+00 -1.4108481481897352e+03 1.0000000000000000e+00 1.3253887693173807e+01 9.6716289671816696e-02 7.8206289510032221e+00 
129 1 2 5.0032790487554992e+00 -1.2228407370959703e+03 1.0000000000000000e+00 1.3250681349326509e+01 9.7297342248254176e-02 7.8208599228093920e+00 
49 1 2 4.9988780658027805e+00 -8.3909196978756358e+02 1.0000000000000000e+00 1.3259700291242853e+01 1.0275815081243259e-01 7.8230379411114832e+00 
158 1 2 4.9562887236983952e+00 -1.1303018783302907e+03 1.0000000000000000e+00 1.3155963513741295e+01 1.2398757648108205e-01 7.9578069162092486e+00 
76 1 2 1.1605682584842913e+00 -9.6756313334188667e+02 1.0000000000000000e+00 1.3232510527384251e+01 3.3163109466620497e+00 1.1951413511138322e+01 
77 1 2 1.1605682584842913e+00 -9.7116294557930303e+02 1.0000000000000000e+00 1.3232510527384227e+01 3.3163109466620497e+00 1.1951413511138345e+01 
112 1 2 1.1605682584842913e+00 -1.0673440587136154e+03 1.0000000000000000e+00 1.3232510527384227e+01 3.3163109466620511e+00 1.1951413511138345e+01 
113 1 2 1.1605682584842913e+00 -9.7774630023411794e+02 1.0000000000000000e+00 1.3232510527384251e+01 3.3163109466620488e+00 1.1951413511138345e+01 
82 1 2 1.1605682584842913e+00 -1.0668690978598861e+03 1.0000000000000000e+00 1.3232510527384244e+01 3.3163109466620480e+00 1.1951413511138336e+01 
83 1 2 1.1605682584842913e+00 -9.9960404641673824e+02 1.0000000000000000e+00 1.3232510527384244e+01 3.3163109466620484e+00 1.1951413511138334e+01 
118 1 2 1.1605682584842913e+00 -9.7212593581697865e+02 1.0000000000000000e+00 1.3232510527384244e+01 3.3163109466620475e+00 1.1951413511138336e+01 
124 1 2 1.1605682584842913e+00 -9.5077793062743581e+02 1.0000000000000000e+00 1.3232510527384251e+01 3.3163109466620502e+00 1.1951413511138336e+01 
88 1 2 2.9014206462107284e-01 -3.4917580247773327e+02 1.0000000000000000e+00 1.0889604098364996e+01 8.0810809629364897e+00 1.2142255932013875e+01 
89 1 2 2.9014206462107284e-01 -3.0702060055387176e+02 1.0000000000000000e+00 1.0889604098364996e+01 8.0810809629365181e+00 1.2142255932013878e+01 
114 1 2 7.2535516155268209e-01 -1.4568695087369852e+03 1.0000000000000000e+00 1.3233900446044265e+01 3.2335000555159743e+00 1.6145561443089196e+01 
78 1 2 7.2535516155268209e-01 -1.3393703636913672e+03 1.0000000000000000e+00 1.3233900446044261e+01 3.2335000555159747e+00 1.6145561443089196e+01 
120 1 2 7.2535516155268209e-01 -1.5633658386115931e+03 1.0000000000000000e+00 1.3233900446044263e+01 3.2335000555159747e+00 1.6145561443089171e+01 
84 1 2 7.2535516155268209e-01 -1.3947754275676732e+03 1.0000000000000000e+00 1.3233900446044268e+01 3.2335000555159743e+00 1.6145561443089196e+01 
119 1 2 7.2535516155268209e-01 -1.5108125607167867e+03 1.0000000000000000e+00 1.3233900446044279e+01 3.2335000555159747e+00 1.6145561443089196e+01 
43 1 2 5.3158738613359517e+00 -1.0702054251477937e+03 1.0000000000000000e+00 6.8118948766520626e+00 4.6508077412818158e+00 1.6606994007072608e+01 
12 1 2 5.1612361059561787e+00 -1.3895866556746735e+03 1.0000000000000000e+00 6.7243223383548472e+00 4.9596031648312291e+00 1.6573141204697706e+01 
10 1 2 5.1222901212476710e+00 -1.0702647110621538e+03 1.0000000000000000e+00 6.8235900071001323e+00 4.8503093666081059e+00 1.6567632440187790e+01 
60 1 2 4.5772620343516426e+00 -1.1458596759829747e+03 1.0000000000000000e+00 6.9488050812525071e+00 4.3819885153990530e+00 1.6150801334405362e+01 
52 1 2 5.4125892992170064e+00 -1.0278192025540382e+03 1.0000000000000000e+00 6.7199422674549698e+00 4.1066067636853703e+00 1.6972157418998716e+01 
153 1 2 5.5189509259868554e+00 -8.4726256893608911e+02 1.0000000000000000e+00 6.6994175168725310e+00 4.2086140045267353e+00 1.6733902141664281e+01 
40 1 2 5.0457116469262555e+00 -1.6694550880276820e+03 1.0000000000000000e+00 6.8768046169389407e+00 4.9527297239893935e+00 1.6986112985754549e+01 
96 1 2 4.3521309693160926e-01 -1.0587606187961412e+03 1.0000000000000000e+00 1.3131047321058121e+01 9.4172254299070488e+00 1.6897822314548250e+01 
132 1 2 4.3521309693160926e-01 -1.0251080768475404e+03 1.0000000000000000e+00 1.3131047321058125e+01 9.4172254299070310e+00 1.6897822314548261e+01 
90 1 2 4.3521309693160926e-01 -1.0757303090662422e+03 1.0000000000000000e+00 1.3131047321058121e+01 9.4172254299070506e+00 1.6897822314548268e+01 
109 1 2 4.9577633085298354e+00 -9.6168941895930823e+02 1.0000000000000000e+00 1.2813936847126806e+01 1.7383434532343284e+01 8.0123493749319454e+00 
94 1 2 4.9631503018344354e+00 -1.0008865192911301e+03 1.0000000000000000e+00 1.2918509197881182e+01 1.7319636072446759e+01 7.9907635295413639e+00 
68 1 2 4.9702048292492753e+00 -1.5687714519532840e+03 1.0000000000000000e+00 1.2937815773351589e+01 1.7324261506895855e+01 7.9694098970833407e+00 
92 1 2 4.9823399328491558e+00 -1.3326791133160975e+03 1.0000000000000000e+00 1.3025088756417452e+01 1.7294506578514817e+01 8.0998702457963958e+00 
123 1 2 4.9766236044210217e+00 -1.0773976702501243e+03 1.0000000000000000e+00 1.3021636584718758e+01 1.7292811431141814e+01 8.1328753627297115e+00 
163 1 2 4.9640439791469895e+00 -1.1158907293425746e+03 1.0000000000000000e+00 1.3040654965556671e+01 1.7273896527561782e+01 8.1193158416861699e+00 
56 1 2 4.9711248266101062e+00 -9.3510560267666801e+02 1.0000000000000000e+00 1.3054833132406985e+01 1.7278832182046500e+01 8.1093072871432899e+00 
130 1 2 4.9651559028253907e+00 -9.2798153683156863e+02 1.0000000000000000e+00 1.3044358511623303e+01 1.7273313400158223e+01 8.1068824359466074e+00 
69 1 2 4.9676032917467685e+00 -1.4445513704453961e+03 1.0000000000000000e+00 1.3047890334593861e+01 1.7274356087003536e+01 8.0870239083548885e+00 
13 1 2 4.9643855333555278e+00 -1.3744353776985733e+03 1.0000000000000000e+00 1.3056531544414305e+01 1.7270907277815866e+01 8.1035059579979691e+00 
175 1 2 4.9685263896774021e+00 -1.3904973799428801e+03 1.0000000000000000e+00 1.3060068953373392e+01 1.7275035093813145e+01 8.1031707527394889e+00 
37 1 2 4.9740483332401793e+00 -1.3730520435320191e+03 1.0000000000000000e+00 1.3058770678377657e+01 1.7280050332632179e+01 8.0789521244254789e+00 
141 1 2 4.9681081790781203e+00 -1.0895079638408288e+03 1.0000000000000000e+00 1.3062339737568919e+01 1.7274151112591817e+01 8.0995551291924333e+00 
99 1 2 4.9681079355093969e+00 -1.1555883696118565e+03 1.0000000000000000e+00 1.3062340195157681e+01 1.7274150758589670e+01 8.0995542501769044e+00 
136 1 2 4.9681083150620413e+00 -1.1285320887380576e+03 1.0000000000000000e+00 1.3062339482112717e+01 1.7274151310229723e+01 8.0995556199298395e+00 
106 1 2 4.9681084120789372e+00 -1.2675782684541346e+03 1.0000000000000000e+00 1.3062339298722737e+01 1.7274151451421197e+01 8.0995559716034933e+00 
177 1 2 4.9681083237855290e+00 -1.1777187673335418e+03 1.0000000000000000e+00 1.3062339465663992e+01 1.7274151322918396e+01 8.0995556514939171e+00 
105 1 2 4.9681083670741044e+00 -1.3363964826534957e+03 1.0000000000000000e+00 1.3062339383965007e+01 1.7274151385896253e+01 8.0995558082330987e+00 
100 1 2 4.9681079051038308e+00 -1.3359502496311977e+03 1.0000000000000000e+00 1.3062340251350276e+01 1.7274150714552064e+01 8.0995541417266868e+00 
172 1 2 4.9681082057176322e+00 -1.2092917860270591e+03 1.0000000000000000e+00 1.3062339686677706e+01 1.7274151151449011e+01 8.0995552264915798e+00 
135 1 2 4.9681082178166580e+00 -1.2567160702903502e+03 1.0000000000000000e+00 1.3062339664244695e+01 1.7274151168985018e+01 8.0995552697510504e+00 
142 1 2 4.9681082564181400e+00 -1.3377124423099124e+03 1.0000000000000000e+00 1.3062339591785895e+01 1.7274151225078665e+01 8.0995554089773556e+00 
91 1 2 4.9673469334533751e+00 -1.2987191590411546e+03 1.0000000000000000e+00 1.3063489951610586e+01 1.7273189081665492e+01 8.0986125096418373e+00 
86 1 2 4.9669375911683913e+00 -1.6184147390615256e+03 1.0000000000000000e+00 1.3065058014681421e+01 1.7272430795649374e+01 8.0949670150943049e+00 
128 1 2 4.9695079220732827e+00 -1.1150403842878411e+03 1.0000000000000000e+00 1.3067167897015377e+01 1.7274978706272034e+01 8.0934457724363718e+00 
3 1 2 4.9683399707948999e+00 -1.3696367936719284e+03 1.0000000000000000e+00 1.3066437086331229e+01 1.7273794640996027e+01 8.0939523343375477e+00 
110 1 2 4.9715830739058973e+00 -1.5613964077316509e+03 1.0000000000000000e+00 1.3063616666407928e+01 1.7277482812948115e+01 8.0942155908991928e+00 
121 1 2 4.9652630240674460e+00 -1.5391618610146572e+03 1.0000000000000000e+00 1.3066605657683352e+01 1.7270332844006607e+01 8.0905264270567745e+00 
22 1 2 4.9632301254957669e+00 -1.2290243675298859e+03 1.0000000000000000e+00 1.3072990506361160e+01 1.7267573449865278e+01 8.0802356362391574e+00 
87 1 2 4.9690797598462932e+00 -1.2016400390033059e+03 1.0000000000000000e+00 1.3074791871756990e+01 1.7273714538897295e+01 8.0762273055151947e+00 
15 1 2 4.9668483855731944e+00 -1.1773339879580508e+03 1.0000000000000000e+00 1.3077684123210124e+01 1.7271259108290252e+01 8.0802899552362533e+00 
117 1 2 5.0773455317659710e+00 -1.0489482377551035e+03 1.0000000000000000e+00 1.3264458393732999e+01 1.9976837712780362e+01 7.7175587338370280e+00 
70 1 2 4.3521309693160926e-01 -9.4361201648062115e+02 1.0000000000000000e+00 8.9409535700737983e+00 1.6659287762046571e+01 1.2978804739668117e+01 
107 1 2 4.3521309693160926e-01 -1.2089005909216964e+03 1.0000000000000000e+00 8.9409535700738001e+00 1.6659287762046542e+01 1.2978804739668117e+01 
71 1 2 4.3521309693160926e-01 -1.1386492088245584e+03 1.0000000000000000e+00 8.9409535700737912e+00 1.6659287762046542e+01 1.2978804739668124e+01 
58 1 2 1.3056392907948278e+00 -1.2548807095256764e+03 1.0000000000000000e+00 1.0184406230934357e+01 1.2901014990401336e+01 1.4498046869715353e+01 
59 1 2 1.3056392907948278e+00 -1.3473863486745704e+03 1.0000000000000000e+00 1.0184406230934357e+01 1.2901014990401361e+01 1.4498046869715344e+01 
65 1 2 1.3056392907948278e+00 -1.4880781834014247e+03 1.0000000000000000e+00 1.0184406230934357e+01 1.2901014990401345e+01 1.4498046869715331e+01 
66 1 2 1.3056392907948278e+00 -1.2395360568748879e+03 1.0000000000000000e+00 1.0184406230934357e+01 1.2901014990401336e+01 1.4498046869715331e+01 
95 1 2 1.3056392907948278e+00 -1.5656729834493840e+03 1.0000000000000000e+00 1.0184406230934357e+01 1.2901014990401336e+01 1.4498046869715331e+01 
102 1 2 1.3056392907948278e+00 -1.6611527285639277e+03 1.0000000000000000e+00 1.0184406230934357e+01 1.2901014990401361e+01 1.4498046869715353e+01 
101 1 2 1.3056392907948278e+00 -1.3940858639816990e+03 1.0000000000000000e+00 1.0184406230934359e+01 1.2901014990401361e+01 1.4498046869715331e+01 
138 1 2 1.3056392907948278e+00 -1.3288741388721944e+03 1.0000000000000000e+00 1.0184406230934359e+01 1.2901014990401336e+01 1.4498046869715353e+01 
137 1 2 1.3056392907948278e+00 -1.2879535559126641e+03 1.0000000000000000e+00 1.0184406230934357e+01 1.2901014990401336e+01 1.4498046869715331e+01 
103 1 2 4.3521309693160926e-01 -9.3802132134720534e+02 1.0000000000000000e+00 1.0101509255448011e+01 1.7223417671246935e+01 1.8217776230191234e+01 
72 1 2 4.3521309693160926e-01 -8.4298176578167011e+02 1.0000000000000000e+00 1.0101509255448011e+01 1.7223417671246935e+01 1.8217776230191248e+01 
108 1 2 4.3521309693160926e-01 -1.0175029726126738e+03 1.0000000000000000e+00 1.0101509255448018e+01 1.7223417671246935e+01 1.8217776230191244e+01 
125 1 2 1.1605682584842913e+00 -1.1770498065320953e+03 1.0000000000000000e+00 1.6910206735924127e+01 7.4448166532579227e+00 1.2006087651759193e+01 
131 1 2 1.1605682584842913e+00 -1.1864904906293400e+03 1.0000000000000000e+00 1.6910206735924127e+01 7.4448166532579227e+00 1.2006087651759179e+01 
154 1 2 1.1605682584842913e+00 -1.2479143503287683e+03 1.0000000000000000e+00 1.6910206735924124e+01 7.4448166532579263e+00 1.2006087651759204e+01 
155 1 2 1.1605682584842913e+00 -1.2309966962238566e+03 1.0000000000000000e+00 1.6910206735924135e+01 7.4448166532579263e+00 1.2006087651759204e+01 
160 1 2 1.1605682584842913e+00 -1.5153380167011092e+03 1.0000000000000000e+00 1.6910206735924135e+01 7.4448166532579227e+00 1.2006087651759179e+01 
166 1 2 1.1605682584842913e+00 -1.5384947738830517e+03 1.0000000000000000e+00 1.6910206735924124e+01 7.4448166532579227e+00 1.2006087651759193e+01 
161 1 2 1.1605682584842913e+00 -1.3986123624015672e+03 1.0000000000000000e+00 1.6910206735924124e+01 7.4448166532579227e+00 1.2006087651759204e+01 
159 1 2 1.1605682584842913e+00 -1.4099788228742843e+03 1.0000000000000000e+00 1.6910206735924135e+01 7.4448166532579227e+00 1.2006087651759193e+01 
150 1 2 1.0154972261737549e+00 -1.3574998218936994e+03 1.0000000000000000e+00 1.6876345025846401e+01 5.1661892938377596e+00 1.8251755711683892e+01 
156 1 2 1.0154972261737549e+00 -1.3274593716696991e+03 1.0000000000000000e+00 1.6876345025846401e+01 5.1661892938377552e+00 1.8251755711683892e+01 
126 1 2 1.0154972261737549e+00 -1.4206102397428840e+03 1.0000000000000000e+00 1.6876345025846401e+01 5.1661892938377552e+00 1.8251755711683892e+01 
115 1 2 1.0154972261737549e+00 -1.3000862890624021e+03 1.0000000000000000e+00 1.6876345025846401e+01 5.1661892938377560e+00 1.8251755711683892e+01 
157 1 2 1.0154972261737549e+00 -1.4115525718026693e+03 1.0000000000000000e+00 1.6876345025846401e+01 5.1661892938377552e+00 1.8251755711683892e+01 
162 1 2 1.0154972261737549e+00 -1.4410895059901945e+03 1.0000000000000000e+00 1.6876345025846401e+01 5.1661892938377560e+00 1.8251755711683892e+01 
151 1 2 1.0154972261737549e+00 -1.2289390756486191e+03 1.0000000000000000e+00 1.6876345025846401e+01 5.1661892938377507e+00 1.8251755711683892e+01 
46 1 2 4.7679277328761902e+00 -1.1306447962405828e+03 1.0000000000000000e+00 1.3349774649881944e+01 1.7641639860358804e+01 8.6064152410468893e+00 
31 1 2 4.8535438711049377e+00 -1.5054600305631586e+03 1.0000000000000000e+00 1.3755865702089274e+01 1.9885290928673566e+01 7.9699155032754438e+00 
145 1 2 4.8988044235282544e+00 -6.7353184243888711e+02 1.0000000000000000e+00 1.3767912989329625e+01 1.9400193463911553e+01 8.2594461331461897e+00 
171 1 2 5.0346757825030064e+00 -1.0805182647540062e+03 1.0000000000000000e+00 1.3679469961342519e+01 1.9353614413630297e+01 8.2591528119592912e+00 
178 1 2 4.3521309693160926e-01 -9.4994804523630989e+02 1.0000000000000000e+00 1.7728781890035346e+01 1.9554197417873279e+01 1.1813714371021927e+01 
148 1 2 4.3521309693160926e-01 -1.2192864450873922e+03 1.0000000000000000e+00 1.7728781890035346e+01 1.9554197417873279e+01 1.1813714371021927e+01 
149 1 2 4.3521309693160926e-01 -1.0646693121412304e+03 1.0000000000000000e+00 1.7728781890035346e+01 1.9554197417873279e+01 1.1813714371021931e+01 
167 1 2 4.3521309693160926e-01 -1.0182832776354542e+03 1.0000000000000000e+00 1.7992938091292057e+01 1.1937719835489240e+01 1.5742664773189913e+01 
168 1 2 4.3521309693160926e-01 -1.1626594132103874e+03 1.0000000000000000e+00 1.7992938091292057e+01 1.1937719835489228e+01 1.5742664773189913e+01 
174 1 2 4.3521309693160926e-01 -1.0484182016106986e+03 1.0000000000000000e+00 1.7992938091292046e+01 1.1937719835489233e+01 1.5742664773189913e+01 
180 1 2 7.2535516155268209e-01 -1.1302991785305485e+03 1.0000000000000000e+00 1.6589646750882245e+01 1.6467201262007769e+01 1.4474249966839951e+01 
144 1 2 7.2535516155268209e-01 -1.1561550596412962e+03 1.0000000000000000e+00 1.6589646750882231e+01 1.6467201262007769e+01 1.4474249966839954e+01 
143 1 2 7.2535516155268209e-01 -1.2503118375159170e+03 1.0000000000000000e+00 1.6589646750882228e+01 1.6467201262007769e+01 1.4474249966839951e+01 
173 1 2 7.2535516155268209e-01 -1.2176477726667981e+03 1.0000000000000000e+00 1.6589646750882245e+01 1.6467201262007801e+01 1.4474249966839951e+01 
179 1 2 7.2535516155268209e-01 -1.2192624362694964e+03 1.0000000000000000e+00 1.6589646750882217e+01 1.6467201262007777e+01 1.4474249966839945e+01 

Velocities

1 2.6754366933684293e-01 -7.7767823236082431e-02 -4.7689644164193176e-02
36 2.6754366934759821e-01 -7.7767823233809708e-02 -4.7689644149254279e-02
6 2.6754366935870705e-01 -7.7767823232747113e-02 -4.7689644130739617e-02
64 4.8244849620201577e-02 -3.5643829189860238e-01 9.4704801572955702e-02
139 -8.2294445081413226e-01 -1.0868520733693129e-01 -6.8383049717723654e-01
45 1.8763058439594624e-01 1.4487680014871804e-01 5.6685491901031414e-02
55 -2.1150129425445155e-01 -5.2861254638083188e-01 2.3949991933002332e-01
44 1.0412696886367238e-01 -6.4666677768021674e-01 4.9028814921209896e-01
79 1.9769136989309694e-01 5.6761011647025605e-01 -1.8755538880730643e-01
19 6.6121851995104597e-01 -3.4059570368996006e-01 -5.7131355692127062e-01
80 4.3871728954060851e-01 1.0312898603313078e-01 -2.8769263235235187e-01
147 -1.0638633914761462e+00 -4.9997499423064312e-01 1.8859917233009721e-01
63 -5.6243826469818903e-01 2.7692481140215158e-01 2.8291026027161220e-01
176 1.0384414626779120e-02 -1.1235154358818480e-01 -2.3751971221835824e-01
152 4.7628124960337698e-01 -7.7220986038685746e-01 -1.1473372096686181e+00
38 -4.1874909528138266e-01 -4.7821921454654796e-02 -2.7107667274609459e-01
32 4.9004687435148950e-02 -9.2370118652048513e-02 -1.9880301808399564e-01
14 -5.4436757257931789e-01 -2.6282098306686819e-01 4.0806865137869258e-01
146 -8.7408717014046941e-02 6.4185537159109152e-01 -6.9271885584928722e-02
18 1.0381592257779484e-01 8.6235086132046535e-01 -4.4382557215727020e-01
27 4.8744764520940431e-01 -4.7647477165981569e-02 6.1138269289450063e-02
7 -1.1652480044542694e-01 2.7994274545970349e-01 -4.5326986519579206e-02
81 1.7839174579920272e-01 -5.9272818001960124e-02 2.5176697129932984e-01
41 1.8000752246020446e-01 -8.3185451121502677e-02 1.4967079080719477e-02
2 7.7330691645910654e-01 2.3270885667870342e-01 -5.2876770187033795e-01
26 -1.3341434280575441e-03 2.9333504005982841e-01 -1.6728340609026715e-01
57 2.8042006038952305e-01 2.0218589532364609e-01 4.4867424289027696e-01
50 -4.6776431637277321e-02 -1.6020112038499668e-02 1.8728043730226410e-01
4 4.3463462561171240e-01 -3.1129117046511570e-02 3.3591506136439735e-02
16 -1.6358854585592555e-01 7.1935209510333123e-02 3.6956833416062723e-01
5 1.7707264405522427e-01 -8.2798383738700895e-02 1.3684034281945805e-02
42 1.8000764253574433e-01 -8.3185466975558148e-02 1.4967132813646025e-02
17 -1.6358855233041991e-01 7.1935240391205676e-02 3.6956837376047180e-01
11 -1.6358854683193938e-01 7.1935215033619257e-02 3.6956834145259809e-01
47 -1.6358857057028531e-01 7.1935327971794444e-02 3.6956848619166272e-01
33 1.2482497915367534e-01 -1.0335750925845945e-01 -1.0688325861036074e-01
54 -6.7424489410425184e-02 1.0567469416195810e-01 -2.4544478420673654e-01
20 1.0378555996140022e-01 4.6513749901547136e-02 -1.0250515197776010e-01
53 -1.6358857614692346e-01 7.1935354488634515e-02 3.6956852017346215e-01
34 -2.3439790284323156e-01 1.2316748999854212e+00 3.8054954985841655e-01
9 -8.5440215466236702e-02 1.6097578828083298e-01 -1.1130311615544558e-01
61 -2.8887212158518344e-01 -3.1953471134721961e-01 1.5641888215318286e-01