LAMMPS data file via write_data, version 30 Jul 2016, timestep = 100000000

622 atoms
2 atom types

0.0000000000000000e+00 2.0000000000000000e+01 xlo xhi
0.0000000000000000e+00 2.0000000000000000e+01 ylo yhi
0.0000000000000000e+00 2.0000000000000000e+01 zlo zhi

Masses

1 4.31
2 3.896

Atoms # meso-molecular

278 0 1 1.0279915772918773e+00 -4.7672826885030615e+00 1.0000000000000000e+00 6.0811671214705889e+00 8.7006260102462178e+00 5.0365784483289371e+00 
532 0 1 1.0279915764909902e+00 -4.6448138152537993e+01 1.0000000000000000e+00 6.0810962169497476e+00 8.7008207363375760e+00 5.0365514656606880e+00 
153 0 1 1.0279915759568101e+00 -5.3322231317902379e+01 1.0000000000000000e+00 6.0811376514815914e+00 8.7007036996585914e+00 5.0365683616450996e+00 
531 0 1 1.0279915770617323e+00 -3.0523230840043855e+01 1.0000000000000000e+00 6.0811331326116207e+00 8.7006423312453904e+00 5.0365925967530467e+00 
467 0 1 1.0279915761817362e+00 -1.6174656377665812e+01 1.0000000000000000e+00 6.0811643632159651e+00 8.7005165413079446e+00 5.0366185781688966e+00 
517 0 1 1.0279915760451299e+00 -2.9970255992119199e+01 1.0000000000000000e+00 6.0811784018802957e+00 8.7005095711547025e+00 5.0366128151004199e+00 
563 0 1 1.0279915774093671e+00 -4.7400950975992210e+01 1.0000000000000000e+00 6.0814370624585878e+00 8.7005516168990393e+00 5.0364467150439918e+00 
160 0 1 1.0279915757099356e+00 -4.9631636440356708e+01 1.0000000000000000e+00 6.0810629465108166e+00 8.7007076289387069e+00 5.0366107026593738e+00 
284 0 1 1.0279966758072119e+00 -6.9858991069787821e+00 1.0000000000000000e+00 4.7199267013052220e+00 6.0282941258341278e+00 7.8744789335124414e+00 
221 0 1 1.0279967056300319e+00 -1.3097969530585164e+01 1.0000000000000000e+00 4.7158998922121853e+00 6.0302364507565676e+00 7.8809737271745437e+00 
562 0 1 1.0279967173192315e+00 -5.2801750967969014e+01 1.0000000000000000e+00 4.7160409706999120e+00 6.0315242992749019e+00 7.8800373884415800e+00 
336 0 1 1.0279966486848833e+00 -5.2145699215737245e+01 1.0000000000000000e+00 4.7222952681141308e+00 6.0260895567067978e+00 7.8712907466031812e+00 
558 0 1 1.0279967482088312e+00 -3.5193348094626238e+01 1.0000000000000000e+00 4.7131148440565278e+00 6.0338716477667731e+00 7.8843749914337700e+00 
570 0 1 1.0279968284088374e+00 -5.3559094979055487e+01 1.0000000000000000e+00 4.7077372221862310e+00 6.0402650564059419e+00 7.8915326422455543e+00 
624 0 1 1.0280056703963392e+00 -7.0735917285269608e+01 1.0000000000000000e+00 5.7491467736821651e+00 5.7047116970406506e+00 9.0223604269241271e+00 
479 0 1 1.0280017839135032e+00 -3.4251671508911102e+01 1.0000000000000000e+00 5.8233231313472515e+00 5.5332345000046690e+00 8.6713000522965888e+00 
572 0 1 1.0280025414006713e+00 -6.2678627304356198e+01 1.0000000000000000e+00 4.7501393476218308e+00 5.9272341364334054e+00 8.5871851856338388e+00 
251 0 1 1.0280030224427026e+00 -3.5508600082187968e+01 1.0000000000000000e+00 6.1780752394792229e+00 5.5692665146533153e+00 8.3929573391985723e+00 
271 0 1 1.0280009893997315e+00 -7.6871716592979560e+00 1.0000000000000000e+00 6.2600283069737026e+00 5.9758754970413479e+00 7.5863044787529326e+00 
524 0 1 1.0280026048656234e+00 -4.1212828974168922e+01 1.0000000000000000e+00 3.0824919543563150e+00 9.8363574240772120e+00 9.9451158104884847e+00 
332 0 1 1.0280175138582768e+00 -2.1048049073059101e+01 1.0000000000000000e+00 5.1843460734275029e+00 8.6789457833914305e+00 9.2024346906556822e+00 
634 0 1 1.0280030361785906e+00 -3.8102354428875699e+01 1.0000000000000000e+00 5.9330501442476189e+00 8.1552138555184985e+00 7.1832112724235930e+00 
249 0 1 1.0278452029884175e+00 -2.0464790978141615e+01 1.0000000000000000e+00 5.8963130551775125e+00 8.0585351818188595e+00 9.9257669331337848e+00 
163 0 1 1.0274940292600705e+00 -6.9308598726315296e+01 1.0000000000000000e+00 5.8412341095326425e+00 8.0350025274174772e+00 9.9487525891379729e+00 
315 0 1 1.0280063690214589e+00 -4.6893815760417141e+01 1.0000000000000000e+00 5.0430104519737906e+00 6.3590008744180979e+00 1.2486128469070731e+01 
285 0 1 1.0280064710951753e+00 -1.0043965697251190e+01 1.0000000000000000e+00 5.0406124304794684e+00 6.3612036905031735e+00 1.2482237528954418e+01 
429 0 1 1.0280059540462945e+00 -1.6238354439962791e+01 1.0000000000000000e+00 5.0499658276734536e+00 6.3535901073104917e+00 1.2503226887692307e+01 
63 0 1 1.0280060916350167e+00 -4.3671465330687134e+01 1.0000000000000000e+00 5.0471946090185025e+00 6.3558472130053385e+00 1.2497828145640478e+01 
372 0 1 1.0280064403784042e+00 -3.5186451076491117e+01 1.0000000000000000e+00 5.0417576633727901e+00 6.3600514451060866e+00 1.2483170085675013e+01 
6 0 1 1.0280059721290502e+00 -7.6351059629569932e+01 1.0000000000000000e+00 5.0493931140150785e+00 6.3541189590101004e+00 1.2502635561199998e+01 
65 0 1 1.0280059749800738e+00 -4.0474131615124172e+01 1.0000000000000000e+00 5.0495177826246005e+00 6.3539591554515260e+00 1.2502421823858368e+01 
14 0 1 1.0280062825201923e+00 -8.5336640295362542e+01 1.0000000000000000e+00 5.0433686114931744e+00 6.3590641086625759e+00 1.2490254030399710e+01 
328 0 1 1.0279957109139790e+00 -5.3158447213032161e+01 1.0000000000000000e+00 3.2483842522494468e+00 9.8466830449500442e+00 1.0317251721428244e+01 
326 0 1 1.0279997324895394e+00 -5.3975892086773015e+01 1.0000000000000000e+00 3.1236965544306918e+00 9.8693608362900651e+00 1.0080913935747354e+01 
580 0 1 1.0279955530045575e+00 -5.3236868430977530e+01 1.0000000000000000e+00 3.3024409935326129e+00 9.7773430707305700e+00 1.0369890566566649e+01 
557 0 1 1.0279955843114066e+00 -3.6015121977535514e+01 1.0000000000000000e+00 3.3035302686178145e+00 9.7743793335343110e+00 1.0369963341301634e+01 
97 0 1 1.0279954908474285e+00 -5.2597387123171970e+01 1.0000000000000000e+00 3.3070186867541844e+00 9.7748233131935987e+00 1.0375350185591005e+01 
327 0 1 1.0279954251329992e+00 -4.9450322748793297e+01 1.0000000000000000e+00 3.3118179028151422e+00 9.7723408842004336e+00 1.0381086485388739e+01 
129 0 1 1.0280306184917800e+00 -2.2607769184787561e+01 1.0000000000000000e+00 5.6005049462407372e+00 8.5512039180181372e+00 1.0757888318044039e+01 
412 0 1 1.0278607374129061e+00 -3.7059622571106338e+01 1.0000000000000000e+00 5.7113008571823176e+00 9.0349908768279104e+00 1.1211458016199394e+01 
189 0 1 1.0286253001093693e+00 -4.3014536158336298e+01 1.0000000000000000e+00 5.6007917783843331e+00 7.6284555300422232e+00 1.0229046493469744e+01 
311 0 1 1.0280127038765534e+00 -1.6791034238854849e+01 1.0000000000000000e+00 5.2983805786824556e+00 9.9286894212309331e+00 1.4671985801616168e+01 
165 0 1 1.0280039101867526e+00 -5.4011142507821525e+01 1.0000000000000000e+00 5.9837716282113469e+00 7.4769402775423410e+00 1.3566201099901271e+01 
500 0 1 1.0280390506496697e+00 -3.7011757591427966e+01 1.0000000000000000e+00 6.3288725411536744e+00 9.6057436904005016e+00 1.3828176254285843e+01 
377 0 1 1.0280036408033146e+00 -2.5879592040345567e+01 1.0000000000000000e+00 6.0525776851836035e+00 7.4887013068381112e+00 1.3588240386961081e+01 
113 0 1 1.0279966501012718e+00 -5.4954250120611370e+01 1.0000000000000000e+00 5.9237021827232015e+00 1.0296137622798057e+01 6.1195172355654250e+00 
302 0 1 1.0280136229603511e+00 -4.2220737483350320e+01 1.0000000000000000e+00 3.1959813494915990e+00 1.0211869420340840e+01 8.4638475752388214e+00 
371 0 1 1.0280133597981178e+00 -2.2015760244345074e+01 1.0000000000000000e+00 3.2080423104518583e+00 1.0237294897172948e+01 8.4374078573768134e+00 
279 0 1 1.0279920505385882e+00 -2.0675930093842265e+01 1.0000000000000000e+00 4.3890029086139641e+00 1.0772780588831202e+01 7.4175557462797510e+00 
350 0 1 1.0279899317159165e+00 -3.9138227839596944e+01 1.0000000000000000e+00 4.5631380904208232e+00 1.0883953419198280e+01 7.4003117163563106e+00 
47 0 1 1.0279921385453479e+00 -4.1936479611165005e+01 1.0000000000000000e+00 4.3828057554574178e+00 1.0771707263434491e+01 7.4201666832548341e+00 
217 0 1 1.0279920601328898e+00 -4.9124060191411246e+01 1.0000000000000000e+00 4.3882548851055425e+00 1.0772336844195253e+01 7.4177145084265659e+00 
87 0 1 1.0279924898746453e+00 -4.7399384690483153e+01 1.0000000000000000e+00 4.3600487291951007e+00 1.0767583857013548e+01 7.4298345235041703e+00 
28 0 1 1.0279917950792563e+00 -7.7606628655163249e+01 1.0000000000000000e+00 4.4071509297421994e+00 1.0774850685466873e+01 7.4094847576912919e+00 
58 0 1 1.0281922548717319e+00 -4.3195757298276021e+01 1.0000000000000000e+00 6.4439311432969744e+00 1.1280387546158719e+01 7.6860920715301129e+00 
644 0 1 1.0280100188681851e+00 -7.5397358904365220e+01 1.0000000000000000e+00 3.3908244952632711e+00 1.0402772132689959e+01 8.1467204870883947e+00 
193 0 1 1.0279399239179172e+00 -1.2496011414469532e+01 1.0000000000000000e+00 4.7657804613611470e+00 1.1487723694534481e+01 9.7452607385490424e+00 
182 0 1 1.0279821165182366e+00 -3.2972972233025253e+01 1.0000000000000000e+00 5.5979390846662760e+00 1.3130889328061185e+01 9.9645347806207525e+00 
571 0 1 1.0280075132716131e+00 -5.0627147961218036e+01 1.0000000000000000e+00 5.0031670966538266e+00 1.4880926370891217e+01 6.9786659229857904e+00 
75 0 1 1.0280074899012657e+00 -4.4724621968691039e+01 1.0000000000000000e+00 5.0632982311156969e+00 1.5141772146395553e+01 7.3122751980542162e+00 
614 0 1 1.0280075063670682e+00 -3.1422533585737867e+01 1.0000000000000000e+00 5.0029184678506597e+00 1.4880367230362319e+01 6.9787019814384594e+00 
481 0 1 1.0280075108272080e+00 -2.6626765864511118e+01 1.0000000000000000e+00 5.0029689248298252e+00 1.4880605153221630e+01 6.9787545159086157e+00 
376 0 1 1.0279577469263710e+00 -1.3235609181047300e+01 1.0000000000000000e+00 5.7205619066690039e+00 1.4133952085883040e+01 8.9099159622044990e+00 
352 0 1 1.0280075614506512e+00 -2.5378020288584761e+01 1.0000000000000000e+00 5.0034475845101518e+00 1.4883596554780294e+01 6.9796228123624946e+00 
273 0 1 1.0280075057436011e+00 -4.1098390847899793e+01 1.0000000000000000e+00 5.0028496617722702e+00 1.4880343989233774e+01 6.9787753850357754e+00 
430 0 1 1.0280075258444612e+00 -1.1637796635077875e+01 1.0000000000000000e+00 5.0030766930649371e+00 1.4881490643372031e+01 6.9790500841498719e+00 
299 0 1 1.0280075536282673e+00 -1.2576212054907222e+01 1.0000000000000000e+00 5.0033977660758895e+00 1.4883186189505231e+01 6.9794823811567328e+00 
459 0 1 1.0280075029052569e+00 -1.9019097234568367e+01 1.0000000000000000e+00 5.0029113746893916e+00 1.4880049766900449e+01 6.9785581910332244e+00 
337 0 1 1.0279966717410305e+00 -4.9992784796239846e+01 1.0000000000000000e+00 4.2431139076041324e+00 1.0763157780046358e+01 1.2641817528967744e+01 
441 0 1 1.0280008048752856e+00 -3.0091009120341152e+01 1.0000000000000000e+00 4.3094768291867407e+00 1.1046959088077188e+01 1.2715700473691923e+01 
460 0 1 1.0280007554802089e+00 -1.4040240870545514e+01 1.0000000000000000e+00 4.2725435411229356e+00 1.0986333226503278e+01 1.2729006978927234e+01 
496 0 1 1.0282456207675665e+00 -5.0201678944057022e+01 1.0000000000000000e+00 5.8785123679404307e+00 1.1338932590186271e+01 1.1166502282457168e+01 
529 0 1 1.0277800443503198e+00 -2.0004115106903047e+01 1.0000000000000000e+00 6.3309454943487706e+00 1.1875103827945646e+01 1.1651091330569608e+01 
586 0 1 1.0281122933662061e+00 -2.7857528899000989e+01 1.0000000000000000e+00 5.4060680795620106e+00 1.1496463191441419e+01 1.1599520103588574e+01 
582 0 1 1.0279864126155773e+00 -6.8581292963887492e+01 1.0000000000000000e+00 5.4269541602216833e+00 1.3040540612621518e+01 1.0185819913212555e+01 
197 0 1 1.0279862454801878e+00 -3.2910202293798228e+01 1.0000000000000000e+00 4.4565737897840298e+00 1.3668913088698902e+01 1.1045701362179386e+01 
579 0 1 1.0279881865299614e+00 -3.4898836152379310e+01 1.0000000000000000e+00 4.3954760640904542e+00 1.3694203762696826e+01 1.1284577017186635e+01 
206 0 1 1.0280049856624220e+00 -1.6748382610459402e+01 1.0000000000000000e+00 4.9569449406679755e+00 1.5493663906411202e+01 1.1931637439078578e+01 
394 0 1 1.0280049793532440e+00 -3.5688265802239101e+01 1.0000000000000000e+00 4.9582098351508366e+00 1.5494062452614820e+01 1.1931991807231809e+01 
385 0 1 1.0280049840343439e+00 -2.0587450926601033e+01 1.0000000000000000e+00 4.9573641941045974e+00 1.5493835054859092e+01 1.1931671381711507e+01 
143 0 1 1.0280049793449746e+00 -2.4014864293011289e+01 1.0000000000000000e+00 4.9587322419928235e+00 1.5494424607828307e+01 1.1931713072390322e+01 
568 0 1 1.0280049852761604e+00 -9.8126148940822148e+01 1.0000000000000000e+00 4.9569818767354841e+00 1.5493666227635565e+01 1.1931667840571560e+01 
54 0 1 1.0279925871272901e+00 -3.7308732386505838e+01 1.0000000000000000e+00 4.2426939231603429e+00 1.4199054774191779e+01 1.1327217693726658e+01 
36 0 1 1.0280040300013207e+00 -4.7848065129861261e+01 1.0000000000000000e+00 5.0156921607529696e+00 1.5455640542821270e+01 1.2048657838643150e+01 
591 0 1 1.0279922046367234e+00 -3.1734553359675882e+01 1.0000000000000000e+00 4.2492708061582158e+00 1.4161533888847321e+01 1.1326910131627699e+01 
480 0 1 1.0279926527362511e+00 -3.1356031575254669e+01 1.0000000000000000e+00 4.2427662828579278e+00 1.4230232923551489e+01 1.1285642890006553e+01 
90 0 1 1.0279886869507411e+00 -6.2958304219242422e+01 1.0000000000000000e+00 6.3563235947948957e+00 1.4814543598817792e+01 1.0030174714384492e+01 
333 0 1 1.0279966197620967e+00 -2.6313390759406175e+01 1.0000000000000000e+00 6.6439726495783153e+00 1.4745479909648655e+01 1.2887273488939286e+01 
313 0 1 1.0281389938658152e+00 -2.1867089546884365e+01 1.0000000000000000e+00 6.3207630863207660e+00 1.2367155819850092e+01 1.3385693316900232e+01 
310 0 1 1.0279999890651284e+00 -2.6693244274521891e+01 1.0000000000000000e+00 3.9746539651969433e+00 1.0630097087095015e+01 1.4508977634328364e+01 
434 0 1 1.0279999877809975e+00 -4.3797538889017183e+01 1.0000000000000000e+00 3.9747122912977346e+00 1.0630391608109447e+01 1.4509077060995420e+01 
295 0 1 1.0279999858009481e+00 -2.4522645012046446e+01 1.0000000000000000e+00 3.9747842139975242e+00 1.0630825523856270e+01 1.4509202455686795e+01 
347 0 1 1.0279999847303025e+00 -3.8284363758497073e+00 1.0000000000000000e+00 3.9748858945427186e+00 1.0631252871934803e+01 1.4509371039530105e+01 
92 0 1 1.0279999796268602e+00 -5.4164041955121199e+01 1.0000000000000000e+00 3.9753581713336574e+00 1.0632733147854637e+01 1.4510128265212874e+01 
465 0 1 1.0279999841913747e+00 -1.4189644530592201e+01 1.0000000000000000e+00 3.9749085094473773e+00 1.0631335132687299e+01 1.4509407928959256e+01 
230 0 1 1.0279999834669564e+00 -3.4043205766352450e+01 1.0000000000000000e+00 3.9754020700384092e+00 1.0631583534813002e+01 1.4510146265134772e+01 
387 0 1 1.0280131141714337e+00 -1.2806686821008803e+01 1.0000000000000000e+00 5.5858566284239926e+00 1.0031146416312188e+01 1.4713032835749289e+01 
543 0 1 1.0279992879195679e+00 -2.4349720375929980e+01 1.0000000000000000e+00 6.1173975444829436e+00 1.3471766555895879e+01 1.5650771689052222e+01 
253 0 1 1.0279991029569431e+00 -3.6528407690836630e+01 1.0000000000000000e+00 6.1348654216718757e+00 1.3513639088847903e+01 1.5582798785177534e+01 
513 0 1 1.0279952572423756e+00 -4.3291859354022435e+01 1.0000000000000000e+00 6.4336623177972836e+00 1.3801157865983548e+01 1.4596534109045932e+01 
127 0 1 1.0279986410287616e+00 -5.6572015905935373e+01 1.0000000000000000e+00 6.2020915902003129e+00 1.3632858586072448e+01 1.5340490338445925e+01 
395 0 1 1.0279993074863649e+00 -2.6054391789264233e+01 1.0000000000000000e+00 6.1263729278503885e+00 1.3472405141432954e+01 1.5678958036128616e+01 
526 0 1 1.0279991237622750e+00 -5.3546747558195356e+01 1.0000000000000000e+00 6.1324334891662362e+00 1.3507919050530012e+01 1.5592925849968088e+01 
282 0 1 1.0279898124389708e+00 -1.4457000659622222e+01 1.0000000000000000e+00 6.4821712948017636e+00 1.3761199108319270e+01 1.4341819194841250e+01 
431 0 1 1.0279719267745122e+00 -1.8695304403308612e+01 1.0000000000000000e+00 6.5322409358878417e+00 1.3573170697508949e+01 1.3976411198614429e+01 
287 0 1 1.0280001337978899e+00 -4.4299501531992505e+01 1.0000000000000000e+00 6.5102105840264510e+00 1.2052037101161659e+01 1.6869020016525521e+01 
498 0 1 1.0279951284317586e+00 -5.4274653213498112e+01 1.0000000000000000e+00 1.0236818998567518e+01 8.6964686611490780e+00 3.1622830712278867e+00 
539 0 1 1.0279952179386060e+00 -5.5572976343013842e+01 1.0000000000000000e+00 1.0249242926878750e+01 8.6816006703381046e+00 3.1564423877984744e+00 
338 0 1 1.0279959731149260e+00 -2.2427064166596086e+01 1.0000000000000000e+00 1.0329539180409281e+01 8.5708540897923893e+00 3.1251910088457402e+00 
110 0 1 1.0279949430600639e+00 -2.7425227285226018e+01 1.0000000000000000e+00 1.0208018455172400e+01 8.9206620071067082e+00 3.2643780019081934e+00 
471 0 1 1.0280009694581267e+00 -2.7242465594246106e+01 1.0000000000000000e+00 9.0725010142352591e+00 5.1940902860866052e+00 5.9357318947070032e+00 
623 0 1 1.0280009700185229e+00 -7.1012454591833006e+01 1.0000000000000000e+00 9.0727631410091067e+00 5.1946328787523672e+00 5.9351151490697704e+00 
243 0 1 1.0280009756600310e+00 -4.4182388463026527e+01 1.0000000000000000e+00 9.0752011749426593e+00 5.2001168161402758e+00 5.9290827312031604e+00 
31 0 1 1.0280009609812044e+00 -3.5899155892397332e+01 1.0000000000000000e+00 9.1015030175968672e+00 5.1491355393147460e+00 5.9582715802602930e+00 
493 0 1 1.0280009480800911e+00 -3.8319150860931444e+01 1.0000000000000000e+00 9.1153108712841941e+00 5.1362240907258103e+00 5.9625864458998583e+00 
308 0 1 1.0280008886939414e+00 -2.2055913656114907e+01 1.0000000000000000e+00 9.0610462084766414e+00 5.1458224384960793e+00 5.9879829401844527e+00 
133 0 1 1.0280008614508409e+00 -3.8046976991970560e+01 1.0000000000000000e+00 9.0540465167654638e+00 5.1123589662319446e+00 6.0301784314374762e+00 
422 0 1 1.0280009802390573e+00 -3.3013014123119952e+01 1.0000000000000000e+00 9.1917522726415193e+00 5.1280363637592092e+00 5.9302872130087865e+00 
547 0 1 1.0282847398383634e+00 -4.3200171474686833e+01 1.0000000000000000e+00 8.8785011993895662e+00 9.6425182111169683e+00 5.8750362566135799e+00 
356 0 1 1.0279936172010129e+00 -2.4129610307318003e+01 1.0000000000000000e+00 9.4765788629264573e+00 8.0675958248185733e+00 4.0123427760431793e+00 
179 0 1 1.0278262795642790e+00 -2.1400824029758908e+01 1.0000000000000000e+00 8.9309005249469475e+00 9.4863595165695767e+00 5.4816939996018901e+00 
117 0 1 1.0280139594697046e+00 -1.6535778555718711e+01 1.0000000000000000e+00 8.0807239156985471e+00 9.2968380878049537e+00 5.1915936497131492e+00 
475 0 1 1.0279950691212423e+00 -3.9895363257979682e+01 1.0000000000000000e+00 1.0120149998831858e+01 9.0421452014030930e+00 3.3562096196633542e+00 
40 0 1 1.0280033700251843e+00 -3.6104591053765198e+01 1.0000000000000000e+00 1.0657198641895258e+01 7.7203183453533413e+00 3.5081466838848545e+00 
390 0 1 1.0280033173769021e+00 -8.4616813750745248e+00 1.0000000000000000e+00 1.0651692074325652e+01 7.7189098605987674e+00 3.5079804130166949e+00 
504 0 1 1.0280314505296804e+00 -3.4246884915463369e+01 1.0000000000000000e+00 1.0175774230721419e+01 6.9860782293243311e+00 6.0976746644255764e+00 
564 0 1 1.0280007498737387e+00 -4.8913985355459779e+01 1.0000000000000000e+00 1.0309871429861515e+01 7.3781014825912905e+00 4.4292125633619204e+00 
577 0 1 1.0280036811314419e+00 -4.6169362928820348e+01 1.0000000000000000e+00 1.0580046054229017e+01 7.5787498340678843e+00 3.7114662412038730e+00 
274 0 1 1.0280283183780730e+00 -3.9311284071842032e+01 1.0000000000000000e+00 1.2351355432930768e+01 7.9011825632051087e+00 5.9496355085651702e+00 
192 0 1 1.0280314570771645e+00 -1.9472524149890202e+01 1.0000000000000000e+00 1.2301045167817485e+01 7.9162029725260297e+00 5.9637657470312444e+00 
71 0 1 1.0280327777503990e+00 -7.6496390597270960e+01 1.0000000000000000e+00 1.2282532454814907e+01 7.9222626622230026e+00 5.9641248534073226e+00 
157 0 1 1.0280070164215935e+00 -3.6962299716186799e+01 1.0000000000000000e+00 1.1171137219017730e+01 7.9532326007190086e+00 3.6221137858990167e+00 
124 0 1 1.0280065058873329e+00 -2.3969000085368020e+01 1.0000000000000000e+00 1.3216791102717258e+01 9.4689179744171774e+00 4.7273085435049911e+00 
629 0 1 1.0280001724735552e+00 -3.3274019869938314e+01 1.0000000000000000e+00 8.6987283628540748e+00 4.5050781364458574e+00 9.5739643610137435e+00 
537 0 1 1.0279843086690943e+00 -2.7548602979880854e+01 1.0000000000000000e+00 9.0683489103998909e+00 5.4734511247723070e+00 7.9791754314286472e+00 
101 0 1 1.0285764722629216e+00 -2.1530090050179794e+01 1.0000000000000000e+00 8.0269982147094137e+00 6.4698257722331123e+00 8.8819515254240340e+00 
550 0 1 1.0275216094182558e+00 -2.5441978479738445e+01 1.0000000000000000e+00 8.0861291942407796e+00 6.5749611037076416e+00 9.1155447354108823e+00 
329 0 1 1.0278918116089937e+00 -6.7856968495850182e+01 1.0000000000000000e+00 7.8030338306468847e+00 6.5586029218993698e+00 7.3236162490187890e+00 
171 0 1 1.0279977184116651e+00 -3.0060951990228300e+01 1.0000000000000000e+00 1.2086474186229138e+01 4.6536120898822233e+00 6.8657926698338789e+00 
391 0 1 1.0279725886314515e+00 -2.2191509089841343e+01 1.0000000000000000e+00 1.0204630181046738e+01 5.7609726017486027e+00 7.9807584088818713e+00 
616 0 1 1.0279976197791305e+00 -4.5898472543619768e+01 1.0000000000000000e+00 1.2084668586659456e+01 4.6673064473987989e+00 6.8542842467936165e+00 
592 0 1 1.0279976240925928e+00 -3.4275813174485982e+01 1.0000000000000000e+00 1.2085062245987404e+01 4.6673810285719943e+00 6.8541756879139131e+00 
602 0 1 1.0279976252918512e+00 -4.6250569327611466e+01 1.0000000000000000e+00 1.2085389712352994e+01 4.6678495906657647e+00 6.8537448339227174e+00 
425 0 1 1.0279976331312903e+00 -1.8223905847474125e+01 1.0000000000000000e+00 1.2086234412839369e+01 4.6682180773387367e+00 6.8533391224740283e+00 
458 0 1 1.0280031346327716e+00 -1.3437918516208446e+01 1.0000000000000000e+00 1.2898669173737735e+01 4.5589657785692177e+00 7.0772398826316758e+00 
495 0 1 1.0280034374474378e+00 -4.3368492727001389e+01 1.0000000000000000e+00 1.3074358021315014e+01 4.3679719595953781e+00 7.5118007603342702e+00 
16 0 1 1.0280005313296112e+00 -4.8548103963251755e+01 1.0000000000000000e+00 1.3177356959723911e+01 4.4069976076875550e+00 7.9814559667143792e+00 
62 0 1 1.0280005256208835e+00 -3.2628466984455137e+01 1.0000000000000000e+00 1.3178749623662783e+01 4.4075051822499489e+00 7.9786097880010383e+00 
98 0 1 1.0279301055571120e+00 -6.0925289099712202e+01 1.0000000000000000e+00 1.2708680552232595e+01 5.7913469828058979e+00 9.9763930798162885e+00 
342 0 1 1.0278924849923186e+00 -1.7155334629152279e+01 1.0000000000000000e+00 7.9650437999763186e+00 8.2247415766522316e+00 6.7236082573814251e+00 
509 0 1 1.0283755265558416e+00 -2.3309308151227363e+01 1.0000000000000000e+00 7.6285058031550133e+00 8.6042276714480916e+00 8.1687664175233365e+00 
53 0 1 1.0278786086225131e+00 -3.8760465010943300e+01 1.0000000000000000e+00 7.3387922785220319e+00 9.5589188882913341e+00 7.6794318710524365e+00 
166 0 1 1.0286118526239016e+00 -5.5051125773779788e+01 1.0000000000000000e+00 9.9033436851494976e+00 7.5534911588013323e+00 7.9488341311234025e+00 
227 0 1 1.0280063548613991e+00 -1.5253818185260350e+01 1.0000000000000000e+00 7.0388867970089501e+00 7.7980039766501559e+00 7.2850747135747378e+00 
151 0 1 1.0280311412680065e+00 -3.0587461055378235e+01 1.0000000000000000e+00 9.6914719048622260e+00 7.8453691450083580e+00 8.3227077656234858e+00 
155 0 1 1.0280666355538983e+00 -7.5465431762721153e+01 1.0000000000000000e+00 7.1123325004488658e+00 9.9821531920211068e+00 7.7123056005296471e+00 
312 0 1 1.0279623344166315e+00 -2.2482408648235594e+01 1.0000000000000000e+00 9.3141274034364443e+00 9.5433193573632629e+00 9.6936204296442980e+00 
25 0 1 1.0275793889158082e+00 -3.9226300975741765e+01 1.0000000000000000e+00 9.0379105262831487e+00 7.8320551549376907e+00 9.0342131141588915e+00 
158 0 1 1.0281294056657770e+00 -3.8517263016370009e+01 1.0000000000000000e+00 7.2091934409477689e+00 9.9197443488060486e+00 9.8186091359981891e+00 
245 0 1 1.0282244459384056e+00 -8.9047179064284549e+01 1.0000000000000000e+00 9.8395696653673195e+00 7.9368628482027033e+00 9.2619443603843141e+00 
116 0 1 1.0275573180553743e+00 -2.7772862026710474e+01 1.0000000000000000e+00 1.0003491867024398e+01 7.4222417427972962e+00 7.9096282917924867e+00 
232 0 1 1.0281026276786553e+00 -5.5280297651987432e+01 1.0000000000000000e+00 1.1643699307284988e+01 9.8636149130757804e+00 9.4303034572946167e+00 
203 0 1 1.0276760326756120e+00 -4.8517003197654468e+01 1.0000000000000000e+00 1.1062442117800783e+01 8.3578920109755011e+00 7.2685006507207364e+00 
367 0 1 1.0275752723175942e+00 -8.1968889753130831e+00 1.0000000000000000e+00 1.2118697097904613e+01 9.2622264453189871e+00 8.2333745369559441e+00 
306 0 1 1.0279492409063893e+00 -7.4174546608899181e+00 1.0000000000000000e+00 1.2886430145962466e+01 6.8124169337695690e+00 7.1984577521975686e+00 
134 0 1 1.0279260160756567e+00 -3.2470296125774865e+01 1.0000000000000000e+00 1.2408651293523899e+01 7.6972738111977703e+00 7.8695588387395086e+00 
183 0 1 1.0275917004339572e+00 -1.8498756800999026e+01 1.0000000000000000e+00 1.1789225957513267e+01 9.5978997482941537e+00 9.6833522392816604e+00 
32 0 1 1.0283731184462199e+00 -4.7897220933823654e+01 1.0000000000000000e+00 1.2564951768073300e+01 7.6207022561820921e+00 8.3762984170621184e+00 
340 0 1 1.0280026140250655e+00 -1.3888804949981077e+01 1.0000000000000000e+00 8.1947997389891221e+00 4.1538131350676606e+00 1.1075414047612860e+01 
552 0 1 1.0280025280632024e+00 -4.2790285808687941e+01 1.0000000000000000e+00 8.1737506117886998e+00 4.1787940873081029e+00 1.1090443844117191e+01 
3 0 1 1.0280025335550576e+00 -7.3006813467367749e+01 1.0000000000000000e+00 8.1735699871889462e+00 4.1814282567852752e+00 1.1094254395397893e+01 
613 0 1 1.0280026289660174e+00 -4.0124390185370096e+01 1.0000000000000000e+00 8.1970175171048378e+00 4.1535409479050331e+00 1.1077492513732935e+01 
275 0 1 1.0280015606621362e+00 -2.5128539986407851e+01 1.0000000000000000e+00 8.0968991319304067e+00 4.0794383938449803e+00 1.0603267877194012e+01 
400 0 1 1.0280017433274338e+00 -5.9531142087697539e+01 1.0000000000000000e+00 8.1181109611145335e+00 4.0775828413610302e+00 1.0744649375640016e+01 
505 0 1 1.0279981088250618e+00 -3.5280732715273004e+01 1.0000000000000000e+00 9.8325498337376711e+00 4.6615721059434083e+00 1.0398673200515297e+01 
420 0 1 1.0279438688090572e+00 -5.0971887338416941e+01 1.0000000000000000e+00 7.6991698807923061e+00 6.3937428626648165e+00 1.1153880364555086e+01 
487 0 1 1.0280015657428094e+00 -6.3159164520309169e+01 1.0000000000000000e+00 8.4918447332502023e+00 3.9947351127020654e+00 1.0178063582480787e+01 
417 0 1 1.0279970944791903e+00 -3.4056298713536052e+01 1.0000000000000000e+00 9.9317233225847463e+00 4.7696786509502687e+00 1.0510582827911682e+01 
324 0 1 1.0279964208574897e+00 -6.0284807083160203e+01 1.0000000000000000e+00 9.9566814161942467e+00 4.8082923013275609e+00 1.0498652638577241e+01 
510 0 1 1.0279940021086482e+00 -3.1165028564429669e+01 1.0000000000000000e+00 1.0004835502220699e+01 4.9169127240586299e+00 1.0380295541249835e+01 
228 0 1 1.0279978062202575e+00 -1.8417897402791656e+01 1.0000000000000000e+00 1.2618181514287050e+01 3.5957272088200822e+00 1.2997536861308507e+01 
546 0 1 1.0279978805153918e+00 -3.8931394938495181e+01 1.0000000000000000e+00 1.2604140474262776e+01 3.5904548457581997e+00 1.2978598955633261e+01 
643 0 1 1.0279978840046942e+00 -5.8046928267238009e+01 1.0000000000000000e+00 1.2603770242239136e+01 3.5900267012028122e+00 1.2976948463351130e+01 
382 0 1 1.0280084165646004e+00 -3.7801133129328313e+00 1.0000000000000000e+00 1.2433109175283178e+01 5.1167469392549405e+00 1.1130658069612991e+01 
72 0 1 1.0280018377846385e+00 -5.2263253565415702e+01 1.0000000000000000e+00 1.2514283974467219e+01 4.9227223653930832e+00 1.1284869727343290e+01 
150 0 1 1.0279979153121130e+00 -3.3751504236314538e+01 1.0000000000000000e+00 1.2597416445568244e+01 3.5876745733782944e+00 1.2967140860952741e+01 
283 0 1 1.0279979090144848e+00 -8.9865067592163861e+00 1.0000000000000000e+00 1.2598917608147030e+01 3.5874716527485973e+00 1.2966464894580399e+01 
296 0 1 1.0279979138144797e+00 -2.4004153692746016e+01 1.0000000000000000e+00 1.2597954985056180e+01 3.5872829256527492e+00 1.2965592384692556e+01 
357 0 1 1.0279979223707001e+00 -2.6403855609729529e+01 1.0000000000000000e+00 1.2596042141657547e+01 3.5869377798356696e+00 1.2963948475030135e+01 
186 0 1 1.0279988426085676e+00 -1.8502933779753270e+01 1.0000000000000000e+00 1.3309923900821202e+01 4.4149760235527911e+00 1.2958002372034702e+01 
46 0 1 1.0280033956571746e+00 -3.4895706146662114e+01 1.0000000000000000e+00 1.3172092923050602e+01 5.9395427268690684e+00 1.2621397687445294e+01 
583 0 1 1.0278830831676566e+00 -4.3043282951917341e+01 1.0000000000000000e+00 8.6004844940884002e+00 6.7036647934656655e+00 1.2175517915475854e+01 
246 0 1 1.0279301050365297e+00 -5.7826488873553835e+01 1.0000000000000000e+00 8.6742638871297153e+00 6.6726355090359695e+00 1.2591920072024763e+01 
567 0 1 1.0281961861868933e+00 -9.5306026305251734e+01 1.0000000000000000e+00 8.3796304355989815e+00 6.7808343705501422e+00 1.2138587659744397e+01 
554 0 1 1.0277440462181360e+00 -6.3056091029281255e+01 1.0000000000000000e+00 8.4704766050882281e+00 9.5327303596278430e+00 1.1390510954514673e+01 
593 0 1 1.0284250656703164e+00 -3.1797248283535129e+01 1.0000000000000000e+00 6.9299513965273833e+00 9.4383317845001446e+00 1.0521314385704997e+01 
74 0 1 1.0278714508579250e+00 -4.5656716426926437e+01 1.0000000000000000e+00 9.1371402075662544e+00 7.5867856978135526e+00 1.1705905498542267e+01 
410 0 1 1.0284976652503597e+00 -3.5450166233119710e+01 1.0000000000000000e+00 9.1179969283450966e+00 7.9717972180478789e+00 1.1116725068491531e+01 
358 0 1 1.0276337075654742e+00 -2.0151326678314685e+01 1.0000000000000000e+00 6.9112009900775915e+00 8.4115602100879538e+00 1.0295870097368473e+01 
317 0 1 1.0276598862077775e+00 -3.5936846759914445e+01 1.0000000000000000e+00 9.8655438362225389e+00 9.8433804463859733e+00 1.1106709164379957e+01 