LAMMPS data file via write_data, version 30 Jul 2016, timestep = 50400000

384 atoms
2 atom types

0.0000000000000000e+00 2.0000000000000000e+01 xlo xhi
0.0000000000000000e+00 2.0000000000000000e+01 ylo yhi
0.0000000000000000e+00 2.0000000000000000e+01 zlo zhi

Masses

1 3.896
2 4.31

Atoms # meso-molecular

123 1 2 1.1605682584842913e+00 1.9654964907462909e+03 1.0000000000000000e+00 6.0764650331606127e+00 2.0829549930431019e+00 2.0135878656450662e-01 
146 1 2 1.1605682584842913e+00 -3.7747298772708709e+03 1.0000000000000000e+00 8.4419891523677073e+00 4.2629329969022693e+00 4.4987699189935428e-02 
344 1 2 1.1605682584842913e+00 1.7222289562645346e+03 1.0000000000000000e+00 6.7712979567533549e-01 9.1188780163974990e+00 1.8349655810851212e-01 
52 1 2 1.1605682584842913e+00 1.2493801636499174e+03 1.0000000000000000e+00 6.9814126292629251e+00 9.0377723416228140e+00 5.3000535210246369e-01 
212 1 2 1.1605682584842913e+00 9.4355591317408766e+02 1.0000000000000000e+00 1.0845228752651046e+00 1.1187796879089413e+01 8.0491611701563082e-01 
172 1 2 1.1605682584842913e+00 1.2059509434267807e+03 1.0000000000000000e+00 3.2457519336523717e+00 1.4590571814736338e+01 4.4517866917129767e-01 
266 1 2 1.1605683098970045e+00 1.3309673193737956e+03 1.0000000000000000e+00 8.6029235411592051e+00 1.5004624556181890e+01 8.3329099792566891e-02 
35 1 2 1.1605682584842913e+00 9.6182927622001898e+02 1.0000000000000000e+00 4.6405352375471738e+00 1.7117019731552048e+01 1.1969201261563009e+00 
73 1 2 1.1605682584842913e+00 1.2204031923437856e+03 1.0000000000000000e+00 9.1987532301357806e+00 1.7976735512612500e+01 5.1895170246362610e-01 
134 1 2 1.1605682584842913e+00 8.7326875105378758e+02 1.0000000000000000e+00 9.3128542469565598e+00 1.2403403235774528e+00 1.8432668723685806e+00 
142 1 2 1.1605682584842913e+00 -1.3440926602511473e+02 1.0000000000000000e+00 6.5145917019739352e+00 3.2056717995993895e+00 2.1276957893707968e+00 
98 1 2 1.1605682584842913e+00 1.3379496133076805e+03 1.0000000000000000e+00 6.3525433006252394e-02 5.6808488515824092e+00 2.5470858310084106e+00 
45 1 2 1.1605682584842913e+00 1.4698866352027676e+03 1.0000000000000000e+00 7.3989556209646770e+00 6.1884131066918204e+00 1.7792109112041565e+00 
10 1 2 1.1605690636463848e+00 -3.5619696293555455e+02 1.0000000000000000e+00 9.5918142189178734e+00 7.2369011059910724e+00 2.2437200701367108e+00 
309 1 2 1.1605682584842913e+00 -4.4079380587074206e+02 1.0000000000000000e+00 4.8131739657713632e+00 8.2666691460039612e+00 2.5302210381246169e+00 
165 1 2 1.1605682584842913e+00 1.1993059569975812e+03 1.0000000000000000e+00 7.7644583928545812e+00 8.7337340626537792e+00 2.4012130338729927e+00 
133 1 2 1.1605682584842913e+00 1.8127941885850637e+03 1.0000000000000000e+00 4.1756474038581857e+00 9.8983790513413581e+00 1.3383571463775692e+00 
59 1 2 1.1605682584842913e+00 1.3158631176185254e+03 1.0000000000000000e+00 7.4054580893480910e+00 1.1205556774108674e+01 1.6278123211646678e+00 
6 1 2 1.1605682584842913e+00 1.0370762033251137e+03 1.0000000000000000e+00 6.6737804746740625e+00 1.3290177106011352e+01 1.7676581096612731e+00 
77 1 2 1.1605682584842913e+00 2.1482094659270656e+03 1.0000000000000000e+00 9.0528712958582727e+00 1.3923194825105448e+01 2.1454330608457233e+00 
151 1 2 1.1605682584842913e+00 1.5315549517265131e+03 1.0000000000000000e+00 4.9177897124410608e+00 1.4715445681966401e+01 1.7594021382942047e+00 
278 1 2 1.1605683098970045e+00 1.9501194394388533e+03 1.0000000000000000e+00 7.4809587549751253e+00 1.5643419506169627e+01 1.5914053096816443e+00 
233 1 2 1.1605682584842913e+00 1.4632708038070559e+03 1.0000000000000000e+00 2.0461392674128538e+00 1.6185975304245705e+01 1.5732299573224346e+00 
88 1 2 1.1605682584842913e+00 1.5489888636675814e+03 1.0000000000000000e+00 5.8471632634003834e+00 1.9722239380110260e+01 2.2638932781720453e+00 
93 1 2 1.1605682584842913e+00 -1.0313419144931337e+04 1.0000000000000000e+00 8.3959728745640110e+00 1.9324291108960484e+01 2.5287426404852780e+00 
348 1 2 1.1605682584842913e+00 -3.5157110312467075e+03 1.0000000000000000e+00 2.4425194581040670e+00 1.8960116491777157e+00 2.7670083194815152e+00 
375 1 2 1.1605682584842913e+00 1.1837849270087027e+03 1.0000000000000000e+00 9.6723509809227224e+00 2.8999998015011732e+00 3.4877672257109493e+00 
87 1 2 1.1605682584842913e+00 1.3169670974748969e+03 1.0000000000000000e+00 4.5325655944844252e+00 4.8133495617516422e+00 3.5213225770183758e+00 
32 1 2 1.1605682584842913e+00 1.2908007465197520e+03 1.0000000000000000e+00 1.7099903238595258e+00 5.3430446260299220e+00 3.8370739590801670e+00 
374 1 2 1.1605690636463848e+00 1.3702771716237064e+03 1.0000000000000000e+00 9.1193933419359787e+00 5.5293965857383913e+00 3.1067853277819246e+00 
30 1 2 1.1605682584842913e+00 1.1079034170940695e+03 1.0000000000000000e+00 5.8588046147713699e+00 1.0554416784869733e+01 2.7913491613481813e+00 
285 1 2 1.1605682584842913e+00 2.1447270963884318e+02 1.0000000000000000e+00 2.3100406329584144e+00 1.4135533523549830e+01 3.8718313943431082e+00 
108 1 2 1.1605682584842913e+00 1.2623833016257690e+03 1.0000000000000000e+00 6.4472830492334250e+00 1.3432707634092422e+01 3.8111394954438551e+00 
21 1 2 1.1605683069732835e+00 -3.9745599725452107e+03 1.0000000000000000e+00 3.4422326028057104e+00 1.6885750897683927e+01 3.8271410410500613e+00 
314 1 2 1.1605682584842913e+00 1.9264875330061664e+03 1.0000000000000000e+00 5.4781641693588909e+00 1.6801481648749018e+01 3.2978843499867536e+00 
79 1 2 1.1605682584842913e+00 1.0813125579005732e+03 1.0000000000000000e+00 9.4769394629740997e+00 1.6210034525552114e+01 2.9954630826698820e+00 
17 1 2 1.1605682584842913e+00 1.8210749422078366e+03 1.0000000000000000e+00 9.9713522673152699e+00 1.8500483523959936e+01 3.7410548621445656e+00 
194 1 2 1.1605682584842913e+00 1.5832039309059192e+03 1.0000000000000000e+00 3.4938047425318572e+00 1.9891827075755490e+01 3.8351568662451743e+00 
291 1 2 1.1605682584842913e+00 1.3630729876690261e+03 1.0000000000000000e+00 1.2379474747339658e+00 2.8172540457090060e-02 4.7397042841320696e+00 
204 1 2 1.1605682584842913e+00 -2.2652036988702930e+04 1.0000000000000000e+00 5.6405007700705365e+00 6.7821455011591836e-01 5.3226790763456382e+00 
227 1 2 1.1605682584842913e+00 1.6945242828244691e+03 1.0000000000000000e+00 8.5819738358379354e+00 1.0044923818931757e+00 5.1962739163404636e+00 
70 1 2 1.1605682584842913e+00 1.5730478215514831e+03 1.0000000000000000e+00 4.2333056505448567e+00 2.8610572438621813e+00 4.3735576987406670e+00 
226 1 2 1.1605682584842913e+00 6.1495985019659929e+02 1.0000000000000000e+00 7.7667046762974632e+00 6.0332498465704072e+00 5.0308580827649472e+00 
238 1 2 1.1605682584842913e+00 -6.3571465219992660e+03 1.0000000000000000e+00 4.2570948750263060e+00 7.3579876398862556e+00 4.9458930240713279e+00 
132 1 2 1.1605682584842913e+00 1.6327608130059612e+03 1.0000000000000000e+00 7.7858706242430848e+00 8.0352198369820105e+00 4.3648107005578956e+00 
197 1 2 1.1605682584842913e+00 1.7347510702130853e+03 1.0000000000000000e+00 9.6706561337677108e+00 9.2441821935847077e+00 5.2788151425780176e+00 
158 1 2 1.1605682584842913e+00 1.6103342825844961e+03 1.0000000000000000e+00 8.2496278992219310e+00 1.1979416855345292e+01 4.5678628382766986e+00 
11 1 2 1.1605682584842913e+00 9.4753799582187810e+01 1.0000000000000000e+00 5.1097128671579652e-02 1.2809160118500406e+01 4.7846129703120273e+00 
106 1 2 1.1605682584842913e+00 1.2545929310870056e+03 1.0000000000000000e+00 2.9225718367727591e+00 1.2125776413884020e+01 4.1467961075921584e+00 
223 1 2 1.1605682584842913e+00 -2.2801012920379826e+03 1.0000000000000000e+00 7.2821801420947327e+00 1.5851042938848583e+01 4.6718148170959335e+00 
13 1 2 1.1605682584842913e+00 1.8843085855647200e+03 1.0000000000000000e+00 9.3475304656209524e+00 1.4702981376480690e+01 4.6551021366496892e+00 
382 1 2 1.1605683069732835e+00 1.3819344662971637e+03 1.0000000000000000e+00 2.3736120160253460e+00 1.8333641647085347e+01 4.6674709016828242e+00 
380 1 2 1.1605682584842913e+00 1.2769851312069827e+03 1.0000000000000000e+00 7.8980042565241764e+00 1.8646455995722690e+01 5.0901184562770947e+00 
329 1 2 1.1605682584842913e+00 1.9873178975469532e+03 1.0000000000000000e+00 5.1346089134441275e+00 3.1147328884116634e+00 6.2427343674085281e+00 
384 1 2 1.1605682584842913e+00 5.0227833623625850e+02 1.0000000000000000e+00 7.9986794834686075e+00 3.9500557959062923e+00 5.8523409648529627e+00 
183 1 2 1.1605682584842913e+00 1.7416825266758824e+03 1.0000000000000000e+00 3.7241997631583473e-01 4.7052984250443526e+00 6.5170558432598931e+00 
130 1 2 1.1605682584842913e+00 1.2007673856491715e+03 1.0000000000000000e+00 2.5496670091830622e+00 6.6281229743183196e+00 6.4353253788656737e+00 
225 1 2 1.1605682584842913e+00 1.2099503554330340e+03 1.0000000000000000e+00 4.5074310917208180e+00 9.9421547825410990e+00 5.4879671901329887e+00 
149 1 2 1.1605682584842913e+00 1.2891661577228851e+03 1.0000000000000000e+00 5.7961454954755363e+00 1.3171274708175897e+01 5.7686301121261296e+00 
43 1 2 1.1605682584842913e+00 -5.4324939689102684e+03 1.0000000000000000e+00 3.8426584414454830e+00 1.4317071073346051e+01 5.9215315752961759e+00 
60 1 2 1.1605682584842913e+00 1.1199932096367997e+03 1.0000000000000000e+00 1.1033863460499134e+00 1.6429477194597936e+01 6.1001774745916570e+00 
321 1 2 1.1605682584842913e+00 1.4638262622212574e+03 1.0000000000000000e+00 2.1074567213869857e+00 1.7807243145476204e+00 7.5505031203521256e+00 
316 1 2 1.1605682584842913e+00 1.8458449688164965e+03 1.0000000000000000e+00 5.8838667084904488e+00 5.2024546770279771e+00 6.7972990003643909e+00 
148 1 2 1.1605682584842913e+00 1.0554579903050785e+03 1.0000000000000000e+00 3.9819893799984865e+00 7.8978090593385692e+00 7.0781215786075986e+00 
281 1 2 1.1605682983834424e+00 -2.2995114549018854e+04 1.0000000000000000e+00 6.4058775689431151e+00 7.9696169441971643e+00 6.8261642140858152e+00 
217 1 2 1.1605682584842913e+00 1.5473966497787346e+03 1.0000000000000000e+00 2.5867086414901991e-01 8.0758800907428370e+00 7.0835600477220355e+00 
102 1 2 1.1605682584842913e+00 4.5173018411932668e+02 1.0000000000000000e+00 6.8253415206274584e+00 9.9354486822730621e+00 6.8178427666089121e+00 
86 1 2 1.1605682584842913e+00 -1.8390153101619312e+03 1.0000000000000000e+00 9.8954297558610218e+00 1.0398730617371021e+01 6.9470336451594736e+00 
305 1 2 1.1605682584842913e+00 1.7439009812792688e+03 1.0000000000000000e+00 1.0625231703358529e-01 1.2557435649634620e+01 7.3659470701416252e+00 
242 1 2 1.1605682584842913e+00 1.2689817432353402e+03 1.0000000000000000e+00 4.2575966430202810e+00 1.3248045540353107e+01 7.9162450526091046e+00 
260 1 2 1.1605682584842913e+00 1.1461020492340799e+03 1.0000000000000000e+00 1.9216785244322601e+00 1.4531931767362048e+01 7.2482519922099113e+00 
137 1 2 1.1605682584842913e+00 1.6855355005624392e+03 1.0000000000000000e+00 9.4330681887278764e+00 1.5104255210354728e+01 7.0161822968860159e+00 
193 1 2 1.1605682584842913e+00 1.4264809937292339e+03 1.0000000000000000e+00 7.1145895441849554e+00 1.6288865223145468e+01 7.3130973105201873e+00 
64 1 2 1.1605682584842913e+00 1.5050166575139287e+03 1.0000000000000000e+00 4.8951241659755329e+00 1.7625964767729005e+01 7.1371318835155400e+00 
364 1 2 1.1605682584842913e+00 1.0365949672883885e+03 1.0000000000000000e+00 9.6565846606451675e+00 1.7644246061620262e+01 6.6841207910931253e+00 
78 1 2 1.1605682584842913e+00 -3.4593593799918935e+01 1.0000000000000000e+00 2.5642099438397357e+00 1.9079292898653417e+01 6.6770644321300106e+00 
350 1 2 1.1605683318132025e+00 1.7588846964875131e+03 1.0000000000000000e+00 4.4854802396019071e+00 7.1446100024141301e-01 8.5057733275137331e+00 
145 1 2 1.1605682584842913e+00 -3.0211687805005622e+03 1.0000000000000000e+00 9.3579621624195752e+00 9.0093665693944835e-01 8.2619608781739675e+00 
185 1 2 1.1605683318132025e+00 1.3608135255578850e+03 1.0000000000000000e+00 4.8458263650548599e+00 2.6445707992367429e+00 8.7898673807977197e+00 
282 1 2 1.1605682584842913e+00 -2.4930518026146667e+04 1.0000000000000000e+00 9.5670062377775658e+00 2.9400712321586004e+00 8.7064880096489290e+00 
199 1 2 1.1605682584842913e+00 -2.1508428144857120e+04 1.0000000000000000e+00 1.1920338642118795e+00 7.1291687447168606e+00 9.0484051676607518e+00 
111 1 2 1.1605682614284201e+00 -9.1729838212337199e+02 1.0000000000000000e+00 8.7305097929334252e+00 7.2651759956160671e+00 8.2658076072837083e+00 
18 1 2 1.1605682983834424e+00 -1.1245155982614999e+02 1.0000000000000000e+00 6.7119198779079925e+00 8.5529291484054450e+00 8.7000772620429778e+00 
235 1 2 1.1605682584842913e+00 1.0404764793899790e+03 1.0000000000000000e+00 9.8025958203806436e+00 1.0352624442967427e+01 9.0603991843658616e+00 
224 1 2 1.1605682584842913e+00 1.0845225825693665e+03 1.0000000000000000e+00 3.1629272526219228e+00 1.8239361913281748e+01 8.8542599093941057e+00 
179 1 2 1.1605682584842913e+00 -4.7825566180714050e+03 1.0000000000000000e+00 1.0840629755654165e+00 4.8902942165177876e+00 1.0252321881315746e+01 
141 1 2 1.1605682584842913e+00 -8.6671083040584404e+02 1.0000000000000000e+00 4.8522538888208793e+00 4.9534759573962832e+00 9.3600262595922494e+00 
322 1 2 1.1605682584842913e+00 -1.6121519693193250e+03 1.0000000000000000e+00 3.2139813847270431e+00 6.3021348080036823e+00 9.5778922893822145e+00 
372 1 2 1.1605682584842913e+00 9.4259409588182962e+02 1.0000000000000000e+00 8.0231504720305207e+00 5.6804933276568068e+00 1.0231963957701179e+01 
303 1 2 1.1605682584842913e+00 1.1199782979804359e+03 1.0000000000000000e+00 5.4215397897537230e+00 6.8387128952665925e+00 1.0065449025830908e+01 
72 1 2 1.1605682584842913e+00 -8.7756427210819638e+03 1.0000000000000000e+00 1.7379677396871238e+00 8.8677138035279413e+00 9.9629431624745557e+00 
358 1 2 1.1605682584842913e+00 1.6050685491390659e+03 1.0000000000000000e+00 7.8098420763123846e+00 8.1123381157358789e+00 1.0393972990325427e+01 
299 1 2 1.1605682584842913e+00 1.7873461587121074e+03 1.0000000000000000e+00 4.5327893196006075e+00 9.8128303662643930e+00 9.6044913706982307e+00 
44 1 2 1.1605682584842913e+00 1.1999267657621385e+03 1.0000000000000000e+00 6.4530708720819012e+00 1.0346329434032743e+01 9.7737647096929816e+00 
265 1 2 1.1605682584842913e+00 1.7561692617371718e+03 1.0000000000000000e+00 2.5368087024729218e+00 1.0724797153019516e+01 1.0232602095056610e+01 
114 1 2 1.1605682584842913e+00 -8.9326656100962682e+03 1.0000000000000000e+00 1.0031777800851103e+00 1.2500967176925213e+01 9.7802449021665137e+00 
109 1 2 1.1605682584842913e+00 -1.7360676764204015e+01 1.0000000000000000e+00 6.4737825641301558e+00 1.2567097155123523e+01 1.0291469992796255e+01 
218 1 2 1.1605682584842913e+00 1.3371619660648439e+03 1.0000000000000000e+00 3.0163300347813080e+00 1.3768110884277714e+01 1.0596934943761662e+01 
311 1 2 1.1605682584842913e+00 1.4866756492813179e+03 1.0000000000000000e+00 5.2341395258874437e+00 1.4504181762267445e+01 9.3707659508798073e+00 
131 1 2 1.1605682584842913e+00 -7.5939477491293883e+02 1.0000000000000000e+00 8.7689943861899557e+00 1.4189177118541487e+01 9.5279310415414287e+00 
246 1 2 1.1605682584842913e+00 4.0089427464564648e+02 1.0000000000000000e+00 1.3588471987336919e+00 1.5277988173131419e+01 9.4787185011230637e+00 
147 1 2 1.1605682584842913e+00 -1.0037136902511231e+03 1.0000000000000000e+00 9.1411700669576597e+00 1.5943280085164854e+01 1.0495986291959452e+01 
90 1 2 1.1605682584842913e+00 9.7953538531591107e+02 1.0000000000000000e+00 6.7852587997153453e+00 1.6322437144306686e+01 9.8124253935724681e+00 
349 1 2 1.1605682584842913e+00 1.7637401521106817e+03 1.0000000000000000e+00 5.5932987706267445e+00 1.8622516437774856e+01 1.0210670077358712e+01 
215 1 2 1.1605682584842913e+00 1.1964718538199691e+03 1.0000000000000000e+00 8.2794802328396901e+00 1.8023357282288558e+01 9.4832326969548930e+00 
71 1 2 1.1605682584842913e+00 1.7898522085047334e+03 1.0000000000000000e+00 1.5136860153402545e+00 1.9316085564097346e+01 9.7090258019687870e+00 
24 1 2 1.1605682584842913e+00 1.8743044583740202e+03 1.0000000000000000e+00 5.9202998571362393e+00 1.0789082761496256e+00 1.1170806241002538e+01 
83 1 2 1.1605682584782451e+00 1.2524557494569965e+03 1.0000000000000000e+00 4.1186226297284563e+00 3.8461843176384156e+00 1.1237093089071799e+01 
353 1 2 1.1605682584842913e+00 1.5404165703478398e+03 1.0000000000000000e+00 6.8824133050575691e+00 6.3329729188903983e+00 1.1850419884595384e+01 
62 1 2 1.1605682584842913e+00 2.8081824221716452e+03 1.0000000000000000e+00 5.6942505110094788e-01 7.0591368784834545e+00 1.1907833764816088e+01 
101 1 2 1.1605682584842913e+00 1.3317870275852874e+03 1.0000000000000000e+00 5.3636158529377873e+00 9.5660786114345324e+00 1.1744422263798288e+01 
160 1 2 1.1605682584842913e+00 1.6720502141951664e+02 1.0000000000000000e+00 3.9496324321760250e+00 1.2031788478416884e+01 1.1982025544726957e+01 
115 1 2 1.1605682584842913e+00 1.6113829568337947e+03 1.0000000000000000e+00 7.6528138246653405e+00 1.3156445051655551e+01 1.1983023947787448e+01 
53 1 2 1.1605682584842913e+00 1.6406512886852133e+03 1.0000000000000000e+00 2.4278423394666557e+00 1.5781789131876891e+01 1.1155588647313948e+01 
241 1 2 1.1605682584842913e+00 1.6156889237264274e+03 1.0000000000000000e+00 7.9483093384440302e+00 1.8160423732716634e+01 1.1618920880973803e+01 
333 1 2 1.1605682584842913e+00 1.5669146567958242e+03 1.0000000000000000e+00 3.5839803160776591e+00 1.9843090023759547e+01 1.1356015503292308e+01 
383 1 2 1.1605682584842913e+00 3.3837687956630896e+02 1.0000000000000000e+00 5.1820606143296832e-01 4.7645642328957349e-01 1.2565178617402385e+01 
240 1 2 1.1605682584782451e+00 1.2906336782748806e+03 1.0000000000000000e+00 5.4833108077527646e+00 2.7823602333973247e+00 1.2239197893052522e+01 
232 1 2 1.1605682584842913e+00 1.5661097335381201e+03 1.0000000000000000e+00 2.9299054557111326e+00 4.9536224981203061e+00 1.2419112824311457e+01 
155 1 2 1.1605682586367385e+00 1.4644564973333124e+03 1.0000000000000000e+00 2.3643853035459688e+00 7.5880822154909140e+00 1.2778626831758018e+01 
191 1 2 1.1605682584842913e+00 1.1070799391725977e+03 1.0000000000000000e+00 8.7888192742802502e+00 8.8246174683087073e+00 1.2033253163762302e+01 
221 1 2 1.1605682584842913e+00 1.1000007091411489e+03 1.0000000000000000e+00 4.1029388478752677e+00 9.9552118506151643e+00 1.3275836084541663e+01 
89 1 2 1.1605682584842913e+00 1.5891705532670835e+03 1.0000000000000000e+00 1.5247744887293338e-01 1.1430389256436953e+01 1.2437421184444679e+01 
324 1 2 1.1605682584842913e+00 1.9007884115305551e+03 1.0000000000000000e+00 7.4772608804927589e+00 1.1223611551967689e+01 1.3215536844580969e+01 
248 1 2 1.1605682584842913e+00 7.6537176562956324e+02 1.0000000000000000e+00 1.8382995298004894e+00 1.2523336429244969e+01 1.2266894110529654e+01 
326 1 2 1.1605682584842913e+00 -1.3538255490757688e+03 1.0000000000000000e+00 4.5232797617128218e-01 1.5518154562758479e+01 1.2761016736090784e+01 
328 1 2 1.1605682584842913e+00 1.1686969721905921e+03 1.0000000000000000e+00 2.9288411717792977e+00 1.5163796123219424e+01 1.3028562026619252e+01 
289 1 2 1.1605682584842913e+00 -2.3529125590394338e+04 1.0000000000000000e+00 2.0910262996104629e+00 1.7090964649254705e+01 1.3131489932650116e+01 
244 1 2 1.1605682584842913e+00 1.4580134390739040e+03 1.0000000000000000e+00 1.1300013883592286e+00 9.0615592925550992e-01 1.4643209936816003e+01 
249 1 2 1.1605682584842913e+00 2.2799725524086616e+03 1.0000000000000000e+00 4.7991626091903807e+00 1.0734324635021679e+00 1.3335363782606157e+01 
167 1 2 1.1605682584842913e+00 1.2072626876547665e+03 1.0000000000000000e+00 3.5770346388593364e+00 3.3011592924011111e+00 1.3966797819921156e+01 
49 1 2 1.1605682584842913e+00 1.0613723332913091e+03 1.0000000000000000e+00 5.8473141762546954e-01 5.2439180936229031e+00 1.3342284857437429e+01 
367 1 2 1.1605682584842913e+00 1.3157007309758023e+03 1.0000000000000000e+00 8.5806574755678806e+00 4.6069960285153799e+00 1.3560614762364331e+01 
55 1 2 1.1605682586367385e+00 1.6635218698534061e+03 1.0000000000000000e+00 4.2621885490773348e+00 7.7931982251110492e+00 1.3356650161352480e+01 
26 1 2 1.1605682584842913e+00 2.0781352844733956e+03 1.0000000000000000e+00 6.4000884166776517e+00 1.4644971042454143e+01 1.3359247967991470e+01 
37 1 2 1.1605682584842913e+00 -9.5165658871282585e+02 1.0000000000000000e+00 9.2763026695460464e+00 1.4690215523046216e+01 1.3542741470932993e+01 
57 1 2 1.1605682584842913e+00 2.2406076569781417e+03 1.0000000000000000e+00 6.3450113268267163e+00 1.7927848445930849e+01 1.3458659544311287e+01 
290 1 2 1.1605682584842913e+00 -2.5455415999358942e+04 1.0000000000000000e+00 9.9667218504229336e+00 1.8632684495096118e+01 1.4367293356350855e+01 
175 1 2 1.1605697240800885e+00 1.1835189197392012e+03 1.0000000000000000e+00 7.5355831173627790e+00 1.3004705927855678e+00 1.5840188954620869e+01 
307 1 2 1.1605682584842913e+00 -5.5286424292062293e+02 1.0000000000000000e+00 3.8259116374244990e+00 1.5494193014680493e+00 1.5572181365378695e+01 
257 1 2 1.1605682584842913e+00 1.6254763294712311e+03 1.0000000000000000e+00 6.4562266522256229e+00 3.4017289767593244e+00 1.5525656029247843e+01 
237 1 2 1.1605682584842913e+00 1.3407641862042542e+03 1.0000000000000000e+00 8.8191808695501006e+00 3.8927131134987145e+00 1.5572651030271997e+01 
116 1 2 1.1605682584842913e+00 1.6866068073489773e+03 1.0000000000000000e+00 1.9544313244113312e+00 4.2360389270038112e+00 1.4863556323087037e+01 
195 1 2 1.1605682584842913e+00 -1.3972058651024595e+03 1.0000000000000000e+00 7.4630580398857278e+00 6.5406589598607701e+00 1.5148251562758615e+01 
176 1 2 1.1605682584842913e+00 1.1129456626383526e+03 1.0000000000000000e+00 1.7821393431543617e+00 6.9043303127638245e+00 1.5514947908680048e+01 
296 1 2 1.1605682584842913e+00 1.7764214974177085e+03 1.0000000000000000e+00 6.6582200149751340e+00 8.7221988830950821e+00 1.5342010490344634e+01 
25 1 2 1.1605682584842913e+00 8.6904691862437153e+02 1.0000000000000000e+00 4.4944268725021548e+00 9.5661805777064632e+00 1.5505327294092705e+01 
136 1 2 1.1605682621986935e+00 -1.1783659954617278e+03 1.0000000000000000e+00 6.2975986185075022e-02 1.1919104097752511e+01 1.5152359531019824e+01 
288 1 2 1.1605682584842913e+00 1.4833160580839372e+03 1.0000000000000000e+00 1.8144983504922347e+00 1.2928676235040369e+01 1.5372281666855550e+01 
187 1 2 1.1605682584842913e+00 1.5889869660602476e+03 1.0000000000000000e+00 7.1729073504063887e+00 1.2049906399685954e+01 1.5787610314692152e+01 
298 1 2 1.1605682584842913e+00 2.1252991056159190e+03 1.0000000000000000e+00 5.2527064530914211e+00 1.5771173383690222e+01 1.4704931371249847e+01 
8 1 2 1.1605682584842913e+00 1.2123270803297482e+03 1.0000000000000000e+00 9.0145363630250808e-01 1.6451639546796390e+01 1.4890346961549032e+01 
34 1 2 1.1605682584842913e+00 7.5434957725458389e+02 1.0000000000000000e+00 7.1015529192097642e+00 1.6222304153469082e+01 1.5625792393410308e+01 
280 1 2 1.1605682584842913e+00 1.7942614221711729e+03 1.0000000000000000e+00 1.8533508192726458e+00 1.8310888114240925e+01 1.4752310172050747e+01 
274 1 2 1.1605682584842913e+00 6.8768162207012483e+02 1.0000000000000000e+00 5.1429717127216046e+00 1.7755289093247882e+01 1.5216004321012093e+01 
339 1 2 1.1605682584842913e+00 -1.6239755309779301e+04 1.0000000000000000e+00 6.8208065810806096e-01 3.2065880309034673e+00 1.6552461214873585e+01 
46 1 2 1.1605682584842913e+00 1.5102632934891712e+03 1.0000000000000000e+00 7.6652029241093267e+00 3.0031803202571585e+00 1.7125684821341391e+01 
264 1 2 1.1605682584842913e+00 7.1018322838679342e+02 1.0000000000000000e+00 2.0003885427079746e+00 9.0393429874128639e+00 1.6279220963624542e+01 
69 1 2 1.1605682584842913e+00 1.1691322154901086e+03 1.0000000000000000e+00 8.5233106034821893e-01 1.1291289506957206e+01 1.6933437869543923e+01 
306 1 2 1.1605682584842913e+00 -6.3741275479099977e+02 1.0000000000000000e+00 2.7906063462044219e+00 1.0763382178706381e+01 1.7018639267363287e+01 
269 1 2 1.1605682637343966e+00 7.3129873550563627e+02 1.0000000000000000e+00 5.7201222218893628e+00 1.4042236252428472e+01 1.6253020071715721e+01 
201 1 2 1.1605695954849127e+00 1.6037121524446734e+03 1.0000000000000000e+00 4.9862340893287543e-01 1.5509098287749257e+01 1.6990996845158875e+01 
368 1 2 1.1605682637343966e+00 7.4345598848759334e+02 1.0000000000000000e+00 5.7768381782236977e+00 1.5800685847531712e+01 1.7185808714643844e+01 
220 1 2 1.1605682584842913e+00 5.8544995860616586e+02 1.0000000000000000e+00 8.8612840159341957e+00 1.5564186530803603e+01 1.6545222023565206e+01 
174 1 2 1.1605682584842913e+00 4.3338701165418570e+02 1.0000000000000000e+00 3.3843350992872474e+00 1.6667136602736868e+01 1.6002276267089027e+01 
127 1 2 1.1605682584842913e+00 -7.2270467088032292e+03 1.0000000000000000e+00 1.5518249291335455e+00 1.7790697557760339e+01 1.6679667649588286e+01 
231 1 2 1.1605682584842913e+00 -2.0082047404420668e+03 1.0000000000000000e+00 7.6793086567770814e+00 1.8102261165941158e+01 1.6888460658785448e+01 
12 1 2 1.1605697240800885e+00 1.4693645353110012e+03 1.0000000000000000e+00 6.2258048581469598e+00 1.9919003475331841e+01 1.6332762395062382e+01 
140 1 2 1.1605682584842913e+00 -2.8979938002983295e+02 1.0000000000000000e+00 9.4393157216065617e+00 1.9416066854997101e+01 1.7105128201376026e+01 
23 1 2 1.1605682584842913e+00 1.0809467653450038e+03 1.0000000000000000e+00 2.6612298520763695e+00 2.3130719437427683e+00 1.7695058239346039e+01 
366 1 2 1.1605682584842913e+00 1.1558272482571924e+03 1.0000000000000000e+00 4.3864055499854970e+00 3.4851736305457126e+00 1.7952463966409326e+01 
124 1 2 1.1605682584842913e+00 1.6366378318463594e+03 1.0000000000000000e+00 6.2311471442097295e+00 6.1910213904934439e+00 1.8176641624492998e+01 
61 1 2 1.1605682623481692e+00 1.8684698835321717e+03 1.0000000000000000e+00 5.2213903042944434e+00 8.2891473711433523e+00 1.7350776561161247e+01 
222 1 2 1.1605682584842913e+00 1.3534804951214815e+03 1.0000000000000000e+00 6.7019195226021857e+00 9.7607448722404637e+00 1.7527296604000927e+01 
336 1 2 1.1605682584842913e+00 1.7718261060763330e+03 1.0000000000000000e+00 3.5800834133266166e+00 1.4896342425029880e+01 1.7758380541076658e+01 
135 1 2 1.1605682584842913e+00 -2.1405110137230957e+04 1.0000000000000000e+00 2.8800918348812585e+00 1.8118473160250449e+01 1.8220016568502171e+01 
180 1 2 1.1605682584842913e+00 1.8841336396035576e+03 1.0000000000000000e+00 4.1416519796244389e+00 1.9804977382362723e+00 1.9326532246262627e+01 
192 1 2 1.1605682584842913e+00 -2.2201897370019769e+03 1.0000000000000000e+00 8.4971712158418544e+00 2.4995103771152083e+00 1.9035797406713087e+01 
304 1 2 1.1605682584842913e+00 1.2174881901823815e+03 1.0000000000000000e+00 3.5890399959545896e+00 4.5285296075984780e+00 1.9491275737384392e+01 
370 1 2 1.1605682623481692e+00 -7.3417751891158798e+02 1.0000000000000000e+00 5.5573108809426417e+00 7.8993420698086467e+00 1.9276453373516432e+01 
263 1 2 1.1605751437141152e+00 -1.1003050618900281e+03 1.0000000000000000e+00 8.2713127677599267e+00 8.4957175238678335e+00 1.8958828334518799e+01 
354 1 2 1.1605682584842913e+00 1.0329629989980003e+03 1.0000000000000000e+00 5.2431387407373498e+00 1.0309011852501682e+01 1.9517874992241332e+01 
283 1 2 1.1605751437141152e+00 1.4705194092920271e+03 1.0000000000000000e+00 9.4893940768015881e+00 9.7217578045640227e+00 1.9862043002078899e+01 
144 1 2 1.1605682584842913e+00 2.9075507872576202e+02 1.0000000000000000e+00 2.7238106403863176e+00 1.1937012948162147e+01 1.9103395608091365e+01 
206 1 2 1.1605682584842913e+00 1.4924953500096008e+03 1.0000000000000000e+00 4.8491827755208758e+00 1.3173164240139339e+01 1.9999343745609377e+01 
118 1 2 1.1605682584842913e+00 1.4157176411476421e+03 1.0000000000000000e+00 9.6674059717386758e+00 1.2893830616771462e+01 1.8978945077539926e+01 
27 1 2 1.1605682584842913e+00 1.8247589180943405e+03 1.0000000000000000e+00 6.8062719256863673e+00 1.7012110460511337e+01 1.9023696530902154e+01 
63 1 2 1.1605682584842913e+00 1.3149921187196182e+03 1.0000000000000000e+00 5.3410504044211633e+00 1.8560408035752769e+01 1.9334972697925235e+01 
277 1 2 1.1605682584842913e+00 1.2562315584998983e+03 1.0000000000000000e+00 1.2189908216684433e+00 1.8856401229778577e+01 1.9819596316105052e+01 
119 1 2 1.1605682584842913e+00 -7.1666746196031545e+03 1.0000000000000000e+00 1.3220782562240187e+01 3.6882264671007667e+00 6.7132350169670962e-01 
213 1 2 1.1605682584842913e+00 1.3376785622260236e+03 1.0000000000000000e+00 1.8148338383350946e+01 3.3116678575402609e+00 4.5664739362070467e-02 
236 1 2 1.1605682584842913e+00 1.9955428829386005e+03 1.0000000000000000e+00 1.2860516733447723e+01 7.2676087224252193e+00 9.4655960683462781e-01 
190 1 2 1.1605682584842913e+00 1.3589310043599148e+03 1.0000000000000000e+00 1.6022991339263150e+01 7.6038833097022751e+00 8.4527233570236582e-01 
92 1 2 1.1605682584842913e+00 -1.1661692949988543e+02 1.0000000000000000e+00 1.8772387411948554e+01 7.4458106126708925e+00 6.1490660663564234e-01 
58 1 2 1.1605682584842913e+00 1.3458053895552712e+03 1.0000000000000000e+00 1.1108015395763990e+01 8.5832906096702377e+00 7.7704881915241886e-01 
377 1 2 1.1605682584842913e+00 3.2554630879880119e+02 1.0000000000000000e+00 1.4233928387167065e+01 9.0232352496108561e+00 7.6046356949696192e-01 
1 1 2 1.1605682584842913e+00 8.5719802344073969e+02 1.0000000000000000e+00 1.0413685514994972e+01 1.1305206939350949e+01 1.1251527995460702e+00 
22 1 2 1.1605686268994215e+00 -3.9174126904035011e+03 1.0000000000000000e+00 1.6279379053809301e+01 1.0944081401782107e+01 1.0196237035895814e+00 
272 1 2 1.1605682584842913e+00 1.7514334381390827e+03 1.0000000000000000e+00 1.1199894146374987e+01 1.3893240689023425e+01 1.2048242329476593e+00 
162 1 2 1.1605682584842913e+00 1.4082768375759497e+03 1.0000000000000000e+00 1.8180065196844915e+01 1.7353189828391745e+01 6.1949316001981347e-01 
168 1 2 1.1605682584842913e+00 1.4482790017020563e+03 1.0000000000000000e+00 1.7131437673739011e+01 1.9980792181406692e+01 6.8768195060370596e-01 
14 1 2 1.1605682584842913e+00 1.7050562159604556e+03 1.0000000000000000e+00 1.6403562746505266e+01 1.1223024164229622e+00 2.2709117077283802e+00 