LAMMPS data file via write_data, version 30 Jul 2016, timestep = 50000000

384 atoms
2 atom types

0.0000000000000000e+00 2.0000000000000000e+01 xlo xhi
0.0000000000000000e+00 2.0000000000000000e+01 ylo yhi
0.0000000000000000e+00 2.0000000000000000e+01 zlo zhi

Masses

1 3.896
2 4.31

Atoms # meso-molecular

370 1 2 1.1605682584842913e+00 -7.3418186424934402e+02 1.0000000000000000e+00 2.9948011091879327e+00 1.8954403657034995e+00 1.2482261237522465e+00 
212 1 2 1.1605682584842913e+00 9.4355356969485115e+02 1.0000000000000000e+00 2.7026119933536310e+00 6.3941177680500303e+00 5.8278863759003774e-01 
309 1 2 1.1605682584842913e+00 -4.4079584344191392e+02 1.0000000000000000e+00 4.9727580465015588e+00 7.8187031768643056e+00 4.9394805931693792e-01 
120 1 2 1.1605682584842913e+00 7.3827241507412714e+02 1.0000000000000000e+00 7.7878213558345466e-01 9.9617337410072935e+00 4.9231030546415887e-02 
6 1 2 1.1605682584842913e+00 1.0370733884499466e+03 1.0000000000000000e+00 4.5317267164309518e+00 1.2646376185387760e+01 4.4464671104162540e-01 
59 1 2 1.1605682584842913e+00 1.3158586672339047e+03 1.0000000000000000e+00 8.5915654292141390e+00 1.2876669377221083e+01 1.0966339474748534e+00 
296 1 2 1.1605682584842913e+00 1.7764179573402084e+03 1.0000000000000000e+00 6.6707958310965072e+00 1.3685950384586276e+01 9.8847573445252235e-01 
35 1 2 1.1605690463135383e+00 9.6191197222784945e+02 1.0000000000000000e+00 1.8460493861310354e+00 1.6660004966879026e+01 4.3925325911863716e-01 
63 1 2 1.1605682584842913e+00 1.3149888167069416e+03 1.0000000000000000e+00 2.9284609413305296e-01 1.9510296484646076e+01 9.2891900113294479e-01 
127 1 2 1.1605682584842913e+00 -7.2270483552905880e+03 1.0000000000000000e+00 3.4210975598083557e+00 1.9396172505795931e+01 1.3276902656532672e+00 
164 1 2 1.1605682584842913e+00 -7.8197828751126835e+03 1.0000000000000000e+00 7.4330398217542006e+00 1.9776510968539665e+01 1.1432310850917358e+00 
134 1 2 1.1605682584842913e+00 8.7326345749217671e+02 1.0000000000000000e+00 9.9797851390721704e+00 1.9556453359403410e+01 2.1195663591013492e-01 
277 1 2 1.1605682584842913e+00 1.2562259046210220e+03 1.0000000000000000e+00 8.4639570405712501e+00 2.2663868925532547e+00 2.3318366005566857e+00 
366 1 2 1.1605682584842913e+00 1.1558251444034099e+03 1.0000000000000000e+00 2.6408631157406953e-01 3.0220983198724718e+00 1.7214051847831511e+00 
87 1 2 1.1605682584842913e+00 1.3169646905097575e+03 1.0000000000000000e+00 4.0821840295882206e+00 3.7523330726137449e+00 1.8834554036236824e+00 
111 1 2 1.1605682584842913e+00 -9.1730411688579534e+02 1.0000000000000000e+00 5.0488150877467861e+00 5.6552333948957427e+00 2.1805354279863973e+00 
32 1 2 1.1605682584842913e+00 1.2907959885048640e+03 1.0000000000000000e+00 3.0836083393321685e+00 7.6627586132734340e+00 2.3774435423226410e+00 
17 1 2 1.1605682584842913e+00 1.8210709050706500e+03 1.0000000000000000e+00 9.5425266500927428e+00 9.8115070923720040e+00 1.9613496869050591e+00 
22 1 2 1.1605682584842913e+00 -3.9174602648342898e+03 1.0000000000000000e+00 2.0721731792862319e-01 1.2433013391865176e+01 1.3369900431988166e+00 
151 1 2 1.1605682696433215e+00 1.5315556871399872e+03 1.0000000000000000e+00 3.2907172258385660e+00 1.2955572480304701e+01 2.4174175406922966e+00 
298 1 2 1.1605682584842913e+00 2.1252952611787359e+03 1.0000000000000000e+00 9.7780128775033397e+00 1.4343133516554261e+01 1.8836244360515015e+00 
278 1 2 1.1605682584842913e+00 1.9501051819171753e+03 1.0000000000000000e+00 5.5719399713315800e+00 1.5398015980434351e+01 2.4799758186073033e+00 
204 1 2 1.1605682584842913e+00 -2.2652042014916740e+04 1.0000000000000000e+00 9.4038336503557129e+00 1.6802346475384120e+01 1.8125499311999365e+00 
152 1 2 1.1605690463135383e+00 1.8427078928042299e+03 1.0000000000000000e+00 1.3952386760554143e+00 1.8026923752633188e+01 1.7859463533249795e+00 
78 1 2 1.1605682584842913e+00 -3.4596773362519883e+01 1.0000000000000000e+00 6.6430280157061699e+00 8.9639426779162656e-01 3.8959289801880126e+00 
110 1 2 1.1605682584842913e+00 1.4965109616693853e+03 1.0000000000000000e+00 8.5893343527093933e+00 3.6168495094966463e-01 2.9809035577248566e+00 
60 1 2 1.1605682584842913e+00 1.1199904199374259e+03 1.0000000000000000e+00 5.7654676748361364e+00 2.8660120828158093e+00 2.7663913566689922e+00 
119 1 2 1.1605682584842913e+00 -7.1666771959096804e+03 1.0000000000000000e+00 7.2462231932214687e+00 4.9813255407813095e+00 3.9284942284895381e+00 
225 1 2 1.1605682584842913e+00 1.2099482176247716e+03 1.0000000000000000e+00 9.2660623386401619e-01 5.7416342086148369e+00 3.0560524606083610e+00 
30 1 2 1.1605682584842913e+00 1.1079010878990275e+03 1.0000000000000000e+00 5.6926398738846009e+00 8.5127644421659383e+00 2.6883466452912157e+00 
232 1 2 1.1605682584842913e+00 1.5661056803518190e+03 1.0000000000000000e+00 2.2792643828849668e+00 1.0292213517388603e+01 3.6646338094054594e+00 
149 1 2 1.1605682584842913e+00 1.2891646553710016e+03 1.0000000000000000e+00 8.1036263498661683e+00 1.0510891294467216e+01 3.4910790055358785e+00 
48 1 2 1.1605682584842913e+00 1.4204204428882003e+03 1.0000000000000000e+00 6.3001157508904218e+00 1.2400681949345525e+01 2.8743585761641830e+00 
283 1 2 1.1605682584467718e+00 1.4700831403578911e+03 1.0000000000000000e+00 7.8144811244795536e+00 1.3898714504133416e+01 3.1257017979665647e+00 
266 1 2 1.1605682584467718e+00 1.3309531378659933e+03 1.0000000000000000e+00 8.8674054102896029e+00 1.5555243136484734e+01 3.5022172940271830e+00 
339 1 2 1.1605682584842913e+00 -1.6239759278817541e+04 1.0000000000000000e+00 2.0621812961426973e+00 1.7257151447884084e+01 3.8913401434222115e+00 
144 1 2 1.1605682584842913e+00 2.9075353050336605e+02 1.0000000000000000e+00 5.6882921081181781e+00 1.7908662749931722e+01 2.7042191945786809e+00 
216 1 2 1.1605682584842913e+00 1.1761226695852292e+03 1.0000000000000000e+00 3.5656387808585919e+00 3.7770762689911948e+00 4.4869654756348814e+00 
238 1 2 1.1605682584842913e+00 -6.3571478683752975e+03 1.0000000000000000e+00 1.9261802246262905e+00 6.3459432221156300e+00 5.1207048211421453e+00 
350 1 2 1.1605682633636332e+00 1.7588661257298222e+03 1.0000000000000000e+00 4.4016241431089380e+00 6.2970475794190195e+00 4.4946500831715204e+00 
182 1 2 1.1605682633636332e+00 -4.2165328281571174e+03 1.0000000000000000e+00 5.9939245635355087e+00 7.4161946597676982e+00 4.9219410940200587e+00 
85 1 2 1.1605682696433215e+00 -2.1061234528859950e+03 1.0000000000000000e+00 2.6665809271575260e+00 1.2858868873300478e+01 4.3053145891234754e+00 
108 1 2 1.1605682584842913e+00 1.2623785571137541e+03 1.0000000000000000e+00 3.9935492525551588e+00 1.7800498273389223e+01 4.1761607336990307e+00 
112 1 2 1.1605682584842913e+00 -1.0081808886468368e+03 1.0000000000000000e+00 7.6261442346030579e+00 1.8816058379880129e+01 4.5455517917356127e+00 
327 1 2 1.1605682584842913e+00 5.1830539169656072e+02 1.0000000000000000e+00 3.5071292836312593e+00 6.3669350464071239e-02 5.7635712420552663e+00 
333 1 2 1.1605682584842913e+00 1.5669108412451933e+03 1.0000000000000000e+00 6.9469442785510740e+00 1.2139347925254249e+00 6.1179568272137592e+00 
81 1 2 1.1605682584842913e+00 -3.2181824927379985e+03 1.0000000000000000e+00 1.5864189817733906e-01 1.7868477778557816e+00 5.9627660966151712e+00 
141 1 2 1.1605682584842913e+00 -8.6671755982271043e+02 1.0000000000000000e+00 1.3772965372662299e-01 5.7842267474714868e+00 6.4071252766761404e+00 
18 1 2 1.1605682626201810e+00 -1.1246167243092135e+02 1.0000000000000000e+00 8.3552660345584790e+00 7.0555530666898747e+00 6.0494904929997126e+00 
43 1 2 1.1605682584842913e+00 -5.4324990152281116e+03 1.0000000000000000e+00 3.0086607583180291e+00 1.0452511924430677e+01 6.0584472140881243e+00 
99 1 2 1.1605682584842913e+00 1.0224541256608031e+03 1.0000000000000000e+00 6.2457698884479234e+00 9.6667376483207779e+00 5.5802061938468528e+00 
106 1 2 1.1605682584842913e+00 1.2545890191768531e+03 1.0000000000000000e+00 4.9748851919061093e-01 1.2836956262333606e+01 6.1755499980254447e+00 
50 1 2 1.1605682584842913e+00 1.2918421667572688e+03 1.0000000000000000e+00 4.1115779541789079e+00 1.2834371708956146e+01 6.4746905753109694e+00 
197 1 2 1.1605682584842913e+00 1.7347455995565274e+03 1.0000000000000000e+00 9.5511828355324919e+00 1.2440535861055746e+01 6.0823920045920508e+00 
281 1 2 1.1605682584842913e+00 -2.2995127466413323e+04 1.0000000000000000e+00 6.2839689869644921e+00 1.5223527283414150e+01 5.4984762709679922e+00 
270 1 2 1.1605682584842913e+00 1.1949205386246499e+03 1.0000000000000000e+00 8.3035835210112232e+00 1.4728478919936670e+01 6.4503031279918952e+00 
13 1 2 1.1605682584842913e+00 1.8843045978481409e+03 1.0000000000000000e+00 3.8058757989360341e+00 1.6376047721789892e+01 6.3604063717194270e+00 
137 1 2 1.1605682584842913e+00 1.6855333117605760e+03 1.0000000000000000e+00 8.3844358814059241e+00 1.7095493714274774e+01 5.8639636926999268e+00 
260 1 2 1.1605682584842913e+00 1.1460993290640558e+03 1.0000000000000000e+00 2.0767212068176315e+00 1.8601298761981333e+01 6.4727805366312738e+00 
223 1 2 1.1605682584842913e+00 -2.2801032769648609e+03 1.0000000000000000e+00 5.8657568297628746e+00 1.9429097114280385e+01 5.9901433309609917e+00 
194 1 2 1.1605682584842913e+00 1.5831985797224929e+03 1.0000000000000000e+00 2.0094553749148143e+00 3.5096419708194959e-01 7.5668371737018933e+00 
130 1 2 1.1605682584842913e+00 1.2007644170190088e+03 1.0000000000000000e+00 3.4055037733571942e+00 3.9093382009906215e+00 7.4819836036543785e+00 
142 1 2 1.1605682584842913e+00 -1.3441258976782075e+02 1.0000000000000000e+00 5.5068733453593186e+00 3.3777463131997503e+00 7.7494093813739688e+00 
150 1 2 1.1605682584842913e+00 1.3506239688666269e+03 1.0000000000000000e+00 2.8140499344119805e+00 6.0634056219220929e+00 7.1604680454608500e+00 
24 1 2 1.1605682584842913e+00 1.8743023569615680e+03 1.0000000000000000e+00 5.3899622887178120e+00 5.8127309586118807e+00 6.8063691127562214e+00 
349 1 2 1.1605682584842913e+00 1.7637376062506992e+03 1.0000000000000000e+00 7.3580403960114875e+00 1.1040009867495691e+01 6.7085808301411767e+00 
77 1 2 1.1605683356733938e+00 2.1482216446785460e+03 1.0000000000000000e+00 7.0766771939586128e+00 1.3113923566470298e+01 7.8080253166774769e+00 
102 1 2 1.1605683356733938e+00 4.5174470011552637e+02 1.0000000000000000e+00 5.4628508759133823e+00 1.4212501702986705e+01 7.4598668523432208e+00 
157 1 2 1.1605686971194922e+00 1.7580593663478339e+03 1.0000000000000000e+00 1.3698679095837890e-01 4.7757669990710677e-01 8.8367112849044354e+00 
240 1 2 1.1605682584842913e+00 1.2906315029700504e+03 1.0000000000000000e+00 7.6690491282688606e+00 5.4558828319792541e-01 8.6533424055816255e+00 
346 1 2 1.1605682584842913e+00 1.3616517922427547e+03 1.0000000000000000e+00 1.6153022781467126e+00 2.3728278779519747e+00 8.9404388127096031e+00 
122 1 2 1.1605682584842913e+00 1.2003894626009701e+03 1.0000000000000000e+00 4.2133512762407443e+00 1.7797535701962297e+00 8.8047955470940753e+00 
57 1 2 1.1605682584842913e+00 2.2406049501407015e+03 1.0000000000000000e+00 9.3269352818629176e+00 3.2730096039526257e+00 8.2609824333289019e+00 
221 1 2 1.1605682824736128e+00 1.1000058484975300e+03 1.0000000000000000e+00 5.7030011259246489e+00 6.5153526827752426e+00 9.0807943622323002e+00 
329 1 2 1.1605682824736128e+00 1.9873231588885940e+03 1.0000000000000000e+00 4.0466343859278675e+00 7.2603238567473891e+00 8.2753726624180519e+00 
210 1 2 1.1605682584842913e+00 2.7613256993675759e+03 1.0000000000000000e+00 8.6345627321050067e+00 7.1834671407582489e+00 8.2674064156688676e+00 
56 1 2 1.1605682584842913e+00 1.9354230272304135e+03 1.0000000000000000e+00 3.2986653638053021e+00 1.0071886656242034e+01 8.8424892866176865e+00 
364 1 2 1.1605682584842913e+00 1.0365925198330788e+03 1.0000000000000000e+00 8.4374703292815205e+00 1.0753181972010827e+01 9.2727828024586714e+00 
11 1 2 1.1605682584842913e+00 9.4750032909658131e+01 1.0000000000000000e+00 2.4598163283521681e+00 1.4947146040766553e+01 8.7524748915016950e+00 
273 1 2 1.1605682584842913e+00 1.1393523963203615e+03 1.0000000000000000e+00 7.9280524281636131e+00 1.7161220084588432e+01 8.4695702912903226e+00 
275 1 2 1.1605682638250849e+00 -4.4394781073661233e+02 1.0000000000000000e+00 6.2130759738335621e+00 1.8416962984373079e+01 9.0442425586813417e+00 
334 1 2 1.1605682597020588e+00 1.4638510995222059e+03 1.0000000000000000e+00 1.6095483628839851e+00 6.6874154934493690e-01 1.0478612883709733e+01 
241 1 2 1.1605682597020588e+00 1.6156849684283579e+03 1.0000000000000000e+00 3.5961280863146152e+00 6.3001860574181723e-01 1.0661613252665362e+01 
246 1 2 1.1605682638250849e+00 4.0089002680922368e+02 1.0000000000000000e+00 5.6094230118814172e+00 6.0008411247718690e-02 9.9948682518974099e+00 
12 1 2 1.1605682584842913e+00 1.4692270095848598e+03 1.0000000000000000e+00 3.0685867115883760e+00 3.7109217450556122e+00 9.8594861054029472e+00 
28 1 2 1.1605682584842913e+00 4.4796692387227324e+02 1.0000000000000000e+00 6.6694980099350216e+00 3.3819091893594000e+00 9.4311464483328979e+00 
291 1 2 1.1605682584842913e+00 1.3630677779783628e+03 1.0000000000000000e+00 4.8692796908520330e+00 4.8678609122083296e+00 1.0213214002388458e+01 
167 1 2 1.1605682584842913e+00 1.2072598874311598e+03 1.0000000000000000e+00 8.1468613968832493e+00 4.9964809038198581e+00 1.0656374475446290e+01 
294 1 2 1.1605682815890592e+00 1.2135261440817187e+03 1.0000000000000000e+00 4.2642829867693016e-01 6.7554031081468411e+00 9.3550024892194550e+00 
358 1 2 1.1605682584842913e+00 1.6050656190598042e+03 1.0000000000000000e+00 9.7598133423342315e+00 7.7500167784851826e+00 9.9357082495908582e+00 
303 1 2 1.1605682584842913e+00 1.1199750176617040e+03 1.0000000000000000e+00 2.9025708005407749e+00 8.2206249796870701e+00 1.0484168448587134e+01 
322 1 2 1.1605682584842913e+00 -1.6121562676534299e+03 1.0000000000000000e+00 6.9544762842667343e+00 8.6945650704332618e+00 9.8825810729670955e+00 
328 1 2 1.1605682584842913e+00 1.1686914388978362e+03 1.0000000000000000e+00 4.7310250086744414e+00 9.4417320876946587e+00 1.0559671600178365e+01 
242 1 2 1.1605682584842913e+00 1.2689802913305030e+03 1.0000000000000000e+00 4.2107431034643010e+00 1.1852502996927679e+01 9.8780342439235120e+00 
229 1 2 1.1605682584842913e+00 1.4495976186714215e+03 1.0000000000000000e+00 9.5729606535127534e+00 1.2966186731172611e+01 9.3660653225192902e+00 
90 1 2 1.1605682584842913e+00 9.7953346165638686e+02 1.0000000000000000e+00 5.6696740460766275e+00 1.3957260342538863e+01 1.0195332747586663e+01 
382 1 2 1.1605682584842913e+00 1.3819226587795329e+03 1.0000000000000000e+00 4.6175115171777978e+00 1.5652648063626724e+01 1.0033245057986685e+01 
125 1 2 1.1605682584842913e+00 1.3675941690327545e+03 1.0000000000000000e+00 1.1321841620488700e+00 1.7027794721090537e+01 9.3413733481049093e+00 
193 1 2 1.1605682584842913e+00 1.4264791644196775e+03 1.0000000000000000e+00 4.2212972901749293e+00 1.8282156946315133e+01 9.5139298203701266e+00 
215 1 2 1.1605682584842913e+00 1.1964695736086928e+03 1.0000000000000000e+00 8.8668685330427337e+00 1.8731200619708712e+01 1.0057945795558858e+01 
203 1 2 1.1605682584842913e+00 2.1148900521110563e+03 1.0000000000000000e+00 5.8968586952813649e+00 2.8936835675083938e+00 1.1514962074544098e+01 
101 1 2 1.1605682584842913e+00 1.3317834879037846e+03 1.0000000000000000e+00 2.0134820337382791e+00 5.9222005921443133e+00 1.0769970940846392e+01 
383 1 2 1.1605682584842913e+00 3.3837375885289157e+02 1.0000000000000000e+00 7.9104008325619217e+00 7.2070049638086777e+00 1.1835019777349684e+01 
305 1 2 1.1605682584842913e+00 1.7438949667799516e+03 1.0000000000000000e+00 9.1484800161385693e-01 1.0378819101240241e+01 1.1582017741238653e+01 
265 1 2 1.1605682584842913e+00 1.7561669677960363e+03 1.0000000000000000e+00 1.6501170847399604e-01 1.2547103450421071e+01 1.1472750237150974e+01 
206 1 2 1.1605682584842913e+00 1.4924929042327094e+03 1.0000000000000000e+00 7.8774095978593266e+00 1.2787465611072934e+01 1.1384902542880287e+01 
224 1 2 1.1605682584842913e+00 1.0845195189286346e+03 1.0000000000000000e+00 2.8594814758550005e+00 1.4799138946813182e+01 1.0880662259763106e+01 
292 1 2 1.1605682584842913e+00 1.4541384160351681e+03 1.0000000000000000e+00 8.0616594066553589e+00 1.5433268857166485e+01 1.1938231785229828e+01 
19 1 2 1.1605682584842913e+00 2.1837237277166814e+03 1.0000000000000000e+00 3.1604394974076762e+00 1.7535384435988831e+01 1.1308384211665022e+01 
44 1 2 1.1605682584842913e+00 1.1999217067930313e+03 1.0000000000000000e+00 7.9116914739826605e+00 5.9709026958717026e-01 1.2733675307316886e+01 
96 1 2 1.1605682584842913e+00 1.9992337657037712e+02 1.0000000000000000e+00 2.1739477861707854e+00 3.1432287791978477e+00 1.2308414980534806e+01 
192 1 2 1.1605682584842913e+00 -2.2201926149715837e+03 1.0000000000000000e+00 7.6792982429193923e+00 4.3155790835754484e+00 1.2942298089342689e+01 
72 1 2 1.1605682584842913e+00 -8.7756475042819584e+03 1.0000000000000000e+00 3.1074183697370548e+00 6.3019713355487008e+00 1.2539584137832433e+01 
284 1 2 1.1605682584842913e+00 1.4497964223767985e+03 1.0000000000000000e+00 9.8796820789815172e+00 5.7276318196792548e+00 1.3086285445158685e+01 
340 1 2 1.1605682584842913e+00 1.5280111623241073e+03 1.0000000000000000e+00 5.3310950641850685e-01 6.7656269870581411e+00 1.2247699481248405e+01 
299 1 2 1.1605682584842913e+00 1.7873431921907281e+03 1.0000000000000000e+00 3.9834172740755007e+00 8.4055007702755695e+00 1.2619722628564849e+01 
357 1 2 1.1605682584842913e+00 1.4564297253722125e+03 1.0000000000000000e+00 9.9778015661530155e+00 8.0203220035946412e+00 1.2691385174803575e+01 
89 1 2 1.1605682584842913e+00 1.5891662709301995e+03 1.0000000000000000e+00 3.4566125459172468e+00 1.1134332844505371e+01 1.2266670041668545e+01 
109 1 2 1.1605682584842913e+00 -1.7362948488995073e+01 1.0000000000000000e+00 7.6411681184895199e+00 1.0702042663753328e+01 1.2153640363534960e+01 
160 1 2 1.1605682584842913e+00 1.6719848703676598e+02 1.0000000000000000e+00 6.7970236194925562e+00 1.3034115140389488e+01 1.3206303599091941e+01 
289 1 2 1.1605682584842913e+00 -2.3529131920764034e+04 1.0000000000000000e+00 5.7575813170148047e+00 1.4930447154489206e+01 1.2237307390468681e+01 
116 1 2 1.1605682584842913e+00 1.6866042044219134e+03 1.0000000000000000e+00 6.3114176270223128e+00 1.7170709993236652e+01 1.2692792767495144e+01 
257 1 2 1.1605682584842913e+00 1.6254736932565465e+03 1.0000000000000000e+00 8.3773631238327066e+00 1.7618394016722863e+01 1.2268632220118473e+01 
263 1 2 1.1605682584842913e+00 -1.1007402138972279e+03 1.0000000000000000e+00 2.4931778536482336e+00 3.0075995021566384e+00 1.4504904990391342e+01 
280 1 2 1.1605682584842913e+00 1.7942583118240382e+03 1.0000000000000000e+00 6.0800818386792583e+00 3.1188268548013647e+00 1.4085414520896322e+01 
148 1 2 1.1605682584842913e+00 1.0554533892894765e+03 1.0000000000000000e+00 5.3320934358374972e+00 5.9001139706609678e+00 1.3746020331061830e+01 
52 1 2 1.1605682584842913e+00 1.2493763668314714e+03 1.0000000000000000e+00 1.7877967200974574e+00 7.8125194282391570e+00 1.4257608313998634e+01 
175 1 2 1.1605682584842913e+00 1.1833820229823768e+03 1.0000000000000000e+00 7.6882012446467396e+00 7.7515306533926456e+00 1.4337160669597511e+01 
199 1 2 1.1605682584842913e+00 -2.1508430781048555e+04 1.0000000000000000e+00 4.6772548404028820e+00 1.0531208790816414e+01 1.3787841418090085e+01 
155 1 2 1.1605682584842913e+00 1.4644521484191923e+03 1.0000000000000000e+00 6.7026939148757849e+00 9.6361296198694859e+00 1.4242105928145177e+01 
133 1 2 1.1605682584842913e+00 1.8127914431437084e+03 1.0000000000000000e+00 9.6277879835012339e+00 1.2394930630248767e+01 1.3751310128008750e+01 
326 1 2 1.1605682584842913e+00 -1.3538285082724879e+03 1.0000000000000000e+00 1.4854831022842572e+00 1.4974316505566968e+01 1.3723107772155048e+01 
115 1 2 1.1605682584842913e+00 1.6113815677783464e+03 1.0000000000000000e+00 9.4663636823692894e+00 1.4834430292455130e+01 1.3647815233823499e+01 
136 1 2 1.1605682584842913e+00 -1.1783712891288887e+03 1.0000000000000000e+00 3.5226588227551789e+00 1.6569661755784601e+01 1.3814773373401602e+01 
201 1 2 1.1605682584842913e+00 1.6035856742684314e+03 1.0000000000000000e+00 9.8763406438006685e-01 1.7978908111311295e+01 1.3899090438281519e+01 
288 1 2 1.1605682584842913e+00 1.4833135737181678e+03 1.0000000000000000e+00 3.0292435171294736e+00 1.8990951777210689e+01 1.4014062051268342e+01 
290 1 2 1.1605682584842913e+00 -2.5455417583719434e+04 1.0000000000000000e+00 9.7591071247929033e+00 1.9124326704152693e+01 1.3772400380314066e+01 
258 1 2 1.1605683933370337e+00 -2.1019247698652780e+03 1.0000000000000000e+00 1.1581435889923777e+00 9.6892342817333987e-01 1.4990443070020447e+01 
27 1 2 1.1605682584842913e+00 1.8247567174969004e+03 1.0000000000000000e+00 4.7123662752352109e+00 1.4349684400611307e+00 1.4799707003197998e+01 
159 1 2 1.1605682584842913e+00 2.4920577498191744e+02 1.0000000000000000e+00 5.0038133243264529e+00 4.7405171207544843e+00 1.5580080313538895e+01 
146 1 2 1.1605682584842913e+00 -3.7747332327122576e+03 1.0000000000000000e+00 8.9369317768910737e+00 4.3879696967850306e+00 1.5374900069454815e+01 
46 1 2 1.1605682584842913e+00 1.5102614411590012e+03 1.0000000000000000e+00 1.8162765144443007e+00 5.3694971802548377e+00 1.4828660771931908e+01 
353 1 2 1.1605682584842913e+00 1.5404127099325970e+03 1.0000000000000000e+00 7.5073912720582072e+00 5.9520686682131521e+00 1.5430595120513310e+01 
316 1 2 1.1605682584842913e+00 1.8458387069045057e+03 1.0000000000000000e+00 4.0305982734710399e+00 8.0524342836583891e+00 1.5364485534042441e+01 
306 1 2 1.1605682584842913e+00 -6.3741797671879340e+02 1.0000000000000000e+00 2.0669352505192737e+00 1.0754700455717671e+01 1.5613680305303824e+01 
248 1 2 1.1605682584842913e+00 7.6536596743248560e+02 1.0000000000000000e+00 5.7249392890905160e+00 1.1861028824977330e+01 1.4929917202362782e+01 
319 1 2 1.1605682584842913e+00 2.0982170667346245e+03 1.0000000000000000e+00 1.7960213228043762e+00 1.3941036785204520e+01 1.5718826042962139e+01 
174 1 2 1.1605682584842913e+00 4.3338312594708827e+02 1.0000000000000000e+00 4.5700668903813328e+00 1.4490309914029780e+01 1.5859278520726546e+01 
26 1 2 1.1605682584842913e+00 2.0781326675947439e+03 1.0000000000000000e+00 6.9849364026845331e+00 1.5323430317988779e+01 1.5735256039448959e+01 
64 1 2 1.1605682584842913e+00 1.5050107623388640e+03 1.0000000000000000e+00 4.9814470965278463e+00 1.7547229953452707e+01 1.4822936547532828e+01 
3 1 2 1.1605682584842913e+00 9.7542030364460948e+02 1.0000000000000000e+00 7.0154919326450038e+00 1.7748932504835587e+01 1.4915416893785775e+01 
249 1 2 1.1605682584842913e+00 2.2799693782876839e+03 1.0000000000000000e+00 5.9583716148837080e+00 1.9796548840553548e+01 1.4758258329522386e+01 
343 1 2 1.1605682584842913e+00 1.9242976007206726e+03 1.0000000000000000e+00 8.6405681127183414e+00 1.8748473890719971e+01 1.5695159386554868e+01 
367 1 2 1.1605682584842913e+00 1.3156955743054932e+03 1.0000000000000000e+00 8.1400710634572757e+00 7.2079065539340170e-01 1.6932927056320658e+01 
55 1 2 1.1605682584842913e+00 1.6635169249073674e+03 1.0000000000000000e+00 5.6962926494776465e+00 2.2829125238909138e+00 1.6891780526316293e+01 
268 1 2 1.1605682584842913e+00 1.5949205803427667e+03 1.0000000000000000e+00 1.8749599057607247e+00 3.9151636628836544e+00 1.6464997328581713e+01 
61 1 2 1.1605682601325344e+00 1.8684657676946701e+03 1.0000000000000000e+00 3.5105255899023082e+00 5.2386155810102180e+00 1.7052178485601601e+01 
344 1 2 1.1605682584842913e+00 1.7222238459658547e+03 1.0000000000000000e+00 5.4849993931844909e-01 5.7264140306291713e+00 1.7208005404618135e+01 
172 1 2 1.1605682584842913e+00 1.2059476661038202e+03 1.0000000000000000e+00 9.5367554308700392e-02 8.2027096347517467e+00 1.6652573466289073e+01 
200 1 2 1.1605682584842913e+00 1.7535812554010495e+03 1.0000000000000000e+00 6.1086344885692201e+00 9.2468439377351537e+00 1.6257935955472053e+01 
222 1 2 1.1605682584842913e+00 1.3534767816869562e+03 1.0000000000000000e+00 3.9730542519156931e+00 1.1711477332457756e+01 1.6950514626286733e+01 
25 1 2 1.1605682584842913e+00 8.6904156429596014e+02 1.0000000000000000e+00 9.7606561739122242e+00 1.3491088563396216e+01 1.6531709501067507e+01 
53 1 2 1.1605682584842913e+00 1.6406461967402111e+03 1.0000000000000000e+00 7.5072159156129115e-01 1.5768078664487282e+01 1.6699886263002679e+01 
219 1 2 1.1605682584842913e+00 1.5825753441235106e+03 1.0000000000000000e+00 9.0458178763507888e+00 1.5354145116781481e+01 1.6179233549211588e+01 
34 1 2 1.1605682584842913e+00 7.5434657984761657e+02 1.0000000000000000e+00 7.8555927276868340e+00 1.7507378787125031e+01 1.7071453590294986e+01 
40 1 2 1.1605682584842913e+00 9.5783155636697097e+02 1.0000000000000000e+00 3.3843141569428750e+00 1.9073956685452785e+01 1.6038461834856534e+01 
227 1 2 1.1605682584842913e+00 1.6945223246307805e+03 1.0000000000000000e+00 2.2640700955741360e+00 6.2740599201981828e-02 1.8550021237370068e+01 
176 1 2 1.1605682584842913e+00 1.1129419974080811e+03 1.0000000000000000e+00 3.4848755739667645e+00 1.4041970345031602e+00 1.7441154353174920e+01 
121 1 2 1.1605682584842913e+00 1.4031262886210889e+03 1.0000000000000000e+00 9.1542670018009176e+00 3.1065118829251359e+00 1.8220293277146713e+01 
45 1 2 1.1605682584998587e+00 1.4698841828862471e+03 1.0000000000000000e+00 6.7678381102374674e+00 5.6472239558061341e+00 1.7643524929488759e+01 
195 1 2 1.1605682584842913e+00 -1.3972116869534370e+03 1.0000000000000000e+00 8.7800071188660809e+00 5.6820294974632386e+00 1.7436205996250887e+01 
165 1 2 1.1605682584842913e+00 1.1993021673839612e+03 1.0000000000000000e+00 8.2856122777767531e+00 8.4270425781925695e+00 1.7689850924372518e+01 
16 1 2 1.1605682584842913e+00 1.4740339191206267e+03 1.0000000000000000e+00 1.1244505506372735e+00 1.0505405606923773e+01 1.7887855716840562e+01 
354 1 2 1.1605682584842913e+00 1.0329606512830455e+03 1.0000000000000000e+00 4.8203822899407101e+00 9.9149871712973585e+00 1.8322239648017920e+01 
205 1 2 1.1605682584842913e+00 9.8390934371455569e+02 1.0000000000000000e+00 7.5122861338163167e+00 1.0615047546756070e+01 1.7694351192273555e+01 
38 1 2 1.1605682584842913e+00 1.7010709913055916e+03 1.0000000000000000e+00 3.2096996774289326e+00 1.4097092304898693e+01 1.8662068378247902e+01 
140 1 2 1.1605682584842913e+00 -2.8980211091832030e+02 1.0000000000000000e+00 4.6076024834576961e+00 1.5822406992437587e+01 1.7444069646595253e+01 
336 1 2 1.1605682584842913e+00 1.7718231027452161e+03 1.0000000000000000e+00 2.4306955343557233e+00 1.6667140611288339e+01 1.8480853427436603e+01 
274 1 2 1.1605682584842913e+00 6.8767675962579347e+02 1.0000000000000000e+00 4.1771765437873007e+00 1.8318892051347596e+01 1.7957295200157976e+01 
180 1 2 1.1605682584842913e+00 1.8841307779419035e+03 1.0000000000000000e+00 6.4024676791080051e+00 1.8728206082189757e+01 1.8159488937842660e+01 
315 1 2 1.1605682584842913e+00 -3.7187995846517663e+02 1.0000000000000000e+00 9.9068107560269887e+00 1.9559670960329722e+01 1.7506965200449766e+01 
88 1 2 1.1605682584842913e+00 1.5489830953150317e+03 1.0000000000000000e+00 4.8607098099883990e+00 5.6673245150388363e-01 1.9383558376369720e+01 
301 1 2 1.1605682584842913e+00 6.2500055834353384e+02 1.0000000000000000e+00 8.3701839673307763e+00 1.6913410173195031e+00 1.9545657283142312e+01 
348 1 2 1.1605687088697467e+00 -3.5156579024086950e+03 1.0000000000000000e+00 3.3139578881666920e+00 5.1349254891072231e+00 1.9032651508536340e+01 
183 1 2 1.1605687072215036e+00 1.7417335704075870e+03 1.0000000000000000e+00 5.0490848805409589e+00 4.6152617015963893e+00 1.9819885695616978e+01 
145 1 2 1.1605682584998587e+00 -3.0211725961116940e+03 1.0000000000000000e+00 7.5925172548581461e+00 4.9989659360319019e+00 1.9345161071363989e+01 
374 1 2 1.1605682584842913e+00 1.3701864039959669e+03 1.0000000000000000e+00 7.0176799064217192e+00 7.1708373781115800e+00 1.9316263482631825e+01 
375 1 2 1.1605682584842913e+00 1.1837824579430876e+03 1.0000000000000000e+00 2.0303115826203486e+00 8.6501587201713424e+00 1.8948602380964537e+01 
158 1 2 1.1605682584842913e+00 1.6103292289026804e+03 1.0000000000000000e+00 7.1364888227802723e+00 9.2916850451905049e+00 1.9544279282914054e+01 
1 1 2 1.1605682584842913e+00 8.5719263321406811e+02 1.0000000000000000e+00 9.7264450851167457e+00 1.0491112008338062e+01 1.9394730704069982e+01 
118 1 2 1.1605682584842913e+00 1.4157163121562871e+03 1.0000000000000000e+00 3.0520101773983201e+00 1.1068420182441924e+01 1.9060959394019445e+01 
93 1 2 1.1605682584842913e+00 -1.0313420585128035e+04 1.0000000000000000e+00 3.9894104216129933e+00 1.5938063829116023e+01 1.9768628153475252e+01 
187 1 2 1.1605682584842913e+00 1.5889847773494962e+03 1.0000000000000000e+00 7.7867043139972303e+00 1.6943531049551996e+01 1.9798080192907086e+01 
82 1 2 1.1605682584842913e+00 -1.9739812347664788e+03 1.0000000000000000e+00 1.6692755444022602e+01 1.9827397516655130e+00 2.9696059721634166e-01 
51 1 2 1.1605682584842913e+00 -5.3179047572558302e+03 1.0000000000000000e+00 1.2430020344289362e+01 2.9349252456660198e+00 7.2698547044851147e-01 
304 1 2 1.1605682584842913e+00 1.2174812418382726e+03 1.0000000000000000e+00 1.9087305673716262e+01 3.2862529090197627e+00 5.2061541005119345e-02 
20 1 2 1.1605682639730002e+00 1.9255618877736790e+03 1.0000000000000000e+00 1.2405506322641479e+01 5.0347510724826394e+00 8.3287969852208688e-01 
107 1 2 1.1605682584842913e+00 1.2073391330851605e+03 1.0000000000000000e+00 1.6138624727197470e+01 4.4114639736610570e+00 1.1576413112463453e+00 
94 1 2 1.1605682584842913e+00 -1.0089421831760330e+04 1.0000000000000000e+00 1.4354681533024282e+01 6.4327938248040191e+00 1.6330766577041755e-01 
276 1 2 1.1605682584842913e+00 8.1700269016119137e+01 1.0000000000000000e+00 1.6286688116632966e+01 6.9482442547743783e+00 8.5449953278050383e-01 
198 1 2 1.1605682584842913e+00 7.6535212749019206e+02 1.0000000000000000e+00 1.8853047818589467e+01 1.0550896802604386e+01 1.3295605447132119e+00 
139 1 2 1.1605682584842913e+00 1.3098701582245694e+03 1.0000000000000000e+00 1.4028162047147440e+01 1.1958989074935866e+01 3.9112359077651315e-01 