LAMMPS data file via write_data, version 30 Jul 2016, timestep = 600000

2080 atoms
8 atom types

0.0000000000000000e+00 4.0000000000000000e+01 xlo xhi
0.0000000000000000e+00 4.0000000000000000e+01 ylo yhi
0.0000000000000000e+00 1.0000000000000000e+02 zlo zhi

Masses

1 3.896
2 4.306
3 20.064
4 8.378
5 8.378
6 8.378
7 8.378
8 8.378

Atoms # meso-molecular

1 2 4 2.2559723595316457e+00 0.0000000000000000e+00 1.0000000000000000e+00 0.0000000000000000e+00 0.0000000000000000e+00 2.5000000000000000e+00 
2 2 4 2.2559723595316457e+00 0.0000000000000000e+00 1.0000000000000000e+00 0.0000000000000000e+00 2.0000000000000000e+00 2.5000000000000000e+00 
3 2 4 2.2559723595316457e+00 0.0000000000000000e+00 1.0000000000000000e+00 0.0000000000000000e+00 4.0000000000000000e+00 2.5000000000000000e+00 
4 2 4 2.2559723595316457e+00 0.0000000000000000e+00 1.0000000000000000e+00 0.0000000000000000e+00 6.0000000000000000e+00 2.5000000000000000e+00 
5 2 4 2.2559723595316457e+00 0.0000000000000000e+00 1.0000000000000000e+00 0.0000000000000000e+00 8.0000000000000000e+00 2.5000000000000000e+00 
21 2 4 2.2559723595316457e+00 0.0000000000000000e+00 1.0000000000000000e+00 2.0000000000000000e+00 0.0000000000000000e+00 2.5000000000000000e+00 
22 2 4 2.2559723595316457e+00 0.0000000000000000e+00 1.0000000000000000e+00 2.0000000000000000e+00 2.0000000000000000e+00 2.5000000000000000e+00 
23 2 4 2.2559723595316457e+00 0.0000000000000000e+00 1.0000000000000000e+00 2.0000000000000000e+00 4.0000000000000000e+00 2.5000000000000000e+00 
24 2 4 2.2559723595316457e+00 0.0000000000000000e+00 1.0000000000000000e+00 2.0000000000000000e+00 6.0000000000000000e+00 2.5000000000000000e+00 
25 2 4 2.2559723595316457e+00 0.0000000000000000e+00 1.0000000000000000e+00 2.0000000000000000e+00 8.0000000000000000e+00 2.5000000000000000e+00 
41 2 4 2.2559723595316457e+00 0.0000000000000000e+00 1.0000000000000000e+00 4.0000000000000000e+00 0.0000000000000000e+00 2.5000000000000000e+00 
42 2 4 2.2559723595316457e+00 0.0000000000000000e+00 1.0000000000000000e+00 4.0000000000000000e+00 2.0000000000000000e+00 2.5000000000000000e+00 
43 2 4 2.2559723595316457e+00 0.0000000000000000e+00 1.0000000000000000e+00 4.0000000000000000e+00 4.0000000000000000e+00 2.5000000000000000e+00 
44 2 4 2.2559723595316457e+00 0.0000000000000000e+00 1.0000000000000000e+00 4.0000000000000000e+00 6.0000000000000000e+00 2.5000000000000000e+00 
45 2 4 2.2559723595316457e+00 0.0000000000000000e+00 1.0000000000000000e+00 4.0000000000000000e+00 8.0000000000000000e+00 2.5000000000000000e+00 
61 2 4 2.2559723595316457e+00 0.0000000000000000e+00 1.0000000000000000e+00 6.0000000000000000e+00 0.0000000000000000e+00 2.5000000000000000e+00 
62 2 4 2.2559723595316457e+00 0.0000000000000000e+00 1.0000000000000000e+00 6.0000000000000000e+00 2.0000000000000000e+00 2.5000000000000000e+00 
63 2 4 2.2559723595316457e+00 0.0000000000000000e+00 1.0000000000000000e+00 6.0000000000000000e+00 4.0000000000000000e+00 2.5000000000000000e+00 
64 2 4 2.2559723595316457e+00 -7.3955706186296238e-02 1.0000000000000000e+00 6.0000000000000000e+00 6.0000000000000000e+00 2.5000000000000000e+00 
65 2 4 2.2559723595316457e+00 -1.3399880591445059e+00 1.0000000000000000e+00 6.0000000000000000e+00 8.0000000000000000e+00 2.5000000000000000e+00 
81 2 4 2.2559723595316457e+00 0.0000000000000000e+00 1.0000000000000000e+00 8.0000000000000000e+00 0.0000000000000000e+00 2.5000000000000000e+00 
82 2 4 2.2559723595316457e+00 0.0000000000000000e+00 1.0000000000000000e+00 8.0000000000000000e+00 2.0000000000000000e+00 2.5000000000000000e+00 
83 2 4 2.2559723595316457e+00 -2.2024501835286596e+00 1.0000000000000000e+00 8.0000000000000000e+00 4.0000000000000000e+00 2.5000000000000000e+00 
84 2 4 2.2559723595316457e+00 -1.8717111250481995e+01 1.0000000000000000e+00 8.0000000000000000e+00 6.0000000000000000e+00 2.5000000000000000e+00 
85 2 4 2.2559723595316457e+00 -6.1107178363192503e+01 1.0000000000000000e+00 8.0000000000000000e+00 8.0000000000000000e+00 2.5000000000000000e+00 
101 2 4 2.2559723595316457e+00 0.0000000000000000e+00 1.0000000000000000e+00 1.0000000000000000e+01 0.0000000000000000e+00 2.5000000000000000e+00 
102 2 4 2.2559723595316457e+00 -2.2024854591494076e+00 1.0000000000000000e+00 1.0000000000000000e+01 2.0000000000000000e+00 2.5000000000000000e+00 
103 2 4 2.2559723595316457e+00 -3.3813147892433342e+01 1.0000000000000000e+00 1.0000000000000000e+01 4.0000000000000000e+00 2.5000000000000000e+00 
104 2 4 2.2559723595316457e+00 -1.5302473938593639e+02 1.0000000000000000e+00 1.0000000000000000e+01 6.0000000000000000e+00 2.5000000000000000e+00 
105 2 4 2.2559723595316457e+00 -3.9526774798130077e+02 1.0000000000000000e+00 1.0000000000000000e+01 8.0000000000000000e+00 2.5000000000000000e+00 
121 2 4 2.2559723595316457e+00 -7.3957619995265303e-02 1.0000000000000000e+00 1.2000000000000000e+01 0.0000000000000000e+00 2.5000000000000000e+00 
122 2 4 2.2559723595316457e+00 -1.8619958670857631e+01 1.0000000000000000e+00 1.2000000000000000e+01 2.0000000000000000e+00 2.5000000000000000e+00 
123 2 4 2.2559723595316457e+00 -1.5200766762849554e+02 1.0000000000000000e+00 1.2000000000000000e+01 4.0000000000000000e+00 2.5000000000000000e+00 
124 2 4 2.2559723595316457e+00 -5.5274668207885861e+02 1.0000000000000000e+00 1.2000000000000000e+01 6.0000000000000000e+00 2.5000000000000000e+00 
125 2 4 2.2559723595316457e+00 -1.2901887882173758e+03 1.0000000000000000e+00 1.2000000000000000e+01 8.0000000000000000e+00 2.5000000000000000e+00 
141 2 4 2.2559723595316457e+00 -1.3371049857210373e+00 1.0000000000000000e+00 1.4000000000000000e+01 0.0000000000000000e+00 2.5000000000000000e+00 
142 2 4 2.2559723595316457e+00 -6.0028909975328894e+01 1.0000000000000000e+00 1.4000000000000000e+01 2.0000000000000000e+00 2.5000000000000000e+00 
143 2 4 2.2559723595316457e+00 -3.8702587854536944e+02 1.0000000000000000e+00 1.4000000000000000e+01 4.0000000000000000e+00 2.5000000000000000e+00 
144 2 4 2.2559723595316457e+00 -1.2717035322353968e+03 1.0000000000000000e+00 1.4000000000000000e+01 6.0000000000000000e+00 2.5000000000000000e+00 
145 2 4 2.2559723595316457e+00 -2.8279676784755293e+03 1.0000000000000000e+00 1.4000000000000000e+01 8.0000000000000000e+00 2.5000000000000000e+00 
161 2 4 2.2559723595316457e+00 -3.7119259223331813e+00 1.0000000000000000e+00 1.6000000000000000e+01 0.0000000000000000e+00 2.5000000000000000e+00 
162 2 4 2.2559723595316457e+00 -1.1660820581323543e+02 1.0000000000000000e+00 1.6000000000000000e+01 2.0000000000000000e+00 2.5000000000000000e+00 
163 2 4 2.2559723595316457e+00 -6.8140145980310399e+02 1.0000000000000000e+00 1.6000000000000000e+01 4.0000000000000000e+00 2.5000000000000000e+00 
164 2 4 2.2559723595316457e+00 -2.1334401106869695e+03 1.0000000000000000e+00 1.6000000000000000e+01 6.0000000000000000e+00 2.5000000000000000e+00 
165 2 4 2.2559723595316457e+00 -4.6348549266999971e+03 1.0000000000000000e+00 1.6000000000000000e+01 8.0000000000000000e+00 2.5000000000000000e+00 
181 2 4 2.2559723595316457e+00 -5.2662864196432508e+00 1.0000000000000000e+00 1.8000000000000000e+01 0.0000000000000000e+00 2.5000000000000000e+00 
182 2 4 2.2559723595316457e+00 -1.5902207004551298e+02 1.0000000000000000e+00 1.8000000000000000e+01 2.0000000000000000e+00 2.5000000000000000e+00 
183 2 4 2.2559723595316457e+00 -8.9391659288163567e+02 1.0000000000000000e+00 1.8000000000000000e+01 4.0000000000000000e+00 2.5000000000000000e+00 
184 2 4 2.2559723595316457e+00 -2.7408294174562097e+03 1.0000000000000000e+00 1.8000000000000000e+01 6.0000000000000000e+00 2.5000000000000000e+00 
185 2 4 2.2559723595316457e+00 -5.8945179870338570e+03 1.0000000000000000e+00 1.8000000000000000e+01 8.0000000000000000e+00 2.5000000000000000e+00 
6 2 4 2.2559723595316457e+00 0.0000000000000000e+00 1.0000000000000000e+00 0.0000000000000000e+00 1.0000000000000000e+01 2.5000000000000000e+00 
7 2 4 2.2559723595316457e+00 0.0000000000000000e+00 1.0000000000000000e+00 0.0000000000000000e+00 1.2000000000000000e+01 2.5000000000000000e+00 
8 2 4 2.2559723595316457e+00 0.0000000000000000e+00 1.0000000000000000e+00 0.0000000000000000e+00 1.4000000000000000e+01 2.5000000000000000e+00 
9 2 4 2.2559723595316457e+00 0.0000000000000000e+00 1.0000000000000000e+00 0.0000000000000000e+00 1.6000000000000000e+01 2.5000000000000000e+00 
10 2 4 2.2559723595316457e+00 0.0000000000000000e+00 1.0000000000000000e+00 0.0000000000000000e+00 1.8000000000000000e+01 2.5000000000000000e+00 
26 2 4 2.2559723595316457e+00 0.0000000000000000e+00 1.0000000000000000e+00 2.0000000000000000e+00 1.0000000000000000e+01 2.5000000000000000e+00 
27 2 4 2.2559723595316457e+00 0.0000000000000000e+00 1.0000000000000000e+00 2.0000000000000000e+00 1.2000000000000000e+01 2.5000000000000000e+00 
28 2 4 2.2559723595316457e+00 0.0000000000000000e+00 1.0000000000000000e+00 2.0000000000000000e+00 1.4000000000000000e+01 2.5000000000000000e+00 
29 2 4 2.2559723595316457e+00 0.0000000000000000e+00 1.0000000000000000e+00 2.0000000000000000e+00 1.6000000000000000e+01 2.5000000000000000e+00 
30 2 4 2.2559723595316457e+00 0.0000000000000000e+00 1.0000000000000000e+00 2.0000000000000000e+00 1.8000000000000000e+01 2.5000000000000000e+00 
46 2 4 2.2559723595316457e+00 0.0000000000000000e+00 1.0000000000000000e+00 4.0000000000000000e+00 1.0000000000000000e+01 2.5000000000000000e+00 
47 2 4 2.2559723595316457e+00 0.0000000000000000e+00 1.0000000000000000e+00 4.0000000000000000e+00 1.2000000000000000e+01 2.5000000000000000e+00 
48 2 4 2.2559723595316457e+00 0.0000000000000000e+00 1.0000000000000000e+00 4.0000000000000000e+00 1.4000000000000000e+01 2.5000000000000000e+00 
49 2 4 2.2559723595316457e+00 0.0000000000000000e+00 1.0000000000000000e+00 4.0000000000000000e+00 1.6000000000000000e+01 2.5000000000000000e+00 
50 2 4 2.2559723595316457e+00 0.0000000000000000e+00 1.0000000000000000e+00 4.0000000000000000e+00 1.8000000000000000e+01 2.5000000000000000e+00 
66 2 4 2.2559723595316457e+00 -3.7753045214837533e+00 1.0000000000000000e+00 6.0000000000000000e+00 1.0000000000000000e+01 2.5000000000000000e+00 
67 2 4 2.2559723595316457e+00 -5.5450682081232738e+00 1.0000000000000000e+00 6.0000000000000000e+00 1.2000000000000000e+01 2.5000000000000000e+00 
68 2 4 2.2559723595316457e+00 -6.0747336326327837e+00 1.0000000000000000e+00 6.0000000000000000e+00 1.4000000000000000e+01 2.5000000000000000e+00 
69 2 4 2.2559723595316457e+00 -6.2654407607108240e+00 1.0000000000000000e+00 6.0000000000000000e+00 1.6000000000000000e+01 2.5000000000000000e+00 
70 2 4 2.2559723595316457e+00 -6.3206665062774157e+00 1.0000000000000000e+00 6.0000000000000000e+00 1.8000000000000000e+01 2.5000000000000000e+00 
86 2 4 2.2559723595316457e+00 -1.2158274536905100e+02 1.0000000000000000e+00 8.0000000000000000e+00 1.0000000000000000e+01 2.5000000000000000e+00 
87 2 4 2.2559723595316457e+00 -1.7548012411546915e+02 1.0000000000000000e+00 8.0000000000000000e+00 1.2000000000000000e+01 2.5000000000000000e+00 
88 2 4 2.2559723595316457e+00 -2.0570812220684041e+02 1.0000000000000000e+00 8.0000000000000000e+00 1.4000000000000000e+01 2.5000000000000000e+00 
89 2 4 2.2559723595316457e+00 -2.1649819198828297e+02 1.0000000000000000e+00 8.0000000000000000e+00 1.6000000000000000e+01 2.5000000000000000e+00 
90 2 4 2.2559723595316457e+00 -2.1968596106465876e+02 1.0000000000000000e+00 8.0000000000000000e+00 1.8000000000000000e+01 2.5000000000000000e+00 
106 2 4 2.2559723595316457e+00 -7.1586751177947099e+02 1.0000000000000000e+00 1.0000000000000000e+01 1.0000000000000000e+01 2.5000000000000000e+00 
107 2 4 2.2559723595316457e+00 -1.0092449700571442e+03 1.0000000000000000e+00 1.0000000000000000e+01 1.2000000000000000e+01 2.5000000000000000e+00 
108 2 4 2.2559723595316457e+00 -1.1945023897928208e+03 1.0000000000000000e+00 1.0000000000000000e+01 1.4000000000000000e+01 2.5000000000000000e+00 
109 2 4 2.2559723595316457e+00 -1.2730972511258117e+03 1.0000000000000000e+00 1.0000000000000000e+01 1.6000000000000000e+01 2.5000000000000000e+00 
110 2 4 2.2559723595316457e+00 -1.2960048812021266e+03 1.0000000000000000e+00 1.0000000000000000e+01 1.8000000000000000e+01 2.5000000000000000e+00 
126 2 4 2.2559723595316457e+00 -2.2333989028106880e+03 1.0000000000000000e+00 1.2000000000000000e+01 1.0000000000000000e+01 2.5000000000000000e+00 
127 2 4 2.2559723595316457e+00 -3.1052658310208494e+03 1.0000000000000000e+00 1.2000000000000000e+01 1.2000000000000000e+01 2.5000000000000000e+00 
128 2 4 2.2559723595316457e+00 -3.6833121223605813e+03 1.0000000000000000e+00 1.2000000000000000e+01 1.4000000000000000e+01 2.5000000000000000e+00 
129 2 4 2.2559723595316457e+00 -3.9471899101290346e+03 1.0000000000000000e+00 1.2000000000000000e+01 1.6000000000000000e+01 2.5000000000000000e+00 
130 2 4 2.2559723595316457e+00 -4.0253399149481888e+03 1.0000000000000000e+00 1.2000000000000000e+01 1.8000000000000000e+01 2.5000000000000000e+00 
146 2 4 2.2559723595316457e+00 -4.7944011055436895e+03 1.0000000000000000e+00 1.4000000000000000e+01 1.0000000000000000e+01 2.5000000000000000e+00 
147 2 4 2.2559723595316457e+00 -6.6273399875731593e+03 1.0000000000000000e+00 1.4000000000000000e+01 1.2000000000000000e+01 2.5000000000000000e+00 
148 2 4 2.2559723595316457e+00 -7.8719532437302823e+03 1.0000000000000000e+00 1.4000000000000000e+01 1.4000000000000000e+01 2.5000000000000000e+00 
149 2 4 2.2559723595316457e+00 -8.4587178277343683e+03 1.0000000000000000e+00 1.4000000000000000e+01 1.6000000000000000e+01 2.5000000000000000e+00 
150 2 4 2.2559723595316457e+00 -8.6327513206486747e+03 1.0000000000000000e+00 1.4000000000000000e+01 1.8000000000000000e+01 2.5000000000000000e+00 
166 2 4 2.2559723595316457e+00 -7.7868274791220028e+03 1.0000000000000000e+00 1.6000000000000000e+01 1.0000000000000000e+01 2.5000000000000000e+00 
167 2 4 2.2559723595316457e+00 -1.0750129683437139e+04 1.0000000000000000e+00 1.6000000000000000e+01 1.2000000000000000e+01 2.5000000000000000e+00 
168 2 4 2.2559723595316457e+00 -1.2794104877541937e+04 1.0000000000000000e+00 1.6000000000000000e+01 1.4000000000000000e+01 2.5000000000000000e+00 
169 2 4 2.2559723595316457e+00 -1.3771229278835210e+04 1.0000000000000000e+00 1.6000000000000000e+01 1.6000000000000000e+01 2.5000000000000000e+00 
170 2 4 2.2559723595316457e+00 -1.4055973198637243e+04 1.0000000000000000e+00 1.6000000000000000e+01 1.8000000000000000e+01 2.5000000000000000e+00 
186 2 4 2.2559723595316457e+00 -9.8694535092413535e+03 1.0000000000000000e+00 1.8000000000000000e+01 1.0000000000000000e+01 2.5000000000000000e+00 
187 2 4 2.2559723604709001e+00 -1.3628042359424819e+04 1.0000000000000000e+00 1.8000000000000000e+01 1.2000000000000000e+01 2.5000000000000000e+00 
188 2 4 2.2559723598176284e+00 -1.6244421093266315e+04 1.0000000000000000e+00 1.8000000000000000e+01 1.4000000000000000e+01 2.5000000000000000e+00 
189 2 4 2.2559723595316457e+00 -1.7505303454500634e+04 1.0000000000000000e+00 1.8000000000000000e+01 1.6000000000000000e+01 2.5000000000000000e+00 
190 2 4 2.2559723595316457e+00 -1.7867449202538864e+04 1.0000000000000000e+00 1.8000000000000000e+01 1.8000000000000000e+01 2.5000000000000000e+00 
1246 848 2 1.0318274882148977e+00 7.0701687175906272e+01 1.0000000000000000e+00 1.9239330880697519e+01 5.3983152529518623e+00 1.5094609437408854e+01 
1184 786 2 1.0227226515415917e+00 -3.8606772460958126e+02 1.0000000000000000e+00 1.8355060910675501e+01 2.7136060351713445e+00 1.5908405408741102e+01 
1495 1097 2 1.0261110043330444e+00 9.3713334732466194e+02 1.0000000000000000e+00 1.8338902317398080e+01 4.1548499950405304e+00 1.6175166144803743e+01 
1277 879 2 1.0243962798934974e+00 8.2365012773120216e+03 1.0000000000000000e+00 1.8296302780257797e+01 8.1928637766598644e+00 1.5777733094929918e+01 
806 408 2 1.0323931622329421e+00 -6.4709791194081367e+02 1.0000000000000000e+00 1.8588276700137904e+01 6.8855641347957253e+00 1.5920490938304033e+01 
1850 1452 2 1.0250380989897232e+00 -4.7541248547576797e+03 1.0000000000000000e+00 1.8473537600552600e+01 2.8263751560514172e+00 1.5651078536219305e+01 
1968 1570 2 1.0245902677099332e+00 -4.6259569729504437e+03 1.0000000000000000e+00 1.8544351437015049e+01 3.9738093798074261e+00 1.5537739210841632e+01 
1035 637 2 1.0234185264665350e+00 1.6760712140833559e+04 1.0000000000000000e+00 1.8857860782336655e+01 4.0717421104131928e+00 1.5076850248293498e+01 
667 269 2 1.0290279001794247e+00 -6.5850735307081013e+03 1.0000000000000000e+00 1.9584861248180992e+01 9.2047823663510684e+00 1.5065235132025199e+01 
817 419 2 1.0334972195117769e+00 -8.1081386283809870e+03 1.0000000000000000e+00 1.8887936095591570e+01 7.3955907442671007e+00 1.5469069786328564e+01 
740 342 2 1.0257468865825292e+00 -3.7425161240435482e+03 1.0000000000000000e+00 1.9169970519987530e+01 3.5877057981834248e+00 1.4801220017466193e+01 
686 288 2 1.0263868800056499e+00 -8.2639851116096779e+03 1.0000000000000000e+00 1.9590576609204195e+01 1.3370934161501535e-01 1.4567259087133753e+01 
1233 835 2 1.0264733136733080e+00 5.6495340322555903e+03 1.0000000000000000e+00 1.8296117256306029e+01 2.1776701886352763e+00 1.6322560419735769e+01 
1587 1189 2 1.0298069214582823e+00 -7.3376851649594903e+02 1.0000000000000000e+00 1.8572340866537346e+01 6.8933223541755888e+00 1.5848339263862124e+01 
1087 689 2 1.0239152181623299e+00 -2.7644183786239760e+03 1.0000000000000000e+00 1.9130062769942018e+01 1.9759077129809071e+00 1.4747004415085881e+01 
1736 1338 2 1.0241882891162655e+00 4.7934271846434422e+03 1.0000000000000000e+00 1.8882662676432776e+01 9.4494478909977586e-01 1.5072595688139002e+01 
1754 1356 2 1.0273444068869075e+00 8.4140951022825845e+02 1.0000000000000000e+00 1.8272660200528691e+01 3.4007941272343798e+00 1.6467295442188409e+01 
1478 1080 2 1.0291843372331289e+00 2.2974035743442093e+02 1.0000000000000000e+00 1.8326872514214354e+01 4.0430843516228814e+00 1.6379399122093794e+01 
1509 1111 2 1.0355134307948264e+00 -2.8394773267234909e+03 1.0000000000000000e+00 1.9461448778026107e+01 8.0300500331924169e+00 1.5306485029758559e+01 
660 262 2 1.0302525006843111e+00 -8.4848729612630923e+03 1.0000000000000000e+00 1.9441393336934144e+01 1.7320803481378419e-01 1.4700689510263835e+01 
1554 1156 2 1.0304613096774988e+00 5.1124505832516923e+02 1.0000000000000000e+00 1.9221146507791996e+01 1.9957636268959211e-01 1.4873532555319413e+01 
723 325 2 1.0265354370459567e+00 -9.6466680699023198e+02 1.0000000000000000e+00 1.8579710606689073e+01 1.7878809697404385e+00 1.5519106264572754e+01 
1332 934 2 1.0241583462975452e+00 2.1824035088054302e+03 1.0000000000000000e+00 1.8781209250501362e+01 1.5182441126747406e+00 1.5154986284518316e+01 
1055 657 2 1.0283265187384101e+00 4.4972142818746306e+03 1.0000000000000000e+00 1.8510036959259988e+01 3.4804481298321730e+00 1.5664666186317904e+01 
800 402 2 1.0233258875136528e+00 1.0613171487027405e+03 1.0000000000000000e+00 1.8728219713055452e+01 3.3949232077323837e+00 1.5179372236201027e+01 
2055 1657 2 1.0259797596139031e+00 -7.6484981003841349e+03 1.0000000000000000e+00 1.8535650069401637e+01 4.3825478472246058e+00 1.5630972922729027e+01 
1106 708 2 1.0303229109045777e+00 1.6918405843896137e+04 1.0000000000000000e+00 1.9503059968954535e+01 9.4465258033672417e-01 1.4613795494052363e+01 
486 88 2 1.0286395520963272e+00 -5.8344204554253083e+03 1.0000000000000000e+00 1.9783132768859787e+01 8.9035634646247921e+00 1.5226313994260776e+01 
1791 1393 2 1.0249611862132837e+00 6.4049054835815252e+02 1.0000000000000000e+00 1.9025418470612280e+01 2.4276767542817042e+00 1.4849295854074617e+01 
2076 1678 2 1.0296790022670546e+00 -9.8293172536789370e+03 1.0000000000000000e+00 1.9476617107833292e+01 1.9623714896077826e+00 1.4595141830386119e+01 
1230 832 2 1.0289894105262556e+00 6.4055964571675859e+03 1.0000000000000000e+00 1.9418451672826233e+01 2.9118982730548346e+00 1.4647929720210001e+01 
821 423 2 1.0299591564192705e+00 1.1108727903670896e+02 1.0000000000000000e+00 1.9934758603707603e+01 8.2003044605032720e+00 1.5453190636879082e+01 
702 304 2 1.0279713123203862e+00 9.0208011072626032e+03 1.0000000000000000e+00 1.9860090580563423e+01 1.0686824691274923e+00 1.4441878647887044e+01 
1900 1502 2 1.0283106167133249e+00 5.4517608918324740e+03 1.0000000000000000e+00 1.9963315351226672e+01 9.3210187185271065e-01 1.4427312975772592e+01 
797 399 2 1.0279462634030931e+00 1.0824932469556234e+03 1.0000000000000000e+00 1.9650344350034654e+01 1.3159685774943251e+00 1.4502537238777512e+01 
737 339 2 1.0270456588226897e+00 -3.7446708538197390e+03 1.0000000000000000e+00 1.9459249878221172e+01 3.0892892456176275e+00 1.4616862105343426e+01 
1086 688 2 1.0282082648080875e+00 -2.7627039523737149e+03 1.0000000000000000e+00 1.9997096940280095e+01 1.8615066382956098e+00 1.4422765095186367e+01 
1411 1013 2 1.0283488019569891e+00 -3.5957590904739868e+03 1.0000000000000000e+00 1.8608532478247501e+01 6.6627949548393026e+00 1.5743648628184493e+01 
1089 691 2 1.0269517189821202e+00 -2.2444719998303808e+03 1.0000000000000000e+00 1.9725593120382776e+01 2.5110121695831875e+00 1.4484645437186536e+01 
1092 694 2 1.0231480473966976e+00 -2.2549122639292555e+03 1.0000000000000000e+00 1.8682258616253637e+01 2.8400574622100931e+00 1.5225209212483650e+01 
1073 675 2 1.0278544079359735e+00 -1.0115315413606570e+04 1.0000000000000000e+00 1.8454236784647467e+01 6.0495104642259161e+00 1.6150336180161279e+01 
1410 1012 2 1.0261147326610027e+00 -3.5564645723421063e+03 1.0000000000000000e+00 1.8445032091052887e+01 5.5632421743181224e+00 1.6033611936721027e+01 
1058 660 2 1.0295395392710633e+00 1.3062901748349495e+04 1.0000000000000000e+00 1.8602724950477928e+01 4.7783732370090100e+00 1.5640468701186377e+01 
1395 997 2 1.0259825416220305e+00 -1.8751741829163092e+02 1.0000000000000000e+00 1.8472933737965576e+01 5.4522973935520858e+00 1.5925012327655400e+01 
1696 1298 2 1.0296878055033385e+00 -4.0469779699204842e+03 1.0000000000000000e+00 1.8786431076313068e+01 6.0893375100650724e+00 1.5502656502203401e+01 
1013 615 2 1.0266201203827499e+00 7.7054416493587669e+03 1.0000000000000000e+00 1.8727858117353652e+01 6.2331658294373486e+00 1.5509423495408306e+01 
2079 1681 2 1.0254016831285870e+00 -1.9976327487986725e+03 1.0000000000000000e+00 1.8989622773056173e+01 6.6592242264951711e+00 1.5246405296706595e+01 
979 581 2 1.0312860695802104e+00 1.3334866973739779e+03 1.0000000000000000e+00 1.8534141741434816e+01 5.7023309240274829e+00 1.5997444808451364e+01 
953 555 2 1.0324354241244629e+00 5.3889282497336180e+03 1.0000000000000000e+00 1.8573175034955259e+01 5.2472788582026846e+00 1.5862973820970577e+01 
2073 1675 2 1.0353032843559189e+00 -9.8436233245785788e+03 1.0000000000000000e+00 1.9778943863276865e+01 7.3246720325499508e+00 1.5419041893852743e+01 
1219 821 2 1.0327113559327530e+00 -3.6586083056752605e+03 1.0000000000000000e+00 1.9252700490892614e+01 7.7723976722657575e+00 1.5259798821921789e+01 
1259 861 2 1.0242660285055942e+00 -6.8006791950746056e+03 1.0000000000000000e+00 1.8974153748947192e+01 2.4748573936035632e+00 1.4888199072852496e+01 
1721 1323 2 1.0315924476097205e+00 5.2959566470599084e+03 1.0000000000000000e+00 1.9470810613175658e+01 7.9182936488181248e+00 1.5235071592932618e+01 
1059 661 2 1.0308259407636682e+00 1.3068954602369660e+04 1.0000000000000000e+00 1.9572007167961342e+01 7.9152656744804180e+00 1.5245414601032897e+01 
1197 799 2 1.0330017803731428e+00 8.1915863016649937e+03 1.0000000000000000e+00 1.9641420710977499e+01 7.7704787389101346e+00 1.5320043548705344e+01 
803 405 2 1.0294168355447777e+00 1.2138259372182140e+03 1.0000000000000000e+00 1.9019521008385301e+01 8.2210541474348737e+00 1.5184071161443931e+01 
1335 937 2 1.0318132827325059e+00 -1.8832191128028001e+02 1.0000000000000000e+00 1.8836721837872179e+01 3.8310132206575958e+00 1.5224804224095505e+01 
499 101 2 1.0302298753405326e+00 -1.0422239676444939e+04 1.0000000000000000e+00 1.8886462706792269e+01 3.9575007216468383e+00 1.5151199230367832e+01 
1016 618 2 1.0250054037531215e+00 7.7028365455920612e+03 1.0000000000000000e+00 1.9323803464958416e+01 8.8240226642000135e+00 1.4983757841262820e+01 
594 196 2 1.0241139554124572e+00 3.2562381624710355e+02 1.0000000000000000e+00 1.9057335921889887e+01 8.7751176497226187e+00 1.4977735956737417e+01 
779 381 2 1.0243147114594440e+00 2.4401707452630467e+03 1.0000000000000000e+00 1.9282809243029757e+01 8.7094513561658164e+00 1.4986981405437527e+01 
475 77 2 1.0267678319163547e+00 -8.2897456766066455e+02 1.0000000000000000e+00 1.9238260742067112e+01 8.5602178305685666e+00 1.5049315321161629e+01 
992 594 2 1.0244280593138491e+00 6.1573415140499321e+02 1.0000000000000000e+00 1.9340220578919599e+01 8.7842228091836798e+00 1.4983368825186346e+01 
1894 1496 2 1.0244466697048114e+00 -5.0361357598638815e+03 1.0000000000000000e+00 1.9324681149587175e+01 8.8367528170423721e+00 1.4972901461453018e+01 
854 456 2 1.0231752637566052e+00 -3.4378174395821702e+03 1.0000000000000000e+00 1.9102008890066479e+01 9.1947919080753930e+00 1.4874608710316140e+01 
2005 1607 2 1.0237097328518094e+00 -8.0291408049452048e+03 1.0000000000000000e+00 1.9007575312334229e+01 9.1251981003388494e+00 1.4904106552427606e+01 
788 390 2 1.0189685088337370e+00 -5.2059022245896222e+02 1.0000000000000000e+00 1.9617026942920212e+01 2.4505086316070854e+00 1.4420019039375823e+01 
2046 1648 2 1.0234888638126087e+00 5.6098015488931387e+03 1.0000000000000000e+00 1.8913975990454965e+01 9.3825870442224648e+00 1.4855582172299645e+01 
1409 1011 2 1.0309834050440205e+00 -2.6740317827558970e+03 1.0000000000000000e+00 1.8139823280193301e+01 9.6359485696504077e+00 1.5365815516107590e+01 
998 600 2 1.0318877339419934e+00 -1.6239786009824695e+03 1.0000000000000000e+00 1.8198576682905852e+01 9.3834437699038951e+00 1.5451173851814424e+01 
1054 656 2 1.0256691006503491e+00 4.4820013248984078e+03 1.0000000000000000e+00 1.9001483904125045e+01 3.9763794350324515e+00 1.4966399552552774e+01 
1345 947 2 1.0241831189887081e+00 -7.5571187764532294e+02 1.0000000000000000e+00 1.9018920763536777e+01 3.7417887416273228e+00 1.4906610783165481e+01 
874 476 2 1.0294256311595389e+00 5.9728632014402192e+03 1.0000000000000000e+00 1.9254886979673721e+01 6.3604376593264558e+00 1.5172391423473588e+01 
1441 1043 2 1.0245254378025055e+00 4.6631272723983793e+03 1.0000000000000000e+00 1.9351689287570125e+01 9.4796500910837853e+00 1.4864283919601050e+01 
1911 1513 2 1.0295415161481016e+00 3.7032078482601009e+03 1.0000000000000000e+00 1.9344515795267817e+01 7.0131946435792143e+00 1.5199041963225261e+01 
637 239 2 1.0318993422870202e+00 -4.3517388952034744e+03 1.0000000000000000e+00 1.8376522961871800e+01 8.8772867546925269e+00 1.5489890286013768e+01 
716 318 2 1.0235866104312947e+00 1.3131121635522011e+03 1.0000000000000000e+00 1.9160705336806544e+01 9.5094275558714969e+00 1.4817065470130574e+01 
1855 1457 2 1.0251870869831246e+00 1.1243963088398164e+03 1.0000000000000000e+00 1.9425594813730893e+01 9.6081023229770643e+00 1.4870126960647907e+01 
1922 1524 2 1.0235150408147893e+00 -1.0992110937139516e+04 1.0000000000000000e+00 1.8983199781342343e+01 9.6108502074848623e+00 1.4795186570634606e+01 
1581 1183 2 1.0227509867730724e+00 4.4705687368375347e+03 1.0000000000000000e+00 1.8786649444985855e+01 9.5828981555255073e+00 1.4822531686686881e+01 
1691 1293 2 1.0142891782045749e+00 -1.1186937691509856e+03 1.0000000000000000e+00 1.7924894380785599e+01 9.0786947020814814e+00 1.5672674810532238e+01 
1988 1590 2 1.0240222100421272e+00 -4.2381449863848275e+03 1.0000000000000000e+00 1.9400294207190534e+01 9.7265218141195966e+00 1.4824071014741007e+01 
1686 1288 2 1.0235573354210046e+00 1.2629218039202364e+04 1.0000000000000000e+00 1.9167076084197703e+01 9.7067077255259910e+00 1.4776997038090176e+01 
1033 635 2 1.0249079774611971e+00 1.1929263028452169e+04 1.0000000000000000e+00 1.9104283399807787e+01 9.5274954557380802e+00 1.4829345542924663e+01 
1507 1109 2 1.0233977729862167e+00 6.9846725695564078e+02 1.0000000000000000e+00 1.8723671331568770e+01 9.5876185282288748e+00 1.4847765519329192e+01 
1985 1587 2 1.0285555815105063e+00 -4.2447681103750419e+03 1.0000000000000000e+00 1.9270866784088572e+01 9.4982869511391517e+00 1.4903108534768130e+01 
1918 1520 2 1.0313457322623034e+00 -4.2211194240288269e+03 1.0000000000000000e+00 1.8635675546839373e+01 9.3582519953143386e+00 1.5072421163156678e+01 
1137 739 2 1.0241648554805314e+00 3.5532994742658611e+03 1.0000000000000000e+00 1.9101045574860780e+01 9.6784747544067748e+00 1.4786969667494173e+01 
1931 1533 2 1.0229897874680476e+00 -1.6377013590956572e+04 1.0000000000000000e+00 1.9335293402928848e+01 9.7320026758859157e+00 1.4791724475469437e+01 
1196 798 2 1.0337626634276937e+00 4.6652183172177774e+03 1.0000000000000000e+00 1.9078008722581018e+01 4.7328359658745596e+00 1.5130527997652635e+01 
524 126 2 1.0350649670785685e+00 -3.2904503592865026e+03 1.0000000000000000e+00 1.8741351526314240e+01 2.5918924624040107e+00 1.5361008525243356e+01 
1563 1165 2 1.0385265763293077e+00 1.3083912909072325e+04 1.0000000000000000e+00 1.9883050884669434e+01 8.8772473993279135e+00 1.5565721526618232e+01 
461 63 2 1.0344088156988911e+00 -7.5340839601545513e+03 1.0000000000000000e+00 1.9546556440394728e+01 6.8491478466512747e+00 1.5276619736742228e+01 
1792 1394 2 1.0416191692799803e+00 -1.4220685443891502e+03 1.0000000000000000e+00 1.9621943996195025e+01 8.5631500318735583e+00 1.5451810349184891e+01 
1162 764 2 1.0188648801526137e+00 1.8402358189138661e+03 1.0000000000000000e+00 1.8521609140751838e+01 9.9200743229796000e+00 1.4768362686097158e+01 
1323 925 2 1.0283280744867769e+00 4.2430645603560415e+03 1.0000000000000000e+00 1.9963330051329461e+01 7.2120065003774787e+00 1.5362837695348482e+01 
1768 1370 2 1.0207888767851661e+00 3.7793746096250845e+02 1.0000000000000000e+00 1.9040982969704967e+01 9.9776857013175313e+00 1.4679363526560465e+01 
991 593 2 1.0199044381142455e+00 9.2941206182260328e+02 1.0000000000000000e+00 1.8751457348356041e+01 1.9911460206304220e+01 1.5789224140904619e+01 
1859 1461 2 1.0094937100526802e+00 3.9228950689508815e+03 1.0000000000000000e+00 1.9834949912292782e+01 1.3178895946660866e+01 1.4596189207965239e+01 