LAMMPS data file via write_data, version 30 Jul 2016, timestep = 50000000

3234 atoms
8 atom types

0.0000000000000000e+00 1.0000000000000000e+02 xlo xhi
0.0000000000000000e+00 4.0000000000000000e+01 ylo yhi
0.0000000000000000e+00 4.0000000000000000e+01 zlo zhi

Masses

1 3.896
2 5.36
3 20.064
4 8.378
5 8.378
6 8.378
7 8.378
8 8.378

Atoms # meso-molecular

266 267 2 1.0280000000000002e+00 2.5912881773276181e+03 1.0000000000000000e+00 2.3515775250965114e+00 1.0000000000000000e+01 1.3797386194591630e+00 
308 309 2 1.0279999999999954e+00 3.1097137723758766e+02 1.0000000000000000e+00 3.6762829689094874e+00 1.0000000000000000e+01 1.3906520577478247e+00 
350 351 2 1.0280000000000045e+00 3.1090266909245406e+03 1.0000000000000000e+00 5.2997559340892080e+00 1.0000000000000000e+01 1.5456844122579843e+00 
440 441 2 1.0279999999999976e+00 -1.9934408659179161e+02 1.0000000000000000e+00 5.9313445515966619e+00 1.0000000000000000e+01 5.5084227597980873e-01 
436 437 2 1.0280000000000009e+00 -8.1470626524134263e+02 1.0000000000000000e+00 6.5381440640370512e+00 1.0000000000000000e+01 1.5351371599281538e+00 
729 730 2 1.0280000000302321e+00 1.6371481773759197e+03 1.0000000000000000e+00 2.2918821122079045e+00 1.3000000000000000e+01 1.4686255973405526e+00 
489 490 2 1.0279999999882543e+00 -9.8851716913804137e+02 1.0000000000000000e+00 5.4506050326611568e+00 1.3000000000000000e+01 1.0630536338476548e+00 
534 535 2 1.0280000000090344e+00 -5.2222565006375444e+03 1.0000000000000000e+00 7.2343173958073974e+00 1.3000000000000000e+01 1.1732672053998405e+00 
529 530 2 1.0279999999986453e+00 -3.2734344622300623e+03 1.0000000000000000e+00 8.1705797909735676e+00 1.3000000000000000e+01 4.4836502408646373e-01 
490 491 2 1.0280000000013010e+00 1.1017571194629700e+03 1.0000000000000000e+00 1.1104385695934148e+01 1.3000000000000000e+01 1.2756700261737293e+00 
827 828 2 1.0279999999938820e+00 3.3491852718488672e+03 1.0000000000000000e+00 1.0362104670933453e+01 1.3000000000000000e+01 3.8735754059404093e-01 
908 909 2 1.0279999999999707e+00 -6.9912792291853966e+03 1.0000000000000000e+00 1.2368613464820827e+01 1.3000000000000000e+01 1.0019541284356290e+00 
969 970 2 1.0279999999741418e+00 -1.2518336892042710e+02 1.0000000000000000e+00 1.5117842476324808e+00 1.6000000000000000e+01 3.4868226028072952e-01 
930 931 2 1.0280000000278828e+00 -5.1552359192978729e+03 1.0000000000000000e+00 1.7309090004995749e+00 1.6000000000000000e+01 1.3565522122541520e+00 
1230 1231 2 1.0279999999903093e+00 -2.4968797899725241e+03 1.0000000000000000e+00 4.7817858127611146e+00 1.6000000000000000e+01 8.5267943584283634e-01 
1228 1229 2 1.0280000000425271e+00 -8.2797627201360160e+02 1.0000000000000000e+00 5.1362998974584926e+00 1.6000000000000000e+01 1.2421793073770628e+00 
1368 1369 2 1.0279999999806824e+00 1.3152313809319039e+03 1.0000000000000000e+00 7.5392503897711105e+00 1.6000000000000000e+01 1.4433386115925555e+00 
1237 1238 2 1.0279999999976863e+00 -3.3402267723475688e+03 1.0000000000000000e+00 7.8654344921564867e+00 1.6000000000000000e+01 4.5181048929479717e-02 
1369 1370 2 1.0280000000009095e+00 3.0988885423927541e+03 1.0000000000000000e+00 8.7383452291561525e+00 1.6000000000000000e+01 4.5600882796546977e-02 
1323 1324 2 1.0280000000195066e+00 -3.2981683388552419e+03 1.0000000000000000e+00 8.9708053590681995e+00 1.6000000000000000e+01 1.4042057654202218e+00 
1332 1333 2 1.0279999999797220e+00 -5.0706735177149330e+03 1.0000000000000000e+00 1.7137292564923467e+01 1.6000000000000000e+01 1.6517016128565545e+00 
1283 1284 2 1.0279999999977960e+00 -6.4604523055318123e+02 1.0000000000000000e+00 1.7675547523903710e+01 1.6000000000000000e+01 8.5018126557369755e-01 
1285 1286 2 1.0280000000186535e+00 9.0551036756327093e+01 1.0000000000000000e+00 1.9295754712208726e+01 1.6000000000000000e+01 2.1432748650591638e-01 
1038 1039 2 1.0279999999982881e+00 7.5897989263912496e+02 1.0000000000000000e+00 2.1264134259173851e+01 1.6000000000000000e+01 1.1408735473431917e+00 
1284 1285 2 1.0280000000097342e+00 2.8180442863064818e+03 1.0000000000000000e+00 1.9775212481085315e+01 1.6000000000000000e+01 1.8776809210579006e+00 
1242 1243 2 1.0279999999967322e+00 -3.2413587622113828e+03 1.0000000000000000e+00 2.2651900463581207e+01 1.6000000000000000e+01 4.0784966660672534e-01 
1243 1244 2 1.0280000000061413e+00 -3.8316337722671833e+03 1.0000000000000000e+00 2.5386901196396138e+01 1.6000000000000000e+01 1.0023344671848176e+00 
1202 1203 2 1.0279999999943630e+00 1.9029862131840491e+03 1.0000000000000000e+00 2.6721255171750258e+01 1.6000000000000000e+01 2.9928422712388142e-01 
1294 1295 2 1.0280000000023948e+00 -5.4183089340436472e+03 1.0000000000000000e+00 2.5774648679197885e+01 1.6000000000000000e+01 1.9004227432322163e+00 
1248 1249 2 1.0280000000077070e+00 -1.4110014060638973e+03 1.0000000000000000e+00 2.7907355843707158e+01 1.6000000000000000e+01 8.9273167365030059e-01 
50 51 2 1.0280000000000036e+00 1.4629817664086249e+03 1.0000000000000000e+00 1.4340555546649603e+00 1.0000000000000000e+01 3.5691133417108722e+00 
8 9 2 1.0280000000000002e+00 3.6704342750241667e+03 1.0000000000000000e+00 2.9134881660938534e+00 1.0000000000000000e+01 2.4011515599536866e+00 
346 347 2 1.0280000000000034e+00 -3.5192730750014316e+03 1.0000000000000000e+00 4.5189714570722712e+00 1.0000000000000000e+01 3.9609090588607625e+00 
259 260 2 1.0279999999999951e+00 7.6049947513207726e+03 1.0000000000000000e+00 4.7515584671182216e+00 1.0000000000000000e+01 3.9807090400430361e+00 
176 177 2 1.0279999999999974e+00 3.9747839290655675e+03 1.0000000000000000e+00 7.0570865291809763e+00 1.0000000000000000e+01 3.2433087767276967e+00 
48 49 2 1.0280000000000031e+00 -1.7820034015018052e+02 1.0000000000000000e+00 6.9625205963740413e+00 1.0000000000000000e+01 3.4926297258625900e+00 
799 800 2 1.0280000000074634e+00 1.2486509363150608e+03 1.0000000000000000e+00 1.0120509168236111e-02 1.3000000000000000e+01 2.0777523977046668e+00 
532 533 2 1.0279999999991982e+00 8.9011061084624471e+03 1.0000000000000000e+00 3.7805897279086995e+00 1.3000000000000000e+01 2.0282833673802063e+00 
903 904 2 1.0279999999841671e+00 1.9726434753077965e+03 1.0000000000000000e+00 2.3637038261935230e+00 1.3000000000000000e+01 2.1019200615738929e+00 
904 905 2 1.0280000000085494e+00 2.2894265699279649e+03 1.0000000000000000e+00 4.9022703574051825e+00 1.3000000000000000e+01 2.5497670299323532e+00 
572 573 2 1.0280000000014902e+00 -1.1312515854578101e+03 1.0000000000000000e+00 6.0690130591225708e+00 1.3000000000000000e+01 2.3086521039534253e+00 
877 878 2 1.0279999999995795e+00 -3.5541781926281567e+02 1.0000000000000000e+00 8.3961477878855622e+00 1.3000000000000000e+01 2.4234104312089824e+00 
749 750 2 1.0279999999852776e+00 4.0935492767455180e+03 1.0000000000000000e+00 7.9264805510781260e+00 1.3000000000000000e+01 2.9283735696017597e+00 
825 826 2 1.0279999999967044e+00 2.4474383890501017e+03 1.0000000000000000e+00 1.2395918237227351e+01 1.3000000000000000e+01 2.8570439266560457e+00 
869 870 2 1.0279999999995744e+00 -1.6356424586484281e+03 1.0000000000000000e+00 1.2604952100641757e+01 1.3000000000000000e+01 2.7773014944521863e+00 
1183 1184 2 1.0280000000208622e+00 7.6047205644847436e+03 1.0000000000000000e+00 1.4673144647885379e+00 1.6000000000000000e+01 3.6779220024963863e+00 
1270 1271 2 1.0279999999624405e+00 -3.5188262534159699e+03 1.0000000000000000e+00 2.0742903939955064e+00 1.6000000000000000e+01 2.3646170566181670e+00 
1188 1189 2 1.0280000000048100e+00 1.8771411955461776e+03 1.0000000000000000e+00 3.8070803190105944e+00 1.6000000000000000e+01 2.8127035563921567e+00 
1102 1103 2 1.0279999999740501e+00 3.0006881639439557e+03 1.0000000000000000e+00 4.4840720810958627e+00 1.6000000000000000e+01 3.1398986985705686e+00 
1240 1241 2 1.0279999999916953e+00 -2.7380554093978708e+03 1.0000000000000000e+00 6.7835064614871623e+00 1.6000000000000000e+01 2.6878483144641550e+00 
1236 1237 2 1.0280000000031018e+00 -3.8063461377176891e+03 1.0000000000000000e+00 6.1616037304328772e+00 1.6000000000000000e+01 2.9170947609919828e+00 
1204 1205 2 1.0280000000130955e+00 1.5267033900894512e+03 1.0000000000000000e+00 1.0263989905713512e+01 1.6000000000000000e+01 2.1437788024221089e+00 
1244 1245 2 1.0279999999943288e+00 -4.5486168894413713e+03 1.0000000000000000e+00 1.1255259373494155e+01 1.6000000000000000e+01 2.8896698189826355e+00 
989 990 2 1.0279999999943163e+00 -2.5644618254864690e+03 1.0000000000000000e+00 9.9480878193184417e+00 1.6000000000000000e+01 3.4245789517387251e+00 
1372 1373 2 1.0279999999905143e+00 1.1451162363097324e+03 1.0000000000000000e+00 1.5586844961558571e+01 1.6000000000000000e+01 3.3282599314321617e+00 
1371 1372 2 1.0279999999936764e+00 -9.3634240222731296e+02 1.0000000000000000e+00 1.6076025313524571e+01 1.6000000000000000e+01 2.5318704799784300e+00 
1203 1204 2 1.0279999999839806e+00 2.7352950427907008e+03 1.0000000000000000e+00 1.9056292838633365e+01 1.6000000000000000e+01 3.0290425960927529e+00 
1289 1290 2 1.0280000000248710e+00 3.3497584893229005e+03 1.0000000000000000e+00 1.7764289293231123e+01 1.6000000000000000e+01 3.3506880491645270e+00 
1206 1207 2 1.0280000000079761e+00 3.0124019941042834e+03 1.0000000000000000e+00 2.0876062004901843e+01 1.6000000000000000e+01 2.8455198520425906e+00 
1282 1283 2 1.0279999999833176e+00 1.3797873414833166e+03 1.0000000000000000e+00 2.1747575945660600e+01 1.6000000000000000e+01 2.2434235666714120e+00 
1336 1337 2 1.0280000000013794e+00 2.8936604568181137e+03 1.0000000000000000e+00 2.4833215931491399e+01 1.6000000000000000e+01 3.0386283404908037e+00 
1291 1292 2 1.0279999999989120e+00 1.5782387584709652e+03 1.0000000000000000e+00 2.4863625025681941e+01 1.6000000000000000e+01 3.9937865467424061e+00 
1293 1294 2 1.0280000000005207e+00 -3.5206820264653734e+03 1.0000000000000000e+00 2.6799343276113337e+01 1.6000000000000000e+01 3.5383107608045559e+00 
1001 1002 2 1.0280000000083160e+00 1.3592425752108666e+03 1.0000000000000000e+00 2.8360125103926805e+01 1.6000000000000000e+01 2.5526899515734343e+00 
1328 1329 2 1.0279999999937515e+00 5.7592425572039356e+03 1.0000000000000000e+00 2.8197383012731194e+01 1.6000000000000000e+01 3.2854859667804939e+00 
1373 1374 2 1.0280000000013936e+00 5.7509339106551533e+02 1.0000000000000000e+00 3.0210650568805214e+01 1.6000000000000000e+01 2.9168480799309688e+00 
1251 1252 2 1.0279999999987954e+00 -9.0588905740220184e+02 1.0000000000000000e+00 3.1482225710406109e+01 1.6000000000000000e+01 2.7102742098510180e+00 
1205 1206 2 1.0280000000002356e+00 2.6050096268522793e+03 1.0000000000000000e+00 3.1776319204213102e+01 1.6000000000000000e+01 3.7905235889130426e+00 
356 357 2 1.0279999999999991e+00 -5.3698368046426572e+02 1.0000000000000000e+00 3.0018613234405778e-01 1.0000000000000000e+01 5.5273544722799688e+00 
354 355 2 1.0280000000000025e+00 2.9296715098604659e+02 1.0000000000000000e+00 1.5648418110304649e+00 1.0000000000000000e+01 5.6467801638068593e+00 
434 435 2 1.0279999999999963e+00 3.1078964467817008e+02 1.0000000000000000e+00 1.9121229709090086e+00 1.0000000000000000e+01 4.0520737509452305e+00 
395 396 2 1.0280000000000002e+00 5.9061567230288292e+03 1.0000000000000000e+00 3.6211759858433741e+00 1.0000000000000000e+01 5.5646548153905755e+00 
306 307 2 1.0279999999999985e+00 -2.4998755324403401e+03 1.0000000000000000e+00 5.9863873104535790e+00 1.0000000000000000e+01 5.6359464960243093e+00 
260 261 2 1.0279999999999998e+00 4.0417703728662245e+03 1.0000000000000000e+00 8.2165315812695265e+00 1.0000000000000000e+01 5.2266016229772267e+00 
384 385 2 1.0279999999999980e+00 -2.3001529015389346e+02 1.0000000000000000e+00 8.2165315824401741e+00 1.0000000000000000e+01 5.2266016062795568e+00 
845 846 2 1.0280000000222254e+00 -3.4000695934813511e+03 1.0000000000000000e+00 1.7581748014947858e+00 1.3000000000000000e+01 5.4259812610432308e+00 
842 843 2 1.0280000000218421e+00 -8.7253588953783719e+02 1.0000000000000000e+00 1.7611693562533386e+00 1.3000000000000000e+01 5.4288336862299751e+00 
776 777 2 1.0280000000007028e+00 -1.0024277059050722e+03 1.0000000000000000e+00 5.7809642886731361e+00 1.3000000000000000e+01 5.5664776779904592e+00 
559 560 2 1.0279999999999316e+00 6.0563757406781019e+02 1.0000000000000000e+00 5.8171030376214343e+00 1.3000000000000000e+01 5.0427488074381506e+00 
817 818 2 1.0279999999991181e+00 2.5406264881627958e+03 1.0000000000000000e+00 7.2626618959999982e+00 1.3000000000000000e+01 5.4149449730994279e+00 
868 869 2 1.0279999999962370e+00 8.9771034279174019e+03 1.0000000000000000e+00 9.1356866173627242e+00 1.3000000000000000e+01 4.1877507024257143e+00 
819 820 2 1.0280000000027123e+00 8.9393875376364861e+02 1.0000000000000000e+00 8.3274628092915517e+00 1.3000000000000000e+01 5.3088115193281693e+00 
815 816 2 1.0279999999988909e+00 -1.0108553128799024e+03 1.0000000000000000e+00 9.9473212231064281e+00 1.3000000000000000e+01 4.9704650644630037e+00 
575 576 2 1.0280000000005045e+00 3.5024169907109062e+03 1.0000000000000000e+00 1.1611157368093048e+01 1.3000000000000000e+01 5.1454597372615449e+00 
519 520 2 1.0279999999998275e+00 8.8416870665201586e+03 1.0000000000000000e+00 1.1996214217078832e+01 1.3000000000000000e+01 5.6913798037228549e+00 
1350 1351 2 1.0279999999750433e+00 -5.5514992590795791e+03 1.0000000000000000e+00 1.1414165647637700e-01 1.6000000000000000e+01 4.1318447331406709e+00 
1319 1320 2 1.0280000000261236e+00 5.9057303202600215e+03 1.0000000000000000e+00 2.6202326429778955e+00 1.6000000000000000e+01 4.2601506887339351e+00 
1231 1232 2 1.0280000000005900e+00 -1.4144538025222571e+03 1.0000000000000000e+00 3.5484405853966838e+00 1.6000000000000000e+01 4.9783582146394734e+00 
1362 1363 2 1.0280000000269360e+00 3.1170574299800519e+03 1.0000000000000000e+00 4.8708357905234489e+00 1.6000000000000000e+01 5.4044938457234606e+00 
1200 1201 2 1.0279999999963172e+00 2.0144576839954011e+03 1.0000000000000000e+00 6.0083213175496004e+00 1.6000000000000000e+01 5.6501019060631448e+00 
1321 1322 2 1.0280000000144656e+00 -1.4698185116422760e+03 1.0000000000000000e+00 9.0907882456381426e+00 1.6000000000000000e+01 5.6768675667841055e+00 
1314 1315 2 1.0280000000240046e+00 6.2588451567389961e+02 1.0000000000000000e+00 1.1003728588284650e+01 1.6000000000000000e+01 4.1991846819177541e+00 
994 995 2 1.0280000000011098e+00 8.9040586587677426e+03 1.0000000000000000e+00 1.1706841804158387e+01 1.6000000000000000e+01 5.5409043096739454e+00 
951 952 2 1.0279999999691651e+00 -9.9265722399887784e+02 1.0000000000000000e+00 1.5111111846368283e+01 1.6000000000000000e+01 4.4837978252508135e+00 
996 997 2 1.0279999999962393e+00 -5.2223336709581417e+03 1.0000000000000000e+00 1.5054746017005169e+01 1.6000000000000000e+01 5.5446644283250439e+00 
991 992 2 1.0280000000332916e+00 -3.2679922604577205e+03 1.0000000000000000e+00 1.6569924016142771e+01 1.6000000000000000e+01 5.6928686181385277e+00 
952 953 2 1.0279999999809359e+00 1.1022099149473374e+03 1.0000000000000000e+00 1.7626404987176805e+01 1.6000000000000000e+01 4.7080804967319141e+00 
1246 1247 2 1.0279999999956329e+00 -3.8647910076507660e+03 1.0000000000000000e+00 1.9127261127306358e+01 1.6000000000000000e+01 4.6288224186307314e+00 
1370 1371 2 1.0280000000017393e+00 -7.0065417195820628e+03 1.0000000000000000e+00 1.9637931035756484e+01 1.6000000000000000e+01 5.6849939325588865e+00 
1212 1213 2 1.0280000000028833e+00 7.6668211493681956e+03 1.0000000000000000e+00 2.6025353904871622e+01 1.6000000000000000e+01 4.4586745248373587e+00 
1247 1248 2 1.0280000000001168e+00 3.2045911219412397e+02 1.0000000000000000e+00 3.0660739788755418e+01 1.6000000000000000e+01 4.0882549168311639e+00 
400 401 2 1.0280000000000016e+00 -3.3342267515672193e+03 1.0000000000000000e+00 2.3750206169061840e+00 1.0000000000000000e+01 6.7404949185836216e+00 
307 308 2 1.0279999999999934e+00 -1.4149985245831449e+03 1.0000000000000000e+00 3.9413569391963175e+00 1.0000000000000000e+01 6.4169062115030959e+00 
264 265 2 1.0280000000000029e+00 1.8726449769480296e+03 1.0000000000000000e+00 5.5910399882217980e+00 1.0000000000000000e+01 6.7715300364238313e+00 
304 305 2 1.0279999999999938e+00 -8.2578299962638630e+02 1.0000000000000000e+00 6.7300762410745749e+00 1.0000000000000000e+01 6.5081928677573453e+00 
633 634 2 1.0279999999828913e+00 -1.5614693750265888e+03 1.0000000000000000e+00 1.1418440484470036e+00 1.3000000000000000e+01 7.2212594352351225e+00 
720 721 2 1.0279999999972489e+00 9.8744567955340608e+02 1.0000000000000000e+00 7.7085068075698226e-01 1.3000000000000000e+01 7.4777086100697376e+00 
719 720 2 1.0279999999923237e+00 -7.1870343575455590e+03 1.0000000000000000e+00 1.0050193305507088e+01 1.3000000000000000e+01 6.6412461089656993e+00 
763 764 2 1.0280000000041094e+00 2.7883059104752856e+03 1.0000000000000000e+00 1.1221979420965823e+01 1.3000000000000000e+01 6.9676864927551998e+00 
1358 1359 2 1.0280000000061442e+00 3.1151357053332777e+02 1.0000000000000000e+00 2.2713566720484861e+00 1.6000000000000000e+01 6.6110169644617587e+00 
1195 1196 2 1.0279999999781972e+00 2.0388990065036087e+03 1.0000000000000000e+00 2.8781070871961383e+00 1.6000000000000000e+01 6.5891590064063879e+00 
1199 1200 2 1.0279999999856475e+00 2.5400316392037003e+03 1.0000000000000000e+00 5.2121404298619041e+00 1.6000000000000000e+01 6.9057543306237434e+00 
1326 1327 2 1.0280000000226557e+00 -1.5856411183887453e+03 1.0000000000000000e+00 6.6913370824504419e+00 1.6000000000000000e+01 6.8261453783805583e+00 
1333 1334 2 1.0279999999893794e+00 5.0663549746539945e+02 1.0000000000000000e+00 8.3560983329713672e+00 1.6000000000000000e+01 6.2981986423933431e+00 
1366 1367 2 1.0279999999953029e+00 2.2867296562004981e+03 1.0000000000000000e+00 1.0133879898977098e+01 1.6000000000000000e+01 6.1180666727358579e+00 
981 982 2 1.0280000000196885e+00 8.8593577915633323e+03 1.0000000000000000e+00 1.0368788228787658e+01 1.6000000000000000e+01 7.7495501720545921e+00 
1330 1331 2 1.0280000000379592e+00 8.9723504038618485e+03 1.0000000000000000e+00 1.2369048843306691e+01 1.6000000000000000e+01 6.1719218902269928e+00 
1339 1340 2 1.0279999999976015e+00 -3.5664878339163488e+02 1.0000000000000000e+00 1.3589615922614739e+01 1.6000000000000000e+01 7.5602963083181383e+00 
1211 1212 2 1.0279999999876226e+00 4.0884265890305778e+03 1.0000000000000000e+00 1.3759779232720790e+01 1.6000000000000000e+01 6.3104549327576773e+00 
1254 1255 2 1.0279999999768534e+00 2.7153122010113134e+03 1.0000000000000000e+00 1.5291642031099290e+01 1.6000000000000000e+01 7.8064682593093000e+00 
1287 1288 2 1.0279999999813885e+00 2.4448327418662980e+03 1.0000000000000000e+00 1.7453587476536825e+01 1.6000000000000000e+01 6.8006267470314663e+00 
1331 1332 2 1.0280000000081113e+00 -1.6406412551999947e+03 1.0000000000000000e+00 1.8168426059277092e+01 1.6000000000000000e+01 6.6252974779899825e+00 
1249 1250 2 1.0279999999997200e+00 -2.3147849440518003e+03 1.0000000000000000e+00 2.0592781672603309e+01 1.6000000000000000e+01 6.5148556012166514e+00 
955 956 2 1.0280000000014495e+00 1.8675875719399064e+03 1.0000000000000000e+00 2.1251008829169500e+01 1.6000000000000000e+01 7.0185344277185395e+00 
1250 1251 2 1.0279999999988578e+00 -4.4963550321199018e+03 1.0000000000000000e+00 2.2841117798757438e+01 1.6000000000000000e+01 7.5034858166972835e+00 
1208 1209 2 1.0280000000004119e+00 7.8450954280051633e+02 1.0000000000000000e+00 2.2732514040339829e+01 1.6000000000000000e+01 7.7674036920508733e+00 
1140 1141 2 1.0280000000047453e+00 4.1227716546452721e+03 1.0000000000000000e+00 2.5943747394271252e+01 1.6000000000000000e+01 6.3492611977635409e+00 
1347 1348 2 1.0280000000003804e+00 5.7332536191913960e+02 1.0000000000000000e+00 2.6037415125350453e+01 1.6000000000000000e+01 6.7180552345167790e+00 
1302 1303 2 1.0279999999985359e+00 1.3581821332914906e+03 1.0000000000000000e+00 2.7930493113178933e+01 1.6000000000000000e+01 6.8305613989691318e+00 
1259 1260 2 1.0279999999985365e+00 2.0302042882222913e+03 1.0000000000000000e+00 2.7930492566350146e+01 1.6000000000000000e+01 6.8305654341762274e+00 
1510 1511 2 1.0280000000220229e+00 5.6459006240763520e+03 1.0000000000000000e+00 9.7341270563810545e-01 1.9000000000000000e+01 7.8988802955640436e+00 
1549 1550 2 1.0279999999335832e+00 -2.3770497560985933e+02 1.0000000000000000e+00 1.6523030689195666e+00 1.9000000000000000e+01 7.9221430219451765e+00 
87 88 2 1.0279999999999963e+00 5.6520805280864824e+03 1.0000000000000000e+00 1.5737075707615307e+00 1.0000000000000000e+01 8.0282411280051722e+00 
132 133 2 1.0280000000000065e+00 -2.1400583603905193e+02 1.0000000000000000e+00 7.0981123024958959e-01 1.0000000000000000e+01 8.6158547776503198e+00 
271 272 2 1.0280000000000007e+00 2.0337714562131939e+03 1.0000000000000000e+00 3.3933242275743671e+00 1.0000000000000000e+01 8.5545575542288113e+00 
272 273 2 1.0280000000000067e+00 2.3927023180739911e+03 1.0000000000000000e+00 3.2368442407095568e+00 1.0000000000000000e+01 8.7172507552919019e+00 
728 729 2 1.0279999999996905e+00 2.5912158814456025e+03 1.0000000000000000e+00 8.6122615834772542e+00 1.3000000000000000e+01 8.2474644809066611e+00 
470 471 2 1.0279999999990359e+00 3.6702670424666485e+03 1.0000000000000000e+00 8.8205475069544708e+00 1.3000000000000000e+01 8.7191663364548226e+00 
770 771 2 1.0280000000023508e+00 3.1092455446006716e+02 1.0000000000000000e+00 1.0163125631223499e+01 1.3000000000000000e+01 8.0315452838629504e+00 
1324 1325 2 1.0279999999985998e+00 -3.3292421563204498e+03 1.0000000000000000e+00 4.8788987088969793e-01 1.6000000000000000e+01 8.4699425470277667e+00 
1196 1197 2 1.0279999999938396e+00 2.3980300614437465e+03 1.0000000000000000e+00 1.6753728896558131e+00 1.6000000000000000e+01 8.0433610098884465e+00 
1235 1236 2 1.0280000000298426e+00 -4.5862309945408915e+03 1.0000000000000000e+00 3.2100643736965382e+00 1.6000000000000000e+01 8.9100573627634478e+00 
986 987 2 1.0279999999864060e+00 -2.7376156899531502e+03 1.0000000000000000e+00 2.6378626576885855e+00 1.6000000000000000e+01 9.6105131132840036e+00 
1189 1190 2 1.0280000000087708e+00 3.0257351124812758e+03 1.0000000000000000e+00 5.5076014060976837e+00 1.6000000000000000e+01 8.3763955000258683e+00 
1233 1234 2 1.0279999999843452e+00 -3.8498490592991707e+03 1.0000000000000000e+00 4.6184725874844643e+00 1.6000000000000000e+01 9.2642146396727227e+00 
1365 1366 2 1.0280000000016727e+00 1.9774884151174992e+03 1.0000000000000000e+00 7.8117840887139165e+00 1.6000000000000000e+01 8.0158919368438522e+00 
1238 1239 2 1.0280000000098526e+00 -9.9715397733425948e+02 1.0000000000000000e+00 5.9808909805781019e+00 1.6000000000000000e+01 9.7233888820983463e+00 
1191 1192 2 1.0280000000037450e+00 1.6436868677324446e+03 1.0000000000000000e+00 8.5542287146433935e+00 1.6000000000000000e+01 8.2854866202282249e+00 
1281 1282 2 1.0280000000024903e+00 8.8577564776528470e+02 1.0000000000000000e+00 8.6838678542952756e+00 1.6000000000000000e+01 9.9055656485908656e+00 
1034 1035 2 1.0279999999791170e+00 -1.1243734242946653e+03 1.0000000000000000e+00 1.0884441230080530e+01 1.6000000000000000e+01 8.2564557741831788e+00 
1037 1038 2 1.0280000000303839e+00 3.5014580291713410e+03 1.0000000000000000e+00 1.1327821744157953e+01 1.6000000000000000e+01 9.5761471108272982e+00 
1296 1297 2 1.0279999999630778e+00 -1.0841002902390846e+03 1.0000000000000000e+00 1.3465833642020979e+01 1.6000000000000000e+01 9.1079323031997106e+00 
1214 1215 2 1.0280000000168106e+00 -6.8982820897260099e+03 1.0000000000000000e+00 1.3197087735503057e+01 1.6000000000000000e+01 9.9480885060366049e+00 
1086 1087 2 1.0280000000337084e+00 2.7584994297046346e+03 1.0000000000000000e+00 1.5173463139213069e+01 1.6000000000000000e+01 8.2904655235583551e+00 
1558 1559 2 1.0280000000207801e+00 9.6592579168855900e+02 1.0000000000000000e+00 1.9495574777881375e+00 1.9000000000000000e+01 9.9973273579195538e+00 
1516 1517 2 1.0280000000207945e+00 5.0524679181934061e+02 1.0000000000000000e+00 1.9494769192822123e+00 1.9000000000000000e+01 9.9973476961430894e+00 
1766 1767 2 1.0280000000149159e+00 -8.7552573954168156e+02 1.0000000000000000e+00 3.4549301317424477e+00 1.9000000000000000e+01 8.3048903719503890e+00 
1769 1770 2 1.0280000000232028e+00 -3.3972268706143263e+03 1.0000000000000000e+00 3.4759773145613213e+00 1.9000000000000000e+01 8.4051707200537678e+00 
1267 1268 2 1.0280000000146949e+00 -1.0079353627648279e+03 1.0000000000000000e+00 2.0205759701577244e+00 1.6000000000000000e+01 1.1283401127365552e+01 
935 936 2 1.0280000000147123e+00 6.2193392531769259e+03 1.0000000000000000e+00 2.0206689651685079e+00 1.6000000000000000e+01 1.1283443627071573e+01 
1021 1022 2 1.0280000000162670e+00 5.9469249267428700e+02 1.0000000000000000e+00 6.0789050040571437e+00 1.6000000000000000e+01 1.1065273199498373e+01 
1315 1316 2 1.0279999999829761e+00 -5.1371240007947963e+03 1.0000000000000000e+00 7.2199937463800357e+00 1.6000000000000000e+01 1.1057715967522524e+01 
1277 1278 2 1.0279999999844980e+00 -1.0025478470689173e+03 1.0000000000000000e+00 9.6970511015260819e+00 1.6000000000000000e+01 1.0660452645880715e+01 
1279 1280 2 1.0280000000140621e+00 2.5371461887091809e+03 1.0000000000000000e+00 8.7043995592523125e+00 1.6000000000000000e+01 1.1309110286389977e+01 
1073 1074 2 1.0279999999683311e+00 -9.1520949329161454e+02 1.0000000000000000e+00 1.1963947565323442e+01 1.6000000000000000e+01 1.0488650362027675e+01 
207 208 2 1.0279999999999956e+00 1.2408728332235983e+03 1.0000000000000000e+00 1.5231717056845193e+00 1.0000000000000000e+01 1.2531066511312803e+01 
165 166 2 1.0279999999999947e+00 7.7523013192079543e+02 1.0000000000000000e+00 1.5234377295574779e+00 1.0000000000000000e+01 1.2531678000980236e+01 
1190 1191 2 1.0280000000115208e+00 2.5915880538870460e+03 1.0000000000000000e+00 3.4617692184406472e+00 1.6000000000000000e+01 1.3121766842241019e+01 
932 933 2 1.0279999999958684e+00 3.6698913035849391e+03 1.0000000000000000e+00 3.1057933331906549e+00 1.6000000000000000e+01 1.3812566831473267e+01 
1181 1182 2 1.0279999999941889e+00 -7.1890609987038133e+03 1.0000000000000000e+00 5.2508324891331926e+00 1.6000000000000000e+01 1.3674287521265319e+01 
1225 1226 2 1.0280000000032052e+00 2.7850252936629404e+03 1.0000000000000000e+00 6.1718411348483997e+00 1.6000000000000000e+01 1.2606739664799679e+01 
1360 1361 2 1.0280000000084499e+00 -8.2428922905431273e+02 1.0000000000000000e+00 6.9701102639158989e+00 1.6000000000000000e+01 1.3603730174150916e+01 
1192 1193 2 1.0279999999923495e+00 2.8390641201899380e+03 1.0000000000000000e+00 9.4531846833326245e+00 1.6000000000000000e+01 1.3328535137338992e+01 
1274 1275 2 1.0279999999969056e+00 3.1122031249122929e+03 1.0000000000000000e+00 7.9892828039523724e+00 1.6000000000000000e+01 1.3911990607436076e+01 
1320 1321 2 1.0280000000081295e+00 -3.4551848386663546e+03 1.0000000000000000e+00 1.0883269811796424e+01 1.6000000000000000e+01 1.2010194509158314e+01 
1364 1365 2 1.0279999999893543e+00 -2.1075299916606900e+02 1.0000000000000000e+00 1.0950416371557308e+01 1.6000000000000000e+01 1.3586749880913770e+01 
1359 1360 2 1.0279999999939553e+00 1.1997850131076234e+03 1.0000000000000000e+00 1.1811663963906206e+01 1.6000000000000000e+01 1.2572744241141185e+01 
947 948 2 1.0279999999985514e+00 -2.8264006468349354e+01 1.0000000000000000e+00 1.3476792158106509e+01 1.6000000000000000e+01 1.3104599378138477e+01 
956 957 2 1.0279999999986587e+00 6.2021019213188620e+03 1.0000000000000000e+00 1.4001894725589821e+01 1.6000000000000000e+01 1.3470303799610997e+01 
1593 1594 2 1.0280000002998844e+00 1.2015565846061215e+03 1.0000000000000000e+00 1.4396923554140634e-01 1.9000000000000000e+01 1.2146736807830651e+01 
1393 1394 2 1.0279999999107530e+00 -1.2418266473230879e+03 1.0000000000000000e+00 1.9239169611139597e+00 1.9000000000000000e+01 1.2592504105321771e+01 
1435 1436 2 1.0279999998976126e+00 4.7133067699716128e+02 1.0000000000000000e+00 1.9242092764659353e+00 1.9000000000000000e+01 1.2583707951688030e+01 
1608 1609 2 1.0280000000377427e+00 -5.5987821796841854e+03 1.0000000000000000e+00 5.1770898570770347e+00 1.9000000000000000e+01 1.3524672755250771e+01 
1690 1691 2 1.0279999999152838e+00 -8.2990261916526003e+02 1.0000000000000000e+00 4.1032497930586267e+00 1.9000000000000000e+01 1.3904131251927124e+01 
341 342 2 1.0280000000000062e+00 1.8781764242323479e+03 1.0000000000000000e+00 1.5355103635822507e+00 1.0000000000000000e+01 1.4845087112374085e+01 
394 395 2 1.0280000000000187e+00 4.1373231173403765e+03 1.0000000000000000e+00 1.5325850314459142e+00 1.0000000000000000e+01 1.4929926577503386e+01 
767 768 2 1.0280000000099370e+00 -4.4374846171385825e+03 1.0000000000000000e+00 7.3174059792601376e-01 1.3000000000000000e+01 1.5250767489038459e+01 
725 726 2 1.0279999999829346e+00 7.8372808090778699e+02 1.0000000000000000e+00 4.7399711176763482e-01 1.3000000000000000e+01 1.5444463809116721e+01 
512 513 2 1.0280000000009117e+00 1.4625744417746550e+03 1.0000000000000000e+00 2.4774479141414338e+00 1.3000000000000000e+01 1.4800470687721319e+01 
896 897 2 1.0279999999997931e+00 3.1035367060383533e+02 1.0000000000000000e+00 3.0748919036505971e+00 1.3000000000000000e+01 1.4664759563888916e+01 
733 734 2 1.0280000000015455e+00 2.0329187023723634e+03 1.0000000000000000e+00 4.1977377148865269e+00 1.3000000000000000e+01 1.5692574466208015e+01 
1232 1233 2 1.0280000000005949e+00 3.0852863233573407e+02 1.0000000000000000e+00 4.3182110552972217e+00 1.6000000000000000e+01 1.4363687328379603e+01 
936 937 2 1.0280000000148877e+00 1.2628003434996949e+03 1.0000000000000000e+00 9.2902214749210987e+00 1.6000000000000000e+01 1.4467781571925395e+01 
1311 1312 2 1.0280000000021616e+00 2.7437505819311918e+03 1.0000000000000000e+00 1.0953216059464125e+01 1.6000000000000000e+01 1.5573012689892956e+01 
1272 1273 2 1.0279999999982703e+00 8.3374297004287314e+02 1.0000000000000000e+00 1.0686079583129411e+01 1.6000000000000000e+01 1.5634437104680254e+01 
941 942 2 1.0280000000079712e+00 -6.2366706873793446e+03 1.0000000000000000e+00 1.2976996029756906e+01 1.6000000000000000e+01 1.4973193906493190e+01 