LAMMPS data file via write_data, version 30 Jul 2016, timestep = 50400000

3234 atoms
8 atom types

0.0000000000000000e+00 1.0000000000000000e+02 xlo xhi
0.0000000000000000e+00 4.0000000000000000e+01 ylo yhi
0.0000000000000000e+00 4.0000000000000000e+01 zlo zhi

Masses

1 3.896
2 5.36
3 20.064
4 8.378
5 8.378
6 8.378
7 8.378
8 8.378

Atoms # meso-molecular

266 267 2 1.0280000000000005e+00 2.5912881773276181e+03 1.0000000000000000e+00 2.3515775250951521e+00 1.0000000000000000e+01 1.3797386194605723e+00 
308 309 2 1.0279999999999969e+00 3.1097137723758766e+02 1.0000000000000000e+00 3.6762829689048426e+00 1.0000000000000000e+01 1.3906520577481472e+00 
350 351 2 1.0280000000000002e+00 3.1090266909245406e+03 1.0000000000000000e+00 5.2997559340878038e+00 1.0000000000000000e+01 1.5456844122583140e+00 
440 441 2 1.0280000000000016e+00 -1.9934408659179161e+02 1.0000000000000000e+00 5.9313445515966619e+00 1.0000000000000000e+01 5.5084227597985758e-01 
436 437 2 1.0280000000000047e+00 -8.1470626524134263e+02 1.0000000000000000e+00 6.5381440640363238e+00 1.0000000000000000e+01 1.5351371599268862e+00 
729 730 2 1.0280000000272873e+00 1.6371481773759197e+03 1.0000000000000000e+00 2.2918845144199782e+00 1.3000000000000000e+01 1.4686717774433355e+00 
489 490 2 1.0279999999894904e+00 -9.8851716913804137e+02 1.0000000000000000e+00 5.4506072109624082e+00 1.3000000000000000e+01 1.0631040574416064e+00 
534 535 2 1.0280000000081244e+00 -5.2222565006375444e+03 1.0000000000000000e+00 7.2343197806435304e+00 1.3000000000000000e+01 1.1733205929410104e+00 
529 530 2 1.0279999999988636e+00 -3.2734344622300623e+03 1.0000000000000000e+00 8.1705828889151526e+00 1.3000000000000000e+01 4.4841939731259906e-01 
490 491 2 1.0280000000012013e+00 1.1017571194629700e+03 1.0000000000000000e+00 1.1104388466728276e+01 1.3000000000000000e+01 1.2757255537591607e+00 
827 828 2 1.0279999999944083e+00 3.3491852718488672e+03 1.0000000000000000e+00 1.0362107974834133e+01 1.3000000000000000e+01 3.8741276488904136e-01 
908 909 2 1.0279999999998866e+00 -6.9912792291853966e+03 1.0000000000000000e+00 1.2368616289184697e+01 1.3000000000000000e+01 1.0020098969219100e+00 
969 970 2 1.0279999999761587e+00 -1.2518336892042710e+02 1.0000000000000000e+00 1.5117841945529953e+00 1.6000000000000000e+01 3.4867444757879046e-01 
930 931 2 1.0280000000252021e+00 -5.1552359192978729e+03 1.0000000000000000e+00 1.7309099449542007e+00 1.6000000000000000e+01 1.3565444876140196e+00 
1230 1231 2 1.0279999999911706e+00 -2.4968797899725241e+03 1.0000000000000000e+00 4.7817853404331174e+00 1.6000000000000000e+01 8.5266795354019598e-01 
1228 1229 2 1.0280000000383216e+00 -8.2797627201360160e+02 1.0000000000000000e+00 5.1363006266756397e+00 1.6000000000000000e+01 1.2421673826268664e+00 
1368 1369 2 1.0279999999827099e+00 1.3152313809319039e+03 1.0000000000000000e+00 7.5392483916700792e+00 1.6000000000000000e+01 1.4433231575670533e+00 
1237 1238 2 1.0279999999980527e+00 -3.3402267723475688e+03 1.0000000000000000e+00 7.8654310206904050e+00 1.6000000000000000e+01 4.5165034998929487e-02 
1369 1370 2 1.0280000000006733e+00 3.0988885423927541e+03 1.0000000000000000e+00 8.7383416758530963e+00 1.6000000000000000e+01 4.5583989580859713e-02 
1323 1324 2 1.0280000000176337e+00 -3.2981683388552419e+03 1.0000000000000000e+00 8.9708028610712454e+00 1.6000000000000000e+01 1.4041887411701166e+00 
1332 1333 2 1.0279999999815079e+00 -5.0706735177149330e+03 1.0000000000000000e+00 1.7137282554321541e+01 1.6000000000000000e+01 1.6516637029192913e+00 
1283 1284 2 1.0279999999977769e+00 -6.4604523055318123e+02 1.0000000000000000e+00 1.7675535647414776e+01 1.6000000000000000e+01 8.5014249581137225e-01 
1285 1286 2 1.0280000000166543e+00 9.0551036756327093e+01 1.0000000000000000e+00 1.9295742201574143e+01 1.6000000000000000e+01 2.1428559535165309e-01 
1038 1039 2 1.0279999999987555e+00 7.5897989263912496e+02 1.0000000000000000e+00 2.1264122089820578e+01 1.6000000000000000e+01 1.1408272880037995e+00 
1284 1285 2 1.0280000000088316e+00 2.8180442863064818e+03 1.0000000000000000e+00 1.9775200998225586e+01 1.6000000000000000e+01 1.8776389754569243e+00 
1242 1243 2 1.0279999999971081e+00 -3.2413587622113828e+03 1.0000000000000000e+00 2.2651883686115543e+01 1.6000000000000000e+01 4.0779792284590821e-01 
1243 1244 2 1.0280000000057403e+00 -3.8316337722671833e+03 1.0000000000000000e+00 2.5386881162070903e+01 1.6000000000000000e+01 1.0022792198169466e+00 
1202 1203 2 1.0279999999949081e+00 1.9029862131840491e+03 1.0000000000000000e+00 2.6721235058462870e+01 1.6000000000000000e+01 2.9922810058369581e-01 
1294 1295 2 1.0280000000021035e+00 -5.4183089340436472e+03 1.0000000000000000e+00 2.5774628513441904e+01 1.6000000000000000e+01 1.9003672678164583e+00 
1248 1249 2 1.0280000000068881e+00 -1.4110014060638973e+03 1.0000000000000000e+00 2.7907335478827598e+01 1.6000000000000000e+01 8.9267569777333000e-01 
50 51 2 1.0280000000000016e+00 1.4629817664086249e+03 1.0000000000000000e+00 1.4340555546155798e+00 1.0000000000000000e+01 3.5691133417521153e+00 
8 9 2 1.0279999999999989e+00 3.6704342750241667e+03 1.0000000000000000e+00 2.9134881660846275e+00 1.0000000000000000e+01 2.4011515599535933e+00 
346 347 2 1.0280000000000038e+00 -3.5192730750014316e+03 1.0000000000000000e+00 4.5189714569382771e+00 1.0000000000000000e+01 3.9609090588102491e+00 
259 260 2 1.0279999999999938e+00 7.6049947513207726e+03 1.0000000000000000e+00 4.7515584669684232e+00 1.0000000000000000e+01 3.9807090400433913e+00 
176 177 2 1.0280000000000031e+00 3.9747839290655675e+03 1.0000000000000000e+00 7.0570865290921692e+00 1.0000000000000000e+01 3.2433087767362800e+00 
48 49 2 1.0280000000000005e+00 -1.7820034015018052e+02 1.0000000000000000e+00 6.9625205962711538e+00 1.0000000000000000e+01 3.4926297259102195e+00 
799 800 2 1.0280000000064058e+00 1.2486509363150608e+03 1.0000000000000000e+00 1.0123896282261019e-02 1.3000000000000000e+01 2.0777712542329394e+00 
532 533 2 1.0279999999990772e+00 8.9011061084624471e+03 1.0000000000000000e+00 3.7805928684721626e+00 1.3000000000000000e+01 2.0283318320453816e+00 
903 904 2 1.0279999999856544e+00 1.9726434753077965e+03 1.0000000000000000e+00 2.3637072830077863e+00 1.3000000000000000e+01 2.1019665747960192e+00 
904 905 2 1.0280000000075442e+00 2.2894265699279649e+03 1.0000000000000000e+00 4.9022729714547246e+00 1.3000000000000000e+01 2.5498172729638919e+00 
572 573 2 1.0280000000010454e+00 -1.1312515854578101e+03 1.0000000000000000e+00 6.0690158169413380e+00 1.3000000000000000e+01 2.3087034565362732e+00 
877 878 2 1.0279999999996425e+00 -3.5541781926281567e+02 1.0000000000000000e+00 8.3961500893240988e+00 1.3000000000000000e+01 2.4234653165042674e+00 
749 750 2 1.0279999999864020e+00 4.0935492767455180e+03 1.0000000000000000e+00 7.9264832704792090e+00 1.3000000000000000e+01 2.9284277252624906e+00 
825 826 2 1.0279999999970810e+00 2.4474383890501017e+03 1.0000000000000000e+00 1.2395920861664910e+01 1.3000000000000000e+01 2.8570996298271019e+00 
869 870 2 1.0279999999996046e+00 -1.6356424586484281e+03 1.0000000000000000e+00 1.2604954682357462e+01 1.3000000000000000e+01 2.7773572793519414e+00 
1183 1184 2 1.0280000000185328e+00 7.6047205644847436e+03 1.0000000000000000e+00 1.4673150886418160e+00 1.6000000000000000e+01 3.6779149768657695e+00 
1270 1271 2 1.0279999999661475e+00 -3.5188262534159699e+03 1.0000000000000000e+00 2.0742916371967710e+00 1.6000000000000000e+01 2.3646088762268205e+00 
1188 1189 2 1.0280000000046263e+00 1.8771411955461776e+03 1.0000000000000000e+00 3.8070811480735154e+00 1.6000000000000000e+01 2.8126932989320146e+00 
1102 1103 2 1.0279999999766942e+00 3.0006881639439557e+03 1.0000000000000000e+00 4.4840725994193527e+00 1.6000000000000000e+01 3.1398875670344495e+00 
1240 1241 2 1.0279999999924092e+00 -2.7380554093978708e+03 1.0000000000000000e+00 6.7835066005467475e+00 1.6000000000000000e+01 2.6878345326740831e+00 
1236 1237 2 1.0280000000026035e+00 -3.8063461377176891e+03 1.0000000000000000e+00 6.1616041358889317e+00 1.6000000000000000e+01 2.9170822465199708e+00 
1204 1205 2 1.0280000000117222e+00 1.5267033900894512e+03 1.0000000000000000e+00 1.0263990763811449e+01 1.6000000000000000e+01 2.1437581993846391e+00 
1244 1245 2 1.0279999999950289e+00 -4.5486168894413713e+03 1.0000000000000000e+00 1.1255260398540228e+01 1.6000000000000000e+01 2.8896483404213784e+00 
989 990 2 1.0279999999950402e+00 -2.5644618254864690e+03 1.0000000000000000e+00 9.9480885735484303e+00 1.6000000000000000e+01 3.4245578293633288e+00 
1372 1373 2 1.0279999999913938e+00 1.1451162363097324e+03 1.0000000000000000e+00 1.5586838110871431e+01 1.6000000000000000e+01 3.3282255391020086e+00 
1371 1372 2 1.0279999999940124e+00 -9.3634240222731296e+02 1.0000000000000000e+00 1.6076017267621062e+01 1.6000000000000000e+01 2.5318346281283235e+00 
1203 1204 2 1.0279999999855616e+00 2.7352950427907008e+03 1.0000000000000000e+00 1.9056283846972114e+01 1.6000000000000000e+01 3.0290032625810475e+00 
1289 1290 2 1.0280000000224594e+00 3.3497584893229005e+03 1.0000000000000000e+00 1.7764281429455849e+01 1.6000000000000000e+01 3.3506502332806996e+00 
1206 1207 2 1.0280000000072966e+00 3.0124019941042834e+03 1.0000000000000000e+00 2.0876050953478973e+01 1.6000000000000000e+01 2.8454761623656570e+00 
1282 1283 2 1.0279999999850837e+00 1.3797873414833166e+03 1.0000000000000000e+00 2.1747563134869264e+01 1.6000000000000000e+01 2.2433771374104539e+00 
1336 1337 2 1.0280000000011320e+00 2.8936604568181137e+03 1.0000000000000000e+00 2.4833195104246407e+01 1.6000000000000000e+01 3.0385726467103900e+00 
1291 1292 2 1.0279999999987703e+00 1.5782387584709652e+03 1.0000000000000000e+00 2.4863604197608947e+01 1.6000000000000000e+01 3.9937306446695291e+00 
1293 1294 2 1.0280000000003890e+00 -3.5206820264653734e+03 1.0000000000000000e+00 2.6799322834220675e+01 1.6000000000000000e+01 3.5382548781707124e+00 
1001 1002 2 1.0280000000073080e+00 1.3592425752108666e+03 1.0000000000000000e+00 2.8360104687807606e+01 1.6000000000000000e+01 2.5526341240861461e+00 
1328 1329 2 1.0279999999943368e+00 5.7592425572039356e+03 1.0000000000000000e+00 2.8197362389133172e+01 1.6000000000000000e+01 3.2854300775102918e+00 
1373 1374 2 1.0280000000014609e+00 5.7509339106551533e+02 1.0000000000000000e+00 3.0210630224759957e+01 1.6000000000000000e+01 2.9167912254077302e+00 
1251 1252 2 1.0279999999992837e+00 -9.0588905740220184e+02 1.0000000000000000e+00 3.1482205375624865e+01 1.6000000000000000e+01 2.7102172271080613e+00 
1205 1206 2 1.0280000000001319e+00 2.6050096268522793e+03 1.0000000000000000e+00 3.1776298911513486e+01 1.6000000000000000e+01 3.7904665415799927e+00 
356 357 2 1.0280000000000005e+00 -5.3698368046426572e+02 1.0000000000000000e+00 3.0018613218829748e-01 1.0000000000000000e+01 5.5273544722756558e+00 
354 355 2 1.0279999999999940e+00 2.9296715098604659e+02 1.0000000000000000e+00 1.5648418109791360e+00 1.0000000000000000e+01 5.6467801638068593e+00 
434 435 2 1.0279999999999987e+00 3.1078964467817008e+02 1.0000000000000000e+00 1.9121229708640946e+00 1.0000000000000000e+01 4.0520737509460600e+00 
395 396 2 1.0280000000000034e+00 5.9061567230288292e+03 1.0000000000000000e+00 3.6211759857593044e+00 1.0000000000000000e+01 5.5646548153917275e+00 
306 307 2 1.0280000000000027e+00 -2.4998755324403401e+03 1.0000000000000000e+00 5.9863873103859726e+00 1.0000000000000000e+01 5.6359464960243093e+00 
260 261 2 1.0280000000000005e+00 4.0417703728662245e+03 1.0000000000000000e+00 8.2165315811583355e+00 1.0000000000000000e+01 5.2266016229777863e+00 
384 385 2 1.0280000000000005e+00 -2.3001529015389346e+02 1.0000000000000000e+00 8.2165315823289831e+00 1.0000000000000000e+01 5.2266016062800125e+00 
845 846 2 1.0280000000201162e+00 -3.4000695934813511e+03 1.0000000000000000e+00 1.7581772356510412e+00 1.3000000000000000e+01 5.4259962169657179e+00 
842 843 2 1.0280000000197622e+00 -8.7253588953783719e+02 1.0000000000000000e+00 1.7611717984116912e+00 1.3000000000000000e+01 5.4288486581208941e+00 
776 777 2 1.0280000000005256e+00 -1.0024277059050722e+03 1.0000000000000000e+00 5.7809658096230097e+00 1.3000000000000000e+01 5.5665332772152247e+00 
559 560 2 1.0279999999998526e+00 6.0563757406781019e+02 1.0000000000000000e+00 5.8171045891627449e+00 1.3000000000000000e+01 5.0428043645675524e+00 
817 818 2 1.0279999999992473e+00 2.5406264881627958e+03 1.0000000000000000e+00 7.2626633544473442e+00 1.3000000000000000e+01 5.4150003262446305e+00 
868 869 2 1.0279999999965292e+00 8.9771034279174019e+03 1.0000000000000000e+00 9.1356879346393747e+00 1.3000000000000000e+01 4.1878056338430127e+00 
819 820 2 1.0280000000025431e+00 8.9393875376364861e+02 1.0000000000000000e+00 8.3274643342999664e+00 1.3000000000000000e+01 5.3088667539825183e+00 
815 816 2 1.0279999999991121e+00 -1.0108553128799024e+03 1.0000000000000000e+00 9.9473224103233164e+00 1.3000000000000000e+01 4.9705205412950146e+00 
575 576 2 1.0280000000003306e+00 3.5024169907109062e+03 1.0000000000000000e+00 1.1611158398125598e+01 1.3000000000000000e+01 5.1455153583110409e+00 
519 520 2 1.0279999999999014e+00 8.8416870665201586e+03 1.0000000000000000e+00 1.1996215217904041e+01 1.3000000000000000e+01 5.6914354422706346e+00 
1350 1351 2 1.0279999999779195e+00 -5.5514992590795791e+03 1.0000000000000000e+00 1.1414325973959973e-01 1.6000000000000000e+01 4.1318421919177384e+00 
1319 1320 2 1.0280000000233116e+00 5.9057303202600215e+03 1.0000000000000000e+00 2.6202340057543427e+00 1.6000000000000000e+01 4.2601420480025087e+00 
1231 1232 2 1.0280000000004716e+00 -1.4144538025222571e+03 1.0000000000000000e+00 3.5484424304189690e+00 1.6000000000000000e+01 4.9783486627463214e+00 
1362 1363 2 1.0280000000240139e+00 3.1170574299800519e+03 1.0000000000000000e+00 4.8708383001719255e+00 1.6000000000000000e+01 5.4044810858664407e+00 
1200 1201 2 1.0279999999967355e+00 2.0144576839954011e+03 1.0000000000000000e+00 6.0083248161331682e+00 1.6000000000000000e+01 5.6500882872616200e+00 
1321 1322 2 1.0280000000131186e+00 -1.4698185116422760e+03 1.0000000000000000e+00 9.0907903044020859e+00 1.6000000000000000e+01 5.6768483677934780e+00 
1314 1315 2 1.0280000000218357e+00 6.2588451567389961e+02 1.0000000000000000e+00 1.1003730070297319e+01 1.6000000000000000e+01 4.1991633342815069e+00 
994 995 2 1.0280000000010705e+00 8.9040586587677426e+03 1.0000000000000000e+00 1.1706843130776456e+01 1.6000000000000000e+01 5.5408819803938014e+00 
951 952 2 1.0279999999722105e+00 -9.9265722399887784e+02 1.0000000000000000e+00 1.5111107462638358e+01 1.6000000000000000e+01 4.4837638740911965e+00 
996 997 2 1.0279999999964884e+00 -5.2223336709581417e+03 1.0000000000000000e+00 1.5054741798044645e+01 1.6000000000000000e+01 5.5446312952665524e+00 
991 992 2 1.0280000000304597e+00 -3.2679922604577205e+03 1.0000000000000000e+00 1.6569918975762388e+01 1.6000000000000000e+01 5.6928332520751441e+00 
952 953 2 1.0279999999831642e+00 1.1022099149473374e+03 1.0000000000000000e+00 1.7626399862410391e+01 1.6000000000000000e+01 4.7080437316766552e+00 
1246 1247 2 1.0279999999961058e+00 -3.8647910076507660e+03 1.0000000000000000e+00 1.9127253882437639e+01 1.6000000000000000e+01 4.6287841249641151e+00 
1370 1371 2 1.0280000000019538e+00 -7.0065417195820628e+03 1.0000000000000000e+00 1.9637924628342834e+01 1.6000000000000000e+01 5.6849556566577535e+00 
1212 1213 2 1.0280000000024054e+00 7.6668211493681956e+03 1.0000000000000000e+00 2.6025333190660756e+01 1.6000000000000000e+01 4.4586185643628191e+00 
1247 1248 2 1.0280000000002647e+00 3.2045911219412397e+02 1.0000000000000000e+00 3.0660719434832405e+01 1.6000000000000000e+01 4.0881979565029036e+00 
400 401 2 1.0279999999999991e+00 -3.3342267515672193e+03 1.0000000000000000e+00 2.3750206167247199e+00 1.0000000000000000e+01 6.7404949185984995e+00 
307 308 2 1.0279999999999994e+00 -1.4149985245831449e+03 1.0000000000000000e+00 3.9413569390661385e+00 1.0000000000000000e+01 6.4169062115030959e+00 
264 265 2 1.0279999999999994e+00 1.8726449769480296e+03 1.0000000000000000e+00 5.5910399880140478e+00 1.0000000000000000e+01 6.7715300364238313e+00 
304 305 2 1.0279999999999960e+00 -8.2578299962638630e+02 1.0000000000000000e+00 6.7300762408931307e+00 1.0000000000000000e+01 6.5081928677576908e+00 
633 634 2 1.0279999999844798e+00 -1.5614693750265888e+03 1.0000000000000000e+00 1.1418446249747896e+00 1.3000000000000000e+01 7.2212743115281244e+00 
720 721 2 1.0279999999967921e+00 9.8744567955340608e+02 1.0000000000000000e+00 7.7085195374179660e-01 1.3000000000000000e+01 7.4777227274068876e+00 
719 720 2 1.0279999999932359e+00 -7.1870343575455590e+03 1.0000000000000000e+00 1.0050194525708825e+01 1.3000000000000000e+01 6.6413017399230556e+00 
763 764 2 1.0280000000036964e+00 2.7883059104752856e+03 1.0000000000000000e+00 1.1221980432667134e+01 1.3000000000000000e+01 6.9677422591948757e+00 
1358 1359 2 1.0280000000053515e+00 3.1151357053332777e+02 1.0000000000000000e+00 2.2713592320564655e+00 1.6000000000000000e+01 6.6110080520364782e+00 
1195 1196 2 1.0279999999803202e+00 2.0388990065036087e+03 1.0000000000000000e+00 2.8781089749363864e+00 1.6000000000000000e+01 6.5891496962064933e+00 
1199 1200 2 1.0279999999871294e+00 2.5400316392037003e+03 1.0000000000000000e+00 5.2121434938286066e+00 1.6000000000000000e+01 6.9057408131093130e+00 
1326 1327 2 1.0280000000207825e+00 -1.5856411183887453e+03 1.0000000000000000e+00 6.6913410422854085e+00 1.6000000000000000e+01 6.8261302939400181e+00 
1333 1334 2 1.0279999999905689e+00 5.0663549746539945e+02 1.0000000000000000e+00 8.3561017715672179e+00 1.6000000000000000e+01 6.2981809803759834e+00 
1366 1367 2 1.0279999999959952e+00 2.2867296562004981e+03 1.0000000000000000e+00 1.0133881919242850e+01 1.6000000000000000e+01 6.1180469598680638e+00 
981 982 2 1.0280000000178913e+00 8.8593577915633323e+03 1.0000000000000000e+00 1.0368791867680820e+01 1.6000000000000000e+01 7.7495305571413908e+00 
1330 1331 2 1.0280000000341101e+00 8.9723504038618485e+03 1.0000000000000000e+00 1.2369051328071501e+01 1.6000000000000000e+01 6.1718993275008236e+00 
1339 1340 2 1.0279999999979776e+00 -3.5664878339163488e+02 1.0000000000000000e+00 1.3589618471431685e+01 1.6000000000000000e+01 7.5602727005763750e+00 
1211 1212 2 1.0279999999888838e+00 4.0884265890305778e+03 1.0000000000000000e+00 1.3759781645073353e+01 1.6000000000000000e+01 6.3104290925164843e+00 
1254 1255 2 1.0279999999793241e+00 2.7153122010113134e+03 1.0000000000000000e+00 1.5291642058327655e+01 1.6000000000000000e+01 7.8064421017395462e+00 
1287 1288 2 1.0279999999834173e+00 2.4448327418662980e+03 1.0000000000000000e+00 1.7453583507105570e+01 1.6000000000000000e+01 6.8005910315366300e+00 
1331 1332 2 1.0280000000073626e+00 -1.6406412551999947e+03 1.0000000000000000e+00 1.8168421334648258e+01 1.6000000000000000e+01 6.6252617358152772e+00 
1249 1250 2 1.0279999999998370e+00 -2.3147849440518003e+03 1.0000000000000000e+00 2.0592775527521901e+01 1.6000000000000000e+01 6.5148171760528282e+00 
955 956 2 1.0280000000011966e+00 1.8675875719399064e+03 1.0000000000000000e+00 2.1251002718510435e+01 1.6000000000000000e+01 7.0184958927280654e+00 
1250 1251 2 1.0279999999991909e+00 -4.4963550321199018e+03 1.0000000000000000e+00 2.2841111750197349e+01 1.6000000000000000e+01 7.5034471142665149e+00 
1208 1209 2 1.0280000000003509e+00 7.8450954280051633e+02 1.0000000000000000e+00 2.2732508026804041e+01 1.6000000000000000e+01 7.7673649883500921e+00 
1140 1141 2 1.0280000000040919e+00 4.1227716546452721e+03 1.0000000000000000e+00 2.5943726025707292e+01 1.6000000000000000e+01 6.3492050439690049e+00 
1347 1348 2 1.0280000000000313e+00 5.7332536191913960e+02 1.0000000000000000e+00 2.6037393884157748e+01 1.6000000000000000e+01 6.7179991678700448e+00 
1302 1303 2 1.0279999999983955e+00 1.3581821332914906e+03 1.0000000000000000e+00 2.7930471852798110e+01 1.6000000000000000e+01 6.8305050179400508e+00 
1259 1260 2 1.0279999999986233e+00 2.0302042882222913e+03 1.0000000000000000e+00 2.7930471305969295e+01 1.6000000000000000e+01 6.8305090531459260e+00 
1510 1511 2 1.0280000000183724e+00 5.6459006240763520e+03 1.0000000000000000e+00 9.7336152283928890e-01 1.9000000000000000e+01 7.8989020545844486e+00 
1549 1550 2 1.0279999999405383e+00 -2.3770497560985933e+02 1.0000000000000000e+00 1.6522508493946295e+00 1.9000000000000000e+01 7.9221662980637859e+00 
87 88 2 1.0279999999999916e+00 5.6520805280864824e+03 1.0000000000000000e+00 1.5737075706925339e+00 1.0000000000000000e+01 8.0282411280051722e+00 
132 133 2 1.0280000000000000e+00 -2.1400583603905193e+02 1.0000000000000000e+00 7.0981123010113578e-01 1.0000000000000000e+01 8.6158547779123733e+00 
271 272 2 1.0279999999999985e+00 2.0337714562131939e+03 1.0000000000000000e+00 3.3933242274151092e+00 1.0000000000000000e+01 8.5545575542300121e+00 
272 273 2 1.0279999999999987e+00 2.3927023180739911e+03 1.0000000000000000e+00 3.2368442404693680e+00 1.0000000000000000e+01 8.7172507554015777e+00 
728 729 2 1.0279999999997156e+00 2.5912158814456025e+03 1.0000000000000000e+00 8.6122626161254150e+00 1.3000000000000000e+01 8.2475202221732644e+00 
470 471 2 1.0279999999990823e+00 3.6702670424666485e+03 1.0000000000000000e+00 8.8205484932469851e+00 1.3000000000000000e+01 8.7192220536206992e+00 
770 771 2 1.0280000000021496e+00 3.1092455446006716e+02 1.0000000000000000e+00 1.0163126620451717e+01 1.3000000000000000e+01 8.0316009857322381e+00 
1324 1325 2 1.0279999999987703e+00 -3.3292421563204498e+03 1.0000000000000000e+00 4.8789268987189671e-01 1.6000000000000000e+01 8.4699374427695791e+00 
1196 1197 2 1.0279999999945388e+00 2.3980300614437465e+03 1.0000000000000000e+00 1.6753753637560844e+00 1.6000000000000000e+01 8.0433528090612789e+00 
1235 1236 2 1.0280000000268199e+00 -4.5862309945408915e+03 1.0000000000000000e+00 3.2100683076561283e+00 1.6000000000000000e+01 8.9100460458949851e+00 
986 987 2 1.0279999999878884e+00 -2.7376156899531502e+03 1.0000000000000000e+00 2.6378662080264053e+00 1.6000000000000000e+01 9.6105022838274792e+00 
1189 1190 2 1.0280000000079741e+00 3.0257351124812758e+03 1.0000000000000000e+00 5.5076047152824215e+00 1.6000000000000000e+01 8.3763812452455166e+00 
1233 1234 2 1.0279999999858880e+00 -3.8498490592991707e+03 1.0000000000000000e+00 4.6184769346209187e+00 1.6000000000000000e+01 9.2642012086613139e+00 
1365 1366 2 1.0280000000015124e+00 1.9774884151174992e+03 1.0000000000000000e+00 7.8117887184567412e+00 1.6000000000000000e+01 8.0158754947611293e+00 
1238 1239 2 1.0280000000089151e+00 -9.9715397733425948e+02 1.0000000000000000e+00 5.9808955507901267e+00 1.6000000000000000e+01 9.7233741662893891e+00 
1191 1192 2 1.0280000000034193e+00 1.6436868677324446e+03 1.0000000000000000e+00 8.5542331132637557e+00 1.6000000000000000e+01 8.2854695896624779e+00 
1281 1282 2 1.0280000000021050e+00 8.8577564776528470e+02 1.0000000000000000e+00 8.6838729403269763e+00 1.6000000000000000e+01 9.9055489369585654e+00 
1034 1035 2 1.0279999999810461e+00 -1.1243734242946653e+03 1.0000000000000000e+00 1.0884444745904702e+01 1.6000000000000000e+01 8.2564357659430243e+00 
1037 1038 2 1.0280000000272154e+00 3.5014580291713410e+03 1.0000000000000000e+00 1.1327826179532705e+01 1.6000000000000000e+01 9.5761271821219349e+00 
1296 1297 2 1.0279999999666278e+00 -1.0841002902390846e+03 1.0000000000000000e+00 1.3465836672416875e+01 1.6000000000000000e+01 9.1079094202284896e+00 
1214 1215 2 1.0280000000151310e+00 -6.8982820897260099e+03 1.0000000000000000e+00 1.3197092394808857e+01 1.6000000000000000e+01 9.9480662614161446e+00 
1086 1087 2 1.0280000000304477e+00 2.7584994297046346e+03 1.0000000000000000e+00 1.5173464956939936e+01 1.6000000000000000e+01 8.2904410440591967e+00 
1558 1559 2 1.0280000000189480e+00 9.6592579168855900e+02 1.0000000000000000e+00 1.9495124318375534e+00 1.9000000000000000e+01 9.9973507520692131e+00 
1516 1517 2 1.0280000000189702e+00 5.0524679181934061e+02 1.0000000000000000e+00 1.9494318733441165e+00 1.9000000000000000e+01 9.9973710905646236e+00 
1766 1767 2 1.0280000000141338e+00 -8.7552573954168156e+02 1.0000000000000000e+00 3.4548791663325602e+00 1.9000000000000000e+01 8.3049092549983996e+00 
1769 1770 2 1.0280000000214478e+00 -3.3972268706143263e+03 1.0000000000000000e+00 3.4759267758789845e+00 1.9000000000000000e+01 8.4051898956228719e+00 
1267 1268 2 1.0280000000130745e+00 -1.0079353627648279e+03 1.0000000000000000e+00 2.0205800174010680e+00 1.6000000000000000e+01 1.1283390514941956e+01 
935 936 2 1.0280000000130913e+00 6.2193392531769259e+03 1.0000000000000000e+00 2.0206730125780443e+00 1.6000000000000000e+01 1.1283433014854891e+01 
1021 1022 2 1.0280000000146856e+00 5.9469249267428700e+02 1.0000000000000000e+00 6.0789103195056713e+00 1.6000000000000000e+01 1.1065258544464312e+01 
1315 1316 2 1.0279999999847456e+00 -5.1371240007947963e+03 1.0000000000000000e+00 7.2199992116314240e+00 1.6000000000000000e+01 1.1057700440328015e+01 
1277 1278 2 1.0279999999859064e+00 -1.0025478470689173e+03 1.0000000000000000e+00 9.6970560822521907e+00 1.6000000000000000e+01 1.0660434956772216e+01 
1279 1280 2 1.0280000000125153e+00 2.5371461887091809e+03 1.0000000000000000e+00 8.7044046714432319e+00 1.6000000000000000e+01 1.1309093726023868e+01 
1073 1074 2 1.0279999999713867e+00 -9.1520949329161454e+02 1.0000000000000000e+00 1.1963952837302353e+01 1.6000000000000000e+01 1.0488629350103288e+01 
207 208 2 1.0279999999999949e+00 1.2408728332235983e+03 1.0000000000000000e+00 1.5231717053813822e+00 1.0000000000000000e+01 1.2531066510635235e+01 
165 166 2 1.0279999999999945e+00 7.7523013192079543e+02 1.0000000000000000e+00 1.5234377292533341e+00 1.0000000000000000e+01 1.2531678000301705e+01 
1190 1191 2 1.0280000000105955e+00 2.5915880538870460e+03 1.0000000000000000e+00 3.4617761323554763e+00 1.6000000000000000e+01 1.3121753403015244e+01 
932 933 2 1.0279999999964449e+00 3.6698913035849391e+03 1.0000000000000000e+00 3.1058004741086989e+00 1.6000000000000000e+01 1.3812553796055917e+01 
1181 1182 2 1.0279999999946274e+00 -7.1890609987038133e+03 1.0000000000000000e+00 5.2508390662290703e+00 1.6000000000000000e+01 1.3674273463431614e+01 
1225 1226 2 1.0280000000027458e+00 2.7850252936629404e+03 1.0000000000000000e+00 6.1718472678943224e+00 1.6000000000000000e+01 1.2606724718155860e+01 
1360 1361 2 1.0280000000077327e+00 -8.2428922905431273e+02 1.0000000000000000e+00 6.9701170313297842e+00 1.6000000000000000e+01 1.3603714564944624e+01 
1192 1193 2 1.0279999999929892e+00 2.8390641201899380e+03 1.0000000000000000e+00 9.4531920822584592e+00 1.6000000000000000e+01 1.3328516786493010e+01 
1274 1275 2 1.0279999999972778e+00 3.1122031249122929e+03 1.0000000000000000e+00 7.9892899857781288e+00 1.6000000000000000e+01 1.3911973400000079e+01 
1320 1321 2 1.0280000000072866e+00 -3.4551848386663546e+03 1.0000000000000000e+00 1.0883276341046763e+01 1.6000000000000000e+01 1.2010174791327682e+01 
1364 1365 2 1.0279999999904532e+00 -2.1075299916606900e+02 1.0000000000000000e+00 1.0950423262366513e+01 1.6000000000000000e+01 1.3586730283706666e+01 
1359 1360 2 1.0279999999944867e+00 1.1997850131076234e+03 1.0000000000000000e+00 1.1811670396741587e+01 1.6000000000000000e+01 1.2572724352398740e+01 
947 948 2 1.0279999999986342e+00 -2.8264006468349354e+01 1.0000000000000000e+00 1.3476798673741616e+01 1.6000000000000000e+01 1.3104578937133883e+01 
956 957 2 1.0279999999987959e+00 6.2021019213188620e+03 1.0000000000000000e+00 1.4001901290087240e+01 1.6000000000000000e+01 1.3470283260130300e+01 
1593 1594 2 1.0280000002678173e+00 1.2015565846061215e+03 1.0000000000000000e+00 1.4393119196468801e-01 1.9000000000000000e+01 1.2146751537626001e+01 
1393 1394 2 1.0279999999208995e+00 -1.2418266473230879e+03 1.0000000000000000e+00 1.9238862061941366e+00 1.9000000000000000e+01 1.2592512717865533e+01 
1435 1436 2 1.0279999999093239e+00 4.7133067699716128e+02 1.0000000000000000e+00 1.9241783066517619e+00 1.9000000000000000e+01 1.2583716779311077e+01 
1608 1609 2 1.0280000000337042e+00 -5.5987821796841854e+03 1.0000000000000000e+00 5.1770736029394770e+00 1.9000000000000000e+01 1.3524639518148081e+01 
1690 1691 2 1.0279999999241343e+00 -8.2990261916526003e+02 1.0000000000000000e+00 4.1032387494796314e+00 1.9000000000000000e+01 1.3904100722765277e+01 
341 342 2 1.0280000000000045e+00 1.8781764242323479e+03 1.0000000000000000e+00 1.5355103628095605e+00 1.0000000000000000e+01 1.4845087112294202e+01 
394 395 2 1.0280000000000098e+00 4.1373231173403765e+03 1.0000000000000000e+00 1.5325850307936455e+00 1.0000000000000000e+01 1.4929926577503386e+01 
767 768 2 1.0280000000090095e+00 -4.4374846171385825e+03 1.0000000000000000e+00 7.3173779950680840e-01 1.3000000000000000e+01 1.5250776999158358e+01 
725 726 2 1.0279999999840284e+00 7.8372808090778699e+02 1.0000000000000000e+00 4.7399470644536140e-01 1.3000000000000000e+01 1.5444473472174995e+01 
512 513 2 1.0280000000006768e+00 1.4625744417746550e+03 1.0000000000000000e+00 2.4774452555208333e+00 1.3000000000000000e+01 1.4800480422765091e+01 
896 897 2 1.0279999999997189e+00 3.1035367060383533e+02 1.0000000000000000e+00 3.0748892965526973e+00 1.3000000000000000e+01 1.4664769310803109e+01 
733 734 2 1.0280000000014700e+00 2.0329187023723634e+03 1.0000000000000000e+00 4.1977350757211394e+00 1.3000000000000000e+01 1.5692584193339476e+01 
1232 1233 2 1.0280000000005132e+00 3.0852863233573407e+02 1.0000000000000000e+00 4.3182182640669007e+00 1.6000000000000000e+01 1.4363673939541302e+01 
936 937 2 1.0280000000133043e+00 1.2628003434996949e+03 1.0000000000000000e+00 9.2902286773745715e+00 1.6000000000000000e+01 1.4467763408136761e+01 
1311 1312 2 1.0280000000020533e+00 2.7437505819311918e+03 1.0000000000000000e+00 1.0953223816829778e+01 1.6000000000000000e+01 1.5572993624538487e+01 
1272 1273 2 1.0279999999985443e+00 8.3374297004287314e+02 1.0000000000000000e+00 1.0686087408284342e+01 1.6000000000000000e+01 1.5634418064824699e+01 
941 942 2 1.0280000000070353e+00 -6.2366706873793446e+03 1.0000000000000000e+00 1.2977002892688962e+01 1.6000000000000000e+01 1.4973173760008207e+01 