LAMMPS data file via write_data, version 30 Jul 2016, timestep = 50000000

180 atoms
2 atom types

0.0000000000000000e+00 2.0000000000000000e+01 xlo xhi
0.0000000000000000e+00 2.0000000000000000e+01 ylo yhi
0.0000000000000000e+00 2.0000000000000000e+01 zlo zhi

Masses

1 3.896
2 4.31

Atoms # meso-molecular

80 1 2 1.0279999999998140e+00 -2.1826151192563799e+02 1.0000000000000000e+00 1.3011357790096156e+01 3.3017295739853298e+00 3.2503537414282526e+00 
49 1 2 1.0279999999998140e+00 -2.4838741001678983e+02 1.0000000000000000e+00 1.3011357790099726e+01 3.3017295740173589e+00 3.2503537414254171e+00 
43 1 2 1.0279999999998140e+00 -2.3401889620353330e+02 1.0000000000000000e+00 1.3011357790099726e+01 3.3017295740173589e+00 3.2503537414254171e+00 
50 1 2 1.0279999999998113e+00 -2.8220902537343107e+02 1.0000000000000000e+00 1.3011357790096660e+01 3.3017295739703965e+00 3.2503537414262156e+00 
86 1 2 1.0279999999998140e+00 -1.8803065568406817e+02 1.0000000000000000e+00 1.3011357790096227e+01 3.3017295739298551e+00 3.2503537414235208e+00 
56 1 2 1.0279999999998113e+00 -1.5692159542144481e+02 1.0000000000000000e+00 1.3011357790096660e+01 3.3017295739703965e+00 3.2503537414262156e+00 
157 1 2 1.0279999999998750e+00 -2.2030553305539144e+02 1.0000000000000000e+00 1.3243017464732496e+01 6.6631379905108732e+00 5.8375981692277072e+00 
151 1 2 1.0279999999999088e+00 -2.1811873172590037e+02 1.0000000000000000e+00 1.3147065637547986e+01 6.7620391045025894e+00 5.7720559314509448e+00 
39 1 2 1.0280000000005236e+00 -1.8853271664963125e+02 1.0000000000000000e+00 1.3155352048822614e+01 8.4474236107133898e+00 4.9313550226443041e+00 
75 1 2 1.0280000000004963e+00 -1.5951199489182858e+02 1.0000000000000000e+00 1.3153886921216550e+01 8.4562071302902346e+00 4.9124509614020102e+00 
42 1 2 1.0280000000002254e+00 -8.8542095508724429e+01 1.0000000000000000e+00 1.3134427897630015e+01 8.5092772616195038e+00 4.8264929820759264e+00 
78 1 2 1.0280000000002256e+00 -1.0985697199711599e+02 1.0000000000000000e+00 1.3134427897631696e+01 8.5092772616128496e+00 4.8264929821057407e+00 
150 1 2 1.0279999999998914e+00 -2.0502978140370271e+02 1.0000000000000000e+00 1.2819371727876277e+01 6.9943347688758486e+00 5.8881770719892383e+00 
145 1 2 1.0279999999998879e+00 -1.9471039268592773e+02 1.0000000000000000e+00 1.2817516471332269e+01 6.9921677194896610e+00 5.8948125639677933e+00 
81 1 2 1.0279999999999465e+00 -1.7399770946579324e+02 1.0000000000000000e+00 1.3116269432787558e+01 8.5335613106220087e+00 4.7105944282558756e+00 
72 1 2 1.0280000000000726e+00 -2.4891922092187497e+02 1.0000000000000000e+00 1.3319713842125610e+01 1.4471398000530735e+00 9.1221380620005483e+00 
66 1 2 1.0280000000000726e+00 -1.8050092741274509e+02 1.0000000000000000e+00 1.3319713842125610e+01 1.4471398000530735e+00 9.1221380620005483e+00 
36 1 2 1.0280000000000760e+00 -2.3730820530783308e+02 1.0000000000000000e+00 1.3319713842131591e+01 1.4471397999813223e+00 9.1221380620603689e+00 
35 1 2 1.0280000000000757e+00 -2.5274645829727012e+02 1.0000000000000000e+00 1.3319713842125189e+01 1.4471398000286191e+00 9.1221380620213033e+00 
30 1 2 1.0280000000000755e+00 -2.0787022147632598e+02 1.0000000000000000e+00 1.3319713842128646e+01 1.4471398000052456e+00 9.1221380620405661e+00 
71 1 2 1.0280000000000693e+00 -2.3222766651432670e+02 1.0000000000000000e+00 1.3319713842124976e+01 1.4471397999882589e+00 9.1221380620553738e+00 
18 1 2 1.0280000000001652e+00 -1.7940287325530835e+02 1.0000000000000000e+00 1.3322502717575567e+01 6.4994970472805713e+00 8.3519765920169178e+00 
48 1 2 1.0280000000001548e+00 -1.5754688476404962e+02 1.0000000000000000e+00 1.3322516203468680e+01 6.4994920088527266e+00 8.3519815231215766e+00 
12 1 2 1.0280000000001399e+00 -2.0188820285830832e+02 1.0000000000000000e+00 1.3322509076505426e+01 6.4994946688334974e+00 8.3519789183739732e+00 
62 1 2 1.0279999999993021e+00 -2.0742826759764523e+02 1.0000000000000000e+00 1.2541217604489159e+01 2.2708384967319928e+00 1.0770014199208882e+01 
98 1 2 1.0279999999991856e+00 -1.6584241356167425e+02 1.0000000000000000e+00 1.2443065525564778e+01 2.3595745162569632e+00 1.0882153048021209e+01 
45 1 2 1.0280000000008900e+00 -1.8758085744701984e+02 1.0000000000000000e+00 1.2734510430666674e+01 2.1358330477840224e+00 1.2034015711674073e+01 
29 1 2 1.0279999999999265e+00 -1.8822673054355459e+02 1.0000000000000000e+00 1.1159869202274651e+01 3.0938971874419994e+00 1.2636953484211737e+01 
23 1 2 1.0279999999999230e+00 -1.5288329682047004e+02 1.0000000000000000e+00 1.1176374113000955e+01 3.0362871089593289e+00 1.2640117841451035e+01 
59 1 2 1.0279999999998737e+00 -1.9232036537566154e+02 1.0000000000000000e+00 1.1201145195411380e+01 3.1157328211928994e+00 1.2668893997257612e+01 
24 1 2 1.0279999999998590e+00 -1.7182362782399372e+02 1.0000000000000000e+00 1.1231047519735212e+01 3.1196533259291108e+00 1.2687548237095536e+01 
68 1 2 1.0279999999998983e+00 -1.8757849933866157e+02 1.0000000000000000e+00 1.3256890613237411e+01 2.0654662386593046e+00 1.1124313665255050e+01 
64 1 2 1.0280000000000613e+00 -1.4707503236155912e+02 1.0000000000000000e+00 1.1425714733216594e+01 3.6942095299100135e+00 1.1873274857555314e+01 
28 1 2 1.0280000000000642e+00 -1.5680526733085910e+02 1.0000000000000000e+00 1.1423540560817971e+01 3.6941915657777216e+00 1.1874553598962581e+01 
65 1 2 1.0280000000001221e+00 -2.0343332240109206e+02 1.0000000000000000e+00 1.1408815788932872e+01 3.6950772486614656e+00 1.1886375513097935e+01 
37 1 2 1.0279999999995766e+00 -1.5924692679778855e+02 1.0000000000000000e+00 1.2114422598105762e+01 1.1692441729223416e+01 7.3204774482834367e-01 
38 1 2 1.0279999999995837e+00 -1.9352597154865776e+02 1.0000000000000000e+00 1.2114422598104291e+01 1.1692441729207740e+01 7.3204774483381796e-01 
74 1 2 1.0279999999995837e+00 -1.5087674346582523e+02 1.0000000000000000e+00 1.2114422598105826e+01 1.1692441729227079e+01 7.3204774482748658e-01 
44 1 2 1.0280000000004323e+00 -2.1555896297679621e+02 1.0000000000000000e+00 1.1753367768986752e+01 1.2607852149903692e+01 2.0579370928932761e+00 
2 1 2 1.0280000000004510e+00 -1.0379874437372165e+02 1.0000000000000000e+00 1.1898154873026972e+01 1.2613371784808336e+01 2.2918655184440802e+00 
3 1 2 1.0280000000004426e+00 -1.1615069125354697e+02 1.0000000000000000e+00 1.1898176158098103e+01 1.2613371555914183e+01 2.2918867669287528e+00 
8 1 2 1.0280000000004201e+00 -2.0654252092319390e+02 1.0000000000000000e+00 1.1911220726936058e+01 1.2615401029805238e+01 2.3008358749666811e+00 
9 1 2 1.0280000000004299e+00 -2.0863222592264194e+02 1.0000000000000000e+00 1.1911809774959860e+01 1.2615360662589799e+01 2.3014463850216265e+00 
171 1 2 1.0279999999996094e+00 -2.0435013907412389e+02 1.0000000000000000e+00 1.1850192256449013e+01 1.0053710906446970e+01 3.2753597515378163e+00 
178 1 2 1.0279999999996094e+00 -2.2562783644167988e+02 1.0000000000000000e+00 1.1850192256449013e+01 1.0053710906446970e+01 3.2753597515378163e+00 
147 1 2 1.0279999999996094e+00 -1.5556836890322381e+02 1.0000000000000000e+00 1.1850192256449013e+01 1.0053710906446970e+01 3.2753597515378163e+00 
142 1 2 1.0279999999996094e+00 -2.0585653257315116e+02 1.0000000000000000e+00 1.1850192256449013e+01 1.0053710906446970e+01 3.2753597515378163e+00 
177 1 2 1.0279999999996094e+00 -2.0172165263476239e+02 1.0000000000000000e+00 1.1850192256449013e+01 1.0053710906446970e+01 3.2753597515378163e+00 
172 1 2 1.0279999999996094e+00 -2.0790288656345086e+02 1.0000000000000000e+00 1.1850192256449013e+01 1.0053710906446970e+01 3.2753597515378163e+00 
139 1 2 1.0280000000000065e+00 -2.1649441088734778e+02 1.0000000000000000e+00 1.0960486904855085e+01 1.6482736259501827e+01 7.8230603241476473e+00 
103 1 2 1.0280000000000096e+00 -2.2570216790817256e+02 1.0000000000000000e+00 1.0960386282547415e+01 1.6482702137911510e+01 7.8231521505378820e+00 
133 1 2 1.0279999999999636e+00 -1.9435603029113150e+02 1.0000000000000000e+00 1.0960461261203680e+01 1.6482687104836589e+01 7.8231263475014448e+00 
134 1 2 1.0279999999999681e+00 -1.5865621808850156e+02 1.0000000000000000e+00 1.0960477593700784e+01 1.6482676302290738e+01 7.8231286601347438e+00 
10 1 2 1.0280000000001814e+00 -1.8349397844435458e+02 1.0000000000000000e+00 1.1847056151073083e+01 1.5330665514370953e+01 9.4744753343118226e+00 
106 1 2 1.0280000000000000e+00 -1.9884298506997081e+02 1.0000000000000000e+00 1.1794606898080069e+01 1.3853611231714712e+01 9.9119156653023257e+00 
137 1 2 1.0279999999999878e+00 -1.9502852491101729e+02 1.0000000000000000e+00 1.1794606898083799e+01 1.3853611231741482e+01 9.9119156652754867e+00 
136 1 2 1.0279999999999987e+00 -1.6419839154465529e+02 1.0000000000000000e+00 1.1794606898083945e+01 1.3853611231695417e+01 9.9119156653215974e+00 
107 1 2 1.0280000000000005e+00 -2.0391716831396525e+02 1.0000000000000000e+00 1.1794606898084076e+01 1.3853611231708303e+01 9.9119156653087170e+00 
143 1 2 1.0280000000000020e+00 -2.0081240976935732e+02 1.0000000000000000e+00 1.1794606898084080e+01 1.3853611231736338e+01 9.9119156652806861e+00 
46 1 2 1.0279999999999920e+00 -1.7880870775054882e+02 1.0000000000000000e+00 1.1059547375442371e+01 1.7887302987319707e+01 7.9128970510598231e+00 
52 1 2 1.0280000000000431e+00 -1.6485491604432133e+02 1.0000000000000000e+00 1.1341720663803113e+01 1.8047226301006400e+01 8.1338219718330667e+00 
53 1 2 1.0280000000001093e+00 -1.4550347664359970e+02 1.0000000000000000e+00 1.2035340227436524e+01 1.6994317425230104e+01 8.1935872936996272e+00 
47 1 2 1.0280000000000491e+00 -2.3273744722430629e+02 1.0000000000000000e+00 1.1044900942198922e+01 1.7869009555600474e+01 7.8957933269461362e+00 
16 1 2 1.0280000000003426e+00 -1.9845418603309480e+02 1.0000000000000000e+00 1.1559375673276957e+01 1.7927029939562551e+01 9.8844421380658645e+00 
22 1 2 1.0280000000003460e+00 -1.7833237146345508e+02 1.0000000000000000e+00 1.1559053369928140e+01 1.7926766379458357e+01 9.8852124125783831e+00 
104 1 2 1.0279999999998695e+00 -2.0501090565188809e+02 1.0000000000000000e+00 1.1024902869095293e+01 1.6076863947845133e+01 1.0875894176112114e+01 
105 1 2 1.0279999999983245e+00 -1.9972161341762302e+02 1.0000000000000000e+00 1.1212633675564415e+01 1.6551408656044487e+01 1.0870370946668032e+01 
140 1 2 1.0279999999984102e+00 -2.2067552741935677e+02 1.0000000000000000e+00 1.1314220141227423e+01 1.6295713847574959e+01 1.1186725345205705e+01 
135 1 2 1.0280000000004594e+00 -1.8163386606536039e+02 1.0000000000000000e+00 1.2108540135796755e+01 1.4304966815123922e+01 1.1691551405128036e+01 
54 1 2 1.0280000000009606e+00 -1.9078241073895413e+02 1.0000000000000000e+00 1.1974653286108612e+01 1.4463563861285229e+01 1.1840065564029553e+01 
141 1 2 1.0279999999983886e+00 -2.4405635460138026e+02 1.0000000000000000e+00 1.1515843383311367e+01 1.5803643982916450e+01 1.1807488566831557e+01 
92 1 2 1.0280000000014742e+00 -1.2533852918000433e+02 1.0000000000000000e+00 1.1983613194386560e+01 1.4557272362401923e+01 1.1886351805559277e+01 
128 1 2 1.0280000000016103e+00 -2.1406457394514891e+02 1.0000000000000000e+00 1.1979989373717618e+01 1.4576958354382878e+01 1.1897111348557134e+01 
11 1 2 1.0280000000006502e+00 -2.2854601142123011e+02 1.0000000000000000e+00 1.1258603061085843e+01 1.7801961134847275e+01 1.0076935800499058e+01 
17 1 2 1.0280000000004754e+00 -2.0838723395321827e+02 1.0000000000000000e+00 1.1365949641266738e+01 1.7869041199560449e+01 1.0018250079666812e+01 
175 1 2 1.0280000000000722e+00 -2.0987363689465204e+02 1.0000000000000000e+00 1.2973733273954540e+01 1.8497741574998777e+01 1.2312929490043050e+01 
169 1 2 1.0280000000000760e+00 -1.9298408853475425e+02 1.0000000000000000e+00 1.2973733273949893e+01 1.8497741574986946e+01 1.2312929490051175e+01 
180 1 2 1.0280000000000737e+00 -1.6790585661259888e+02 1.0000000000000000e+00 1.2973733273943715e+01 1.8497741575010849e+01 1.2312929490043558e+01 
5 1 2 1.0279999999994986e+00 -1.3466217049660779e+02 1.0000000000000000e+00 1.2814761690626952e+01 1.9089837828535615e+01 1.2437272663036385e+01 
6 1 2 1.0279999999994980e+00 -1.2303900740780381e+02 1.0000000000000000e+00 1.2814761690612894e+01 1.9089837828526434e+01 1.2437272663090003e+01 
161 1 2 1.0279999999984601e+00 -1.7777546848267596e+02 1.0000000000000000e+00 1.2707856192981229e+01 1.5811812711349667e+01 1.4549812567362466e+01 
120 1 2 1.0280000000006662e+00 -2.6616776782736366e+02 1.0000000000000000e+00 1.1989203994187093e+01 1.6456798329577467e+01 1.4273398470397177e+01 
162 1 2 1.0280000000001674e+00 -2.4450142008073982e+02 1.0000000000000000e+00 1.1990410862363632e+01 1.6587389358028009e+01 1.4227090249941643e+01 
160 1 2 1.0279999999984293e+00 -1.9934992664322900e+02 1.0000000000000000e+00 1.2707856192986881e+01 1.5811812711306741e+01 1.4549812567288143e+01 
154 1 2 1.0279999999984641e+00 -1.6042809795297967e+02 1.0000000000000000e+00 1.2707856192990487e+01 1.5811812711331825e+01 1.4549812567333792e+01 
126 1 2 1.0280000000004943e+00 -2.1482896767108753e+02 1.0000000000000000e+00 1.1993561913928929e+01 1.6503119603971950e+01 1.4274021964161671e+01 
156 1 2 1.0280000000001126e+00 -2.2967878193734370e+02 1.0000000000000000e+00 1.1986290904168484e+01 1.6589589661535360e+01 1.4212501526024063e+01 
146 1 2 1.0279999999997436e+00 -1.5690788256298569e+02 1.0000000000000000e+00 1.3083110693253371e+01 1.1351246177945157e+01 1.9241258242683028e+01 
110 1 2 1.0279999999997480e+00 -1.5476711626384818e+02 1.0000000000000000e+00 1.3082498750750254e+01 1.1351159733901357e+01 1.9241780851199429e+01 
15 1 2 1.0280000000002518e+00 -1.9810628305826253e+02 1.0000000000000000e+00 1.4157276437683169e+01 9.7450686845614278e+00 7.7075460306347710e-02 
20 1 2 1.0280000000002139e+00 -1.8369626092782465e+02 1.0000000000000000e+00 1.4157276437680711e+01 9.7450686845356138e+00 7.7075460205034751e-02 
21 1 2 1.0280000000002163e+00 -1.7797169224167510e+02 1.0000000000000000e+00 1.4157276437681592e+01 9.7450686845527201e+00 7.7075460272102103e-02 
14 1 2 1.0280000000002523e+00 -1.8319104488643964e+02 1.0000000000000000e+00 1.4157276437685358e+01 9.7450686845343313e+00 7.7075460201337875e-02 
89 1 2 1.0279999999999629e+00 -1.2077642900792179e+02 1.0000000000000000e+00 1.4953611813068310e+01 2.0853621261964466e+00 4.3195830972962188e+00 
88 1 2 1.0279999999999632e+00 -1.5426386715169528e+02 1.0000000000000000e+00 1.4953611813068456e+01 2.0853621261813884e+00 4.3195830973232772e+00 
124 1 2 1.0279999999999636e+00 -1.3467185963947307e+02 1.0000000000000000e+00 1.4953611813068662e+01 2.0853621262062965e+00 4.3195830972788594e+00 
125 1 2 1.0279999999999632e+00 -1.3729544517868615e+02 1.0000000000000000e+00 1.4953611813068701e+01 2.0853621261757516e+00 4.3195830973335507e+00 
166 1 2 1.0279999999999245e+00 -2.0975941332123841e+02 1.0000000000000000e+00 1.4976126941922917e+01 4.1801043217992540e+00 4.6941012511742635e+00 
123 1 2 1.0279999999999225e+00 -1.7457853363926549e+02 1.0000000000000000e+00 1.4976126941899505e+01 4.1801043218380265e+00 4.6941012509502880e+00 
165 1 2 1.0279999999999248e+00 -1.8038218819911700e+02 1.0000000000000000e+00 1.4976126941910398e+01 4.1801043218178489e+00 4.6941012510724232e+00 
130 1 2 1.0279999999999232e+00 -2.2922904202914316e+02 1.0000000000000000e+00 1.4976126941914874e+01 4.1801043218069500e+00 4.6941012511445681e+00 
129 1 2 1.0279999999999250e+00 -2.3361180348118432e+02 1.0000000000000000e+00 1.4976126941907843e+01 4.1801043218139489e+00 4.6941012511162645e+00 
95 1 2 1.0280000000000482e+00 -1.9067142515800526e+02 1.0000000000000000e+00 1.5071376489007264e+01 2.0764015219560035e+00 6.7277316874413824e+00 
96 1 2 1.0280000000000458e+00 -1.5632361197095830e+02 1.0000000000000000e+00 1.5071376489003370e+01 2.0764015219482421e+00 6.7277316874404507e+00 
132 1 2 1.0280000000000464e+00 -1.3083827877558781e+02 1.0000000000000000e+00 1.5071376489002809e+01 2.0764015219455887e+00 6.7277316874398085e+00 
101 1 2 1.0280000000000462e+00 -1.9142923270322632e+02 1.0000000000000000e+00 1.5071376489009534e+01 2.0764015219219263e+00 6.7277316874293094e+00 
102 1 2 1.0280000000000475e+00 -1.2136010137630521e+02 1.0000000000000000e+00 1.5071376489004003e+01 2.0764015219464329e+00 6.7277316874395892e+00 
108 1 2 1.0280000000000502e+00 -1.1757311620398748e+02 1.0000000000000000e+00 1.5071376489006195e+01 2.0764015219553889e+00 6.7277316874416098e+00 
164 1 2 1.0279999999999638e+00 -1.5980397835784046e+02 1.0000000000000000e+00 1.3584668551120537e+01 5.5089654630315694e+00 7.2687745029659130e+00 
7 1 2 1.0279999999999347e+00 -7.0128680407508796e+01 1.0000000000000000e+00 1.3625537072607244e+01 6.4099428133221403e+00 8.3635514774273911e+00 
1 1 2 1.0279999999999345e+00 -6.5948366449956197e+01 1.0000000000000000e+00 1.3625537072604448e+01 6.4099428133313729e+00 8.3635514774255615e+00 
158 1 2 1.0279999999999998e+00 -1.5698980656072567e+02 1.0000000000000000e+00 1.3584668551120060e+01 5.5089654630423848e+00 7.2687745028862718e+00 
163 1 2 1.0279999999999947e+00 -1.6756642767537599e+02 1.0000000000000000e+00 1.3584668551123343e+01 5.5089654630379457e+00 7.2687745029238702e+00 
26 1 2 1.0280000000002951e+00 -1.6161721981770719e+02 1.0000000000000000e+00 1.4905955453657239e+01 5.4887918144283965e-01 1.2028598312998708e+01 
31 1 2 1.0280000000002949e+00 -1.5985258457685654e+02 1.0000000000000000e+00 1.4905955453661445e+01 5.4887918145490133e-01 1.2028598313019822e+01 
32 1 2 1.0280000000002922e+00 -1.3318032303577445e+02 1.0000000000000000e+00 1.4905955453656460e+01 5.4887918142281911e-01 1.2028598312969942e+01 
67 1 2 1.0280000000008576e+00 -1.7237949085016274e+02 1.0000000000000000e+00 1.3752083479693841e+01 7.4831748231430928e-01 1.2715267608073825e+01 
61 1 2 1.0280000000006995e+00 -1.7098476860742014e+02 1.0000000000000000e+00 1.3770612585248131e+01 8.1851499191123467e-01 1.2653593190463036e+01 
97 1 2 1.0280000000007354e+00 -1.7389003995609050e+02 1.0000000000000000e+00 1.3764865028883449e+01 8.0245069799614721e-01 1.2667975278646159e+01 
152 1 2 1.0280000000001077e+00 -2.6638596618698915e+02 1.0000000000000000e+00 1.4071467313044508e+01 1.2584940494298397e+01 1.1779450626748089e+00 
100 1 2 1.0279999999995397e+00 -1.5105994786901198e+02 1.0000000000000000e+00 1.5979846162413537e+01 1.1347296870928886e+01 1.2568464149074359e+00 
99 1 2 1.0279999999994929e+00 -1.9452118236965768e+02 1.0000000000000000e+00 1.5997812308921166e+01 1.1365329169395093e+01 1.2400600490178242e+00 
94 1 2 1.0279999999995566e+00 -1.7711332304065135e+02 1.0000000000000000e+00 1.5973692142207479e+01 1.1347999793054939e+01 1.2640074028649486e+00 
159 1 2 1.0280000000002734e+00 -2.1390137623005955e+02 1.0000000000000000e+00 1.4545170134431761e+01 1.2246003936526781e+01 1.7766833995812092e+00 
153 1 2 1.0280000000003613e+00 -2.3854789618746264e+02 1.0000000000000000e+00 1.4590303872679208e+01 1.2192501686233845e+01 1.8016789835681104e+00 
111 1 2 1.0280000000004086e+00 -1.7465093182066619e+02 1.0000000000000000e+00 1.4626233480608285e+01 1.2164366519434807e+01 1.8089065997890712e+00 
117 1 2 1.0280000000004148e+00 -2.0376323697770880e+02 1.0000000000000000e+00 1.4617875047953444e+01 1.2153601019338360e+01 1.8175878656601467e+00 
58 1 2 1.0279999999994784e+00 -2.1820382687400786e+02 1.0000000000000000e+00 1.5815956649362533e+01 1.0201551364014598e+01 3.0144254376455348e-02 
174 1 2 1.0279999999998877e+00 -1.6658451591761423e+02 1.0000000000000000e+00 1.6549427348303826e+01 1.9353559089725291e+01 1.2355643847435987e+01 
138 1 2 1.0279999999998941e+00 -1.2870879836962251e+02 1.0000000000000000e+00 1.6549523730771909e+01 1.9353399782446576e+01 1.2355714446615247e+01 
168 1 2 1.0279999999998990e+00 -1.2431192137902138e+02 1.0000000000000000e+00 1.6549274638929351e+01 1.9353810083615389e+01 1.2355531556618477e+01 
144 1 2 1.0279999999998566e+00 -5.7113710521429397e+01 1.0000000000000000e+00 1.6573721893744434e+01 1.9313174797666843e+01 1.2375120798113079e+01 
114 1 2 1.0279999999998553e+00 -7.7451897071660653e+01 1.0000000000000000e+00 1.6573721893749472e+01 1.9313174797648532e+01 1.2375120798114240e+01 
84 1 2 1.0280000000001805e+00 -2.0400539559939762e+02 1.0000000000000000e+00 1.6032340140149596e+01 1.3325546491300402e+01 1.5869920465624560e+01 
85 1 2 1.0280000000001901e+00 -1.4180780002345332e+02 1.0000000000000000e+00 1.7732884590546490e+01 1.3288468735433595e+01 1.6109166809364595e+01 
121 1 2 1.0280000000002094e+00 -1.1103315002206654e+02 1.0000000000000000e+00 1.7732827448776668e+01 1.3288387924910360e+01 1.6109393347336194e+01 
115 1 2 1.0280000000002587e+00 -1.3144556251024872e+02 1.0000000000000000e+00 1.7732723432079911e+01 1.3288222867019920e+01 1.6109789671377634e+01 
127 1 2 1.0280000000003495e+00 -2.4231719459830509e+02 1.0000000000000000e+00 1.7727691845873839e+01 1.3283577398904248e+01 1.6130023964925623e+01 
91 1 2 1.0280000000004588e+00 -2.4922788161526586e+02 1.0000000000000000e+00 1.7724899673463643e+01 1.3280068163631364e+01 1.6139447685416378e+01 
90 1 2 1.0280000000003739e+00 -2.2176317389432234e+02 1.0000000000000000e+00 1.6022310078359080e+01 1.3344241873824785e+01 1.5885697920462393e+01 
60 1 2 1.0280000000005554e+00 -1.9395086158678384e+02 1.0000000000000000e+00 1.6011870443684664e+01 1.3365889089261032e+01 1.5898020944142576e+01 
55 1 2 1.0280000000005598e+00 -1.8317792669387859e+02 1.0000000000000000e+00 1.6011728318226346e+01 1.3366198720859458e+01 1.5898145201444034e+01 
69 1 2 1.0279999999992924e+00 -1.8413305299235708e+02 1.0000000000000000e+00 1.5148431492264486e+01 1.6061449099224859e+01 1.4744657557979039e+01 
63 1 2 1.0279999999994998e+00 -1.8360241166411032e+02 1.0000000000000000e+00 1.5145527072202448e+01 1.6070978292238113e+01 1.4754453214728228e+01 
27 1 2 1.0279999999998071e+00 -1.8330297169858898e+02 1.0000000000000000e+00 1.5149065551020811e+01 1.6080668007767738e+01 1.4770310322295778e+01 
33 1 2 1.0279999999994840e+00 -2.0565461454091209e+02 1.0000000000000000e+00 1.5191373187930832e+01 1.6055399594210623e+01 1.4786936638955638e+01 
13 1 2 1.0280000000009832e+00 4.3098159689085114e-01 1.0000000000000000e+00 1.6254735982505618e+01 1.4369581591351743e+01 1.5038003458368484e+01 
41 1 2 1.0280000000006815e+00 -1.5814310154130379e+02 1.0000000000000000e+00 1.7381463234759309e+01 1.6456387222543157e+01 1.4457299249148882e+01 
40 1 2 1.0280000000006810e+00 -1.5764931004916281e+02 1.0000000000000000e+00 1.7381430563421073e+01 1.6456211024081025e+01 1.4457383663230841e+01 
4 1 2 1.0280000000004972e+00 -1.8060638260814949e+02 1.0000000000000000e+00 1.7377088004010261e+01 1.6433691270895999e+01 1.4467490621541796e+01 
34 1 2 1.0280000000002332e+00 -1.8530513823627854e+02 1.0000000000000000e+00 1.7354601167710978e+01 1.6339797064221067e+01 1.4510634550318006e+01 
70 1 2 1.0279999999973244e+00 -2.1877523444316233e+02 1.0000000000000000e+00 1.7071994940264627e+01 1.5926268649024397e+01 1.4995747790165295e+01 
122 1 2 1.0280000000000433e+00 -1.9971161706906508e+02 1.0000000000000000e+00 1.4181347289334923e+01 1.8290408620825108e+01 1.3753997020093150e+01 
79 1 2 1.0280000000008762e+00 -1.1277076490592773e+02 1.0000000000000000e+00 1.4158249425917212e+01 1.7913410492057828e+01 1.4033255983137757e+01 
73 1 2 1.0280000000009031e+00 -1.4724056972291515e+02 1.0000000000000000e+00 1.4158249425918822e+01 1.7913410492062205e+01 1.4033255983132104e+01 
109 1 2 1.0280000000008822e+00 -1.5112720164738653e+02 1.0000000000000000e+00 1.4158249425918829e+01 1.7913410492055714e+01 1.4033255983138826e+01 
155 1 2 1.0279999999997427e+00 -1.8296684852132250e+02 1.0000000000000000e+00 1.6917743260119025e+01 1.7943106631183134e+01 1.3592891898710283e+01 
149 1 2 1.0279999999997242e+00 -1.9633023939717577e+02 1.0000000000000000e+00 1.6917743260116175e+01 1.7943106631195278e+01 1.3592891897986339e+01 
148 1 2 1.0279999999997524e+00 -2.1122789114687001e+02 1.0000000000000000e+00 1.6917743260116744e+01 1.7943106631197512e+01 1.3592891897546378e+01 
25 1 2 1.0279999999998746e+00 -8.8611450099143099e+01 1.0000000000000000e+00 1.3766353875824315e+01 1.0573040929268631e+01 1.8800054557246199e+01 
19 1 2 1.0279999999998559e+00 -1.0019537897325347e+02 1.0000000000000000e+00 1.3766353875823402e+01 1.0573040929269812e+01 1.8800054557246106e+01 
116 1 2 1.0279999999999174e+00 -2.2757783532211153e+02 1.0000000000000000e+00 1.3819975964836857e+01 1.1539738496293259e+01 1.8986517238296596e+01 
93 1 2 1.0279999999999518e+00 -1.7538926179590374e+02 1.0000000000000000e+00 1.5562896344031572e+01 1.1269473140426969e+01 1.8989559187023769e+01 
173 1 2 1.0280000000000546e+00 -1.6245172588239035e+02 1.0000000000000000e+00 1.7891556974826667e+01 1.0547851452428766e+01 1.8228615248588451e+01 
131 1 2 1.0280000000000553e+00 -1.4535112881469431e+02 1.0000000000000000e+00 1.7891557002979543e+01 1.0547851629954316e+01 1.8228615158152174e+01 
179 1 2 1.0280000000001459e+00 -1.5008267556451347e+02 1.0000000000000000e+00 1.7891556979573433e+01 1.0547851435171740e+01 1.8228615265900061e+01 
167 1 2 1.0280000000000511e+00 -1.4781137808834461e+02 1.0000000000000000e+00 1.7891557008339479e+01 1.0547851638313290e+01 1.8228615158486868e+01 
170 1 2 1.0280000000003158e+00 -1.3050757787838913e+02 1.0000000000000000e+00 1.7866845420562264e+01 1.0415734832629806e+01 1.8336792522049898e+01 
176 1 2 1.0280000000003275e+00 -1.4054010047961685e+02 1.0000000000000000e+00 1.7866845420558569e+01 1.0415734832627024e+01 1.8336792522048714e+01 
57 1 2 1.0279999999998262e+00 -2.5489104116278247e+02 1.0000000000000000e+00 1.6723949256734365e+01 1.1644663600284186e+01 1.9389274939828532e+01 
51 1 2 1.0279999999998501e+00 -2.2746168797970694e+02 1.0000000000000000e+00 1.6704301699000986e+01 1.1645961176016083e+01 1.9542094789318060e+01 
87 1 2 1.0279999999998406e+00 -1.5050938439608700e+02 1.0000000000000000e+00 1.6684284166023126e+01 1.1650918781880511e+01 1.9548127768365269e+01 
112 1 2 1.0279999999997398e+00 -1.6736754605605921e+02 1.0000000000000000e+00 1.4300601285450387e+01 1.4149890985876546e+01 1.8258028668802133e+01 
118 1 2 1.0279999999998679e+00 -1.3850975171092131e+02 1.0000000000000000e+00 1.3603240749885703e+01 1.4363531309740630e+01 1.7632362353463218e+01 
82 1 2 1.0280000000000380e+00 -1.3802936455729238e+02 1.0000000000000000e+00 1.3523905412883597e+01 1.4261268512850844e+01 1.7715324095021998e+01 
77 1 2 1.0280000000001226e+00 -1.6172023333253676e+02 1.0000000000000000e+00 1.3848260597942399e+01 1.4543648247176463e+01 1.8610475752651414e+01 
113 1 2 1.0280000000000624e+00 -1.5719323755229561e+02 1.0000000000000000e+00 1.3945104338868319e+01 1.4562347116749901e+01 1.8586999222764472e+01 
83 1 2 1.0280000000001304e+00 -1.8165471067238482e+02 1.0000000000000000e+00 1.3688374373340999e+01 1.4835745585969384e+01 1.8365890900810349e+01 
76 1 2 1.0280000000002050e+00 -1.7697505979120626e+02 1.0000000000000000e+00 1.3731811368641825e+01 1.4022257027810866e+01 1.7702436872647667e+01 
119 1 2 1.0279999999994092e+00 -1.4358366487570797e+02 1.0000000000000000e+00 1.3835027079065036e+01 1.4921348331906430e+01 1.8055467796152076e+01 

Velocities

80 -9.1469702992426016e-02 1.4082092894944268e-01 -3.3934252838948631e-01
49 -9.1469702992425433e-02 1.4082092894944268e-01 -3.3934252838948609e-01
43 -9.1469702992425433e-02 1.4082092894944268e-01 -3.3934252838948609e-01
50 -9.1469702992417967e-02 1.4082092894944229e-01 -3.3934252838948120e-01
86 -9.1469702992426211e-02 1.4082092894944268e-01 -3.3934252838948653e-01
56 -9.1469702992417967e-02 1.4082092894944229e-01 -3.3934252838948120e-01
157 -9.1469702996458818e-02 1.4082092894885112e-01 -3.3934252838768481e-01
151 -9.1469702996417518e-02 1.4082092894884077e-01 -3.3934252838768536e-01
39 -9.1469702996060900e-02 1.4082092895321480e-01 -3.3934252839055434e-01
75 -9.1469702995989069e-02 1.4082092895329476e-01 -3.3934252839065704e-01
42 -9.1469702996627711e-02 1.4082092895328699e-01 -3.3934252839121887e-01
78 -9.1469702996627891e-02 1.4082092895328699e-01 -3.3934252839121876e-01
150 -9.1469702996343813e-02 1.4082092894885651e-01 -3.3934252838775841e-01
145 -9.1469702996326258e-02 1.4082092894885787e-01 -3.3934252838775320e-01
81 -9.1469702997125882e-02 1.4082092895329043e-01 -3.3934252839152257e-01
72 -9.1469703002846223e-02 1.4082092895528520e-01 -3.3934252839064866e-01
66 -9.1469703002846223e-02 1.4082092895528520e-01 -3.3934252839064866e-01
36 -9.1469703002847777e-02 1.4082092895528164e-01 -3.3934252839065288e-01
35 -9.1469703002847499e-02 1.4082092895528209e-01 -3.3934252839065254e-01
30 -9.1469703002847555e-02 1.4082092895528187e-01 -3.3934252839065254e-01
71 -9.1469703002844974e-02 1.4082092895528858e-01 -3.3934252839064533e-01
18 -9.1469702996563942e-02 1.4082092894871492e-01 -3.3934252838721418e-01
48 -9.1469702996552799e-02 1.4082092894869574e-01 -3.3934252838725704e-01
12 -9.1469702996537602e-02 1.4082092894866979e-01 -3.3934252838731582e-01
62 -9.1469703002405395e-02 1.4082092895572962e-01 -3.3934252839206203e-01
98 -9.1469703002136402e-02 1.4082092895549156e-01 -3.3934252839196699e-01
45 -9.1469703002114364e-02 1.4082092895726867e-01 -3.3934252839098267e-01
29 -9.1469703002825031e-02 1.4082092895574369e-01 -3.3934252839474333e-01
23 -9.1469703002872854e-02 1.4082092895585610e-01 -3.3934252839473145e-01
59 -9.1469703002815275e-02 1.4082092895573500e-01 -3.3934252839493018e-01
24 -9.1469703002857825e-02 1.4082092895574572e-01 -3.3934252839500723e-01
68 -9.1469703002964656e-02 1.4082092895695575e-01 -3.3934252839390566e-01
64 -9.1469703002888841e-02 1.4082092895552120e-01 -3.3934252839465184e-01
28 -9.1469703002887523e-02 1.4082092895550646e-01 -3.3934252839465007e-01
65 -9.1469703002899624e-02 1.4082092895550966e-01 -3.3934252839464440e-01
37 -9.1469702993127830e-02 1.4082092895138490e-01 -3.3934252839110152e-01
38 -9.1469702993160248e-02 1.4082092895138285e-01 -3.3934252839112539e-01
74 -9.1469702993159832e-02 1.4082092895138285e-01 -3.3934252839112528e-01
44 -9.1469702998352317e-02 1.4082092895317419e-01 -3.3934252839183660e-01
2 -9.1469702997711275e-02 1.4082092895328199e-01 -3.3934252839043377e-01
3 -9.1469702997702879e-02 1.4082092895327480e-01 -3.3934252839045154e-01
8 -9.1469702997604499e-02 1.4082092895323986e-01 -3.3934252839042633e-01