LAMMPS data file via write_data, version 30 Jul 2016, timestep = 50400000

180 atoms
2 atom types

0.0000000000000000e+00 2.0000000000000000e+01 xlo xhi
0.0000000000000000e+00 2.0000000000000000e+01 ylo yhi
0.0000000000000000e+00 2.0000000000000000e+01 zlo zhi

Masses

1 3.896
2 4.31

Atoms # meso-molecular

156 1 2 1.0280000000005063e+00 -2.2967878193734370e+02 1.0000000000000000e+00 8.3275027844033023e+00 2.2224268196578887e+00 6.3880039052826421e-01 
162 1 2 1.0280000000004479e+00 -2.4450142008073982e+02 1.0000000000000000e+00 8.3316227425985012e+00 2.2202265161510599e+00 6.5338911444602010e-01 
126 1 2 1.0280000000005827e+00 -2.1482896767108753e+02 1.0000000000000000e+00 8.3347737941636062e+00 2.1359567621125524e+00 7.0032082866993939e-01 
120 1 2 1.0280000000008123e+00 -2.6616776782736366e+02 1.0000000000000000e+00 8.3304158744207140e+00 2.0896354876617629e+00 6.9969733492081820e-01 
161 1 2 1.0279999999998162e+00 -1.7777546848267596e+02 1.0000000000000000e+00 9.0490680732165067e+00 1.4446498694400736e+00 9.7611143185717952e-01 
160 1 2 1.0279999999998171e+00 -1.9934992664322900e+02 1.0000000000000000e+00 9.0490680732221591e+00 1.4446498693972643e+00 9.7611143178285742e-01 
154 1 2 1.0279999999998168e+00 -1.6042809795297967e+02 1.0000000000000000e+00 9.0490680732257651e+00 1.4446498694222172e+00 9.7611143182850757e-01 
69 1 2 1.0280000000002885e+00 -1.8413305299235708e+02 1.0000000000000000e+00 1.1489643372499764e+01 1.6942862573155031e+00 1.1709564224784996e+00 
63 1 2 1.0280000000002765e+00 -1.8360241166411032e+02 1.0000000000000000e+00 1.1486738952437726e+01 1.7038154503259659e+00 1.1807520792258615e+00 
27 1 2 1.0280000000002867e+00 -1.8330297169858898e+02 1.0000000000000000e+00 1.1490277431256089e+01 1.7135051658516083e+00 1.1966091867914272e+00 
33 1 2 1.0280000000002587e+00 -2.0565461454091209e+02 1.0000000000000000e+00 1.1532585068166110e+01 1.6882367522968640e+00 1.2132355034515037e+00 
13 1 2 1.0280000000006748e+00 4.3098159689085114e-01 1.0000000000000000e+00 1.2595947862740896e+01 2.4187494745575816e-03 1.4643023228561010e+00 
73 1 2 1.0279999999993350e+00 -1.4724056972291515e+02 1.0000000000000000e+00 1.0499461306154100e+01 3.5462476501424445e+00 4.5955484759896548e-01 
79 1 2 1.0279999999993354e+00 -1.1277076490592773e+02 1.0000000000000000e+00 1.0499461306152490e+01 3.5462476501379494e+00 4.5955484760457543e-01 
109 1 2 1.0279999999993352e+00 -1.5112720164738653e+02 1.0000000000000000e+00 1.0499461306154107e+01 3.5462476501358160e+00 4.5955484760569765e-01 
122 1 2 1.0279999999999840e+00 -1.9971161706906508e+02 1.0000000000000000e+00 1.0522559169570201e+01 3.9232457788800845e+00 1.8029588456186368e-01 
155 1 2 1.0279999999998708e+00 -1.8296684852132250e+02 1.0000000000000000e+00 1.3258955140354303e+01 3.5759437892648647e+00 1.9190763183084991e-02 
148 1 2 1.0279999999998708e+00 -2.1122789114687001e+02 1.0000000000000000e+00 1.3258955140352022e+01 3.5759437892793642e+00 1.9190762019180296e-02 
149 1 2 1.0279999999998708e+00 -1.9633023939717577e+02 1.0000000000000000e+00 1.3258955140351453e+01 3.5759437892767867e+00 1.9190762459141253e-02 
83 1 2 1.0280000000010123e+00 -1.8165471067238482e+02 1.0000000000000000e+00 1.0029586253576277e+01 4.6858274422456414e-01 4.7921897652657623e+00 
119 1 2 1.0280000000014928e+00 -1.4358366487570797e+02 1.0000000000000000e+00 1.0176238959300314e+01 5.5418549018200702e-01 4.4817666605795523e+00 
113 1 2 1.0279999999999163e+00 -1.5719323755229561e+02 1.0000000000000000e+00 1.0286316219103597e+01 1.9518427502106059e-01 5.0132980871806936e+00 
77 1 2 1.0279999999998779e+00 -1.6172023333253676e+02 1.0000000000000000e+00 1.0189472478177677e+01 1.7648540544622932e-01 5.0367746170664569e+00 
80 1 2 1.0280000000000560e+00 -2.1826151192563799e+02 1.0000000000000000e+00 9.3525696703314338e+00 8.9345667320817608e+00 9.6766526058924889e+00 
49 1 2 1.0279999999999765e+00 -2.4838741001678983e+02 1.0000000000000000e+00 9.3525696703350043e+00 8.9345667321192881e+00 9.6766526058896432e+00 
43 1 2 1.0279999999999765e+00 -2.3401889620353330e+02 1.0000000000000000e+00 9.3525696703350043e+00 8.9345667321192881e+00 9.6766526058896432e+00 
50 1 2 1.0280000000000782e+00 -2.8220902537343107e+02 1.0000000000000000e+00 9.3525696703319383e+00 8.9345667320670863e+00 9.6766526058906202e+00 
86 1 2 1.0279999999999101e+00 -1.8803065568406817e+02 1.0000000000000000e+00 9.3525696703315049e+00 8.9345667320381157e+00 9.6766526058878810e+00 
56 1 2 1.0280000000000782e+00 -1.5692159542144481e+02 1.0000000000000000e+00 9.3525696703319383e+00 8.9345667320670863e+00 9.6766526058906202e+00 
89 1 2 1.0280000000002412e+00 -1.2077642900792179e+02 1.0000000000000000e+00 1.1294823693303588e+01 7.7181992842996241e+00 1.0745881961761940e+01 
88 1 2 1.0280000000002338e+00 -1.5426386715169528e+02 1.0000000000000000e+00 1.1294823693303734e+01 7.7181992842846388e+00 1.0745881961788834e+01 
124 1 2 1.0280000000002425e+00 -1.3467185963947307e+02 1.0000000000000000e+00 1.1294823693303940e+01 7.7181992843095255e+00 1.0745881961744493e+01 
125 1 2 1.0280000000002358e+00 -1.3729544517868615e+02 1.0000000000000000e+00 1.1294823693303979e+01 7.7181992842789038e+00 1.0745881961799293e+01 
130 1 2 1.0280000000000025e+00 -2.2922904202914316e+02 1.0000000000000000e+00 1.1317338822150152e+01 9.8129414799171091e+00 1.1120400115602191e+01 
165 1 2 1.0280000000000018e+00 -1.8038218819911700e+02 1.0000000000000000e+00 1.1317338822145675e+01 9.8129414799280159e+00 1.1120400115530035e+01 
129 1 2 1.0280000000000002e+00 -2.3361180348118432e+02 1.0000000000000000e+00 1.1317338822143121e+01 9.8129414799241115e+00 1.1120400115573958e+01 
166 1 2 1.0279999999999989e+00 -2.0975941332123841e+02 1.0000000000000000e+00 1.1317338822158195e+01 9.8129414799093979e+00 1.1120400115632126e+01 
123 1 2 1.0279999999999927e+00 -1.7457853363926549e+02 1.0000000000000000e+00 1.1317338822134783e+01 9.8129414799482433e+00 1.1120400115407641e+01 
95 1 2 1.0279999999998337e+00 -1.9067142515800526e+02 1.0000000000000000e+00 1.1412588369242542e+01 7.7092386800875685e+00 1.3154030551901133e+01 
96 1 2 1.0279999999998022e+00 -1.5632361197095830e+02 1.0000000000000000e+00 1.1412588369238648e+01 7.7092386800798067e+00 1.3154030551900370e+01 
132 1 2 1.0279999999997997e+00 -1.3083827877558781e+02 1.0000000000000000e+00 1.1412588369238087e+01 7.7092386800771537e+00 1.3154030551899744e+01 
101 1 2 1.0279999999998684e+00 -1.9142923270322632e+02 1.0000000000000000e+00 1.1412588369244812e+01 7.7092386800534909e+00 1.3154030551888852e+01 
102 1 2 1.0279999999998335e+00 -1.2136010137630521e+02 1.0000000000000000e+00 1.1412588369239280e+01 7.7092386800779975e+00 1.3154030551899339e+01 
108 1 2 1.0279999999998697e+00 -1.1757311620398748e+02 1.0000000000000000e+00 1.1412588369241472e+01 7.7092386800869539e+00 1.3154030551901165e+01 
139 1 2 1.0280000000001250e+00 -2.1649441088734778e+02 1.0000000000000000e+00 7.3016987850903625e+00 2.1155734175564009e+00 1.4249359188497596e+01 
103 1 2 1.0280000000001217e+00 -2.2570216790817256e+02 1.0000000000000000e+00 7.3015981627826925e+00 2.1155392959658381e+00 1.4249451014888065e+01 
134 1 2 1.0280000000001221e+00 -1.5865621808850156e+02 1.0000000000000000e+00 7.3016894739360616e+00 2.1155134603452277e+00 1.4249427524484922e+01 
133 1 2 1.0280000000001244e+00 -1.9435603029113150e+02 1.0000000000000000e+00 7.3016731414389575e+00 2.1155242628912787e+00 1.4249425211851442e+01 
53 1 2 1.0280000000008929e+00 -1.4550347664359970e+02 1.0000000000000000e+00 8.3765521076661322e+00 2.6271545832500638e+00 1.4619886158091445e+01 
10 1 2 1.0280000000006411e+00 -1.8349397844435458e+02 1.0000000000000000e+00 8.1882680313083611e+00 9.6350267241743981e-01 1.5900774198686074e+01 
47 1 2 1.0279999999994944e+00 -2.3273744722430629e+02 1.0000000000000000e+00 7.3861128224341996e+00 3.5018467136017524e+00 1.4322092191282938e+01 
46 1 2 1.0279999999994927e+00 -1.7880870775054882e+02 1.0000000000000000e+00 7.4007592556776487e+00 3.5201401453248051e+00 1.4339195915401113e+01 
52 1 2 1.0279999999996066e+00 -1.6485491604432133e+02 1.0000000000000000e+00 7.6829325440383904e+00 3.6800634590463361e+00 1.4560120836238340e+01 
16 1 2 1.0279999999990705e+00 -1.9845418603309480e+02 1.0000000000000000e+00 7.9005875535122350e+00 3.5598670975779330e+00 1.6310741002481155e+01 
22 1 2 1.0279999999991725e+00 -1.7833237146345508e+02 1.0000000000000000e+00 7.9002652501634181e+00 3.5596035374758297e+00 1.6311511276988298e+01 
17 1 2 1.0279999999996594e+00 -2.0838723395321827e+02 1.0000000000000000e+00 7.7071615215020159e+00 3.5018783576074033e+00 1.6444548944037376e+01 
11 1 2 1.0279999999997895e+00 -2.2854601142123011e+02 1.0000000000000000e+00 7.5998149413211209e+00 3.4347982928846621e+00 1.6503234664895174e+01 
71 1 2 1.0280000000000733e+00 -2.3222766651432670e+02 1.0000000000000000e+00 9.6609257223587246e+00 7.0799769580567187e+00 1.5548436926532363e+01 
30 1 2 1.0280000000000944e+00 -2.0787022147632598e+02 1.0000000000000000e+00 9.6609257223622844e+00 7.0799769580759522e+00 1.5548436926515814e+01 
72 1 2 1.0280000000000753e+00 -2.4891922092187497e+02 1.0000000000000000e+00 9.6609257223593055e+00 7.0799769581222449e+00 1.5548436926476933e+01 
66 1 2 1.0280000000000753e+00 -1.8050092741274509e+02 1.0000000000000000e+00 9.6609257223593055e+00 7.0799769581222449e+00 1.5548436926476933e+01 
36 1 2 1.0280000000000653e+00 -2.3730820530783308e+02 1.0000000000000000e+00 9.6609257223652243e+00 7.0799769580496728e+00 1.5548436926537319e+01 
35 1 2 1.0280000000000751e+00 -2.5274645829727012e+02 1.0000000000000000e+00 9.6609257223588294e+00 7.0799769580965872e+00 1.5548436926498676e+01 
105 1 2 1.0279999999998710e+00 -1.9972161341762302e+02 1.0000000000000000e+00 7.5538455557996933e+00 2.1842458142509811e+00 1.7296669811132581e+01 
104 1 2 1.0279999999992808e+00 -2.0501090565188809e+02 1.0000000000000000e+00 7.3661147493110102e+00 1.7097011060606468e+00 1.7302193040573268e+01 
140 1 2 1.0280000000000535e+00 -2.2067552741935677e+02 1.0000000000000000e+00 7.6554320214669982e+00 1.9285510057521806e+00 1.7613024209730540e+01 
141 1 2 1.0280000000002378e+00 -2.4405635460138026e+02 1.0000000000000000e+00 7.8570552635466449e+00 1.4364811410216556e+00 1.8233787431401126e+01 
128 1 2 1.0279999999995757e+00 -2.1406457394514891e+02 1.0000000000000000e+00 8.3212012539528963e+00 2.0979551256780588e-01 1.8323410213043836e+01 
92 1 2 1.0279999999995348e+00 -1.2533852918000433e+02 1.0000000000000000e+00 8.3248250746218382e+00 1.9010952061002157e-01 1.8312650670055707e+01 
54 1 2 1.0279999999994083e+00 -1.9078241073895413e+02 1.0000000000000000e+00 8.3158651663438903e+00 9.6401019513190522e-02 1.8266364428530508e+01 
180 1 2 1.0279999999998786e+00 -1.6790585661259888e+02 1.0000000000000000e+00 9.3149451541789929e+00 4.1305787331522463e+00 1.8739228354510622e+01 
169 1 2 1.0279999999998835e+00 -1.9298408853475425e+02 1.0000000000000000e+00 9.3149451541851711e+00 4.1305787331279111e+00 1.8739228354518456e+01 
175 1 2 1.0279999999998881e+00 -2.0987363689465204e+02 1.0000000000000000e+00 9.3149451541898181e+00 4.1305787331399353e+00 1.8739228354510288e+01 
5 1 2 1.0279999999997809e+00 -1.3466217049660779e+02 1.0000000000000000e+00 9.1559735708622298e+00 4.7226749866371920e+00 1.8863571527490343e+01 
6 1 2 1.0279999999997806e+00 -1.2303900740780381e+02 1.0000000000000000e+00 9.1559735708481718e+00 4.7226749866274353e+00 1.8863571527543776e+01 
32 1 2 1.0279999999999627e+00 -1.3318032303577445e+02 1.0000000000000000e+00 1.1247167333891738e+01 6.1817163394909960e+00 1.8454897177423724e+01 
31 1 2 1.0280000000000227e+00 -1.5985258457685654e+02 1.0000000000000000e+00 1.1247167333896723e+01 6.1817163395234154e+00 1.8454897177474479e+01 
26 1 2 1.0279999999999250e+00 -1.6161721981770719e+02 1.0000000000000000e+00 1.1247167333892516e+01 6.1817163395113610e+00 1.8454897177452686e+01 
168 1 2 1.0280000000001810e+00 -1.2431192137902138e+02 1.0000000000000000e+00 1.2890486519164629e+01 4.9866472416801626e+00 1.8781830421083399e+01 
174 1 2 1.0280000000002070e+00 -1.6658451591761423e+02 1.0000000000000000e+00 1.2890639228539104e+01 4.9863962477895809e+00 1.8781942711901010e+01 
138 1 2 1.0280000000001814e+00 -1.2870879836962251e+02 1.0000000000000000e+00 1.2890735611007187e+01 4.9862369405112625e+00 1.8782013311080174e+01 
144 1 2 1.0280000000001783e+00 -5.7113710521429397e+01 1.0000000000000000e+00 1.2914933773979712e+01 4.9460119557293707e+00 1.8801419662577072e+01 
114 1 2 1.0280000000001894e+00 -7.7451897071660653e+01 1.0000000000000000e+00 1.2914933773984750e+01 4.9460119557119278e+00 1.8801419662578617e+01 
61 1 2 1.0280000000000402e+00 -1.7098476860742014e+02 1.0000000000000000e+00 1.0111824465483409e+01 6.4513521500054596e+00 1.9079892054949276e+01 
97 1 2 1.0280000000000717e+00 -1.7389003995609050e+02 1.0000000000000000e+00 1.0106076909118727e+01 6.4352878560860916e+00 1.9094274143136772e+01 
67 1 2 1.0280000000000211e+00 -1.7237949085016274e+02 1.0000000000000000e+00 1.0093295359929119e+01 6.3811546404014514e+00 1.9141566472568190e+01 
24 1 2 1.0279999999997727e+00 -1.7182362782399372e+02 1.0000000000000000e+00 7.5722593999704895e+00 8.7524904839869588e+00 1.9113847101534137e+01 
59 1 2 1.0279999999997300e+00 -1.9232036537566154e+02 1.0000000000000000e+00 7.5423570756466578e+00 8.7485699792530198e+00 1.9095192861696177e+01 
23 1 2 1.0279999999997613e+00 -1.5288329682047004e+02 1.0000000000000000e+00 7.5175859932362332e+00 8.6691242670258220e+00 1.9066416705890738e+01 
29 1 2 1.0279999999997191e+00 -1.8822673054355459e+02 1.0000000000000000e+00 7.5010810825099288e+00 8.7267343455056210e+00 1.9063252348650490e+01 
68 1 2 1.0279999999995753e+00 -1.8757849933866157e+02 1.0000000000000000e+00 9.5981024934673194e+00 7.6983033967355778e+00 1.7550612529809900e+01 
45 1 2 1.0279999999998426e+00 -1.8758085744701984e+02 1.0000000000000000e+00 9.0757223109019520e+00 7.7686702058931090e+00 1.8460314576171935e+01 
62 1 2 1.0280000000001452e+00 -2.0742826759764523e+02 1.0000000000000000e+00 8.8824294847244367e+00 7.9036756548118996e+00 1.7196313063596264e+01 
98 1 2 1.0280000000001626e+00 -1.6584241356167425e+02 1.0000000000000000e+00 8.7842774058000561e+00 7.9924116743400040e+00 1.7308451912419436e+01 
64 1 2 1.0280000000004061e+00 -1.4707503236155912e+02 1.0000000000000000e+00 7.7669266134518722e+00 9.3270466879694318e+00 1.8299573721970127e+01 
28 1 2 1.0280000000004197e+00 -1.5680526733085910e+02 1.0000000000000000e+00 7.7647524410532487e+00 9.3270287238372269e+00 1.8300852463377694e+01 
65 1 2 1.0280000000004430e+00 -2.0343332240109206e+02 1.0000000000000000e+00 7.7500276691660144e+00 9.3279144067259168e+00 1.8312674377526655e+01 
90 1 2 1.0279999999997844e+00 -2.2176317389432234e+02 1.0000000000000000e+00 1.2363521958594358e+01 1.8977079031909749e+01 2.3119967849598009e+00 
84 1 2 1.0279999999998306e+00 -2.0400539559939762e+02 1.0000000000000000e+00 1.2373552020384874e+01 1.8958383649386874e+01 2.2962193301227942e+00 
55 1 2 1.0279999999997913e+00 -1.8317792669387859e+02 1.0000000000000000e+00 1.2352940198460713e+01 1.8999035878945101e+01 2.3244440659384904e+00 
60 1 2 1.0279999999997944e+00 -1.9395086158678384e+02 1.0000000000000000e+00 1.2353082323919077e+01 1.8998726247346639e+01 2.3243198086370342e+00 
25 1 2 1.0279999999997411e+00 -8.8611450099143099e+01 1.0000000000000000e+00 1.0107565756059593e+01 1.6205878087370017e+01 5.2263534216856478e+00 
19 1 2 1.0279999999997540e+00 -1.0019537897325347e+02 1.0000000000000000e+00 1.0107565756058680e+01 1.6205878087374966e+01 5.2263534216848804e+00 
58 1 2 1.0279999999996325e+00 -2.1820382687400786e+02 1.0000000000000000e+00 1.2157168529597811e+01 1.5834388522086275e+01 6.4564431188035609e+00 
15 1 2 1.0279999999997227e+00 -1.9810628305826253e+02 1.0000000000000000e+00 1.0498488317918447e+01 1.5377905842673878e+01 6.5033743247500801e+00 
14 1 2 1.0279999999997218e+00 -1.8319104488643964e+02 1.0000000000000000e+00 1.0498488317920636e+01 1.5377905842646374e+01 6.5033743246435058e+00 
21 1 2 1.0279999999997123e+00 -1.7797169224167510e+02 1.0000000000000000e+00 1.0498488317916870e+01 1.5377905842664966e+01 6.5033743247148301e+00 
20 1 2 1.0279999999997180e+00 -1.8369626092782465e+02 1.0000000000000000e+00 1.0498488317915989e+01 1.5377905842648968e+01 6.5033743246520181e+00 
110 1 2 1.0279999999997391e+00 -1.5476711626384818e+02 1.0000000000000000e+00 9.4237106309855321e+00 1.6983996892092662e+01 5.6680797156269396e+00 
146 1 2 1.0279999999997365e+00 -1.5690788256298569e+02 1.0000000000000000e+00 9.4243225734886487e+00 1.6984083336135754e+01 5.6675571071102748e+00 
82 1 2 1.0279999999999532e+00 -1.3802936455729238e+02 1.0000000000000000e+00 9.8651172931247686e+00 1.9894105671155522e+01 4.1416229594405785e+00 
118 1 2 1.0279999999994827e+00 -1.3850975171092131e+02 1.0000000000000000e+00 9.9444526301236440e+00 1.9996368468004924e+01 4.0586612178823422e+00 
93 1 2 1.0280000000010130e+00 -1.7538926179590374e+02 1.0000000000000000e+00 1.1904108224266849e+01 1.6902310298554436e+01 5.4158580514605568e+00 
116 1 2 1.0280000000011138e+00 -2.2757783532211153e+02 1.0000000000000000e+00 1.0161187845072135e+01 1.7172575654388730e+01 5.4128161027377644e+00 
76 1 2 1.0280000000003133e+00 -1.7697505979120626e+02 1.0000000000000000e+00 1.0073023248906598e+01 1.9655094186101319e+01 4.1287357370711462e+00 
112 1 2 1.0280000000009664e+00 -1.6736754605605921e+02 1.0000000000000000e+00 1.0641813165675686e+01 1.9782728144170978e+01 4.6843275331917376e+00 
57 1 2 1.0279999999996952e+00 -2.5489104116278247e+02 1.0000000000000000e+00 1.3065161136944042e+01 1.7277500758400933e+01 5.8155738043090004e+00 
87 1 2 1.0279999999999718e+00 -1.5050938439608700e+02 1.0000000000000000e+00 1.3025496046254030e+01 1.7283755940000088e+01 5.9744266327546462e+00 
51 1 2 1.0280000000000238e+00 -2.2746168797970694e+02 1.0000000000000000e+00 1.3045513579231805e+01 1.7278798334133789e+01 5.9683936537403053e+00 
171 1 2 1.0279999999998646e+00 -2.0435013907412389e+02 1.0000000000000000e+00 8.1914041366842909e+00 1.5686548064624349e+01 9.7016586158197828e+00 
178 1 2 1.0279999999998646e+00 -2.2562783644167988e+02 1.0000000000000000e+00 8.1914041366842909e+00 1.5686548064624349e+01 9.7016586158197828e+00 
147 1 2 1.0279999999998646e+00 -1.5556836890322381e+02 1.0000000000000000e+00 8.1914041366842909e+00 1.5686548064624349e+01 9.7016586158197828e+00 
142 1 2 1.0279999999998646e+00 -2.0585653257315116e+02 1.0000000000000000e+00 8.1914041366842909e+00 1.5686548064624349e+01 9.7016586158197828e+00 
177 1 2 1.0279999999998646e+00 -2.0172165263476239e+02 1.0000000000000000e+00 8.1914041366842909e+00 1.5686548064624349e+01 9.7016586158197828e+00 
172 1 2 1.0279999999998646e+00 -2.0790288656345086e+02 1.0000000000000000e+00 8.1914041366842909e+00 1.5686548064624349e+01 9.7016586158197828e+00 
37 1 2 1.0280000000002700e+00 -1.5924692679778855e+02 1.0000000000000000e+00 8.4556344783410395e+00 1.7325278887352610e+01 7.1583466091605974e+00 
38 1 2 1.0280000000001821e+00 -1.9352597154865776e+02 1.0000000000000000e+00 8.4556344783395687e+00 1.7325278887333990e+01 7.1583466091662853e+00 
74 1 2 1.0280000000001821e+00 -1.5087674346582523e+02 1.0000000000000000e+00 8.4556344783411035e+00 1.7325278887355829e+01 7.1583466091594037e+00 
44 1 2 1.0279999999996052e+00 -2.1555896297679621e+02 1.0000000000000000e+00 8.0945796492339781e+00 1.8240689308041048e+01 8.4842359573528991e+00 
2 1 2 1.0279999999996354e+00 -1.0379874437372165e+02 1.0000000000000000e+00 8.2393667532641182e+00 1.8246208942945657e+01 8.7181643828578927e+00 
3 1 2 1.0279999999997034e+00 -1.1615069125354697e+02 1.0000000000000000e+00 8.2393880383348410e+00 1.8246208714050784e+01 8.7181856313429424e+00 
8 1 2 1.0279999999996809e+00 -2.0654252092319390e+02 1.0000000000000000e+00 8.2524326071722882e+00 1.8248238187957490e+01 8.7271347393534935e+00 
9 1 2 1.0279999999996912e+00 -2.0863222592264194e+02 1.0000000000000000e+00 8.2530216551959690e+00 1.8248197820750811e+01 8.7277452493936423e+00 
153 1 2 1.0279999999997314e+00 -2.3854789618746264e+02 1.0000000000000000e+00 1.0931515752914486e+01 1.7825338844351620e+01 8.2279778479630181e+00 
117 1 2 1.0280000000000484e+00 -2.0376323697770880e+02 1.0000000000000000e+00 1.0959086928188722e+01 1.7786438177452354e+01 8.2438867300574277e+00 
152 1 2 1.0280000000001528e+00 -2.6638596618698915e+02 1.0000000000000000e+00 1.0412679193279786e+01 1.8217777652416988e+01 7.6042439269947639e+00 
100 1 2 1.0279999999996825e+00 -1.5105994786901198e+02 1.0000000000000000e+00 1.2321058042643461e+01 1.6980134029005608e+01 7.6831452793424582e+00 
94 1 2 1.0279999999996732e+00 -1.7711332304065135e+02 1.0000000000000000e+00 1.2314904022437325e+01 1.6980836951130875e+01 7.6903062672996487e+00 
99 1 2 1.0279999999997051e+00 -1.9452118236965768e+02 1.0000000000000000e+00 1.2339024189150594e+01 1.6998166327467359e+01 7.6663589134535819e+00 
159 1 2 1.0279999999991534e+00 -2.1390137623005955e+02 1.0000000000000000e+00 1.0886382014667038e+01 1.7878841094649559e+01 8.2029822639724941e+00 
111 1 2 1.0279999999999099e+00 -1.7465093182066619e+02 1.0000000000000000e+00 1.0967445360843563e+01 1.7797203677550105e+01 8.2352054641860715e+00 
151 1 2 1.0279999999999894e+00 -2.1811873172590037e+02 1.0000000000000000e+00 9.4882775177832634e+00 1.2394876262709493e+01 1.2198354795814655e+01 
157 1 2 1.0279999999998159e+00 -2.2030553305539144e+02 1.0000000000000000e+00 9.5842293449677740e+00 1.2295975148760512e+01 1.2263897033577107e+01 
150 1 2 1.0279999999998770e+00 -2.0502978140370271e+02 1.0000000000000000e+00 9.1605836081115548e+00 1.2627171927055777e+01 1.2314475936387238e+01 
145 1 2 1.0279999999998854e+00 -1.9471039268592773e+02 1.0000000000000000e+00 9.1587283515675466e+00 1.2625004877670809e+01 1.2321111428367349e+01 
75 1 2 1.0280000000000102e+00 -1.5951199489182858e+02 1.0000000000000000e+00 9.4950988014518281e+00 1.4089044288421912e+01 1.1338749825708739e+01 
39 1 2 1.0280000000000187e+00 -1.8853271664963125e+02 1.0000000000000000e+00 9.4965639290578920e+00 1.4080260768848383e+01 1.1357653886962739e+01 
42 1 2 1.0279999999999319e+00 -8.8542095508724429e+01 1.0000000000000000e+00 9.4756397778652932e+00 1.4142114419708580e+01 1.1252791846360301e+01 
78 1 2 1.0279999999999387e+00 -1.0985697199711599e+02 1.0000000000000000e+00 9.4756397778669736e+00 1.4142114419702864e+01 1.1252791846381291e+01 
81 1 2 1.0280000000003431e+00 -1.7399770946579324e+02 1.0000000000000000e+00 9.4574813130228357e+00 1.4166398468666108e+01 1.1136893292676884e+01 
12 1 2 1.0280000000005143e+00 -2.0188820285830832e+02 1.0000000000000000e+00 9.6637209567407041e+00 1.2132331826945155e+01 1.4778277782784551e+01 
48 1 2 1.0280000000005038e+00 -1.5754688476404962e+02 1.0000000000000000e+00 9.6637280837039583e+00 1.2132329166961437e+01 1.4778280387533515e+01 
18 1 2 1.0280000000005034e+00 -1.7940287325530835e+02 1.0000000000000000e+00 9.6637145978108450e+00 1.2132334205391418e+01 1.4778275456427968e+01 
164 1 2 1.0279999999997762e+00 -1.5980397835784046e+02 1.0000000000000000e+00 9.9258804313558144e+00 1.1141802621193486e+01 1.3695073367373119e+01 
158 1 2 1.0279999999997123e+00 -1.5698980656072567e+02 1.0000000000000000e+00 9.9258804313553384e+00 1.1141802621199192e+01 1.3695073367329051e+01 
163 1 2 1.0279999999997769e+00 -1.6756642767537599e+02 1.0000000000000000e+00 9.9258804313586211e+00 1.1141802621202125e+01 1.3695073367313789e+01 
7 1 2 1.0280000000005793e+00 -7.0128680407508796e+01 1.0000000000000000e+00 9.9667489528425222e+00 1.2042779971426722e+01 1.4789850341839418e+01 
1 1 2 1.0280000000005858e+00 -6.5948366449956197e+01 1.0000000000000000e+00 9.9667489528397262e+00 1.2042779971435895e+01 1.4789850341837585e+01 
137 1 2 1.0280000000006713e+00 -1.9502852491101729e+02 1.0000000000000000e+00 8.1358187783190772e+00 1.9486448389961119e+01 1.6338214529722752e+01 
136 1 2 1.0280000000006240e+00 -1.6419839154465529e+02 1.0000000000000000e+00 8.1358187783192228e+00 1.9486448389914830e+01 1.6338214529768855e+01 
143 1 2 1.0280000000006537e+00 -2.0081240976935732e+02 1.0000000000000000e+00 8.1358187783193578e+00 1.9486448389956259e+01 1.6338214529727541e+01 
106 1 2 1.0280000000006237e+00 -1.9884298506997081e+02 1.0000000000000000e+00 8.1358187783153468e+00 1.9486448389934388e+01 1.6338214529749315e+01 
107 1 2 1.0280000000006690e+00 -2.0391716831396525e+02 1.0000000000000000e+00 8.1358187783193543e+00 1.9486448389927997e+01 1.6338214529755867e+01 
135 1 2 1.0279999999991298e+00 -1.8163386606536039e+02 1.0000000000000000e+00 8.4497520160320327e+00 1.9937803973362673e+01 1.8117850269625546e+01 
41 1 2 1.0280000000000520e+00 -1.5814310154130379e+02 1.0000000000000000e+00 1.3722675114999442e+01 2.0892243806416495e+00 8.8359811366176277e-01 
40 1 2 1.0279999999999194e+00 -1.5764931004916281e+02 1.0000000000000000e+00 1.3722642443661275e+01 2.0890481821771538e+00 8.8368252774372724e-01 
4 1 2 1.0280000000000247e+00 -1.8060638260814949e+02 1.0000000000000000e+00 1.3718299884249728e+01 2.0665284289927395e+00 8.9378948605450592e-01 
34 1 2 1.0280000000003449e+00 -1.8530513823627854e+02 1.0000000000000000e+00 1.3695813047949011e+01 1.9726342223186832e+00 9.3693341483192860e-01 
70 1 2 1.0280000000002554e+00 -2.1877523444316233e+02 1.0000000000000000e+00 1.3413206820499905e+01 1.5591058071202097e+00 1.4220466546539301e+00 
85 1 2 1.0279999999999199e+00 -1.4180780002345332e+02 1.0000000000000000e+00 1.4074096470777819e+01 1.8921305893517513e+01 2.5354656738505748e+00 
121 1 2 1.0279999999999301e+00 -1.1103315002206654e+02 1.0000000000000000e+00 1.4074039329007991e+01 1.8921225082994042e+01 2.5356922118221608e+00 
115 1 2 1.0279999999999316e+00 -1.3144556251024872e+02 1.0000000000000000e+00 1.4073935312311226e+01 1.8921060025102577e+01 2.5360885358635734e+00 
127 1 2 1.0279999999999530e+00 -2.4231719459830509e+02 1.0000000000000000e+00 1.4068903726104690e+01 1.8916414556980818e+01 2.5563228294102398e+00 
91 1 2 1.0279999999999687e+00 -2.4922788161526586e+02 1.0000000000000000e+00 1.4066111553694258e+01 1.8912905321703754e+01 2.5657465499003775e+00 
167 1 2 1.0280000000003842e+00 -1.4781137808834461e+02 1.0000000000000000e+00 1.4232768888570330e+01 1.6180688796374447e+01 4.6549140229749169e+00 
173 1 2 1.0280000000003675e+00 -1.6245172588239035e+02 1.0000000000000000e+00 1.4232768855057831e+01 1.6180688610488520e+01 4.6549141130776848e+00 
131 1 2 1.0280000000003782e+00 -1.4535112881469431e+02 1.0000000000000000e+00 1.4232768883210669e+01 1.6180688788014802e+01 4.6549140226409298e+00 
179 1 2 1.0280000000003842e+00 -1.5008267556451347e+02 1.0000000000000000e+00 1.4232768859804054e+01 1.6180688593230908e+01 4.6549141303885690e+00 
170 1 2 1.0279999999996583e+00 -1.3050757787838913e+02 1.0000000000000000e+00 1.4208057300772539e+01 1.6048571990658797e+01 4.7630913865480133e+00 
176 1 2 1.0279999999996572e+00 -1.4054010047961685e+02 1.0000000000000000e+00 1.4208057300769479e+01 1.6048571990656558e+01 4.7630913865468179e+00 

Velocities

156 -9.1469702999044236e-02 1.4082092895222822e-01 -3.3934252838617252e-01
162 -9.1469702998793312e-02 1.4082092895217149e-01 -3.3934252838616719e-01
126 -9.1469702999338875e-02 1.4082092895172457e-01 -3.3934252838568801e-01
120 -9.1469703000303840e-02 1.4082092895143292e-01 -3.3934252838530593e-01
161 -9.1469702995894853e-02 1.4082092895110015e-01 -3.3934252838720141e-01
160 -9.1469702995895005e-02 1.4082092895109904e-01 -3.3934252838720091e-01
154 -9.1469702995894950e-02 1.4082092895109985e-01 -3.3934252838720153e-01
69 -9.1469702998463021e-02 1.4082092895223358e-01 -3.3934252838813417e-01
63 -9.1469702998452890e-02 1.4082092895228410e-01 -3.3934252838810991e-01
27 -9.1469702998461425e-02 1.4082092895230264e-01 -3.3934252838803758e-01
33 -9.1469702998369887e-02 1.4082092895224391e-01 -3.3934252838800166e-01
13 -9.1469702996983829e-02 1.4082092894441250e-01 -3.3934252838780482e-01
73 -9.1469702997240304e-02 1.4082092895106513e-01 -3.3934252839094170e-01
79 -9.1469702997240443e-02 1.4082092895106502e-01 -3.3934252839094181e-01
109 -9.1469702997240554e-02 1.4082092895106502e-01 -3.3934252839094248e-01
122 -9.1469702996813493e-02 1.4082092895087109e-01 -3.3934252838882356e-01
155 -9.1469702997039909e-02 1.4082092895107939e-01 -3.3934252838792245e-01
148 -9.1469702997040020e-02 1.4082092895107942e-01 -3.3934252838792245e-01
149 -9.1469702997040297e-02 1.4082092895107928e-01 -3.3934252838792245e-01
83 -9.1469702997088911e-02 1.4082092895284457e-01 -3.3934252838197299e-01
119 -9.1469702995190000e-02 1.4082092895629472e-01 -3.3934252838601525e-01
113 -9.1469702994787488e-02 1.4082092894812145e-01 -3.3934252838333956e-01
77 -9.1469702995151461e-02 1.4082092894802348e-01 -3.3934252838335965e-01
80 -9.1469702996924654e-02 1.4082092895328899e-01 -3.3934252839312246e-01
49 -9.1469702996784641e-02 1.4082092895328915e-01 -3.3934252839300422e-01
43 -9.1469702996784641e-02 1.4082092895328915e-01 -3.3934252839300422e-01
50 -9.1469702997036523e-02 1.4082092895328915e-01 -3.3934252839320173e-01
86 -9.1469702996570035e-02 1.4082092895328699e-01 -3.3934252839286466e-01
56 -9.1469702997036523e-02 1.4082092895328915e-01 -3.3934252839320173e-01
89 -9.1469702994465232e-02 1.4082092895002069e-01 -3.3934252839177570e-01
88 -9.1469702994480845e-02 1.4082092895005624e-01 -3.3934252839175577e-01
124 -9.1469702994462665e-02 1.4082092895001522e-01 -3.3934252839177886e-01
125 -9.1469702994476515e-02 1.4082092895004647e-01 -3.3934252839176143e-01
130 -9.1469702995427296e-02 1.4082092895328932e-01 -3.3934252839107437e-01
165 -9.1469702995426963e-02 1.4082092895328954e-01 -3.3934252839107415e-01
129 -9.1469702995426644e-02 1.4082092895328971e-01 -3.3934252839107532e-01
166 -9.1469702995426977e-02 1.4082092895328971e-01 -3.3934252839107454e-01
123 -9.1469702995426755e-02 1.4082092895328940e-01 -3.3934252839107443e-01
95 -9.1469702995488511e-02 1.4082092895161616e-01 -3.3934252839058832e-01
96 -9.1469702995520069e-02 1.4082092895164064e-01 -3.3934252839064866e-01
132 -9.1469702995522387e-02 1.4082092895164247e-01 -3.3934252839065293e-01
101 -9.1469702995453747e-02 1.4082092895158915e-01 -3.3934252839052220e-01