LAMMPS data file via write_data, version 30 Jul 2016, timestep = 50000000

384 atoms
2 atom types

0.0000000000000000e+00 2.0000000000000000e+01 xlo xhi
0.0000000000000000e+00 2.0000000000000000e+01 ylo yhi
0.0000000000000000e+00 2.0000000000000000e+01 zlo zhi

Masses

1 3.896
2 4.31

Atoms # meso-molecular

210 1 2 1.1605682584842913e+00 2.8161557309487764e+00 1.0000000000000000e+00 4.9078257993159049e+00 5.4125169502013186e+00 5.8888524337879798e-02 
191 1 2 1.1605682584842913e+00 4.5871662260805168e+00 1.0000000000000000e+00 6.0331979237863260e+00 6.8348359642556140e+00 1.3545199918487674e+00 
205 1 2 1.1605682584842913e+00 -1.4234988050204402e+02 1.0000000000000000e+00 2.6528166994464288e+00 8.2705963220668366e+00 3.1940001486723507e-01 
12 1 2 1.1605683951529189e+00 5.6597278127262838e+00 1.0000000000000000e+00 1.1504494299444201e+00 2.8230716302056660e+00 1.7935959261607921e+00 
60 1 2 1.1605682584842913e+00 3.7915388402969352e+00 1.0000000000000000e+00 5.9715699592624301e+00 2.1241085834182352e+00 2.5577043084500874e+00 
276 1 2 1.1605682584842913e+00 5.9054280051238655e+00 1.0000000000000000e+00 2.9759543411143290e+00 3.8647604042197981e+00 2.1176799670978328e+00 
76 1 2 1.1605682584842913e+00 1.4629226183177956e+01 1.0000000000000000e+00 3.2308558013352717e-01 5.7072102389493038e+00 1.5648266514095854e+00 
108 1 2 1.1605682584842913e+00 5.5044360847206235e+00 1.0000000000000000e+00 2.1660715478561583e+00 6.7882345833946118e+00 1.8944609865628097e+00 
258 1 2 1.1605682584842913e+00 2.7470976712760731e+00 1.0000000000000000e+00 4.0540421263033153e+00 6.1007437869664676e+00 1.8706418372847398e+00 
349 1 2 1.1605682584842913e+00 1.5759325242463191e+01 1.0000000000000000e+00 5.8552079580430831e+00 8.9898908987678059e+00 1.8666687362106433e+00 
316 1 2 1.1605682584842913e+00 -7.3238485902196899e+00 1.0000000000000000e+00 2.1761977391877423e+00 2.3948314922297929e+00 3.7060752171051292e+00 
180 1 2 1.1605683951529189e+00 2.8731212423466297e+00 1.0000000000000000e+00 6.5930976704566469e-01 4.0640015997543006e+00 3.2580367284783311e+00 
58 1 2 1.1605682584842913e+00 2.8252314160461545e-01 1.0000000000000000e+00 3.6800570946813309e+00 4.7667860178958321e+00 3.9936207161381381e+00 
358 1 2 1.1605683479146256e+00 2.0225627841222771e+01 1.0000000000000000e+00 1.2533079319830340e+00 9.1333810995649714e+00 3.9872010256391088e+00 
174 1 2 1.1605682584842913e+00 6.2935530079620285e+00 1.0000000000000000e+00 1.3585733887666231e+00 6.8313852680751619e-01 5.3923659705562450e+00 
147 1 2 1.1605682584842913e+00 7.8071025646343628e+00 1.0000000000000000e+00 6.5094754481733230e-01 6.3214853091834291e+00 4.4687083670112360e+00 
300 1 2 1.1605682584842913e+00 1.1998989361439687e+01 1.0000000000000000e+00 2.7103593386662999e+00 7.1140356324247751e+00 4.5890666849905157e+00 
175 1 2 1.1605682584842913e+00 7.3029961832045736e+00 1.0000000000000000e+00 4.7878462245710312e+00 7.2705193304098312e+00 4.6201746446377490e+00 
65 1 2 1.1605715481487688e+00 1.7361699813636672e+01 1.0000000000000000e+00 6.6104328625447204e+00 7.5485693115922405e+00 5.6084496218507578e+00 
347 1 2 1.1605715481487688e+00 6.7643697117500530e+00 1.0000000000000000e+00 6.2679161521061664e+00 9.3804532083634680e+00 5.0062541630730450e+00 
257 1 2 1.1605682584842913e+00 8.7520794655978538e+00 1.0000000000000000e+00 5.3594739940275291e+00 2.1991664845576460e+00 6.4263811751767044e+00 
51 1 2 1.1605682584842913e+00 8.3178119472022800e+00 1.0000000000000000e+00 2.5822111313317215e+00 4.6238158202854578e+00 6.8845191181445484e+00 
295 1 2 1.1605682584842913e+00 1.4572234035423758e+01 1.0000000000000000e+00 5.5260062917136406e+00 4.8940603715597986e+00 5.8823287398471464e+00 
245 1 2 1.1605682584842913e+00 5.9236166086264106e+00 1.0000000000000000e+00 6.6177382776975033e+00 2.2619900587651043e+00 8.4063843242461100e+00 
361 1 2 1.1605682584842913e+00 -4.0565104137444493e+01 1.0000000000000000e+00 7.5344871022581239e-01 6.1329273949219791e+00 8.1311917708402035e+00 
57 1 2 1.1605682584842913e+00 6.9784590913696256e+00 1.0000000000000000e+00 3.7330699680939228e+00 6.0064291457335601e+00 7.9542587954772150e+00 
218 1 2 1.1605682584842913e+00 1.1308215334406547e+01 1.0000000000000000e+00 3.5717000442634914e+00 7.9950888697970566e+00 8.2038685635195563e+00 
111 1 2 1.1605682584842913e+00 5.8048849135896674e+00 1.0000000000000000e+00 5.0660327322670469e+00 9.8009177527369271e+00 7.6342272012007104e+00 
190 1 2 1.1605682584842913e+00 -7.5059053570564316e+01 1.0000000000000000e+00 2.3794219015832287e+00 2.0393033238606408e+00 9.0821276207414350e+00 
222 1 2 1.1605682584842913e+00 4.7441099053025333e+00 1.0000000000000000e+00 3.6402360831373812e+00 4.3636063752474170e+00 9.3632379429953581e+00 
251 1 2 1.1605682584842913e+00 1.2681060184635363e+01 1.0000000000000000e+00 4.3899126477465753e+00 9.3765291346700153e+00 9.5539230634698615e+00 
182 1 2 1.1605708433248250e+00 -3.3473380707791293e+01 1.0000000000000000e+00 6.4757096713247391e+00 1.3196741360489337e+00 1.1226996034274686e+01 
198 1 2 1.1605682584842913e+00 -1.7199456858847006e+02 1.0000000000000000e+00 5.5327990780885354e+00 3.2918986881549843e+00 1.1200910868324664e+01 
59 1 2 1.1605684685542259e+00 -2.8647311958373680e+00 1.0000000000000000e+00 1.8175481083395157e+00 6.0353656262604476e+00 1.1129010829507930e+01 
169 1 2 1.1605682584842913e+00 -1.4112039384465353e+02 1.0000000000000000e+00 6.1237565184646350e+00 6.3661869501249093e+00 1.1016399885498672e+01 
306 1 2 1.1605682584842913e+00 1.0966878979590742e+01 1.0000000000000000e+00 4.1106343306111777e+00 7.7999206900070179e+00 1.0838813678667472e+01 
274 1 2 1.1605682584842913e+00 9.7828293505668604e+00 1.0000000000000000e+00 2.5992073525506942e-01 1.2587375275346537e+00 1.2003409163895656e+01 
154 1 2 1.1605682584842913e+00 8.1966351503247932e+00 1.0000000000000000e+00 4.3726434212392906e+00 1.6285921567674835e+00 1.2415041380979071e+01 
223 1 2 1.1605684685542259e+00 -2.4106071347717539e+00 1.0000000000000000e+00 8.5881015381402914e-01 6.9645704616137385e+00 1.2590177676235674e+01 
339 1 2 1.1605682584842913e+00 3.1965811487245537e+00 1.0000000000000000e+00 3.1192931634810512e+00 7.7180664137698152e+00 1.2679535314457675e+01 
232 1 2 1.1605682584842913e+00 3.4722109025382913e+01 1.0000000000000000e+00 6.4677842745525274e+00 8.7318175610267872e+00 1.2058462935263414e+01 
35 1 2 1.1605682584842913e+00 7.8371173102603482e+00 1.0000000000000000e+00 3.5556214061865936e+00 2.2864044414384210e-01 1.4138826771876847e+01 
283 1 2 1.1605682584842913e+00 1.5428419050033413e+00 1.0000000000000000e+00 2.3801081631741292e+00 2.3837671213326166e+00 1.2989635547114181e+01 
209 1 2 1.1605682584842913e+00 5.6899640964441840e+00 1.0000000000000000e+00 4.8257914668338335e-02 3.8183395858825064e+00 1.3905131176915640e+01 
79 1 2 1.1605682584842913e+00 -1.5611203256491805e+01 1.0000000000000000e+00 3.1264920903259639e+00 5.2332561871803938e+00 1.3415471622103006e+01 
298 1 2 1.1605682584842913e+00 3.4852775828946697e+01 1.0000000000000000e+00 5.6818614875218341e+00 6.8471997271158109e+00 1.3118320792508296e+01 
196 1 2 1.1605682584842913e+00 3.2216235085242406e+00 1.0000000000000000e+00 2.3503627173867070e+00 1.6836738100921991e+00 1.5366825114563742e+01 
320 1 2 1.1605682584842913e+00 1.2535105666985171e+01 1.0000000000000000e+00 1.7724268885348093e+00 4.5706024837146764e+00 1.5348285546683247e+01 
262 1 2 1.1605682584842913e+00 5.0846189419089587e+00 1.0000000000000000e+00 5.8533069466475975e+00 6.0526179488076810e+00 1.5665005440898915e+01 
192 1 2 1.1605682584842913e+00 6.2763032183246388e+00 1.0000000000000000e+00 1.8370611863738615e+00 7.1459980346389163e+00 1.5169240107060194e+01 
131 1 2 1.1605682584842913e+00 5.3065793758166357e+00 1.0000000000000000e+00 3.7171366376005457e+00 7.6673630856529620e+00 1.5632575206672941e+01 
66 1 2 1.1605682584842913e+00 1.0174742596989596e+01 1.0000000000000000e+00 8.4758515086341302e-02 4.6576884036076995e+00 1.6732422830518153e+01 
113 1 2 1.1605682584842913e+00 5.6552068722759650e+00 1.0000000000000000e+00 7.8074679093864507e-02 6.7309252334610967e+00 1.6787845447105465e+01 
14 1 2 1.1605682584842913e+00 -6.1133762351270406e+01 1.0000000000000000e+00 5.4190155002945515e+00 4.7979234381935937e-02 1.7482772723994355e+01 
363 1 2 1.1605682584842913e+00 -3.5294462336824836e+02 1.0000000000000000e+00 3.4162108588620765e+00 3.5549462156055780e+00 1.8270284806363279e+01 
120 1 2 1.1605682584842913e+00 6.8946010105131066e+00 1.0000000000000000e+00 5.8665729173323422e+00 4.1123451722024091e+00 1.7413699161560025e+01 
208 1 2 1.1605682584842913e+00 1.2740618822347404e+01 1.0000000000000000e+00 3.6233281221109968e+00 5.3633994393247422e+00 1.7155673049666198e+01 
299 1 2 1.1605682584842913e+00 9.5962548065021167e+00 1.0000000000000000e+00 6.5858143536075424e+00 8.4479919237352199e+00 1.7354832385450596e+01 
310 1 2 1.1605682584842913e+00 -3.7367303528852418e+01 1.0000000000000000e+00 1.7422188689722669e+00 8.5786222013766160e+00 1.8011514332270377e+01 
129 1 2 1.1605682584842913e+00 1.4967775258442099e+01 1.0000000000000000e+00 3.0594888468069628e+00 5.7331493986994453e-01 1.9246130585598575e+01 
241 1 2 1.1605682584842913e+00 1.9943006232867241e+01 1.0000000000000000e+00 1.4000887353219802e+00 1.7330259391323970e+00 1.8578090668231738e+01 
155 1 2 1.1605682584842913e+00 5.6052756252949703e+00 1.0000000000000000e+00 1.1707429732153318e+00 3.9038292553048315e+00 1.9935734803597676e+01 
243 1 2 1.1605682584842913e+00 1.1685970552791471e+01 1.0000000000000000e+00 2.4173002007878361e+00 5.9350086194913949e+00 1.9677963845517262e+01 
354 1 2 1.1605682584842913e+00 6.0100113375878923e+00 1.0000000000000000e+00 6.0164904821131948e+00 9.4057797625235402e+00 1.9710859194681845e+01 
259 1 2 1.1605682584842913e+00 2.7287174219470449e+00 1.0000000000000000e+00 1.6170520039651057e+00 1.0553842210708286e+01 9.5316856279418838e-01 
362 1 2 1.1605682584842913e+00 -3.1579086636930077e+02 1.0000000000000000e+00 3.4179977706634315e+00 1.1735895221036563e+01 3.4504685329802859e-02 
331 1 2 1.1605682584842913e+00 2.3677708221849914e+00 1.0000000000000000e+00 5.7419442741766413e-01 1.3223580966454845e+01 2.5421195037952882e-01 
94 1 2 1.1605682584842913e+00 7.1893721123379652e+00 1.0000000000000000e+00 6.2645766527604918e+00 1.2988558284112717e+01 4.3952658843444103e-01 
312 1 2 1.1605682584842913e+00 7.8493814570299794e+00 1.0000000000000000e+00 1.1010536899255132e+00 1.5952386951173940e+01 8.6356382809084042e-01 
267 1 2 1.1605682584842913e+00 -3.0689116726319234e+00 1.0000000000000000e+00 4.1452716224284067e+00 1.7815302123242585e+01 1.4211068489036927e+00 
201 1 2 1.1605682584842913e+00 6.0256596497557684e+00 1.0000000000000000e+00 2.1753782157460013e+00 1.8816714262910793e+01 8.3937699493310935e-01 
211 1 2 1.1605720573867027e+00 3.5428614796469575e+00 1.0000000000000000e+00 6.3410907395037350e+00 1.9955858454645270e+01 5.5770962708192473e-01 
240 1 2 1.1605682584842913e+00 1.0058657475758480e+01 1.0000000000000000e+00 2.9797950493543772e+00 1.0747820927644025e+01 2.5829212323360617e+00 
200 1 2 1.1605682584842913e+00 6.3214828266174852e+00 1.0000000000000000e+00 3.2368770998129719e+00 1.6303425846315516e+01 2.5037539031528318e+00 
109 1 2 1.1605682584842913e+00 7.9631438286684837e+00 1.0000000000000000e+00 5.5679958865234180e-01 1.9108026354429281e+01 2.2265270484964139e+00 
224 1 2 1.1605682584842913e+00 1.0549390420476893e+01 1.0000000000000000e+00 2.8585649898639089e+00 1.9585450496758249e+01 2.6516860732745786e+00 
226 1 2 1.1605682584842913e+00 8.6634824534872390e+00 1.0000000000000000e+00 5.2910081508338189e+00 1.2233892432370229e+01 4.0165253977317112e+00 
81 1 2 1.1605682584842913e+00 1.5260274197162719e+01 1.0000000000000000e+00 1.4271839679166529e+00 1.2859894566548393e+01 3.2578864009999360e+00 
280 1 2 1.1605682584842913e+00 1.1677229698246904e+01 1.0000000000000000e+00 3.9966589385858109e+00 1.4524105201330466e+01 3.9461991954790032e+00 
168 1 2 1.1605682584842913e+00 6.9043877763614017e+00 1.0000000000000000e+00 5.1897348346826311e+00 1.6210898363219936e+01 3.6179244303769398e+00 
73 1 2 1.1605683479146256e+00 7.9193254354458480e+00 1.0000000000000000e+00 4.4149022707450414e-01 1.0840379490870330e+01 4.5876297430559765e+00 
284 1 2 1.1605682584842913e+00 7.0844775355301604e+00 1.0000000000000000e+00 6.5121306217137462e+00 1.4418824560105534e+01 5.1880501038889273e+00 
356 1 2 1.1605682584842913e+00 7.3641456004772698e-01 1.0000000000000000e+00 5.7072080043637863e+00 1.6248203176940862e+01 5.5974095281696536e+00 
233 1 2 1.1605682584842913e+00 1.2902063183361768e+01 1.0000000000000000e+00 6.6494684552499661e-01 1.8558037515086923e+01 4.4272558749671154e+00 
16 1 2 1.1605682584842913e+00 4.2190187919796127e+00 1.0000000000000000e+00 4.0373109143235544e+00 1.7266573027487212e+01 5.0653373885787394e+00 
82 1 2 1.1605682584842913e+00 5.2256173155287406e+00 1.0000000000000000e+00 4.8950302239449739e+00 1.9060365811963223e+01 5.3479695054883587e+00 
124 1 2 1.1605682584842913e+00 5.6461492882542963e+00 1.0000000000000000e+00 2.1718095909371695e+00 1.4520386628449627e+01 5.9521653676802195e+00 
336 1 2 1.1605682584842913e+00 1.3638739186990144e+01 1.0000000000000000e+00 3.7180674170382431e+00 1.1879749383333085e+01 8.4637032931905765e+00 
332 1 2 1.1605682584842913e+00 6.4618616467670105e+00 1.0000000000000000e+00 1.2100343044349904e+00 1.3137597812060090e+01 7.6862997906041182e+00 
7 1 2 1.1605682584842913e+00 1.0108662699389271e+01 1.0000000000000000e+00 6.0521961730674185e+00 1.4739951924574695e+01 7.2960763378083593e+00 
234 1 2 1.1605682584842913e+00 1.6215207487557770e+01 1.0000000000000000e+00 2.4564997102569621e+00 1.6556327414184683e+01 8.0742994851435128e+00 
253 1 2 1.1605682584842913e+00 2.5953470764057691e+01 1.0000000000000000e+00 4.3473888089568771e+00 1.5860199174591934e+01 7.9757475937386353e+00 
263 1 2 1.1605682584842913e+00 1.4204631491773995e+01 1.0000000000000000e+00 5.4705557943935013e+00 1.7498566074471938e+01 7.4789985524929676e+00 
110 1 2 1.1605682584842913e+00 5.1019228025885450e+00 1.0000000000000000e+00 3.1191815928792734e+00 1.8762905379238617e+01 7.6251646271288802e+00 
50 1 2 1.1605682584842913e+00 8.2182131983636069e+00 1.0000000000000000e+00 6.3924531878931301e+00 1.1360999999078903e+01 9.9896692304728631e+00 
150 1 2 1.1605682584842913e+00 2.2565690717420907e+01 1.0000000000000000e+00 1.1994442931145455e+00 1.8347607297214768e+01 8.5937344763012593e+00 
48 1 2 1.1605682584842913e+00 -2.6553678824997791e+00 1.0000000000000000e+00 5.7789072311728003e+00 1.9917771100915321e+01 9.4246668335500008e+00 
219 1 2 1.1605683096462860e+00 6.5262865239314838e+00 1.0000000000000000e+00 2.9359328394125974e+00 1.0418900112913880e+01 1.0781090653049690e+01 
317 1 2 1.1605682584842913e+00 1.2679017090629880e+01 1.0000000000000000e+00 3.4224088430650603e+00 1.3700283746615675e+01 1.0430693229886970e+01 
163 1 2 1.1605682584842913e+00 4.8912004454495062e+00 1.0000000000000000e+00 6.5623157077978203e+00 1.4911614694196970e+01 1.1022625178606212e+01 
250 1 2 1.1605682584842913e+00 -1.3337178835410430e+00 1.0000000000000000e+00 1.1268919797081440e+00 1.7025471103290556e+01 1.0667802856322673e+01 
102 1 2 1.1605683096462860e+00 3.7734185286288375e+00 1.0000000000000000e+00 1.2142857326251977e+00 1.1027440165568864e+01 1.1560739343643080e+01 
335 1 2 1.1605682584842913e+00 1.5645121037752087e+01 1.0000000000000000e+00 5.1075611388253863e+00 1.0337961283671486e+01 1.2469095755065377e+01 
25 1 2 1.1605682584842913e+00 6.9637068835882214e+00 1.0000000000000000e+00 2.1863809638000409e+00 1.3201035645194672e+01 1.2486683219786460e+01 
350 1 2 1.1605682584842913e+00 1.0117481576155598e+01 1.0000000000000000e+00 4.5479735520266242e+00 1.2902774879111188e+01 1.2349184558937592e+01 
39 1 2 1.1605682584842913e+00 6.1811581427277726e+00 1.0000000000000000e+00 3.9102673311822822e+00 1.5840419108872045e+01 1.1617166001480948e+01 
126 1 2 1.1605682584842913e+00 1.5186815260715562e+01 1.0000000000000000e+00 5.8961750314053170e+00 1.6679681195459924e+01 1.2596817446313443e+01 
36 1 2 1.1605682584842913e+00 1.2145039019559203e+01 1.0000000000000000e+00 1.7853999401880678e+00 1.9859582314839450e+01 1.1868045289435834e+01 
49 1 2 1.1605682584842913e+00 6.9977020087652591e+00 1.0000000000000000e+00 3.5815746137495950e+00 1.7967211840887295e+01 1.3293726730247176e+01 
10 1 2 1.1605682584842913e+00 8.6018780668666750e+00 1.0000000000000000e+00 2.4699484811413912e+00 1.0367201095786783e+01 1.4489939594450929e+01 
20 1 2 1.1605682584842913e+00 4.7341298584639873e+00 1.0000000000000000e+00 2.0162176805549143e+00 1.2475187394151620e+01 1.4546490323504448e+01 
24 1 2 1.1605682584842913e+00 1.1876492166966212e+01 1.0000000000000000e+00 4.0773970416037235e+00 1.2913647941407522e+01 1.4848007531745189e+01 
372 1 2 1.1605682584842913e+00 8.1222152859731800e+00 1.0000000000000000e+00 4.9849755652002153e-01 1.4500371854573606e+01 1.4520158374477294e+01 
80 1 2 1.1605682584842913e+00 1.1765135516362356e+01 1.0000000000000000e+00 5.3566450854835796e+00 1.9171417999366387e+01 1.4609269535964184e+01 
185 1 2 1.1605682584842913e+00 -1.0214066019413686e+01 1.0000000000000000e+00 2.7683986394668390e+00 1.0685622135941964e+01 1.6566052657095597e+01 
5 1 2 1.1605732516027460e+00 9.9829165456230253e+00 1.0000000000000000e+00 5.7753705684856804e+00 1.2587797137180807e+01 1.5918935725145404e+01 
130 1 2 1.1605682584842913e+00 5.9766006115021231e+00 1.0000000000000000e+00 5.0708580637698004e+00 1.4990876238584649e+01 1.6535022259224860e+01 
321 1 2 1.1605682584842913e+00 5.5629669782533622e+00 1.0000000000000000e+00 6.4285132985941553e+00 1.8017984686620675e+01 1.6216197121601596e+01 
282 1 2 1.1605682584842913e+00 -2.3308633739568139e+00 1.0000000000000000e+00 5.2576333190378275e+00 1.0806352403509297e+01 1.8086794328970200e+01 
334 1 2 1.1605682584842913e+00 3.5477268535799142e+00 1.0000000000000000e+00 3.6291562561788080e+00 1.2487402789258503e+01 1.7813163255328867e+01 
360 1 2 1.1605682584842913e+00 7.5375977787173465e+00 1.0000000000000000e+00 6.0281225547109738e+00 1.2664936474005200e+01 1.8301689522111076e+01 
160 1 2 1.1605682584842913e+00 -5.2003797687040290e+01 1.0000000000000000e+00 1.9035470178686318e+00 1.3883193797649813e+01 1.7864128724590799e+01 
275 1 2 1.1605682584842913e+00 8.4088031479364722e-01 1.0000000000000000e+00 4.7802861378989219e+00 1.7276442967916690e+01 1.7434884044700890e+01 
31 1 2 1.1605682584842913e+00 6.4939209466257868e+00 1.0000000000000000e+00 9.0074882763888953e-01 1.8658306650131792e+01 1.8532532493067659e+01 
115 1 2 1.1605682584842913e+00 4.1756212412719975e+00 1.0000000000000000e+00 3.6840863159354705e-03 1.1665527617287646e+01 1.8958838420604838e+01 
117 1 2 1.1605682584842913e+00 5.9795565566105946e+00 1.0000000000000000e+00 3.6977049486916220e+00 1.4874590174391789e+01 1.8878356033976996e+01 
313 1 2 1.1605682584842913e+00 -9.7999082128613573e+00 1.0000000000000000e+00 5.1100908859151781e+00 1.8198764587923659e+01 1.9249738512348149e+01 
328 1 2 1.1605682584842913e+00 1.2275898193098421e+01 1.0000000000000000e+00 8.1144185879670374e+00 1.0685955680628674e+00 1.0915024269157536e+00 
373 1 2 1.1605682584842913e+00 1.1459631677428540e+01 1.0000000000000000e+00 1.1961092892644000e+01 1.1731939407137186e+00 5.9889299989499378e-01 
348 1 2 1.1605682584842913e+00 5.8812576139336610e+00 1.0000000000000000e+00 1.0079799663872040e+01 1.7879421604013173e+00 1.3932142523665152e+00 
203 1 2 1.1605682584842913e+00 4.3215196039768635e+00 1.0000000000000000e+00 1.2138673802110786e+01 4.1268817561041917e+00 2.5666766773180445e+00 
85 1 2 1.1605682584842913e+00 3.3069768848773933e+00 1.0000000000000000e+00 9.9004940992195660e+00 5.6674052971695268e+00 2.2279265509757904e+00 
9 1 2 1.1605682612016763e+00 1.0537598287461186e+01 1.0000000000000000e+00 9.9609692846874029e+00 9.0277363519215843e+00 1.7185458910776703e+00 
204 1 2 1.1605682584842913e+00 4.1681184980943202e+00 1.0000000000000000e+00 9.8657616286866592e+00 4.2641396876849580e-01 3.5267152259092769e+00 
260 1 2 1.1605682584842913e+00 3.2502173473285643e+00 1.0000000000000000e+00 6.9873023184509577e+00 5.6136733357778903e+00 3.3228916363345302e+00 
228 1 2 1.1605682584868313e+00 7.3131268782739731e+00 1.0000000000000000e+00 8.1663296160825070e+00 9.3323821810027034e+00 4.1510258218846996e+00 
380 1 2 1.1605682584842913e+00 8.6641610356271919e+00 1.0000000000000000e+00 1.3041514415349184e+01 1.2527931597657493e+00 4.5063911477315628e+00 
235 1 2 1.1605682584842913e+00 3.8659409461071279e+00 1.0000000000000000e+00 7.9387406348424756e+00 1.9119963434221134e+00 4.4612481505975472e+00 
106 1 2 1.1605682584842913e+00 5.6127008581898483e+00 1.0000000000000000e+00 1.2064723063573110e+01 3.1673912067797274e+00 4.7370428118905563e+00 
270 1 2 1.1605682584842913e+00 -1.0843798146532791e+01 1.0000000000000000e+00 1.0883368897494435e+01 6.3174007343839529e+00 5.1391621050483156e+00 
158 1 2 1.1605682584842913e+00 6.0230926051101736e+00 1.0000000000000000e+00 1.2740107473192413e+01 9.6520973230696967e+00 5.4763157135811786e+00 
279 1 2 1.1605682584842913e+00 4.3906691731745688e+00 1.0000000000000000e+00 1.3028146281831521e+01 7.0976264124271615e-01 6.5611052138240984e+00 
140 1 2 1.1605682584842913e+00 6.9607937590094497e+00 1.0000000000000000e+00 8.8123485519992304e+00 2.6429002786846119e+00 6.7605226731696986e+00 
244 1 2 1.1605682584842913e+00 -1.8161971593580105e+01 1.0000000000000000e+00 1.0136739980336932e+01 4.3613569618266075e+00 6.5617506341244987e+00 
212 1 2 1.1605682584842913e+00 2.5339079207841138e+01 1.0000000000000000e+00 1.2988675779781616e+01 6.4236848453813780e+00 5.8852405791521658e+00 
4 1 2 1.1605682584868313e+00 3.0727668722466617e+00 1.0000000000000000e+00 8.7705723580709467e+00 9.1603989123691392e+00 6.0476461288775125e+00 
322 1 2 1.1605682584842913e+00 -9.7980680752165874e+00 1.0000000000000000e+00 7.4330513985893054e+00 4.3208067860297167e-01 7.5992943677448288e+00 
383 1 2 1.1605682584842913e+00 1.5914584630502119e+01 1.0000000000000000e+00 1.1216074622751778e+01 1.6113616737145420e+00 7.7439450541100729e+00 
156 1 2 1.1605682584842913e+00 -3.1365115253222586e-01 1.0000000000000000e+00 7.3992467456746063e+00 4.5170324576855485e+00 7.5744219132841373e+00 
278 1 2 1.1605682584842913e+00 5.7404372721031702e+00 1.0000000000000000e+00 1.2512755219746285e+01 9.6633957870387679e+00 7.8079764639379441e+00 
338 1 2 1.1605682584842913e+00 9.8963004581866478e+00 1.0000000000000000e+00 8.1591362399593272e+00 1.2642635775779425e+00 9.9495027735232036e+00 
256 1 2 1.1605682584842913e+00 9.4839489309356555e+00 1.0000000000000000e+00 6.8447315745073336e+00 3.9053699370439565e+00 9.7378580499438154e+00 
207 1 2 1.1605682584842913e+00 4.3569391642983604e+00 1.0000000000000000e+00 1.0351714118448161e+01 4.0486767287353969e+00 8.8307926541660233e+00 
194 1 2 1.1605682584842913e+00 5.1620129879413987e+00 1.0000000000000000e+00 1.2380490460409755e+01 3.1613079735383423e+00 9.7659304664148916e+00 
221 1 2 1.1605682584842913e+00 -1.1938669422524118e+01 1.0000000000000000e+00 7.6763505042639704e+00 6.1900922151087814e+00 9.1148365405615142e+00 
324 1 2 1.1605682584842913e+00 5.8415083517203286e+00 1.0000000000000000e+00 6.6850813344072710e+00 8.1788332477469865e+00 9.1987577089586559e+00 
288 1 2 1.1605682584842913e+00 7.5577532675664791e+00 1.0000000000000000e+00 1.0479009369532418e+01 8.2131657801603151e+00 9.1314527746883556e+00 
15 1 2 1.1605682584842913e+00 7.3864562124806366e+00 1.0000000000000000e+00 9.2570476763609726e+00 6.9181774768472728e+00 1.0162962894252150e+01 
252 1 2 1.1605682584842913e+00 6.5602810692831985e+00 1.0000000000000000e+00 8.6900295031702903e+00 9.2981763465928537e+00 1.1284982000319740e+01 
77 1 2 1.1605682584842913e+00 1.5707077819023922e+01 1.0000000000000000e+00 1.2862136604913944e+01 9.1091652935722340e+00 1.0363595608053588e+01 
134 1 2 1.1605682584842913e+00 -1.8197521537989149e+02 1.0000000000000000e+00 8.8119763860840212e+00 8.6818661327411756e-03 1.1898364282420953e+01 
133 1 2 1.1605689400272816e+00 5.5650172467688526e+00 1.0000000000000000e+00 7.6928280845655541e+00 4.7192867827318397e+00 1.2302668689355158e+01 
261 1 2 1.1605682584842913e+00 -4.9968008884398529e+01 1.0000000000000000e+00 9.2192545401600494e+00 6.1953479955591417e+00 1.2600780371839427e+01 
271 1 2 1.1605682584842913e+00 1.8261317289299521e+00 1.0000000000000000e+00 1.2883483765677628e+01 6.9684451776399836e+00 1.1912751891748885e+01 
318 1 2 1.1605682584842913e+00 3.2149254234369188e+01 1.0000000000000000e+00 1.0712609695346188e+01 8.0544928608919832e+00 1.1940394317481768e+01 
135 1 2 1.1605708433248250e+00 5.3518544702484272e+00 1.0000000000000000e+00 7.2307929558988588e+00 1.3117440244759047e+00 1.3036761886847255e+01 
341 1 2 1.1605682584842913e+00 1.1363762102200980e+01 1.0000000000000000e+00 1.1037743466004381e+01 2.1113307013455977e+00 1.3154404590868229e+01 
54 1 2 1.1605682584842913e+00 8.2504578785186293e+00 1.0000000000000000e+00 1.2609262037307502e+01 3.4429330775995259e+00 1.2962027621579107e+01 
217 1 2 1.1605689400272816e+00 6.7725288960232453e+00 1.0000000000000000e+00 6.8174647620751250e+00 5.0379301725032777e+00 1.4040855982924937e+01 
186 1 2 1.1605682584842913e+00 -2.8429316561657236e+00 1.0000000000000000e+00 7.8959999909413288e+00 3.3973220062755223e+00 1.5007238266357053e+01 
164 1 2 1.1605682584842913e+00 -8.0895826921085003e+00 1.0000000000000000e+00 1.1967285685753147e+01 4.3787521178512669e+00 1.4955773059847456e+01 
292 1 2 1.1605682584842913e+00 -1.6073712682372445e+01 1.0000000000000000e+00 7.8719015286151741e+00 8.3861627138667085e+00 1.4975821169378666e+01 
376 1 2 1.1605682584842913e+00 -9.1909595676418454e-01 1.0000000000000000e+00 1.1086396532531564e+01 7.3029414891335938e+00 1.4809058066997171e+01 
238 1 2 1.1605682584842913e+00 8.0953871154324339e+00 1.0000000000000000e+00 8.6371973368506723e+00 1.5784140299582425e+00 1.5863392385195846e+01 
216 1 2 1.1605682584842913e+00 -3.8319975986697781e+00 1.0000000000000000e+00 1.2086591614741975e+01 2.1569855310062014e+00 1.7102471519386384e+01 
29 1 2 1.1605682584842913e+00 4.3146549099971461e+00 1.0000000000000000e+00 8.6776351233192095e+00 6.0431197356982338e+00 1.6146243336816411e+01 
248 1 2 1.1605682584842913e+00 1.8522478497854046e+01 1.0000000000000000e+00 1.2805550769805139e+01 6.8184857569782862e+00 1.6345002790782100e+01 
161 1 2 1.1605682584842913e+00 -5.3543960205157575e+01 1.0000000000000000e+00 1.0714515741571768e+01 9.3676932738255410e+00 1.6368770076797134e+01 
307 1 2 1.1605682584915544e+00 3.4341102231285703e+00 1.0000000000000000e+00 1.0035129674324731e+01 9.2780868182867693e-01 1.7717167286257919e+01 
23 1 2 1.1605682584842913e+00 7.6151293539458216e+00 1.0000000000000000e+00 9.9955859703652603e+00 3.3441813139553287e+00 1.7476424706912606e+01 
28 1 2 1.1605682584842913e+00 4.8101266963255291e+00 1.0000000000000000e+00 1.1264490128021011e+01 5.4349919130578312e+00 1.7262069461536356e+01 
179 1 2 1.1605682584842913e+00 -7.1904186822351743e+00 1.0000000000000000e+00 9.1286656211246182e+00 7.1763475079427161e+00 1.7926051318105170e+01 
294 1 2 1.1605682584842913e+00 8.8284079780615237e+00 1.0000000000000000e+00 1.0840027325768741e+01 8.3346239532503166e+00 1.8274019460549017e+01 
247 1 2 1.1605682584842913e+00 1.5296160181754107e+01 1.0000000000000000e+00 1.2788342037604917e+01 5.7888195506795004e-01 1.8848906860910091e+01 
142 1 2 1.1605682584842913e+00 1.2684068896517658e+01 1.0000000000000000e+00 7.0541188314237537e+00 3.0232757800927126e+00 1.9991248686921946e+01 
177 1 2 1.1605682584842913e+00 3.8885458397727737e+00 1.0000000000000000e+00 1.0604059409301005e+01 4.7150486356110255e+00 1.9410847285770799e+01 
45 1 2 1.1605682584842913e+00 7.2704790454987176e+00 1.0000000000000000e+00 7.6087772323191851e+00 5.9410473030674940e+00 1.9882495297374867e+01 
364 1 2 1.1605682584842913e+00 1.2910606384410912e+01 1.0000000000000000e+00 7.8809163560159590e+00 9.0820028948889480e+00 1.8824696447231929e+01 
42 1 2 1.1605682584842913e+00 2.2103791774348117e+01 1.0000000000000000e+00 1.0051206897245635e+01 1.1417370848673160e+01 5.6995159889074631e-01 
268 1 2 1.1605682584842913e+00 -1.5684783697665812e+00 1.0000000000000000e+00 8.2071603457599966e+00 1.3131412669130091e+01 1.0325515487451176e+00 
91 1 2 1.1605682584842913e+00 5.4714639869739106e+00 1.0000000000000000e+00 1.3115388007498229e+01 1.3708257370470847e+01 4.4785255974889548e-01 
141 1 2 1.1605682584842913e+00 1.6786211367255152e+01 1.0000000000000000e+00 1.1033580762729679e+01 1.5034039169631075e+01 1.3410650924396295e+00 
184 1 2 1.1605720573867027e+00 1.0788225284999022e+01 1.0000000000000000e+00 7.8653288091729445e+00 1.8749798083793809e+01 3.2978532882988265e-01 
343 1 2 1.1605682612016763e+00 2.9473274665719607e+00 1.0000000000000000e+00 9.3485454966442507e+00 1.0742161599078850e+01 2.5298560390411597e+00 
99 1 2 1.1605682584842913e+00 5.9092305682061887e+00 1.0000000000000000e+00 7.0641076515529022e+00 1.2133938888437724e+01 2.8232954166984516e+00 
374 1 2 1.1605682584842913e+00 1.9306063622652157e+01 1.0000000000000000e+00 1.2903215892006411e+01 1.1704070735156265e+01 1.7253958774969056e+00 
44 1 2 1.1605682584842913e+00 5.8076519121725134e+00 1.0000000000000000e+00 1.2884823528772316e+01 1.4374344299447591e+01 2.6761981553932102e+00 
17 1 2 1.1605682584842913e+00 7.6240053245988193e+00 1.0000000000000000e+00 9.6240375629898409e+00 1.8184013892392898e+01 2.2060593477495352e+00 
254 1 2 1.1605682584842913e+00 2.2331814552975942e+01 1.0000000000000000e+00 8.6824356035105001e+00 1.4721418121031169e+01 3.0438369269726855e+00 
304 1 2 1.1605682584842913e+00 2.7121449402893056e+01 1.0000000000000000e+00 7.0769938635928584e+00 1.7490175974765094e+01 3.9525549136308209e+00 
149 1 2 1.1605682584842913e+00 7.9838912200655221e+00 1.0000000000000000e+00 8.4151852371025946e+00 1.1050133723585660e+01 5.4608403440436550e+00 
52 1 2 1.1605682584842913e+00 6.5010121717329987e+00 1.0000000000000000e+00 1.0066539082054268e+01 1.4497301428252193e+01 5.0070285020955652e+00 