LAMMPS data file via write_data, version 30 Jul 2016, timestep = 50400000

384 atoms
2 atom types

0.0000000000000000e+00 2.0000000000000000e+01 xlo xhi
0.0000000000000000e+00 2.0000000000000000e+01 ylo yhi
0.0000000000000000e+00 2.0000000000000000e+01 zlo zhi

Masses

1 3.896
2 4.31

Atoms # meso-molecular

211 1 2 1.1605682584842913e+00 3.5401223170918716e+00 1.0000000000000000e+00 5.5023847433259689e+00 3.3331491036995525e-01 9.6527000964176357e-01 
210 1 2 1.1605682584842913e+00 2.8161644522329281e+00 1.0000000000000000e+00 4.8318265274089907e+00 4.8383450409950317e+00 1.2176774110437649e+00 
108 1 2 1.1605682584842913e+00 5.5044448390878742e+00 1.0000000000000000e+00 2.0358141567420827e+00 7.7824379492960976e+00 1.2980338194818870e+00 
191 1 2 1.1605682584842913e+00 4.5871743667531044e+00 1.0000000000000000e+00 6.5590784487242537e+00 7.2990660463980044e+00 1.2850876831264149e+00 
354 1 2 1.1605682584842913e+00 6.0100639745583173e+00 1.0000000000000000e+00 6.0832781846447261e+00 9.9446476336796152e+00 5.4891679113258651e-01 
12 1 2 1.1605682584842913e+00 5.6595616349300677e+00 1.0000000000000000e+00 1.3641943370210250e+00 1.3714471777781092e+00 1.5885729702067874e+00 
276 1 2 1.1605682584842913e+00 5.9054406169350306e+00 1.0000000000000000e+00 2.7800666781199199e+00 3.6024317809613793e+00 1.8092039307614185e+00 
358 1 2 1.1605682584842913e+00 2.0225487736485235e+01 1.0000000000000000e+00 6.7056667064403275e-01 9.8538029688185951e+00 2.0711398550970750e+00 
316 1 2 1.1605682584842913e+00 -7.3238465220781794e+00 1.0000000000000000e+00 2.6414819562086733e+00 8.1783392203328154e-01 3.9658933528820213e+00 
60 1 2 1.1605682584842913e+00 3.7915467684614734e+00 1.0000000000000000e+00 5.6782180767344945e+00 4.0745066540446917e+00 3.6587593957749038e+00 
58 1 2 1.1605682584842913e+00 2.8254095524238476e-01 1.0000000000000000e+00 3.7676705878198842e+00 4.6710725920721501e+00 3.6939320427289455e+00 
258 1 2 1.1605682584842913e+00 2.7471036255864849e+00 1.0000000000000000e+00 3.3791009369073417e+00 7.2968779297931405e+00 3.0046476070547348e+00 
174 1 2 1.1605682584842913e+00 6.2935587574597953e+00 1.0000000000000000e+00 8.1387747658967435e-01 6.1323568191263023e-01 5.6580723376901325e+00 
257 1 2 1.1605682584842913e+00 8.7521023176298858e+00 1.0000000000000000e+00 6.2068450199709400e+00 2.3847288786427669e+00 5.2898807830102132e+00 
147 1 2 1.1605682584842913e+00 7.8071250096157847e+00 1.0000000000000000e+00 2.0878113506078652e-01 6.0532880077976978e+00 5.1272818845991468e+00 
175 1 2 1.1605682584842913e+00 7.3030021375149161e+00 1.0000000000000000e+00 4.6072669096198755e+00 7.5090880534535893e+00 5.4765237362282990e+00 
73 1 2 1.1605682584842913e+00 7.9191840396156330e+00 1.0000000000000000e+00 4.6452364934952756e-01 9.5597882588648488e+00 4.4527463422357236e+00 
51 1 2 1.1605682584842913e+00 8.3178183006286410e+00 1.0000000000000000e+00 1.5958256893159080e+00 4.7442376799721693e+00 6.6524448820639908e+00 
295 1 2 1.1605682584842913e+00 1.4572240550445521e+01 1.0000000000000000e+00 5.1309473452852696e+00 4.9247102977566151e+00 6.4725587581872972e+00 
300 1 2 1.1605682584842913e+00 1.1998989361439687e+01 1.0000000000000000e+00 2.2805726035763234e+00 6.8475932456932060e+00 5.9395002441013132e+00 
245 1 2 1.1605682584842913e+00 5.9236540869755956e+00 1.0000000000000000e+00 4.7790320067350907e+00 2.4410839895894356e+00 8.5624993747635969e+00 
361 1 2 1.1605682658481014e+00 -4.0565018268122166e+01 1.0000000000000000e+00 8.5569588594672075e-01 8.5678687245315714e+00 7.3354082322506509e+00 
218 1 2 1.1605682658481014e+00 1.1308306277018733e+01 1.0000000000000000e+00 2.8464935011784487e+00 8.5847498264908104e+00 7.3469900798403591e+00 
190 1 2 1.1605682804929476e+00 -7.5058983302438705e+01 1.0000000000000000e+00 3.8695707105338378e-01 1.1810785301645672e+00 9.5554253116981780e+00 
57 1 2 1.1605682584842913e+00 6.9785370963940441e+00 1.0000000000000000e+00 3.1106400887682311e+00 6.8530425357389548e+00 8.6990936558211196e+00 
251 1 2 1.1605682584842913e+00 1.2681082374134576e+01 1.0000000000000000e+00 4.3066984074512602e+00 9.4907557596244860e+00 9.3564638965302525e+00 
48 1 2 1.1605682584842913e+00 -2.6553678824997791e+00 1.0000000000000000e+00 4.5706942750008945e+00 1.5252130595167307e-01 1.0203783068899876e+01 
222 1 2 1.1605682584842913e+00 4.7441488529407003e+00 1.0000000000000000e+00 2.8593643747901405e+00 3.8068836674305357e+00 1.0595231304752495e+01 
202 1 2 1.1605682584842913e+00 -1.1390103468838131e+01 1.0000000000000000e+00 3.8729040710792184e-01 5.0201489314304375e+00 1.0941258738451200e+01 
59 1 2 1.1605682584842913e+00 -2.8650086822000214e+00 1.0000000000000000e+00 2.0882373250805646e+00 7.0429837366157786e+00 1.1137307260531818e+01 
306 1 2 1.1605682584842913e+00 1.0966902838416189e+01 1.0000000000000000e+00 4.6796932738688648e+00 7.3434038757200462e+00 1.0382580236365641e+01 
274 1 2 1.1605682584842913e+00 9.7828468778784341e+00 1.0000000000000000e+00 6.5559691040277168e-01 5.3594270078903206e-01 1.2260311460260153e+01 
154 1 2 1.1605682584842913e+00 8.1966391856312466e+00 1.0000000000000000e+00 5.1449108302565270e+00 1.2528087588690349e+00 1.2627928246166341e+01 
198 1 2 1.1605682584842913e+00 -1.7199456455316394e+02 1.0000000000000000e+00 6.6374606922903920e+00 3.9422914921987733e+00 1.2195704257248430e+01 
298 1 2 1.1605682584842913e+00 3.4852787015436554e+01 1.0000000000000000e+00 5.8702050346471992e+00 6.5309621997470924e+00 1.2732502373973437e+01 
339 1 2 1.1605682584842913e+00 3.1966285525460068e+00 1.0000000000000000e+00 1.1177543190102419e+00 8.4812196039107253e+00 1.2394852241161928e+01 
219 1 2 1.1605682584842913e+00 6.5261930468790936e+00 1.0000000000000000e+00 3.3393542519544210e+00 9.7110854879906050e+00 1.1817727100150270e+01 
232 1 2 1.1605682584842913e+00 3.4722139937676609e+01 1.0000000000000000e+00 6.6553003721272486e+00 8.8545758974843078e+00 1.1937942521887523e+01 
10 1 2 1.1605682584842913e+00 8.6019152190085109e+00 1.0000000000000000e+00 2.8064492652090554e+00 9.6374732355296420e+00 1.3948822607279290e+01 
34 1 2 1.1605682584842913e+00 -2.2038676726897535e+00 1.0000000000000000e+00 6.1845273575239528e+00 9.2053129223890586e+00 1.4234364426410208e+01 
80 1 2 1.1605682584842913e+00 1.1765135516362356e+01 1.0000000000000000e+00 5.3286394730766791e+00 3.8729965407637895e-01 1.5428599716199241e+01 
283 1 2 1.1605684264108200e+00 1.5431377050118025e+00 1.0000000000000000e+00 2.4587730447813287e+00 2.0587121557574206e+00 1.4435064013980295e+01 
186 1 2 1.1605682584842913e+00 -2.8429261867897839e+00 1.0000000000000000e+00 6.5107760865032587e+00 2.1893289722349021e+00 1.4945142436105856e+01 
320 1 2 1.1605682584842913e+00 1.2535145744259015e+01 1.0000000000000000e+00 1.0832145481830477e+00 3.7321750761928665e+00 1.4760947125672155e+01 
79 1 2 1.1605682584842913e+00 -1.5611195677741861e+01 1.0000000000000000e+00 3.7825639699137832e+00 4.9176898614973803e+00 1.4502898335470389e+01 
217 1 2 1.1605682584842913e+00 6.7717825786363308e+00 1.0000000000000000e+00 6.2601306813406188e+00 4.6006082720853563e+00 1.5616245135754804e+01 
192 1 2 1.1605682584842913e+00 6.2763032183246388e+00 1.0000000000000000e+00 1.4163510813092470e+00 6.2527935781076227e+00 1.4920232621495860e+01 
262 1 2 1.1605682584842913e+00 5.0846674276553241e+00 1.0000000000000000e+00 4.8082518684450219e+00 7.1154990415953643e+00 1.4690635762714972e+01 
196 1 2 1.1605684264108200e+00 3.2220211751506311e+00 1.0000000000000000e+00 2.8274717008827346e+00 1.0569955508966511e+00 1.6103150122573783e+01 
120 1 2 1.1605682584842913e+00 6.8946190738781752e+00 1.0000000000000000e+00 4.4771531693273134e+00 2.1729865255632026e+00 1.6710880052253081e+01 
208 1 2 1.1605682584842913e+00 1.2740731888260587e+01 1.0000000000000000e+00 2.7831404195961493e+00 3.6314106695537509e+00 1.5943719022594363e+01 
299 1 2 1.1605682584842913e+00 9.5962798230370652e+00 1.0000000000000000e+00 5.8698756496698614e+00 7.1406299507577247e+00 1.6957531153410951e+01 
310 1 2 1.1605682584842913e+00 -3.7367125779357949e+01 1.0000000000000000e+00 8.6889005785404816e-01 8.4869748529988289e+00 1.6161889838007703e+01 
241 1 2 1.1605682584842913e+00 1.9943145210642662e+01 1.0000000000000000e+00 1.8940471732703894e+00 3.9180438071818291e-01 1.8097986606780125e+01 
113 1 2 1.1605682584842913e+00 5.6553301599678658e+00 1.0000000000000000e+00 9.5502523716985233e-01 6.9378024214841236e+00 1.8086240583175503e+01 
131 1 2 1.1605682584842913e+00 5.3067567274891285e+00 1.0000000000000000e+00 3.7546186694317711e+00 6.9899472846827893e+00 1.7502030582598707e+01 
282 1 2 1.1605682584842913e+00 -2.3307392105861346e+00 1.0000000000000000e+00 5.0474858988325773e+00 8.9660436117905160e+00 1.8000724631768950e+01 
129 1 2 1.1605682584842913e+00 1.4967872586895730e+01 1.0000000000000000e+00 2.8899416085901266e+00 1.8602139485745628e-01 1.9958735469885827e+01 
155 1 2 1.1605682584842913e+00 5.6054784962182058e+00 1.0000000000000000e+00 7.7078237060574939e-01 2.5683694482638484e+00 1.9795258199307419e+01 
363 1 2 1.1605682584842913e+00 -3.5294455221833698e+02 1.0000000000000000e+00 4.3029105417073721e+00 3.7021484606066624e+00 1.8739453701016675e+01 
243 1 2 1.1605682584842913e+00 1.1685970552791471e+01 1.0000000000000000e+00 2.5822219689410284e+00 5.9278371560682892e+00 1.8891192342814030e+01 
205 1 2 1.1605682584842913e+00 -1.4234987158516464e+02 1.0000000000000000e+00 3.4171798120341061e+00 8.2252835253641674e+00 1.9920555578383603e+01 
331 1 2 1.1605682584842913e+00 2.3677756751636556e+00 1.0000000000000000e+00 7.1494788730602721e-01 1.3084652794439423e+01 7.2078106724954349e-01 
94 1 2 1.1605682584842913e+00 7.1893732247527087e+00 1.0000000000000000e+00 5.3421381377954438e+00 1.2941491910587402e+01 2.4656369155266231e-02 
312 1 2 1.1605682584842913e+00 7.8494107468269778e+00 1.0000000000000000e+00 4.8070136018301746e-01 1.6002934399748927e+01 5.6412015764844270e-01 
267 1 2 1.1605682584842913e+00 -3.0689111200236905e+00 1.0000000000000000e+00 3.8842406286141768e+00 1.7032257795194358e+01 1.3602944895937370e+00 
201 1 2 1.1605682584842913e+00 6.0256699412599648e+00 1.0000000000000000e+00 2.2648759409512240e+00 1.8304810399621754e+01 1.1221483579072962e+00 
240 1 2 1.1605682584842913e+00 1.0058673787422201e+01 1.0000000000000000e+00 2.8610233784292540e+00 1.1164300138638238e+01 1.5463697328883734e+00 
99 1 2 1.1605682584842913e+00 5.9092344548090239e+00 1.0000000000000000e+00 6.5978506806403958e+00 1.4060934627932065e+01 2.1987710340870956e+00 
200 1 2 1.1605682584842913e+00 6.3214857807340845e+00 1.0000000000000000e+00 3.0397101022274526e+00 1.5446438687986358e+01 2.4297713803998349e+00 
224 1 2 1.1605682584842913e+00 1.0549394648163986e+01 1.0000000000000000e+00 3.8446221769345668e+00 1.9516616072872594e+01 2.2764663559549390e+00 
81 1 2 1.1605682584842913e+00 1.5260294413410136e+01 1.0000000000000000e+00 1.4538953643503676e+00 1.2188681474404058e+01 3.1872013878717884e+00 
226 1 2 1.1605682584842913e+00 8.6634824534872390e+00 1.0000000000000000e+00 5.0168075220534556e+00 1.2120882670110976e+01 3.1854232154568214e+00 
168 1 2 1.1605682584842913e+00 6.9044046251608062e+00 1.0000000000000000e+00 5.7154984633541996e+00 1.6465828376622294e+01 3.1455304276696561e+00 
16 1 2 1.1605682584842913e+00 4.2190603672105524e+00 1.0000000000000000e+00 3.8631643376362241e+00 1.7371124432683430e+01 3.6732116402371746e+00 
347 1 2 1.1605682584842913e+00 6.7619247482638283e+00 1.0000000000000000e+00 5.4824505538145871e+00 1.0719458313958974e+01 4.5996018751801282e+00 
19 1 2 1.1605682584842913e+00 5.2307028997057721e+00 1.0000000000000000e+00 9.6558283783993351e-02 1.3509955170092688e+01 4.4198387739137930e+00 
280 1 2 1.1605682584842913e+00 1.1677266475992067e+01 1.0000000000000000e+00 3.5684291465566198e+00 1.2857664165187078e+01 4.6953074976537792e+00 
124 1 2 1.1605682584842913e+00 5.6461666390874292e+00 1.0000000000000000e+00 2.7705304309849015e+00 1.4562871229167728e+01 5.6502299908360403e+00 
356 1 2 1.1605682584842913e+00 7.3642352600824346e-01 1.0000000000000000e+00 5.1827040716511048e+00 1.5582180883463842e+01 4.9609576288588020e+00 
233 1 2 1.1605682584842913e+00 1.2902075667175801e+01 1.0000000000000000e+00 2.1968341653027350e+00 1.8818001270232948e+01 5.3540390285868487e+00 
111 1 2 1.1605682584842913e+00 5.8048891727740592e+00 1.0000000000000000e+00 4.9738345608491112e+00 1.0012929827290714e+01 6.9879113979691487e+00 
315 1 2 1.1605682584842913e+00 1.3118927089778545e+01 1.0000000000000000e+00 6.5351066355432408e-01 1.6901723376831228e+01 6.1798980367411414e+00 
82 1 2 1.1605682584842913e+00 5.2257088840758943e+00 1.0000000000000000e+00 4.9354336201561200e+00 1.8936580088333461e+01 6.1873088025938818e+00 
332 1 2 1.1605682584842913e+00 6.4618670055184069e+00 1.0000000000000000e+00 9.2242001954844488e-01 1.2994952830566536e+01 8.1016999014014299e+00 
253 1 2 1.1605682584842913e+00 2.5953553302896488e+01 1.0000000000000000e+00 5.0826582834992191e+00 1.5279363715808080e+01 7.6378494346264212e+00 
231 1 2 1.1605682584842913e+00 2.1316807710437820e+00 1.0000000000000000e+00 8.1318913439980350e-02 1.6194876763461220e+01 8.0394739300654923e+00 
263 1 2 1.1605682584842913e+00 1.4204647205385552e+01 1.0000000000000000e+00 4.9608597727796138e+00 1.7539028625383192e+01 7.6177615383857038e+00 
110 1 2 1.1605682584842913e+00 5.1019513002043606e+00 1.0000000000000000e+00 3.2054677990259761e+00 1.8719314264653487e+01 7.7592244741581657e+00 
325 1 2 1.1605682584842913e+00 -4.3380167191325690e+01 1.0000000000000000e+00 6.3199258429172689e+00 1.9304601931534783e+01 7.7918312579984583e+00 
336 1 2 1.1605682584842913e+00 1.3638751426643552e+01 1.0000000000000000e+00 2.5554524157985035e+00 1.1642203725782290e+01 8.7106651483378990e+00 
234 1 2 1.1605682584842913e+00 1.6215280349952643e+01 1.0000000000000000e+00 2.3827720234082705e+00 1.5951750930460477e+01 8.9745211969961556e+00 
150 1 2 1.1605682584842913e+00 2.2565728206923872e+01 1.0000000000000000e+00 3.6208708018711738e-01 1.8609600810253916e+01 9.0057958128105078e+00 
50 1 2 1.1605682584842913e+00 8.2182266176306698e+00 1.0000000000000000e+00 5.8859004528152816e+00 1.0929583282572679e+01 1.0095217653333481e+01 
317 1 2 1.1605682584842913e+00 1.2679035924639997e+01 1.0000000000000000e+00 3.7563751708204460e+00 1.2761177535398058e+01 1.0734375778343788e+01 
163 1 2 1.1605682584842913e+00 4.8912023004860981e+00 1.0000000000000000e+00 6.2385801272265322e+00 1.5212130982448544e+01 1.0340173010084099e+01 
49 1 2 1.1605682584842913e+00 6.9977243943399721e+00 1.0000000000000000e+00 3.9839788780486107e+00 1.6898811174229294e+01 1.1229926405146831e+01 
250 1 2 1.1605682584842913e+00 -1.3337146285076318e+00 1.0000000000000000e+00 1.2401098262210040e+00 1.7789981394233852e+01 1.0829004923120213e+01 
102 1 2 1.1605682584842913e+00 3.7733421721278848e+00 1.0000000000000000e+00 1.0452461355070231e+00 1.0807963370382261e+01 1.2771524509848570e+01 
281 1 2 1.1605682584842913e+00 5.0675200563196992e+00 1.0000000000000000e+00 6.6282894049244998e+00 1.1450571221328943e+01 1.2749528738481713e+01 
350 1 2 1.1605682584842913e+00 1.0117486194375939e+01 1.0000000000000000e+00 4.5233926263467277e+00 1.3485056269438344e+01 1.2833149102112380e+01 
39 1 2 1.1605682584842913e+00 6.1811581427277726e+00 1.0000000000000000e+00 3.2180755291725371e+00 1.5070008044506228e+01 1.1859366178550610e+01 
342 1 2 1.1605682584842913e+00 -5.5277254300126017e+00 1.0000000000000000e+00 1.5911587060232207e-01 1.8506003480210047e+01 1.2673823244632850e+01 
36 1 2 1.1605682584842913e+00 1.2145087904772677e+01 1.0000000000000000e+00 2.7662263729319965e+00 1.9440270106103448e+01 1.1817744844025887e+01 
335 1 2 1.1605682584842913e+00 1.5645131453177964e+01 1.0000000000000000e+00 4.7721180038536479e+00 1.1336875810414224e+01 1.3523926450663735e+01 
25 1 2 1.1605682584842913e+00 6.9637117372916837e+00 1.0000000000000000e+00 1.9770339703934439e+00 1.2585936177464124e+01 1.3118927585924498e+01 
126 1 2 1.1605682813009666e+00 1.5186883180454563e+01 1.0000000000000000e+00 5.6839671712416706e+00 1.7721153938212996e+01 1.3287527465320752e+01 
35 1 2 1.1605682584842913e+00 7.8371173102603482e+00 1.0000000000000000e+00 1.9464581969299148e+00 1.9660228829481738e+01 1.3801639546535807e+01 
372 1 2 1.1605682584842913e+00 8.1222260876510219e+00 1.0000000000000000e+00 3.9884454991604973e-01 1.4265725064793390e+01 1.5626351101971514e+01 
24 1 2 1.1605682731538722e+00 1.1876547045681292e+01 1.0000000000000000e+00 3.7384529953510115e+00 1.2883342850453554e+01 1.5167869509320361e+01 
185 1 2 1.1605682584842913e+00 -1.0213985540256033e+01 1.0000000000000000e+00 2.7579494011896206e+00 1.0082995034216347e+01 1.6226022111941671e+01 
95 1 2 1.1605682584842913e+00 1.9612054326589274e+01 1.0000000000000000e+00 6.5997177777273217e+00 1.0642688089318471e+01 1.6684781164618109e+01 
20 1 2 1.1605682584842913e+00 4.7342568346964669e+00 1.0000000000000000e+00 1.7476147151806580e+00 1.2746352734311358e+01 1.5947894170142394e+01 
5 1 2 1.1605682731538722e+00 9.9795916496828347e+00 1.0000000000000000e+00 5.3101920191826792e+00 1.2105962361596365e+01 1.6107502701191937e+01 
130 1 2 1.1605682586823458e+00 5.9766110208402266e+00 1.0000000000000000e+00 4.7970277291596473e+00 1.5906388928960409e+01 1.6699827101730342e+01 
321 1 2 1.1605682584842913e+00 5.5629689761948082e+00 1.0000000000000000e+00 5.8675928331683993e+00 1.7903982059246008e+01 1.6648821390300409e+01 
22 1 2 1.1605682595037454e+00 3.8512982357620302e+00 1.0000000000000000e+00 8.2120783848983997e-02 1.9854999157776327e+01 1.6600334460543305e+01 
334 1 2 1.1605682584842913e+00 3.5477825345962426e+00 1.0000000000000000e+00 3.9210438631330922e+00 1.3616707900948468e+01 1.7535431043546495e+01 
160 1 2 1.1605682584842913e+00 -5.2003790401305920e+01 1.0000000000000000e+00 1.0342180815265545e+00 1.4310813465363742e+01 1.7641950353430076e+01 
117 1 2 1.1605682586823458e+00 5.9795612866252172e+00 1.0000000000000000e+00 3.0221027262897837e+00 1.5528759221971313e+01 1.7531793064652742e+01 
360 1 2 1.1605682584842913e+00 7.5376144184804623e+00 1.0000000000000000e+00 6.1221182024453622e+00 1.5058518974194810e+01 1.8069085819699399e+01 
275 1 2 1.1605682584842913e+00 8.4088970540608154e-01 1.0000000000000000e+00 3.2744280092579663e+00 1.8247636397380695e+01 1.7624113510147403e+01 
14 1 2 1.1605682584842913e+00 -6.1133761382997122e+01 1.0000000000000000e+00 6.3082135576095624e+00 1.9953678910455089e+01 1.7195474545886690e+01 
259 1 2 1.1605682584842913e+00 2.7287905857729351e+00 1.0000000000000000e+00 8.0054260869373239e-01 1.1007003345457200e+01 1.9518662676093928e+01 
362 1 2 1.1605682584842913e+00 -3.1579081265005203e+02 1.0000000000000000e+00 3.0110702987102158e+00 1.0330229697360116e+01 1.9232433012479973e+01 
31 1 2 1.1605682584842913e+00 6.4939244304819290e+00 1.0000000000000000e+00 1.2006666436410045e+00 1.8054786716466275e+01 1.8658945286145357e+01 
313 1 2 1.1605682584842913e+00 -9.7998886816715292e+00 1.0000000000000000e+00 5.9302489553298425e+00 1.8179434609109734e+01 1.8967616716272282e+01 
373 1 2 1.1605682584842913e+00 1.1459657097575672e+01 1.0000000000000000e+00 1.0653908604662961e+01 1.6364649756711735e+00 8.3080141162568649e-02 
142 1 2 1.1605682584842913e+00 1.2684081899887136e+01 1.0000000000000000e+00 8.3031204823994127e+00 3.8660195341293671e+00 1.0312553617378746e+00 
9 1 2 1.1605682584842913e+00 1.0537590424701012e+01 1.0000000000000000e+00 9.6001792548674221e+00 8.8359588136755605e+00 1.0823184839981477e+00 
328 1 2 1.1605682584842913e+00 1.2275898193098421e+01 1.0000000000000000e+00 7.4803503288001885e+00 5.5591851244839086e-01 1.4302454952667754e+00 
348 1 2 1.1605682584842913e+00 5.8812691047521852e+00 1.0000000000000000e+00 9.4600718098814305e+00 2.1331882971483949e+00 2.4094696474460733e+00 
85 1 2 1.1605682584842913e+00 3.3069829077396573e+00 1.0000000000000000e+00 1.0367865295512861e+01 4.9852201361256521e+00 1.5613135469323682e+00 
203 1 2 1.1605682584842913e+00 4.3215387348218925e+00 1.0000000000000000e+00 1.2403855747399543e+01 4.5076755811459170e+00 1.5939436574139709e+00 
349 1 2 1.1605682584842913e+00 1.5759376388744194e+01 1.0000000000000000e+00 7.1530920710272312e+00 8.6701276574631798e+00 2.7646821337408598e+00 
235 1 2 1.1605682584842913e+00 3.8659454611877093e+00 1.0000000000000000e+00 7.0436298013427940e+00 2.1533346900203778e+00 3.4112926702946336e+00 
380 1 2 1.1605682584842913e+00 8.6641941889998115e+00 1.0000000000000000e+00 1.2989074475207095e+01 1.6286575811026864e+00 4.1015482916308690e+00 
260 1 2 1.1605682584842913e+00 3.2502285991095983e+00 1.0000000000000000e+00 8.5295486993066643e+00 6.3850435372273706e+00 2.9752907515453186e+00 
65 1 2 1.1605682584842913e+00 1.7359230044763869e+01 1.0000000000000000e+00 7.0418093727229083e+00 5.6807238858566524e+00 5.6535327208245318e+00 
106 1 2 1.1605682584842913e+00 5.6127086835974129e+00 1.0000000000000000e+00 1.2434107292163530e+01 4.4526307110132066e+00 4.6034003176052458e+00 
270 1 2 1.1605682584842913e+00 -1.0843789151550638e+01 1.0000000000000000e+00 1.0821112844722983e+01 6.1709259688734042e+00 5.0440554856960960e+00 
228 1 2 1.1605682584842913e+00 7.3132624380217717e+00 1.0000000000000000e+00 8.8422673670120755e+00 8.5321066771022949e+00 4.4757150613872296e+00 
322 1 2 1.1605682584842913e+00 -9.7980011324598699e+00 1.0000000000000000e+00 8.1870144831651821e+00 2.3966788517100807e-01 6.9064865801649358e+00 
279 1 2 1.1605682584842913e+00 4.3907625568654804e+00 1.0000000000000000e+00 1.3149957542852167e+01 4.2620861089119821e-01 6.2767593957469892e+00 
140 1 2 1.1605682584842913e+00 6.9608111680008466e+00 1.0000000000000000e+00 9.2766941017639848e+00 2.6360057742949272e+00 6.7465626156657557e+00 
156 1 2 1.1605682584842913e+00 -3.1362515460906548e-01 1.0000000000000000e+00 7.1664440027056440e+00 3.4123992816034567e+00 6.7612775123703059e+00 
244 1 2 1.1605682584842913e+00 -1.8161942150041725e+01 1.0000000000000000e+00 1.1242673702417736e+01 4.7788665754133195e+00 6.6499529606149945e+00 
212 1 2 1.1605682584842913e+00 2.5339079207841138e+01 1.0000000000000000e+00 1.3289253131234673e+01 5.9242326129205383e+00 6.2885274102820556e+00 
158 1 2 1.1605682584842913e+00 6.0231537652634675e+00 1.0000000000000000e+00 1.2445121870361762e+01 9.4909979533877529e+00 6.0890911767545326e+00 
383 1 2 1.1605682584842913e+00 1.5914584630502119e+01 1.0000000000000000e+00 1.1870199419036128e+01 1.3543501798496194e+00 7.6808871762574160e+00 
221 1 2 1.1605682584842913e+00 -1.1938669422524118e+01 1.0000000000000000e+00 8.5774270951562368e+00 6.1064321175925231e+00 7.8712606039345747e+00 
324 1 2 1.1605682584842913e+00 5.8415525904857049e+00 1.0000000000000000e+00 7.0476784942571689e+00 9.1501523774754254e+00 8.4726618542310987e+00 
278 1 2 1.1605682584842913e+00 5.7404833274919049e+00 1.0000000000000000e+00 1.0622026314069947e+01 9.0871382546916628e+00 7.4651575880665151e+00 
21 1 2 1.1605682584842913e+00 8.5404696076393734e+00 1.0000000000000000e+00 1.3105806822515524e+01 1.2291045992922265e+00 9.3195166670917295e+00 
207 1 2 1.1605682584842913e+00 4.3569777751354923e+00 1.0000000000000000e+00 9.7568689635760357e+00 2.0644494225976677e+00 9.6184018092584793e+00 
169 1 2 1.1605682584842913e+00 -1.4112037605379393e+02 1.0000000000000000e+00 6.7036655260103624e+00 6.7580380655258949e+00 9.6581647064754730e+00 
288 1 2 1.1605682584842913e+00 7.5578455719760562e+00 1.0000000000000000e+00 8.8521513575434216e+00 8.4666266379216921e+00 9.1634693461566012e+00 
77 1 2 1.1605682584842913e+00 1.5707127692610140e+01 1.0000000000000000e+00 1.3327225800300310e+01 9.6623190045202563e+00 9.2701086531119561e+00 
182 1 2 1.1605682584842913e+00 -3.3475421644908579e+01 1.0000000000000000e+00 7.1219865651486138e+00 2.1797298146267239e+00 1.0098386137663503e+01 
194 1 2 1.1605682584842913e+00 5.1620487887600710e+00 1.0000000000000000e+00 1.1926921647355622e+01 2.1378077576886945e+00 1.0879285887969196e+01 
256 1 2 1.1605682584842913e+00 9.4840308918267144e+00 1.0000000000000000e+00 7.9728317908054915e+00 4.1712069849491593e+00 1.0230378195245212e+01 
15 1 2 1.1605682584842913e+00 7.3865072256493676e+00 1.0000000000000000e+00 1.0113424761998123e+01 6.1919217867807452e+00 1.1104565672458218e+01 
318 1 2 1.1605682584842913e+00 3.2149276477824763e+01 1.0000000000000000e+00 1.0692327757693803e+01 8.5477129553758466e+00 1.0889429411322899e+01 
252 1 2 1.1605732546486840e+00 6.5637247533140819e+00 1.0000000000000000e+00 8.0226467084712887e+00 9.9099115430191453e+00 1.0506017895107030e+01 
134 1 2 1.1605682584842913e+00 -1.8197520570463939e+02 1.0000000000000000e+00 9.9167761588584273e+00 1.7883198500716131e-02 1.2746139335934135e+01 
133 1 2 1.1605682584842913e+00 5.5643812699262378e+00 1.0000000000000000e+00 7.7047900750202896e+00 6.5454947823614074e+00 1.1737945387906324e+01 
135 1 2 1.1605682584842913e+00 5.3497964633962924e+00 1.0000000000000000e+00 7.8469783778194344e+00 4.0324013973128126e-01 1.4180480898500079e+01 
341 1 2 1.1605682584842913e+00 1.1363782556291088e+01 1.0000000000000000e+00 1.1422372666313880e+01 1.9160010483684713e+00 1.4124032371918819e+01 
54 1 2 1.1605682584842913e+00 8.2504610329418444e+00 1.0000000000000000e+00 1.3217405997239222e+01 3.9216562667197596e+00 1.3974101068914226e+01 
261 1 2 1.1605682584842913e+00 -4.9967953500034270e+01 1.0000000000000000e+00 8.8154204585486173e+00 6.5855525017203043e+00 1.3767897504527067e+01 
238 1 2 1.1605682584842913e+00 8.0953871154324339e+00 1.0000000000000000e+00 9.7264050496739536e+00 8.9576859529635156e-01 1.5072025708118270e+01 
330 1 2 1.1605682584842913e+00 4.5468864598081140e+00 1.0000000000000000e+00 1.3214440613023459e+01 2.5688267998584569e+00 1.5460999805428298e+01 
164 1 2 1.1605682584842913e+00 -8.0895654510330104e+00 1.0000000000000000e+00 1.1060244942086056e+01 3.5535131494273728e+00 1.5337849405630525e+01 
376 1 2 1.1605682584842913e+00 -9.1908062322434780e-01 1.0000000000000000e+00 1.1434046758608446e+01 5.8015757500152185e+00 1.4446437775918701e+01 
292 1 2 1.1605682584842913e+00 -1.6073707395914496e+01 1.0000000000000000e+00 8.9191578833286833e+00 8.8047218192070460e+00 1.4812739253033616e+01 
23 1 2 1.1605682584842913e+00 7.6151512735318985e+00 1.0000000000000000e+00 9.7237139549347908e+00 2.0290148984051015e+00 1.6920451855768544e+01 
29 1 2 1.1605682584842913e+00 4.3147628295857450e+00 1.0000000000000000e+00 9.8927582483859720e+00 6.2382726669216453e+00 1.6023706712186186e+01 
248 1 2 1.1605682584842913e+00 1.8522478497854046e+01 1.0000000000000000e+00 1.3008535720253265e+01 7.5808883026958638e+00 1.6149175557242042e+01 
161 1 2 1.1605682584842913e+00 -5.3543958320979712e+01 1.0000000000000000e+00 9.4105609886424304e+00 8.6277218472282549e+00 1.6791978078701582e+01 
165 1 2 1.1605682584842913e+00 2.4140878824863482e-01 1.0000000000000000e+00 8.4314616198864005e+00 4.9572698169475943e-01 1.7257100409294054e+01 
307 1 2 1.1605682584842913e+00 3.4341266166254982e+00 1.0000000000000000e+00 1.0993485177577982e+01 6.9596914987893266e-01 1.7915309674302058e+01 
216 1 2 1.1605682584842913e+00 -3.8319055409811282e+00 1.0000000000000000e+00 1.1726101407237811e+01 3.1665263582782277e+00 1.7534355202104592e+01 
179 1 2 1.1605682584842913e+00 -7.1904072257394702e+00 1.0000000000000000e+00 7.8072677691271632e+00 5.4252893607218908e+00 1.7468314098806260e+01 
28 1 2 1.1605682584842913e+00 4.8102350827556393e+00 1.0000000000000000e+00 1.0908642990795988e+01 5.4682716103601798e+00 1.7798336939529861e+01 
45 1 2 1.1605682584842913e+00 7.2704912753035984e+00 1.0000000000000000e+00 7.3195155311613593e+00 5.6759302477038842e+00 1.9639241708782670e+01 
177 1 2 1.1605682584842913e+00 3.8885666216059747e+00 1.0000000000000000e+00 1.0380073303251930e+01 4.3355587249380756e+00 1.9538731723360844e+01 
364 1 2 1.1605685356280420e+00 1.2911015620937132e+01 1.0000000000000000e+00 8.3704789020232955e+00 8.2635758798990260e+00 1.9188003662731276e+01 
294 1 2 1.1605685364821801e+00 8.8288254397543842e+00 1.0000000000000000e+00 1.0203568397899613e+01 8.8663242579767871e+00 1.8754208040759078e+01 
42 1 2 1.1605682584842913e+00 2.2103858331510907e+01 1.0000000000000000e+00 1.0424261831834333e+01 1.1684264916446205e+01 2.5800547530640372e-01 
141 1 2 1.1605682584842913e+00 1.6786211367255152e+01 1.0000000000000000e+00 1.1850745421158416e+01 1.6129857214376024e+01 2.5111796992731583e-01 
345 1 2 1.1605682584842913e+00 4.7090649607003989e+00 1.0000000000000000e+00 1.3316107472689172e+01 1.7052560141522736e+01 1.3763168849097114e+00 
146 1 2 1.1605682584842913e+00 1.2023686749213301e+01 1.0000000000000000e+00 1.0803855252518405e+01 1.9120324151431156e+01 2.7712322670272271e-01 
374 1 2 1.1605682584842913e+00 1.9306105308287858e+01 1.0000000000000000e+00 1.2544810494588170e+01 1.0755205965668756e+01 2.1480249741938504e+00 
343 1 2 1.1605682584842913e+00 2.9473979683392826e+00 1.0000000000000000e+00 8.3772115027066416e+00 1.2954921485648525e+01 2.2128557008698801e+00 
44 1 2 1.1605682584842913e+00 5.8076860729839694e+00 1.0000000000000000e+00 1.2418317213694976e+01 1.5509557204453197e+01 2.6163606947418505e+00 
254 1 2 1.1605682584842913e+00 2.2331835829132039e+01 1.0000000000000000e+00 8.4291419930971632e+00 1.5923567143503359e+01 1.8428352910101193e+00 
17 1 2 1.1605682584842913e+00 7.6240329571569756e+00 1.0000000000000000e+00 9.3156860329919891e+00 1.7834019415212499e+01 2.3057674688294525e+00 
284 1 2 1.1605682584842913e+00 7.0844782085454465e+00 1.0000000000000000e+00 7.1343180541084976e+00 1.4611949396191193e+01 4.1905870909244980e+00 
52 1 2 1.1605682584842913e+00 6.5010121717329987e+00 1.0000000000000000e+00 1.0379508642721666e+01 1.4966839282538466e+01 3.5435642928453093e+00 
204 1 2 1.1605682584842913e+00 4.1681472584966572e+00 1.0000000000000000e+00 1.0035262870102549e+01 1.9709516543939007e+01 3.5948521953882584e+00 
291 1 2 1.1605682584842913e+00 5.2868614273524575e+00 1.0000000000000000e+00 1.0536182028871924e+01 1.0218090678935638e+01 5.0549853265121847e+00 
149 1 2 1.1605682584842913e+00 7.9838964443128040e+00 1.0000000000000000e+00 8.8300995779114011e+00 1.2288612273094470e+01 5.2507791407796267e+00 