LAMMPS data file via write_data, version 30 Jul 2016, timestep = 50400000

1520 atoms
8 atom types

0.0000000000000000e+00 4.0000000000000000e+01 xlo xhi
0.0000000000000000e+00 4.0000000000000000e+01 ylo yhi
0.0000000000000000e+00 1.0000000000000000e+02 zlo zhi

Masses

1 3.896
2 5.36
3 20.064
4 8.378
5 8.378
6 8.378
7 8.378
8 8.378

Atoms # meso-molecular

792 793 2 1.0280000000000316e+00 -1.9067268829041512e+02 1.0000000000000000e+00 9.7511361857421246e+00 3.6924157852215056e-01 2.7824356599441863e-01 
1431 1432 2 1.0279999999999689e+00 1.1130767132398350e+03 1.0000000000000000e+00 1.4237700233633930e+01 6.6403184448004708e+00 9.8883452282192819e-01 
1012 1013 2 1.0280000000000005e+00 3.1537204937575152e+03 1.0000000000000000e+00 1.7107938222262977e+01 5.7876396289308154e+00 3.8900454601339712e-01 
134 135 2 1.0279999999999718e+00 8.5836400966593419e+02 1.0000000000000000e+00 1.3192380585976078e+01 8.1255516168782318e+00 1.1349250391114714e+00 
55 56 2 1.0280000000000993e+00 1.9967122369463812e+02 1.0000000000000000e+00 1.4963915024139309e+01 8.2284585163724220e+00 8.8780616885642116e-01 
996 997 2 1.0280000000000100e+00 1.7052109217047346e+03 1.0000000000000000e+00 1.4045678366279583e+01 9.6714100379513823e+00 1.3923938955420740e+00 
1293 1294 2 1.0280000000000493e+00 9.7911474366446578e+02 1.0000000000000000e+00 1.3562084185845158e+01 1.0492875026551376e+01 1.2484807648698077e-02 
179 180 2 1.0280000000000000e+00 -6.0638305155032504e+02 1.0000000000000000e+00 2.2751802907379473e+00 1.2350225762947730e+01 1.5994154004534680e+00 
1286 1287 2 1.0280000000001090e+00 -9.6469004369939660e+02 1.0000000000000000e+00 1.3574849631619852e+01 1.2620465300836930e+01 2.0756139783625316e-01 
221 222 2 1.0279999999998972e+00 1.0353718132914423e+03 1.0000000000000000e+00 1.4169856013922240e+01 1.2321208441663813e+01 1.1459467238578001e+00 
475 476 2 1.0280000000000000e+00 1.7807183485759888e+03 1.0000000000000000e+00 2.6755998421333786e+00 1.3412455998812792e+01 1.4626523706059389e+00 
1201 1202 2 1.0280000000000022e+00 -1.9744795757963539e+02 1.0000000000000000e+00 1.6471899326512570e+01 2.6294884723058903e-01 2.2757041634829163e+00 
1118 1119 2 1.0279999999999991e+00 -1.2034108745466419e+03 1.0000000000000000e+00 4.3216699118029975e+00 5.5178474299369284e+00 2.9426273169539572e+00 
1185 1186 2 1.0279999999999336e+00 1.2241541763886532e+03 1.0000000000000000e+00 1.2026277112703472e+01 6.5785000063422592e+00 2.3386559708787069e+00 
980 981 2 1.0280000000000367e+00 2.7714130558256379e+03 1.0000000000000000e+00 1.5071134824986379e+01 6.1054447514537440e+00 1.9327970887702302e+00 
1423 1424 2 1.0279999999999536e+00 1.7530266015774109e+02 1.0000000000000000e+00 1.5491343426503800e+01 7.5786567309716419e+00 2.0431815838940599e+00 
274 275 2 1.0280000000000460e+00 -1.4393408671245270e+03 1.0000000000000000e+00 1.2675693511898343e+01 8.4343553331367289e+00 2.4897159555214867e+00 
263 264 2 1.0280000000000891e+00 -1.5491833146726426e+03 1.0000000000000000e+00 1.4562197894162381e+01 9.8738504145286168e+00 2.9030563332002570e+00 
969 970 2 1.0280000000000020e+00 1.6896986742257768e+03 1.0000000000000000e+00 2.9199318002043423e-01 1.0658430444684839e+01 2.5833542576378199e+00 
938 939 2 1.0280000000000020e+00 6.7832061845361341e+02 1.0000000000000000e+00 1.1833890749527389e+00 1.0068431630531691e+01 2.9891716737924825e+00 
379 380 2 1.0280000000000531e+00 6.2007892168859811e+01 1.0000000000000000e+00 1.5898129254117363e+01 1.0158254435729377e+01 1.9019400507045590e+00 
375 376 2 1.0280000000000047e+00 -7.5519094834359430e+02 1.0000000000000000e+00 1.5445743089741830e+01 1.1211002511590301e+01 2.5065876848404152e+00 
946 947 2 1.0280000000000000e+00 9.5239033961989185e+02 1.0000000000000000e+00 1.7268392554314154e+01 1.1920777810794876e+00 4.6444498212097880e+00 
794 795 2 1.0280000000000000e+00 -1.3675007886766052e+03 1.0000000000000000e+00 1.6661912716027025e+01 2.1303128699808940e+00 4.4009952234628376e+00 
985 986 2 1.0279999999999991e+00 1.9956835124887613e+02 1.0000000000000000e+00 5.0281867569905767e+00 6.0206764623378994e+00 3.6878587770384317e+00 
1189 1190 2 1.0280000000001743e+00 -3.4796678499494601e+02 1.0000000000000000e+00 1.1503552794426440e+01 6.5516835078781037e+00 3.3882616717557306e+00 
1390 1391 2 1.0279999999999965e+00 1.8953896645765579e+02 1.0000000000000000e+00 1.1680342886528326e+01 8.3630498091756458e+00 4.1334347997522274e+00 
280 281 2 1.0280000000000422e+00 -1.9226439036805177e+03 1.0000000000000000e+00 1.3310402221839590e+01 9.0700305026754702e+00 3.7068556370012971e+00 
825 826 2 1.0279999999999985e+00 5.3701414550271363e+02 1.0000000000000000e+00 2.2296267652417625e+00 1.9320554926625032e+01 4.6961773359749115e+00 
277 278 2 1.0280000000000014e+00 -1.9040592213798441e+03 1.0000000000000000e+00 4.4214912829912096e+00 1.3426736220879082e-01 6.0512477052629050e+00 
1372 1373 2 1.0280000000000000e+00 4.7653460572692609e+02 1.0000000000000000e+00 1.9182880179337101e+01 1.5680876117269578e+00 6.5498476146338520e+00 
7 8 2 1.0280000000000007e+00 -1.5342647230411530e+03 1.0000000000000000e+00 1.5725105632865617e+01 4.6893330024567881e+00 5.0406077859795078e+00 
1375 1376 2 1.0280000000000007e+00 -1.5490676393987214e+03 1.0000000000000000e+00 1.5018779926442981e+01 3.8420667544087617e+00 5.3416342280471820e+00 
1240 1241 2 1.0280000000000000e+00 1.1722857110215759e+02 1.0000000000000000e+00 1.2135154480366527e+01 5.5064340382104895e+00 6.5643490584226702e+00 
22 23 2 1.0279999999999376e+00 1.3457373306890193e+02 1.0000000000000000e+00 1.2392927774932318e+01 8.8544279070270449e+00 5.0790304593016966e+00 
1467 1468 2 1.0280000000000014e+00 1.6634572769606854e+02 1.0000000000000000e+00 1.4164711928465323e+01 1.2435708712246429e+01 6.1348693337668818e+00 
806 807 2 1.0280000000000031e+00 -1.3470927839693659e+03 1.0000000000000000e+00 3.4571354455792437e-02 1.5202221935405609e+01 6.3807604840693255e+00 
945 946 2 1.0279999999999985e+00 1.5941848933340034e+03 1.0000000000000000e+00 2.4353071357262892e+00 1.9499083831518028e+01 5.8066709346839733e+00 
1236 1237 2 1.0280000000000000e+00 -5.1819306571363518e+02 1.0000000000000000e+00 1.3080081765693718e+01 6.1053088889353182e+00 6.8006420038786022e+00 
504 505 2 1.0279999999999969e+00 8.0100173516987797e+02 1.0000000000000000e+00 2.1489741755300118e+00 7.7775973857659775e+00 7.8721822804975838e+00 
960 961 2 1.0279999999999969e+00 6.2653169045130608e+02 1.0000000000000000e+00 1.7684869877159599e+00 8.8486503819380360e+00 7.7478923100294681e+00 
673 674 2 1.0280000000000014e+00 5.0634127553859139e+02 1.0000000000000000e+00 1.4178335584905600e+01 1.3258683728977562e+01 6.9285314377382905e+00 
1091 1092 2 1.0280000000000005e+00 6.0835504288951017e+02 1.0000000000000000e+00 8.0624891569434833e+00 1.4751809068878332e+01 8.0160555324979601e+00 
378 379 2 1.0279999995231417e+00 1.0391149272501201e+02 1.0000000000000000e+00 1.0659698994769737e+01 1.9752699085743696e+01 7.5888232917166265e+00 
374 375 2 1.0280000004477141e+00 -6.5020542634239303e+02 1.0000000000000000e+00 1.0168147239064911e+01 1.8915109033505107e+01 8.1923071733171486e+00 
808 809 2 1.0280000000000000e+00 -3.4723522135190683e+02 1.0000000000000000e+00 1.5841754158369753e+01 8.0760554462844585e+00 8.4458457584807363e+00 
1132 1133 2 1.0280000000000000e+00 -4.3706013185275268e+01 1.0000000000000000e+00 1.5910400013423438e+01 9.2173768960482967e+00 8.4390551508746317e+00 
667 668 2 1.0279978237729404e+00 -2.2076703200453462e+03 1.0000000000000000e+00 1.6110484690071523e+01 1.2632602881451298e+01 9.9166560851601275e+00 
663 664 2 1.0280021804800377e+00 -1.4158086206358348e+03 1.0000000000000000e+00 1.7126547865184516e+01 1.2690260157246295e+01 9.3954329234133436e+00 
1087 1088 2 1.0280000000000005e+00 -1.0971922764552394e+03 1.0000000000000000e+00 8.4323606950059542e+00 1.5746638547673735e+01 8.4413582140198482e+00 
774 775 2 1.0280000004911520e+00 -7.2942659253916781e+02 1.0000000000000000e+00 7.7607363313342175e+00 1.9510190257014496e+01 8.4436220942397373e+00 
1 2 2 1.0280000000000007e+00 4.6502726772097401e+02 1.0000000000000000e+00 4.5574505988624567e+00 4.8837436079157301e+00 1.0371913421317695e+01 
4 5 2 1.0280000000000007e+00 4.8183900792402403e+02 1.0000000000000000e+00 5.6333616147242171e+00 4.9423281568725566e+00 1.0754478911174761e+01 
1246 1247 2 1.0279999999999991e+00 -1.3693930745474850e+03 1.0000000000000000e+00 1.7048094641231273e+01 3.8940646180538510e+00 1.1546986206853914e+01 
297 298 2 1.0280000000000018e+00 -1.3379258223193897e+03 1.0000000000000000e+00 1.3679861200989844e+01 6.1907522611774013e+00 1.0269276468336425e+01 
533 534 2 1.0279999999999996e+00 3.7769824690692565e+02 1.0000000000000000e+00 1.1268833557798715e+01 8.1238284728732655e+00 1.0518182056314973e+01 
300 301 2 1.0280000000000018e+00 -1.2586629968860079e+03 1.0000000000000000e+00 1.3612081983785515e+01 6.8495444492252275e+00 1.1201355782633797e+01 
402 403 2 1.0279999999999996e+00 -1.2321424132105931e+03 1.0000000000000000e+00 1.1113640925267797e+01 8.7355458713751304e+00 1.1471644215310796e+01 
695 696 2 1.0280021769542949e+00 -1.5376772669848363e+03 1.0000000000000000e+00 1.8915125696406001e+01 1.3148320666836931e+01 1.0987028549185979e+01 
1319 1320 2 1.0279999999999996e+00 -1.3800120635790795e+03 1.0000000000000000e+00 1.3453110244103376e+01 1.4221471182338728e+01 1.1122392344214056e+01 
356 357 2 1.0279978202471973e+00 -4.6562148858107230e+02 1.0000000000000000e+00 1.8984106248560888e+01 1.4241602763231306e+01 1.0659372818554125e+01 
567 568 2 1.0280000000000025e+00 2.1584607672589993e+02 1.0000000000000000e+00 1.4254689106262683e+01 1.5232066277042811e+00 1.2453855773888703e+01 
60 61 2 1.0279999999999991e+00 -5.3896093268817663e+02 1.0000000000000000e+00 1.6476964170245029e+01 4.4760202440004297e+00 1.2348553828454801e+01 
125 126 2 1.0280000000000000e+00 5.6175651771596551e+02 1.0000000000000000e+00 7.0349083650202822e+00 1.1353853039269046e+01 1.2610800641212688e+01 
1484 1485 2 1.0280000000000054e+00 -1.1921793717330927e+02 1.0000000000000000e+00 1.7450685114628048e+01 1.0236551403801469e+01 1.2495431987223951e+01 
1504 1505 2 1.0280000000000054e+00 -1.9655743795291926e+02 1.0000000000000000e+00 1.8326893320658002e+01 1.0179311118586265e+01 1.3227795112246620e+01 
117 118 2 1.0280000000000000e+00 4.9818768826834628e+02 1.0000000000000000e+00 6.7419031675913157e+00 1.2454865776668994e+01 1.2514406015732703e+01 
1320 1321 2 1.0279999999999996e+00 5.5410642860660369e+02 1.0000000000000000e+00 1.4438662289687464e+01 1.4061512421967343e+01 1.1679593724223306e+01 
1489 1490 2 1.0279999999999978e+00 1.0123265094744002e+03 1.0000000000000000e+00 1.7991392462855135e+01 1.6337324399932413e+01 1.2437954406625108e+01 
1197 1198 2 1.0279999999999978e+00 1.0220843051112987e+03 1.0000000000000000e+00 1.8355117870430135e+01 1.5337965556825434e+01 1.2857905294285834e+01 
278 279 2 1.0280000000000151e+00 -6.5588375934645501e+02 1.0000000000000000e+00 4.8454798340126598e-01 1.9291917877795790e+01 1.2473461783566677e+01 
1075 1076 2 1.0280000000000011e+00 4.4439205595057240e+02 1.0000000000000000e+00 1.1914828112751788e+01 1.8486649071476563e+01 1.3214764773925735e+01 
495 496 2 1.0280000000000025e+00 -9.3356234295099796e+01 1.0000000000000000e+00 1.4418754123710894e+01 1.5310363972502539e+00 1.3585400904326418e+01 
625 626 2 1.0279999999999982e+00 -1.8838606569675107e+02 1.0000000000000000e+00 1.1110337569755130e+01 4.2331078773546214e+00 1.4995575212059595e+01 
560 561 2 1.0280000000000011e+00 -7.3387103660539003e+02 1.0000000000000000e+00 8.1061235970980050e+00 1.1848677756241687e+01 1.4897040613434362e+01 
276 277 2 1.0280000000000011e+00 1.2294889107420399e+03 1.0000000000000000e+00 8.6153506078519246e+00 1.2653455106698486e+01 1.4264273448381450e+01 
1239 1240 2 1.0280000000000011e+00 -1.6548760113433497e+02 1.0000000000000000e+00 1.1552216704111704e+01 1.9002422562102950e+01 1.4168632526892498e+01 
777 778 2 1.0279999999999982e+00 -2.2622000924579754e+02 1.0000000000000000e+00 1.0826981641544508e+01 4.8121233174395108e+00 1.5939939313214413e+01 
710 711 2 1.0279999999989380e+00 -1.3783239048304567e+03 1.0000000000000000e+00 6.2662141568718308e+00 1.7926598592680445e+01 1.6424170145239376e+01 
711 712 2 1.0280000000014604e+00 -1.3509640476288164e+03 1.0000000000000000e+00 7.2704242874240048e+00 1.8260695927912543e+01 1.5982301657314720e+01 
844 845 2 1.0280000000000000e+00 3.3038937705359530e+02 1.0000000000000000e+00 1.4082903328769589e+01 1.7333892630676953e+01 1.5765175539193223e+01 
1144 1145 2 1.0280000000000000e+00 6.8967561022893074e+02 1.0000000000000000e+00 1.4956571228934724e+01 1.6747531510083395e+01 1.6212677554759690e+01 
850 851 2 1.0279997068882347e+00 -1.6170693975734907e+03 1.0000000000000000e+00 1.4776970309484408e+01 4.2748426242930284e+00 1.7762106601101955e+01 
1476 1477 2 1.0280004420174733e+00 2.2909584992861895e+01 1.0000000000000000e+00 1.6703909706559671e+01 4.4095848275287564e+00 1.7932095488318957e+01 
1002 1003 2 1.0280003132707576e+00 7.7898941384044645e+02 1.0000000000000000e+00 1.4712480768030810e+01 5.4422505248146118e+00 1.7603040939079708e+01 
568 569 2 1.0279995706003007e+00 2.4950823364777916e+03 1.0000000000000000e+00 1.6616628809568688e+01 5.5863132493183292e+00 1.7939453327255247e+01 
393 394 2 1.0279999999999985e+00 6.2319997312765702e+02 1.0000000000000000e+00 2.1815424083656527e+00 1.5788677265244074e+01 1.7255780374958274e+01 
1150 1151 2 1.0279999999999985e+00 -6.1477830597560251e+02 1.0000000000000000e+00 2.5318818444828914e+00 1.6007444501257339e+01 1.8321977445582142e+01 
1433 1434 2 1.0280000000010103e+00 -7.2001337790126087e+01 1.0000000000000000e+00 6.7925529984543225e+00 1.9753846789604136e+01 1.7535862288555428e+01 
406 407 2 1.0280133298474736e+00 1.5718811247680318e+02 1.0000000000000000e+00 1.8637317423002777e+01 4.6026447184062329e+00 1.9342992522107956e+01 
1442 1443 2 1.0280000000000027e+00 5.3121896863436007e+02 1.0000000000000000e+00 4.6201604638486655e+00 1.8341613625773581e+00 2.0567981798042172e+01 
1446 1447 2 1.0280000000000027e+00 5.6485798761906381e+02 1.0000000000000000e+00 4.0101479109138003e+00 2.1224312972221249e+00 2.1491105921603310e+01 
1147 1148 2 1.0279867444696305e+00 -2.9728615835352965e+01 1.0000000000000000e+00 1.9030523527190329e+01 4.8723171744098783e+00 2.0382268911694066e+01 
1229 1230 2 1.0279999999999971e+00 8.7327721348093746e+02 1.0000000000000000e+00 4.9317596924943841e+00 1.5063917700465575e+01 2.1103285097169113e+01 
813 814 2 1.0279999999999971e+00 7.3469344174010484e+02 1.0000000000000000e+00 5.1672579931326510e+00 1.5925852993860813e+01 2.0389855971148240e+01 
929 930 2 1.0279999999999985e+00 7.5595258213915031e+02 1.0000000000000000e+00 6.2782815178126539e+00 7.3381020471750906e+00 2.2651747463606636e+01 
1387 1388 2 1.0280000000000000e+00 7.9318408210722623e+02 1.0000000000000000e+00 4.1222886671068180e+00 9.1292965946383404e+00 2.2948887736774566e+01 
1247 1248 2 1.0280000000000000e+00 -1.4272248153649612e+03 1.0000000000000000e+00 4.2432087248692900e+00 1.0218821373563811e+01 2.3273983281494676e+01 
21 22 2 1.0279999999999943e+00 4.1204075861758793e+02 1.0000000000000000e+00 2.6404035705811122e+00 1.8351949114524778e+01 2.1951501534317316e+01 
24 25 2 1.0279999999999943e+00 4.0753343010978915e+02 1.0000000000000000e+00 3.4467422546512001e+00 1.8640181183769311e+01 2.2709204126559086e+01 
786 787 2 1.0279999999999985e+00 1.6695265637868385e+01 1.0000000000000000e+00 6.3874662474540127e+00 7.1853995700450044e+00 2.3779636494385031e+01 
1384 1385 2 1.0279999999999987e+00 2.1860771135980031e+02 1.0000000000000000e+00 5.4742812500110833e+00 1.9344642509783707e+01 2.4970089317023255e+01 
1105 1106 2 1.0279999999999956e+00 -4.9670874335378107e+02 1.0000000000000000e+00 1.6001343890732864e+00 1.5201800320785148e+00 2.6342948700395407e+01 
1101 1102 2 1.0279999999999956e+00 7.0600875762251962e+02 1.0000000000000000e+00 1.2947890088919256e+00 2.1647589315647173e+00 2.5449273558860288e+01 
269 270 2 1.0279999999999996e+00 1.0990845356944506e+03 1.0000000000000000e+00 1.4565934433726911e+01 1.0734828483698562e+01 2.6339136878540064e+01 
1038 1039 2 1.0279999999999996e+00 7.4541178178637756e+02 1.0000000000000000e+00 1.4251882792954358e+01 1.1789517329080951e+01 2.6649581759014477e+01 
920 921 2 1.0279999999999987e+00 -3.5907091587740615e+02 1.0000000000000000e+00 4.6882072019830119e+00 1.8678507988887059e+01 2.5465796295535057e+01 
800 801 2 1.0280000000000069e+00 4.1427369428060297e+02 1.0000000000000000e+00 7.9980962586807465e+00 1.3322404708897313e+01 2.8275275642722086e+01 
884 885 2 1.0280000000000000e+00 -2.0696599771447001e+02 1.0000000000000000e+00 3.8656512173019109e+00 6.2456841850350484e+00 2.9901296887721212e+01 
1274 1275 2 1.0280000000000002e+00 -1.7191531758520055e+03 1.0000000000000000e+00 4.1066425893862613e-01 7.8284101227698173e+00 2.8649711727705355e+01 
1273 1274 2 1.0280000000000002e+00 1.0064517957764049e+03 1.0000000000000000e+00 5.1579237208360840e-01 8.9666715767029928e+00 2.8675826087265733e+01 
1049 1050 2 1.0280000000000058e+00 8.0703756406507728e+02 1.0000000000000000e+00 6.2386915122674114e-01 1.4017566464555154e+01 2.8563354011448933e+01 
901 902 2 1.0280000000000058e+00 3.6209804376800139e+02 1.0000000000000000e+00 1.1072699815838487e+00 1.3630653623238635e+01 2.9524600654040288e+01 
797 798 2 1.0280000000000069e+00 5.1372711089102484e+02 1.0000000000000000e+00 6.8832709834038273e+00 1.3544791038788805e+01 2.8398084206510791e+01 
571 572 2 1.0280000000000000e+00 -3.3774378947907408e+01 1.0000000000000000e+00 1.9203630208931838e+01 1.4350897862467097e+01 2.8659659041892205e+01 
860 861 2 1.0279999903674446e+00 7.4004293060029875e+02 1.0000000000000000e+00 7.1745601429680572e-01 1.6546175842857686e+01 2.9046554786868661e+01 
384 385 2 1.0280000000000000e+00 7.6486048074675136e+02 1.0000000000000000e+00 1.9003687232987030e+01 1.5475234522748698e+01 2.8602537258167526e+01 
158 159 2 1.0280000051235318e+00 -9.3421095227496744e+02 1.0000000000000000e+00 4.5923994040116450e-01 1.8589027084649441e+01 2.9500377380492150e+01 
881 882 2 1.0280000000000000e+00 -1.9670623290126247e+02 1.0000000000000000e+00 4.2079293863116138e+00 5.1696270990561368e+00 3.0081074028071921e+01 
919 920 2 1.0280000112518159e+00 -1.4686853538721184e+03 1.0000000000000000e+00 5.9350176281618749e-01 1.6627112999087959e+01 3.0203800230974775e+01 
1403 1404 2 1.0280000000000011e+00 -1.9232336716394735e+02 1.0000000000000000e+00 4.2285493772492977e+00 1.1497436966299313e+01 3.2975720510528774e+01 
275 276 2 1.0280000000000000e+00 -1.4613320231907473e+03 1.0000000000000000e+00 1.5561342903691113e+00 1.8005846720865282e+01 3.2345928575998599e+01 
620 621 2 1.0280000000000005e+00 3.0488640970375525e+02 1.0000000000000000e+00 9.3654241701021164e+00 1.7679636119923295e+01 3.2246526507175375e+01 
135 136 2 1.0280000000000000e+00 8.8263570148863914e+02 1.0000000000000000e+00 2.0742071878602553e+00 1.9020255677292273e+01 3.2445668033910579e+01 
472 473 2 1.0280000000000005e+00 7.7760286270676966e+02 1.0000000000000000e+00 1.0192959004577107e+01 1.8420830452383868e+01 3.1975989861381290e+01 
208 209 2 1.0279999999999978e+00 1.1405544564542784e+03 1.0000000000000000e+00 8.0464309749820018e+00 9.4285903200795218e+00 3.4517760697792944e+01 
1407 1408 2 1.0280000000000011e+00 2.9567350461920250e+02 1.0000000000000000e+00 3.1956163251153100e+00 1.1606593087258007e+01 3.3453744849370587e+01 
1186 1187 2 1.0279999999999854e+00 7.0351883699450786e+02 1.0000000000000000e+00 4.0919709330437815e-01 1.6046177034178168e+01 3.3958681153120288e+01 
1095 1096 2 1.0279999999999951e+00 7.0592255093193398e+02 1.0000000000000000e+00 9.1803617699022375e+00 1.1155458540231833e+00 3.5725478208576554e+01 
1435 1436 2 1.0279999999999951e+00 1.4738051271917325e+02 1.0000000000000000e+00 8.5942634986882460e+00 1.8064840024234921e+00 3.5028006840688320e+01 
207 208 2 1.0279999999999978e+00 -1.3933417276178679e+03 1.0000000000000000e+00 8.8602359478519297e+00 8.8957323836469708e+00 3.5118724010460006e+01 
1513 1514 2 1.0279999999999940e+00 -2.4227441153095217e+01 1.0000000000000000e+00 8.3543389075565546e+00 1.3283944129411514e+01 3.5009798659993599e+01 
1516 1517 2 1.0279999999999940e+00 -2.9210765493240814e+01 1.0000000000000000e+00 8.3546123205225804e+00 1.3684714015821617e+01 3.6080665804344825e+01 
1485 1486 2 1.0279999999999909e+00 5.0456324242677317e+02 1.0000000000000000e+00 7.2929303670867087e+00 9.6507757527272915e+00 3.7844462035009968e+01 
89 90 2 1.0280000000000005e+00 5.4886033766453363e+02 1.0000000000000000e+00 1.6519653019892662e+01 1.2607906969454017e+01 3.7960978076888019e+01 
471 472 2 1.0279999999999994e+00 -4.9921293676445538e+02 1.0000000000000000e+00 9.4812596321073417e-02 1.3452040181072213e+01 3.8283776965014852e+01 
90 91 2 1.0280000000000005e+00 5.8705547800943236e+02 1.0000000000000000e+00 1.7372108070904968e+01 1.3356353963847427e+01 3.7817728294878357e+01 
599 600 2 1.0279999999999954e+00 -1.3307928265426772e+03 1.0000000000000000e+00 7.2463952976705244e+00 2.2400967294108734e-01 3.9929411735796151e+01 
1493 1494 2 1.0279999999999909e+00 5.2696902464528966e+02 1.0000000000000000e+00 7.7296903826083847e+00 1.0371549646438222e+01 3.8617183653993848e+01 
927 928 2 1.0279999846255421e+00 -4.8478907660319169e+02 1.0000000000000000e+00 1.0903547161508012e+01 1.2906833691183683e+01 3.9401493337865020e+01 
1202 1203 2 1.0279999999999996e+00 -1.1554229692400281e+03 1.0000000000000000e+00 1.9927714258402759e+01 1.1694962942158227e+01 3.9096476757508597e+01 
323 324 2 1.0279999999999994e+00 7.4084323217861211e+01 1.0000000000000000e+00 8.4447513549578845e-01 1.4244809390369422e+01 3.8625677645925464e+01 
109 110 2 1.0280000000000000e+00 6.9563301689945334e+00 1.0000000000000000e+00 1.4876505036673432e+01 3.3493221661248107e+00 4.0146294642835528e+01 
112 113 2 1.0280000000000000e+00 1.0409075773235100e+01 1.0000000000000000e+00 1.5403883077322609e+01 3.8725678441637004e+00 4.1015466306037567e+01 
1203 1204 2 1.0279999999999996e+00 -1.1346979751081972e+03 1.0000000000000000e+00 1.9912402365860707e+01 1.2054588564179083e+01 4.0181745376511117e+01 
1083 1084 2 1.0280000153130815e+00 1.8421523847416012e+01 1.0000000000000000e+00 1.0324629250416777e+01 1.3543834772681295e+01 4.0154126553700884e+01 
1520 1521 2 1.0280000000000069e+00 2.9609556664373360e+02 1.0000000000000000e+00 9.8760275928657553e+00 1.9869280824582304e+01 4.1005890619167033e+01 
1329 1330 2 1.0279999999999951e+00 9.0867157694431035e+02 1.0000000000000000e+00 7.2699298902466625e+00 4.7856651957265148e+00 4.2756637340486542e+01 
713 714 2 1.0280000153692090e+00 -3.5811706500098927e+02 1.0000000000000000e+00 1.2142239301791651e+01 1.4194304186893763e+01 4.1714233614695580e+01 
102 103 2 1.0279999846816694e+00 1.3015548078605088e+03 1.0000000000000000e+00 1.2150354166271002e+01 1.3380826152188398e+01 4.2517701547457811e+01 
728 729 2 1.0280000000000007e+00 -7.4285443599995529e+02 1.0000000000000000e+00 5.7117807671819900e+00 2.7303816939349828e+00 4.3999603384346358e+01 
723 724 2 1.0280000000000007e+00 -1.3384067890233846e+03 1.0000000000000000e+00 5.6435882278051439e+00 1.9186825563232710e+00 4.4802016809603238e+01 
1333 1334 2 1.0279999999999951e+00 1.1376561695165458e+03 1.0000000000000000e+00 7.7268793090118599e+00 5.1117055724878853e+00 4.3752763797755001e+01 
812 813 2 1.0280000000000009e+00 5.0166197865557012e+02 1.0000000000000000e+00 1.2020881100376942e+01 1.0389684184481734e+01 4.4728346460921586e+01 
1419 1420 2 1.0280000000000009e+00 1.2515426289644652e+03 1.0000000000000000e+00 1.3115767232371059e+01 1.0643819846758257e+01 4.4938137882540701e+01 
1057 1058 2 1.0280000000000076e+00 -4.0770070399146078e+02 1.0000000000000000e+00 1.8609423710437351e+01 1.0674688037938900e+01 4.4465058570835900e+01 
1323 1324 2 1.0280000000000100e+00 -1.3559207837092599e+03 1.0000000000000000e+00 1.7713507669251154e+00 1.4731216647482389e+01 4.4932863066893908e+01 
369 370 2 1.0280000000000000e+00 -7.5392705315007220e+01 1.0000000000000000e+00 4.3695699763011984e+00 1.7698694972404518e+01 4.3911830513096881e+01 
653 654 2 1.0280000000000000e+00 -3.9419154676264441e+02 1.0000000000000000e+00 4.7810128838066772e+00 1.8763676203892445e+01 4.3849358696246099e+01 
1009 1010 2 1.0279919610367194e+00 3.1897609652243973e+03 1.0000000000000000e+00 1.2931488595879323e+01 5.7735327722582941e-01 4.5547352545131162e+01 
1102 1103 2 1.0279999999999985e+00 -1.1985039842695457e+02 1.0000000000000000e+00 3.3934756787135667e+00 3.2924473010392670e+00 4.5774581547937387e+01 
1414 1415 2 1.0279999999999985e+00 -1.4371293259304557e+03 1.0000000000000000e+00 3.8808677804808069e+00 4.2117446046673468e+00 4.5300541017881358e+01 
1505 1506 2 1.0280000000000076e+00 2.6734496281638104e+02 1.0000000000000000e+00 1.9275634053507225e+01 1.0846917280873846e+01 4.5378225523875422e+01 
1331 1332 2 1.0280000000000100e+00 -1.9495929272167330e+03 1.0000000000000000e+00 2.1301296212384022e+00 1.4654828154783274e+01 4.6015829155624068e+01 
1281 1282 2 1.0279999999999949e+00 1.2510098674912804e+03 1.0000000000000000e+00 6.4404514926017393e+00 1.5004041980677027e+01 4.6009624678608247e+01 
175 176 2 1.0279999999999994e+00 -1.8711752456912706e+02 1.0000000000000000e+00 1.2476283582140534e+01 1.5301770186204852e+01 4.5450139499459759e+01 
315 316 2 1.0279999999999994e+00 3.9233565678409423e+02 1.0000000000000000e+00 1.3443602638228146e+01 1.5870860870164341e+01 4.5668777681438648e+01 
505 506 2 1.0280000000000016e+00 -6.2962543694070177e+02 1.0000000000000000e+00 1.8277472388527389e+01 1.5964177997141309e+01 4.5917511813646833e+01 
508 509 2 1.0280000000000016e+00 -6.0392199351455452e+02 1.0000000000000000e+00 1.9381026971851572e+01 1.5759051801061219e+01 4.6135373106135049e+01 
391 392 2 1.0279999999999974e+00 -6.1181021323478581e+02 1.0000000000000000e+00 5.6006011537351190e+00 6.5487472465005636e+00 4.7086564110006037e+01 
73 74 2 1.0279999999999996e+00 7.4738851540321050e+01 1.0000000000000000e+00 1.9988516901368687e+01 5.0049945165427934e+00 4.7619427601054120e+01 
1441 1442 2 1.0279999999999996e+00 7.8355471325648438e+01 1.0000000000000000e+00 1.9672562903899681e+01 6.0936792000343578e+00 4.7768798779241109e+01 
395 396 2 1.0279999999999974e+00 -1.2621468781790782e+03 1.0000000000000000e+00 5.6708767428895914e+00 7.1896100766523743e+00 4.8030878248393023e+01 
1282 1283 2 1.0279999999999949e+00 -1.5709916593189182e+03 1.0000000000000000e+00 5.9851457953443106e+00 1.5211430999330929e+01 4.7037758684682096e+01 
896 897 2 1.0279999999999996e+00 -2.4840231901020348e+02 1.0000000000000000e+00 1.0994614002752961e+01 9.3817697693936530e+00 5.0282340617918358e+01 
279 280 2 1.0279999999999863e+00 -7.0342919158636960e+02 1.0000000000000000e+00 1.4406862738946240e+01 9.4784649153657199e+00 5.1015034148061865e+01 
856 857 2 1.0279999999999996e+00 9.8669376181508619e+02 1.0000000000000000e+00 1.0391080906433913e+01 1.0343675155451120e+01 5.0148703619374089e+01 
704 705 2 1.0280000000000062e+00 9.8781848874585842e+02 1.0000000000000000e+00 1.3197016402296326e+01 1.3823265522338282e+01 5.0075524153380293e+01 
744 745 2 1.0280000000000062e+00 -2.2101283128639022e+02 1.0000000000000000e+00 1.3398524082467073e+01 1.4502099975106510e+01 5.0973272145873608e+01 
1134 1135 2 1.0279999999999978e+00 -7.3492181416507401e+02 1.0000000000000000e+00 9.7399432810107918e+00 1.9778339139089091e+01 5.1079702243374186e+01 
1502 1503 2 1.0280000000000018e+00 8.1200227355389359e+02 1.0000000000000000e+00 1.4234355685950424e+01 6.4344655310829815e+00 5.2110761099511194e+01 
240 241 2 1.0279999999999938e+00 1.4549111074606126e+03 1.0000000000000000e+00 8.5364799972894794e+00 7.5110839168638748e+00 5.2089556596831365e+01 
1503 1504 2 1.0280000000000018e+00 7.9770503538193066e+02 1.0000000000000000e+00 1.4042125427654849e+01 6.9262357387922622e+00 5.3124951716734564e+01 
1143 1144 2 1.0279999999999938e+00 -1.1779795470460090e+02 1.0000000000000000e+00 9.2472433643533698e+00 8.4053871917918901e+00 5.2040463766888543e+01 
591 592 2 1.0279999999999863e+00 1.7264180503162847e+03 1.0000000000000000e+00 1.4371044089139986e+01 9.3861913787561857e+00 5.2154145923185986e+01 
488 489 2 1.0279999999999978e+00 1.0324658138262578e+02 1.0000000000000000e+00 9.8914190555509052e+00 1.9004019877296361e+01 5.1907263593367638e+01 
203 204 2 1.0279999999999876e+00 -1.3866099882422413e+03 1.0000000000000000e+00 8.3248572367057854e+00 7.0777222344930679e-01 5.3999243432531834e+01 
289 290 2 1.0280000000000002e+00 9.0084679945139783e+02 1.0000000000000000e+00 3.0265532363650367e+00 7.0769999969026944e+00 5.4979494536604605e+01 
1356 1357 2 1.0280000000000022e+00 9.0601734439904817e+02 1.0000000000000000e+00 1.0858059846913454e+01 1.2474490039656832e+01 5.3686578906771523e+01 
918 919 2 1.0280000000000022e+00 -1.4634214111581232e+03 1.0000000000000000e+00 1.0492480354816985e+01 1.3034025485074888e+01 5.4614288310484795e+01 
204 205 2 1.0279999999999876e+00 5.7528234334899025e+02 1.0000000000000000e+00 8.1207577267503677e+00 1.0657739926271266e+00 5.5065803857805669e+01 
43 44 2 1.0280000000000027e+00 4.0884309403810516e+02 1.0000000000000000e+00 1.1625606002748572e+01 5.8078307017885289e-01 5.5896737903203416e+01 
705 706 2 1.0280000000000002e+00 7.4942742259815395e+02 1.0000000000000000e+00 3.5313867919358275e+00 6.0587564630420303e+00 5.5104779030375539e+01 
61 62 2 1.0279999999999996e+00 7.3213160136509782e+02 1.0000000000000000e+00 1.4418110379927858e+01 8.2477726896427050e+00 5.5630783367062406e+01 
57 58 2 1.0279999999999996e+00 -5.3170016836791638e+02 1.0000000000000000e+00 1.5537439333845787e+01 8.3086042599649765e+00 5.5405449768964246e+01 
478 479 2 1.0280000000000014e+00 -3.2372127118966728e+02 1.0000000000000000e+00 2.1545076792267452e+00 1.3667986532974011e+01 5.5164738383849517e+01 
626 627 2 1.0280000000000014e+00 -4.7854024842109322e+02 1.0000000000000000e+00 1.9478243195762315e+00 1.4512520125040393e+01 5.5907313644798712e+01 