LAMMPS data file via write_data, version 30 Jul 2016, timestep = 50000000

1520 atoms
8 atom types

0.0000000000000000e+00 4.0000000000000000e+01 xlo xhi
0.0000000000000000e+00 4.0000000000000000e+01 ylo yhi
0.0000000000000000e+00 1.0000000000000000e+02 zlo zhi

Masses

1 3.896
2 5.36
3 20.064
4 8.378
5 8.378
6 8.378
7 8.378
8 8.378

Atoms # meso-molecular

314 315 2 1.0280000000000000e+00 4.0459159952847676e+02 1.0000000000000000e+00 1.7475396406399298e+01 2.0603560552431359e+00 1.0120188837149728e+00 
174 175 2 1.0280000000000000e+00 -1.7197387941402707e+02 1.0000000000000000e+00 1.8081140494945888e+01 3.0007751973311483e+00 1.2487866050032608e+00 
1335 1336 2 1.0279999999999996e+00 -3.6262066836502709e+02 1.0000000000000000e+00 1.6186977553035828e+01 4.9929855280485684e+00 1.3797407360913105e+00 
990 991 2 1.0279999999964640e+00 -4.6801660327056010e+02 1.0000000000000000e+00 1.1608336238052638e+01 8.1332597001018012e+00 1.1106288251831058e+00 
1162 1163 2 1.0280000000029765e+00 -1.3871099933358596e+03 1.0000000000000000e+00 1.2269985678575493e+01 7.2024401795257074e+00 1.2465053195401705e+00 
993 994 2 1.0279999999996401e+00 1.6747456291311883e+03 1.0000000000000000e+00 1.3479456363221164e+01 9.0555596703652554e+00 1.6122073752375250e+00 
1426 1427 2 1.0280000000000007e+00 8.4448285186949562e+01 1.0000000000000000e+00 7.3739504306470742e+00 1.1074571383514444e+01 1.4032957787069924e+00 
58 59 2 1.0280000000000007e+00 2.8957860271723934e+01 1.0000000000000000e+00 8.4695976862212063e+00 1.1004273047810909e+01 1.0839397817241225e+00 
792 793 2 1.0279999999999929e+00 -1.9067268829041512e+02 1.0000000000000000e+00 9.7877834718367733e+00 6.6501797399720375e-01 2.1023662476484106e+00 
1431 1432 2 1.0279999999997951e+00 1.1130767132398350e+03 1.0000000000000000e+00 1.4333494502333528e+01 6.4412407224752384e+00 2.8845742146922766e+00 
1012 1013 2 1.0279999999999996e+00 3.1537204937575152e+03 1.0000000000000000e+00 1.7005153689378051e+01 5.4347647799452083e+00 2.0451668551853071e+00 
134 135 2 1.0279999999995979e+00 8.5836400966593419e+02 1.0000000000000000e+00 1.3288174817771191e+01 7.9264738798250081e+00 3.0306647613599811e+00 
55 56 2 1.0280000000004981e+00 1.9967122369463812e+02 1.0000000000000000e+00 1.5059709291947902e+01 8.0293807902269894e+00 2.7835458841771161e+00 
996 997 2 1.0279999999989156e+00 1.7052109217047346e+03 1.0000000000000000e+00 1.4141472648491318e+01 9.4723323299699711e+00 3.2881336615063335e+00 
1293 1294 2 1.0280000000003653e+00 9.7911474366446578e+02 1.0000000000000000e+00 1.3657878521405241e+01 1.0293797216249009e+01 1.9082245642606270e+00 
475 476 2 1.0280000000000000e+00 1.7807183485759888e+03 1.0000000000000000e+00 2.6528443969607722e+00 1.3029994838470774e+01 3.0506611908601107e+00 
179 180 2 1.0280000000000000e+00 -6.0638305155032504e+02 1.0000000000000000e+00 2.2524248455653408e+00 1.1967764602605712e+01 3.1874242207076415e+00 
1286 1287 2 1.0280000000051515e+00 -9.6469004369939660e+02 1.0000000000000000e+00 1.3670643948962146e+01 1.2421387377347278e+01 2.1033011374179544e+00 
221 222 2 1.0279999999942782e+00 1.0353718132914423e+03 1.0000000000000000e+00 1.4265650335192202e+01 1.2122130550538090e+01 3.0416864816849096e+00 
1201 1202 2 1.0279997483002394e+00 -1.9744795757963539e+02 1.0000000000000000e+00 1.6563651373524845e+01 7.1583516188832269e-02 3.9936737399124440e+00 
1118 1119 2 1.0279999999999956e+00 -1.2034108745466419e+03 1.0000000000000000e+00 4.4114191847053927e+00 5.3365129429552738e+00 4.6728174055112399e+00 
1185 1186 2 1.0279999999981604e+00 1.2241541763886532e+03 1.0000000000000000e+00 1.2122070902002218e+01 6.3794226699820040e+00 4.2343954942146116e+00 
980 981 2 1.0280000000003287e+00 2.7714130558256379e+03 1.0000000000000000e+00 1.5166929093886019e+01 5.9063670402239854e+00 3.8285367736823934e+00 
274 275 2 1.0279999999999800e+00 -1.4393408671245270e+03 1.0000000000000000e+00 1.2771487606202021e+01 8.2352777825128545e+00 4.3854556252412920e+00 
1423 1424 2 1.0279999999994527e+00 1.7530266015774109e+02 1.0000000000000000e+00 1.5587137705543675e+01 7.3795790277139632e+00 3.9389212855709244e+00 
263 264 2 1.0280000000002569e+00 -1.5491833146726426e+03 1.0000000000000000e+00 1.4657992124633704e+01 9.6747727794141518e+00 4.7987961132449239e+00 
379 380 2 1.0280000000008218e+00 6.2007892168859811e+01 1.0000000000000000e+00 1.5993923507743009e+01 9.9591767820131825e+00 3.7976798725742347e+00 
969 970 2 1.0279999999999969e+00 1.6896986742257768e+03 1.0000000000000000e+00 2.6087518957356556e-02 1.0868561900495061e+01 4.5266957669548056e+00 
938 939 2 1.0279999999999969e+00 6.7832061845361341e+02 1.0000000000000000e+00 9.1748341390728760e-01 1.0278563086368408e+01 4.9325131831092968e+00 
375 376 2 1.0279999999989131e+00 -7.5519094834359430e+02 1.0000000000000000e+00 1.5541537363388313e+01 1.1011924867288583e+01 4.4023275147517023e+00 
946 947 2 1.0280000000000007e+00 9.5239033961989185e+02 1.0000000000000000e+00 1.7471140593471695e+01 8.8300851184556139e-01 6.1939030210771815e+00 
794 795 2 1.0280000000000007e+00 -1.3675007886766052e+03 1.0000000000000000e+00 1.6864660755184566e+01 1.8212436007454489e+00 5.9504484233243851e+00 
985 986 2 1.0279999999999956e+00 1.9956835124887613e+02 1.0000000000000000e+00 5.1179360298929719e+00 5.8393419753562448e+00 5.4180488655957246e+00 
1189 1190 2 1.0280000000013882e+00 -3.4796678499494601e+02 1.0000000000000000e+00 1.1599346567296580e+01 6.3526062078127152e+00 5.2840012103094374e+00 
1390 1391 2 1.0280000000000520e+00 1.8953896645765579e+02 1.0000000000000000e+00 1.1776136863453933e+01 8.1639723586506037e+00 6.0291743875496993e+00 
280 281 2 1.0280000000001133e+00 -1.9226439036805177e+03 1.0000000000000000e+00 1.3406196293501480e+01 8.8709529890871242e+00 5.6025952877139424e+00 
1287 1288 2 1.0280000000000049e+00 -8.9314338190548642e+02 1.0000000000000000e+00 1.9773600371661914e+01 1.0230919931019249e+00 8.0083904873810692e+00 
7 8 2 1.0279999999999956e+00 -1.5342647230411530e+03 1.0000000000000000e+00 1.6225628070549234e+01 4.6219804971152270e+00 6.7052017606031242e+00 
1375 1376 2 1.0279999999999956e+00 -1.5490676393987214e+03 1.0000000000000000e+00 1.5519302364029858e+01 3.7747142491468533e+00 7.0062282026680336e+00 
22 23 2 1.0280000000000160e+00 1.3457373306890193e+02 1.0000000000000000e+00 1.2488721765169148e+01 8.6553504589345156e+00 6.9747700473647418e+00 
1467 1468 2 1.0280000000000040e+00 1.6634572769606854e+02 1.0000000000000000e+00 1.4417922965669760e+01 1.1916482653475901e+01 7.6750386138145590e+00 
806 807 2 1.0279999999999974e+00 -1.3470927839693659e+03 1.0000000000000000e+00 3.2501913926718090e-01 1.4711204841754428e+01 7.9156016160585629e+00 
825 826 2 1.0279999999999987e+00 5.3701414550271363e+02 1.0000000000000000e+00 2.4073715231760686e+00 1.9706488510027253e+01 7.0134502350390466e+00 
945 946 2 1.0279999999999987e+00 1.5941848933340034e+03 1.0000000000000000e+00 2.6130518936605953e+00 1.9885017414920249e+01 8.1239438337481076e+00 
1372 1373 2 1.0280000000000049e+00 4.7653460572692609e+02 1.0000000000000000e+00 1.8888815461516426e+01 1.1501161084521301e+00 8.7214077062173736e+00 
1240 1241 2 1.0279999999999994e+00 1.1722857110215759e+02 1.0000000000000000e+00 1.2083022320800623e+01 5.5539644704227733e+00 8.5495797192707510e+00 
1236 1237 2 1.0279999999999994e+00 -5.1819306571363518e+02 1.0000000000000000e+00 1.3027949606127816e+01 6.1528393211476020e+00 8.7858726647266820e+00 
504 505 2 1.0279999999999956e+00 8.0100173516987797e+02 1.0000000000000000e+00 1.7696086401538975e+00 7.6580782601472830e+00 9.8219444610549598e+00 
960 961 2 1.0279999999999956e+00 6.2653169045130608e+02 1.0000000000000000e+00 1.3891214523747237e+00 8.7291312563339147e+00 9.6976544906056343e+00 
673 674 2 1.0280000000000040e+00 5.0634127553859139e+02 1.0000000000000000e+00 1.4431546622110037e+01 1.2739457670207035e+01 8.4687007177859606e+00 
1091 1092 2 1.0280000000000000e+00 6.0835504288951017e+02 1.0000000000000000e+00 8.1337823966996705e+00 1.4021655959704207e+01 9.7590367868549563e+00 
374 375 2 1.0279999999999987e+00 -6.5020542635820038e+02 1.0000000000000000e+00 9.9574970272334564e+00 1.8151899875426810e+01 9.8465236439776671e+00 
378 379 2 1.0279999999999987e+00 1.0391149272501201e+02 1.0000000000000000e+00 1.0449048797117449e+01 1.8989489892272790e+01 9.2430397264930235e+00 
808 809 2 1.0280000000000000e+00 -3.4723522135190683e+02 1.0000000000000000e+00 1.6086387820674958e+01 7.6879269452123991e+00 1.0377684747337492e+01 
1132 1133 2 1.0280000000000000e+00 -4.3706013185275268e+01 1.0000000000000000e+00 1.6155033675728642e+01 8.8292483949762364e+00 1.0370894139731277e+01 
663 664 2 1.0279999999999996e+00 -1.4158088513084008e+03 1.0000000000000000e+00 1.6724912491212006e+01 1.2817934671972429e+01 1.1434300427507583e+01 
1087 1088 2 1.0280000000000000e+00 -1.0971922764552394e+03 1.0000000000000000e+00 8.5036539347621414e+00 1.5016485438499609e+01 1.0184339468376846e+01 
774 775 2 1.0280000000000005e+00 -7.2942659255497517e+02 1.0000000000000000e+00 7.5575272347142120e+00 1.9549427557589066e+01 1.0333897342397723e+01 
1 2 2 1.0279999999999994e+00 4.6502726772097401e+02 1.0000000000000000e+00 4.3703015150767586e+00 4.9988820229845574e+00 1.2587848720631634e+01 
1246 1247 2 1.0280000000000049e+00 -1.3693930745474850e+03 1.0000000000000000e+00 1.7697181197112968e+01 4.3710367399416485e+00 1.3112775389912139e+01 
4 5 2 1.0279999999999994e+00 4.8183900792402403e+02 1.0000000000000000e+00 5.4462125309385190e+00 5.0574665719413838e+00 1.2970414210488707e+01 
297 298 2 1.0280000000000011e+00 -1.3379258223193897e+03 1.0000000000000000e+00 1.3923816150031680e+01 6.0837986411724998e+00 1.2037191173826484e+01 
533 534 2 1.0280000000000005e+00 3.7769824690692565e+02 1.0000000000000000e+00 1.1682850497285997e+01 8.1699390648401735e+00 1.2148338562266014e+01 
300 301 2 1.0280000000000011e+00 -1.2586629968860079e+03 1.0000000000000000e+00 1.3856036932827351e+01 6.7425908292203260e+00 1.2969270488123858e+01 
402 403 2 1.0280000000000005e+00 -1.2321424132105931e+03 1.0000000000000000e+00 1.1527657864755080e+01 8.7816564633420384e+00 1.3101800721261835e+01 
667 668 2 1.0279999999999996e+00 -2.2076705691670313e+03 1.0000000000000000e+00 1.5707307221093901e+01 1.2772561974640073e+01 1.1953717263991910e+01 
695 696 2 1.0279999991455284e+00 -1.5376773953967572e+03 1.0000000000000000e+00 1.9094765100446537e+01 1.3048305664688307e+01 1.3023627773503264e+01 
1319 1320 2 1.0280000000000005e+00 -1.3800122677466925e+03 1.0000000000000000e+00 1.3660731236157442e+01 1.4610510402706378e+01 1.3243865992423416e+01 
356 357 2 1.0280000008362034e+00 -4.6562153380336525e+02 1.0000000000000000e+00 1.9173350672353859e+01 1.4143053492025327e+01 1.2703121106582291e+01 
567 568 2 1.0280000000000016e+00 2.1584607672589993e+02 1.0000000000000000e+00 1.3987371509937427e+01 1.8359286970997579e+00 1.4023849700854308e+01 
60 61 2 1.0280000000000049e+00 -5.3896093268817663e+02 1.0000000000000000e+00 1.7126050726126724e+01 4.9529923658882273e+00 1.3914343011513010e+01 
1484 1485 2 1.0280000000000054e+00 -1.1921793717330927e+02 1.0000000000000000e+00 1.6983549776572179e+01 9.7922361099110287e+00 1.4074770597832650e+01 
1504 1505 2 1.0280000000000054e+00 -1.9655743795291926e+02 1.0000000000000000e+00 1.7859757982602133e+01 9.7349958246958241e+00 1.4807133722855319e+01 
125 126 2 1.0279999530199806e+00 5.6175651681649435e+02 1.0000000000000000e+00 7.1167111581706557e+00 1.1480599692489701e+01 1.4793809417456607e+01 
117 118 2 1.0280000465802204e+00 4.9818768736944116e+02 1.0000000000000000e+00 6.8237078259813870e+00 1.2581616010104849e+01 1.4697416906233022e+01 
1320 1321 2 1.0280000000000005e+00 5.5410612279654856e+02 1.0000000000000000e+00 1.4653173194818901e+01 1.4438236582402574e+01 1.3784933185094417e+01 
1489 1490 2 1.0279999991446445e+00 1.0123265094744002e+03 1.0000000000000000e+00 1.8311237053660491e+01 1.6105608086168683e+01 1.4526073476113265e+01 
1197 1198 2 1.0280000008353192e+00 1.0220843051093448e+03 1.0000000000000000e+00 1.8674962432868153e+01 1.5106249257407026e+01 1.4946024426834976e+01 
278 279 2 1.0279999999999920e+00 -6.5588375934645501e+02 1.0000000000000000e+00 3.4568259528185868e-01 1.8827856817780635e+01 1.4219105822237175e+01 
495 496 2 1.0280000000000016e+00 -9.3356234295099796e+01 1.0000000000000000e+00 1.4151436527385638e+01 1.8437584666457307e+00 1.5155394831292025e+01 
276 277 2 1.0280000465538348e+00 1.2294889098438584e+03 1.0000000000000000e+00 8.6597375073432072e+00 1.2993012263912037e+01 1.6269768624819651e+01 
1239 1240 2 1.0279999999999994e+00 -1.6548760113433497e+02 1.0000000000000000e+00 1.1337979191048550e+01 1.9397758528732723e+01 1.6258818584242050e+01 
1075 1076 2 1.0279999999999994e+00 4.4439205595057240e+02 1.0000000000000000e+00 1.1700590599688635e+01 1.8881985038106336e+01 1.5304950831275283e+01 
625 626 2 1.0279999999999965e+00 -1.8838606569675107e+02 1.0000000000000000e+00 1.1283283002307881e+01 4.5455510324362312e+00 1.7014810621940274e+01 
777 778 2 1.0279999999999965e+00 -2.2622000924579754e+02 1.0000000000000000e+00 1.0999927074097259e+01 5.1245664725211206e+00 1.7959174723095096e+01 
560 561 2 1.0279999529935948e+00 -7.3387103750485960e+02 1.0000000000000000e+00 8.1505110047469849e+00 1.2188234128384703e+01 1.6902540244199344e+01 
1144 1145 2 1.0279999999999994e+00 6.8967561022893074e+02 1.0000000000000000e+00 1.5161591249095597e+01 1.6623659225564683e+01 1.8326423609136004e+01 
844 845 2 1.0279999999999994e+00 3.3038937705359530e+02 1.0000000000000000e+00 1.4287923348930462e+01 1.7210020346158242e+01 1.7878921593569533e+01 
711 712 2 1.0280000000139740e+00 -1.3509640476288164e+03 1.0000000000000000e+00 7.2069463409816255e+00 1.8342181616544277e+01 1.8026152706691988e+01 
850 851 2 1.0279999999999994e+00 -1.6170693975590461e+03 1.0000000000000000e+00 1.4815668286816621e+01 4.3056636222683906e+00 1.9751633017902851e+01 
1476 1477 2 1.0280000000000002e+00 2.2909542460419441e+01 1.0000000000000000e+00 1.6742884007617196e+01 4.4412076891272800e+00 1.9922055330529137e+01 
1002 1003 2 1.0280000000000009e+00 7.7898941386592787e+02 1.0000000000000000e+00 1.4751295444750458e+01 5.4729778844780608e+00 1.9592583953415346e+01 
568 569 2 1.0279999999999996e+00 2.4950823366593081e+03 1.0000000000000000e+00 1.6655835662189666e+01 5.6178275753420195e+00 1.9929216572773054e+01 
393 394 2 1.0280000000000091e+00 6.2319997312765702e+02 1.0000000000000000e+00 2.1293424223430808e+00 1.5803148781140804e+01 1.9399031663660555e+01 
710 711 2 1.0279999999891580e+00 -1.3783239048304567e+03 1.0000000000000000e+00 6.2027363934143214e+00 1.8008084243837367e+01 1.8468021059057406e+01 
1433 1434 2 1.0280000000076890e+00 -7.2001337790126087e+01 1.0000000000000000e+00 6.7290742541471857e+00 1.9835338032298861e+01 1.9579713615915672e+01 
406 407 2 1.0279999999999954e+00 1.5718807017528792e+02 1.0000000000000000e+00 1.8876656859796892e+01 5.3172696521402445e+00 2.1655856714164663e+01 
1150 1151 2 1.0280000000000091e+00 -6.1477830597560251e+02 1.0000000000000000e+00 2.4796818584603195e+00 1.6021916017154069e+01 2.0465228734284402e+01 
1442 1443 2 1.0280000000000071e+00 5.3121896863436007e+02 1.0000000000000000e+00 4.0183903691161644e+00 1.8541157570696745e+00 2.2540963631646409e+01 
1147 1148 2 1.0279999999999954e+00 -2.9728615873528938e+01 1.0000000000000000e+00 1.9270051613762586e+01 5.5869991168273998e+00 2.2695019646957501e+01 
813 814 2 1.0279999999999845e+00 7.3469344174010484e+02 1.0000000000000000e+00 4.7050812464809297e+00 1.6000380719363264e+01 2.2402334143585854e+01 
1229 1230 2 1.0279999999999845e+00 8.7327721348093746e+02 1.0000000000000000e+00 4.4695829458426628e+00 1.5138445425967669e+01 2.3115763269606333e+01 
1446 1447 2 1.0280000000000071e+00 5.6485798761906381e+02 1.0000000000000000e+00 3.4083778161818565e+00 2.1423856918032591e+00 2.3464087755180170e+01 
929 930 2 1.0280000000000020e+00 7.5595258213915031e+02 1.0000000000000000e+00 6.4279060122958454e+00 7.3752983127982423e+00 2.4690237612898422e+01 
1387 1388 2 1.0280000000000005e+00 7.9318408210722623e+02 1.0000000000000000e+00 4.5776834087565019e+00 9.3760812609406869e+00 2.4628988860220062e+01 
1247 1248 2 1.0280000000000005e+00 -1.4272248153649612e+03 1.0000000000000000e+00 4.6986034665189740e+00 1.0465606039866158e+01 2.4954084404940168e+01 
21 22 2 1.0280000000000045e+00 4.1204075861758793e+02 1.0000000000000000e+00 2.7981653077661814e+00 1.8213939951316171e+01 2.3916207928189959e+01 
24 25 2 1.0280000000000045e+00 4.0753343010978915e+02 1.0000000000000000e+00 3.6045039918362693e+00 1.8502172020560703e+01 2.4673910520431701e+01 
786 787 2 1.0280000000000020e+00 1.6695265637868385e+01 1.0000000000000000e+00 6.5370907419372042e+00 7.2225958356681561e+00 2.5818126643676809e+01 
1105 1106 2 1.0280000000000016e+00 -4.9670874335378107e+02 1.0000000000000000e+00 1.7695856458329355e+00 1.3876732848150093e+00 2.8049707476507951e+01 
1101 1102 2 1.0280000000000016e+00 7.0600875762251962e+02 1.0000000000000000e+00 1.4642402656515650e+00 2.0322521843012118e+00 2.7156032334972849e+01 
269 270 2 1.0279999999999996e+00 1.0990845356944506e+03 1.0000000000000000e+00 1.4303937730283510e+01 1.0703840723074405e+01 2.8296659044674037e+01 
920 921 2 1.0279999999999996e+00 -3.5907091587740615e+02 1.0000000000000000e+00 4.9446205977435582e+00 1.8790398368515280e+01 2.7364910820778359e+01 
1384 1385 2 1.0279999999999996e+00 2.1860771135980031e+02 1.0000000000000000e+00 5.7306946457716297e+00 1.9456532889411928e+01 2.6869203842266561e+01 
1038 1039 2 1.0279999999999996e+00 7.4541178178637756e+02 1.0000000000000000e+00 1.3989886089510957e+01 1.1758529568456794e+01 2.8607103925148451e+01 
1357 1358 2 1.0279999999999947e+00 3.7025853074605720e+02 1.0000000000000000e+00 1.8244583654839563e+01 4.4590483088706570e-02 3.0944829822577272e+01 
1360 1361 2 1.0279999999999947e+00 3.5191309287632293e+02 1.0000000000000000e+00 1.9059677982187928e+01 3.7762880819936495e-01 3.0215391868402438e+01 
1274 1275 2 1.0280000000000000e+00 -1.7191531758520055e+03 1.0000000000000000e+00 2.9511922377920136e-01 8.0213459952037809e+00 3.0817671979878174e+01 
1273 1274 2 1.0280000000000000e+00 1.0064517957764049e+03 1.0000000000000000e+00 4.0024733692428072e-01 9.1596074491369563e+00 3.0843786339438196e+01 
1049 1050 2 1.0280076149848041e+00 8.0703756783223423e+02 1.0000000000000000e+00 6.9072052067823431e-01 1.4528093957806087e+01 3.0360382507140493e+01 
901 902 2 1.0279923865131366e+00 3.6209804346755686e+02 1.0000000000000000e+00 1.1741696646650113e+00 1.4140222991273774e+01 3.1321235568560923e+01 
800 801 2 1.0280000000000002e+00 4.1427369428060297e+02 1.0000000000000000e+00 8.1485243126977309e+00 1.3342094327721572e+01 3.0389126748056576e+01 
797 798 2 1.0280000000000002e+00 5.1372711089102484e+02 1.0000000000000000e+00 7.0336990374214414e+00 1.3564480657613064e+01 3.0511935311851115e+01 
571 572 2 1.0280000000000000e+00 -3.3774378947907408e+01 1.0000000000000000e+00 1.9081034219749210e+01 1.4573359629163921e+01 3.0541757060166123e+01 
384 385 2 1.0280000000000000e+00 7.6486048074675136e+02 1.0000000000000000e+00 1.8881091243804402e+01 1.5697696289445522e+01 3.0484635276441441e+01 
860 861 2 1.0280004921615460e+00 7.4004284935720136e+02 1.0000000000000000e+00 6.7910436540937447e-01 1.6864859693464023e+01 3.0967250268267897e+01 
158 159 2 1.0279998021118406e+00 -9.3421102230805354e+02 1.0000000000000000e+00 4.1400803758175214e-01 1.8891151844927471e+01 3.1385301396398212e+01 
881 882 2 1.0280000000000000e+00 -1.9670623290126247e+02 1.0000000000000000e+00 4.4224855372908198e+00 5.4808481679185928e+00 3.2367121527880535e+01 
884 885 2 1.0280000000000000e+00 -2.0696599771447001e+02 1.0000000000000000e+00 4.0802073681698863e+00 6.5569052538626282e+00 3.2187344387532846e+01 
919 920 2 1.0279998329795659e+00 -1.4686852372283661e+03 1.0000000000000000e+00 5.5708535359225730e-01 1.6948344623102276e+01 3.2126192119400756e+01 
1403 1404 2 1.0279999999999907e+00 -1.9232336716394735e+02 1.0000000000000000e+00 4.2486044615932048e+00 1.1696129182756943e+01 3.4735666492020115e+01 
275 276 2 1.0280470946636373e+00 -1.4613318220029093e+03 1.0000000000000000e+00 1.1974470082082216e+00 1.8174464241541667e+01 3.4042699132054693e+01 
620 621 2 1.0279999999999982e+00 3.0488640970375525e+02 1.0000000000000000e+00 9.2158480852507836e+00 1.7851967276912298e+01 3.4506624094861678e+01 
135 136 2 1.0279532031426242e+00 8.8263569025976233e+02 1.0000000000000000e+00 1.7153386289691737e+00 1.9188693681149918e+01 3.4146139995068694e+01 
472 473 2 1.0279999999999982e+00 7.7760286270676966e+02 1.0000000000000000e+00 1.0043382919725774e+01 1.8593161609372871e+01 3.4236087449067576e+01 
1407 1408 2 1.0279999999999907e+00 2.9567350461920250e+02 1.0000000000000000e+00 3.2156714094417684e+00 1.1805285303715637e+01 3.5213690830824270e+01 
1186 1187 2 1.0279999999999943e+00 7.0351883699450786e+02 1.0000000000000000e+00 2.3998432125585897e-01 1.6625314504602652e+01 3.6292321160455153e+01 
1095 1096 2 1.0280000000000036e+00 7.0592255093193398e+02 1.0000000000000000e+00 9.0630158616229615e+00 1.5033120303985916e+00 3.7824454068255740e+01 
1435 1436 2 1.0280000000000036e+00 1.4738051271917325e+02 1.0000000000000000e+00 8.4769175904089700e+00 2.1942501787846735e+00 3.7126982700353437e+01 
208 209 2 1.0279999999999987e+00 1.1405544564542784e+03 1.0000000000000000e+00 8.5714567386466456e+00 9.1069666202953901e+00 3.6828569122936393e+01 
207 208 2 1.0279999999999987e+00 -1.3933417276178679e+03 1.0000000000000000e+00 9.3852617115165735e+00 8.5741086838628107e+00 3.7429532435603427e+01 
1513 1514 2 1.0280000000000189e+00 -2.4227441153095217e+01 1.0000000000000000e+00 8.1067055604841034e+00 1.3606549713968837e+01 3.7269759013529985e+01 
1485 1486 2 1.0280000000000025e+00 5.0456324242677317e+02 1.0000000000000000e+00 7.3569254568476037e+00 9.9969692180887577e+00 3.9881866165587859e+01 
471 472 2 1.0280000000000005e+00 -4.9921293676445538e+02 1.0000000000000000e+00 3.3448615350450855e-01 1.3567503887934542e+01 3.9707615344946888e+01 
1516 1517 2 1.0280000000000189e+00 -2.9210765493240814e+01 1.0000000000000000e+00 8.1069789734501292e+00 1.4007319600378940e+01 3.8340626157881161e+01 
90 91 2 1.0280000000000000e+00 5.8705547800943236e+02 1.0000000000000000e+00 1.7604032991417906e+01 1.3439090480862719e+01 3.9970412133016630e+01 
599 600 2 1.0279999999999834e+00 -1.3307928265426772e+03 1.0000000000000000e+00 7.4725453602582732e+00 2.2419927294286973e-01 4.1525769759131677e+01 
1493 1494 2 1.0280000000000025e+00 5.2696902464528966e+02 1.0000000000000000e+00 7.7936854723693489e+00 1.0717743111799688e+01 4.0654587784571667e+01 
89 90 2 1.0280000000000000e+00 5.4886033766453363e+02 1.0000000000000000e+00 1.6751577940405600e+01 1.2690643486469309e+01 4.0113661915026299e+01 
1202 1203 2 1.0279999999999996e+00 -1.1554229692400281e+03 1.0000000000000000e+00 1.9970831056001700e+01 1.1779788464053709e+01 4.0653273602724354e+01 
323 324 2 1.0280000000000005e+00 7.4084323217861211e+01 1.0000000000000000e+00 1.0841486926770822e+00 1.4360273097231751e+01 4.0049516025862189e+01 
109 110 2 1.0279999999999971e+00 6.9563301689945334e+00 1.0000000000000000e+00 1.4363606064668527e+01 3.1308281050587006e+00 4.2398547020700171e+01 
112 113 2 1.0279999999999971e+00 1.0409075773235100e+01 1.0000000000000000e+00 1.4890984105317704e+01 3.6540737830975902e+00 4.3267718683902217e+01 
927 928 2 1.0279999996947018e+00 -4.8478908013366993e+02 1.0000000000000000e+00 1.0916188978624486e+01 1.3181781970998459e+01 4.1741574679915303e+01 
1203 1204 2 1.0279999999999996e+00 -1.1346979751081972e+03 1.0000000000000000e+00 1.9955519163459648e+01 1.2139414086074565e+01 4.1738542221726874e+01 
1083 1084 2 1.0280000003144922e+00 1.8421507646591245e+01 1.0000000000000000e+00 1.0341126583928864e+01 1.3819083614410504e+01 4.2496904327337553e+01 
1329 1330 2 1.0279999999999987e+00 9.0867157694431035e+02 1.0000000000000000e+00 7.5038615315935475e+00 5.0513524545867403e+00 4.4938795172105650e+01 
713 714 2 1.0280000003246064e+00 -3.5811708087004740e+02 1.0000000000000000e+00 1.2112789730535512e+01 1.4245143329263609e+01 4.4198708856896360e+01 
1520 1521 2 1.0280000000000069e+00 2.9609556664373360e+02 1.0000000000000000e+00 1.0233089961160447e+01 1.9905051754267291e+01 4.3448948383817644e+01 
728 729 2 1.0279999999999916e+00 -7.4285443599995529e+02 1.0000000000000000e+00 5.7387051520369550e+00 2.4756121169340584e+00 4.6043423874471927e+01 
1333 1334 2 1.0279999999999987e+00 1.1376561695165458e+03 1.0000000000000000e+00 7.9608109503587450e+00 5.3773928313481107e+00 4.5934921629374102e+01 
812 813 2 1.0280000000000000e+00 5.0166197865557012e+02 1.0000000000000000e+00 1.1445841936002539e+01 1.0044374290380869e+01 4.6519672810155427e+01 
1057 1058 2 1.0280000000000076e+00 -4.0770070399146078e+02 1.0000000000000000e+00 1.7980193575418763e+01 1.1193456619453350e+01 4.5905141038880835e+01 
102 103 2 1.0279999997048157e+00 1.3015548046643703e+03 1.0000000000000000e+00 1.2124292972522976e+01 1.3433725028595019e+01 4.5004215551768858e+01 
369 370 2 1.0280000000000000e+00 -7.5392705315007220e+01 1.0000000000000000e+00 4.5965669997903600e+00 1.7802002042680577e+01 4.6104414013283467e+01 
653 654 2 1.0280000000000000e+00 -3.9419154676264441e+02 1.0000000000000000e+00 5.0080099072958388e+00 1.8866983274168504e+01 4.6041942196432693e+01 
723 724 2 1.0279999999999916e+00 -1.3384067890233846e+03 1.0000000000000000e+00 5.6705126126601089e+00 1.6639129792898222e+00 4.6845837299695930e+01 
1009 1010 2 1.0280000000000036e+00 3.1897609564816139e+03 1.0000000000000000e+00 1.2807305895993425e+01 7.7277593157756297e-01 4.7103558485600267e+01 
1102 1103 2 1.0280000000000016e+00 -1.1985039842695457e+02 1.0000000000000000e+00 2.9879916995201894e+00 3.1151205269746991e+00 4.8198550596877041e+01 
1414 1415 2 1.0280000000000016e+00 -1.4371293259304557e+03 1.0000000000000000e+00 3.4753838012874296e+00 4.0344178306027789e+00 4.7724510066821026e+01 
1419 1420 2 1.0280000000000000e+00 1.2515426289644652e+03 1.0000000000000000e+00 1.2540728067996657e+01 1.0298509952657392e+01 4.6729464231774550e+01 
1505 1506 2 1.0280000000000076e+00 2.6734496281638104e+02 1.0000000000000000e+00 1.8646403918488637e+01 1.1365685862388297e+01 4.6818307991920356e+01 
1323 1324 2 1.0279999999999925e+00 -1.3559207837092599e+03 1.0000000000000000e+00 1.8567331588139633e+00 1.4663988689171012e+01 4.6765034286902399e+01 
1331 1332 2 1.0279999999999925e+00 -1.9495929272167330e+03 1.0000000000000000e+00 2.2155120130618320e+00 1.4587600196471897e+01 4.7848000375654266e+01 
1281 1282 2 1.0280000000000085e+00 1.2510098674912804e+03 1.0000000000000000e+00 6.6546007193088892e+00 1.5254902232714937e+01 4.7413927556705119e+01 
175 176 2 1.0279999999999994e+00 -1.8711752456912706e+02 1.0000000000000000e+00 1.2245599532145045e+01 1.5323610246986949e+01 4.7591930990962744e+01 
315 316 2 1.0279999999999994e+00 3.9233565678409423e+02 1.0000000000000000e+00 1.3212918588232657e+01 1.5892700930946438e+01 4.7810569172941634e+01 
505 506 2 1.0280000000000000e+00 -6.2962543694070177e+02 1.0000000000000000e+00 1.8578613977008867e+01 1.5613631054911952e+01 4.8321372274985215e+01 
391 392 2 1.0280000000000005e+00 -6.1181021323478581e+02 1.0000000000000000e+00 5.6267339307441437e+00 6.3832073759780839e+00 4.8692041155459719e+01 
73 74 2 1.0279999999999996e+00 7.4738851540321050e+01 1.0000000000000000e+00 1.9524288434856292e+01 5.3895243350184918e+00 4.9049005764115250e+01 
1441 1442 2 1.0279999999999996e+00 7.8355471325648438e+01 1.0000000000000000e+00 1.9208334437387286e+01 6.4782090185100563e+00 4.9198376942302239e+01 
395 396 2 1.0280000000000005e+00 -1.2621468781790782e+03 1.0000000000000000e+00 5.6970095198986161e+00 7.0240702061298945e+00 4.9636355293846698e+01 
1282 1283 2 1.0280000000000085e+00 -1.5709916593189182e+03 1.0000000000000000e+00 6.1992950220514604e+00 1.5462291251368839e+01 4.8442061562778939e+01 
508 509 2 1.0280000000000000e+00 -6.0392199351455452e+02 1.0000000000000000e+00 1.9682168560333025e+01 1.5408504858831861e+01 4.8539233567473573e+01 
896 897 2 1.0280000000000007e+00 -2.4840231901020348e+02 1.0000000000000000e+00 1.1272956579118237e+01 9.3362614064489513e+00 5.2257107106103199e+01 
279 280 2 1.0279999999999974e+00 -7.0342919158636960e+02 1.0000000000000000e+00 1.4395358955420472e+01 9.5420518452205840e+00 5.3045389726071818e+01 
856 857 2 1.0280000000000007e+00 9.8669376181508619e+02 1.0000000000000000e+00 1.0669423482799189e+01 1.0298166792506418e+01 5.2123470107558944e+01 
704 705 2 1.0280000000000005e+00 9.8781848874585842e+02 1.0000000000000000e+00 1.3353800450795829e+01 1.3951233819985667e+01 5.1764528411502631e+01 
744 745 2 1.0280000000000005e+00 -2.2101283128639022e+02 1.0000000000000000e+00 1.3555308130966576e+01 1.4630068272753896e+01 5.2662276403995961e+01 
1502 1503 2 1.0280000000000049e+00 8.1200227355389359e+02 1.0000000000000000e+00 1.3683238003615690e+01 6.5016334275721768e+00 5.4351908985563981e+01 
240 241 2 1.0280000000000018e+00 1.4549111074606126e+03 1.0000000000000000e+00 9.0610890347450272e+00 7.5189514087662772e+00 5.4161567713796778e+01 
1143 1144 2 1.0280000000000018e+00 -1.1779795470460090e+02 1.0000000000000000e+00 9.7718524018089177e+00 8.4132546836944702e+00 5.4112474883857537e+01 
591 592 2 1.0279999999999974e+00 1.7264180503162847e+03 1.0000000000000000e+00 1.4359540305614217e+01 9.4497783086110498e+00 5.4184501501195918e+01 
488 489 2 1.0279999999999920e+00 1.0324658138262578e+02 1.0000000000000000e+00 1.0353608456968750e+01 1.9374935581491702e+01 5.3839265824361178e+01 
203 204 2 1.0279999999999920e+00 -1.3866099882422413e+03 1.0000000000000000e+00 8.2081141315672461e+00 1.3694516242317407e+00 5.5838122107121883e+01 
1503 1504 2 1.0280000000000049e+00 7.9770503538193066e+02 1.0000000000000000e+00 1.3491007745320115e+01 6.9934036352814575e+00 5.5366099602787344e+01 
1356 1357 2 1.0279999999999991e+00 9.0601734439904817e+02 1.0000000000000000e+00 1.0457244575451602e+01 1.2764232267378322e+01 5.5667904560501626e+01 