LAMMPS data file via write_data, version 30 Jul 2016, timestep = 1000000

2080 atoms
8 atom types

0.0000000000000000e+00 4.0000000000000000e+01 xlo xhi
0.0000000000000000e+00 4.0000000000000000e+01 ylo yhi
0.0000000000000000e+00 1.0000000000000000e+02 zlo zhi

Masses

1 3.896
2 4.306
3 20.064
4 8.378
5 8.378
6 8.378
7 8.378
8 8.378

Atoms # meso-molecular

1 2 4 2.2559723595316457e+00 0.0000000000000000e+00 1.0000000000000000e+00 0.0000000000000000e+00 0.0000000000000000e+00 2.5000000000000000e+00 
2 2 4 2.2559723595316457e+00 0.0000000000000000e+00 1.0000000000000000e+00 0.0000000000000000e+00 2.0000000000000000e+00 2.5000000000000000e+00 
3 2 4 2.2559723595316457e+00 0.0000000000000000e+00 1.0000000000000000e+00 0.0000000000000000e+00 4.0000000000000000e+00 2.5000000000000000e+00 
4 2 4 2.2559723595316457e+00 0.0000000000000000e+00 1.0000000000000000e+00 0.0000000000000000e+00 6.0000000000000000e+00 2.5000000000000000e+00 
21 2 4 2.2559723595316457e+00 0.0000000000000000e+00 1.0000000000000000e+00 2.0000000000000000e+00 0.0000000000000000e+00 2.5000000000000000e+00 
22 2 4 2.2559723595316457e+00 0.0000000000000000e+00 1.0000000000000000e+00 2.0000000000000000e+00 2.0000000000000000e+00 2.5000000000000000e+00 
23 2 4 2.2559723595316457e+00 0.0000000000000000e+00 1.0000000000000000e+00 2.0000000000000000e+00 4.0000000000000000e+00 2.5000000000000000e+00 
24 2 4 2.2559723595316457e+00 0.0000000000000000e+00 1.0000000000000000e+00 2.0000000000000000e+00 6.0000000000000000e+00 2.5000000000000000e+00 
41 2 4 2.2559723595316457e+00 0.0000000000000000e+00 1.0000000000000000e+00 4.0000000000000000e+00 0.0000000000000000e+00 2.5000000000000000e+00 
42 2 4 2.2559723595316457e+00 0.0000000000000000e+00 1.0000000000000000e+00 4.0000000000000000e+00 2.0000000000000000e+00 2.5000000000000000e+00 
43 2 4 2.2559723595316457e+00 0.0000000000000000e+00 1.0000000000000000e+00 4.0000000000000000e+00 4.0000000000000000e+00 2.5000000000000000e+00 
44 2 4 2.2559723595316457e+00 0.0000000000000000e+00 1.0000000000000000e+00 4.0000000000000000e+00 6.0000000000000000e+00 2.5000000000000000e+00 
61 2 4 2.2559723595316457e+00 0.0000000000000000e+00 1.0000000000000000e+00 6.0000000000000000e+00 0.0000000000000000e+00 2.5000000000000000e+00 
62 2 4 2.2559723595316457e+00 0.0000000000000000e+00 1.0000000000000000e+00 6.0000000000000000e+00 2.0000000000000000e+00 2.5000000000000000e+00 
63 2 4 2.2559723595316457e+00 0.0000000000000000e+00 1.0000000000000000e+00 6.0000000000000000e+00 4.0000000000000000e+00 2.5000000000000000e+00 
64 2 4 2.2559723595316457e+00 0.0000000000000000e+00 1.0000000000000000e+00 6.0000000000000000e+00 6.0000000000000000e+00 2.5000000000000000e+00 
81 2 4 2.2559723595316457e+00 0.0000000000000000e+00 1.0000000000000000e+00 8.0000000000000000e+00 0.0000000000000000e+00 2.5000000000000000e+00 
82 2 4 2.2559723595316457e+00 0.0000000000000000e+00 1.0000000000000000e+00 8.0000000000000000e+00 2.0000000000000000e+00 2.5000000000000000e+00 
83 2 4 2.2559723595316457e+00 0.0000000000000000e+00 1.0000000000000000e+00 8.0000000000000000e+00 4.0000000000000000e+00 2.5000000000000000e+00 
84 2 4 2.2559723595316457e+00 0.0000000000000000e+00 1.0000000000000000e+00 8.0000000000000000e+00 6.0000000000000000e+00 2.5000000000000000e+00 
101 2 4 2.2559723595316457e+00 0.0000000000000000e+00 1.0000000000000000e+00 1.0000000000000000e+01 0.0000000000000000e+00 2.5000000000000000e+00 
102 2 4 2.2559723595316457e+00 0.0000000000000000e+00 1.0000000000000000e+00 1.0000000000000000e+01 2.0000000000000000e+00 2.5000000000000000e+00 
103 2 4 2.2559723595316457e+00 -3.7911629518799572e-01 1.0000000000000000e+00 1.0000000000000000e+01 4.0000000000000000e+00 2.5000000000000000e+00 
104 2 4 2.2559723595316457e+00 -1.9576549056772901e+01 1.0000000000000000e+00 1.0000000000000000e+01 6.0000000000000000e+00 2.5000000000000000e+00 
121 2 4 2.2559723595316457e+00 0.0000000000000000e+00 1.0000000000000000e+00 1.2000000000000000e+01 0.0000000000000000e+00 2.5000000000000000e+00 
122 2 4 2.2559723595316457e+00 0.0000000000000000e+00 1.0000000000000000e+00 1.2000000000000000e+01 2.0000000000000000e+00 2.5000000000000000e+00 
123 2 4 2.2559723595316457e+00 -1.9568477632338254e+01 1.0000000000000000e+00 1.2000000000000000e+01 4.0000000000000000e+00 2.5000000000000000e+00 
124 2 4 2.2559723595316457e+00 -1.7167736363068869e+02 1.0000000000000000e+00 1.2000000000000000e+01 6.0000000000000000e+00 2.5000000000000000e+00 
141 2 4 2.2559723595316457e+00 0.0000000000000000e+00 1.0000000000000000e+00 1.4000000000000000e+01 0.0000000000000000e+00 2.5000000000000000e+00 
142 2 4 2.2559723595316457e+00 -1.3396513928843046e+00 1.0000000000000000e+00 1.4000000000000000e+01 2.0000000000000000e+00 2.5000000000000000e+00 
143 2 4 2.2559723595316457e+00 -8.9596408597818140e+01 1.0000000000000000e+00 1.4000000000000000e+01 4.0000000000000000e+00 2.5000000000000000e+00 
144 2 4 2.2559723595316457e+00 -5.7364995268631117e+02 1.0000000000000000e+00 1.4000000000000000e+01 6.0000000000000000e+00 2.5000000000000000e+00 
161 2 4 2.2559723595316457e+00 0.0000000000000000e+00 1.0000000000000000e+00 1.6000000000000000e+01 0.0000000000000000e+00 2.5000000000000000e+00 
162 2 4 2.2559723595316457e+00 -4.8800369982393210e+00 1.0000000000000000e+00 1.6000000000000000e+01 2.0000000000000000e+00 2.5000000000000000e+00 
163 2 4 2.2559723595316457e+00 -1.9836207723838029e+02 1.0000000000000000e+00 1.6000000000000000e+01 4.0000000000000000e+00 2.5000000000000000e+00 
164 2 4 2.2559723595316457e+00 -1.1355910060077529e+03 1.0000000000000000e+00 1.6000000000000000e+01 6.0000000000000000e+00 2.5000000000000000e+00 
181 2 4 2.2559723595316457e+00 0.0000000000000000e+00 1.0000000000000000e+00 1.8000000000000000e+01 0.0000000000000000e+00 2.5000000000000000e+00 
182 2 4 2.2559723595316457e+00 -6.8671973298591427e+00 1.0000000000000000e+00 1.8000000000000000e+01 2.0000000000000000e+00 2.5000000000000000e+00 
183 2 4 2.2559723595316457e+00 -2.7989535978508570e+02 1.0000000000000000e+00 1.8000000000000000e+01 4.0000000000000000e+00 2.5000000000000000e+00 
184 2 4 2.2559723595316457e+00 -1.5581797234041701e+03 1.0000000000000000e+00 1.8000000000000000e+01 6.0000000000000000e+00 2.5000000000000000e+00 
5 2 4 2.2559723595316457e+00 0.0000000000000000e+00 1.0000000000000000e+00 0.0000000000000000e+00 8.0000000000000000e+00 2.5000000000000000e+00 
6 2 4 2.2559723595316457e+00 0.0000000000000000e+00 1.0000000000000000e+00 0.0000000000000000e+00 1.0000000000000000e+01 2.5000000000000000e+00 
7 2 4 2.2559723595316457e+00 0.0000000000000000e+00 1.0000000000000000e+00 0.0000000000000000e+00 1.2000000000000000e+01 2.5000000000000000e+00 
25 2 4 2.2559723595316457e+00 0.0000000000000000e+00 1.0000000000000000e+00 2.0000000000000000e+00 8.0000000000000000e+00 2.5000000000000000e+00 
26 2 4 2.2559723595316457e+00 0.0000000000000000e+00 1.0000000000000000e+00 2.0000000000000000e+00 1.0000000000000000e+01 2.5000000000000000e+00 
27 2 4 2.2559723595316457e+00 0.0000000000000000e+00 1.0000000000000000e+00 2.0000000000000000e+00 1.2000000000000000e+01 2.5000000000000000e+00 
45 2 4 2.2559723595316457e+00 0.0000000000000000e+00 1.0000000000000000e+00 4.0000000000000000e+00 8.0000000000000000e+00 2.5000000000000000e+00 
46 2 4 2.2559723595316457e+00 0.0000000000000000e+00 1.0000000000000000e+00 4.0000000000000000e+00 1.0000000000000000e+01 2.5000000000000000e+00 
47 2 4 2.2559723595316457e+00 0.0000000000000000e+00 1.0000000000000000e+00 4.0000000000000000e+00 1.2000000000000000e+01 2.5000000000000000e+00 
65 2 4 2.2559723595316457e+00 0.0000000000000000e+00 1.0000000000000000e+00 6.0000000000000000e+00 8.0000000000000000e+00 2.5000000000000000e+00 
66 2 4 2.2559723595316457e+00 0.0000000000000000e+00 1.0000000000000000e+00 6.0000000000000000e+00 1.0000000000000000e+01 2.5000000000000000e+00 
67 2 4 2.2559723595316457e+00 0.0000000000000000e+00 1.0000000000000000e+00 6.0000000000000000e+00 1.2000000000000000e+01 2.5000000000000000e+00 
85 2 4 2.2559723595316457e+00 -1.3397100920577079e+00 1.0000000000000000e+00 8.0000000000000000e+00 8.0000000000000000e+00 2.5000000000000000e+00 
86 2 4 2.2559723595316457e+00 -4.9132024023214589e+00 1.0000000000000000e+00 8.0000000000000000e+00 1.0000000000000000e+01 2.5000000000000000e+00 
87 2 4 2.2559723595316457e+00 -7.0856134341832488e+00 1.0000000000000000e+00 8.0000000000000000e+00 1.2000000000000000e+01 2.5000000000000000e+00 
105 2 4 2.2559723595316457e+00 -9.0081785959917255e+01 1.0000000000000000e+00 1.0000000000000000e+01 8.0000000000000000e+00 2.5000000000000000e+00 
106 2 4 2.2559723595316457e+00 -2.0204454235422520e+02 1.0000000000000000e+00 1.0000000000000000e+01 1.0000000000000000e+01 2.5000000000000000e+00 
107 2 4 2.2559723595316457e+00 -2.9540176700142632e+02 1.0000000000000000e+00 1.0000000000000000e+01 1.2000000000000000e+01 2.5000000000000000e+00 
125 2 4 2.2559723595316457e+00 -5.7700082982049139e+02 1.0000000000000000e+00 1.2000000000000000e+01 8.0000000000000000e+00 2.5000000000000000e+00 
126 2 4 2.2559723595316457e+00 -1.1589771750605976e+03 1.0000000000000000e+00 1.2000000000000000e+01 1.0000000000000000e+01 2.5000000000000000e+00 
127 2 4 2.2559723595316457e+00 -1.6598927187017212e+03 1.0000000000000000e+00 1.2000000000000000e+01 1.2000000000000000e+01 2.5000000000000000e+00 
145 2 4 2.2559723595316457e+00 -1.7149630169887610e+03 1.0000000000000000e+00 1.4000000000000000e+01 8.0000000000000000e+00 2.5000000000000000e+00 
146 2 4 2.2559723595316457e+00 -3.2916253404272256e+03 1.0000000000000000e+00 1.4000000000000000e+01 1.0000000000000000e+01 2.5000000000000000e+00 
147 2 4 2.2559723595316457e+00 -4.6645529390143010e+03 1.0000000000000000e+00 1.4000000000000000e+01 1.2000000000000000e+01 2.5000000000000000e+00 
165 2 4 2.2559723595316457e+00 -3.2459105487006564e+03 1.0000000000000000e+00 1.6000000000000000e+01 8.0000000000000000e+00 2.5000000000000000e+00 
166 2 4 2.2559723595316457e+00 -6.1302254860626545e+03 1.0000000000000000e+00 1.6000000000000000e+01 1.0000000000000000e+01 2.5000000000000000e+00 
167 2 4 2.2559723595316457e+00 -8.6619297192389367e+03 1.0000000000000000e+00 1.6000000000000000e+01 1.2000000000000000e+01 2.5000000000000000e+00 
185 2 4 2.2559723595316457e+00 -4.3929802202385390e+03 1.0000000000000000e+00 1.8000000000000000e+01 8.0000000000000000e+00 2.5000000000000000e+00 
186 2 4 2.2559723595316457e+00 -8.2596302564186699e+03 1.0000000000000000e+00 1.8000000000000000e+01 1.0000000000000000e+01 2.5000000000000000e+00 
187 2 4 2.2559723595316457e+00 -1.1672295428738202e+04 1.0000000000000000e+00 1.8000000000000000e+01 1.2000000000000000e+01 2.5000000000000000e+00 
8 2 4 2.2559723595316457e+00 0.0000000000000000e+00 1.0000000000000000e+00 0.0000000000000000e+00 1.4000000000000000e+01 2.5000000000000000e+00 
9 2 4 2.2559723595316457e+00 0.0000000000000000e+00 1.0000000000000000e+00 0.0000000000000000e+00 1.6000000000000000e+01 2.5000000000000000e+00 
10 2 4 2.2559723595316457e+00 0.0000000000000000e+00 1.0000000000000000e+00 0.0000000000000000e+00 1.8000000000000000e+01 2.5000000000000000e+00 
28 2 4 2.2559723595316457e+00 0.0000000000000000e+00 1.0000000000000000e+00 2.0000000000000000e+00 1.4000000000000000e+01 2.5000000000000000e+00 
29 2 4 2.2559723595316457e+00 0.0000000000000000e+00 1.0000000000000000e+00 2.0000000000000000e+00 1.6000000000000000e+01 2.5000000000000000e+00 
30 2 4 2.2559723595316457e+00 0.0000000000000000e+00 1.0000000000000000e+00 2.0000000000000000e+00 1.8000000000000000e+01 2.5000000000000000e+00 
48 2 4 2.2559723595316457e+00 0.0000000000000000e+00 1.0000000000000000e+00 4.0000000000000000e+00 1.4000000000000000e+01 2.5000000000000000e+00 
49 2 4 2.2559723595316457e+00 0.0000000000000000e+00 1.0000000000000000e+00 4.0000000000000000e+00 1.6000000000000000e+01 2.5000000000000000e+00 
50 2 4 2.2559723595316457e+00 0.0000000000000000e+00 1.0000000000000000e+00 4.0000000000000000e+00 1.8000000000000000e+01 2.5000000000000000e+00 
68 2 4 2.2559723595316457e+00 0.0000000000000000e+00 1.0000000000000000e+00 6.0000000000000000e+00 1.4000000000000000e+01 2.5000000000000000e+00 
69 2 4 2.2559723595316457e+00 0.0000000000000000e+00 1.0000000000000000e+00 6.0000000000000000e+00 1.6000000000000000e+01 2.5000000000000000e+00 
70 2 4 2.2559723595316457e+00 0.0000000000000000e+00 1.0000000000000000e+00 6.0000000000000000e+00 1.8000000000000000e+01 2.5000000000000000e+00 
88 2 4 2.2559723595316457e+00 -7.6557803109903677e+00 1.0000000000000000e+00 8.0000000000000000e+00 1.4000000000000000e+01 2.5000000000000000e+00 
89 2 4 2.2559723595316457e+00 -7.8089632633358441e+00 1.0000000000000000e+00 8.0000000000000000e+00 1.6000000000000000e+01 2.5000000000000000e+00 
90 2 4 2.2559723595316457e+00 -7.8261971921132307e+00 1.0000000000000000e+00 8.0000000000000000e+00 1.8000000000000000e+01 2.5000000000000000e+00 
108 2 4 2.2559723595316457e+00 -3.3710436676610362e+02 1.0000000000000000e+00 1.0000000000000000e+01 1.4000000000000000e+01 2.5000000000000000e+00 
109 2 4 2.2559723595316457e+00 -3.4750473607421065e+02 1.0000000000000000e+00 1.0000000000000000e+01 1.6000000000000000e+01 2.5000000000000000e+00 
110 2 4 2.2559723595316457e+00 -3.4946271972549857e+02 1.0000000000000000e+00 1.0000000000000000e+01 1.8000000000000000e+01 2.5000000000000000e+00 
128 2 4 2.2559723595316457e+00 -1.9150402527788565e+03 1.0000000000000000e+00 1.2000000000000000e+01 1.4000000000000000e+01 2.5000000000000000e+00 
129 2 4 2.2559723595316457e+00 -1.9876747843821729e+03 1.0000000000000000e+00 1.2000000000000000e+01 1.6000000000000000e+01 2.5000000000000000e+00 
130 2 4 2.2559723595316457e+00 -2.0023588850968340e+03 1.0000000000000000e+00 1.2000000000000000e+01 1.8000000000000000e+01 2.5000000000000000e+00 
148 2 4 2.2559723595316457e+00 -5.3987841042519058e+03 1.0000000000000000e+00 1.4000000000000000e+01 1.4000000000000000e+01 2.5000000000000000e+00 
149 2 4 2.2559723595316457e+00 -5.6169750705697215e+03 1.0000000000000000e+00 1.4000000000000000e+01 1.6000000000000000e+01 2.5000000000000000e+00 
150 2 4 2.2559723595316457e+00 -5.6575613875574736e+03 1.0000000000000000e+00 1.4000000000000000e+01 1.8000000000000000e+01 2.5000000000000000e+00 
168 2 4 2.2559723595316457e+00 -1.0037105491455686e+04 1.0000000000000000e+00 1.6000000000000000e+01 1.4000000000000000e+01 2.5000000000000000e+00 
169 2 4 2.2559723595316457e+00 -1.0445514058212724e+04 1.0000000000000000e+00 1.6000000000000000e+01 1.6000000000000000e+01 2.5000000000000000e+00 
170 2 4 2.2559723595316457e+00 -1.0512855515040023e+04 1.0000000000000000e+00 1.6000000000000000e+01 1.8000000000000000e+01 2.5000000000000000e+00 
188 2 4 2.2559723595316457e+00 -1.3535936393395446e+04 1.0000000000000000e+00 1.8000000000000000e+01 1.4000000000000000e+01 2.5000000000000000e+00 
189 2 4 2.2559723595316457e+00 -1.4077402781133347e+04 1.0000000000000000e+00 1.8000000000000000e+01 1.6000000000000000e+01 2.5000000000000000e+00 
190 2 4 2.2559723595316457e+00 -1.4159085035155300e+04 1.0000000000000000e+00 1.8000000000000000e+01 1.8000000000000000e+01 2.5000000000000000e+00 
1175 777 2 1.0280012604529174e+00 1.1025439253866241e+03 1.0000000000000000e+00 1.3232222306699944e+01 1.4321064238382188e+01 3.6804184718295538e+01 
497 99 2 1.0280012860446570e+00 -1.1595399951382647e+04 1.0000000000000000e+00 1.3153186667267290e+01 1.4209535832333019e+01 3.6906920953393339e+01 
2041 1643 2 1.0280012550853461e+00 -6.2142137789433798e+02 1.0000000000000000e+00 1.3127340585341006e+01 1.4163251516633730e+01 3.6950330067772455e+01 
992 594 2 1.0280012615015102e+00 1.0111687629719700e+03 1.0000000000000000e+00 1.3168476339106450e+01 1.4133033939978406e+01 3.6953346956599631e+01 
1412 1014 2 1.0280013220323989e+00 1.7120744821512388e+04 1.0000000000000000e+00 1.3067740871295612e+01 1.4181706506558971e+01 3.6967067772093905e+01 
626 228 2 1.0280014287038393e+00 2.5689968603025136e+03 1.0000000000000000e+00 1.2790018125169134e+01 1.4501758836653323e+01 3.6982308520635051e+01 
1484 1086 2 1.0280013085318709e+00 8.0037324891254457e+02 1.0000000000000000e+00 1.3003000526864263e+01 1.4192029267354789e+01 3.6994964967934074e+01 
1786 1388 2 1.0280013159217554e+00 7.5271965911610766e+02 1.0000000000000000e+00 1.2970160063757726e+01 1.4181212848704812e+01 3.7020782959482190e+01 
654 256 2 1.0280012786250616e+00 -7.1285587194299496e+03 1.0000000000000000e+00 1.3135076332778690e+01 1.4029741987021666e+01 3.7051709828818367e+01 
946 548 2 1.0280014023223660e+00 6.2087021626696715e+03 1.0000000000000000e+00 1.2799744004859738e+01 1.4285051040225142e+01 3.7069453067853971e+01 
514 116 2 1.0280013085919162e+00 -5.3454863211120337e+03 1.0000000000000000e+00 1.3124622229194248e+01 1.4013621900664434e+01 3.7070752580213828e+01 
410 12 2 1.0280014102652699e+00 -5.5094508355821163e+03 1.0000000000000000e+00 1.2711584619324624e+01 1.4314168616242721e+01 3.7121152861218690e+01 
726 328 2 1.0280013339076772e+00 1.8283296882279004e+02 1.0000000000000000e+00 1.2916778237447833e+01 1.4083517765562192e+01 3.7122783059756856e+01 
1467 1069 2 1.0280013047407497e+00 7.6733768253005474e+03 1.0000000000000000e+00 1.3154246700622355e+01 1.3944644625884870e+01 3.7124146534934781e+01 
1594 1196 2 1.0280014797937609e+00 1.3611902368729350e+03 1.0000000000000000e+00 1.2613669282629385e+01 1.4473402490495564e+01 3.7136645197543608e+01 
1312 914 2 1.0280013710736420e+00 7.2377990607320930e+02 1.0000000000000000e+00 1.2814243500830594e+01 1.4149102002801339e+01 3.7142129813969710e+01 
564 166 2 1.0280014781852644e+00 -7.5879229364155490e+03 1.0000000000000000e+00 1.2608096760795419e+01 1.4470048056273495e+01 3.7142845886457259e+01 
865 467 2 1.0280013345058454e+00 -2.2672005917950928e+03 1.0000000000000000e+00 1.2949821741392389e+01 1.3999626883083989e+01 3.7173521638898208e+01 
760 362 2 1.0280014563066673e+00 1.6253001552760470e+03 1.0000000000000000e+00 1.2594240990803414e+01 1.4316911956789378e+01 3.7219994343526707e+01 
1432 1034 2 1.0280013903455960e+00 6.4572293137082652e+03 1.0000000000000000e+00 1.2708496139637120e+01 1.4138236492701807e+01 3.7228997763596716e+01 
846 448 2 1.0280014790297316e+00 5.3077762271330266e+02 1.0000000000000000e+00 1.2562901865907120e+01 1.4298723647581022e+01 3.7258415665107748e+01 
1008 610 2 1.0280013375263548e+00 -2.9407174238499738e+03 1.0000000000000000e+00 1.3009779283915105e+01 1.3877766313626715e+01 3.7264136717096903e+01 
761 363 2 1.0280014073880999e+00 -8.2525223679025157e+02 1.0000000000000000e+00 1.2648149342858249e+01 1.4126334651428220e+01 3.7287710557805838e+01 
1249 851 2 1.0280015138531069e+00 -5.2236696084702098e+03 1.0000000000000000e+00 1.2474874648972571e+01 1.4419577250760756e+01 3.7291655505589816e+01 
1033 635 2 1.0280014041178152e+00 6.2196315758143646e+03 1.0000000000000000e+00 1.2678905560849982e+01 1.4086157070952057e+01 3.7291819642932715e+01 
1453 1055 2 1.0280013744512473e+00 9.4552468117812623e+03 1.0000000000000000e+00 1.2808686439045735e+01 1.3971873898126539e+01 3.7290368329761129e+01 
1652 1254 2 1.0280013664134198e+00 -3.4611725630315186e+03 1.0000000000000000e+00 1.2769594826347044e+01 1.3996297798318709e+01 3.7296067883951821e+01 
2049 1651 2 1.0280015347507037e+00 2.4983847367548597e+03 1.0000000000000000e+00 1.2457421594602938e+01 1.4432950130607059e+01 3.7305119481061155e+01 
1881 1483 2 1.0280013744434229e+00 -3.7180920459938629e+03 1.0000000000000000e+00 1.2810947807431447e+01 1.3933006620256821e+01 3.7327290195733006e+01 
1356 958 2 1.0280013812441127e+00 -2.3503625363123952e+03 1.0000000000000000e+00 1.2888983499073372e+01 1.3888348106554163e+01 3.7322430926152606e+01 
1234 836 2 1.0280014199320331e+00 9.9721277850173783e+02 1.0000000000000000e+00 1.2677019867123526e+01 1.4022180664182466e+01 3.7346532900678433e+01 
1518 1120 2 1.0280014012822700e+00 3.7755925521794006e+03 1.0000000000000000e+00 1.2610538275428008e+01 1.4077785673176161e+01 3.7358202799999617e+01 
1464 1066 2 1.0280013991307337e+00 1.3442671034601140e+03 1.0000000000000000e+00 1.2743717534774458e+01 1.3956062068290969e+01 3.7354200023818130e+01 
503 105 2 1.0280013764244180e+00 -5.1557271426224306e+03 1.0000000000000000e+00 1.2696293637827031e+01 1.3984789683773487e+01 3.7364562332299812e+01 
999 601 2 1.0280013991841506e+00 2.5306906106050924e+01 1.0000000000000000e+00 1.2672397804485191e+01 1.4003364230760988e+01 3.7367386999241127e+01 
1210 812 2 1.0280014638390411e+00 9.5083798818535342e+03 1.0000000000000000e+00 1.2500521464804281e+01 1.4198960682496049e+01 3.7377946052648369e+01 
1613 1215 2 1.0280014547368983e+00 3.8088591634082140e+03 1.0000000000000000e+00 1.2487124889356002e+01 1.4212649680649131e+01 3.7383229838443491e+01 
1059 661 2 1.0280013657656319e+00 4.1435324069369053e+03 1.0000000000000000e+00 1.2869995840767801e+01 1.3857877571576594e+01 3.7369820842820459e+01 
1061 663 2 1.0280014305348852e+00 6.8039278217473088e+02 1.0000000000000000e+00 1.2572927074123793e+01 1.4050298370645619e+01 3.7416389485843233e+01 
1250 852 2 1.0280014251336134e+00 9.4407858575583282e+02 1.0000000000000000e+00 1.2591461335773630e+01 1.4018571185653087e+01 3.7426554120201843e+01 
932 534 2 1.0280013887151263e+00 5.9138680936527508e+03 1.0000000000000000e+00 1.2639404756651636e+01 1.3946587654253854e+01 3.7451754410741863e+01 
1668 1270 2 1.0280015815194459e+00 -7.0729457229111404e+02 1.0000000000000000e+00 1.2348448763841061e+01 1.4378247216778565e+01 3.7453699588116628e+01 
1437 1039 2 1.0280014023790995e+00 -1.8472845936718059e+02 1.0000000000000000e+00 1.2944484187183676e+01 1.3760194465820616e+01 3.7451763595661447e+01 
697 299 2 1.0280017554012717e+00 1.6959111538178518e+03 1.0000000000000000e+00 1.2256415657088578e+01 1.4713377194711205e+01 3.7486865122509037e+01 
1716 1318 2 1.0280016432647048e+00 -4.1434472565775250e+03 1.0000000000000000e+00 1.2278255442714595e+01 1.4524021685747382e+01 3.7492420449593524e+01 
1078 680 2 1.0280014786057761e+00 -5.2241244771763641e+03 1.0000000000000000e+00 1.2447546664761552e+01 1.4107727959931371e+01 3.7500804706973106e+01 
744 346 2 1.0280016506738627e+00 1.7974614425801840e+03 1.0000000000000000e+00 1.2274756639265123e+01 1.4475793792687448e+01 3.7512232517940397e+01 
1784 1386 2 1.0280015152316675e+00 -1.0720387439307674e+03 1.0000000000000000e+00 1.2356187512110775e+01 1.4205794849896547e+01 3.7538889780078193e+01 
486 88 2 1.0280014491207607e+00 -9.1732066110231335e+03 1.0000000000000000e+00 1.2657288042779403e+01 1.3867272177635735e+01 3.7524547254256177e+01 
840 442 2 1.0280014316378330e+00 -4.6380067317038956e+03 1.0000000000000000e+00 1.2687373796599319e+01 1.3838965524250220e+01 3.7532890198188682e+01 
1296 898 2 1.0280015627676908e+00 1.1203432098356550e+03 1.0000000000000000e+00 1.2298825420195133e+01 1.4312856772952010e+01 3.7549787554143407e+01 
402 4 2 1.0280015243535208e+00 -2.6522392235495322e+03 1.0000000000000000e+00 1.2332863144394045e+01 1.4126332336430877e+01 3.7627998792076106e+01 
968 570 2 1.0280016157674834e+00 8.2455570509344398e+02 1.0000000000000000e+00 1.2188098280663233e+01 1.4352083505558701e+01 3.7692462275338364e+01 
1553 1155 2 1.0280015003616527e+00 1.7877015778989316e+03 1.0000000000000000e+00 1.2348644293910462e+01 1.4028662608671917e+01 3.7694938698508643e+01 
602 204 2 1.0280014835260101e+00 -1.6357577673430756e+03 1.0000000000000000e+00 1.2468080952127577e+01 1.3875381876708499e+01 3.7715992755990172e+01 
1152 754 2 1.0280016476259735e+00 4.6656522860286868e+03 1.0000000000000000e+00 1.2162175456721533e+01 1.4366870913555001e+01 3.7727634682715966e+01 
576 178 2 1.0280015391090052e+00 3.0565956734114371e+02 1.0000000000000000e+00 1.2257814100141882e+01 1.4120685538532568e+01 3.7740908471547428e+01 
1500 1102 2 1.0280014995294302e+00 -1.5966528243605819e+03 1.0000000000000000e+00 1.2470565137894544e+01 1.3825455488094899e+01 3.7783168167757260e+01 
523 125 2 1.0280015515270506e+00 2.8956476864362717e+03 1.0000000000000000e+00 1.2225680009386590e+01 1.4069805621201695e+01 3.7840921811795852e+01 
539 141 2 1.0280015247675538e+00 -4.6181663365614113e+03 1.0000000000000000e+00 1.2522709917226519e+01 1.3751603824918336e+01 3.7836623785658361e+01 
942 544 2 1.0280015822920010e+00 5.3824138291074896e+03 1.0000000000000000e+00 1.2184607855100033e+01 1.4110431909540956e+01 3.7871970329542904e+01 
1237 839 2 1.0280015617741796e+00 -1.0786718166095768e+03 1.0000000000000000e+00 1.2247526963759286e+01 1.3990483494462200e+01 3.7892779657735616e+01 
415 17 2 1.0280015597648564e+00 -7.6286561624496744e+03 1.0000000000000000e+00 1.2216641194945620e+01 1.4023051738874782e+01 3.7908008068181879e+01 
1380 982 2 1.0280018595488927e+00 6.9878875614109384e+03 1.0000000000000000e+00 1.1955195961979062e+01 1.4539388374962563e+01 3.8088791819365731e+01 
1506 1108 2 1.0280019193944616e+00 3.9638254695622463e+03 1.0000000000000000e+00 1.1834360967697650e+01 1.4439295242007320e+01 3.8574857076567127e+01 
1853 1455 2 1.0280017394039362e+00 -4.9270847154727344e+03 1.0000000000000000e+00 1.1967444136876900e+01 1.4006957225605698e+01 3.8659417433947546e+01 
1828 1430 2 1.0280017772811307e+00 -7.1599069803794800e+03 1.0000000000000000e+00 1.1950659545549678e+01 1.4034796907696510e+01 3.8668804012781223e+01 
772 374 2 1.0280019063276074e+00 4.8252057388722060e+03 1.0000000000000000e+00 1.1851626749107842e+01 1.4237172064273965e+01 3.8772321933017260e+01 
1157 759 2 1.0280019163582392e+00 2.2889793110623218e+03 1.0000000000000000e+00 1.1915185701088840e+01 1.4036092575298783e+01 3.9062203289422101e+01 
859 461 2 1.0280019072752642e+00 5.1900261539617677e+03 1.0000000000000000e+00 1.2205560562550849e+01 1.3689030845304559e+01 3.9140068107763298e+01 
1561 1163 2 1.0280021337769403e+00 3.8548022566342006e+03 1.0000000000000000e+00 1.1777545912313418e+01 1.4856635259511158e+01 3.9171274943317478e+01 
1698 1300 2 1.0280019325866800e+00 5.1616832204654493e+03 1.0000000000000000e+00 1.2032866965864923e+01 1.3866981279913769e+01 3.9278020119955109e+01 
1593 1195 2 1.0280019012120334e+00 -1.1546388039899548e+03 1.0000000000000000e+00 1.1878331544263716e+01 1.4122462353790494e+01 3.9324370300680457e+01 
866 468 2 1.0280019598721111e+00 4.8574788089104150e+03 1.0000000000000000e+00 1.1811179862461930e+01 1.4347380485561692e+01 3.9456726382113494e+01 
2006 1608 2 1.0280020951777376e+00 -8.6426565511898116e+03 1.0000000000000000e+00 1.1984761570410237e+01 1.5439089427091698e+01 3.9542375213461355e+01 
1366 968 2 1.0280023100486961e+00 1.1100909322243844e+04 1.0000000000000000e+00 1.2114030774540128e+01 1.5641704351747785e+01 3.9556197937606711e+01 
1785 1387 2 1.0280018847296126e+00 5.2119677409144715e+03 1.0000000000000000e+00 1.1814524178702825e+01 1.4370930469317267e+01 3.9555620316250426e+01 
912 514 2 1.0280020290416860e+00 -9.0896310346300106e+02 1.0000000000000000e+00 1.1799288705639645e+01 1.4776052007948543e+01 3.9666288441170650e+01 
813 415 2 1.0280019926710193e+00 -3.3161007742788179e+03 1.0000000000000000e+00 1.1885943706873794e+01 1.5028489051473434e+01 3.9946681642927672e+01 
1544 1146 2 1.0279986312230929e+00 4.0877047230581602e+03 1.0000000000000000e+00 1.9881140944143041e+01 1.6247080599167326e+01 3.4670441816339604e+01 
1063 665 2 1.0279988362433936e+00 6.1043859185704077e+03 1.0000000000000000e+00 1.9938119056405963e+01 1.4950140387099944e+01 3.4748471484055329e+01 
436 38 2 1.0279988423547404e+00 7.5977434273261451e+02 1.0000000000000000e+00 1.9866930664720101e+01 1.5001074748619997e+01 3.4804541236871145e+01 
1969 1571 2 1.0279988485513083e+00 -7.5792728486843842e+01 1.0000000000000000e+00 1.9822894021723407e+01 1.5049780882642645e+01 3.4829467785181052e+01 
457 59 2 1.0279988364707697e+00 -7.5871508813343809e+01 1.0000000000000000e+00 1.9868423355111243e+01 1.4973895289071743e+01 3.4820294299566299e+01 
1394 996 2 1.0279989010710582e+00 8.0158263703312459e+03 1.0000000000000000e+00 1.9923207927199421e+01 1.6975786905412260e+01 3.4830964818319316e+01 
584 186 2 1.0279988199555052e+00 -6.8657058402590355e+03 1.0000000000000000e+00 1.9808189814072893e+01 1.5039175468042467e+01 3.4855472723118559e+01 
1905 1507 2 1.0279986534052876e+00 -2.6084426992339963e+03 1.0000000000000000e+00 1.9619041355102329e+01 1.5352011352732228e+01 3.4905948766454621e+01 
1554 1156 2 1.0279989512525094e+00 8.3200123799174617e+03 1.0000000000000000e+00 1.9850530751133149e+01 1.4882645296618984e+01 3.4922913658354133e+01 
831 433 2 1.0279986709855573e+00 -2.5479373272166972e+03 1.0000000000000000e+00 1.9526062803201583e+01 1.5466650423328129e+01 3.4956199152651173e+01 
1227 829 2 1.0279988876816668e+00 8.0139835989172607e+03 1.0000000000000000e+00 1.9759036100922025e+01 1.4983401237159883e+01 3.4978921711384864e+01 
1717 1319 2 1.0279989223532295e+00 1.9096235183554447e+03 1.0000000000000000e+00 1.9763432823930234e+01 1.4971495725162875e+01 3.4983968809674444e+01 
857 459 2 1.0279985649764449e+00 3.4655611135945460e+03 1.0000000000000000e+00 1.9336066628891516e+01 1.5734052776824178e+01 3.5047522042089440e+01 
1037 639 2 1.0279986784898330e+00 4.0972219376668791e+03 1.0000000000000000e+00 1.9424046451981031e+01 1.5530714774214962e+01 3.5044285796703413e+01 
590 192 2 1.0279987843793388e+00 3.2034403024616281e+03 1.0000000000000000e+00 1.9632203768126399e+01 1.5144861139860961e+01 3.5036827581728673e+01 
1087 689 2 1.0279988383349408e+00 -1.3887279774241554e+03 1.0000000000000000e+00 1.9548833420932841e+01 1.5256989816775848e+01 3.5070433494509047e+01 
729 331 2 1.0279987295001050e+00 -2.6074660184487971e+03 1.0000000000000000e+00 1.9367944828644941e+01 1.5521514251492007e+01 3.5128887823479666e+01 
1236 838 2 1.0279985923165698e+00 3.2749249047486528e+03 1.0000000000000000e+00 1.9223337584459710e+01 1.5742704012157137e+01 3.5175863968726482e+01 
483 85 2 1.0279985258867566e+00 -1.0243035628126216e+04 1.0000000000000000e+00 1.9157190257403645e+01 1.5801227910273498e+01 3.5227937858508980e+01 
844 446 2 1.0279987559854022e+00 -1.7000976169102364e+03 1.0000000000000000e+00 1.9281924774941007e+01 1.5557196961154057e+01 3.5251579548480727e+01 