LAMMPS data file via write_data, version 30 Jul 2016, timestep = 50400000

4620 atoms
8 atom types

0.0000000000000000e+00 1.0000000000000000e+02 xlo xhi
0.0000000000000000e+00 4.0000000000000000e+01 ylo yhi
0.0000000000000000e+00 4.0000000000000000e+01 zlo zhi

Masses

1 3.896
2 5.36
3 20.064
4 8.378
5 8.378
6 8.378
7 8.378
8 8.378

Atoms # meso-molecular

1087 1088 2 1.0280000014729265e+00 -8.3613974942202617e+02 1.0000000000000000e+00 7.3506947372748943e-01 1.4522840264618762e+00 3.1579748616855285e-01 
3397 3398 2 1.0280000010184618e+00 -8.2749334660657860e+02 1.0000000000000000e+00 8.3081951365581252e-01 1.3358414221282369e+00 4.5311049936910702e-01 
2343 2344 2 1.0280000011914170e+00 -6.0318895426992458e+02 1.0000000000000000e+00 4.1728487057554338e+00 5.4481221911144462e-01 2.4807179535467591e-01 
833 834 2 1.0279999997182225e+00 -1.7252781170624839e+03 1.0000000000000000e+00 6.1878702022169607e+00 1.1631152640718887e+00 4.6472968414740107e-01 
1210 1211 2 1.0279999996659837e+00 -7.9271967133927092e+01 1.0000000000000000e+00 7.1708608430649745e+00 1.3069852901799739e+00 9.8280734445336582e-01 
3841 3842 2 1.0280000000094669e+00 3.8847006303751123e+03 1.0000000000000000e+00 2.8330278991863384e+01 1.9339585202402261e+00 1.0089737968534178e+00 
3000 3001 2 1.0279999997755624e+00 5.9914157931819373e+03 1.0000000000000000e+00 3.0063225655108905e+01 8.9838226278492916e-01 1.2387827381397418e+00 
2538 2539 2 1.0280000002425644e+00 -6.3515162723621347e+02 1.0000000000000000e+00 2.9793572584254182e+01 3.5886876910707993e-01 8.4111918733101110e-01 
2996 2997 2 1.0279999999870617e+00 7.5832134638870721e+03 1.0000000000000000e+00 3.2953495800584648e+01 1.1004910383443876e+00 3.7761004856476110e-01 
1923 1924 2 1.0279999979997025e+00 -2.4524889210593283e+03 1.0000000000000000e+00 1.8231908514847721e+00 2.7609699347241810e+00 1.3648867862927307e+00 
132 133 2 1.0280000013321906e+00 2.6560078369272396e+03 1.0000000000000000e+00 3.0114771199733559e+00 3.0042347792096513e+00 1.6961483245762325e+00 
1924 1925 2 1.0279999993191051e+00 -1.6702745087853214e+03 1.0000000000000000e+00 3.9303601654181386e+00 2.3231114636471069e+00 2.7171117937164008e-01 
882 883 2 1.0279999967127216e+00 -2.5522567447272667e+02 1.0000000000000000e+00 4.9748532993001753e+00 3.6941647074524804e+00 5.5853305710506829e-01 
3654 3655 2 1.0280000035116630e+00 -1.3160834092225136e+03 1.0000000000000000e+00 5.4193765817890327e+00 3.7665641683279301e+00 1.2996119315207906e+00 
4614 4615 2 1.0280000000871428e+00 -2.0525008678014678e+03 1.0000000000000000e+00 4.8725271616925765e+00 2.0831352437247714e+00 1.4306473666931903e+00 
1153 1154 2 1.0279999999778757e+00 9.1661590624438613e+03 1.0000000000000000e+00 2.7611863387843645e+01 2.8849080932576854e+00 1.1552510619501661e+00 
4009 4010 2 1.0280000000170715e+00 3.8882478165408975e+03 1.0000000000000000e+00 2.8192510360923457e+01 2.9322153718140052e+00 2.9593343942647821e-01 
2411 2412 2 1.0280000001093430e+00 1.5570371543454371e+03 1.0000000000000000e+00 2.9860641022591381e+01 3.0770880821550888e+00 1.0134221119648006e+00 
2533 2534 2 1.0279999999927778e+00 -4.7390983742210628e+03 1.0000000000000000e+00 3.1072250231338511e+01 2.1004762649192612e+00 9.9169654427992771e-01 
2071 2072 2 1.0280000001947109e+00 -4.7527500117525224e+03 1.0000000000000000e+00 3.1792272651614365e+01 3.1683419103529729e+00 1.8004596202873737e+00 
681 682 2 1.0279999995182389e+00 -2.4807167260655042e+03 1.0000000000000000e+00 3.2565851236691493e+01 2.5143476984130428e+00 1.0659246622329894e+00 
2225 2226 2 1.0280000001433796e+00 -4.6927138785009596e+01 1.0000000000000000e+00 6.3694618226532205e+00 5.2660269950606748e+00 7.7761978768123541e-01 
3725 3726 2 1.0280000003127798e+00 -1.6789774193592525e+03 1.0000000000000000e+00 8.6766396113404713e+00 5.3756317306319996e+00 1.0483407899426087e+00 
2177 2178 2 1.0279999977498357e+00 1.5905280111939337e+03 1.0000000000000000e+00 9.5280414144429848e+00 5.5264727224042813e+00 1.3583939692321729e+00 
1949 1950 2 1.0280000001853282e+00 1.5726234878993732e+03 1.0000000000000000e+00 2.9480090544603691e+01 4.7853125758444230e+00 1.9838351653875692e+00 
1609 1610 2 1.0279999998950020e+00 6.1445449717432002e+03 1.0000000000000000e+00 3.2139137220158162e+01 5.1546014484428282e+00 1.2408479236213701e+00 
223 224 2 1.0279999995884959e+00 3.1757085606744624e+02 1.0000000000000000e+00 3.1903093348321910e+01 5.2457132827379134e+00 6.7120949759224235e-01 
3211 3212 2 1.0280000002804277e+00 7.9010940193405915e+01 1.0000000000000000e+00 4.9322113506095748e+00 6.3065584521762839e+00 4.5422268143928168e-01 
3216 3217 2 1.0280000011114117e+00 2.2855970829955922e+01 1.0000000000000000e+00 4.9275179993039444e+00 6.2455122492633244e+00 9.4692842713010472e-01 
411 412 2 1.0280000012380990e+00 -1.6493038957244921e+03 1.0000000000000000e+00 1.0084746507524398e+01 7.2966781959798528e+00 1.2960119295735606e+00 
748 749 2 1.0279999995272613e+00 1.7185958132077899e+03 1.0000000000000000e+00 1.0231942284651524e+01 7.7628008017141310e+00 1.5460046025574314e+00 
2226 2227 2 1.0279999989873168e+00 -6.7994058787753715e+02 1.0000000000000000e+00 1.1860874683352504e+01 7.2671288368118452e+00 3.9416765964280881e-01 
2140 2141 2 1.0279999991122473e+00 2.3957695142545322e+03 1.0000000000000000e+00 1.2419918656650136e+01 7.5141580302020534e+00 6.9980774437041293e-01 
3799 3800 2 1.0279999997003233e+00 9.2570445387499558e+02 1.0000000000000000e+00 2.8905143363311659e+01 7.4209108984394856e+00 1.7863451730087212e+00 
3496 3497 2 1.0279999991458058e+00 -1.4217829974569219e+02 1.0000000000000000e+00 2.8950122783936241e+01 7.5582743720491701e+00 1.6458702330200652e+00 
1564 1565 2 1.0280000002599301e+00 -9.6937163342055737e+02 1.0000000000000000e+00 3.1244644178186217e+01 7.7675507348913415e+00 1.0269016114503069e+00 
1615 1616 2 1.0279999999421443e+00 6.2316191383802143e+03 1.0000000000000000e+00 3.2273894021772577e+01 7.4407671674230080e+00 1.5485760929211971e+00 
1648 1649 2 1.0279999994857874e+00 -9.6642547538161625e+02 1.0000000000000000e+00 3.1036289444057658e+01 9.4224143486756091e+00 5.6399003150092353e-01 
2991 2992 2 1.0279999998205265e+00 1.1224484876136714e+04 1.0000000000000000e+00 3.0448326638449252e+01 8.6825730578050457e+00 2.8305633581598033e-01 
451 452 2 1.0279999962307380e+00 3.5736243501105264e+02 1.0000000000000000e+00 9.9926644804221336e+00 1.0324822945378205e+01 1.8413646590497321e+00 
744 745 2 1.0279999963060014e+00 5.9625826822369663e+03 1.0000000000000000e+00 9.9947467089901991e+00 1.0327092288944314e+01 1.8417042692619603e+00 
2187 2188 2 1.0280000015978850e+00 1.3980318182424212e+03 1.0000000000000000e+00 3.2314740237711092e+01 1.1921699112233872e+01 1.8633290342470326e+00 
1345 1346 2 1.0279999981482104e+00 -1.7267139322321950e+03 1.0000000000000000e+00 3.2360211510033295e+01 1.2216928337854673e+01 1.1826872612289216e+00 
1592 1593 2 1.0280000000802083e+00 -8.5409917568378842e+02 1.0000000000000000e+00 1.9128220132492441e+01 1.5984497033420954e+01 1.0197135729469542e+00 
1676 1677 2 1.0279999999900149e+00 -8.5271183441801463e+02 1.0000000000000000e+00 1.9208890490999750e+01 1.5856423282695744e+01 1.3114101735192094e+00 
821 822 2 1.0279999839382732e+00 1.6358429606838536e+03 1.0000000000000000e+00 3.0524321406189230e+01 1.5033748745081464e+01 1.9034787224786951e+00 
1449 1450 2 1.0280000185973617e+00 -1.7730068827831792e+03 1.0000000000000000e+00 2.9630150273607679e+01 1.5375029425916626e+01 1.6512420374437480e+00 
484 485 2 1.0280000153545368e+00 -1.0660137816083145e+03 1.0000000000000000e+00 3.0614177737223347e+01 1.5049648699791627e+01 1.3256084270941296e-01 
710 711 2 1.0279999999387479e+00 -8.3333794907731613e+02 1.0000000000000000e+00 1.9789342531892771e+01 1.7490040304647476e+01 1.2238416797010263e+00 
3191 3192 2 1.0280000000015825e+00 -1.7666638549174054e+03 1.0000000000000000e+00 2.2259149015627671e+01 1.6722409799250020e+01 1.6866971596139408e+00 
1045 1046 2 1.0280000053620397e+00 -2.6976471699505901e+03 1.0000000000000000e+00 2.7823026540485781e+01 1.6903789783584163e+01 1.6776001027809577e+00 
3899 3900 2 1.0279999970943641e+00 2.6113368406703562e+03 1.0000000000000000e+00 2.8143442443658881e+01 1.6580061159072692e+01 9.7312518113536184e-01 
993 994 2 1.0279999994933278e+00 1.4582784434091225e+03 1.0000000000000000e+00 3.2640346162870991e+01 1.7479409806900204e+01 4.5636348839556973e-01 
1995 1996 2 1.0280000019842406e+00 8.0044158842635102e+02 1.0000000000000000e+00 3.2318939124825626e+01 1.6943509023889813e+01 1.4150984916248216e-01 
1167 1168 2 1.0279999998875948e+00 1.2788439320171463e+04 1.0000000000000000e+00 1.9766769337858655e+01 1.9202465867922591e+01 9.9442898450597117e-01 
708 709 2 1.0280000000631513e+00 -1.3169455182020611e+03 1.0000000000000000e+00 2.0441888272847986e+01 1.8316675249282451e+01 1.1266513357915138e+00 
1412 1413 2 1.0279999998774185e+00 -1.4326087583200223e+02 1.0000000000000000e+00 2.8703101020806152e+01 1.8216291724324403e+01 2.9209332731302451e-01 
1035 1036 2 1.0279999998677141e+00 1.6691343067025837e+03 1.0000000000000000e+00 2.8702399768937688e+01 1.8214790510801826e+01 2.8911038729951150e-01 
3138 3139 2 1.0279999999360139e+00 1.1239298049061381e+03 1.0000000000000000e+00 1.4100023313773586e+00 1.8527449873867909e+00 2.9583824663650224e+00 
581 582 2 1.0280000002564842e+00 -1.7129115008443296e+03 1.0000000000000000e+00 5.5627547930300745e+00 4.0824576482930236e-01 2.6471083109566678e+00 
3688 3689 2 1.0279999980998451e+00 3.0496539495968154e+03 1.0000000000000000e+00 4.7927815985934137e+00 1.8591623712829075e+00 3.0496680908462603e+00 
1881 1882 2 1.0279999992590703e+00 -6.6555987939733700e+02 1.0000000000000000e+00 4.0821334819873014e+00 3.1317342647567553e-01 3.9766834849903416e+00 
1126 1127 2 1.0279999989477098e+00 -6.7470472413088117e+01 1.0000000000000000e+00 6.4611932678343367e+00 4.9239833109893305e-01 2.0198285103480687e+00 
3489 3490 2 1.0280000002842717e+00 -2.2759540992663233e+03 1.0000000000000000e+00 9.6601625587369426e+00 1.9382617569208904e+00 3.0789286344832894e+00 
3660 3661 2 1.0280000000796425e+00 2.1672995496575404e+03 1.0000000000000000e+00 9.5193784312049985e+00 6.8741105502103172e-01 3.4375060335153087e+00 
1177 1178 2 1.0279999997076128e+00 3.3131997230720863e+03 1.0000000000000000e+00 1.1202010458601007e+01 1.7056516343857200e+00 2.1888083398788445e+00 
1642 1643 2 1.0280000003027845e+00 -9.2464763213792457e+02 1.0000000000000000e+00 1.1319860429280185e+01 1.9585666098152286e+00 2.6556819874553210e+00 
2886 2887 2 1.0280000007206989e+00 1.1731258645865164e+03 1.0000000000000000e+00 1.7770133943359914e+00 2.0086387643533845e+00 3.3559395356219204e+00 
1393 1394 2 1.0279999995485223e+00 -1.8191508544756000e+03 1.0000000000000000e+00 3.2516613286399538e+00 2.1233520508751815e+00 2.4882461880747728e+00 
3601 3602 2 1.0279999999705967e+00 -2.4689399051922792e+03 1.0000000000000000e+00 6.6580799174039376e+00 2.4389574397546196e+00 3.5409465584137472e+00 
2639 2640 2 1.0280000012893253e+00 1.5587255714085468e+03 1.0000000000000000e+00 6.9581746011845746e+00 2.2573188910227371e+00 3.8474250677192274e+00 
1765 1766 2 1.0280000013823924e+00 -2.6077338739325459e+01 1.0000000000000000e+00 1.2445803327670816e+01 3.2608962061513616e+00 3.8355012465989446e+00 
3917 3918 2 1.0280000000372040e+00 1.4820139221293362e+03 1.0000000000000000e+00 2.8649365521008090e+01 3.8111210668033801e+00 2.5010284934796139e+00 
2663 2664 2 1.0279999999616491e+00 1.5599738782893342e+03 1.0000000000000000e+00 2.9811722824047855e+01 2.9412340799764070e+00 2.3561985982341422e+00 
1610 1611 2 1.0280000003299075e+00 7.5608727132723325e+03 1.0000000000000000e+00 3.3007024183236936e+01 3.7955783557233831e+00 2.9404817675685240e+00 
555 556 2 1.0279999955595942e+00 -4.7596579914495260e+02 1.0000000000000000e+00 5.9979600704438187e+00 5.1528604722634910e+00 2.1613066968582531e+00 
347 348 2 1.0280000010283985e+00 -6.7171826348596244e+02 1.0000000000000000e+00 7.1323651140977065e+00 5.1024388068817892e+00 3.3438687446535109e+00 
811 812 2 1.0280000003373662e+00 -2.4803486282648552e+02 1.0000000000000000e+00 6.0208168423476822e+00 4.5764501014970973e+00 3.4387543006493226e+00 
3219 3220 2 1.0279999989388613e+00 -2.6602017639424764e+02 1.0000000000000000e+00 8.7364401999530408e+00 5.2216963068840609e+00 2.8548611631478993e+00 
3407 3408 2 1.0279999996474487e+00 -8.7121664563286640e+02 1.0000000000000000e+00 1.1590087758022268e+01 5.4000531676027332e+00 2.7226131368938526e+00 
2651 2652 2 1.0280000002982064e+00 1.0783066092927315e+03 1.0000000000000000e+00 1.1204196301349498e+01 5.3980988372844019e+00 3.0158791990814833e+00 
683 684 2 1.0280000000011924e+00 1.4655701706423556e+03 1.0000000000000000e+00 2.9177477327496046e+01 4.6796891371062639e+00 3.8854197089068570e+00 
2074 2075 2 1.0279999995214322e+00 1.0105288592128306e+03 1.0000000000000000e+00 3.0583062314817358e+01 4.4858407002231129e+00 2.3770618462353528e+00 
2201 2202 2 1.0279999999744200e+00 1.5678710547145301e+03 1.0000000000000000e+00 2.9763587838164877e+01 4.4899760791176799e+00 3.9541175094868279e+00 
687 688 2 1.0279999996812716e+00 1.6331757010158062e+03 1.0000000000000000e+00 3.2964930120922041e+01 4.9204505073757732e+00 2.9008189219293383e+00 
4186 4187 2 1.0279999998288998e+00 -1.0140211744815206e+03 1.0000000000000000e+00 7.4033423150034476e+00 7.2028140457001655e+00 3.3765168105772698e+00 
4311 4312 2 1.0280000009222765e+00 -2.3240133098066799e+03 1.0000000000000000e+00 8.2802438395732345e+00 6.6628048808615468e+00 2.7179122847437251e+00 
1670 1671 2 1.0279999997709224e+00 -1.3221392752774832e+03 1.0000000000000000e+00 1.1871371854650420e+01 7.6778490995881485e+00 2.1111185940984898e+00 
1641 1642 2 1.0279999995735534e+00 -4.1838002532294086e+03 1.0000000000000000e+00 1.2972485415979323e+01 6.6719991492489346e+00 2.5969064545795617e+00 
2145 2146 2 1.0279999996247025e+00 -2.0629107596704544e+03 1.0000000000000000e+00 1.3678556341062112e+01 7.7244658891382896e+00 2.7265319801208094e+00 
2563 2564 2 1.0279999992820810e+00 6.7240636182830986e+00 1.0000000000000000e+00 1.4469592953636699e+01 7.6686383296304994e+00 3.4312371363777925e+00 
1612 1613 2 1.0280000005155818e+00 6.6120696606738093e+03 1.0000000000000000e+00 3.3135733549051182e+01 7.0666004969461609e+00 2.2246389964820059e+00 
1611 1612 2 1.0280000002014849e+00 6.4206919859966229e+03 1.0000000000000000e+00 3.2811138101822635e+01 6.8941704959164882e+00 3.9160613687943586e+00 
2513 2514 2 1.0280000007718750e+00 -4.5447611453243244e+03 1.0000000000000000e+00 1.0654218021232547e+01 8.2119393508833873e+00 3.5994261025699688e+00 
791 792 2 1.0279999971007281e+00 4.0511158859469515e+03 1.0000000000000000e+00 1.0339177671849244e+01 9.7942521703797674e+00 3.7930437446461105e+00 
1936 1937 2 1.0280000001815985e+00 4.4127205462424911e+02 1.0000000000000000e+00 1.5751822786502061e+01 8.0317692750083065e+00 3.9079629881652256e+00 
4051 4052 2 1.0280000004766485e+00 9.5220630873990353e+02 1.0000000000000000e+00 2.7504139693830421e+01 8.4738206191611791e+00 2.6402683720388005e+00 
3412 3413 2 1.0280000004685566e+00 -6.9145935130139691e+01 1.0000000000000000e+00 2.7494689853738500e+01 8.4543907249610299e+00 2.6462186714852654e+00 
693 694 2 1.0279999992127422e+00 -4.2634702804827987e+02 1.0000000000000000e+00 3.3194035144375192e+01 8.0945828847454173e+00 3.8193764977877165e+00 
4085 4086 2 1.0279999991597497e+00 -3.9471590235714189e+03 1.0000000000000000e+00 3.2024916461718675e+01 1.1565826331015685e+01 3.4360861026730469e+00 
1149 1150 2 1.0280000035424575e+00 8.4499416438173048e+03 1.0000000000000000e+00 9.8139232518608903e+00 1.2816443632865612e+01 2.2751089309819719e+00 
1146 1147 2 1.0280000034370249e+00 7.5422271267371671e+03 1.0000000000000000e+00 9.9217917182137061e+00 1.2838248280782610e+01 2.2758830324412056e+00 
1685 1686 2 1.0280000001763054e+00 3.5097418311150852e+02 1.0000000000000000e+00 1.6073411854927159e+01 1.2607051571201920e+01 3.6871949661559320e+00 
467 468 2 1.0279999995046716e+00 -3.2551816328155146e+03 1.0000000000000000e+00 1.6651949619866294e+01 1.3005098996709243e+01 3.9628095033081530e+00 
1032 1033 2 1.0279999951318648e+00 -2.9344841558722992e+03 1.0000000000000000e+00 2.5650278189425869e+01 1.2816774437844938e+01 3.3767122464490424e+00 
925 926 2 1.0279999926928323e+00 -1.7186096276181713e+03 1.0000000000000000e+00 3.1273045862966466e+01 1.3851631086249071e+01 3.4818091121963786e+00 
348 349 2 1.0280000017953939e+00 3.3473754282799100e+03 1.0000000000000000e+00 3.1305904345437021e+01 1.3640667327679829e+01 3.4347924529001981e+00 
3459 3460 2 1.0279999965166835e+00 8.4489987672615935e+03 1.0000000000000000e+00 9.5068459327475363e+00 1.4755895316534653e+01 2.3595098928026559e+00 
3456 3457 2 1.0279999965166418e+00 7.5403474736543831e+03 1.0000000000000000e+00 9.5078614728636506e+00 1.4756079638375976e+01 2.3596375885859366e+00 
1343 1344 2 1.0279999998102856e+00 1.6411537680658842e+03 1.0000000000000000e+00 2.0650802702305540e+01 1.5849563120175445e+01 3.5437482390996098e+00 
2896 2897 2 1.0280000000725558e+00 1.0392117821108016e+03 1.0000000000000000e+00 2.2613034181992941e+01 1.5963383076764689e+01 2.8360987039623855e+00 
1576 1577 2 1.0280000014933337e+00 -3.0846835714899130e+03 1.0000000000000000e+00 2.5565480110020879e+01 1.4081592669716130e+01 3.5163322026133552e+00 
2835 2836 2 1.0280000061525800e+00 -1.4296819281767864e+03 1.0000000000000000e+00 2.7553105362622727e+01 1.5690545082002568e+01 3.5803652678733338e+00 
4052 4053 2 1.0280000357537209e+00 6.9339554119692593e+02 1.0000000000000000e+00 2.7482739479576747e+01 1.5812593496984091e+01 3.6433467211983221e+00 
1117 1118 2 1.0280000148006894e+00 1.5825436786775737e+02 1.0000000000000000e+00 3.0440328262601515e+01 1.5667276470735189e+01 3.3088501778907395e+00 
4073 4074 2 1.0279999997721168e+00 2.1664685750922940e+03 1.0000000000000000e+00 2.0698213519109125e+01 1.6342014157551024e+01 2.7079220916868945e+00 
4272 4273 2 1.0279999998544624e+00 4.8966827668448138e+02 1.0000000000000000e+00 2.3015637701533905e+01 1.7142702051360882e+01 2.1950087440875183e+00 
755 756 2 1.0280000002134546e+00 1.6678896309740230e+02 1.0000000000000000e+00 2.2034966903066827e+01 1.7047160333341832e+01 3.4879714598879414e+00 
1586 1587 2 1.0280000139737286e+00 -1.3556649352118222e+03 1.0000000000000000e+00 2.5614722578283487e+01 1.6927348327466689e+01 3.9753865558033437e+00 
1113 1114 2 1.0279999890882816e+00 1.4016703838490134e+00 1.0000000000000000e+00 2.8929146863808491e+01 1.6507474473613687e+01 2.5508456012579370e+00 
415 416 2 1.0280000010438448e+00 -2.6956633764597464e+03 1.0000000000000000e+00 1.8912398731803876e+01 1.8519485110634218e+01 3.9598607905795737e+00 
375 376 2 1.0279999998847542e+00 -2.3618650290345040e+03 1.0000000000000000e+00 2.0930327272805503e+01 1.8687554155351631e+01 3.2498577173872101e+00 
123 124 2 1.0279999998955933e+00 -2.3024727212402636e+03 1.0000000000000000e+00 2.0932864815012579e+01 1.8685440352390724e+01 3.2530671184442386e+00 
3560 3561 2 1.0280000011262702e+00 1.9398255567664074e+02 1.0000000000000000e+00 4.9098600966664456e+00 1.1597352059859927e+00 4.2599853160089376e+00 
3060 3061 2 1.0280000008101871e+00 3.3042826846467724e+03 1.0000000000000000e+00 8.7586783729822937e+00 4.3658478591038324e-01 4.2848876856306246e+00 
3391 3392 2 1.0279999976173186e+00 2.5399072896168673e+02 1.0000000000000000e+00 8.1379391709903359e+00 2.6160775486390113e-02 5.4932658894947286e+00 
3986 3987 2 1.0279999983854546e+00 -1.4862130273530482e+02 1.0000000000000000e+00 1.2958628821750182e+01 1.3264847137716116e+00 5.3031041349445660e+00 
3437 3438 2 1.0279999991612225e+00 1.1795863503415660e+03 1.0000000000000000e+00 1.4005880559310199e+01 1.0756601898935350e-01 4.8788056423481372e+00 
853 854 2 1.0280000000786209e+00 -3.7559312070393362e+03 1.0000000000000000e+00 1.7063959827358751e+01 2.6827632560540515e-01 4.4373360609440029e+00 
1819 1820 2 1.0280000001334582e+00 -2.8889681659704854e+02 1.0000000000000000e+00 1.7056424195537264e+01 2.6503897089909745e-01 4.4380038785130882e+00 
837 838 2 1.0280000003705221e+00 -9.4398418189302129e+02 1.0000000000000000e+00 4.4638293942122553e+00 3.9546926126963688e+00 4.0262797582904595e+00 
1409 1410 2 1.0279999967882927e+00 2.1640834670370468e+03 1.0000000000000000e+00 6.3980519770307396e+00 3.1576676811171391e+00 5.2177921562954239e+00 
3218 3219 2 1.0280000001432268e+00 -1.7237368786457245e+02 1.0000000000000000e+00 6.8115331453946268e+00 3.6668482240170244e+00 5.6775784052682807e+00 
1376 1377 2 1.0279999997544591e+00 1.3741072484134738e+03 1.0000000000000000e+00 9.0319758904574066e+00 2.6171967443251924e+00 4.1006942391416201e+00 
3686 3687 2 1.0280000014701673e+00 1.3781991563728729e+03 1.0000000000000000e+00 9.4499392613206048e+00 3.7213350240703420e+00 4.2952385070277064e+00 
4611 4612 2 1.0279999996263622e+00 -2.5249832150215634e+03 1.0000000000000000e+00 8.7967639715001571e+00 3.1093509812042650e+00 5.7342793721405787e+00 
2605 2606 2 1.0279999994499491e+00 -2.5663569740044477e+02 1.0000000000000000e+00 1.0505707598987289e+01 2.9308516519976680e+00 5.9238712708936276e+00 
2310 2311 2 1.0279999971249003e+00 -2.4281015758910435e+03 1.0000000000000000e+00 1.2662272606375559e+01 2.4044744339731081e+00 4.8101609449839486e+00 
298 299 2 1.0280000019432702e+00 -1.9143854802651010e+01 1.0000000000000000e+00 1.2842467090638962e+01 3.8176696827290466e+00 5.5780169256805623e+00 
585 586 2 1.0280000000181813e+00 -9.4408087965157051e+02 1.0000000000000000e+00 4.4835578088516694e+00 4.0392549101143800e+00 4.1059201906861116e+00 
997 998 2 1.0279999965668190e+00 3.2012767954384850e+02 1.0000000000000000e+00 8.5830882130584705e+00 4.9326467538571324e+00 4.2369313500130357e+00 
2175 2176 2 1.0279999998980511e+00 1.7795443834554821e+03 1.0000000000000000e+00 8.6917172270910203e+00 4.7426021660307827e+00 5.8461437049393687e+00 
283 284 2 1.0280000032439742e+00 4.2931185903195103e+02 1.0000000000000000e+00 1.0449883398217622e+01 5.8623731984753196e+00 4.9090429926411430e+00 
1679 1680 2 1.0279999969872500e+00 -1.3154345343390692e+03 1.0000000000000000e+00 1.2298261639347539e+01 4.2343831749604854e+00 4.0825163844874579e+00 
1235 1236 2 1.0280000001314700e+00 -6.6089534857436615e+02 1.0000000000000000e+00 3.2607286292658245e+01 4.6100353639621954e+00 5.6082943342877032e+00 
1829 1830 2 1.0279999990665030e+00 2.2204077699454442e+03 1.0000000000000000e+00 7.8894789946261996e+00 7.1299825993893462e+00 4.1461584743938431e+00 
374 375 2 1.0279999997656122e+00 1.9830680835030930e+03 1.0000000000000000e+00 9.2165052171484732e+00 7.6462676469067059e+00 5.3500762950249401e+00 
1674 1675 2 1.0279999998111797e+00 3.3160359134165719e+03 1.0000000000000000e+00 9.8979278692035280e+00 6.0570485557075058e+00 5.4695075372414994e+00 
1968 1969 2 1.0279999970135982e+00 4.8364160083700585e+02 1.0000000000000000e+00 1.1024154417877238e+01 7.3229794076591785e+00 4.0286440105678931e+00 
1220 1221 2 1.0280000013386330e+00 -1.2901297774740597e+03 1.0000000000000000e+00 1.2761237026359996e+01 6.6465050041022318e+00 4.2237862694232327e+00 
1381 1382 2 1.0279999986819455e+00 2.1366977458672459e+03 1.0000000000000000e+00 1.2327628285922394e+01 6.1817498608758692e+00 4.8217904818012434e+00 
2537 2538 2 1.0280000002313179e+00 1.2087922599143913e+03 1.0000000000000000e+00 3.2149290812373970e+01 6.4941264784390880e+00 5.5690762647250676e+00 
2073 2074 2 1.0279999998605347e+00 -3.5968974764189977e+02 1.0000000000000000e+00 3.2570305195387220e+01 7.1663910117217871e+00 5.7235359963275974e+00 
1800 1801 2 1.0280000015540116e+00 -3.1685284497560222e+01 1.0000000000000000e+00 9.3466065926778459e+00 8.1404474847047812e+00 4.9437060587791555e+00 
452 453 2 1.0279999994474740e+00 -3.3047982545830837e+03 1.0000000000000000e+00 1.0612472612709785e+01 9.9253369590776792e+00 4.4395266111926119e+00 
2631 2632 2 1.0280000017568303e+00 1.2815973077329654e+03 1.0000000000000000e+00 1.1633500859984471e+01 8.7985858773720604e+00 5.5241433041965244e+00 
1252 1253 2 1.0279999948854226e+00 1.2410349176652639e+03 1.0000000000000000e+00 1.1288945017706389e+01 9.2651672586269367e+00 5.9672618034179248e+00 
716 717 2 1.0280000011859425e+00 2.2415351270420467e+02 1.0000000000000000e+00 1.3076014590765809e+01 9.6580963002304312e+00 5.2990203418594035e+00 
1259 1260 2 1.0279999998973852e+00 -1.2625412233793236e+03 1.0000000000000000e+00 1.3807596683253131e+01 9.4109722463865921e+00 4.6928060419994937e+00 
842 843 2 1.0279999981813579e+00 3.2868764860827660e+03 1.0000000000000000e+00 1.4905460644264087e+01 9.2020132364024168e+00 5.4346799930786016e+00 
843 844 2 1.0279999996491165e+00 1.1042200973047647e+03 1.0000000000000000e+00 1.5803939786760235e+01 8.6850522978655924e+00 4.2266536677565618e+00 
1644 1645 2 1.0279999987957631e+00 8.8054639384437814e+02 1.0000000000000000e+00 3.1570890033015743e+01 9.9606901785266579e+00 5.8431766716105953e+00 
845 846 2 1.0280000000306082e+00 8.2198331761595557e+02 1.0000000000000000e+00 1.5287589673668595e+01 1.1858013456865050e+01 5.4307357046202354e+00 
1639 1640 2 1.0280000008251329e+00 -1.9995034127228860e+03 1.0000000000000000e+00 1.6458191451205295e+01 1.1893303778744299e+01 4.8502104110379660e+00 
3457 3458 2 1.0280000039654826e+00 8.6141449156812014e+03 1.0000000000000000e+00 2.5709428490658091e+01 1.1200718276796994e+01 4.0039503988564089e+00 
1148 1149 2 1.0280000039654318e+00 9.2703180294188423e+03 1.0000000000000000e+00 2.5709286914709160e+01 1.1200737149449408e+01 4.0040169523972713e+00 
463 464 2 1.0279999991643669e+00 -1.5569181869166528e+03 1.0000000000000000e+00 3.0437384213239810e+01 1.0412936480126616e+01 4.0492631426751720e+00 
844 845 2 1.0279999993908675e+00 3.5802278916247758e+02 1.0000000000000000e+00 3.0390559232821051e+01 1.0429236604356731e+01 4.1294143852741190e+00 
758 759 2 1.0280000010777683e+00 3.9338024858383176e+02 1.0000000000000000e+00 3.1827335132423148e+01 1.0153290933413363e+01 5.4693025481062216e+00 
1684 1685 2 1.0279999974149896e+00 6.5633028169931345e+02 1.0000000000000000e+00 1.5930497619670255e+01 1.3717970467397736e+01 5.6986845878661949e+00 
1967 1968 2 1.0280000066618296e+00 -1.1531318395135141e+02 1.0000000000000000e+00 2.3664648930358286e+01 1.2769350775202495e+01 5.6147579626149016e+00 
2219 2220 2 1.0280000053798488e+00 -1.1532429126820558e+02 1.0000000000000000e+00 2.3650399311086115e+01 1.2764644554914124e+01 5.6311074534131462e+00 
1411 1412 2 1.0280000066891948e+00 -1.2969202551462713e+03 1.0000000000000000e+00 2.5320643827726332e+01 1.3779191478520096e+01 4.1857648372121297e+00 
559 560 2 1.0280000019975710e+00 -2.8062508696928705e+02 1.0000000000000000e+00 3.2376878485336860e+01 1.2092676494816317e+01 4.0541334017850312e+00 
1616 1617 2 1.0279999982424914e+00 5.3467529888642894e+03 1.0000000000000000e+00 3.2925141250136491e+01 1.3782140960311086e+01 5.1491405160746417e+00 
1222 1223 2 1.0280000001625367e+00 2.1994816096629988e+03 1.0000000000000000e+00 1.8706417477703347e+01 1.5691861452211279e+01 5.8250979294916592e+00 
3656 3657 2 1.0280000000856497e+00 -2.2171114739549275e+03 1.0000000000000000e+00 1.9984108194243245e+01 1.5296619710646507e+01 4.8298233322569271e+00 
114 115 2 1.0279999984212174e+00 3.4194032488587766e+02 1.0000000000000000e+00 2.1097241316330820e+01 1.5016146946192352e+01 5.6351063643037795e+00 
989 990 2 1.0279999994744393e+00 -3.1655692515226866e+02 1.0000000000000000e+00 2.9547359057855491e+01 1.5290964378837376e+01 4.8772568671576444e+00 
2078 2079 2 1.0280000032868297e+00 -1.0415311921221387e+03 1.0000000000000000e+00 3.0461468418217152e+01 1.4206743551018153e+01 5.8481146502536250e+00 
231 232 2 1.0280000017397246e+00 -6.4402639269436676e+01 1.0000000000000000e+00 3.2929163785969777e+01 1.4151568801795044e+01 5.4143549623298695e+00 
794 795 2 1.0279999998864275e+00 2.1938200831440427e+03 1.0000000000000000e+00 1.8297724758312999e+01 1.6127830602562987e+01 4.6976413437059827e+00 
291 292 2 1.0279999997623475e+00 -1.9322795687509674e+03 1.0000000000000000e+00 1.8930338086056860e+01 1.6612698665281165e+01 4.1348582477101345e+00 
2463 2464 2 1.0279999954248140e+00 1.2943101105426629e+03 1.0000000000000000e+00 2.4765629001304671e+01 1.7362599947009745e+01 4.1964525087893536e+00 
1964 1965 2 1.0279999953394752e+00 1.6670392359453751e+02 1.0000000000000000e+00 2.5944221162666889e+01 1.7088258987044945e+01 5.1493054627015029e+00 
101 102 2 1.0279999889960227e+00 -4.3148430761275716e+02 1.0000000000000000e+00 2.9664843670476564e+01 1.6136227042744046e+01 4.1488826847680897e+00 
1722 1723 2 1.0279999980397179e+00 -4.0714747011385327e+02 1.0000000000000000e+00 1.8725485135093955e+01 1.8446910707540372e+01 4.3514751915734404e+00 
2726 2727 2 1.0280000009557217e+00 -2.8088010505831244e+03 1.0000000000000000e+00 1.9284726683020288e+01 1.9876013406819673e+01 5.5579145534702770e+00 
2932 2933 2 1.0279999928360419e+00 4.1196740962851782e+03 1.0000000000000000e+00 2.5410632812783359e+01 1.8860129200277804e+01 4.8661632173176788e+00 
1963 1964 2 1.0280000220909693e+00 1.7787814128455043e+03 1.0000000000000000e+00 2.4980878239734349e+01 1.8837231055149630e+01 5.2590116070626900e+00 
2633 2634 2 1.0280000026139955e+00 1.1032617011431578e+03 1.0000000000000000e+00 6.8741935604278472e+00 1.1516333926745637e+00 6.8509777839524260e+00 
827 828 2 1.0279999984225525e+00 -4.2019474392552991e+02 1.0000000000000000e+00 6.6394241815162056e+00 9.1742962826341667e-01 7.1207420480337120e+00 
1589 1590 2 1.0279999993745084e+00 9.7291921856721473e+01 1.0000000000000000e+00 8.8734286387870789e+00 6.6184445621642296e-01 6.4344575058526177e+00 
2181 2182 2 1.0280000002519372e+00 1.2291662995449001e+03 1.0000000000000000e+00 1.0069530493454003e+01 2.0886668230399308e-01 6.4298094627343305e+00 
2106 2107 2 1.0280000003799143e+00 3.2207278051845260e+03 1.0000000000000000e+00 1.2699687694110782e+01 3.2886031005411476e-01 6.1029009930516747e+00 
258 259 2 1.0279999992058451e+00 -9.8976532906685611e+02 1.0000000000000000e+00 1.3607731487236379e+01 1.6185228120063815e+00 7.6830103829190310e+00 