LAMMPS data file via write_data, version 30 Jul 2016, timestep = 600000

2080 atoms
8 atom types

0.0000000000000000e+00 4.0000000000000000e+01 xlo xhi
0.0000000000000000e+00 4.0000000000000000e+01 ylo yhi
0.0000000000000000e+00 1.0000000000000000e+02 zlo zhi

Masses

1 3.896
2 16.08
3 1058.08
4 8.378
5 8.378
6 8.378
7 8.378
8 8.378

Atoms # meso-molecular

1 2 4 2.2559723595334460e+00 -7.5739792111940716e+01 4.2000000000000000e+03 0.0000000000000000e+00 0.0000000000000000e+00 2.5000000000000000e+00 
2 2 4 2.2559723595316457e+00 8.2790787461874515e+01 4.2000000000000000e+03 0.0000000000000000e+00 2.0000000000000000e+00 2.5000000000000000e+00 
21 2 4 2.2559723595361043e+00 -2.0970061593914519e+02 4.2000000000000000e+03 2.0000000000000000e+00 0.0000000000000000e+00 2.5000000000000000e+00 
22 2 4 2.2559723595316457e+00 -5.7451137580188414e+00 4.2000000000000000e+03 2.0000000000000000e+00 2.0000000000000000e+00 2.5000000000000000e+00 
41 2 4 2.2559723595316457e+00 -6.5918241792946290e+01 4.2000000000000000e+03 4.0000000000000000e+00 0.0000000000000000e+00 2.5000000000000000e+00 
42 2 4 2.2559723595318864e+00 1.1369496945812803e+00 4.2000000000000000e+03 4.0000000000000000e+00 2.0000000000000000e+00 2.5000000000000000e+00 
61 2 4 2.2559723595316457e+00 5.3322786478908437e+00 4.2000000000000000e+03 6.0000000000000000e+00 0.0000000000000000e+00 2.5000000000000000e+00 
62 2 4 2.2559723595316457e+00 1.2670415819542904e+00 4.2000000000000000e+03 6.0000000000000000e+00 2.0000000000000000e+00 2.5000000000000000e+00 
81 2 4 2.2559723595316457e+00 -1.5189894695797701e+01 4.2000000000000000e+03 8.0000000000000000e+00 0.0000000000000000e+00 2.5000000000000000e+00 
82 2 4 2.2559723595316457e+00 -1.1798254219146235e+01 4.2000000000000000e+03 8.0000000000000000e+00 2.0000000000000000e+00 2.5000000000000000e+00 
101 2 4 2.2559723595316457e+00 -4.2641930031544092e+01 4.2000000000000000e+03 1.0000000000000000e+01 0.0000000000000000e+00 2.5000000000000000e+00 
102 2 4 2.2559723595316457e+00 -2.2056174702166050e+01 4.2000000000000000e+03 1.0000000000000000e+01 2.0000000000000000e+00 2.5000000000000000e+00 
121 2 4 2.2559723595316457e+00 2.1680259583678609e+01 4.2000000000000000e+03 1.2000000000000000e+01 0.0000000000000000e+00 2.5000000000000000e+00 
122 2 4 2.2559723595316457e+00 4.9653743226984073e+00 4.2000000000000000e+03 1.2000000000000000e+01 2.0000000000000000e+00 2.5000000000000000e+00 
141 2 4 2.2559723595316457e+00 2.0315091963386509e+00 4.2000000000000000e+03 1.4000000000000000e+01 0.0000000000000000e+00 2.5000000000000000e+00 
142 2 4 2.2559723595316457e+00 1.0892590662894190e+00 4.2000000000000000e+03 1.4000000000000000e+01 2.0000000000000000e+00 2.5000000000000000e+00 
161 2 4 2.2559723595316457e+00 9.4551812655032541e-01 4.2000000000000000e+03 1.6000000000000000e+01 0.0000000000000000e+00 2.5000000000000000e+00 
162 2 4 2.2559723595316457e+00 9.9874927363435217e-01 4.2000000000000000e+03 1.6000000000000000e+01 2.0000000000000000e+00 2.5000000000000000e+00 
181 2 4 2.2559723595316457e+00 -9.2659598305077029e-02 4.2000000000000000e+03 1.8000000000000000e+01 0.0000000000000000e+00 2.5000000000000000e+00 
182 2 4 2.2559723595316457e+00 1.1088456705113816e+00 4.2000000000000000e+03 1.8000000000000000e+01 2.0000000000000000e+00 2.5000000000000000e+00 
3 2 4 2.2559723595316457e+00 1.8142518668763768e+02 4.2000000000000000e+03 0.0000000000000000e+00 4.0000000000000000e+00 2.5000000000000000e+00 
4 2 4 2.2559723595316470e+00 3.6310298457442093e+02 4.2000000000000000e+03 0.0000000000000000e+00 6.0000000000000000e+00 2.5000000000000000e+00 
23 2 4 2.2559723595316457e+00 5.3358921439802799e+01 4.2000000000000000e+03 2.0000000000000000e+00 4.0000000000000000e+00 2.5000000000000000e+00 
24 2 4 2.2559723595316457e+00 1.3929322970327513e+02 4.2000000000000000e+03 2.0000000000000000e+00 6.0000000000000000e+00 2.5000000000000000e+00 
43 2 4 2.2559723595316457e+00 2.0254269403455982e+00 4.2000000000000000e+03 4.0000000000000000e+00 4.0000000000000000e+00 2.5000000000000000e+00 
44 2 4 2.2559723595316457e+00 5.0793531616967336e+00 4.2000000000000000e+03 4.0000000000000000e+00 6.0000000000000000e+00 2.5000000000000000e+00 
63 2 4 2.2559723595316457e+00 7.8930062961131675e-01 4.2000000000000000e+03 6.0000000000000000e+00 4.0000000000000000e+00 2.5000000000000000e+00 
64 2 4 2.2559723595316457e+00 9.9018518490984131e-01 4.2000000000000000e+03 6.0000000000000000e+00 6.0000000000000000e+00 2.5000000000000000e+00 
83 2 4 2.2559723595316457e+00 9.8478685433694657e-01 4.2000000000000000e+03 8.0000000000000000e+00 4.0000000000000000e+00 2.5000000000000000e+00 
84 2 4 2.2559723595316457e+00 1.0101358691031905e+00 4.2000000000000000e+03 8.0000000000000000e+00 6.0000000000000000e+00 2.5000000000000000e+00 
103 2 4 2.2559723595316457e+00 9.8809758477179344e-01 4.2000000000000000e+03 1.0000000000000000e+01 4.0000000000000000e+00 2.5000000000000000e+00 
104 2 4 2.2559723595316474e+00 9.9985818470283205e-01 4.2000000000000000e+03 1.0000000000000000e+01 6.0000000000000000e+00 2.5000000000000000e+00 
123 2 4 2.2559723595316457e+00 9.9983467458177877e-01 4.2000000000000000e+03 1.2000000000000000e+01 4.0000000000000000e+00 2.5000000000000000e+00 
124 2 4 2.2559723595316457e+00 1.0184616798673602e+00 4.2000000000000000e+03 1.2000000000000000e+01 6.0000000000000000e+00 2.5000000000000000e+00 
143 2 4 2.2559723595316457e+00 1.0004016771305646e+00 4.2000000000000000e+03 1.4000000000000000e+01 4.0000000000000000e+00 2.5000000000000000e+00 
144 2 4 2.2559723595316457e+00 5.4220753720533059e+00 4.2000000000000000e+03 1.4000000000000000e+01 6.0000000000000000e+00 2.5000000000000000e+00 
163 2 4 2.2559723595316457e+00 1.0204567586981876e+00 4.2000000000000000e+03 1.6000000000000000e+01 4.0000000000000000e+00 2.5000000000000000e+00 
164 2 4 2.2559723595316457e+00 1.6135805261534301e+01 4.2000000000000000e+03 1.6000000000000000e+01 6.0000000000000000e+00 2.5000000000000000e+00 
183 2 4 2.2559723595316457e+00 1.0025621861595297e+00 4.2000000000000000e+03 1.8000000000000000e+01 4.0000000000000000e+00 2.5000000000000000e+00 
184 2 4 2.2559723595316457e+00 4.9956387162322411e+00 4.2000000000000000e+03 1.8000000000000000e+01 6.0000000000000000e+00 2.5000000000000000e+00 
5 2 4 2.2559723595906713e+00 1.4776295810088169e+02 4.2000000000000000e+03 0.0000000000000000e+00 8.0000000000000000e+00 2.5000000000000000e+00 
6 2 4 2.2559723595316457e+00 4.0175193420118589e+00 4.2000000000000000e+03 0.0000000000000000e+00 1.0000000000000000e+01 2.5000000000000000e+00 
25 2 4 2.2559723595316457e+00 5.4719365249085541e+01 4.2000000000000000e+03 2.0000000000000000e+00 8.0000000000000000e+00 2.5000000000000000e+00 
26 2 4 2.2559723595316457e+00 1.1592510060890864e+00 4.2000000000000000e+03 2.0000000000000000e+00 1.0000000000000000e+01 2.5000000000000000e+00 
45 2 4 2.2559723595316457e+00 1.0617878032115105e+00 4.2000000000000000e+03 4.0000000000000000e+00 8.0000000000000000e+00 2.5000000000000000e+00 
46 2 4 2.2559723595316457e+00 9.9997952677048429e-01 4.2000000000000000e+03 4.0000000000000000e+00 1.0000000000000000e+01 2.5000000000000000e+00 
65 2 4 2.2559723595316457e+00 9.7087661825886640e-01 4.2000000000000000e+03 6.0000000000000000e+00 8.0000000000000000e+00 2.5000000000000000e+00 
66 2 4 2.2559723595316457e+00 9.9993246323474705e-01 4.2000000000000000e+03 6.0000000000000000e+00 1.0000000000000000e+01 2.5000000000000000e+00 
85 2 4 2.2559723595316457e+00 1.0001138241467697e+00 4.2000000000000000e+03 8.0000000000000000e+00 8.0000000000000000e+00 2.5000000000000000e+00 
86 2 4 2.2559723595316457e+00 9.9963114784905227e-01 4.2000000000000000e+03 8.0000000000000000e+00 1.0000000000000000e+01 2.5000000000000000e+00 
105 2 4 2.2559723595316457e+00 1.0003578884892543e+00 4.2000000000000000e+03 1.0000000000000000e+01 8.0000000000000000e+00 2.5000000000000000e+00 
106 2 4 2.2559723595316457e+00 1.6726837094731721e+00 4.2000000000000000e+03 1.0000000000000000e+01 1.0000000000000000e+01 2.5000000000000000e+00 
125 2 4 2.2559723595316457e+00 2.6587327741454372e+00 4.2000000000000000e+03 1.2000000000000000e+01 8.0000000000000000e+00 2.5000000000000000e+00 
126 2 4 2.2559723595316457e+00 1.1786141836188200e+01 4.2000000000000000e+03 1.2000000000000000e+01 1.0000000000000000e+01 2.5000000000000000e+00 
145 2 4 2.2559723595316457e+00 -1.9633008893314019e+02 4.2000000000000000e+03 1.4000000000000000e+01 8.0000000000000000e+00 2.5000000000000000e+00 
146 2 4 2.2559723595316457e+00 -1.0866162674442662e+03 4.2000000000000000e+03 1.4000000000000000e+01 1.0000000000000000e+01 2.5000000000000000e+00 
165 2 4 2.2559723595316457e+00 -1.0427255128192164e+03 4.2000000000000000e+03 1.6000000000000000e+01 8.0000000000000000e+00 2.5000000000000000e+00 
166 2 4 2.2559723595316457e+00 -4.1810279947069721e+03 4.2000000000000000e+03 1.6000000000000000e+01 1.0000000000000000e+01 2.5000000000000000e+00 
185 2 4 2.2559723595316457e+00 -1.3493671489660644e+03 4.2000000000000000e+03 1.8000000000000000e+01 8.0000000000000000e+00 2.5000000000000000e+00 
186 2 4 2.2559723595316457e+00 -5.3616630836344866e+03 4.2000000000000000e+03 1.8000000000000000e+01 1.0000000000000000e+01 2.5000000000000000e+00 
7 2 4 2.2559723595318011e+00 7.9167868839122624e-01 4.2000000000000000e+03 0.0000000000000000e+00 1.2000000000000000e+01 2.5000000000000000e+00 
8 2 4 2.2559723595316457e+00 -1.0731531264593407e+01 4.2000000000000000e+03 0.0000000000000000e+00 1.4000000000000000e+01 2.5000000000000000e+00 
27 2 4 2.2559723595316457e+00 1.0012576151760264e+00 4.2000000000000000e+03 2.0000000000000000e+00 1.2000000000000000e+01 2.5000000000000000e+00 
28 2 4 2.2559723595316457e+00 -1.2452098207417237e+00 4.2000000000000000e+03 2.0000000000000000e+00 1.4000000000000000e+01 2.5000000000000000e+00 
47 2 4 2.2559723595316457e+00 1.0011382537267819e+00 4.2000000000000000e+03 4.0000000000000000e+00 1.2000000000000000e+01 2.5000000000000000e+00 
48 2 4 2.2559723595316457e+00 9.8998440109756847e-01 4.2000000000000000e+03 4.0000000000000000e+00 1.4000000000000000e+01 2.5000000000000000e+00 
67 2 4 2.2559723595316457e+00 9.9733039896516384e-01 4.2000000000000000e+03 6.0000000000000000e+00 1.2000000000000000e+01 2.5000000000000000e+00 
68 2 4 2.2559723595316457e+00 1.0007269497591824e+00 4.2000000000000000e+03 6.0000000000000000e+00 1.4000000000000000e+01 2.5000000000000000e+00 
87 2 4 2.2559723595316457e+00 1.9337225654189965e+00 4.2000000000000000e+03 8.0000000000000000e+00 1.2000000000000000e+01 2.5000000000000000e+00 
88 2 4 2.2559723595316457e+00 -1.9302878442065436e+00 4.2000000000000000e+03 8.0000000000000000e+00 1.4000000000000000e+01 2.5000000000000000e+00 
107 2 4 2.2559723595316457e+00 8.4878943214489730e+00 4.2000000000000000e+03 1.0000000000000000e+01 1.2000000000000000e+01 2.5000000000000000e+00 
108 2 4 2.2559723595316457e+00 -1.2724356850755429e+01 4.2000000000000000e+03 1.0000000000000000e+01 1.4000000000000000e+01 2.5000000000000000e+00 
127 2 4 2.2559723595316457e+00 1.7688789639525663e+01 4.2000000000000000e+03 1.2000000000000000e+01 1.2000000000000000e+01 2.5000000000000000e+00 
128 2 4 2.2559723595316457e+00 1.7344525275769886e+01 4.2000000000000000e+03 1.2000000000000000e+01 1.4000000000000000e+01 2.5000000000000000e+00 
147 2 4 2.2559723595316457e+00 -1.3349622053501782e+03 4.2000000000000000e+03 1.4000000000000000e+01 1.2000000000000000e+01 2.5000000000000000e+00 
148 2 4 2.2559723595316457e+00 -1.2774471490180340e+03 4.2000000000000000e+03 1.4000000000000000e+01 1.4000000000000000e+01 2.5000000000000000e+00 
167 2 4 2.2559723595316457e+00 -5.2473180766785845e+03 4.2000000000000000e+03 1.6000000000000000e+01 1.2000000000000000e+01 2.5000000000000000e+00 
168 2 4 2.2559723595316457e+00 -5.0713262987666503e+03 4.2000000000000000e+03 1.6000000000000000e+01 1.4000000000000000e+01 2.5000000000000000e+00 
187 2 4 2.2559723595316457e+00 -6.5963306194669212e+03 4.2000000000000000e+03 1.8000000000000000e+01 1.2000000000000000e+01 2.5000000000000000e+00 
188 2 4 2.2559723595316457e+00 -6.4350103213731745e+03 4.2000000000000000e+03 1.8000000000000000e+01 1.4000000000000000e+01 2.5000000000000000e+00 
9 2 4 2.2559723595316457e+00 -1.3592484384453778e+02 4.2000000000000000e+03 0.0000000000000000e+00 1.6000000000000000e+01 2.5000000000000000e+00 
10 2 4 2.2559723595316457e+00 -3.1076339781798572e+02 4.2000000000000000e+03 0.0000000000000000e+00 1.8000000000000000e+01 2.5000000000000000e+00 
29 2 4 2.2559723595316457e+00 -1.7265057037564045e+01 4.2000000000000000e+03 2.0000000000000000e+00 1.6000000000000000e+01 2.5000000000000000e+00 
30 2 4 2.2559723595316457e+00 -1.6666265512698256e+01 4.2000000000000000e+03 2.0000000000000000e+00 1.8000000000000000e+01 2.5000000000000000e+00 
49 2 4 2.2559723595316457e+00 -6.9997952975812607e+00 4.2000000000000000e+03 4.0000000000000000e+00 1.6000000000000000e+01 2.5000000000000000e+00 
50 2 4 2.2559723595320467e+00 -4.6141570305675110e+01 4.2000000000000000e+03 4.0000000000000000e+00 1.8000000000000000e+01 2.5000000000000000e+00 
69 2 4 2.2559723595316457e+00 -1.7662311855857435e+01 4.2000000000000000e+03 6.0000000000000000e+00 1.6000000000000000e+01 2.5000000000000000e+00 
70 2 4 2.2559723595316457e+00 -7.7869511960942901e+01 4.2000000000000000e+03 6.0000000000000000e+00 1.8000000000000000e+01 2.5000000000000000e+00 
89 2 4 2.2559723595316457e+00 -2.8587387187999351e+01 4.2000000000000000e+03 8.0000000000000000e+00 1.6000000000000000e+01 2.5000000000000000e+00 
90 2 4 2.2559723595316457e+00 -3.3264885571812499e+01 4.2000000000000000e+03 8.0000000000000000e+00 1.8000000000000000e+01 2.5000000000000000e+00 
109 2 4 2.2559723595316457e+00 -7.3594474541104518e+01 4.2000000000000000e+03 1.0000000000000000e+01 1.6000000000000000e+01 2.5000000000000000e+00 
110 2 4 2.2559723595316457e+00 -3.7226780022470017e+01 4.2000000000000000e+03 1.0000000000000000e+01 1.8000000000000000e+01 2.5000000000000000e+00 
129 2 4 2.2559723595316457e+00 -1.1100586303739142e+02 4.2000000000000000e+03 1.2000000000000000e+01 1.6000000000000000e+01 2.5000000000000000e+00 
130 2 4 2.2559723595316457e+00 -1.5825468815604503e+02 4.2000000000000000e+03 1.2000000000000000e+01 1.8000000000000000e+01 2.5000000000000000e+00 
149 2 4 2.2559723595316457e+00 -1.4252314685259714e+03 4.2000000000000000e+03 1.4000000000000000e+01 1.6000000000000000e+01 2.5000000000000000e+00 
150 2 4 2.2559723595316457e+00 -1.5856481605709068e+03 4.2000000000000000e+03 1.4000000000000000e+01 1.8000000000000000e+01 2.5000000000000000e+00 
169 2 4 2.2559723595316457e+00 -5.0167867005602648e+03 4.2000000000000000e+03 1.6000000000000000e+01 1.6000000000000000e+01 2.5000000000000000e+00 
170 2 4 2.2559723595316457e+00 -5.0822265535075985e+03 4.2000000000000000e+03 1.6000000000000000e+01 1.8000000000000000e+01 2.5000000000000000e+00 
189 2 4 2.2559723595316457e+00 -6.3077423707919106e+03 4.2000000000000000e+03 1.8000000000000000e+01 1.6000000000000000e+01 2.5000000000000000e+00 
190 2 4 2.2559723595316457e+00 -6.2666818757727369e+03 4.2000000000000000e+03 1.8000000000000000e+01 1.8000000000000000e+01 2.5000000000000000e+00 
843 445 2 1.0279999732010403e+00 -7.4218064773239050e+04 4.2000000000000000e+03 1.5689509574377317e+01 1.3200523517381992e+01 6.9879538695682371e+01 
562 164 2 1.0280009546486046e+00 4.2279889830525008e+03 4.2000000000000000e+03 1.5927351944040641e+01 1.3058670057042621e+01 7.0485866966531361e+01 
483 85 2 1.0280008138653018e+00 5.8310675310029961e+04 4.2000000000000000e+03 1.8782410513117451e+01 1.5924629300590178e+01 6.8217980515076661e+01 
495 97 2 1.0280047262146381e+00 1.3344441531762366e+04 4.2000000000000000e+03 1.6094593687284515e+01 1.3865498974707123e+01 6.9140164639818437e+01 
1553 1155 2 1.0280049759363969e+00 1.1772488901501613e+05 4.2000000000000000e+03 1.6016568534773757e+01 1.4449348878732323e+01 6.9310376561694113e+01 
988 590 2 1.0280014015759529e+00 5.2281764852676475e+04 4.2000000000000000e+03 1.6021063928146877e+01 1.3005567367256726e+01 7.0462531157208787e+01 
1751 1353 2 1.0280016072327716e+00 -1.1418003370489367e+04 4.2000000000000000e+03 1.6403870875704005e+01 1.3134978826823708e+01 7.0717258858176521e+01 
534 136 2 1.0279990406176804e+00 -8.3873209389996941e+02 4.2000000000000000e+03 1.8864445928572952e+01 1.6031244561194246e+01 6.8181215513843256e+01 
555 157 2 1.0280038583401425e+00 -2.9108623130104272e+04 4.2000000000000000e+03 1.8509202288824255e+01 1.6522968472922422e+01 6.8107318001297344e+01 
1937 1539 2 1.0279974162640400e+00 4.9510442617959379e+04 4.2000000000000000e+03 1.8839785752468345e+01 1.6817103244460728e+01 6.8012288005441107e+01 
1034 636 2 1.0279922621564967e+00 -1.2893312591391314e+05 4.2000000000000000e+03 1.9374202258453394e+01 1.7282217455214003e+01 6.8080819253497978e+01 
1842 1444 2 1.0280137995371741e+00 -5.7920867002191648e+04 4.2000000000000000e+03 1.9986874213973227e+01 1.8483312703129638e+01 7.0119493831555104e+01 
1330 932 2 1.0279992804793516e+00 -6.8922509434853913e+04 4.2000000000000000e+03 1.6269257222104279e+01 1.3885872042654480e+01 7.0975635092284151e+01 
1829 1431 2 1.0279906378951471e+00 -1.0004659841795617e+04 4.2000000000000000e+03 1.8544500857577454e+01 1.5989315950603952e+01 7.1290376889042847e+01 
910 512 2 1.0280089606975973e+00 1.2350789676450840e+03 4.2000000000000000e+03 1.9653370619498762e+01 1.7919161948486906e+01 7.1403896439441269e+01 
1661 1263 2 1.0279997128684126e+00 9.2093767885757698e+03 4.2000000000000000e+03 1.2805399434933925e+01 1.9728821448496225e+00 7.8927643016357109e+01 
2028 1630 2 1.0279988107509546e+00 7.8613179971359219e+04 4.2000000000000000e+03 1.2034505922663190e+01 2.8102909103189173e+00 7.9120947456590926e+01 
1683 1285 2 1.0279914033465434e+00 -7.6149620693019911e+04 4.2000000000000000e+03 1.8849029979848417e+01 8.3324390956383567e+00 7.8432664441177948e+01 
1203 805 2 1.0279926079527106e+00 -4.6394970348974020e+04 4.2000000000000000e+03 1.9311065127759669e+01 8.9714725164695572e+00 7.8023226778756111e+01 
839 441 2 1.0279926655311111e+00 -6.3133825232745861e+04 4.2000000000000000e+03 1.9017532279388377e+01 8.8363426685664379e+00 7.8253165167137922e+01 
2063 1665 2 1.0279933357003008e+00 -8.9368043121877690e+03 4.2000000000000000e+03 1.9578965623232222e+01 9.0838356368017745e+00 7.7910100973753444e+01 
1902 1504 2 1.0279952813834916e+00 1.8831872033325715e+04 4.2000000000000000e+03 1.8986018333423150e+01 9.0986790984116688e+00 7.8400769552437112e+01 
1207 809 2 1.0280033997715885e+00 -2.8411879474246092e+04 4.2000000000000000e+03 1.1046390924227531e+01 1.2718625745413119e+00 8.1897149802795141e+01 
462 64 2 1.0280016761904649e+00 3.0020981769457259e+04 4.2000000000000000e+03 1.1296716758004331e+01 2.3912383607778578e+00 8.1567809712355654e+01 
1378 980 2 1.0279991430139719e+00 -1.1679872777221947e+05 4.2000000000000000e+03 1.1564216341790054e+01 2.8839871421437455e+00 7.9545739739382086e+01 
469 71 2 1.0279989283102311e+00 6.4733665212491484e+04 4.2000000000000000e+03 1.1513154310585751e+01 4.2167236598192531e-01 7.9351625972130861e+01 
730 332 2 1.0279994050669308e+00 -6.3384568620094193e+04 4.2000000000000000e+03 1.1769094834674025e+01 1.4572172095462796e+00 8.3304344828698063e+01 
694 296 2 1.0279969733575025e+00 -5.5258882420755617e+04 4.2000000000000000e+03 1.2906096620459930e+01 3.7464989511472822e+00 7.9676758617378070e+01 
908 510 2 1.0279963061910993e+00 1.3166586684353085e+05 4.2000000000000000e+03 1.3187076514915818e+01 3.9007700868497550e+00 7.9857432398709491e+01 
1973 1575 2 1.0279938867765983e+00 9.3614850274536482e+04 4.2000000000000000e+03 1.4730610890121794e+01 5.1465710636104356e-01 8.1365976503183745e+01 
1202 804 2 1.0279868892613870e+00 -4.7614331426689518e+04 4.2000000000000000e+03 1.6950392987340070e+01 3.8186495578574480e+00 8.1773968289924539e+01 
1197 799 2 1.0279916076016355e+00 6.0975578947443006e+04 4.2000000000000000e+03 1.6827348732457011e+01 2.5155033683144703e+00 8.2688198251337610e+01 
1507 1109 2 1.0279803894321304e+00 -7.9813657054947951e+04 4.2000000000000000e+03 1.9202059629842068e+01 2.7160089423302467e+00 8.2166402603021055e+01 
412 14 2 1.0279888000144792e+00 1.0017919377770649e+05 4.2000000000000000e+03 1.8900202525535143e+01 7.7288006509196872e-02 8.0478552844464517e+01 
1234 836 2 1.0279967368166447e+00 -8.4090289609361615e+04 4.2000000000000000e+03 1.4215151770844072e+01 5.0231739504022519e+00 8.0831536105738394e+01 
960 562 2 1.0280008979405653e+00 4.4892478442935149e+04 4.2000000000000000e+03 1.4277373235708497e+01 5.5041302352700079e+00 8.1159743631134376e+01 
1410 1012 2 1.0280041897306649e+00 1.6310994587793988e+04 4.2000000000000000e+03 1.5045827475629997e+01 6.8446168086142691e+00 8.2496542761258979e+01 
1941 1543 2 1.0279976583601729e+00 3.8969251398545821e+04 4.2000000000000000e+03 1.3799791263083245e+01 5.5711504307528541e+00 8.3200131261504225e+01 
991 593 2 1.0279997182750955e+00 -2.4417925996951479e+04 4.2000000000000000e+03 1.5970760688164750e+01 6.5015473669538961e+00 8.1619223876211862e+01 
904 506 2 1.0279873357902374e+00 4.9580690782037796e+04 4.2000000000000000e+03 1.8463009511348069e+01 5.4021491493299836e+00 8.0553340947107500e+01 
850 452 2 1.0279873091881782e+00 -7.3675972812931286e+04 4.2000000000000000e+03 1.8471672994725029e+01 5.4223879348036537e+00 8.0537806729500431e+01 
886 488 2 1.0279910860027854e+00 -1.0224285462558453e+05 4.2000000000000000e+03 1.9061179116372976e+01 6.2164169426556350e+00 7.9623525676067075e+01 
602 204 2 1.0279975835901700e+00 -7.1998177517918710e+04 4.2000000000000000e+03 1.6123506935039178e+01 7.9418474076946950e+00 8.3283419717806481e+01 
1946 1548 2 1.0280438122956068e+00 3.9874729481940405e+04 4.2000000000000000e+03 1.9653769292677797e+01 8.0324924919413903e+00 8.2507564013295067e+01 
1145 747 2 1.0280067154127308e+00 1.2595691136612319e+04 4.2000000000000000e+03 1.9028505960708941e+01 1.0094998281109365e+01 8.2899657693345915e+01 
1668 1270 2 1.0279924606035062e+00 2.7024161759830742e+04 4.2000000000000000e+03 1.9395577847837306e+01 1.0293312004309849e+01 8.2948844226370085e+01 
1641 1243 2 1.0279877260357115e+00 4.7461026988143531e+04 4.2000000000000000e+03 1.7965027262829778e+01 8.4482033618014309e+00 8.3222368626534475e+01 
1473 1075 2 1.0280008101509079e+00 7.1546678821487394e+03 4.2000000000000000e+03 1.6518549878181190e+01 1.1262683769208206e+01 8.3207950693775388e+01 
776 378 2 1.0279968560603976e+00 3.2414768849934509e+04 4.2000000000000000e+03 1.7922602726005888e+01 1.2702648846027349e+01 8.1666048025655456e+01 
943 545 2 1.0279968671125057e+00 -7.5710600541412612e+04 4.2000000000000000e+03 1.8848439619415078e+01 1.3699190545234089e+01 8.0947294896043701e+01 
1990 1592 2 1.0279968850136492e+00 6.6893315811979948e+04 4.2000000000000000e+03 1.8064187842806994e+01 1.2843290092580716e+01 8.1517901092523005e+01 
739 341 2 1.0280019396016460e+00 5.3249312762705784e+04 4.2000000000000000e+03 1.8145767363891832e+01 1.4540154431718133e+01 8.1428776834712451e+01 
1965 1567 2 1.0280063367700647e+00 3.8264922422532371e+04 4.2000000000000000e+03 1.7481320852338907e+01 1.5292581217111868e+01 8.2515906470474292e+01 
1426 1028 2 1.0279997019405223e+00 -1.0205888754267937e+05 4.2000000000000000e+03 1.7827220988394448e+01 1.9249356337280020e+01 7.9432557602024133e+01 
916 518 2 1.0279975989303689e+00 -4.1892853404754183e+04 4.2000000000000000e+03 1.7342311535494559e+01 1.9216960672414125e+01 7.9879066561702203e+01 
1117 719 2 1.0279867065894204e+00 4.1584972138196994e+04 4.2000000000000000e+03 1.6992419878565009e+01 1.9146295278679499e+01 8.1582063970240398e+01 
1694 1296 2 1.0279746222981281e+00 -5.4050659089059489e+04 4.2000000000000000e+03 1.7645965829947023e+01 1.7842580555803121e+01 8.2376793074155998e+01 
1502 1104 2 1.0280103681828012e+00 -9.8507242490171557e+04 4.2000000000000000e+03 1.7500052987667072e+01 1.6265367405224840e+01 8.2969480689478104e+01 
832 434 2 1.0280002911561748e+00 3.3566483520381807e+04 4.2000000000000000e+03 3.3671171267502586e+00 2.0663659145963209e-01 8.5273973968855742e+01 
1101 703 2 1.0279999823122192e+00 2.0021594457128376e+04 4.2000000000000000e+03 3.3604214692637919e+00 4.2650572486824750e-01 8.5590461811655075e+01 
1944 1546 2 1.0280003223766265e+00 4.0614216262362366e+04 4.2000000000000000e+03 3.1683391938478760e+00 6.9435754897740209e-01 8.6074287234523069e+01 
1200 802 2 1.0280002534468433e+00 6.3717259180515954e+04 4.2000000000000000e+03 1.4188383781310923e+00 2.4784450273027350e+00 8.7462594639812394e+01 
636 238 2 1.0279956802788377e+00 4.4339265258209598e+03 4.2000000000000000e+03 6.6132638994397244e+00 2.3195015193387807e+00 8.6403394986257354e+01 
695 297 2 1.0280014795927572e+00 -5.7337928786305711e+04 4.2000000000000000e+03 6.2059672440946372e+00 3.3740145338034688e+00 8.6333719230585785e+01 
677 279 2 1.0279883309087936e+00 -8.0326693752089823e+03 4.2000000000000000e+03 8.6620636145649570e+00 9.2100680629783049e-01 8.5517950161326624e+01 
1068 670 2 1.0280005509306385e+00 1.2192094341174561e+04 4.2000000000000000e+03 9.0557781364447685e+00 1.2852732874367325e+00 8.5272600338733014e+01 
1329 931 2 1.0280064044169432e+00 2.2670124034425469e+04 4.2000000000000000e+03 9.1822138120294632e+00 2.0985164880689529e+00 8.5184655142879990e+01 
1984 1586 2 1.0280064236487156e+00 6.2371911380969352e+04 4.2000000000000000e+03 1.0037477263163753e+01 3.1848692965627570e+00 8.5053972695720219e+01 
785 387 2 1.0280192842250973e+00 2.8291629780253650e+04 4.2000000000000000e+03 1.3769490179328566e+01 1.9018477602155284e+00 8.4158167332558165e+01 
699 301 2 1.0280338703222962e+00 -2.7984992164575560e+04 4.2000000000000000e+03 1.5315762334280441e+01 3.5488041641798116e+00 8.5566116003685110e+01 
1736 1338 2 1.0280069496732296e+00 3.5434932613325873e+04 4.2000000000000000e+03 1.3950019897331382e+01 1.1471692129782682e+00 8.4259415750691105e+01 
711 313 2 1.0279983913848516e+00 -4.3706462867127579e+04 4.2000000000000000e+03 1.7817647288097636e+01 3.3781575599619518e+00 8.4146843819246939e+01 
559 161 2 1.0280446756542729e+00 7.5268905451962264e+03 4.2000000000000000e+03 1.8096128099844741e+01 3.1169402113001183e+00 8.3547805753668385e+01 
1040 642 2 1.0279068951210943e+00 4.9187276461279893e+04 4.2000000000000000e+03 1.6256159053486044e+01 9.8138274398110126e-01 8.4486102133289194e+01 
1873 1475 2 1.0280081259780458e+00 -1.0852630932118096e+04 4.2000000000000000e+03 1.7020612711446400e+01 9.8458661279574833e-01 8.6954558412857764e+01 
455 57 2 1.0278952458074726e+00 3.0485491487127947e+04 4.2000000000000000e+03 1.8986307163224044e+01 3.5159956254747660e-01 8.7457994283524698e+01 
513 115 2 1.0279362952094715e+00 7.4503549991029358e+04 4.2000000000000000e+03 1.9860412594808224e+01 3.3861101037404744e+00 8.6830837093851002e+01 
1180 782 2 1.0279982955815390e+00 3.1317207748797417e+04 4.2000000000000000e+03 1.1824386825596922e+00 4.2744812149085440e+00 8.7470753285503406e+01 
592 194 2 1.0280010579510188e+00 -8.6822779302733361e+03 4.2000000000000000e+03 2.0413653155650702e-01 4.6953101969660427e+00 8.7278670218851659e+01 
1258 860 2 1.0279998327530644e+00 -8.2355867820785046e+04 4.2000000000000000e+03 4.4931410513418681e+00 4.5787075838422497e+00 8.7487910405365994e+01 
523 125 2 1.0279994486069570e+00 2.7284595168310330e+04 4.2000000000000000e+03 5.1668223776226805e+00 4.1812017401627104e+00 8.6891225188343824e+01 
1858 1460 2 1.0279991577848409e+00 -4.8415850538612744e+04 4.2000000000000000e+03 6.8191057445180157e+00 4.9735893645902856e+00 8.6705095744727615e+01 
1759 1361 2 1.0279979160827941e+00 -5.6886756444412997e+04 4.2000000000000000e+03 7.3943910333717167e+00 5.3039554009775030e+00 8.6831206058665231e+01 
1338 940 2 1.0279984289541202e+00 -7.3564698635084802e+04 4.2000000000000000e+03 8.5570780425964585e+00 5.7861969764916354e+00 8.7073280207714873e+01 
545 147 2 1.0280019785691950e+00 9.6243431350772487e+04 4.2000000000000000e+03 1.0155006378505654e+01 4.7644413196846722e+00 8.5918693616618924e+01 
743 345 2 1.0280039132190348e+00 -8.2245657354088704e+04 4.2000000000000000e+03 1.0617473001276684e+01 4.9898612652136221e+00 8.6182464316310174e+01 
1345 947 2 1.0279857785290039e+00 3.3944641989531476e+04 4.2000000000000000e+03 1.3276239856809395e+01 4.3551086755243391e+00 8.3515932226158370e+01 
1348 950 2 1.0279659198927562e+00 3.3041527716283315e+04 4.2000000000000000e+03 1.2718585364202944e+01 4.2808388851260348e+00 8.6686097801979884e+01 
1210 812 2 1.0280039721083116e+00 -1.1629190503660178e+05 4.2000000000000000e+03 1.2621605917139233e+01 4.4726988132338334e+00 8.7055613657883967e+01 
690 292 2 1.0280007541008755e+00 -5.5675062108969178e+04 4.2000000000000000e+03 1.4452812599754688e+01 6.6440553248039453e+00 8.3635042354673260e+01 
1111 713 2 1.0280403292191003e+00 -5.4370577985843665e+04 4.2000000000000000e+03 1.4973651886845010e+01 5.3663509294763463e+00 8.7161048804614936e+01 
932 534 2 1.0280456895791295e+00 1.3059794511544530e+05 4.2000000000000000e+03 1.3106814797754193e+01 7.0226143972566373e+00 8.7076460107010206e+01 
676 278 2 1.0279308746562841e+00 2.5292036268456541e+03 4.2000000000000000e+03 1.5818641415180128e+01 6.0026760962971162e+00 8.6456382072607369e+01 
552 154 2 1.0280053100972513e+00 6.7155386657862997e+04 4.2000000000000000e+03 1.8599444923373092e+01 5.8690246027826056e+00 8.5069193676015701e+01 
1405 1007 2 1.0280046029609606e+00 3.9416452749077253e+04 4.2000000000000000e+03 1.8662570130779798e+01 5.9343498881462100e+00 8.5088467579949224e+01 
1583 1185 2 1.0280291126352668e+00 -8.1157963604171993e+04 4.2000000000000000e+03 1.6976750359273012e+01 7.5923186829002356e+00 8.6155306166573467e+01 
1801 1403 2 1.0279947247566839e+00 1.2949697627580019e+05 4.2000000000000000e+03 1.2670664634107592e+01 9.8155039867289435e+00 8.6533556601311659e+01 
1096 698 2 1.0279976013456984e+00 2.0745643876191072e+04 4.2000000000000000e+03 1.2926122838394946e+01 9.6538610755335874e+00 8.6275975873270369e+01 
1285 887 2 1.0279993007772508e+00 4.0773272358930597e+04 4.2000000000000000e+03 1.3337735668729762e+01 9.9340783618903732e+00 8.5757856800937560e+01 