LAMMPS data file via write_data, version 30 Jul 2016, timestep = 50400000

384 atoms
2 atom types

0.0000000000000000e+00 2.0000000000000000e+01 xlo xhi
0.0000000000000000e+00 2.0000000000000000e+01 ylo yhi
0.0000000000000000e+00 2.0000000000000000e+01 zlo zhi

Masses

1 3.896
2 4.31

Atoms # meso-molecular

268 1 2 1.1605682584842913e+00 -4.6715835951731801e+00 1.0000000000000000e+00 5.9997623537955791e-01 2.8523714305804897e+00 1.0281932394674009e+00 
153 1 2 1.1605682584842913e+00 1.1657310733576381e+01 1.0000000000000000e+00 4.4054524223945180e+00 2.6399156424525643e+00 1.0116188865344016e+00 
173 1 2 1.1605685581425484e+00 1.1009643053740946e+01 1.0000000000000000e+00 3.8932707859663279e-01 5.1579828399084713e+00 1.0148411834047562e+00 
167 1 2 1.1605682584842913e+00 6.6613951996864635e+00 1.0000000000000000e+00 2.8577848076480841e+00 9.5951769500049586e+00 9.3841900426931668e-01 
232 1 2 1.1605682584842913e+00 -9.1087482930352564e+01 1.0000000000000000e+00 6.6358801840665409e+00 1.4174873777588031e+00 1.5213491132351373e+00 
286 1 2 1.1605682584842913e+00 1.0256790614293031e+01 1.0000000000000000e+00 5.4712029372878730e+00 3.8274179092069738e+00 2.3957980265417684e+00 
260 1 2 1.1605685581425484e+00 1.0689837213503671e+01 1.0000000000000000e+00 1.8870294246690897e+00 6.2811200639450533e+00 1.6515539764723084e+00 
330 1 2 1.1605682584842913e+00 1.1870443636265414e+01 1.0000000000000000e+00 4.2273606185272774e+00 7.3779726202454379e+00 1.8305868265518987e+00 
123 1 2 1.1605682584842913e+00 1.3471791875981818e+01 1.0000000000000000e+00 5.2955947937033967e+00 9.4857106148065036e+00 1.4346116399064608e+00 
43 1 2 1.1605682584842913e+00 4.7172288437831096e+00 1.0000000000000000e+00 7.5537998084075231e-01 5.5435241102789112e-01 3.9613048263819768e+00 
120 1 2 1.1605682584842913e+00 1.6542864827839054e+01 1.0000000000000000e+00 5.5790124592554209e+00 1.9720983945341672e+00 3.6180866757484926e+00 
1 1 2 1.1605682584842913e+00 1.4705463643305524e+01 1.0000000000000000e+00 3.2282817148527343e-01 3.7772907571162984e+00 3.5550583241861262e+00 
257 1 2 1.1605682584842913e+00 2.1085932109169164e+01 1.0000000000000000e+00 2.9085277830682013e+00 4.0139935193116392e+00 3.1347709140924311e+00 
350 1 2 1.1605682584842913e+00 6.7138024726289451e+00 1.0000000000000000e+00 6.5048136030852610e-01 6.9796826178960556e+00 3.3369256896926065e+00 
263 1 2 1.1605682584842913e+00 1.2227509514924044e+01 1.0000000000000000e+00 3.2447531752632073e+00 6.0018476550925213e+00 3.8459109846968129e+00 
88 1 2 1.1605682584842913e+00 1.1674866986546384e+01 1.0000000000000000e+00 2.6141843069724509e+00 9.7191078057904712e-01 4.6918982068551713e+00 
231 1 2 1.1605682584842913e+00 1.4864911535529792e+01 1.0000000000000000e+00 1.9845855680309705e+00 2.9529695187195153e+00 4.8731446591323984e+00 
27 1 2 1.1605682584842913e+00 -3.3232223266736611e+01 1.0000000000000000e+00 4.1450702644962361e+00 9.9892284160098654e+00 4.4304690932077992e+00 
254 1 2 1.1605682584842913e+00 1.4969047146427283e+01 1.0000000000000000e+00 7.0054193688451261e-01 2.3198238147911505e+00 6.7898245506157968e+00 
383 1 2 1.1605682584842913e+00 2.4851510781889161e+01 1.0000000000000000e+00 4.9172962563839766e+00 1.4655478946385136e+00 6.3362110701189431e+00 
277 1 2 1.1605682584842913e+00 1.3377924020525839e+01 1.0000000000000000e+00 1.2857404529120853e+00 4.9691762903613395e+00 5.8083371546167601e+00 
344 1 2 1.1605682584842913e+00 -6.3182814794844759e+01 1.0000000000000000e+00 2.1146519376400517e+00 6.9991878603936746e+00 6.8042840529489199e+00 
259 1 2 1.1605682584842913e+00 1.1362304821828950e+01 1.0000000000000000e+00 4.7979754304869333e+00 5.9595800371106638e+00 5.8155230831871787e+00 
63 1 2 1.1605682584842913e+00 -5.0009341872998320e+01 1.0000000000000000e+00 3.4154957240843817e+00 8.6297150799143605e+00 5.9937500594645057e+00 
93 1 2 1.1605688505998073e+00 -1.0070510759999678e+01 1.0000000000000000e+00 2.5094331388778026e+00 1.8611306784009760e+00 7.6501119077999631e+00 
239 1 2 1.1605953597029250e+00 1.0588586661854883e+01 1.0000000000000000e+00 5.6205924662802111e+00 6.9982854545877675e+00 8.3790070338193150e+00 
7 1 2 1.1605688884935033e+00 1.7770350874941226e+01 1.0000000000000000e+00 3.9748994907135833e+00 1.5214855295378917e+00 8.9267613538174970e+00 
29 1 2 1.1605682584842913e+00 1.2340337294607721e+01 1.0000000000000000e+00 1.0541090052501689e+00 4.1655991950756119e+00 8.6869389865717341e+00 
358 1 2 1.1605682584842913e+00 1.2918291132836160e+01 1.0000000000000000e+00 4.0565537609188826e+00 4.1575260710409996e+00 9.6461329097018975e+00 
185 1 2 1.1605682584842913e+00 7.8673856014468022e+00 1.0000000000000000e+00 1.6773520165571081e+00 8.8117072974592965e+00 9.5366047121796527e+00 
294 1 2 1.1605682584842913e+00 9.4094381256279043e+00 1.0000000000000000e+00 3.1190308214010005e+00 1.5653966917501385e+00 1.1166604198062787e+01 
64 1 2 1.1605682584842913e+00 9.4384927439258313e+00 1.0000000000000000e+00 6.0306889821651071e+00 2.0349032893195882e+00 1.0186304641969635e+01 
230 1 2 1.1605682584842913e+00 5.3744455915773486e+00 1.0000000000000000e+00 6.5791952261689857e-01 3.0223322501217780e+00 1.0522939641110487e+01 
142 1 2 1.1605682584842913e+00 1.3231351726175948e+01 1.0000000000000000e+00 2.5076253381535305e+00 3.8907612649239884e+00 1.1192533458221728e+01 
52 1 2 1.1605682584842913e+00 1.3422957776899612e+01 1.0000000000000000e+00 5.3278069339510503e-01 6.6591178751315345e+00 1.1414197406310413e+01 
39 1 2 1.1605682584842913e+00 3.9102112343207036e+00 1.0000000000000000e+00 4.2955087121193838e+00 6.1582232130625254e+00 1.0311974722426326e+01 
356 1 2 1.1605682584842913e+00 -4.4999029488743751e+00 1.0000000000000000e+00 6.4989657166871861e+00 6.8267422137488740e+00 1.0616322148063242e+01 
55 1 2 1.1605682584842913e+00 1.2245686454564765e+01 1.0000000000000000e+00 4.3146133603880941e+00 8.2087654829045089e+00 1.0284137390832109e+01 
226 1 2 1.1605682584842913e+00 1.1628925054342659e+01 1.0000000000000000e+00 4.8275747361076204e+00 4.6788857353420021e-01 1.1661577413042458e+01 
45 1 2 1.1605682584842913e+00 1.0361014874490458e+01 1.0000000000000000e+00 4.7375379444717813e+00 5.0830072949002929e+00 1.2339503353279060e+01 
212 1 2 1.1605682584842913e+00 1.5144709575505782e+01 1.0000000000000000e+00 2.4411211531666490e+00 8.2056836439947549e+00 1.1484378084738726e+01 
224 1 2 1.1605682584842913e+00 1.0129463013695755e+01 1.0000000000000000e+00 5.1053723520693222e+00 9.1914495863980221e+00 1.2133247326648151e+01 
273 1 2 1.1605682584842913e+00 9.0343310459944881e+00 1.0000000000000000e+00 2.4728701552487355e+00 3.8546166839009004e+00 1.3419526204991753e+01 
78 1 2 1.1605684044284565e+00 7.7109301468420659e+00 1.0000000000000000e+00 5.7232575912883314e+00 3.2653124260036104e+00 1.3209108827309306e+01 
198 1 2 1.1605682584842913e+00 -1.8061314501472282e+01 1.0000000000000000e+00 8.8407369278206960e-01 5.1749468686342768e+00 1.3402380244437675e+01 
234 1 2 1.1605682584842913e+00 8.9907742560781507e+00 1.0000000000000000e+00 5.8091291784591990e+00 9.1013044696959355e-01 1.5073265855362703e+01 
253 1 2 1.1605682584842913e+00 8.7631389466233429e+00 1.0000000000000000e+00 2.3622935195666912e+00 1.4606559748897630e+00 1.5635688739601049e+01 
107 1 2 1.1605682712747101e+00 1.5999614628305993e+01 1.0000000000000000e+00 6.2993209818465834e+00 3.0011605888941868e+00 1.5095370013828727e+01 
124 1 2 1.1605682584842913e+00 1.1898920123010438e+01 1.0000000000000000e+00 5.7541416865807546e+00 5.7802480303688508e+00 1.4780380989845572e+01 
379 1 2 1.1605682584842913e+00 1.6485796117242288e+01 1.0000000000000000e+00 4.7130930546213490e+00 7.8489253662736562e+00 1.5287237229043992e+01 
193 1 2 1.1605682584842913e+00 8.6454865773588381e+00 1.0000000000000000e+00 3.8990462831079675e+00 2.5998505185880877e-01 1.6332173434273550e+01 
99 1 2 1.1605682584842913e+00 -2.0191317431057648e+01 1.0000000000000000e+00 4.1779577802251922e+00 2.7261559616836886e+00 1.6510698867978746e+01 
378 1 2 1.1605682584842913e+00 1.0127484933692724e+01 1.0000000000000000e+00 1.1826036090589775e+00 3.7799954389976502e+00 1.6167357637437625e+01 
341 1 2 1.1605682584842913e+00 4.8237679360463623e+00 1.0000000000000000e+00 1.1516362148658521e+00 8.4646086288754283e+00 1.7045733995089154e+01 
375 1 2 1.1605682584842913e+00 6.1868132518108503e+00 1.0000000000000000e+00 6.5370876057428573e-01 9.4547707971757600e-01 1.7230013520417664e+01 
354 1 2 1.1605682584842913e+00 -9.6988549771568415e+01 1.0000000000000000e+00 6.1682069062161702e+00 1.7007953293682108e+00 1.8468637293621473e+01 
382 1 2 1.1605682584842913e+00 1.1651794637761682e+01 1.0000000000000000e+00 2.3705260388261848e+00 3.2005919503559177e+00 1.7803950668872780e+01 
4 1 2 1.1605682584842913e+00 1.2188984433149262e+01 1.0000000000000000e+00 3.2299781935334493e+00 6.3431907744900968e+00 1.7185278672031117e+01 
288 1 2 1.1605682584842913e+00 8.8932814838182885e+00 1.0000000000000000e+00 6.1401523949642005e+00 7.0243756891409124e+00 1.8011599251546460e+01 
321 1 2 1.1605682584842913e+00 5.5230800819454728e+00 1.0000000000000000e+00 4.0694926768188822e+00 1.7388951982992049e+00 1.8727766299450746e+01 
177 1 2 1.1605682584842913e+00 1.1034484994953235e+01 1.0000000000000000e+00 1.9148547098635209e+00 5.6683792315124109e+00 1.9166019350668368e+01 
130 1 2 1.1605682584842913e+00 2.8548791043744455e+00 1.0000000000000000e+00 2.5959599414778117e-01 6.9110959657316231e+00 1.9275270998089429e+01 
102 1 2 1.1605682584842913e+00 -8.4740022214979007e+01 1.0000000000000000e+00 2.5746897720672459e+00 8.4283791831848287e+00 1.8635991444594765e+01 
355 1 2 1.1605682584842913e+00 1.6523334185693383e+01 1.0000000000000000e+00 4.8253856519419553e+00 7.3089633438945354e+00 1.9897021200497019e+01 
68 1 2 1.1605682584842913e+00 7.7346166348649099e+00 1.0000000000000000e+00 1.5215879798125911e+00 1.1598418983208788e+01 1.3162379619327556e+00 
180 1 2 1.1605682584842913e+00 7.6186299974041010e+00 1.0000000000000000e+00 5.0303992777768913e+00 1.3679360540820943e+01 2.6000324118048390e-01 
370 1 2 1.1605682584842913e+00 1.6646969820673640e+01 1.0000000000000000e+00 6.4778869742934946e+00 1.5330501995189664e+01 5.7107779918772794e-01 
136 1 2 1.1605682584842913e+00 1.4574172094591592e+01 1.0000000000000000e+00 6.0597642716201383e+00 1.7442221204523054e+01 5.3047657783621149e-01 
65 1 2 1.1605682584842913e+00 9.8718851712396365e+00 1.0000000000000000e+00 3.1222113138544755e-01 1.9003126517321530e+01 9.9164646858372263e-01 
60 1 2 1.1605682584842913e+00 2.4818435072398266e+01 1.0000000000000000e+00 3.6130058676335777e+00 1.1967842221161536e+01 1.9911328346757864e+00 
143 1 2 1.1605682584842913e+00 1.2851959476026938e+01 1.0000000000000000e+00 3.7710748509847130e+00 1.4277254728637391e+01 1.7851387380357284e+00 
48 1 2 1.1605682584842913e+00 1.2833357445948657e+01 1.0000000000000000e+00 3.7553644751213353e+00 1.6323399166221300e+01 2.4641796958874362e+00 
16 1 2 1.1605682584842913e+00 9.0557357839102721e+00 1.0000000000000000e+00 1.3949674011335893e+00 1.7235733669034808e+01 1.8451197490105862e+00 
274 1 2 1.1605682584842913e+00 1.1380496614012237e+01 1.0000000000000000e+00 7.3693060067619021e-01 1.2850925918345727e+01 3.0303547679650862e+00 
292 1 2 1.1605682584842913e+00 3.6418312270476267e+00 1.0000000000000000e+00 6.4884090436464552e+00 1.1792855735709210e+01 3.9561340426466023e+00 
374 1 2 1.1605682584842913e+00 1.9228726591808112e+01 1.0000000000000000e+00 6.1963628861574760e+00 1.4277695304469781e+01 4.1731761286999234e+00 
369 1 2 1.1605682584842913e+00 -4.9725122405787781e-01 1.0000000000000000e+00 2.1682581423092748e+00 1.5185726831194392e+01 3.5087845266600821e+00 
127 1 2 1.1605682584842913e+00 1.3303712399923269e+01 1.0000000000000000e+00 6.5872396279462215e+00 1.6458899232184134e+01 3.7982590518953123e+00 
376 1 2 1.1605682584842913e+00 9.6048675930500060e+00 1.0000000000000000e+00 6.5254014921341099e+00 1.9569241824723186e+01 3.7731282504653745e+00 
283 1 2 1.1606388358859530e+00 2.2747411126192030e-01 1.0000000000000000e+00 4.7394773049135432e+00 1.2767240178349720e+01 5.0804353330521570e+00 
67 1 2 1.1606388358859530e+00 9.2175542820220926e+00 1.0000000000000000e+00 3.6059702450488760e+00 1.4273734923934516e+01 4.7766145741414494e+00 
314 1 2 1.1605682584842913e+00 5.8021445450240403e+00 1.0000000000000000e+00 9.1263426466463876e-02 1.5508981077526878e+01 4.3906148007417451e+00 
151 1 2 1.1605682584842913e+00 -1.3803654969144233e+01 1.0000000000000000e+00 8.5064688136666111e-01 1.8169239799084856e+01 4.4287605875625040e+00 
195 1 2 1.1605731782847668e+00 1.0545345513509309e+01 1.0000000000000000e+00 3.7798296933939954e+00 1.8172805311095345e+01 5.4112764695396685e+00 
247 1 2 1.1605682584842913e+00 -8.2172565333014262e+01 1.0000000000000000e+00 6.1290996693821542e+00 1.8131430361936154e+01 5.6667189753658320e+00 
112 1 2 1.1605693864844084e+00 1.1179293873350057e+01 1.0000000000000000e+00 1.5831750156814801e+00 1.0448029865944845e+01 6.9295540091149679e+00 
289 1 2 1.1605682584842913e+00 -1.3027617504071441e+02 1.0000000000000000e+00 1.7829852344598734e-01 1.2592681074458248e+01 6.8001148912644833e+00 
57 1 2 1.1605682584842913e+00 9.1277958758462585e+00 1.0000000000000000e+00 1.9316922707211122e+00 1.3052278089633225e+01 5.9019932328709031e+00 
17 1 2 1.1605682584842913e+00 1.4061442740316174e+01 1.0000000000000000e+00 3.1570016129234113e-01 1.6719051253179273e+01 6.6796962792474224e+00 
141 1 2 1.1605731782847668e+00 9.1189420737455986e+00 1.0000000000000000e+00 2.1093057214640556e+00 1.9081678236784281e+01 5.8605802623727019e+00 
12 1 2 1.1605682584842913e+00 1.2998976516283115e+01 1.0000000000000000e+00 4.4837563744290101e+00 1.0769903724633606e+01 7.9467375700212868e+00 
50 1 2 1.1605712470968874e+00 -5.1613327229652384e+01 1.0000000000000000e+00 9.5061105920890920e-01 1.4708455315649386e+01 8.0516558855074667e+00 
30 1 2 1.1605691662165958e+00 1.0643265437638641e+01 1.0000000000000000e+00 2.9049507555425937e+00 1.4686577335522150e+01 8.4404354597484001e+00 
204 1 2 1.1605682584842913e+00 1.9670722153504741e+01 1.0000000000000000e+00 2.7776587163641175e+00 1.7550479110702714e+01 8.0473746002646322e+00 
187 1 2 1.1605682584842913e+00 1.0089266547884211e+01 1.0000000000000000e+00 4.5170034123431595e+00 1.8670556793530455e+01 7.3709351275878694e+00 
54 1 2 1.1605682584842913e+00 -2.9863472616036177e+02 1.0000000000000000e+00 5.2826419194072436e+00 1.2262213686111002e+01 9.3343157962458552e+00 
233 1 2 1.1605712438576248e+00 1.0911043375402359e+01 1.0000000000000000e+00 4.0050731514878263e-01 1.5957884095515011e+01 9.4573249982936094e+00 
161 1 2 1.1605691629773331e+00 4.2115049093791148e+00 1.0000000000000000e+00 3.0163899426057141e+00 1.6187119109489863e+01 9.7120817091501976e+00 
205 1 2 1.1605810740718703e+00 1.4204968642656819e+01 1.0000000000000000e+00 2.4019663833583924e-01 1.9573182500008965e+01 8.5958838264601933e+00 
76 1 2 1.1605684276852817e+00 1.3223781653229866e+01 1.0000000000000000e+00 1.7925728041675388e+00 1.9777406002005890e+01 9.8083652262893750e+00 
132 1 2 1.1605682963825934e+00 -6.5720233803025820e+01 1.0000000000000000e+00 4.5649484185514559e+00 1.9766466754151633e+01 9.6465494057668160e+00 
328 1 2 1.1605682584888974e+00 9.4079221277717853e+00 1.0000000000000000e+00 6.3664742432477421e+00 1.8927440998385041e+01 9.8621164359772973e+00 
144 1 2 1.1605682584842913e+00 1.5160742924148305e+01 1.0000000000000000e+00 1.1542780477294758e-01 1.4252332501417586e+01 1.1101247333491401e+01 
269 1 2 1.1605682584842913e+00 -4.7265450580430667e+01 1.0000000000000000e+00 3.8105684644295046e+00 1.4293025623667596e+01 1.0402949319489824e+01 
149 1 2 1.1605682584842913e+00 1.1912228109943932e+01 1.0000000000000000e+00 1.4609198012223756e+00 1.1052466445580736e+01 1.1629884881788263e+01 
340 1 2 1.1605682584842913e+00 1.0274836421077932e+01 1.0000000000000000e+00 3.5082932565375473e+00 1.0975743665091878e+01 1.1442948769834731e+01 
326 1 2 1.1605682584842913e+00 1.0427018774176894e+01 1.0000000000000000e+00 2.8711022236784189e+00 1.3955010541420263e+01 1.2598934830586769e+01 
103 1 2 1.1605682584842913e+00 3.0753956203084409e+00 1.0000000000000000e+00 4.4355345014913530e+00 1.5691749414779752e+01 1.1859935564626028e+01 
242 1 2 1.1605682584842913e+00 1.8616748323732971e+01 1.0000000000000000e+00 4.5424842333238029e+00 1.8463565710714860e+01 1.2329043235754190e+01 
285 1 2 1.1605682584842913e+00 1.4918433414006895e+01 1.0000000000000000e+00 7.9744081949791767e-01 1.2113045593870371e+01 1.3250238031990753e+01 
287 1 2 1.1605682584842913e+00 8.4955412916925273e+00 1.0000000000000000e+00 4.0347543190667845e-01 1.6470716438046537e+01 1.3745793553920654e+01 
46 1 2 1.1605682584842913e+00 1.2456013065743747e+01 1.0000000000000000e+00 2.4427914818984986e+00 1.6601974411132421e+01 1.3001213280287923e+01 
159 1 2 1.1605907435206868e+00 1.6165993538042958e+01 1.0000000000000000e+00 3.6580352432931904e+00 1.2623129207857767e+01 1.5562179693255663e+01 
186 1 2 1.1605682584842913e+00 1.2564783299581119e+01 1.0000000000000000e+00 5.9936460494507298e+00 1.1721977635606203e+01 1.4694081698986095e+01 
117 1 2 1.1605682584842913e+00 1.9307385583870499e+01 1.0000000000000000e+00 5.8711394044546514e+00 1.3846940153013543e+01 1.4994654238761584e+01 
77 1 2 1.1605682584842913e+00 -9.3244275781090682e+00 1.0000000000000000e+00 1.7770073917451905e+00 1.5338787548941504e+01 1.4883888274996947e+01 
332 1 2 1.1605682584842913e+00 -2.2606022884032431e+00 1.0000000000000000e+00 6.5797766893448397e+00 1.6724439136417057e+01 1.4772128578135092e+01 
203 1 2 1.1605907435206868e+00 9.9016598648873888e+00 1.0000000000000000e+00 2.9532434668929093e+00 1.0867502480513144e+01 1.5956793381906181e+01 
74 1 2 1.1605682584842913e+00 1.0835395779354112e+01 1.0000000000000000e+00 4.4034629323019614e-01 1.3640626757689303e+01 1.6050362860220172e+01 
81 1 2 1.1605682584842913e+00 1.3198415072599389e+01 1.0000000000000000e+00 2.6912378521342650e-01 1.7593555966101341e+01 1.7006419680956711e+01 
13 1 2 1.1605682584842913e+00 1.4894558010976258e+01 1.0000000000000000e+00 4.5096381262568155e+00 1.3959836576367232e+01 1.7662314608845929e+01 
109 1 2 1.1605682584842913e+00 1.4010194904152211e+01 1.0000000000000000e+00 1.9157585088771976e+00 1.5812659096052856e+01 1.8120532308854234e+01 
297 1 2 1.1605682584842913e+00 2.1757038837429597e+01 1.0000000000000000e+00 3.6640347471950188e+00 1.6388307917326067e+01 1.7187462964549216e+01 
381 1 2 1.1605682584842913e+00 1.2002898661322567e+01 1.0000000000000000e+00 6.2929562166969868e+00 1.6881833222525017e+01 1.7345994421193826e+01 
15 1 2 1.1605682584842913e+00 1.0939805601828553e+01 1.0000000000000000e+00 5.1636039469830246e+00 1.9506738436603666e+01 1.8185189475841444e+01 
313 1 2 1.1605682584842913e+00 1.1925896458345989e+01 1.0000000000000000e+00 1.2047559367093421e+00 1.0085261473638024e+01 1.8658655221605134e+01 
255 1 2 1.1605682584842913e+00 8.7162728572047463e+00 1.0000000000000000e+00 6.1197803707751142e+00 1.0484839380778752e+01 1.9550809080585179e+01 
49 1 2 1.1605682584842913e+00 1.3897740500854354e+01 1.0000000000000000e+00 1.0104373943292593e+00 1.2228903804099776e+01 1.8893012519163019e+01 
181 1 2 1.1605682584842913e+00 1.9493669222099925e+01 1.0000000000000000e+00 3.3744813274017251e+00 1.2014395027821390e+01 1.9634633318100700e+01 
66 1 2 1.1605682584842913e+00 1.1855702491401171e+01 1.0000000000000000e+00 3.1317429584214529e+00 1.4164991205607484e+01 1.9238999354646459e+01 
221 1 2 1.1605682584842913e+00 1.8125510689768369e+01 1.0000000000000000e+00 1.5840702847217543e+00 1.8151207844958428e+01 1.8703501113570447e+01 
83 1 2 1.1605682584842913e+00 7.5634175950135702e+00 1.0000000000000000e+00 1.0710456928945650e+01 5.7463985822526875e-01 6.8072029529487021e-01 
258 1 2 1.1605682584842913e+00 1.1991074014415148e+01 1.0000000000000000e+00 9.9954188662220300e+00 2.4081990414918200e+00 3.6256436408214965e-02 
244 1 2 1.1605682584842913e+00 9.9848506618659982e+00 1.0000000000000000e+00 1.2486314977631748e+01 1.4428524411370542e+00 1.1016822974672436e+00 
222 1 2 1.1605682584842913e+00 7.0245814492578038e+00 1.0000000000000000e+00 1.3041640545931257e+01 3.9142930965940650e+00 5.9656601246369856e-01 
56 1 2 1.1605682584842913e+00 1.9901173780509943e+01 1.0000000000000000e+00 1.0419336694164395e+01 6.7037672541768369e+00 1.1212579460515000e+00 
128 1 2 1.1605752392422382e+00 1.3654799684631881e+01 1.0000000000000000e+00 1.0841748584072311e+01 9.5298660810155376e+00 9.6919957367089993e-01 
163 1 2 1.1605682584842913e+00 1.2123806940018877e+01 1.0000000000000000e+00 9.2821113853847859e+00 5.0287578353624465e+00 2.5045713649740926e+00 
119 1 2 1.1605682584842913e+00 1.4770066028639096e+01 1.0000000000000000e+00 8.1342763774742526e+00 6.7652266460799932e+00 1.7184867703862330e+00 
213 1 2 1.1605682969137885e+00 1.3412158432328669e+01 1.0000000000000000e+00 1.2355266178386383e+01 6.1134946144139759e+00 1.9727547867584634e+00 
22 1 2 1.1605682584842913e+00 1.0580389771626741e+01 1.0000000000000000e+00 8.6993161644349346e+00 8.9069896077588506e+00 2.1251830286741598e+00 
82 1 2 1.1605682584842913e+00 1.3080363413842171e+01 1.0000000000000000e+00 1.3058405775257576e+01 9.3743339038455549e+00 1.4943163130513892e+00 
265 1 2 1.1605682584842913e+00 1.2607489575991814e+01 1.0000000000000000e+00 9.3320333352628708e+00 1.6045766624354372e+00 3.1694199061554298e+00 
248 1 2 1.1605682584842913e+00 -7.9670804584634368e+01 1.0000000000000000e+00 1.2535149795744813e+01 4.0731080274754774e+00 3.4204077256414074e+00 
164 1 2 1.1605682584842913e+00 9.3000296793529351e+00 1.0000000000000000e+00 6.7839727584176908e+00 5.9394496904575611e+00 3.1110592405204276e+00 
34 1 2 1.1605682969137885e+00 1.5143963313763274e+01 1.0000000000000000e+00 1.1203563998824713e+01 6.6470810591131562e+00 3.5009086254631128e+00 
189 1 2 1.1605770781200351e+00 1.6014525212521022e+01 1.0000000000000000e+00 1.0657784260831889e+01 9.4952437331347195e+00 3.9166745237580129e+00 
320 1 2 1.1605682584842913e+00 1.3533428746934185e+01 1.0000000000000000e+00 7.8784466705360439e+00 1.3664729310896548e+00 5.4221290003552545e+00 
2 1 2 1.1605682584842913e+00 1.0301369066010029e+01 1.0000000000000000e+00 1.2540597060409640e+01 3.2386167843598927e-02 4.7396086597274607e+00 
317 1 2 1.1605691704142294e+00 8.7367415689952210e+00 1.0000000000000000e+00 7.7656955374120855e+00 5.6603937880024517e+00 5.2087023383304016e+00 
337 1 2 1.1605691704142294e+00 6.5340108276098841e+00 1.0000000000000000e+00 9.7192911367378869e+00 5.7305667655628465e+00 4.9652515243779485e+00 
31 1 2 1.1605770933325841e+00 9.9037876368965154e+00 1.0000000000000000e+00 9.3550377054126503e+00 8.3169693110378766e+00 4.7559615084889106e+00 
351 1 2 1.1605682736968401e+00 8.1050103962916218e+00 1.0000000000000000e+00 7.6108612073279991e+00 9.2109283460350682e+00 5.0975613060809657e+00 
92 1 2 1.1605985416161400e+00 1.2679372569158907e+01 1.0000000000000000e+00 9.0510190637223999e+00 7.6403659342753627e-01 7.0786980790823399e+00 
323 1 2 1.1605682584842913e+00 1.0930313665741979e+01 1.0000000000000000e+00 1.3165511838337622e+01 8.0090888056036080e-01 6.9061225898453884e+00 
380 1 2 1.1605682965387023e+00 5.4133152559437594e+00 1.0000000000000000e+00 1.0056236592543181e+01 1.8713750461682763e+00 5.7712602625100624e+00 
53 1 2 1.1605682584842913e+00 1.3665852317282013e+01 1.0000000000000000e+00 1.1044624852650761e+01 3.8920681279778462e+00 6.3824503828878321e+00 
98 1 2 1.1605688917763077e+00 9.0399793447511527e+00 1.0000000000000000e+00 1.2981591644211921e+01 3.8790718392165568e+00 6.9787005654420602e+00 
202 1 2 1.1605682584842913e+00 9.0599156727938990e+00 1.0000000000000000e+00 9.2069454512671243e+00 7.1627816262833219e+00 6.5701826267226364e+00 
241 1 2 1.1605682584842913e+00 2.3451159157922142e+01 1.0000000000000000e+00 1.2480969257523659e+01 8.6340890585595123e+00 5.8937183523521357e+00 
62 1 2 1.1605985035617290e+00 -3.3648439890354177e+02 1.0000000000000000e+00 1.0792438005350323e+01 1.2900060015891579e+00 7.7150975694787416e+00 
211 1 2 1.1605682584842913e+00 1.0699069831819390e+01 1.0000000000000000e+00 6.8777358045742458e+00 2.0253053872302558e+00 7.2605473277255337e+00 
11 1 2 1.1605682584842913e+00 1.1418408146306721e+01 1.0000000000000000e+00 1.0398555411429248e+01 3.9873749201138615e+00 8.5314641055206835e+00 
293 1 2 1.1605682584842913e+00 1.2437750287523844e+01 1.0000000000000000e+00 7.5567681426523512e+00 5.2181124731108026e+00 8.5002449940514850e+00 
256 1 2 1.1605682584842913e+00 8.7314539792186974e+00 1.0000000000000000e+00 9.9943684982969945e+00 6.9852504845971586e+00 8.5213018753475573e+00 
72 1 2 1.1605953597029250e+00 1.3055547088875084e+01 1.0000000000000000e+00 6.8794767190722332e+00 8.1103091955168516e+00 7.4300082382776944e+00 
194 1 2 1.1605682584842913e+00 1.0854650683970018e+01 1.0000000000000000e+00 8.7695383165774512e+00 9.7999141557407423e+00 7.9559102812207216e+00 
223 1 2 1.1605682584842913e+00 4.2054198175488970e+00 1.0000000000000000e+00 8.0879891363923662e+00 2.5880499842543014e+00 8.9042089413547370e+00 
363 1 2 1.1605689141988456e+00 2.0202343734232336e+01 1.0000000000000000e+00 1.3308877101493946e+01 4.1578297059309355e+00 9.5457317943558539e+00 
357 1 2 1.1605682584842913e+00 1.0009176606546163e+01 1.0000000000000000e+00 1.2121130742370362e+01 9.0768624610872735e+00 8.6698472502726780e+00 
372 1 2 1.1605682584842913e+00 1.1952334572529029e+01 1.0000000000000000e+00 9.8619176289855730e+00 3.2932764873556987e-02 1.0912935642545829e+01 
146 1 2 1.1605682584842913e+00 1.3847067650047681e+01 1.0000000000000000e+00 8.3304904877271522e+00 5.3375652747706033e+00 1.0446110235140788e+01 
32 1 2 1.1605682584842913e+00 1.0702804039007233e+01 1.0000000000000000e+00 1.0512439237404420e+01 6.2292235718409952e+00 1.0798873589380715e+01 
216 1 2 1.1605682584842913e+00 1.7925969819784559e+01 1.0000000000000000e+00 1.1943121944251278e+01 7.4568512708218648e+00 1.0016892744266736e+01 
365 1 2 1.1605682584842913e+00 1.6232479283649887e+01 1.0000000000000000e+00 1.0149085775856888e+01 9.1563035333039462e+00 1.0082350162048149e+01 
133 1 2 1.1605682584842913e+00 1.5540296291982703e+01 1.0000000000000000e+00 7.5367893627128559e+00 1.8852182416950596e+00 1.2345057774825856e+01 
160 1 2 1.1605682631153584e+00 1.1094453943310469e+01 1.0000000000000000e+00 1.1913149989650773e+01 5.1222305470404237e+00 1.2102855642502677e+01 
96 1 2 1.1605682584842913e+00 1.0978005361381424e+01 1.0000000000000000e+00 8.4655129086566809e+00 6.0866542978195852e+00 1.2295774644234069e+01 
345 1 2 1.1605682584842913e+00 5.3460007752673349e+00 1.0000000000000000e+00 1.1183282539063853e+01 2.2746170852182548e+00 1.3883396936922491e+01 
310 1 2 1.1605683916380378e+00 1.2313958498855433e+01 1.0000000000000000e+00 7.1107513862706080e+00 4.6119312996312232e+00 1.3642593827627833e+01 
279 1 2 1.1605682631153584e+00 1.1699727047954561e+01 1.0000000000000000e+00 1.0557144528941549e+01 4.3473688102016457e+00 1.3339144330958749e+01 
145 1 2 1.1605682584842913e+00 1.7691867403997939e+01 1.0000000000000000e+00 1.2228189128285626e+01 7.2541300206766550e+00 1.2979665304206540e+01 
209 1 2 1.1605698851225632e+00 4.2749438700573341e+00 1.0000000000000000e+00 7.1078287753780645e+00 9.0076195782317701e+00 1.3987996655221773e+01 
312 1 2 1.1605698851225632e+00 1.6330959597494338e+01 1.0000000000000000e+00 8.8307012483093690e+00 8.8503896992880318e+00 1.3055515586406639e+01 
359 1 2 1.1605682584842913e+00 6.3599126522716833e+00 1.0000000000000000e+00 9.4744532896316134e+00 1.8599793740616428e+00 1.5686343060338267e+01 
113 1 2 1.1605682584842913e+00 1.0228067733970851e+01 1.0000000000000000e+00 1.2717814450893412e+01 5.6403334558619758e+00 1.4544992132289936e+01 
20 1 2 1.1605682584842913e+00 1.8051072329456908e+01 1.0000000000000000e+00 8.2009788624258402e+00 6.7750556546753087e+00 1.5565476485338568e+01 
353 1 2 1.1605682584842913e+00 1.4239802778142099e+01 1.0000000000000000e+00 9.9474525279804240e+00 6.8971140877194541e+00 1.4425813691753397e+01 
240 1 2 1.1605682584842913e+00 -1.4860858760598165e+02 1.0000000000000000e+00 8.8877879737685834e+00 9.4995239761358423e+00 1.5470088025966831e+01 
371 1 2 1.1605682584842913e+00 1.0646893711278306e+01 1.0000000000000000e+00 1.0952317213781821e+01 9.7008658700324677e+00 1.4851827153756197e+01 
346 1 2 1.1605750672470374e+00 1.4923415310538775e+01 1.0000000000000000e+00 1.1782974220255307e+01 1.2481551967460636e+00 1.5880827693781297e+01 
246 1 2 1.1605682584842913e+00 8.1235579403623355e+00 1.0000000000000000e+00 1.1561037327082744e+01 1.1894226711319704e+00 1.8382683996434736e+01 
307 1 2 1.1605732618764018e+00 8.9932842941744457e+00 1.0000000000000000e+00 8.2791727492001925e+00 1.9032432426828081e+00 1.7757783425391384e+01 
206 1 2 1.1605682584842913e+00 1.2081193490366948e+01 1.0000000000000000e+00 9.0598151504797730e+00 3.8348820461701236e+00 1.7526025696904068e+01 
291 1 2 1.1605682584842913e+00 1.3757277259584111e+01 1.0000000000000000e+00 1.1321277984333941e+01 4.2029020574534943e+00 1.7235198622693005e+01 
308 1 2 1.1605732618764018e+00 1.3978619856817819e+01 1.0000000000000000e+00 8.0878897764590949e+00 2.8909766960448113e+00 1.9432708366563151e+01 
140 1 2 1.1605682584842913e+00 -6.2522213164587242e+01 1.0000000000000000e+00 9.3899039101853319e+00 7.2725946542522930e+00 1.9345604784308399e+01 
225 1 2 1.1605682584842913e+00 1.2190345628475953e+01 1.0000000000000000e+00 1.2397880671922501e+01 8.5826637475182537e+00 1.9151839124850493e+01 
26 1 2 1.1605752392422382e+00 1.2256251632713399e+01 1.0000000000000000e+00 9.6392116123392899e+00 1.1063975952396417e+01 9.2218251301760013e-01 
59 1 2 1.1605682584842913e+00 1.0930703722234014e+01 1.0000000000000000e+00 1.1362097752576407e+01 1.2327375269111963e+01 1.4052566680505123e+00 
366 1 2 1.1605682584842913e+00 1.1972631446204584e+01 1.0000000000000000e+00 9.9506329700607878e+00 1.3804335338297641e+01 9.3633823751017253e-01 
40 1 2 1.1605727844622109e+00 1.2264690188080813e+01 1.0000000000000000e+00 1.2969383521811267e+01 1.6441328967179068e+01 2.5436286991681478e+00 