LAMMPS data file via write_data, version 30 Jul 2016, timestep = 50000000

180 atoms
2 atom types

0.0000000000000000e+00 2.0000000000000000e+01 xlo xhi
0.0000000000000000e+00 2.0000000000000000e+01 ylo yhi
0.0000000000000000e+00 2.0000000000000000e+01 zlo zhi

Masses

1 3.896
2 4.31

Atoms # meso-molecular

9 1 2 1.0280005461959003e+00 -4.6725772684850233e+02 1.0000000000000000e+00 3.8182807837686088e+00 4.2961990703498749e+00 1.1413475196434710e+01 
56 1 2 1.0280005461959003e+00 -3.1704611102148630e+02 1.0000000000000000e+00 3.8182807837686088e+00 4.2961990703498749e+00 1.1413475196434710e+01 
51 1 2 1.0280005461958992e+00 -4.7694607782631670e+02 1.0000000000000000e+00 3.8182807837682819e+00 4.2961990703497426e+00 1.1413475196435604e+01 
14 1 2 1.0280005461958992e+00 -5.6950080151673069e+02 1.0000000000000000e+00 3.8182807837682819e+00 4.2961990703497426e+00 1.1413475196435604e+01 
50 1 2 1.0280005461958992e+00 -3.6261290405582713e+02 1.0000000000000000e+00 3.8182807837682819e+00 4.2961990703497426e+00 1.1413475196435604e+01 
8 1 2 1.0280005461958992e+00 -4.6142744478579385e+02 1.0000000000000000e+00 3.8182807837682819e+00 4.2961990703497426e+00 1.1413475196435604e+01 
15 1 2 1.0280005461958992e+00 -5.4472876703682664e+02 1.0000000000000000e+00 3.8182807837682819e+00 4.2961990703497426e+00 1.1413475196435604e+01 
21 1 2 1.0280005461958992e+00 -4.9818970344340676e+02 1.0000000000000000e+00 3.8182807837682819e+00 4.2961990703497426e+00 1.1413475196435604e+01 
55 1 2 1.0280005461958992e+00 -3.1021896216673321e+02 1.0000000000000000e+00 3.8182807837682819e+00 4.2961990703497426e+00 1.1413475196435604e+01 
20 1 2 1.0280005461958992e+00 -4.7555810009730112e+02 1.0000000000000000e+00 3.8182807837682819e+00 4.2961990703497426e+00 1.1413475196435604e+01 
57 1 2 1.0280005461958992e+00 -4.2833556797098709e+02 1.0000000000000000e+00 3.8182807837682819e+00 4.2961990703497426e+00 1.1413475196435604e+01 
45 1 2 1.0280005461958992e+00 -4.5607430844269550e+02 1.0000000000000000e+00 3.8182807837682819e+00 4.2961990703497426e+00 1.1413475196435604e+01 
117 1 2 1.0280005461958017e+00 -4.6933267623801953e+02 1.0000000000000000e+00 3.8183082797146164e+00 4.2963364680922913e+00 1.1413872970273774e+01 
111 1 2 1.0280005461959230e+00 -4.6741816197961333e+02 1.0000000000000000e+00 3.8181838136584978e+00 4.2962503673602130e+00 1.1414092029108303e+01 
75 1 2 1.0280005461954240e+00 -4.6095864874314145e+02 1.0000000000000000e+00 3.8175561583547388e+00 4.2956602179146595e+00 1.1414611906693839e+01 
81 1 2 1.0280005461751400e+00 -4.9937474460775695e+02 1.0000000000000000e+00 3.8145636572261932e+00 4.2926062056890570e+00 1.1416265397956218e+01 
109 1 2 1.0279994538017077e+00 -4.9654376474785812e+02 1.0000000000000000e+00 5.6158444069800462e+00 2.7446280833420125e+00 1.1824599053943119e+01 
110 1 2 1.0279994538017077e+00 -5.6215418079611970e+02 1.0000000000000000e+00 5.6158444069800462e+00 2.7446280833420125e+00 1.1824599053943119e+01 
151 1 2 1.0279994538017077e+00 -7.0823831030459360e+02 1.0000000000000000e+00 5.6158444069800462e+00 2.7446280833420125e+00 1.1824599053943119e+01 
74 1 2 1.0279994538017077e+00 -5.3018125340320012e+02 1.0000000000000000e+00 5.6158444069800462e+00 2.7446280833420125e+00 1.1824599053943119e+01 
79 1 2 1.0279994538017077e+00 -4.8163905420202565e+02 1.0000000000000000e+00 5.6158444069800462e+00 2.7446280833420125e+00 1.1824599053943119e+01 
80 1 2 1.0279994538017077e+00 -5.3360696501018026e+02 1.0000000000000000e+00 5.6158444069800462e+00 2.7446280833420125e+00 1.1824599053943119e+01 
73 1 2 1.0279994538017077e+00 -4.6675100165139497e+02 1.0000000000000000e+00 5.6158444069800462e+00 2.7446280833420125e+00 1.1824599053943119e+01 
152 1 2 1.0279994538017077e+00 -5.1565284834105034e+02 1.0000000000000000e+00 5.6158444069800462e+00 2.7446280833420125e+00 1.1824599053943119e+01 
158 1 2 1.0279994538017077e+00 -5.9452386540699831e+02 1.0000000000000000e+00 5.6158444069800462e+00 2.7446280833420125e+00 1.1824599053943119e+01 
122 1 2 1.0279994538017077e+00 -4.5321084871577995e+02 1.0000000000000000e+00 5.6158444069800462e+00 2.7446280833420125e+00 1.1824599053943119e+01 
153 1 2 1.0279994538017077e+00 -4.6346200739294284e+02 1.0000000000000000e+00 5.6158444069800462e+00 2.7446280833420125e+00 1.1824599053943119e+01 
147 1 2 1.0279994538017077e+00 -4.9176657190564066e+02 1.0000000000000000e+00 5.6158444069800462e+00 2.7446280833420125e+00 1.1824599053943119e+01 
146 1 2 1.0279994538017077e+00 -6.5116297997326001e+02 1.0000000000000000e+00 5.6158444069800462e+00 2.7446280833420125e+00 1.1824599053943119e+01 
115 1 2 1.0279994538017077e+00 -4.9827697153218418e+02 1.0000000000000000e+00 5.6158444069800462e+00 2.7446280833420125e+00 1.1824599053943119e+01 
116 1 2 1.0279994538017077e+00 -5.8274879533007413e+02 1.0000000000000000e+00 5.6158444069800462e+00 2.7446280833420125e+00 1.1824599053943119e+01 
76 1 2 1.0279994538977908e+00 -4.6306717653683017e+02 1.0000000000000000e+00 5.6149296396880066e+00 2.7469524743661458e+00 1.1836903305241313e+01 
26 1 2 1.0279999999972156e+00 -7.0404181051060766e+02 1.0000000000000000e+00 6.6181618306345511e+00 1.6659439622898301e+01 2.3724025175685353e+00 
33 1 2 1.0279999999970848e+00 -6.8591255606923858e+02 1.0000000000000000e+00 6.6181618308496040e+00 1.6659439629287778e+01 2.3724025203128991e+00 
25 1 2 1.0279999999978331e+00 -5.7640509337040248e+02 1.0000000000000000e+00 6.6181618305491039e+00 1.6659439622530194e+01 2.3724025173807899e+00 
32 1 2 1.0279999999976526e+00 -6.3297303121413461e+02 1.0000000000000000e+00 6.6181618305708145e+00 1.6659439626568673e+01 2.3724025190776969e+00 
2 1 2 1.0279999999978726e+00 -7.3330716386172639e+02 1.0000000000000000e+00 6.6181618306925225e+00 1.6659439632258163e+01 2.3724025214951237e+00 
68 1 2 1.0279999999979410e+00 -7.2721761276598045e+02 1.0000000000000000e+00 6.6181618306038779e+00 1.6659439625187964e+01 2.3724025185093174e+00 
27 1 2 1.0279999999978660e+00 -5.7608011264775871e+02 1.0000000000000000e+00 6.6181618309421815e+00 1.6659439624007462e+01 2.3724025181304556e+00 
62 1 2 1.0279999999977021e+00 -5.8166363701129694e+02 1.0000000000000000e+00 6.6181618308193375e+00 1.6659439623238175e+01 2.3724025177688528e+00 
39 1 2 1.0279999999975100e+00 -6.2533173461644128e+02 1.0000000000000000e+00 6.6181618313933388e+00 1.6659439632762240e+01 2.3724025219449261e+00 
3 1 2 1.0279999999975595e+00 -7.0395051042062130e+02 1.0000000000000000e+00 6.6181618313263506e+00 1.6659439632705787e+01 2.3724025218983509e+00 
49 1 2 1.0279999941199907e+00 -4.0044656765624444e+02 1.0000000000000000e+00 1.3238952585626594e+01 8.0405837064008860e+00 2.3051505350837198e+00 
19 1 2 1.0279999941203284e+00 -5.1622158272244201e+02 1.0000000000000000e+00 1.3238950630966917e+01 8.0405835264496357e+00 2.3051463577762332e+00 
13 1 2 1.0279999941203646e+00 -5.0517455424439601e+02 1.0000000000000000e+00 1.3238950540226787e+01 8.0405834874864386e+00 2.3051462011245079e+00 
54 1 2 1.0279999941206048e+00 -4.2198101358822720e+02 1.0000000000000000e+00 1.3238949915719131e+01 8.0405845644737308e+00 2.3051434850655803e+00 
18 1 2 1.0279999941205549e+00 -6.1537259645149845e+02 1.0000000000000000e+00 1.3238949868731153e+01 8.0405839282052955e+00 2.3051441541347835e+00 
24 1 2 1.0279999941207407e+00 -4.2063571792552375e+02 1.0000000000000000e+00 1.3238949210343650e+01 8.0405852332194847e+00 2.3051410841857463e+00 
60 1 2 1.0279999941208811e+00 -3.8180290262737867e+02 1.0000000000000000e+00 1.3238949002839837e+01 8.0405857205351783e+00 2.3051400240586792e+00 
53 1 2 1.0279999937689004e+00 -4.3905679312264346e+02 1.0000000000000000e+00 1.3265060125842695e+01 8.0885191991841499e+00 2.3016628900784850e+00 
59 1 2 1.0279999966113977e+00 -3.8227840202288291e+02 1.0000000000000000e+00 1.3223371888722383e+01 8.0357384646615575e+00 2.2740165906054757e+00 
95 1 2 1.0279999999124168e+00 -4.3340981780820061e+02 1.0000000000000000e+00 1.3213643256120569e+01 8.0482628930500795e+00 2.2264743844044808e+00 
17 1 2 1.0280000169115411e+00 -4.6029517327973133e+02 1.0000000000000000e+00 1.3090900527092359e+01 7.4739061083009020e+00 1.7170072853216698e+00 
52 1 2 1.0280000133380212e+00 -4.2583022861578723e+02 1.0000000000000000e+00 1.3329480962623864e+01 7.0413513240962322e+00 1.6014398481505634e+00 
7 1 2 1.0279999999994121e+00 -6.8414537030498605e+02 1.0000000000000000e+00 6.7612618323280493e+00 1.7490341384903701e+01 1.8566266307615584e+00 
43 1 2 1.0279999999956557e+00 -5.7042152804425450e+02 1.0000000000000000e+00 6.7612637700365834e+00 1.7490341779597088e+01 1.8566212701638602e+00 
44 1 2 1.0279999999959017e+00 -5.6374503381883721e+02 1.0000000000000000e+00 6.7612597237022865e+00 1.7490340821907473e+01 1.8566351741686604e+00 
37 1 2 1.0279999999992524e+00 -5.8267677081246768e+02 1.0000000000000000e+00 6.7612653375433753e+00 1.7490342096683307e+01 1.8566169766670653e+00 
38 1 2 1.0279999999989333e+00 -5.9164585321537777e+02 1.0000000000000000e+00 6.7612601358390538e+00 1.7490340864299984e+01 1.8566348775306081e+00 
1 1 2 1.0279999999974856e+00 -6.0220420614965485e+02 1.0000000000000000e+00 6.7612744179231408e+00 1.7490344284061585e+01 1.8565849677297679e+00 
66 1 2 1.0279999999985907e+00 -6.8329616312143378e+02 1.0000000000000000e+00 7.0109806425393613e+00 1.6740373363819515e+01 1.2630586930369403e+00 
108 1 2 1.0279999999985432e+00 -5.8517092704065988e+02 1.0000000000000000e+00 7.0109944330062053e+00 1.6740518455159592e+01 1.2630259811732023e+00 
72 1 2 1.0279999999985372e+00 -6.4667873930418898e+02 1.0000000000000000e+00 7.0109880590609697e+00 1.6740507801004970e+01 1.2630263942308724e+00 
103 1 2 1.0279999999985432e+00 -6.3346118073289665e+02 1.0000000000000000e+00 7.0109915607065600e+00 1.6740459658902747e+01 1.2630402392794675e+00 
67 1 2 1.0279999999985310e+00 -6.1559094842518004e+02 1.0000000000000000e+00 7.0109839412027748e+00 1.6740459150246348e+01 1.2630375470456745e+00 
78 1 2 1.0279999999985452e+00 -4.3993178046348328e+02 1.0000000000000000e+00 7.0110053085583290e+00 1.6740657479416281e+01 1.2629938083703851e+00 
36 1 2 1.0279999999985430e+00 -6.9547058316378343e+02 1.0000000000000000e+00 7.0109745456699475e+00 1.6740573138243786e+01 1.2630043637270461e+00 
61 1 2 1.0279999999985296e+00 -5.4625278886600506e+02 1.0000000000000000e+00 7.0109802251263096e+00 1.6740699872570303e+01 1.2629734772178027e+00 
31 1 2 1.0279999999985439e+00 -6.2464388485205518e+02 1.0000000000000000e+00 7.0109754446901320e+00 1.6740642007287033e+01 1.2629867649817577e+00 
42 1 2 1.0279999999985385e+00 -5.1270524554511996e+02 1.0000000000000000e+00 7.0110007545277799e+00 1.6740674677386377e+01 1.2629876439399337e+00 
58 1 2 8.1669618189635285e-01 -4.2970831805784974e+02 1.0000000000000000e+00 7.4574795339165956e+00 1.4324994632360628e+01 1.1301094335602727e+01 
64 1 2 8.1669618189635285e-01 -5.6040976416186209e+02 1.0000000000000000e+00 7.4574795339165956e+00 1.4324994632360628e+01 1.1301094335602805e+01 
65 1 2 8.1669618189635285e-01 -6.1334514328916202e+02 1.0000000000000000e+00 7.4574795339165778e+00 1.4324994632360628e+01 1.1301094335602818e+01 
94 1 2 8.1669618189635285e-01 -3.4161096054884831e+02 1.0000000000000000e+00 7.4574795339165707e+00 1.4324994632360628e+01 1.1301094335602805e+01 
100 1 2 8.1669618189635285e-01 -3.5889239522459798e+02 1.0000000000000000e+00 7.4574795339165707e+00 1.4324994632360598e+01 1.1301094335602762e+01 
22 1 2 8.1669618189635285e-01 -4.5656381162486366e+02 1.0000000000000000e+00 7.4574795339165521e+00 1.4324994632360676e+01 1.1301094335602709e+01 
63 1 2 8.1669618189635285e-01 -4.1132307240016235e+02 1.0000000000000000e+00 7.4574795339165707e+00 1.4324994632360619e+01 1.1301094335602730e+01 
28 1 2 8.1669618189635285e-01 -6.8952946702255792e+02 1.0000000000000000e+00 7.4574795339165956e+00 1.4324994632360628e+01 1.1301094335602754e+01 
23 1 2 8.1669618189635285e-01 -3.9700991611164733e+02 1.0000000000000000e+00 7.4574795339165458e+00 1.4324994632360628e+01 1.1301094335602762e+01 
29 1 2 8.1669618189635285e-01 -5.4244854698094662e+02 1.0000000000000000e+00 7.4574795339165751e+00 1.4324994632360628e+01 1.1301094335602802e+01 
71 1 2 8.1669618189635285e-01 -6.5896295369887503e+02 1.0000000000000000e+00 7.4574795339165458e+00 1.4324994632360632e+01 1.1301094335602754e+01 
30 1 2 8.1669618189635285e-01 -6.4887899405125745e+02 1.0000000000000000e+00 7.4574795339165769e+00 1.4324994632360628e+01 1.1301094335602745e+01 
35 1 2 8.1669618189635285e-01 -6.5168499206506260e+02 1.0000000000000000e+00 7.4574795339165956e+00 1.4324994632360546e+01 1.1301094335602755e+01 
107 1 2 8.1669618189635285e-01 -6.1509924642599049e+02 1.0000000000000000e+00 7.4574795339165707e+00 1.4324994632360642e+01 1.1301094335602762e+01 
106 1 2 8.1669618189635285e-01 -4.9254209484802902e+02 1.0000000000000000e+00 7.4574795339165707e+00 1.4324994632360633e+01 1.1301094335602762e+01 
70 1 2 8.1669618189635285e-01 -5.4901030040329010e+02 1.0000000000000000e+00 7.4574795339165707e+00 1.4324994632360569e+01 1.1301094335602730e+01 
69 1 2 8.1669618189635285e-01 -5.5722762674396370e+02 1.0000000000000000e+00 7.4574795339165707e+00 1.4324994632360580e+01 1.1301094335602762e+01 
34 1 2 8.1669618189635285e-01 -6.8088723888266509e+02 1.0000000000000000e+00 7.4574795339165707e+00 1.4324994632360582e+01 1.1301094335602730e+01 
40 1 2 8.1669618189635285e-01 -4.7396668264714936e+02 1.0000000000000000e+00 7.4574795339165778e+00 1.4324994632360587e+01 1.1301094335602762e+01 
90 1 2 1.0279999455945139e+00 -3.9724033956266226e+02 1.0000000000000000e+00 1.5848853422401822e+01 7.5982200489089351e+00 2.6817071531441230e+00 
89 1 2 1.0279999456487190e+00 -4.0493689145124239e+02 1.0000000000000000e+00 1.5854349260542184e+01 7.5990972713773548e+00 2.6807295931532837e+00 
48 1 2 1.0279999456663147e+00 -4.8116237143481095e+02 1.0000000000000000e+00 1.5855350882531230e+01 7.5990175035774721e+00 2.6805242094326065e+00 
84 1 2 1.0279999459136073e+00 -4.6097519862803654e+02 1.0000000000000000e+00 1.5921323706558358e+01 7.6242492250705691e+00 2.6701398224889918e+00 
83 1 2 1.0279999459628133e+00 -4.2968395203991452e+02 1.0000000000000000e+00 1.5924039049289746e+01 7.6241116954016164e+00 2.6695933226094972e+00 
77 1 2 1.0279999468971790e+00 -4.7968724745230338e+02 1.0000000000000000e+00 1.5963033698468420e+01 7.6134379563668908e+00 2.6608864677542488e+00 
120 1 2 1.0279999770801524e+00 -4.8654441812545059e+02 1.0000000000000000e+00 1.8426468307964843e+01 7.7827994889480170e+00 1.4406610427655338e+00 
125 1 2 1.0279999771024462e+00 -4.2480627305659061e+02 1.0000000000000000e+00 1.8426504608815378e+01 7.7830273467465014e+00 1.4405391671941012e+00 
126 1 2 1.0279999772139861e+00 -3.5848075193309478e+02 1.0000000000000000e+00 1.8426666092022725e+01 7.7830686875571464e+00 1.4395292960472934e+00 
162 1 2 1.0279999773559008e+00 -4.4992048341918849e+02 1.0000000000000000e+00 1.8426835611833553e+01 7.7814581615582892e+00 1.4376417216308965e+00 
156 1 2 1.0279999777056104e+00 -5.8258950686924891e+02 1.0000000000000000e+00 1.8427058238776180e+01 7.7732301254346972e+00 1.4315051122621170e+00 
119 1 2 1.0279999778105815e+00 -4.6656213192301630e+02 1.0000000000000000e+00 1.8426790240154897e+01 7.7647923220557828e+00 1.4276065871966417e+00 
155 1 2 1.0279999782674647e+00 -5.7857272197124132e+02 1.0000000000000000e+00 1.8425946388291397e+01 7.7462486805252446e+00 1.4172581375801940e+00 
113 1 2 1.0279999783637088e+00 -7.3338375992775548e+02 1.0000000000000000e+00 1.8424848197391963e+01 7.7346735007093468e+00 1.4126737189892045e+00 
149 1 2 1.0279999784065819e+00 -6.7898232427604694e+02 1.0000000000000000e+00 1.8424773810245391e+01 7.7336471386726400e+00 1.4119635858458417e+00 
148 1 2 1.0279999784594456e+00 -6.3399809685727860e+02 1.0000000000000000e+00 1.8424106421133647e+01 7.7277520266184414e+00 1.4096483073608763e+00 
154 1 2 1.0279999836445446e+00 -5.2323901213245904e+02 1.0000000000000000e+00 1.8334140411717627e+01 7.4779635546915824e+00 1.3087589844000602e+00 
118 1 2 1.0279999863877565e+00 -4.2669818959683431e+02 1.0000000000000000e+00 1.8279749533023654e+01 7.4032984366536727e+00 1.2729968478523737e+00 
166 1 2 1.0280000435168168e+00 -3.5212649551013402e+02 1.0000000000000000e+00 1.8242394626157722e+01 8.1913252729254022e+00 1.0356080686253037e+00 
161 1 2 1.0280000447760134e+00 -3.3562323377832558e+02 1.0000000000000000e+00 1.8239255179384404e+01 8.1838505681320033e+00 1.0216268920071396e+00 
160 1 2 1.0280000473588353e+00 -3.9742867476830321e+02 1.0000000000000000e+00 1.8219375318403497e+01 8.1875099673901062e+00 9.9648030174777547e-01 
130 1 2 1.0280000483333165e+00 -4.2407981818050700e+02 1.0000000000000000e+00 1.8209534292255583e+01 8.1912196407308144e+00 9.8705309996373336e-01 
124 1 2 1.0280000521270471e+00 -4.3701060882977038e+02 1.0000000000000000e+00 1.8178503049786361e+01 8.1857354005525576e+00 9.4362909194331179e-01 
88 1 2 1.0280000523123971e+00 -4.3281998288116660e+02 1.0000000000000000e+00 1.8172514940797853e+01 8.1915375198736626e+00 9.4237937636751590e-01 
129 1 2 1.0280000525112798e+00 -4.2749239026899107e+02 1.0000000000000000e+00 1.8169198721726584e+01 8.1931390016992811e+00 9.4022779815310653e-01 
87 1 2 1.0280000616659377e+00 -4.7100197015679271e+02 1.0000000000000000e+00 1.8003276208245580e+01 8.1411935408154079e+00 7.7236021639319796e-01 
82 1 2 1.0280000225584123e+00 -4.3307360890775925e+02 1.0000000000000000e+00 1.5817799820716836e+01 7.3694380922588758e+00 7.1014976944141361e-01 
112 1 2 1.0280000257415287e+00 -4.6219433290650574e+02 1.0000000000000000e+00 1.5576714647129380e+01 7.5095038168326989e+00 7.0599711721034497e-01 
159 1 2 1.0280000362235731e+00 -5.7288138843165802e+02 1.0000000000000000e+00 1.6424416119335955e+01 7.6933625504455074e+00 5.8773652079747474e-01 
123 1 2 1.0280000491647454e+00 -4.5703644080744971e+02 1.0000000000000000e+00 1.7236219915983497e+01 7.8121941607808454e+00 5.3287892432921768e-01 
4 1 2 1.0280000085044612e+00 -5.1875541713713687e+02 1.0000000000000000e+00 1.3387215485118565e+01 6.9668401835841056e+00 1.6292546954510498e+00 
41 1 2 1.0280000085547945e+00 -6.3804339672085382e+02 1.0000000000000000e+00 1.3384715095804724e+01 6.9684790992425105e+00 1.6304483029565033e+00 
5 1 2 1.0280000085658496e+00 -5.9073363534217447e+02 1.0000000000000000e+00 1.3384631964183153e+01 6.9686088449921160e+00 1.6303441006208070e+00 
6 1 2 1.0280000084739465e+00 -5.7827982281340906e+02 1.0000000000000000e+00 1.3383342712150046e+01 6.9685210667063524e+00 1.6327669790545378e+00 
12 1 2 1.0280000085593233e+00 -7.0514618880697913e+02 1.0000000000000000e+00 1.3382958561524807e+01 6.9693915576283150e+00 1.6317619055313499e+00 
11 1 2 1.0280000093838839e+00 -4.9007337645486501e+02 1.0000000000000000e+00 1.3378518145483303e+01 6.9783317425689582e+00 1.6226628012784616e+00 
10 1 2 1.0280000107123293e+00 -5.0139850955047876e+02 1.0000000000000000e+00 1.3367107222698346e+01 6.9955729477946242e+00 1.6114721070761717e+00 
47 1 2 1.0280000108802094e+00 -4.6411892026138429e+02 1.0000000000000000e+00 1.3363189180021958e+01 6.9990992375208831e+00 1.6120333006085248e+00 
46 1 2 1.0280000121918922e+00 -4.6965275463167870e+02 1.0000000000000000e+00 1.3354198191711429e+01 7.0160857548241484e+00 1.5992290632143842e+00 
16 1 2 1.0280000132058056e+00 -4.5056801869145079e+02 1.0000000000000000e+00 1.3334373069285778e+01 7.0371451032810093e+00 1.5995567264829826e+00 
133 1 2 1.0280000072912647e+00 -4.6442782144961194e+02 1.0000000000000000e+00 1.3975273673412866e+01 1.2119265144498367e+01 4.0346018553094956e+00 
128 1 2 1.0280000072912645e+00 -4.5076859458818552e+02 1.0000000000000000e+00 1.3975273673458513e+01 1.2119265144562716e+01 4.0346018552478053e+00 
97 1 2 1.0280000072912663e+00 -4.3741294617611305e+02 1.0000000000000000e+00 1.3975273673491035e+01 1.2119265144546755e+01 4.0346018552457483e+00 
163 1 2 1.0280000072912643e+00 -5.3639969599912399e+02 1.0000000000000000e+00 1.3975273673361805e+01 1.2119265144572637e+01 4.0346018552793916e+00 
127 1 2 1.0280000072912654e+00 -4.9943846937286895e+02 1.0000000000000000e+00 1.3975273673413948e+01 1.2119265144573603e+01 4.0346018552580869e+00 
157 1 2 1.0280000072912636e+00 -5.4762557909160978e+02 1.0000000000000000e+00 1.3975273673323862e+01 1.2119265144580009e+01 4.0346018552894236e+00 
121 1 2 1.0280000072912643e+00 -4.8182987909092975e+02 1.0000000000000000e+00 1.3975273673330015e+01 1.2119265144587731e+01 4.0346018552817551e+00 
132 1 2 1.0280000072912643e+00 -4.2529848070404546e+02 1.0000000000000000e+00 1.3975273673286994e+01 1.2119265144527178e+01 4.0346018553398366e+00 
91 1 2 1.0280000072912656e+00 -4.1947382622456871e+02 1.0000000000000000e+00 1.3975273673512630e+01 1.2119265144585542e+01 4.0346018552109042e+00 
96 1 2 1.0280000072912636e+00 -4.9160563843591996e+02 1.0000000000000000e+00 1.3975273673408998e+01 1.2119265144550953e+01 4.0346018552753851e+00 
85 1 2 1.0280000072912643e+00 -4.7104201046982007e+02 1.0000000000000000e+00 1.3975273673479146e+01 1.2119265144593124e+01 4.0346018552190230e+00 
86 1 2 1.0280000072912672e+00 -2.7230073982765350e+02 1.0000000000000000e+00 1.3975273673830909e+01 1.2119265144679218e+01 4.0346018550213492e+00 
92 1 2 1.0280000072912681e+00 -2.4525908215943588e+02 1.0000000000000000e+00 1.3975273674620199e+01 1.2119265144927903e+01 4.0346018545401474e+00 
169 1 2 1.0279999738004324e+00 -6.7839622876173269e+02 1.0000000000000000e+00 1.4784216195870389e+01 1.3501243551665659e+01 4.8360541161712423e+00 
164 1 2 1.0279999983005517e+00 -6.2570598226426443e+02 1.0000000000000000e+00 1.4796482097947324e+01 1.3452353851001558e+01 5.0758089176677617e+00 
134 1 2 1.0279999872766035e+00 -4.9613816876280134e+02 1.0000000000000000e+00 1.4622270009754647e+01 1.3558806785242155e+01 5.0902778981435617e+00 
176 1 2 1.0279999936244368e+00 -6.1382658079486146e+02 1.0000000000000000e+00 1.4677679458038181e+01 1.3522192432859352e+01 5.1127360190450579e+00 
170 1 2 1.0280000118541850e+00 -6.4001380113697155e+02 1.0000000000000000e+00 1.4751405272675713e+01 1.3425370370209698e+01 5.2109398363193007e+00 
98 1 2 1.0279999963353341e+00 -3.9930626818480835e+02 1.0000000000000000e+00 1.4439248384855130e+01 1.3553451167684406e+01 5.2484204301398112e+00 
140 1 2 1.0280000115508410e+00 -5.5127953272831940e+02 1.0000000000000000e+00 1.4464952480236105e+01 1.3485400453505980e+01 5.3453938303270947e+00 
104 1 2 1.0280000131006324e+00 -4.7791153535942635e+02 1.0000000000000000e+00 1.4275297737281955e+01 1.3451106966628986e+01 5.4165102298775372e+00 
177 1 2 1.0280000344418609e+00 -6.0531712023563773e+02 1.0000000000000000e+00 1.4579908649738403e+01 1.3349773169493293e+01 5.4414074234491494e+00 
105 1 2 1.0280000297545933e+00 -4.3016835107500282e+02 1.0000000000000000e+00 1.4148302385372013e+01 1.3282860433878540e+01 5.5434906051289685e+00 
99 1 2 1.0280000306317070e+00 -3.6913390911949784e+02 1.0000000000000000e+00 1.4152081531672678e+01 1.3277548630094939e+01 5.5476701902739141e+00 
93 1 2 1.0280000395546369e+00 -3.9792331461753838e+02 1.0000000000000000e+00 1.4279103676844887e+01 1.3264453215275127e+01 5.5692381749469275e+00 
165 1 2 1.0280000724836194e+00 -4.7442202777697219e+02 1.0000000000000000e+00 1.4487212397651438e+01 1.2573836450684585e+01 5.6210367840014666e+00 
141 1 2 1.0280000592684730e+00 -5.3488138018632310e+02 1.0000000000000000e+00 1.4373001610797580e+01 1.3089365697454237e+01 5.6428412473497822e+00 
171 1 2 1.0280000744224986e+00 -4.5058104688372248e+02 1.0000000000000000e+00 1.4497640813765621e+01 1.2770543243431888e+01 5.6558542515173205e+00 
135 1 2 1.0280000595918661e+00 -4.9980493583997918e+02 1.0000000000000000e+00 1.4351164972195621e+01 1.3073377113295448e+01 5.6497992316527457e+00 
131 1 2 6.4476014360238387e-01 -4.3206755130260552e+02 1.0000000000000000e+00 1.5334989698379145e+01 1.3156121525336340e+01 1.2891938892220395e+01 
136 1 2 6.4476014360238387e-01 -4.3287265858482795e+02 1.0000000000000000e+00 1.5334989698379207e+01 1.3156121525336365e+01 1.2891938892220470e+01 
137 1 2 6.4476014360238387e-01 -5.2075008042777188e+02 1.0000000000000000e+00 1.5334989698379172e+01 1.3156121525336344e+01 1.2891938892220434e+01 
167 1 2 6.4476014360238387e-01 -2.7725146810031185e+02 1.0000000000000000e+00 1.5334989698379207e+01 1.3156121525336319e+01 1.2891938892220470e+01 
172 1 2 6.4476014360238387e-01 -5.3619019448359688e+02 1.0000000000000000e+00 1.5334989698379173e+01 1.3156121525336376e+01 1.2891938892220470e+01 
173 1 2 6.4476014360238387e-01 -5.8276892874507246e+02 1.0000000000000000e+00 1.5334989698379173e+01 1.3156121525336339e+01 1.2891938892220471e+01 
101 1 2 6.4476014360238387e-01 -4.7188210487032819e+02 1.0000000000000000e+00 1.5334989698379207e+01 1.3156121525336349e+01 1.2891938892220407e+01 
142 1 2 6.4476014360238387e-01 -4.3012249993661067e+02 1.0000000000000000e+00 1.5334989698379207e+01 1.3156121525336363e+01 1.2891938892220470e+01 
143 1 2 6.4476014360238387e-01 -5.0032543406995507e+02 1.0000000000000000e+00 1.5334989698379173e+01 1.3156121525336385e+01 1.2891938892220416e+01 
179 1 2 6.4476014360238387e-01 -5.0008492782323111e+02 1.0000000000000000e+00 1.5334989698379173e+01 1.3156121525336353e+01 1.2891938892220411e+01 
178 1 2 6.4476014360238387e-01 -5.0004542688616095e+02 1.0000000000000000e+00 1.5334989698379173e+01 1.3156121525336388e+01 1.2891938892220470e+01 
138 1 2 6.4476014360238387e-01 -4.6916648668316935e+02 1.0000000000000000e+00 1.5334989698379230e+01 1.3156121525336323e+01 1.2891938892220487e+01 
102 1 2 6.4476014360238387e-01 -5.0709097300594703e+02 1.0000000000000000e+00 1.5334989698379207e+01 1.3156121525336390e+01 1.2891938892220461e+01 
168 1 2 6.4476014360238387e-01 -6.1558007703397482e+02 1.0000000000000000e+00 1.5334989698379182e+01 1.3156121525336326e+01 1.2891938892220395e+01 
174 1 2 6.4476014360238387e-01 -4.7927673638031371e+02 1.0000000000000000e+00 1.5334989698379241e+01 1.3156121525336317e+01 1.2891938892220425e+01 
150 1 2 3.0088806701444587e-01 -5.1975557299104048e+02 1.0000000000000000e+00 1.6007066226190990e+01 1.7981067620555848e+01 1.8687982011193263e+01 
139 1 2 3.0088806701444587e-01 -5.7047191366083644e+02 1.0000000000000000e+00 1.6007066226191021e+01 1.7981067620555880e+01 1.8687982011193270e+01 
114 1 2 3.0088806701444587e-01 -6.3250517669355361e+02 1.0000000000000000e+00 1.6007066226191021e+01 1.7981067620555848e+01 1.8687982011193263e+01 
144 1 2 3.0088806701444587e-01 -5.3106778601678786e+02 1.0000000000000000e+00 1.6007066226191021e+01 1.7981067620555880e+01 1.8687982011193263e+01 
180 1 2 3.0088806701444587e-01 -6.4976461735894725e+02 1.0000000000000000e+00 1.6007066226190990e+01 1.7981067620555848e+01 1.8687982011193267e+01 
145 1 2 3.0088806701444587e-01 -6.9405795197203702e+02 1.0000000000000000e+00 1.6007066226190990e+01 1.7981067620555848e+01 1.8687982011193270e+01 
175 1 2 3.0088806701444587e-01 -6.0137723698841739e+02 1.0000000000000000e+00 1.6007066226190990e+01 1.7981067620555880e+01 1.8687982011193270e+01 

Velocities

9 -2.0565687676049886e-03 -6.9451298882693450e-04 -7.0248649718325619e-03
56 -2.0565687676049886e-03 -6.9451298882693450e-04 -7.0248649718325619e-03
51 -2.0565687676070477e-03 -6.9451298882540274e-04 -7.0248649718323919e-03
14 -2.0565687676070477e-03 -6.9451298882540274e-04 -7.0248649718323919e-03
50 -2.0565687676070477e-03 -6.9451298882540274e-04 -7.0248649718323919e-03
8 -2.0565687676070477e-03 -6.9451298882540274e-04 -7.0248649718323919e-03
15 -2.0565687676070477e-03 -6.9451298882540274e-04 -7.0248649718323919e-03
21 -2.0565687676070477e-03 -6.9451298882540274e-04 -7.0248649718323919e-03
55 -2.0565687676070477e-03 -6.9451298882540274e-04 -7.0248649718323919e-03
20 -2.0565687676070477e-03 -6.9451298882540274e-04 -7.0248649718323919e-03
57 -2.0565687676070477e-03 -6.9451298882540274e-04 -7.0248649718323919e-03
45 -2.0565687676070477e-03 -6.9451298882540274e-04 -7.0248649718323919e-03
117 -2.0565575221036100e-03 -6.9445681715331158e-04 -7.0247023468831375e-03
111 -2.0566084123062574e-03 -6.9449201158636046e-04 -7.0246127928118105e-03
75 -2.0568648683711435e-03 -6.9473337596990994e-04 -7.0244002489256128e-03
81 -2.0580828895344042e-03 -6.9598550979759952e-04 -7.0237235759659554e-03
109 -2.0567064015013263e-03 -6.9455458828839478e-04 -7.0244195319951516e-03
110 -2.0567064015013263e-03 -6.9455458828839478e-04 -7.0244195319951516e-03
151 -2.0567064015013263e-03 -6.9455458828839478e-04 -7.0244195319951516e-03
74 -2.0567064015013263e-03 -6.9455458828839478e-04 -7.0244195319951516e-03
79 -2.0567064015013263e-03 -6.9455458828839478e-04 -7.0244195319951516e-03
80 -2.0567064015013263e-03 -6.9455458828839478e-04 -7.0244195319951516e-03
73 -2.0567064015013263e-03 -6.9455458828839478e-04 -7.0244195319951516e-03
152 -2.0567064015013263e-03 -6.9455458828839478e-04 -7.0244195319951516e-03
158 -2.0567064015013263e-03 -6.9455458828839478e-04 -7.0244195319951516e-03
122 -2.0567064015013263e-03 -6.9455458828839478e-04 -7.0244195319951516e-03
153 -2.0567064015013263e-03 -6.9455458828839478e-04 -7.0244195319951516e-03
147 -2.0567064015013263e-03 -6.9455458828839478e-04 -7.0244195319951516e-03
146 -2.0567064015013263e-03 -6.9455458828839478e-04 -7.0244195319951516e-03
115 -2.0567064015013263e-03 -6.9455458828839478e-04 -7.0244195319951516e-03
116 -2.0567064015013263e-03 -6.9455458828839478e-04 -7.0244195319951516e-03
76 -2.0563032541331618e-03 -6.9553893446899296e-04 -7.0295157721142181e-03
26 -4.2591001447631261e-04 -1.0138214187206565e-03 -3.0015735958175170e-04
33 -4.2591001433504752e-04 -1.0138214185403097e-03 -3.0015736000175769e-04
25 -4.2591001483706202e-04 -1.0138214191812236e-03 -3.0015735850913818e-04
32 -4.2591001456082688e-04 -1.0138214188285804e-03 -3.0015735933046106e-04
2 -4.2591001484216552e-04 -1.0138214191877902e-03 -3.0015735849400836e-04
68 -4.2591001495305046e-04 -1.0138214193293556e-03 -3.0015735816428047e-04
27 -4.2591001481031898e-04 -1.0138214191470793e-03 -3.0015735858865845e-04
62 -4.2591001480942028e-04 -1.0138214191459313e-03 -3.0015735859133746e-04
39 -4.2591001491856990e-04 -1.0138214192853066e-03 -3.0015735826679704e-04