LAMMPS data file via write_data, version 30 Jul 2016, timestep = 50400000

180 atoms
2 atom types

0.0000000000000000e+00 2.0000000000000000e+01 xlo xhi
0.0000000000000000e+00 2.0000000000000000e+01 ylo yhi
0.0000000000000000e+00 2.0000000000000000e+01 zlo zhi

Masses

1 3.896
2 4.31

Atoms # meso-molecular

9 1 2 1.0280005185912851e+00 -4.6725772684850233e+02 1.0000000000000000e+00 3.7359792386492123e+00 4.2684054013138848e+00 1.1132348456244832e+01 
56 1 2 1.0280005185912851e+00 -3.1704611102148630e+02 1.0000000000000000e+00 3.7359792386492123e+00 4.2684054013138848e+00 1.1132348456244832e+01 
51 1 2 1.0280005185912859e+00 -4.7694607782631670e+02 1.0000000000000000e+00 3.7359792386488904e+00 4.2684054013137462e+00 1.1132348456245740e+01 
14 1 2 1.0280005185912859e+00 -5.6950080151673069e+02 1.0000000000000000e+00 3.7359792386488904e+00 4.2684054013137462e+00 1.1132348456245740e+01 
50 1 2 1.0280005185912859e+00 -3.6261290405582713e+02 1.0000000000000000e+00 3.7359792386488904e+00 4.2684054013137462e+00 1.1132348456245740e+01 
8 1 2 1.0280005185912859e+00 -4.6142744478579385e+02 1.0000000000000000e+00 3.7359792386488904e+00 4.2684054013137462e+00 1.1132348456245740e+01 
15 1 2 1.0280005185912859e+00 -5.4472876703682664e+02 1.0000000000000000e+00 3.7359792386488904e+00 4.2684054013137462e+00 1.1132348456245740e+01 
21 1 2 1.0280005185912859e+00 -4.9818970344340676e+02 1.0000000000000000e+00 3.7359792386488904e+00 4.2684054013137462e+00 1.1132348456245740e+01 
55 1 2 1.0280005185912859e+00 -3.1021896216673321e+02 1.0000000000000000e+00 3.7359792386488904e+00 4.2684054013137462e+00 1.1132348456245740e+01 
20 1 2 1.0280005185912859e+00 -4.7555810009730112e+02 1.0000000000000000e+00 3.7359792386488904e+00 4.2684054013137462e+00 1.1132348456245740e+01 
57 1 2 1.0280005185912859e+00 -4.2833556797098709e+02 1.0000000000000000e+00 3.7359792386488904e+00 4.2684054013137462e+00 1.1132348456245740e+01 
45 1 2 1.0280005185912859e+00 -4.5607430844269550e+02 1.0000000000000000e+00 3.7359792386488904e+00 4.2684054013137462e+00 1.1132348456245740e+01 
117 1 2 1.0280005185912162e+00 -4.6933267623801953e+02 1.0000000000000000e+00 3.7360071763600966e+00 4.2685450057890648e+00 1.1132752618840300e+01 
111 1 2 1.0280005185913808e+00 -4.6741816197961333e+02 1.0000000000000000e+00 3.7358807110849335e+00 4.2684575224261829e+00 1.1132975195825011e+01 
75 1 2 1.0280005185907759e+00 -4.6095864874314145e+02 1.0000000000000000e+00 3.7352429809455376e+00 4.2678578908704328e+00 1.1133503423243008e+01 
81 1 2 1.0280005185709640e+00 -4.9937474460775695e+02 1.0000000000000000e+00 3.7322026330340812e+00 4.2647546860807211e+00 1.1135183498152836e+01 
109 1 2 1.0279994814060434e+00 -4.9654376474785812e+02 1.0000000000000000e+00 5.5335374689203665e+00 2.7168327425236529e+00 1.1543489608478575e+01 
110 1 2 1.0279994814060434e+00 -5.6215418079611970e+02 1.0000000000000000e+00 5.5335374689203665e+00 2.7168327425236529e+00 1.1543489608478575e+01 
151 1 2 1.0279994814060434e+00 -7.0823831030459360e+02 1.0000000000000000e+00 5.5335374689203665e+00 2.7168327425236529e+00 1.1543489608478575e+01 
74 1 2 1.0279994814060434e+00 -5.3018125340320012e+02 1.0000000000000000e+00 5.5335374689203665e+00 2.7168327425236529e+00 1.1543489608478575e+01 
79 1 2 1.0279994814060434e+00 -4.8163905420202565e+02 1.0000000000000000e+00 5.5335374689203665e+00 2.7168327425236529e+00 1.1543489608478575e+01 
80 1 2 1.0279994814060434e+00 -5.3360696501018026e+02 1.0000000000000000e+00 5.5335374689203665e+00 2.7168327425236529e+00 1.1543489608478575e+01 
73 1 2 1.0279994814060434e+00 -4.6675100165139497e+02 1.0000000000000000e+00 5.5335374689203665e+00 2.7168327425236529e+00 1.1543489608478575e+01 
152 1 2 1.0279994814060434e+00 -5.1565284834105034e+02 1.0000000000000000e+00 5.5335374689203665e+00 2.7168327425236529e+00 1.1543489608478575e+01 
158 1 2 1.0279994814060434e+00 -5.9452386540699831e+02 1.0000000000000000e+00 5.5335374689203665e+00 2.7168327425236529e+00 1.1543489608478575e+01 
122 1 2 1.0279994814060434e+00 -4.5321084871577995e+02 1.0000000000000000e+00 5.5335374689203665e+00 2.7168327425236529e+00 1.1543489608478575e+01 
153 1 2 1.0279994814060434e+00 -4.6346200739294284e+02 1.0000000000000000e+00 5.5335374689203665e+00 2.7168327425236529e+00 1.1543489608478575e+01 
147 1 2 1.0279994814060434e+00 -4.9176657190564066e+02 1.0000000000000000e+00 5.5335374689203665e+00 2.7168327425236529e+00 1.1543489608478575e+01 
146 1 2 1.0279994814060434e+00 -6.5116297997326001e+02 1.0000000000000000e+00 5.5335374689203665e+00 2.7168327425236529e+00 1.1543489608478575e+01 
115 1 2 1.0279994814060434e+00 -4.9827697153218418e+02 1.0000000000000000e+00 5.5335374689203665e+00 2.7168327425236529e+00 1.1543489608478575e+01 
116 1 2 1.0279994814060434e+00 -5.8274879533007413e+02 1.0000000000000000e+00 5.5335374689203665e+00 2.7168327425236529e+00 1.1543489608478575e+01 
76 1 2 1.0279994814944471e+00 -4.6306717653683017e+02 1.0000000000000000e+00 5.5326382665056801e+00 2.7191191061998743e+00 1.1555596912050159e+01 
26 1 2 1.0279999999993112e+00 -7.0404181051060766e+02 1.0000000000000000e+00 6.6011174126917860e+00 1.6618867681957621e+01 2.3603905734642479e+00 
33 1 2 1.0279999999993261e+00 -6.8591255606923858e+02 1.0000000000000000e+00 6.6011174129065866e+00 1.6618867688347517e+01 2.3603905762074997e+00 
25 1 2 1.0279999999992075e+00 -5.7640509337040248e+02 1.0000000000000000e+00 6.6011174126065626e+00 1.6618867681601163e+01 2.3603905732873862e+00 
32 1 2 1.0279999999990703e+00 -6.3297303121413461e+02 1.0000000000000000e+00 6.6011174126234664e+00 1.6618867685628107e+01 2.3603905749774978e+00 
2 1 2 1.0279999999991820e+00 -7.3330716386172639e+02 1.0000000000000000e+00 6.6011174127457330e+00 1.6618867691327228e+01 2.3603905774000307e+00 
68 1 2 1.0279999999995619e+00 -7.2721761276598045e+02 1.0000000000000000e+00 6.6011174126577341e+00 1.6618867684250876e+01 2.3603905744093012e+00 
27 1 2 1.0279999999990044e+00 -5.7608011264775871e+02 1.0000000000000000e+00 6.6011174129927559e+00 1.6618867683074999e+01 2.3603905740352391e+00 
62 1 2 1.0279999999991050e+00 -5.8166363701129694e+02 1.0000000000000000e+00 6.6011174128736227e+00 1.6618867682298863e+01 2.3603905736698487e+00 
39 1 2 1.0279999999990002e+00 -6.2533173461644128e+02 1.0000000000000000e+00 6.6011174134449417e+00 1.6618867691842794e+01 2.3603905778526033e+00 
3 1 2 1.0279999999991174e+00 -7.0395051042062130e+02 1.0000000000000000e+00 6.6011174133767110e+00 1.6618867691774472e+01 2.3603905778000902e+00 
49 1 2 1.0279999838912937e+00 -4.0044656728474627e+02 1.0000000000000000e+00 1.3283173123770892e+01 8.0572007881073304e+00 2.4342925605947663e+00 
19 1 2 1.0279999838916716e+00 -5.1622158235864413e+02 1.0000000000000000e+00 1.3283171168007346e+01 8.0572006073901150e+00 2.4342883907984207e+00 
13 1 2 1.0279999838916771e+00 -5.0517455387289897e+02 1.0000000000000000e+00 1.3283171077256840e+01 8.0572005683662677e+00 2.4342882345095256e+00 
54 1 2 1.0279999838918636e+00 -4.2198101321673028e+02 1.0000000000000000e+00 1.3283170450871063e+01 8.0572016460323237e+00 2.4342855203308571e+00 
18 1 2 1.0279999838918150e+00 -6.1537259608770057e+02 1.0000000000000000e+00 1.3283170404706038e+01 8.0572010092310506e+00 2.4342861898701242e+00 
24 1 2 1.0279999838920482e+00 -4.2063571755402705e+02 1.0000000000000000e+00 1.3283169744110955e+01 8.0572023150981646e+00 2.4342831218258429e+00 
60 1 2 1.0279999838921201e+00 -3.8180290225588197e+02 1.0000000000000000e+00 1.3283169535808808e+01 8.0572028027449161e+00 2.4342820622643080e+00 
53 1 2 1.0279999824730894e+00 -4.3905679272673183e+02 1.0000000000000000e+00 1.3309232320762943e+01 8.1051837187113751e+00 2.4306876506609667e+00 
59 1 2 1.0279999866541436e+00 -3.8227840165908503e+02 1.0000000000000000e+00 1.3267587997025267e+01 8.0523459235056869e+00 2.4032215571682616e+00 
95 1 2 1.0279999899931938e+00 -4.3340981744440273e+02 1.0000000000000000e+00 1.3257834833518368e+01 8.0648755878001577e+00 2.3557206480675932e+00 
17 1 2 1.0280000181719151e+00 -4.6029517318878186e+02 1.0000000000000000e+00 1.3135524386077098e+01 7.4897519757595887e+00 1.8478361506172818e+00 
7 1 2 1.0279999999983249e+00 -6.8414537030498605e+02 1.0000000000000000e+00 6.7442174143881486e+00 1.7449769443954708e+01 1.8446146866374735e+00 
43 1 2 1.0279999999986087e+00 -5.7042152804425450e+02 1.0000000000000000e+00 6.7442193521079172e+00 1.7449769838619943e+01 1.8446093260366896e+00 
44 1 2 1.0280000000024307e+00 -5.6374503381883721e+02 1.0000000000000000e+00 6.7442153057849374e+00 1.7449768880905395e+01 1.8446232300410152e+00 
37 1 2 1.0280000000005334e+00 -5.8267677081246768e+02 1.0000000000000000e+00 6.7442209196163176e+00 1.7449770155718412e+01 1.8446050325376060e+00 
38 1 2 1.0280000000004721e+00 -5.9164585321537777e+02 1.0000000000000000e+00 6.7442157178979105e+00 1.7449768923332162e+01 1.8446229334036668e+00 
1 1 2 1.0280000000010372e+00 -6.0220420614965485e+02 1.0000000000000000e+00 6.7442299999924824e+00 1.7449772343080049e+01 1.8445730236016122e+00 
66 1 2 1.0279999999998970e+00 -6.8329616312143378e+02 1.0000000000000000e+00 6.9939362245719767e+00 1.6699801422826859e+01 1.2510467489350952e+00 
108 1 2 1.0279999999999008e+00 -5.8517092704065988e+02 1.0000000000000000e+00 6.9939500150416656e+00 1.6699946514170254e+01 1.2510140370719482e+00 
72 1 2 1.0279999999999401e+00 -6.4667873930418898e+02 1.0000000000000000e+00 6.9939436410960711e+00 1.6699935860016129e+01 1.2510144501297202e+00 
103 1 2 1.0279999999999057e+00 -6.3346118073289665e+02 1.0000000000000000e+00 6.9939471427419679e+00 1.6699887717913544e+01 1.2510282951782012e+00 
67 1 2 1.0279999999999394e+00 -6.1559094842518004e+02 1.0000000000000000e+00 6.9939395232376906e+00 1.6699887209257390e+01 1.2510256029445299e+00 
78 1 2 1.0279999999998983e+00 -4.3993178046348328e+02 1.0000000000000000e+00 6.9939608905939075e+00 1.6700085538426965e+01 1.2509818642691273e+00 
36 1 2 1.0279999999999105e+00 -6.9547058316378343e+02 1.0000000000000000e+00 6.9939301277053216e+00 1.6700001197254629e+01 1.2509924196257900e+00 
61 1 2 1.0279999999999410e+00 -5.4625278886600506e+02 1.0000000000000000e+00 6.9939358071611952e+00 1.6700127931581306e+01 1.2509615331166657e+00 
31 1 2 1.0279999999999001e+00 -6.2464388485205518e+02 1.0000000000000000e+00 6.9939310267256198e+00 1.6700070066297677e+01 1.2509748208805036e+00 
42 1 2 1.0279999999999387e+00 -5.1270524554511996e+02 1.0000000000000000e+00 6.9939563365628690e+00 1.6700102736397540e+01 1.2509756998387442e+00 
58 1 2 8.1669618189635285e-01 -4.2970831805784974e+02 1.0000000000000000e+00 7.4574795339165956e+00 1.4324994632360628e+01 1.1301094335602727e+01 
64 1 2 8.1669618189635285e-01 -5.6040976416186209e+02 1.0000000000000000e+00 7.4574795339165956e+00 1.4324994632360628e+01 1.1301094335602805e+01 
65 1 2 8.1669618189635285e-01 -6.1334514328916202e+02 1.0000000000000000e+00 7.4574795339165778e+00 1.4324994632360628e+01 1.1301094335602818e+01 
94 1 2 8.1669618189635285e-01 -3.4161096054884831e+02 1.0000000000000000e+00 7.4574795339165707e+00 1.4324994632360628e+01 1.1301094335602805e+01 
100 1 2 8.1669618189635285e-01 -3.5889239522459798e+02 1.0000000000000000e+00 7.4574795339165707e+00 1.4324994632360598e+01 1.1301094335602762e+01 
22 1 2 8.1669618189635285e-01 -4.5656381162486366e+02 1.0000000000000000e+00 7.4574795339165521e+00 1.4324994632360676e+01 1.1301094335602709e+01 
63 1 2 8.1669618189635285e-01 -4.1132307240016235e+02 1.0000000000000000e+00 7.4574795339165707e+00 1.4324994632360619e+01 1.1301094335602730e+01 
28 1 2 8.1669618189635285e-01 -6.8952946702255792e+02 1.0000000000000000e+00 7.4574795339165956e+00 1.4324994632360628e+01 1.1301094335602754e+01 
23 1 2 8.1669618189635285e-01 -3.9700991611164733e+02 1.0000000000000000e+00 7.4574795339165458e+00 1.4324994632360628e+01 1.1301094335602762e+01 
29 1 2 8.1669618189635285e-01 -5.4244854698094662e+02 1.0000000000000000e+00 7.4574795339165751e+00 1.4324994632360628e+01 1.1301094335602802e+01 
71 1 2 8.1669618189635285e-01 -6.5896295369887503e+02 1.0000000000000000e+00 7.4574795339165458e+00 1.4324994632360632e+01 1.1301094335602754e+01 
30 1 2 8.1669618189635285e-01 -6.4887899405125745e+02 1.0000000000000000e+00 7.4574795339165769e+00 1.4324994632360628e+01 1.1301094335602745e+01 
35 1 2 8.1669618189635285e-01 -6.5168499206506260e+02 1.0000000000000000e+00 7.4574795339165956e+00 1.4324994632360546e+01 1.1301094335602755e+01 
107 1 2 8.1669618189635285e-01 -6.1509924642599049e+02 1.0000000000000000e+00 7.4574795339165707e+00 1.4324994632360642e+01 1.1301094335602762e+01 
106 1 2 8.1669618189635285e-01 -4.9254209484802902e+02 1.0000000000000000e+00 7.4574795339165707e+00 1.4324994632360633e+01 1.1301094335602762e+01 
70 1 2 8.1669618189635285e-01 -5.4901030040329010e+02 1.0000000000000000e+00 7.4574795339165707e+00 1.4324994632360569e+01 1.1301094335602730e+01 
69 1 2 8.1669618189635285e-01 -5.5722762674396370e+02 1.0000000000000000e+00 7.4574795339165707e+00 1.4324994632360580e+01 1.1301094335602762e+01 
34 1 2 8.1669618189635285e-01 -6.8088723888266509e+02 1.0000000000000000e+00 7.4574795339165707e+00 1.4324994632360582e+01 1.1301094335602730e+01 
40 1 2 8.1669618189635285e-01 -4.7396668264714936e+02 1.0000000000000000e+00 7.4574795339165778e+00 1.4324994632360587e+01 1.1301094335602762e+01 
90 1 2 1.0279999500370525e+00 -3.9724033938076332e+02 1.0000000000000000e+00 1.5893874395418170e+01 7.6137545556998081e+00 2.8139771981372843e+00 
89 1 2 1.0279999500899697e+00 -4.0493689126934345e+02 1.0000000000000000e+00 1.5899371253820448e+01 7.6146277447814654e+00 2.8130108616948419e+00 
48 1 2 1.0279999501077637e+00 -4.8116237125291201e+02 1.0000000000000000e+00 1.5900373249431162e+01 7.6145473163834625e+00 2.8128080445228529e+00 
84 1 2 1.0279999503069297e+00 -4.6097519844613760e+02 1.0000000000000000e+00 1.5966347782241893e+01 7.6397254159772272e+00 2.8025291384569222e+00 
83 1 2 1.0279999503564001e+00 -4.2968395185801558e+02 1.0000000000000000e+00 1.5969064138117833e+01 7.6395860551796630e+00 2.8019895439482436e+00 
77 1 2 1.0279999513098694e+00 -4.7968724727688249e+02 1.0000000000000000e+00 1.6008080099421406e+01 7.6288890476071032e+00 2.7933992826844234e+00 
120 1 2 1.0279999771770982e+00 -4.8654441812545059e+02 1.0000000000000000e+00 1.8472667733466110e+01 7.7970532051559243e+00 1.5780695750190854e+00 
125 1 2 1.0279999771990465e+00 -4.2480627305659061e+02 1.0000000000000000e+00 1.8472704298898826e+01 7.7972809413080570e+00 1.5779478352821938e+00 
126 1 2 1.0279999773011053e+00 -3.5848075193309478e+02 1.0000000000000000e+00 1.8472867104677544e+01 7.7973221226205247e+00 1.5769387915392543e+00 
162 1 2 1.0279999774190103e+00 -4.4992048341918849e+02 1.0000000000000000e+00 1.8473038305232382e+01 7.7957120650125269e+00 1.5750524842384430e+00 
156 1 2 1.0279999776793287e+00 -5.8258950686924891e+02 1.0000000000000000e+00 1.8473265057973570e+01 7.7874868469017011e+00 1.5689194339587749e+00 
119 1 2 1.0279999777152387e+00 -4.6656213192301630e+02 1.0000000000000000e+00 1.8472998275533790e+01 7.7790522503772328e+00 1.5650225931266954e+00 
155 1 2 1.0279999780044486e+00 -5.7857272197124132e+02 1.0000000000000000e+00 1.8472159751694019e+01 7.7605151426653336e+00 1.5546789439153670e+00 
113 1 2 1.0279999780147284e+00 -7.3338375992775548e+02 1.0000000000000000e+00 1.8471062638190464e+01 7.7489443325883691e+00 1.5500959682514843e+00 
149 1 2 1.0279999780473541e+00 -6.7898232427604694e+02 1.0000000000000000e+00 1.8470988754213053e+01 7.7479182795226373e+00 1.5493861750992912e+00 
148 1 2 1.0279999780569549e+00 -6.3399809685727860e+02 1.0000000000000000e+00 1.8470321954779255e+01 7.7420253719952310e+00 1.5470715703250495e+00 
154 1 2 1.0279999817404097e+00 -5.2323901213245904e+02 1.0000000000000000e+00 1.8380409131079535e+01 7.4923030197889480e+00 1.4461748396848628e+00 
118 1 2 1.0279999841805181e+00 -4.2669818959683431e+02 1.0000000000000000e+00 1.8326041637595019e+01 7.4176404610598929e+00 1.4103908165944536e+00 
166 1 2 1.0280000417355257e+00 -3.5212649551013402e+02 1.0000000000000000e+00 1.8289215267946240e+01 8.2059089016959366e+00 1.1727687989461550e+00 
161 1 2 1.0280000428572880e+00 -3.3562323377832558e+02 1.0000000000000000e+00 1.8286084052370654e+01 8.1984350435146922e+00 1.1587664274900229e+00 
160 1 2 1.0280000452938718e+00 -3.9742867476830321e+02 1.0000000000000000e+00 1.8266208675462305e+01 8.2021178267996770e+00 1.1335707671166142e+00 
130 1 2 1.0280000462299581e+00 -4.2407981818050700e+02 1.0000000000000000e+00 1.8256366857483961e+01 8.2058393981417286e+00 1.1241231399176095e+00 
124 1 2 1.0280000497411350e+00 -4.3701060882977038e+02 1.0000000000000000e+00 1.8225337383147902e+01 8.2003779527848959e+00 1.0806118771088553e+00 
88 1 2 1.0280000499542359e+00 -4.3281998288116660e+02 1.0000000000000000e+00 1.8219344995810076e+01 8.2061891898593888e+00 1.0793562589701216e+00 
129 1 2 1.0280000501513475e+00 -4.2749239026899107e+02 1.0000000000000000e+00 1.8216027157716791e+01 8.2077944249733434e+00 1.0771990990568918e+00 
87 1 2 1.0280000585047675e+00 -4.7100197015679271e+02 1.0000000000000000e+00 1.8050009742703296e+01 8.1558669557253278e+00 9.0894728296204808e-01 
82 1 2 1.0280000242201770e+00 -4.3307360886396509e+02 1.0000000000000000e+00 1.5863416035488518e+01 7.3841290561755377e+00 8.4450817130392797e-01 
112 1 2 1.0280000275747847e+00 -4.6219433286103100e+02 1.0000000000000000e+00 1.5622239300075510e+01 7.5243450696951317e+00 8.3994800074811704e-01 
159 1 2 1.0280000361380053e+00 -5.7288138843165802e+02 1.0000000000000000e+00 1.6470174411615393e+01 7.7079683895553055e+00 7.2271985745626777e-01 
123 1 2 1.0280000468839674e+00 -4.5703644080744971e+02 1.0000000000000000e+00 1.7282348543785140e+01 7.8266210771665161e+00 6.6864807665190429e-01 
4 1 2 1.0280000140500043e+00 -5.1875541713713687e+02 1.0000000000000000e+00 1.3432230395409144e+01 6.9823369188155393e+00 1.7607885693697423e+00 
41 1 2 1.0280000140892520e+00 -6.3804339672085382e+02 1.0000000000000000e+00 1.3429728447565822e+01 6.9839765821343187e+00 1.7619794697509141e+00 
5 1 2 1.0280000140995036e+00 -5.9073363534217447e+02 1.0000000000000000e+00 1.3429645183082870e+01 6.9841062769060658e+00 1.7618751172289828e+00 
6 1 2 1.0280000140076315e+00 -5.7827982281340906e+02 1.0000000000000000e+00 1.3428356139574744e+01 6.9840198431449192e+00 1.7642973449287065e+00 
12 1 2 1.0280000140874301e+00 -7.0514618880697913e+02 1.0000000000000000e+00 1.3427971079760207e+01 6.9848898211672408e+00 1.7632913633878604e+00 
11 1 2 1.0280000148542414e+00 -4.9007337640939028e+02 1.0000000000000000e+00 1.3423521452777365e+01 6.9938256367614136e+00 1.7541825176305748e+00 
10 1 2 1.0280000160676255e+00 -5.0139850950500403e+02 1.0000000000000000e+00 1.3412093219429572e+01 7.0110628789142071e+00 1.7429710424103251e+00 
47 1 2 1.0280000162109451e+00 -4.6411892021590955e+02 1.0000000000000000e+00 1.3408171718572735e+01 7.0145900150843419e+00 1.7435271593869122e+00 
46 1 2 1.0280000174069632e+00 -4.6965275458620397e+02 1.0000000000000000e+00 1.3399163930678187e+01 7.0315730967840082e+00 1.7307030311351621e+00 
16 1 2 1.0280000182703346e+00 -4.5056801864597605e+02 1.0000000000000000e+00 1.3379318339510530e+01 7.0526379558474641e+00 1.7310017421699051e+00 
52 1 2 1.0280000183713278e+00 -4.2583022857031250e+02 1.0000000000000000e+00 1.3374422188980713e+01 7.0568463572961226e+00 1.7328786673566285e+00 
133 1 2 1.0279999943331248e+00 -4.6442782108229983e+02 1.0000000000000000e+00 1.4000377500772757e+01 1.2157873844423193e+01 4.1170803054925091e+00 
128 1 2 1.0279999943331259e+00 -4.5076859422087341e+02 1.0000000000000000e+00 1.4000377500818425e+01 1.2157873844487675e+01 4.1170803054307790e+00 
97 1 2 1.0279999943331257e+00 -4.3741294580880094e+02 1.0000000000000000e+00 1.4000377500850975e+01 1.2157873844471688e+01 4.1170803054287539e+00 
163 1 2 1.0279999943331253e+00 -5.3639969563532611e+02 1.0000000000000000e+00 1.4000377500721639e+01 1.2157873844497614e+01 4.1170803054622658e+00 
127 1 2 1.0279999943331264e+00 -4.9943846900555684e+02 1.0000000000000000e+00 1.4000377500773817e+01 1.2157873844498585e+01 4.1170803054410055e+00 
157 1 2 1.0279999943331248e+00 -5.4762557872781190e+02 1.0000000000000000e+00 1.4000377500683669e+01 1.2157873844505003e+01 4.1170803054722551e+00 
121 1 2 1.0279999943331244e+00 -4.8182987872361764e+02 1.0000000000000000e+00 1.4000377500689812e+01 1.2157873844512734e+01 4.1170803054645866e+00 
132 1 2 1.0279999943331253e+00 -4.2529848033673335e+02 1.0000000000000000e+00 1.4000377500646788e+01 1.2157873844452048e+01 4.1170803055227134e+00 
91 1 2 1.0279999943331259e+00 -4.1947382585725660e+02 1.0000000000000000e+00 1.4000377500872565e+01 1.2157873844510570e+01 4.1170803053938752e+00 
96 1 2 1.0279999943331255e+00 -4.9160563806860785e+02 1.0000000000000000e+00 1.4000377500768867e+01 1.2157873844475898e+01 4.1170803054583311e+00 
85 1 2 1.0279999943331251e+00 -4.7104201010250796e+02 1.0000000000000000e+00 1.4000377500839049e+01 1.2157873844518161e+01 4.1170803054019665e+00 
86 1 2 1.0279999943331257e+00 -2.7230073946034139e+02 1.0000000000000000e+00 1.4000377501191041e+01 1.2157873844604477e+01 4.1170803052044374e+00 
92 1 2 1.0279999943331253e+00 -2.4525908178959321e+02 1.0000000000000000e+00 1.4000377501980791e+01 1.2157873844853810e+01 4.1170803047235092e+00 
169 1 2 1.0279999810917619e+00 -6.7839622876173269e+02 1.0000000000000000e+00 1.4808220726696605e+01 1.3541555564979724e+01 4.9161479961981049e+00 
164 1 2 1.0280000059248049e+00 -6.2570598226426443e+02 1.0000000000000000e+00 1.4820709511562951e+01 1.3492978792195434e+01 5.1559086132998937e+00 
134 1 2 1.0279999956746206e+00 -4.9613816876280134e+02 1.0000000000000000e+00 1.4646380001154027e+01 1.3599334577533414e+01 5.1703433425080334e+00 
176 1 2 1.0280000018539934e+00 -6.1382658079486146e+02 1.0000000000000000e+00 1.4701837358448605e+01 1.3562793372728185e+01 5.1928236400715715e+00 
170 1 2 1.0280000196587085e+00 -6.4001380113697155e+02 1.0000000000000000e+00 1.4775731466355374e+01 1.3466136680074740e+01 5.2911400452246342e+00 
98 1 2 1.0280000050109610e+00 -3.9930626818480835e+02 1.0000000000000000e+00 1.4463359910585744e+01 1.3594111140464369e+01 5.3285486918842517e+00 
140 1 2 1.0280000200278085e+00 -5.5127953272831940e+02 1.0000000000000000e+00 1.4489110760731592e+01 1.3526216099392911e+01 5.4256615994011907e+00 
104 1 2 1.0280000211908769e+00 -4.7791153535942635e+02 1.0000000000000000e+00 1.4299345935064775e+01 1.3491921636060626e+01 5.4968441015601970e+00 
177 1 2 1.0280000421855700e+00 -6.0531712023563773e+02 1.0000000000000000e+00 1.4604250550064959e+01 1.3390700972911677e+01 5.5219472737119606e+00 
105 1 2 1.0280000365689108e+00 -4.3016835107500282e+02 1.0000000000000000e+00 1.4172219401649411e+01 1.3323688427333304e+01 5.6241177876737938e+00 
99 1 2 1.0280000374201084e+00 -3.6913390911949784e+02 1.0000000000000000e+00 1.4175999288489180e+01 1.3318377894488021e+01 5.6283115893168789e+00 
93 1 2 1.0280000465119994e+00 -3.9792331461753838e+02 1.0000000000000000e+00 1.4303135016589719e+01 1.3305332855759579e+01 5.6499948047221071e+00 
165 1 2 1.0280000747558797e+00 -4.7442202777697219e+02 1.0000000000000000e+00 1.4511689180324877e+01 1.2613686461313806e+01 5.7025074385257977e+00 
141 1 2 1.0280000650829606e+00 -5.3488138018632310e+02 1.0000000000000000e+00 1.4397171616758525e+01 1.3130110798928394e+01 5.7239657996125661e+00 
171 1 2 1.0280000779562171e+00 -4.5058104688372248e+02 1.0000000000000000e+00 1.4522095218372364e+01 1.2810759100046717e+01 5.7372937880990564e+00 
135 1 2 1.0280000652648269e+00 -4.9980493583997918e+02 1.0000000000000000e+00 1.4375302977052090e+01 1.3114098796577252e+01 5.7309440052634093e+00 
131 1 2 6.4476014360238387e-01 -4.3206755130260552e+02 1.0000000000000000e+00 1.5334989698379145e+01 1.3156121525336340e+01 1.2891938892220395e+01 
136 1 2 6.4476014360238387e-01 -4.3287265858482795e+02 1.0000000000000000e+00 1.5334989698379207e+01 1.3156121525336365e+01 1.2891938892220470e+01 
137 1 2 6.4476014360238387e-01 -5.2075008042777188e+02 1.0000000000000000e+00 1.5334989698379172e+01 1.3156121525336344e+01 1.2891938892220434e+01 
167 1 2 6.4476014360238387e-01 -2.7725146810031185e+02 1.0000000000000000e+00 1.5334989698379207e+01 1.3156121525336319e+01 1.2891938892220470e+01 
172 1 2 6.4476014360238387e-01 -5.3619019448359688e+02 1.0000000000000000e+00 1.5334989698379173e+01 1.3156121525336376e+01 1.2891938892220470e+01 
173 1 2 6.4476014360238387e-01 -5.8276892874507246e+02 1.0000000000000000e+00 1.5334989698379173e+01 1.3156121525336339e+01 1.2891938892220471e+01 
101 1 2 6.4476014360238387e-01 -4.7188210487032819e+02 1.0000000000000000e+00 1.5334989698379207e+01 1.3156121525336349e+01 1.2891938892220407e+01 
142 1 2 6.4476014360238387e-01 -4.3012249993661067e+02 1.0000000000000000e+00 1.5334989698379207e+01 1.3156121525336363e+01 1.2891938892220470e+01 
143 1 2 6.4476014360238387e-01 -5.0032543406995507e+02 1.0000000000000000e+00 1.5334989698379173e+01 1.3156121525336385e+01 1.2891938892220416e+01 
179 1 2 6.4476014360238387e-01 -5.0008492782323111e+02 1.0000000000000000e+00 1.5334989698379173e+01 1.3156121525336353e+01 1.2891938892220411e+01 
178 1 2 6.4476014360238387e-01 -5.0004542688616095e+02 1.0000000000000000e+00 1.5334989698379173e+01 1.3156121525336388e+01 1.2891938892220470e+01 
138 1 2 6.4476014360238387e-01 -4.6916648668316935e+02 1.0000000000000000e+00 1.5334989698379230e+01 1.3156121525336323e+01 1.2891938892220487e+01 
102 1 2 6.4476014360238387e-01 -5.0709097300594703e+02 1.0000000000000000e+00 1.5334989698379207e+01 1.3156121525336390e+01 1.2891938892220461e+01 
168 1 2 6.4476014360238387e-01 -6.1558007703397482e+02 1.0000000000000000e+00 1.5334989698379182e+01 1.3156121525336326e+01 1.2891938892220395e+01 
174 1 2 6.4476014360238387e-01 -4.7927673638031371e+02 1.0000000000000000e+00 1.5334989698379241e+01 1.3156121525336317e+01 1.2891938892220425e+01 
150 1 2 3.0088806701444587e-01 -5.1975557299104048e+02 1.0000000000000000e+00 1.6007066226190990e+01 1.7981067620555848e+01 1.8687982011193263e+01 
139 1 2 3.0088806701444587e-01 -5.7047191366083644e+02 1.0000000000000000e+00 1.6007066226191021e+01 1.7981067620555880e+01 1.8687982011193270e+01 
114 1 2 3.0088806701444587e-01 -6.3250517669355361e+02 1.0000000000000000e+00 1.6007066226191021e+01 1.7981067620555848e+01 1.8687982011193263e+01 
144 1 2 3.0088806701444587e-01 -5.3106778601678786e+02 1.0000000000000000e+00 1.6007066226191021e+01 1.7981067620555880e+01 1.8687982011193263e+01 
180 1 2 3.0088806701444587e-01 -6.4976461735894725e+02 1.0000000000000000e+00 1.6007066226190990e+01 1.7981067620555848e+01 1.8687982011193267e+01 
145 1 2 3.0088806701444587e-01 -6.9405795197203702e+02 1.0000000000000000e+00 1.6007066226190990e+01 1.7981067620555848e+01 1.8687982011193270e+01 
175 1 2 3.0088806701444587e-01 -6.0137723698841739e+02 1.0000000000000000e+00 1.6007066226190990e+01 1.7981067620555880e+01 1.8687982011193270e+01 

Velocities

9 -2.0584933856087513e-03 -6.9516534200875517e-04 -7.0314205857560253e-03
56 -2.0584933856087513e-03 -6.9516534200875517e-04 -7.0314205857560253e-03
51 -2.0584933856071857e-03 -6.9516534201049141e-04 -7.0314205857552846e-03
14 -2.0584933856071857e-03 -6.9516534201049141e-04 -7.0314205857552846e-03
50 -2.0584933856071857e-03 -6.9516534201049141e-04 -7.0314205857552846e-03
8 -2.0584933856071857e-03 -6.9516534201049141e-04 -7.0314205857552846e-03
15 -2.0584933856071857e-03 -6.9516534201049141e-04 -7.0314205857552846e-03
21 -2.0584933856071857e-03 -6.9516534201049141e-04 -7.0314205857552846e-03
55 -2.0584933856071857e-03 -6.9516534201049141e-04 -7.0314205857552846e-03
20 -2.0584933856071857e-03 -6.9516534201049141e-04 -7.0314205857552846e-03
57 -2.0584933856071857e-03 -6.9516534201049141e-04 -7.0314205857552846e-03
45 -2.0584933856071857e-03 -6.9516534201049141e-04 -7.0314205857552846e-03
117 -2.0584825398079027e-03 -6.9511116175305506e-04 -7.0312637287931329e-03
111 -2.0585316243731497e-03 -6.9514510847530555e-04 -7.0311773508823930e-03
75 -2.0587789798990558e-03 -6.9537791530316644e-04 -7.0309723452816044e-03
81 -2.0599536324526053e-03 -6.9658574838254040e-04 -7.0303196520698288e-03
109 -2.0586254537840994e-03 -6.9520729473992104e-04 -7.0310009021802801e-03
110 -2.0586254537840994e-03 -6.9520729473992104e-04 -7.0310009021802801e-03
151 -2.0586254537840994e-03 -6.9520729473992104e-04 -7.0310009021802801e-03
74 -2.0586254537840994e-03 -6.9520729473992104e-04 -7.0310009021802801e-03
79 -2.0586254537840994e-03 -6.9520729473992104e-04 -7.0310009021802801e-03
80 -2.0586254537840994e-03 -6.9520729473992104e-04 -7.0310009021802801e-03
73 -2.0586254537840994e-03 -6.9520729473992104e-04 -7.0310009021802801e-03
152 -2.0586254537840994e-03 -6.9520729473992104e-04 -7.0310009021802801e-03
158 -2.0586254537840994e-03 -6.9520729473992104e-04 -7.0310009021802801e-03
122 -2.0586254537840994e-03 -6.9520729473992104e-04 -7.0310009021802801e-03
153 -2.0586254537840994e-03 -6.9520729473992104e-04 -7.0310009021802801e-03
147 -2.0586254537840994e-03 -6.9520729473992104e-04 -7.0310009021802801e-03
146 -2.0586254537840994e-03 -6.9520729473992104e-04 -7.0310009021802801e-03
115 -2.0586254537840994e-03 -6.9520729473992104e-04 -7.0310009021802801e-03
116 -2.0586254537840994e-03 -6.9520729473992104e-04 -7.0310009021802801e-03
76 -2.0582498868978298e-03 -6.9612542470046947e-04 -7.0357576704981667e-03
26 -4.2630775898810507e-04 -1.0147681977093616e-03 -3.0043765135687065e-04
33 -4.2630775920884782e-04 -1.0147681979913619e-03 -3.0043765070057147e-04
25 -4.2630775773741026e-04 -1.0147681961126794e-03 -3.0043765507546812e-04
32 -4.2630775814813190e-04 -1.0147681966370945e-03 -3.0043765385424931e-04
2 -4.2630775778757949e-04 -1.0147681961767323e-03 -3.0043765492628266e-04
68 -4.2630775830848112e-04 -1.0147681968418224e-03 -3.0043765337758952e-04
27 -4.2630775808573374e-04 -1.0147681965573759e-03 -3.0043765403989453e-04
62 -4.2630775805668769e-04 -1.0147681965202229e-03 -3.0043765412621660e-04
39 -4.2630775785398639e-04 -1.0147681962615119e-03 -3.0043765472889352e-04