LAMMPS data file via write_data, version 30 Jul 2016, timestep = 100400000

644 atoms
2 atom types

0.0000000000000000e+00 2.0000000000000000e+01 xlo xhi
0.0000000000000000e+00 2.0000000000000000e+01 ylo yhi
0.0000000000000000e+00 2.0000000000000000e+01 zlo zhi

Masses

1 4.31
2 3.896

Atoms # meso-molecular

243 0 1 1.9999881257827696e+00 -1.2682807192456912e+02 1.0000000000000000e+00 6.6623640236986281e+00 9.1608765896518971e+00 2.2813580275462808e+00 
227 0 1 1.9999909844896979e+00 -8.2101871300599441e+01 1.0000000000000000e+00 6.6491596211042321e+00 8.8891090307619631e+00 2.2595533408590973e+00 
491 0 1 2.0000232473904433e+00 -1.3800861014469521e+02 1.0000000000000000e+00 5.4052134624765618e+00 6.5118692499412969e+00 4.4146884974018965e+00 
389 0 1 2.0000232478356139e+00 -8.3997565772507215e+01 1.0000000000000000e+00 5.4052213207684439e+00 6.5118764326901735e+00 4.4146734967110497e+00 
623 0 1 2.0000232474105979e+00 -2.2094893522351850e+02 1.0000000000000000e+00 5.4052135827149819e+00 6.5118695920104894e+00 4.4146880023194193e+00 
493 0 1 2.0000232473977220e+00 -9.8607922126562869e+01 1.0000000000000000e+00 5.4052133850337967e+00 6.5118693836498069e+00 4.4146884113359572e+00 
356 0 1 2.0000232474010518e+00 -8.7177501646691368e+01 1.0000000000000000e+00 5.4052134396239868e+00 6.5118694360037113e+00 4.4146883043162806e+00 
44 0 1 2.0000232473870665e+00 -1.4296696266270988e+02 1.0000000000000000e+00 5.4052132582029460e+00 6.5118692074859705e+00 4.4146887223485738e+00 
88 0 1 2.0000232474299415e+00 -1.2807131196649021e+02 1.0000000000000000e+00 5.4052138386593072e+00 6.5118699108290787e+00 4.4146874166526677e+00 
606 0 1 2.0000232474471251e+00 -1.3058577410254279e+02 1.0000000000000000e+00 5.4052140545882734e+00 6.5118701970778101e+00 4.4146869027922930e+00 
353 0 1 2.0000232474977633e+00 -8.1128361529004437e+01 1.0000000000000000e+00 5.4052146094692191e+00 6.5118710411351026e+00 4.4146854582410171e+00 
60 0 1 2.0000232474878255e+00 -1.3867507346922898e+02 1.0000000000000000e+00 5.4052144709939007e+00 6.5118708797047518e+00 4.4146857624524891e+00 
164 0 1 2.0000232472998589e+00 -1.6547328377613889e+02 1.0000000000000000e+00 5.4052101938429065e+00 6.5118679202394105e+00 4.4146928407601287e+00 
9 0 1 1.9999824483421245e+00 -1.5526218077761817e+02 1.0000000000000000e+00 5.4397802701629780e+00 6.9579930743390044e+00 5.9140639238467845e+00 
374 0 1 2.0000208643954243e+00 -8.9254888486138100e+01 1.0000000000000000e+00 5.6526981492325064e+00 8.5178761627809259e+00 5.0974582102897505e+00 
419 0 1 2.0000114011357581e+00 -1.0151328483697715e+02 1.0000000000000000e+00 5.2130152200183613e+00 7.5127176982943649e+00 4.8710103136874086e+00 
180 0 1 2.0000236589941291e+00 -7.8354052656533000e+01 1.0000000000000000e+00 5.5521938609726709e+00 8.3178414851534441e+00 5.1519131841869790e+00 
552 0 1 1.9999950082212237e+00 -1.1245375219688346e+02 1.0000000000000000e+00 5.4663602056513616e+00 9.0281575705406460e+00 5.8534271561798130e+00 
63 0 1 1.9999866128840227e+00 -1.5817794114913931e+02 1.0000000000000000e+00 6.0199018208572452e+00 5.2863349094397885e+00 7.5735787490725928e+00 
317 0 1 1.9999882950962711e+00 -1.1988089020327941e+02 1.0000000000000000e+00 6.0764981587597573e+00 5.1943843741406166e+00 7.5723820984125956e+00 
226 0 1 1.9999863738738926e+00 -8.2835323813949344e+01 1.0000000000000000e+00 6.0131307724295127e+00 5.3002217988185718e+00 7.5733330253766047e+00 
401 0 1 1.9999866195926685e+00 -1.5093192799382501e+02 1.0000000000000000e+00 6.0150657583143916e+00 5.2872843030164969e+00 7.5786537461404135e+00 
294 0 1 1.9999864133469019e+00 -1.0545878795284918e+02 1.0000000000000000e+00 6.0144512735237807e+00 5.2978240610330385e+00 7.5731703873759582e+00 
79 0 1 2.0000214200578146e+00 -1.8422897426342635e+02 1.0000000000000000e+00 6.5531886175110721e+00 4.4247119928445597e+00 9.0927913620211616e+00 
481 0 1 2.0000186847787673e+00 -1.2068374045111793e+02 1.0000000000000000e+00 6.2040282089976602e+00 4.5489656649446877e+00 8.7664673898992920e+00 
34 0 1 1.9999866513166973e+00 -1.3305418092624086e+02 1.0000000000000000e+00 6.0185041589093276e+00 5.2847644876244697e+00 7.5761360400742053e+00 
601 0 1 1.9999838310689910e+00 -1.4077338919885804e+02 1.0000000000000000e+00 5.9550199517257285e+00 5.4905504326497123e+00 7.5570840491504958e+00 
538 0 1 1.9999779688925627e+00 -1.0221155239380360e+02 1.0000000000000000e+00 6.0096104395726533e+00 6.4564844398053527e+00 7.8431002448279621e+00 
479 0 1 2.0000213871479677e+00 -1.1121707040340848e+02 1.0000000000000000e+00 6.5575821449561520e+00 4.4236850697652477e+00 9.0959405553856545e+00 
418 0 1 2.0000213875611532e+00 -8.7573193221483550e+01 1.0000000000000000e+00 6.5575305506629142e+00 4.4236931327590732e+00 9.0958928021194811e+00 
40 0 1 2.0000213875569943e+00 -1.3654160049740244e+02 1.0000000000000000e+00 6.5575357560219230e+00 4.4236835965870833e+00 9.0958735098037824e+00 
324 0 1 2.0000213873728643e+00 -1.9551568160515254e+02 1.0000000000000000e+00 6.5575620563238530e+00 4.4236733152604160e+00 9.0958807943307214e+00 
239 0 1 2.0000213906934960e+00 -1.6049785642456075e+02 1.0000000000000000e+00 6.5571859049749355e+00 4.4236575363648702e+00 9.0953262013316802e+00 
393 0 1 1.9999789089221540e+00 -1.5726583861970403e+02 1.0000000000000000e+00 6.1202486171458785e+00 5.5478914190587316e+00 7.3165347179309723e+00 
523 0 1 1.9999765656763420e+00 -8.3360848868239103e+01 1.0000000000000000e+00 6.0379848331478989e+00 6.5082655344362044e+00 7.9142435381474758e+00 
23 0 1 1.9999996927726484e+00 -1.2669017298091097e+02 1.0000000000000000e+00 3.5925829213156888e+00 9.9623709373543416e+00 7.4313699629864578e+00 
76 0 1 1.9999984240612714e+00 -1.5899043620252567e+02 1.0000000000000000e+00 3.6890744445836736e+00 9.4721378618889869e+00 7.3840638104901499e+00 
338 0 1 2.0000031571893850e+00 -1.0649996464609934e+02 1.0000000000000000e+00 4.9153941173869775e+00 8.5148516157295049e+00 7.3768043469247147e+00 
215 0 1 1.9999983940181196e+00 -7.7012497525208246e+01 1.0000000000000000e+00 3.7681508362208032e+00 9.3286210076633669e+00 7.3813485528161351e+00 
113 0 1 2.0000031903914377e+00 -1.7095994999159700e+02 1.0000000000000000e+00 5.2118740620707964e+00 7.5994950623660378e+00 9.0846605986132793e+00 
392 0 1 2.0001352508434520e+00 -1.5973384525953509e+02 1.0000000000000000e+00 5.8378277975864226e+00 8.4105329996211928e+00 6.8515018962912020e+00 
234 0 1 1.9999984647676863e+00 -9.5071598351461688e+01 1.0000000000000000e+00 3.6839637613616656e+00 9.4832036042462349e+00 7.3818778806328202e+00 
452 0 1 2.0000013382112893e+00 -7.6683589734451033e+01 1.0000000000000000e+00 4.9555292406757854e+00 8.5745846620394204e+00 7.0867110778732822e+00 
204 0 1 1.9999683261915995e+00 -1.5897348768363537e+02 1.0000000000000000e+00 5.1286756927009396e+00 9.0083146983114695e+00 8.5732648414746322e+00 
258 0 1 2.0009441257748835e+00 -1.0416334550865369e+02 1.0000000000000000e+00 6.5023645301737805e+00 7.9275978908011506e+00 7.5227444167421131e+00 
122 0 1 1.9990443852346780e+00 -8.8257622457292200e+01 1.0000000000000000e+00 6.1497724222754373e+00 9.1772328339295424e+00 8.8801343945470421e+00 
7 0 1 2.0009894753438560e+00 -2.4398569703183887e+02 1.0000000000000000e+00 5.8248273006186384e+00 8.7824004778455027e+00 8.8604894154900027e+00 
380 0 1 2.0000016419181095e+00 -7.9130024716584813e+01 1.0000000000000000e+00 3.9992246655458272e+00 9.0973504722139378e+00 7.1444866501722233e+00 
314 0 1 1.9996932754273589e+00 -1.0708959497360726e+02 1.0000000000000000e+00 5.6557188474585400e+00 8.3104215871330407e+00 8.6503829065587805e+00 
111 0 1 2.0000021221122748e+00 -1.0302541718350281e+02 1.0000000000000000e+00 5.2776971359122680e+00 7.5696586589837862e+00 9.0693182954204072e+00 
304 0 1 1.9999985317816271e+00 -7.2193863000988216e+01 1.0000000000000000e+00 3.6755207274276032e+00 9.5022112821941516e+00 7.3786730530330660e+00 
411 0 1 1.9999985166300176e+00 -1.1432280616907711e+02 1.0000000000000000e+00 3.6782708154707260e+00 9.4958974383810677e+00 7.3790522147437247e+00 
429 0 1 1.9999984445183143e+00 -9.2733611586278172e+01 1.0000000000000000e+00 3.6835642230163113e+00 9.4841555529838129e+00 7.3838527928081223e+00 
321 0 1 1.9987632705771841e+00 -1.2177355141465419e+02 1.0000000000000000e+00 6.5848186440508885e+00 8.1157642833691916e+00 6.8301249692004529e+00 
201 0 1 2.0000037755609470e+00 -8.0825777533979405e+01 1.0000000000000000e+00 5.4165227298315255e+00 6.8982730180151455e+00 1.0271083503117447e+01 
59 0 1 1.9999814974383552e+00 -1.2101433210874862e+02 1.0000000000000000e+00 4.1732534615271293e+00 7.4090419470428239e+00 1.0627836385750097e+01 
542 0 1 1.9999814974228625e+00 -8.2519384868397324e+01 1.0000000000000000e+00 4.1732572023809373e+00 7.4090389388741347e+00 1.0627851069533335e+01 
583 0 1 1.9999814974447225e+00 -1.3846205020692418e+02 1.0000000000000000e+00 4.1732514914065115e+00 7.4090427729527724e+00 1.0627827410300920e+01 
451 0 1 1.9999814974396186e+00 -7.8802904954307436e+01 1.0000000000000000e+00 4.1732528950176278e+00 7.4090419637474074e+00 1.0627833443469040e+01 
2 0 1 2.0000151358759166e+00 -2.2037094575735557e+02 1.0000000000000000e+00 6.1109545271912999e+00 8.1325515443869030e+00 1.1022852871545481e+01 
244 0 1 2.0000151358848615e+00 -1.6429709423810667e+02 1.0000000000000000e+00 6.1109536652254182e+00 8.1325514405182755e+00 1.1022853358472622e+01 
241 0 1 2.0000151343207224e+00 -1.4858275648711154e+02 1.0000000000000000e+00 6.1110961433791289e+00 8.1325670955615070e+00 1.1022772997493519e+01 
230 0 1 1.9999814972552428e+00 -1.0279179046177227e+02 1.0000000000000000e+00 4.1732995568235163e+00 7.4090054935679497e+00 1.0628018201483973e+01 
187 0 1 2.0000151351772004e+00 -7.2700887809878012e+01 1.0000000000000000e+00 6.1110186241076923e+00 8.1325589470394952e+00 1.1022816689672668e+01 
74 0 1 2.0000151348590567e+00 -1.4086768880002381e+02 1.0000000000000000e+00 6.1110466228964428e+00 8.1325613036869751e+00 1.1022800959935282e+01 
90 0 1 2.0000151338698640e+00 -1.4561790245700377e+02 1.0000000000000000e+00 6.1111368545707307e+00 8.1325713135605699e+00 1.1022750055334516e+01 
252 0 1 1.9999814974253312e+00 -1.4083273871482939e+02 1.0000000000000000e+00 4.1732566359644796e+00 7.4090394025205688e+00 1.0627848859691616e+01 
68 0 1 2.0000151766421959e+00 -1.1044932653840512e+02 1.0000000000000000e+00 6.1069862942258055e+00 8.1319315729837065e+00 1.1025102442166366e+01 
439 0 1 1.9999814974263184e+00 -8.1858028818715269e+01 1.0000000000000000e+00 4.1732562393389214e+00 7.4090395231847266e+00 1.0627846978321426e+01 
622 0 1 1.9999814974263050e+00 -1.4299319093803635e+02 1.0000000000000000e+00 4.1732563357231447e+00 7.4090395393654722e+00 1.0627847510002930e+01 
92 0 1 1.9999814974651589e+00 -1.4161188587964654e+02 1.0000000000000000e+00 4.1732459169164446e+00 7.4090461402226842e+00 1.0627803697844065e+01 
560 0 1 2.0000151322821154e+00 -1.3765878472146727e+02 1.0000000000000000e+00 6.1112828165819257e+00 8.1325883893759645e+00 1.1022667623592191e+01 
248 0 1 1.9999814976944374e+00 -1.0453406578074333e+02 1.0000000000000000e+00 4.1731952686349221e+00 7.4091016491388766e+00 1.0627628893537986e+01 
525 0 1 2.0000036858950021e+00 -1.7301807569088908e+02 1.0000000000000000e+00 5.9542481211716423e+00 1.2885552947189330e+01 2.8482715147303308e+00 
445 0 1 2.0000107055815759e+00 -7.1464890366454142e+01 1.0000000000000000e+00 6.1773057525801081e+00 1.3693125007963008e+01 2.4137663072979918e+00 
377 0 1 2.0000106584127817e+00 -9.3914533643178132e+01 1.0000000000000000e+00 6.1783431054681950e+00 1.3692087946707945e+01 2.4105321099133534e+00 
423 0 1 2.0000109129097861e+00 -7.4395429582554527e+01 1.0000000000000000e+00 6.1694127438368653e+00 1.3693826124060589e+01 2.4283841021440868e+00 
405 0 1 2.0000109170065725e+00 -1.5893598002642736e+02 1.0000000000000000e+00 6.1692678262829013e+00 1.3693855429648689e+01 2.4286843181018201e+00 
362 0 1 2.0000109394215606e+00 -7.2632739468850545e+01 1.0000000000000000e+00 6.1689145036109077e+00 1.3694532661819688e+01 2.4303384431129054e+00 
312 0 1 2.0000109394808905e+00 -8.9161957864796378e+01 1.0000000000000000e+00 6.1679976904694662e+00 1.3693465982400511e+01 2.4303448627547564e+00 
320 0 1 2.0000109541588564e+00 -1.1021044954136229e+02 1.0000000000000000e+00 6.1685565712389829e+00 1.3694834336118676e+01 2.4314352313625256e+00 
535 0 1 2.0000109591372692e+00 -9.9666603418490496e+01 1.0000000000000000e+00 6.1686274296253183e+00 1.3695160601483700e+01 2.4318082601282081e+00 
399 0 1 1.9999910437232671e+00 -1.2137797065436880e+02 1.0000000000000000e+00 4.7684136243455066e+00 1.0565509929470284e+01 4.4689036096721857e+00 
30 0 1 1.9999910437463140e+00 -1.5038136130131480e+02 1.0000000000000000e+00 4.7684127139308625e+00 1.0565507726923755e+01 4.4689047731556650e+00 
529 0 1 1.9999910436845967e+00 -9.4618565061315863e+01 1.0000000000000000e+00 4.7684151173967395e+00 1.0565513382522397e+01 4.4689016897416627e+00 
509 0 1 1.9999910437463115e+00 -8.4476434279737191e+01 1.0000000000000000e+00 4.7684127152217410e+00 1.0565507721326917e+01 4.4689047708549854e+00 
516 0 1 1.9999910437488975e+00 -9.2327010131004911e+01 1.0000000000000000e+00 4.7684126100591664e+00 1.0565507481661035e+01 4.4689049063516499e+00 
156 0 1 1.9999910437498007e+00 -1.4414158856752536e+02 1.0000000000000000e+00 4.7684125740795169e+00 1.0565507414015803e+01 4.4689049537813341e+00 
599 0 1 1.9999910436869031e+00 -1.3704227165240698e+02 1.0000000000000000e+00 4.7684150314092166e+00 1.0565513197966418e+01 4.4689018013821133e+00 
325 0 1 1.9999910437573052e+00 -1.7867603792807654e+02 1.0000000000000000e+00 4.7684122866941294e+00 1.0565506726361516e+01 4.4689053216236347e+00 
427 0 1 1.9999910436650896e+00 -1.1108339420649902e+02 1.0000000000000000e+00 4.7684158944979060e+00 1.0565515356833275e+01 4.4689007036968205e+00 
91 0 1 1.9999910437843360e+00 -1.6010075355546499e+02 1.0000000000000000e+00 4.7684112115894317e+00 1.0565503983053658e+01 4.4689066849716470e+00 
477 0 1 1.9999530745912648e+00 -1.8219518536989241e+02 1.0000000000000000e+00 6.1315639420081540e+00 1.1437416480657454e+01 4.0503361927421890e+00 
637 0 1 1.9999886823841400e+00 -2.2257839425403745e+02 1.0000000000000000e+00 5.2422876952906448e+00 1.1458710603556952e+01 4.8552988842044904e+00 
276 0 1 1.9999891488703023e+00 -7.6438161176906334e+01 1.0000000000000000e+00 5.3480872270721926e+00 1.1464596156685239e+01 4.6230132615755863e+00 
255 0 1 1.9997577056258804e+00 -8.6044601878754719e+01 1.0000000000000000e+00 5.7915783883510716e+00 1.1736012688660136e+01 6.5312735394237675e+00 
183 0 1 1.9999995473631458e+00 -9.2286059036926858e+01 1.0000000000000000e+00 5.0285864827691462e+00 1.2849799063433263e+01 6.6462120373219031e+00 
129 0 1 2.0000068713545947e+00 -9.2808452983088188e+01 1.0000000000000000e+00 6.4127027002328916e+00 1.3613622826414176e+01 3.9500905012331735e+00 
55 0 1 1.9999981195837684e+00 -1.4425929198348953e+02 1.0000000000000000e+00 5.7360858947662816e+00 1.4226817736999358e+01 5.7678354410744062e+00 
472 0 1 1.9999980577458381e+00 -7.9966472724909508e+01 1.0000000000000000e+00 5.8108277854173425e+00 1.4262243976528683e+01 5.7977678436693632e+00 
10 0 1 1.9999981241557143e+00 -1.3439544538190111e+02 1.0000000000000000e+00 5.7371963378403725e+00 1.4242296931132540e+01 5.7789832245361810e+00 
310 0 1 1.9999981291643221e+00 -9.9757499452756988e+01 1.0000000000000000e+00 5.7332053985940039e+00 1.4242992209338551e+01 5.7794178829693790e+00 
27 0 1 2.0000087229378343e+00 -1.3610592675528918e+02 1.0000000000000000e+00 6.4703881209892264e+00 1.3586771260113608e+01 4.0743615279802352e+00 
224 0 1 2.0000088965209413e+00 -1.0616110701934628e+02 1.0000000000000000e+00 6.4707659620742595e+00 1.3582675087312275e+01 4.0820709375877566e+00 
127 0 1 2.0000010294615018e+00 -1.7238800247146472e+02 1.0000000000000000e+00 6.3335484067971759e+00 1.4522459844594966e+01 6.3131922470405986e+00 
501 0 1 2.0000217040161896e+00 -1.0041637759001121e+02 1.0000000000000000e+00 6.5271034945946775e+00 1.3436839468190845e+01 4.3940323084043200e+00 
165 0 1 2.0000003515271776e+00 -1.8577048469172749e+02 1.0000000000000000e+00 3.6234833054070572e+00 1.0159897516094272e+01 7.4571892835233653e+00 
154 0 1 2.0000193723673245e+00 -1.9757734196881302e+02 1.0000000000000000e+00 5.1851609477807230e+00 1.1556348834849015e+01 7.0823762708386093e+00 
28 0 1 2.0000070487183295e+00 -2.1341787577248104e+02 1.0000000000000000e+00 4.4953512823640143e+00 1.0911634774860294e+01 7.9526905515890451e+00 
486 0 1 2.0000385855099645e+00 -1.7980770700281985e+02 1.0000000000000000e+00 5.9544280987401823e+00 1.1427154081588196e+01 7.4958582748536626e+00 
31 0 1 2.0000071351161135e+00 -1.4025067628278217e+02 1.0000000000000000e+00 4.1856565872761182e+00 1.0984991430927645e+01 7.4306087289965541e+00 
600 0 1 2.0000443178543854e+00 -1.4273358150013203e+02 1.0000000000000000e+00 5.9036084595399636e+00 1.1432628924516424e+01 7.5032073609614773e+00 
170 0 1 2.0000487005273486e+00 -1.2091266815654691e+02 1.0000000000000000e+00 5.9355042952495589e+00 1.1424302592443903e+01 7.5335849372119466e+00 
263 0 1 2.0000480897441939e+00 -6.8266544304730104e+01 1.0000000000000000e+00 5.9041386011226065e+00 1.1425961007444565e+01 7.5457346333111541e+00 
274 0 1 2.0000070930268832e+00 -1.5627652555978869e+02 1.0000000000000000e+00 4.1850784260017360e+00 1.0983412797287309e+01 7.4340425413667406e+00 
408 0 1 2.0000065927141426e+00 -1.2772235116202150e+02 1.0000000000000000e+00 4.2386922725726937e+00 1.0959648769234294e+01 7.5978735810895346e+00 
137 0 1 2.0000040919990805e+00 -9.7240386355594509e+01 1.0000000000000000e+00 4.0359564194862561e+00 1.0811386366649733e+01 7.5397379725977629e+00 
482 0 1 1.9999862934494206e+00 -1.1706248917867245e+02 1.0000000000000000e+00 5.8841208345127320e+00 1.4682033692217175e+01 8.3756013223634493e+00 
528 0 1 2.0000106983550494e+00 -8.5222608852046434e+01 1.0000000000000000e+00 4.4308372652753034e+00 1.4229235560188453e+01 6.6667992689946960e+00 
177 0 1 2.0000106986117467e+00 -1.1153254787295664e+02 1.0000000000000000e+00 4.4305316696808923e+00 1.4228669426966730e+01 6.6677970819409245e+00 
240 0 1 1.9999862938598709e+00 -1.4631707617261043e+02 1.0000000000000000e+00 5.8840980197612627e+00 1.4682054228089520e+01 8.3755747991413809e+00 
269 0 1 1.9999862926366079e+00 -8.8281772386075545e+01 1.0000000000000000e+00 5.8841680523754905e+00 1.4682001572136389e+01 8.3756472773394215e+00 
511 0 1 1.9999863051898548e+00 -1.6879228976455255e+02 1.0000000000000000e+00 5.8834151544788167e+00 1.4682400497614253e+01 8.3750116654274098e+00 
492 0 1 2.0000107013960333e+00 -1.2754376525910710e+02 1.0000000000000000e+00 4.4264472151080660e+00 1.4219774263997504e+01 6.6810212584705546e+00 
65 0 1 2.0000107013664059e+00 -1.2924135559160220e+02 1.0000000000000000e+00 4.4264438524560683e+00 1.4219779443504866e+01 6.6810413585735473e+00 
526 0 1 2.0000107014903210e+00 -1.7317534613410126e+02 1.0000000000000000e+00 4.4264314821934665e+00 1.4219697702914138e+01 6.6810464198701442e+00 
121 0 1 2.0000107016697939e+00 -9.8207509159764214e+01 1.0000000000000000e+00 4.4264073171753138e+00 1.4219564705929903e+01 6.6810746316551972e+00 
87 0 1 2.0000107017380437e+00 -1.1410240704711721e+02 1.0000000000000000e+00 4.4263868627960825e+00 1.4219488076457376e+01 6.6811231211235356e+00 
293 0 1 2.0000107013565365e+00 -7.6027262738726549e+01 1.0000000000000000e+00 4.4264275314475805e+00 1.4219746433772197e+01 6.6810991839571692e+00 
153 0 1 1.9999862932669816e+00 -1.5177265994268924e+02 1.0000000000000000e+00 5.8841313613403976e+00 1.4682026188157256e+01 8.3756118632887198e+00 
441 0 1 1.9999862927598882e+00 -1.1301247053319945e+02 1.0000000000000000e+00 5.8841598810807136e+00 1.4682002204623631e+01 8.3756435641229015e+00 
296 0 1 2.0000104007118571e+00 -7.2129856459614786e+01 1.0000000000000000e+00 4.4023826364610796e+00 1.4130435062496574e+01 6.8199553530602914e+00 
344 0 1 1.9999862934270030e+00 -9.8953423512476377e+01 1.0000000000000000e+00 5.8841225346399737e+00 1.4682034336854594e+01 8.3756014269026320e+00 
246 0 1 1.9999862937801840e+00 -1.7666959825371666e+02 1.0000000000000000e+00 5.8841024279972949e+00 1.4682050105520270e+01 8.3755800571395902e+00 
39 0 1 1.9999935849732524e+00 -1.3509305172535016e+02 1.0000000000000000e+00 5.8897859351708064e+00 1.1014932777696950e+01 1.0290441794778960e+01 
569 0 1 1.9999942632259364e+00 -1.8662480327830630e+02 1.0000000000000000e+00 5.8873888907935426e+00 1.1028022077909283e+01 1.0272974647356669e+01 
117 0 1 1.9999941782780277e+00 -9.3524326571807691e+01 1.0000000000000000e+00 5.8872977010830487e+00 1.1025141969296593e+01 1.0274537213175511e+01 
618 0 1 1.9999942269672579e+00 -1.3021066203329624e+02 1.0000000000000000e+00 5.8873696354185823e+00 1.1026869571038738e+01 1.0273673007362280e+01 
198 0 1 1.9999942040224146e+00 -8.4659241121333892e+01 1.0000000000000000e+00 5.8873362345110438e+00 1.1026059937440770e+01 1.0274081071761724e+01 
549 0 1 1.9999941397727017e+00 -9.3847768584039684e+01 1.0000000000000000e+00 5.8872607059389050e+00 1.1023831154539520e+01 1.0275252200672114e+01 
334 0 1 1.9999998436203594e+00 -9.5136494273868308e+01 1.0000000000000000e+00 6.4430477534624702e+00 1.1446533032457314e+01 1.0711672789639000e+01 
298 0 1 2.0000000076183517e+00 -8.4368884518634388e+01 1.0000000000000000e+00 6.4483060882241796e+00 1.1448574184616964e+01 1.0712451617636894e+01 
282 0 1 2.0000002611636285e+00 -7.3058602046125174e+01 1.0000000000000000e+00 6.4563117824143221e+00 1.1451796424076464e+01 1.0713463194881065e+01 
216 0 1 2.0000006607050609e+00 -9.8569046681093170e+01 1.0000000000000000e+00 6.4684328205059591e+00 1.1457368848017323e+01 1.0714227165443264e+01 
586 0 1 2.0000006760005453e+00 -1.2255790449505942e+02 1.0000000000000000e+00 6.4688890340066294e+00 1.1457588490274267e+01 1.0714243356587673e+01 
571 0 1 2.0000006982356227e+00 -1.9225035537613650e+02 1.0000000000000000e+00 6.4695525586308644e+00 1.1457906303818284e+01 1.0714267792517893e+01 
119 0 1 2.0000007000694597e+00 -1.1580013813257456e+02 1.0000000000000000e+00 6.4696058700701542e+00 1.1457934810707629e+01 1.0714267170211494e+01 
461 0 1 2.0000074860998773e+00 -9.3018646717089581e+01 1.0000000000000000e+00 9.1023003838702952e+00 5.4370091794266715e+00 3.2228762017242727e+00 
315 0 1 2.0000075144209672e+00 -1.6760111478561922e+02 1.0000000000000000e+00 9.1208124314925332e+00 5.6249505793072450e+00 3.1970631061806682e+00 
458 0 1 2.0000004168651930e+00 -7.2986960276369373e+01 1.0000000000000000e+00 7.0284313901451352e+00 9.0090550235731541e+00 1.1969080951022133e+00 
286 0 1 2.0000061207146271e+00 -8.8721711379451236e+01 1.0000000000000000e+00 7.5074827759466851e+00 7.9831148167409127e+00 2.3148930008133823e+00 
222 0 1 2.0000004168644292e+00 -7.3469831780017927e+01 1.0000000000000000e+00 7.0284319650785365e+00 9.0090547968098864e+00 1.1969077823081635e+00 
71 0 1 2.0000087189934628e+00 -2.2486550460808880e+02 1.0000000000000000e+00 7.5946927568428819e+00 7.9547538420144184e+00 2.5054602618001676e+00 
544 0 1 2.0000004168643382e+00 -8.1101377305076468e+01 1.0000000000000000e+00 7.0284316248017484e+00 9.0090549516794827e+00 1.1969079702915588e+00 
217 0 1 2.0000004168643821e+00 -1.6575890305073719e+02 1.0000000000000000e+00 7.0284313650154013e+00 9.0090550728289163e+00 1.1969081142117914e+00 
573 0 1 2.0000004168685379e+00 -1.7446403643158763e+02 1.0000000000000000e+00 7.0284328383524990e+00 9.0090541287773060e+00 1.1969072624763930e+00 
69 0 1 2.0000074849964018e+00 -1.4134605438218091e+02 1.0000000000000000e+00 7.5531292418959710e+00 7.9655135783562772e+00 2.4269696151199658e+00 
162 0 1 2.0000004168630223e+00 -2.3561233554972267e+02 1.0000000000000000e+00 7.0284319822871613e+00 9.0090548887112316e+00 1.1969077865866296e+00 
202 0 1 2.0000008397569684e+00 -9.6901348606704758e+01 1.0000000000000000e+00 7.9790417313690316e+00 8.3076302628822685e+00 1.7795849581322245e+00 
305 0 1 2.0000379896629781e+00 -6.3286531328626850e+01 1.0000000000000000e+00 7.7448721512876251e+00 7.9336656666530381e+00 2.9762871095655492e+00 
371 0 1 2.0000004168630130e+00 -1.0208993058309029e+02 1.0000000000000000e+00 7.0284314667374019e+00 9.0090551104819081e+00 1.1969080696193362e+00 
346 0 1 2.0000004168596095e+00 -7.2021361644167300e+01 1.0000000000000000e+00 7.0284293235536683e+00 9.0090563160133517e+00 1.1969092854209382e+00 
96 0 1 1.9999832657528280e+00 -1.0628686766413951e+02 1.0000000000000000e+00 8.6756192824790670e+00 9.8635166704414345e+00 2.0916633348006917e+00 
205 0 1 2.0000056932220813e+00 -1.0429984382847879e+02 1.0000000000000000e+00 6.8896228677755840e+00 8.4690737260967861e+00 1.5177661366023785e+00 
253 0 1 1.9999954939234137e+00 -1.2209529752542218e+02 1.0000000000000000e+00 1.0020318945764119e+01 9.9833568149639031e+00 1.8372369212857398e+00 
188 0 1 1.9999970396204654e+00 -9.0122599442341965e+01 1.0000000000000000e+00 1.0947586742473685e+01 9.6465557726308759e+00 1.7165558420056715e+00 
395 0 1 1.9999970396243223e+00 -8.5564591282342519e+01 1.0000000000000000e+00 1.0947586928016783e+01 9.6465558049098004e+00 1.7165559264348726e+00 
428 0 1 1.9999970396260272e+00 -1.0999867419928940e+02 1.0000000000000000e+00 1.0947587020826210e+01 9.6465558739386079e+00 1.7165559642860237e+00 
11 0 1 1.9999970396341791e+00 -1.4380741673334484e+02 1.0000000000000000e+00 1.0947587309103728e+01 9.6465557722484192e+00 1.7165561080447584e+00 
149 0 1 1.9999970396302917e+00 -1.2724259239519000e+02 1.0000000000000000e+00 1.0947587187233969e+01 9.6465558373577043e+00 1.7165560454374853e+00 
448 0 1 1.9999970396313529e+00 -1.6243837055246178e+02 1.0000000000000000e+00 1.0947587223399141e+01 9.6465558177157593e+00 1.7165560640427302e+00 
444 0 1 1.9999970396277056e+00 -7.1941429745032153e+01 1.0000000000000000e+00 1.0947587065837052e+01 9.6465558103036084e+00 1.7165559906886281e+00 
582 0 1 1.9999970396310995e+00 -2.0352872087234564e+02 1.0000000000000000e+00 1.0947587199557404e+01 9.6465557984566104e+00 1.7165560544459628e+00 
358 0 1 1.9999970396300872e+00 -1.0971992600369276e+02 1.0000000000000000e+00 1.0947587169431731e+01 9.6465558015679260e+00 1.7165560400450355e+00 
168 0 1 1.9999970396176112e+00 -2.1850168996729394e+02 1.0000000000000000e+00 1.0947586663588467e+01 9.6465558410741092e+00 1.7165557993016451e+00 
86 0 1 2.0000051488196045e+00 -1.5675464794884465e+02 1.0000000000000000e+00 9.2821773481650744e+00 6.3979289519827782e+00 3.3693028974387262e+00 
564 0 1 2.0000050244417800e+00 -1.5992324175359232e+02 1.0000000000000000e+00 9.2747923837923345e+00 6.4155839568501225e+00 3.3714647433386058e+00 
77 0 1 2.0000080722363487e+00 -1.7740584712335399e+02 1.0000000000000000e+00 9.0099548404300709e+00 4.9262442929542027e+00 3.4472372841358374e+00 
85 0 1 2.0000077582275750e+00 -1.9606559328548943e+02 1.0000000000000000e+00 8.9402467833722667e+00 4.7463959373513696e+00 3.6148620886060345e+00 
318 0 1 2.0000060936633477e+00 -1.0715569599250448e+02 1.0000000000000000e+00 8.8522550943295997e+00 4.5864117914642062e+00 3.8636853432204146e+00 
585 0 1 2.0000062409370125e+00 -1.3123113749987488e+02 1.0000000000000000e+00 8.8578860267726665e+00 4.5943769187454606e+00 3.8469922575993341e+00 
577 0 1 2.0000059891036073e+00 -1.3892490206854080e+02 1.0000000000000000e+00 8.8483885638410342e+00 4.5810787173328276e+00 3.8752693610801123e+00 
106 0 1 1.9999890589025098e+00 -1.1938123853576239e+02 1.0000000000000000e+00 8.6579520032682797e+00 4.6270650609657480e+00 5.2087216908240794e+00 
277 0 1 1.9999881536585640e+00 -8.4048130539400944e+01 1.0000000000000000e+00 8.6820480197915906e+00 4.6695446231825892e+00 5.3131431295577043e+00 
349 0 1 2.0000059192240940e+00 -8.8775410010677717e+01 1.0000000000000000e+00 8.8458515323732030e+00 4.5776828617048988e+00 3.8828352333877580e+00 
496 0 1 2.0000053289694746e+00 -1.2928887449556123e+02 1.0000000000000000e+00 8.8266301241716221e+00 4.5534133996296733e+00 3.9417484030829044e+00 
190 0 1 1.9999921631124928e+00 -1.6701827465764663e+02 1.0000000000000000e+00 8.6222438268283135e+00 4.5420621507637184e+00 4.9293299279007803e+00 
627 0 1 1.9999867243663532e+00 -1.2878665300727545e+02 1.0000000000000000e+00 8.7249629407476359e+00 4.7692565162227156e+00 5.5078429641140918e+00 
625 0 1 1.9999870355787519e+00 -1.4173611107616077e+02 1.0000000000000000e+00 8.7503022107421113e+00 4.7697624029795396e+00 5.5087971820494763e+00 
135 0 1 1.9999989954150192e+00 -8.9482690135580711e+01 1.0000000000000000e+00 8.7582743886749039e+00 5.5452446743579493e+00 6.4604633028942349e+00 
125 0 1 1.9999290179179976e+00 -1.1115239966042455e+02 1.0000000000000000e+00 7.6451053813705840e+00 6.6095462323234919e+00 4.5076579660053362e+00 
640 0 1 2.0000029956982077e+00 -1.6340290522686550e+02 1.0000000000000000e+00 9.7127920480640810e+00 6.0904244765365645e+00 3.7174212997614071e+00 
335 0 1 2.0000039057146006e+00 -1.0993956324696961e+02 1.0000000000000000e+00 8.7243512604050135e+00 5.6416133669999207e+00 6.5700987840959595e+00 
483 0 1 2.0000039187889609e+00 -1.3447224622837376e+02 1.0000000000000000e+00 8.7242674604327437e+00 5.6418019968803526e+00 6.5703211651713644e+00 
50 0 1 2.0000042449700972e+00 -1.6981916119062362e+02 1.0000000000000000e+00 8.7221893524444845e+00 5.6463907064752590e+00 6.5757501325089285e+00 
306 0 1 2.0000028888775123e+00 -7.3548607821570911e+01 1.0000000000000000e+00 9.7200572914269525e+00 6.0912040236296736e+00 3.7295054189639645e+00 
220 0 1 2.0000046033644492e+00 -7.0314161885093512e+01 1.0000000000000000e+00 8.7199368430767041e+00 5.6516797269391699e+00 6.5819479200754181e+00 
598 0 1 2.0000046204892596e+00 -1.3208184432800246e+02 1.0000000000000000e+00 8.7198285197199983e+00 5.6519452686470588e+00 6.5822570654501638e+00 
350 0 1 2.0000053992277045e+00 -1.5859598175776262e+02 1.0000000000000000e+00 8.7157494536952438e+00 5.6634679432351591e+00 6.5954007225822204e+00 
95 0 1 2.0000040108684298e+00 -1.0460620918306621e+02 1.0000000000000000e+00 1.2606879873300757e+01 6.1808043074642294e+00 4.9215545518437587e+00 