LAMMPS data file via write_data, version 30 Jul 2016, timestep = 50000000

1 atoms
2 atom types

0.0000000000000000e+00 2.0000000000000000e+01 xlo xhi
0.0000000000000000e+00 2.0000000000000000e+01 ylo yhi
0.0000000000000000e+00 2.0000000000000000e+01 zlo zhi

Masses

1 3.896
2 4.31

Atoms # meso-molecular

16 1 2 1.1605682584842913e+00 0.0000000000000000e+00 1.0000000000000000e+00 5.1100000000000003e+00 2.5400000000000000e+00 1.8449999999999999e+01 

Velocities

16 0.0000000000000000e+00 0.0000000000000000e+00 0.0000000000000000e+00
