LAMMPS data file via write_data, version 30 Jul 2016, timestep = 50400000

180 atoms
2 atom types

0.0000000000000000e+00 2.0000000000000000e+01 xlo xhi
0.0000000000000000e+00 2.0000000000000000e+01 ylo yhi
0.0000000000000000e+00 2.0000000000000000e+01 zlo zhi

Masses

1 3.896
2 4.31

Atoms # meso-molecular

141 1 2 1.0280000000000007e+00 -3.2274627559518098e+02 1.0000000000000000e+00 1.1486263412036675e+00 9.7632816366045567e+00 1.0768563528445496e+01 
110 1 2 1.0280000000000007e+00 -4.5458821477173524e+02 1.0000000000000000e+00 1.1486263412036675e+00 9.7632816366045567e+00 1.0768563528445496e+01 
176 1 2 1.0280000000000007e+00 -3.6301292027400979e+02 1.0000000000000000e+00 1.1486263412036675e+00 9.7632816366045567e+00 1.0768563528445496e+01 
145 1 2 1.0280000000000007e+00 -4.7338044177598601e+02 1.0000000000000000e+00 1.1486263412036675e+00 9.7632816366045567e+00 1.0768563528445496e+01 
109 1 2 1.0280000000000007e+00 -4.1716029031465052e+02 1.0000000000000000e+00 1.1486263412036675e+00 9.7632816366045567e+00 1.0768563528445496e+01 
140 1 2 1.0280000000000007e+00 -3.6554460709697128e+02 1.0000000000000000e+00 1.1486263412036675e+00 9.7632816366045567e+00 1.0768563528445496e+01 
147 1 2 1.0280000000000022e+00 -5.0808123471179380e+02 1.0000000000000000e+00 1.1486246677441603e+00 9.7632812971966274e+00 1.0768561777099382e+01 
152 1 2 1.0280000000000005e+00 -4.7141611710245672e+02 1.0000000000000000e+00 1.1486231750984244e+00 9.7632809369310927e+00 1.0768560284423867e+01 
146 1 2 1.0280000000000005e+00 -4.8961254065812852e+02 1.0000000000000000e+00 1.1486231750984244e+00 9.7632809369310927e+00 1.0768560284423867e+01 
153 1 2 1.0280000000000022e+00 -5.0914290649160080e+02 1.0000000000000000e+00 1.1485799614794991e+00 9.7631287756362930e+00 1.0768688160214774e+01 
28 1 2 1.0280000000000022e+00 -5.6621084607863929e+02 1.0000000000000000e+00 3.4805686489706583e-01 1.1997049774602813e+01 1.1764405789018630e+01 
22 1 2 1.0280000000000051e+00 -5.0956084721438162e+02 1.0000000000000000e+00 3.4805687470660035e-01 1.1997049773027223e+01 1.1764405780995773e+01 
16 1 2 1.0280000000000051e+00 -4.1960490055126695e+02 1.0000000000000000e+00 3.4805687470660035e-01 1.1997049773027223e+01 1.1764405780995773e+01 
51 1 2 1.0280000000000051e+00 -3.5336869015877915e+02 1.0000000000000000e+00 3.4805687470660035e-01 1.1997049773027223e+01 1.1764405780995773e+01 
15 1 2 1.0280000000000051e+00 -3.1674397820152751e+02 1.0000000000000000e+00 3.4805687470660035e-01 1.1997049773027223e+01 1.1764405780995773e+01 
21 1 2 1.0280000000000051e+00 -5.6145570733898489e+02 1.0000000000000000e+00 3.4805687470660035e-01 1.1997049773027223e+01 1.1764405780995773e+01 
57 1 2 1.0280000000000069e+00 -3.6647102675182202e+02 1.0000000000000000e+00 3.4805687412506814e-01 1.1997049772995899e+01 1.1764405782549186e+01 
27 1 2 1.0280000000000038e+00 -3.3668289466137423e+02 1.0000000000000000e+00 3.4805686466199737e-01 1.1997049774801155e+01 1.1764405787823144e+01 
65 1 2 1.0280000000000578e+00 -4.6716078377024127e+02 1.0000000000000000e+00 5.7140309138538301e+00 1.6974636411616476e+01 1.5134021395875397e+01 
72 1 2 1.0280000000000578e+00 -3.5076870340601613e+02 1.0000000000000000e+00 5.7140309138538301e+00 1.6974636411616476e+01 1.5134021395875397e+01 
36 1 2 1.0280000000000578e+00 -5.3532120002849490e+02 1.0000000000000000e+00 5.7140309138538301e+00 1.6974636411616476e+01 1.5134021395875397e+01 
29 1 2 1.0280000000000578e+00 -4.3785532555666248e+02 1.0000000000000000e+00 5.7140309138538301e+00 1.6974636411616476e+01 1.5134021395875397e+01 
35 1 2 1.0280000000000578e+00 -3.7935806946502930e+02 1.0000000000000000e+00 5.7140309138538301e+00 1.6974636411616476e+01 1.5134021395875397e+01 
70 1 2 1.0280000000000578e+00 -3.0724262553623214e+02 1.0000000000000000e+00 5.7140309138538301e+00 1.6974636411616476e+01 1.5134021395875397e+01 
71 1 2 1.0280000000000578e+00 -3.7889085021403923e+02 1.0000000000000000e+00 5.7140309138538301e+00 1.6974636411616476e+01 1.5134021395875397e+01 
34 1 2 1.0280000000000578e+00 -3.2293972102566568e+02 1.0000000000000000e+00 5.7140309138538301e+00 1.6974636411616476e+01 1.5134021395875397e+01 
67 1 2 1.0279999999997134e+00 -4.3647444909819291e+02 1.0000000000000000e+00 5.7127239198904132e+00 1.6973367364987322e+01 1.5133101550748803e+01 
1 1 2 1.0279999999999865e+00 -5.2342811540653838e+02 1.0000000000000000e+00 5.7197529948065648e+00 1.6983400131057678e+01 1.5137127312855618e+01 
38 1 2 1.0280000000000422e+00 -3.8420103854969523e+02 1.0000000000000000e+00 5.2867696253679091e+00 1.8035508223833109e+01 1.6557065191030492e+01 
136 1 2 1.0280000000002829e+00 -3.5626450291578999e+02 1.0000000000000000e+00 3.4812513909587195e+00 1.7081934214966605e+01 1.6712892343203784e+01 
2 1 2 1.0280000000001326e+00 -5.6037939584041885e+02 1.0000000000000000e+00 3.4812470306603673e+00 1.7081922109198633e+01 1.6712875020444550e+01 
103 1 2 1.0280000000002067e+00 -3.7346897222773583e+02 1.0000000000000000e+00 3.4812356683861649e+00 1.7081890774994388e+01 1.6712829994839947e+01 
62 1 2 1.0280000000000205e+00 -3.3589596226357668e+02 1.0000000000000000e+00 3.4812676949567898e+00 1.7081603392117167e+01 1.6712741894756114e+01 
68 1 2 1.0279999999999789e+00 -4.5005360004470884e+02 1.0000000000000000e+00 3.4811810578992812e+00 1.7081753823456122e+01 1.6712621282717510e+01 
32 1 2 1.0279999999999119e+00 -5.0243260428842814e+02 1.0000000000000000e+00 3.4811584642459596e+00 1.7081706281637313e+01 1.6712540104195462e+01 
26 1 2 1.0280000000001761e+00 -3.4154759504413926e+02 1.0000000000000000e+00 3.4811521000214114e+00 1.7081683704732644e+01 1.6712511969418557e+01 
33 1 2 1.0279999999998519e+00 -5.3174378964462448e+02 1.0000000000000000e+00 3.4782334850717680e+00 1.7038167548638608e+01 1.6676132007725823e+01 
74 1 2 1.0279999999999792e+00 -3.7630259530591189e+02 1.0000000000000000e+00 3.7070243364458229e+00 1.7557697810139071e+01 1.7000291848864478e+01 
37 1 2 1.0280000000002765e+00 -5.4846924032645552e+02 1.0000000000000000e+00 4.6618375808339048e+00 1.8060151206339945e+01 1.6907788604711225e+01 
73 1 2 1.0280000000002492e+00 -4.5972748873252209e+02 1.0000000000000000e+00 4.6440660055201928e+00 1.8056834891585748e+01 1.6915329544080389e+01 
31 1 2 1.0280000000003759e+00 -5.8022593775420160e+02 1.0000000000000000e+00 4.6677753160907596e+00 1.8060464592903354e+01 1.6906103682264959e+01 
44 1 2 8.9131642251593612e-01 -3.7513753026436291e+02 1.0000000000000000e+00 7.5205624618920632e+00 7.3965930189337659e+00 2.5889228778558344e+00 
8 1 2 8.9131642251593612e-01 -4.8811590957717164e+02 1.0000000000000000e+00 7.5205624618920082e+00 7.3965930189337756e+00 2.5889228778558344e+00 
43 1 2 8.9131642251593612e-01 -4.0081591110632809e+02 1.0000000000000000e+00 7.5205624618920632e+00 7.3965930189337659e+00 2.5889228778558344e+00 
7 1 2 8.9131642251593612e-01 -4.7472976688331681e+02 1.0000000000000000e+00 7.5205624618920632e+00 7.3965930189337659e+00 2.5889228778558344e+00 
13 1 2 8.9131642251593612e-01 -4.0682024590404893e+02 1.0000000000000000e+00 7.5205624618920632e+00 7.3965930189337659e+00 2.5889228778558344e+00 
49 1 2 8.9131642251593612e-01 -3.9628085664685682e+02 1.0000000000000000e+00 7.5205624618920082e+00 7.3965930189337756e+00 2.5889228778558344e+00 
50 1 2 8.9131642251593612e-01 -3.9216115767127485e+02 1.0000000000000000e+00 7.5205624618920082e+00 7.3965930189337659e+00 2.5889228778558344e+00 
14 1 2 8.9131642251593612e-01 -4.2345092856162569e+02 1.0000000000000000e+00 7.5205624618920632e+00 7.3965930189337756e+00 2.5889228778558344e+00 
56 1 2 8.9131642251593612e-01 -2.8560386087088239e+02 1.0000000000000000e+00 7.5205624618920082e+00 7.3965930189337659e+00 2.5889228778558344e+00 
92 1 2 8.9131642251593612e-01 -2.7922094522753963e+02 1.0000000000000000e+00 7.5205624618920082e+00 7.3965930189337659e+00 2.5889228778558344e+00 
55 1 2 8.9131642251593612e-01 -3.2285383635604171e+02 1.0000000000000000e+00 7.5205624618920632e+00 7.3965930189337659e+00 2.5889228778558344e+00 
20 1 2 8.9131642251593612e-01 -3.0653252215718243e+02 1.0000000000000000e+00 7.5205624618920632e+00 7.3965930189337659e+00 2.5889228778558393e+00 
40 1 2 8.1704005397294144e-01 -3.4244372303911643e+02 1.0000000000000000e+00 7.2052631367195685e+00 2.4726530718551523e+00 1.0354937180143116e+01 
41 1 2 8.1704005397294144e-01 -3.1442386491043663e+02 1.0000000000000000e+00 7.2052631367195499e+00 2.4726530718551261e+00 1.0354937180143139e+01 
47 1 2 8.1704005397294144e-01 -3.3494563822119312e+02 1.0000000000000000e+00 7.2052631367195250e+00 2.4726530718551532e+00 1.0354937180143212e+01 
4 1 2 8.1704005397294144e-01 -3.4133700137999534e+02 1.0000000000000000e+00 7.2052631367195499e+00 2.4726530718551438e+00 1.0354937180143212e+01 
5 1 2 8.1704005397294144e-01 -3.3732068655403930e+02 1.0000000000000000e+00 7.2052631367195499e+00 2.4726530718551523e+00 1.0354937180143212e+01 
46 1 2 8.1704005397294144e-01 -2.9519062677197064e+02 1.0000000000000000e+00 7.2052631367195845e+00 2.4726530718551523e+00 1.0354937180143207e+01 
10 1 2 8.1704005397294144e-01 -3.2284651447921595e+02 1.0000000000000000e+00 7.2052631367195632e+00 2.4726530718551469e+00 1.0354937180143139e+01 
3 1 2 8.1704005397294144e-01 -3.2437964765754458e+02 1.0000000000000000e+00 7.2052631367195392e+00 2.4726530718551309e+00 1.0354937180143214e+01 
39 1 2 8.1704005397294144e-01 -2.9812205414886995e+02 1.0000000000000000e+00 7.2052631367195330e+00 2.4726530718551469e+00 1.0354937180143191e+01 
45 1 2 8.1704005397294144e-01 -2.9398593172240294e+02 1.0000000000000000e+00 7.2052631367195632e+00 2.4726530718551309e+00 1.0354937180143184e+01 
9 1 2 8.1704005397294144e-01 -2.6185112776060697e+02 1.0000000000000000e+00 7.2052631367195215e+00 2.4726530718551434e+00 1.0354937180143212e+01 
76 1 2 1.0280000000000069e+00 -4.6968607655315100e+02 1.0000000000000000e+00 1.2762345126976617e+01 3.9312326038496943e+00 1.1154399793086215e+01 
112 1 2 1.0280000000000020e+00 -4.9146052476311093e+02 1.0000000000000000e+00 1.2763465045078012e+01 3.9455776616291072e+00 1.1138170690178013e+01 
111 1 2 1.0279999999999860e+00 -3.6335657898897250e+02 1.0000000000000000e+00 1.2761563234346712e+01 3.9255370583430964e+00 1.1161204981784550e+01 
75 1 2 1.0279999999999978e+00 -4.8274998309027933e+02 1.0000000000000000e+00 1.2763190803516663e+01 3.9419399139710642e+00 1.1142147240019758e+01 
113 1 2 1.0280000000000078e+00 -4.6167914244997831e+02 1.0000000000000000e+00 1.2762913538786359e+01 3.9338768257553283e+00 1.1151375246191693e+01 
77 1 2 1.0280000000000042e+00 -4.2222604687206842e+02 1.0000000000000000e+00 1.2615875243466515e+01 4.6527781399114643e+00 1.1847887293939449e+01 
117 1 2 1.0279999999999909e+00 -4.5843213924165991e+02 1.0000000000000000e+00 1.2761345849265362e+01 3.9355440151103664e+00 1.1149062807512216e+01 
82 1 2 1.0280000000000045e+00 -3.1828204859747700e+02 1.0000000000000000e+00 1.2614226379219591e+01 4.6380733795708702e+00 1.1860314294934577e+01 
83 1 2 1.0279999999999951e+00 -3.2256029943340076e+02 1.0000000000000000e+00 1.2615684012548916e+01 4.6550912213735955e+00 1.1845746525094411e+01 
88 1 2 1.0280000000000060e+00 -2.9712813013233529e+02 1.0000000000000000e+00 1.2615753087295902e+01 4.6569943504711606e+00 1.1844008786424851e+01 
89 1 2 1.0279999999999827e+00 -3.3197838020000302e+02 1.0000000000000000e+00 1.2614181477272478e+01 4.6367749777182130e+00 1.1861382037192076e+01 
119 1 2 1.0280000000000000e+00 -3.8885274428211591e+02 1.0000000000000000e+00 1.2613696812535157e+01 4.6489743541505373e+00 1.1850855351262107e+01 
124 1 2 1.0280000000000309e+00 -2.7742250971369509e+02 1.0000000000000000e+00 1.2614094760076133e+01 4.6377848185601911e+00 1.1860528641625240e+01 
118 1 2 1.0280000000000125e+00 -3.0819630574689847e+02 1.0000000000000000e+00 1.2694613420614303e+01 4.6623375438584951e+00 1.1126445069603637e+01 
123 1 2 1.0279999999999874e+00 -2.8845185487786767e+02 1.0000000000000000e+00 1.2761958745378475e+01 3.9288388891312982e+00 1.1157214430934783e+01 
42 1 2 9.6559279105893081e-01 -4.3196618971712587e+02 1.0000000000000000e+00 7.4218051454195386e+00 6.2000557761275763e+00 1.5736881157168064e+01 
6 1 2 9.6559279105893081e-01 -4.0436955072905050e+02 1.0000000000000000e+00 7.4218051454195386e+00 6.2000557761275763e+00 1.5736881157168064e+01 
84 1 2 9.6559279105893081e-01 -4.0991788931247783e+02 1.0000000000000000e+00 7.4218051454195386e+00 6.2000557761275763e+00 1.5736881157168124e+01 
48 1 2 9.6559279105893081e-01 -4.1595543846563646e+02 1.0000000000000000e+00 7.4218051454195386e+00 6.2000557761275763e+00 1.5736881157168124e+01 
12 1 2 9.6559279105893081e-01 -4.8674008579543045e+02 1.0000000000000000e+00 7.4218051454195733e+00 6.2000557761275257e+00 1.5736881157168160e+01 
11 1 2 9.6559279105893081e-01 -4.9729130900818768e+02 1.0000000000000000e+00 7.4218051454195733e+00 6.2000557761275648e+00 1.5736881157168165e+01 
18 1 2 9.6559279105893081e-01 -5.4242353925383566e+02 1.0000000000000000e+00 7.4218051454195875e+00 6.2000557761275212e+00 1.5736881157167918e+01 
54 1 2 9.6559279105893081e-01 -4.9455611219707134e+02 1.0000000000000000e+00 7.4218051454195901e+00 6.2000557761275328e+00 1.5736881157167918e+01 
17 1 2 9.6559279105893081e-01 -5.2240936455886208e+02 1.0000000000000000e+00 7.4218051454195493e+00 6.2000557761275328e+00 1.5736881157168160e+01 
52 1 2 9.6559279105893081e-01 -2.9483988772545695e+02 1.0000000000000000e+00 7.4218051454196097e+00 6.2000557761275950e+00 1.5736881157168110e+01 
53 1 2 9.6559279105893081e-01 -3.1425166764042154e+02 1.0000000000000000e+00 7.4218051454195306e+00 6.2000557761275212e+00 1.5736881157167975e+01 
59 1 2 9.6559279105893081e-01 -3.6935022917942820e+02 1.0000000000000000e+00 7.4218051454195066e+00 6.2000557761275257e+00 1.5736881157167932e+01 
23 1 2 9.6559279105893081e-01 -4.0248689528006003e+02 1.0000000000000000e+00 7.4218051454195493e+00 6.2000557761276225e+00 1.5736881157168195e+01 
178 1 2 1.0279767218389688e+00 -4.7366351480193725e+02 1.0000000000000000e+00 1.2757781304736632e+01 1.7403553547748185e+01 6.3802910990287183e+00 
64 1 2 1.0279767218389724e+00 -3.5160365397803776e+02 1.0000000000000000e+00 1.2757781304736653e+01 1.7403553547748189e+01 6.3802910990287263e+00 
63 1 2 1.0279767218389744e+00 -3.5875178882896699e+02 1.0000000000000000e+00 1.2757781304736705e+01 1.7403553547748132e+01 6.3802910990287227e+00 
100 1 2 1.0279767218389724e+00 -2.7035872857385783e+02 1.0000000000000000e+00 1.2757781304736646e+01 1.7403553547748199e+01 6.3802910990287245e+00 
58 1 2 1.0279767218389684e+00 -4.6504687835795903e+02 1.0000000000000000e+00 1.2757781304736637e+01 1.7403553547748185e+01 6.3802910990287334e+00 
94 1 2 1.0279767218389719e+00 -3.8022985297017476e+02 1.0000000000000000e+00 1.2757781304736676e+01 1.7403553547748160e+01 6.3802910990287325e+00 
171 1 2 1.0279767218389715e+00 -4.4738863418786491e+02 1.0000000000000000e+00 1.2757781304736643e+01 1.7403553547748196e+01 6.3802910990287254e+00 
143 1 2 1.0279767218389702e+00 -3.1484269034391502e+02 1.0000000000000000e+00 1.2757781304736644e+01 1.7403553547748196e+01 6.3802910990287423e+00 
106 1 2 1.0279767218403337e+00 -2.7011335515385747e+02 1.0000000000000000e+00 1.2757781248605381e+01 1.7403553648226030e+01 6.3802911308247792e+00 
96 1 2 3.7138184271497332e-01 -2.7269792046629766e+02 1.0000000000000000e+00 1.1640178235385942e+01 1.0115879719193234e+01 1.6359112996133859e+01 
101 1 2 3.7138184271497332e-01 -3.6546614294704557e+02 1.0000000000000000e+00 1.1640178235385942e+01 1.0115879719193215e+01 1.6359112996133877e+01 
95 1 2 3.7138184271497332e-01 -2.2987885567174246e+02 1.0000000000000000e+00 1.1640178235385942e+01 1.0115879719193265e+01 1.6359112996133884e+01 
132 1 2 3.7138184271497332e-01 -2.4143058470711739e+02 1.0000000000000000e+00 1.1640178235385942e+01 1.0115879719193243e+01 1.6359112996133877e+01 
90 1 2 3.7138184271497332e-01 -2.2506463026002717e+02 1.0000000000000000e+00 1.1640178235385942e+01 1.0115879719193234e+01 1.6359112996134005e+01 
102 1 2 7.4276368542994675e-01 -4.5728528740262016e+02 1.0000000000000000e+00 7.8956446044441631e+00 1.3099560204011070e+01 1.8322767432035949e+01 
108 1 2 7.4276368542994675e-01 -3.9908234361697981e+02 1.0000000000000000e+00 7.8956446044441098e+00 1.3099560204011024e+01 1.8322767432035963e+01 
97 1 2 7.4276368542994675e-01 -3.7126984316129960e+02 1.0000000000000000e+00 7.8956446044441195e+00 1.3099560204011064e+01 1.8322767432035981e+01 
25 1 2 7.4276368542994675e-01 -4.0332489083436656e+02 1.0000000000000000e+00 7.8956446044441284e+00 1.3099560204011100e+01 1.8322767432035981e+01 
19 1 2 7.4276368542994675e-01 -3.5091438499644738e+02 1.0000000000000000e+00 7.8956446044441515e+00 1.3099560204011057e+01 1.8322767432035981e+01 
24 1 2 7.4276368542994675e-01 -3.5844525621435241e+02 1.0000000000000000e+00 7.8956446044441559e+00 1.3099560204011141e+01 1.8322767432036056e+01 
30 1 2 7.4276368542994675e-01 -4.0409967159238806e+02 1.0000000000000000e+00 7.8956446044441559e+00 1.3099560204011087e+01 1.8322767432036070e+01 
60 1 2 7.4276368542994675e-01 -4.0300169779915456e+02 1.0000000000000000e+00 7.8956446044441506e+00 1.3099560204011068e+01 1.8322767432036070e+01 
66 1 2 7.4276368542994675e-01 -3.9443521110271865e+02 1.0000000000000000e+00 7.8956446044441178e+00 1.3099560204011132e+01 1.8322767432035988e+01 
61 1 2 7.4276368542994675e-01 -3.2235331453676855e+02 1.0000000000000000e+00 7.8956446044441320e+00 1.3099560204011068e+01 1.8322767432035949e+01 
121 1 2 1.0279966988892708e+00 -3.6036435796413696e+02 1.0000000000000000e+00 1.4307051883231372e+01 8.4245403897574267e+00 5.6102958409274795e+00 
122 1 2 1.0279966988892708e+00 -3.7135966859394631e+02 1.0000000000000000e+00 1.4307051883231372e+01 8.4245403897574267e+00 5.6102958409274795e+00 
91 1 2 1.0279966988892708e+00 -3.1051402538266916e+02 1.0000000000000000e+00 1.4307051883231372e+01 8.4245403897574267e+00 5.6102958409274795e+00 
85 1 2 1.0279966988892708e+00 -3.2577886311997668e+02 1.0000000000000000e+00 1.4307051883231372e+01 8.4245403897574267e+00 5.6102958409274795e+00 
79 1 2 1.0279966988892708e+00 -3.3249537360088010e+02 1.0000000000000000e+00 1.4307051883231372e+01 8.4245403897574267e+00 5.6102958409274795e+00 
115 1 2 1.0279966988892708e+00 -3.3765552779686118e+02 1.0000000000000000e+00 1.4307051883231372e+01 8.4245403897574267e+00 5.6102958409274795e+00 
87 1 2 1.0279966988892708e+00 -3.0725752411407194e+02 1.0000000000000000e+00 1.4307051883231372e+01 8.4245403897574267e+00 5.6102958409274795e+00 
127 1 2 1.0279966988892708e+00 -3.7713111056681942e+02 1.0000000000000000e+00 1.4307051883231372e+01 8.4245403897574267e+00 5.6102958409274795e+00 
81 1 2 1.0279966988892708e+00 -2.8952242504843065e+02 1.0000000000000000e+00 1.4307051883231372e+01 8.4245403897574267e+00 5.6102958409274795e+00 
80 1 2 1.0279966988892708e+00 -2.9768728548663250e+02 1.0000000000000000e+00 1.4307051883231372e+01 8.4245403897574267e+00 5.6102958409274795e+00 
86 1 2 1.0279966988892708e+00 -2.8703667913710677e+02 1.0000000000000000e+00 1.4307051883231372e+01 8.4245403897574267e+00 5.6102958409274795e+00 
116 1 2 1.0279966988892708e+00 -4.3174733940714060e+02 1.0000000000000000e+00 1.4307051883231372e+01 8.4245403897574267e+00 5.6102958409274795e+00 
148 1 2 2.9710547417197863e-01 -3.7250481996583414e+02 1.0000000000000000e+00 1.7978267923391691e+01 2.6042688036747261e+00 1.2999591041093582e+01 
155 1 2 2.9710547417197863e-01 -3.4867221962214029e+02 1.0000000000000000e+00 1.7978267923391719e+01 2.6042688036747257e+00 1.2999591041093581e+01 
154 1 2 2.9710547417197863e-01 -3.4463064552267690e+02 1.0000000000000000e+00 1.7978267923391719e+01 2.6042688036747257e+00 1.2999591041093582e+01 
149 1 2 2.9710547417197863e-01 -3.1228006756387578e+02 1.0000000000000000e+00 1.7978267923391691e+01 2.6042688036747261e+00 1.2999591041093581e+01 
78 1 2 5.9421094834395738e-01 -3.8449886294692544e+02 1.0000000000000000e+00 1.5398185464827442e+01 4.3950534072920124e+00 1.7599677898062609e+01 
114 1 2 5.9421094834395738e-01 -3.7895203253133201e+02 1.0000000000000000e+00 1.5398185464827453e+01 4.3950534072919805e+00 1.7599677898062527e+01 
126 1 2 5.9421094834395738e-01 -3.7626492921849461e+02 1.0000000000000000e+00 1.5398185464827538e+01 4.3950534072919991e+00 1.7599677898062538e+01 
156 1 2 5.9421094834395738e-01 -4.9180610256392663e+02 1.0000000000000000e+00 1.5398185464827511e+01 4.3950534072919991e+00 1.7599677898062634e+01 
151 1 2 5.9421094834395738e-01 -4.3437510272053771e+02 1.0000000000000000e+00 1.5398185464827462e+01 4.3950534072919805e+00 1.7599677898062545e+01 
157 1 2 5.9421094834395738e-01 -4.4521286370398701e+02 1.0000000000000000e+00 1.5398185464827442e+01 4.3950534072919991e+00 1.7599677898062684e+01 
120 1 2 5.9421094834395738e-01 -4.4598623232192193e+02 1.0000000000000000e+00 1.5398185464827511e+01 4.3950534072920124e+00 1.7599677898062545e+01 
162 1 2 5.9421094834395738e-01 -4.1345972249768545e+02 1.0000000000000000e+00 1.5398185464827501e+01 4.3950534072919991e+00 1.7599677898062609e+01 
128 1 2 1.0279930300176505e+00 -3.9469372135534906e+02 1.0000000000000000e+00 1.4296213517146901e+01 1.1200327466681664e+01 5.5661889504810862e+00 
107 1 2 1.0279930298415780e+00 -2.9645897429695202e+02 1.0000000000000000e+00 1.4296214384500354e+01 1.1200315048207010e+01 5.5661877258567598e+00 
159 1 2 1.0279930300176501e+00 -3.2216585932269572e+02 1.0000000000000000e+00 1.4296213517146903e+01 1.1200327466681667e+01 5.5661889504810906e+00 
158 1 2 1.0279930300176501e+00 -3.7826806606936822e+02 1.0000000000000000e+00 1.4296213517146903e+01 1.1200327466681667e+01 5.5661889504810906e+00 
165 1 2 1.0279930300176501e+00 -3.4221813034239131e+02 1.0000000000000000e+00 1.4296213517146903e+01 1.1200327466681667e+01 5.5661889504810906e+00 
164 1 2 1.0279930300176501e+00 -3.7856030939747967e+02 1.0000000000000000e+00 1.4296213517146903e+01 1.1200327466681667e+01 5.5661889504810906e+00 
163 1 2 1.0279930300176501e+00 -4.2133301705474338e+02 1.0000000000000000e+00 1.4296213517146903e+01 1.1200327466681667e+01 5.5661889504810906e+00 
172 1 2 1.0279930281955683e+00 -4.0213608224899690e+02 1.0000000000000000e+00 1.4296222650555197e+01 1.1200196381876072e+01 5.5661759573539920e+00 
142 1 2 1.0280136189516518e+00 -3.5974780911895419e+02 1.0000000000000000e+00 1.3546517468833741e+01 1.2508458053098828e+01 5.9642071419992391e+00 
150 1 2 1.0279888121078857e+00 -4.8724898861182453e+02 1.0000000000000000e+00 1.3924316559768654e+01 1.3974094105668945e+01 5.7416435087295303e+00 
138 1 2 1.0279888121078857e+00 -4.7682144880389217e+02 1.0000000000000000e+00 1.3924316559768654e+01 1.3974094105668945e+01 5.7416435087295303e+00 
144 1 2 1.0279888121078857e+00 -5.0105531595288090e+02 1.0000000000000000e+00 1.3924316559768654e+01 1.3974094105668945e+01 5.7416435087295303e+00 
175 1 2 1.0279888121078857e+00 -5.6115062520683989e+02 1.0000000000000000e+00 1.3924316559768654e+01 1.3974094105668945e+01 5.7416435087295303e+00 
169 1 2 1.0279888121078857e+00 -5.6783582974631463e+02 1.0000000000000000e+00 1.3924316559768654e+01 1.3974094105668945e+01 5.7416435087295303e+00 
139 1 2 1.0279888121078857e+00 -4.9351097029648838e+02 1.0000000000000000e+00 1.3924316559768654e+01 1.3974094105668945e+01 5.7416435087295303e+00 
133 1 2 1.0279888121078857e+00 -4.3197921733456553e+02 1.0000000000000000e+00 1.3924316559768654e+01 1.3974094105668945e+01 5.7416435087295303e+00 
174 1 2 1.0279888121078857e+00 -4.0904057201214829e+02 1.0000000000000000e+00 1.3924316559768654e+01 1.3974094105668945e+01 5.7416435087295303e+00 
137 1 2 1.0279888121078857e+00 -4.6557332033702761e+02 1.0000000000000000e+00 1.3924316559768654e+01 1.3974094105668945e+01 5.7416435087295303e+00 
179 1 2 1.0279888121078857e+00 -5.3093521232589410e+02 1.0000000000000000e+00 1.3924316559768654e+01 1.3974094105668945e+01 5.7416435087295303e+00 
180 1 2 1.0279888121078857e+00 -4.7860398420346934e+02 1.0000000000000000e+00 1.3924316559768654e+01 1.3974094105668945e+01 5.7416435087295303e+00 
104 1 2 1.0280222213639920e+00 -3.8215245482906573e+02 1.0000000000000000e+00 1.4118823927331272e+01 1.8882423070506306e+01 5.6742174094499012e+00 
69 1 2 1.0280229185126535e+00 -3.9221676629497921e+02 1.0000000000000000e+00 1.4039409941395215e+01 1.8987982203870850e+01 5.6617138380455332e+00 
170 1 2 1.0280200794955121e+00 -3.9066037177191845e+02 1.0000000000000000e+00 1.3887880641238986e+01 1.9137276476258378e+01 5.7032731404319748e+00 
98 1 2 1.0280204053778730e+00 -5.1503937840608876e+02 1.0000000000000000e+00 1.3889912318613808e+01 1.9129404039096908e+01 5.6857682262014873e+00 
99 1 2 1.0280209191402598e+00 -4.6084012286752926e+02 1.0000000000000000e+00 1.3903731339672124e+01 1.9115480834057973e+01 5.6738703986414691e+00 
93 1 2 1.0280206075351719e+00 -4.9743718008092787e+02 1.0000000000000000e+00 1.3894382760954130e+01 1.9124105561273353e+01 5.6797179429105276e+00 
135 1 2 1.0280201090544445e+00 -3.9838359200469318e+02 1.0000000000000000e+00 1.3868332307357115e+01 1.9134512865419062e+01 5.6659390894177211e+00 
134 1 2 1.0280201090544445e+00 -3.7332494142177404e+02 1.0000000000000000e+00 1.3868332307357115e+01 1.9134512865419062e+01 5.6659390894177211e+00 
129 1 2 1.0280181234884702e+00 -4.1921304255506817e+02 1.0000000000000000e+00 1.3816876205636055e+01 1.9174010766909433e+01 5.6976656339506215e+00 
105 1 2 1.0280114333574983e+00 -3.5420847240898479e+02 1.0000000000000000e+00 1.3647190189344075e+01 1.9248669427071533e+01 5.7721425089763407e+00 
130 1 2 1.0279999999999980e+00 -3.7698655174087031e+02 1.0000000000000000e+00 1.8532337011468584e+01 1.0253892530380460e+01 1.2300039815375948e+01 
131 1 2 1.0279999999999980e+00 -4.0359955643103279e+02 1.0000000000000000e+00 1.8532337011468584e+01 1.0253892530380460e+01 1.2300039815375948e+01 
166 1 2 1.0279999999999980e+00 -5.0827058106179243e+02 1.0000000000000000e+00 1.8532337011468584e+01 1.0253892530380460e+01 1.2300039815375948e+01 
125 1 2 1.0279999999999980e+00 -3.6786919589151029e+02 1.0000000000000000e+00 1.8532337011468584e+01 1.0253892530380460e+01 1.2300039815375948e+01 
161 1 2 1.0279999999999980e+00 -4.9586219361088723e+02 1.0000000000000000e+00 1.8532337011468584e+01 1.0253892530380460e+01 1.2300039815375948e+01 
167 1 2 1.0279999999999980e+00 -3.3871554353298109e+02 1.0000000000000000e+00 1.8532337011468584e+01 1.0253892530380460e+01 1.2300039815375948e+01 
160 1 2 1.0279999999999980e+00 -3.8550001553581382e+02 1.0000000000000000e+00 1.8532337011468584e+01 1.0253892530380460e+01 1.2300039815375948e+01 
168 1 2 1.0279999999999980e+00 -3.9479802635999874e+02 1.0000000000000000e+00 1.8532337011468584e+01 1.0253892530380460e+01 1.2300039815375948e+01 
173 1 2 1.0279999999999980e+00 -3.1609116313246420e+02 1.0000000000000000e+00 1.8532337011468584e+01 1.0253892530380460e+01 1.2300039815375948e+01 
177 1 2 1.0279999999999965e+00 -4.2030743995568179e+02 1.0000000000000000e+00 1.8532279831901839e+01 1.0253801474440902e+01 1.2299838356597750e+01 

Velocities

141 3.9076651436870926e-13 -2.1199010862426541e-12 -7.4659851668241382e-13
110 3.9076651436870926e-13 -2.1199010862426541e-12 -7.4659851668241382e-13
176 3.9076651436870926e-13 -2.1199010862426541e-12 -7.4659851668241382e-13
145 3.9076651436870926e-13 -2.1199010862426541e-12 -7.4659851668241382e-13
109 3.9076651436870926e-13 -2.1199010862426541e-12 -7.4659851668241382e-13
140 3.9076651436870926e-13 -2.1199010862426541e-12 -7.4659851668241382e-13
147 7.2851119911268570e-13 -2.4286709668330977e-12 -1.0064138826950249e-12
152 3.4251358698744031e-13 -2.0757914450767389e-12 -7.0948478840418198e-13
146 3.4251358698744031e-13 -2.0757914450767389e-12 -7.0948478840418198e-13
153 7.2842077407194009e-13 -2.4289257872289556e-12 -1.0061771293668303e-12
28 -2.3110853528422162e-13 2.4321919998589583e-12 7.3972028552301871e-13
22 3.9145408291297197e-14 3.4909262410332981e-12 8.6223807577632240e-13
16 3.9145408291297197e-14 3.4909262410332981e-12 8.6223807577632240e-13
51 3.9145408291297197e-14 3.4909262410332981e-12 8.6223807577632240e-13
15 3.9145408291297197e-14 3.4909262410332981e-12 8.6223807577632240e-13
21 3.9145408291297197e-14 3.4909262410332981e-12 8.6223807577632240e-13
57 2.1931468447466641e-13 4.1967490675503942e-12 9.4391662332647302e-13
27 -7.3460423083177724e-14 3.0497869761764317e-12 8.1118900948884400e-13
65 2.5699149501990600e-10 -2.8012207504688069e-11 4.7520677233523592e-11
72 2.5699149501990600e-10 -2.8012207504688069e-11 4.7520677233523592e-11
36 2.5699149501990600e-10 -2.8012207504688069e-11 4.7520677233523592e-11
29 2.5699149501990600e-10 -2.8012207504688069e-11 4.7520677233523592e-11
35 2.5699149501990600e-10 -2.8012207504688069e-11 4.7520677233523592e-11
70 2.5699149501990600e-10 -2.8012207504688069e-11 4.7520677233523592e-11
71 2.5699149501990600e-10 -2.8012207504688069e-11 4.7520677233523592e-11
34 2.5699149501990600e-10 -2.8012207504688069e-11 4.7520677233523592e-11
67 2.5677266538156509e-10 -2.7946891704730804e-11 4.7729549018512009e-11
1 2.5886852206541527e-10 -2.8529859835257198e-11 4.5743637035570687e-11
38 2.5426636375734180e-10 -2.4451629203078159e-11 5.3138333598430694e-11
136 2.5186536310517687e-10 -2.6480735450295570e-11 5.2445158565402409e-11
2 2.5238060474937624e-10 -2.6346461823241111e-11 5.2239454344570763e-11
103 2.5060872389110089e-10 -2.6808296760486278e-11 5.2946728372135969e-11
62 2.4990192109962522e-10 -2.6993551119493174e-11 5.3228611625494126e-11
68 2.5011014169507710e-10 -2.6938623085532510e-11 5.3145021141537867e-11
32 2.5110195082737210e-10 -2.6679983969491898e-11 5.2749382804138370e-11
26 2.4949377621461050e-10 -2.7099641043129347e-11 5.3390312534410292e-11
33 2.5059568228831863e-10 -2.6908814891302314e-11 5.2866214778787076e-11
74 2.5112375601463172e-10 -2.6084518528874477e-11 5.3273961054487860e-11
37 2.5226134034298945e-10 -2.5592136602832313e-11 5.3066339557930173e-11
73 2.5231117053317081e-10 -2.5235358990388424e-11 5.3384680650835653e-11
31 2.5229723100613686e-10 -2.5476862214534048e-11 5.3159740441960733e-11
44 -2.2102686627716324e-12 2.3528666738892231e-13 3.9214443862220658e-14