LAMMPS data file via write_data, version 30 Jul 2016, timestep = 50000000

180 atoms
2 atom types

0.0000000000000000e+00 2.0000000000000000e+01 xlo xhi
0.0000000000000000e+00 2.0000000000000000e+01 ylo yhi
0.0000000000000000e+00 2.0000000000000000e+01 zlo zhi

Masses

1 3.896
2 4.31

Atoms # meso-molecular

141 1 2 1.0280000000000007e+00 -3.2274627559518098e+02 1.0000000000000000e+00 1.1486263412036675e+00 9.7632816366045567e+00 1.0768563528445496e+01 
110 1 2 1.0280000000000007e+00 -4.5458821477173524e+02 1.0000000000000000e+00 1.1486263412036675e+00 9.7632816366045567e+00 1.0768563528445496e+01 
176 1 2 1.0280000000000007e+00 -3.6301292027400979e+02 1.0000000000000000e+00 1.1486263412036675e+00 9.7632816366045567e+00 1.0768563528445496e+01 
145 1 2 1.0280000000000007e+00 -4.7338044177598601e+02 1.0000000000000000e+00 1.1486263412036675e+00 9.7632816366045567e+00 1.0768563528445496e+01 
109 1 2 1.0280000000000007e+00 -4.1716029031465052e+02 1.0000000000000000e+00 1.1486263412036675e+00 9.7632816366045567e+00 1.0768563528445496e+01 
140 1 2 1.0280000000000007e+00 -3.6554460709697128e+02 1.0000000000000000e+00 1.1486263412036675e+00 9.7632816366045567e+00 1.0768563528445496e+01 
147 1 2 1.0280000000000022e+00 -5.0808123471179380e+02 1.0000000000000000e+00 1.1486246677441603e+00 9.7632812971966274e+00 1.0768561777099382e+01 
152 1 2 1.0280000000000005e+00 -4.7141611710245672e+02 1.0000000000000000e+00 1.1486231750984244e+00 9.7632809369310927e+00 1.0768560284423867e+01 
146 1 2 1.0280000000000005e+00 -4.8961254065812852e+02 1.0000000000000000e+00 1.1486231750984244e+00 9.7632809369310927e+00 1.0768560284423867e+01 
153 1 2 1.0280000000000022e+00 -5.0914290649160080e+02 1.0000000000000000e+00 1.1485799614794991e+00 9.7631287756362930e+00 1.0768688160214774e+01 
28 1 2 1.0280000000000022e+00 -5.6621084607863929e+02 1.0000000000000000e+00 3.4805686489706583e-01 1.1997049774602813e+01 1.1764405789018630e+01 
22 1 2 1.0280000000000051e+00 -5.0956084721438162e+02 1.0000000000000000e+00 3.4805687470660035e-01 1.1997049773027223e+01 1.1764405780995773e+01 
16 1 2 1.0280000000000051e+00 -4.1960490055126695e+02 1.0000000000000000e+00 3.4805687470660035e-01 1.1997049773027223e+01 1.1764405780995773e+01 
51 1 2 1.0280000000000051e+00 -3.5336869015877915e+02 1.0000000000000000e+00 3.4805687470660035e-01 1.1997049773027223e+01 1.1764405780995773e+01 
15 1 2 1.0280000000000051e+00 -3.1674397820152751e+02 1.0000000000000000e+00 3.4805687470660035e-01 1.1997049773027223e+01 1.1764405780995773e+01 
21 1 2 1.0280000000000051e+00 -5.6145570733898489e+02 1.0000000000000000e+00 3.4805687470660035e-01 1.1997049773027223e+01 1.1764405780995773e+01 
57 1 2 1.0280000000000069e+00 -3.6647102675182202e+02 1.0000000000000000e+00 3.4805687412506814e-01 1.1997049772995899e+01 1.1764405782549186e+01 
27 1 2 1.0280000000000038e+00 -3.3668289466137423e+02 1.0000000000000000e+00 3.4805686466199737e-01 1.1997049774801155e+01 1.1764405787823144e+01 
65 1 2 1.0280000000001204e+00 -4.6716078377024127e+02 1.0000000000000000e+00 5.7140309043340460e+00 1.6974636413037562e+01 1.5134021394169334e+01 
72 1 2 1.0280000000001204e+00 -3.5076870340601613e+02 1.0000000000000000e+00 5.7140309043340460e+00 1.6974636413037562e+01 1.5134021394169334e+01 
36 1 2 1.0280000000001204e+00 -5.3532120002849490e+02 1.0000000000000000e+00 5.7140309043340460e+00 1.6974636413037562e+01 1.5134021394169334e+01 
29 1 2 1.0280000000001204e+00 -4.3785532555666248e+02 1.0000000000000000e+00 5.7140309043340460e+00 1.6974636413037562e+01 1.5134021394169334e+01 
35 1 2 1.0280000000001204e+00 -3.7935806946502930e+02 1.0000000000000000e+00 5.7140309043340460e+00 1.6974636413037562e+01 1.5134021394169334e+01 
70 1 2 1.0280000000001204e+00 -3.0724262553623214e+02 1.0000000000000000e+00 5.7140309043340460e+00 1.6974636413037562e+01 1.5134021394169334e+01 
71 1 2 1.0280000000001204e+00 -3.7889085021403923e+02 1.0000000000000000e+00 5.7140309043340460e+00 1.6974636413037562e+01 1.5134021394169334e+01 
34 1 2 1.0280000000001204e+00 -3.2293972102566568e+02 1.0000000000000000e+00 5.7140309043340460e+00 1.6974636413037562e+01 1.5134021394169334e+01 
67 1 2 1.0280000000000478e+00 -4.3647444909819291e+02 1.0000000000000000e+00 5.7127239103560932e+00 1.6973367366408407e+01 1.5133101549029561e+01 
1 1 2 1.0280000000002807e+00 -5.2342811540653838e+02 1.0000000000000000e+00 5.7197529852740345e+00 1.6983400132478764e+01 1.5137127311136551e+01 
38 1 2 1.0280000000000042e+00 -3.8420103854969523e+02 1.0000000000000000e+00 5.2867696160025748e+00 1.8035508225231830e+01 1.6557065189414221e+01 
136 1 2 1.0279999999998359e+00 -3.5626450291578999e+02 1.0000000000000000e+00 3.4812513816084625e+00 1.7081934216387690e+01 1.6712892341733546e+01 
2 1 2 1.0279999999998872e+00 -5.6037939584041885e+02 1.0000000000000000e+00 3.4812470213142461e+00 1.7081922110619718e+01 1.6712875018982427e+01 
103 1 2 1.0279999999999758e+00 -3.7346897222773583e+02 1.0000000000000000e+00 3.4812356590430094e+00 1.7081890776415474e+01 1.6712829993384791e+01 
62 1 2 1.0279999999999845e+00 -3.3589596226357668e+02 1.0000000000000000e+00 3.4812676856157898e+00 1.7081603393538252e+01 1.6712741893304425e+01 
68 1 2 1.0280000000000478e+00 -4.5005360004470884e+02 1.0000000000000000e+00 3.4811810485587218e+00 1.7081753824877207e+01 1.6712621281266006e+01 
32 1 2 1.0279999999997698e+00 -5.0243260428842814e+02 1.0000000000000000e+00 3.4811584549002426e+00 1.7081706283058399e+01 1.6712540102733502e+01 
26 1 2 1.0279999999997682e+00 -3.4154759504413926e+02 1.0000000000000000e+00 3.4811520906777642e+00 1.7081683706153729e+01 1.6712511967963863e+01 
33 1 2 1.0280000000000677e+00 -5.3174378964462448e+02 1.0000000000000000e+00 3.4782334757254216e+00 1.7038167550059693e+01 1.6676132006269576e+01 
74 1 2 1.0280000000001486e+00 -3.7630259530591189e+02 1.0000000000000000e+00 3.7070243271311059e+00 1.7557697811560157e+01 1.7000291847377113e+01 
37 1 2 1.0280000000002252e+00 -5.4846924032645552e+02 1.0000000000000000e+00 4.6618375715498210e+00 1.8060151207743267e+01 1.6907788603135174e+01 
73 1 2 1.0279999999998863e+00 -4.5972748873252209e+02 1.0000000000000000e+00 4.6440659962211788e+00 1.8056834892990103e+01 1.6915329542510108e+01 
31 1 2 1.0279999999996214e+00 -5.8022593775420160e+02 1.0000000000000000e+00 4.6677753067844083e+00 1.8060464594308975e+01 1.6906103680693352e+01 
44 1 2 8.9131642251593612e-01 -3.7513753026436291e+02 1.0000000000000000e+00 7.5205624618920632e+00 7.3965930189337659e+00 2.5889228778558344e+00 
8 1 2 8.9131642251593612e-01 -4.8811590957717164e+02 1.0000000000000000e+00 7.5205624618920082e+00 7.3965930189337756e+00 2.5889228778558344e+00 
43 1 2 8.9131642251593612e-01 -4.0081591110632809e+02 1.0000000000000000e+00 7.5205624618920632e+00 7.3965930189337659e+00 2.5889228778558344e+00 
7 1 2 8.9131642251593612e-01 -4.7472976688331681e+02 1.0000000000000000e+00 7.5205624618920632e+00 7.3965930189337659e+00 2.5889228778558344e+00 
13 1 2 8.9131642251593612e-01 -4.0682024590404893e+02 1.0000000000000000e+00 7.5205624618920632e+00 7.3965930189337659e+00 2.5889228778558344e+00 
49 1 2 8.9131642251593612e-01 -3.9628085664685682e+02 1.0000000000000000e+00 7.5205624618920082e+00 7.3965930189337756e+00 2.5889228778558344e+00 
50 1 2 8.9131642251593612e-01 -3.9216115767127485e+02 1.0000000000000000e+00 7.5205624618920082e+00 7.3965930189337659e+00 2.5889228778558344e+00 
14 1 2 8.9131642251593612e-01 -4.2345092856162569e+02 1.0000000000000000e+00 7.5205624618920632e+00 7.3965930189337756e+00 2.5889228778558344e+00 
56 1 2 8.9131642251593612e-01 -2.8560386087088239e+02 1.0000000000000000e+00 7.5205624618920082e+00 7.3965930189337659e+00 2.5889228778558344e+00 
92 1 2 8.9131642251593612e-01 -2.7922094522753963e+02 1.0000000000000000e+00 7.5205624618920082e+00 7.3965930189337659e+00 2.5889228778558344e+00 
55 1 2 8.9131642251593612e-01 -3.2285383635604171e+02 1.0000000000000000e+00 7.5205624618920632e+00 7.3965930189337659e+00 2.5889228778558344e+00 
20 1 2 8.9131642251593612e-01 -3.0653252215718243e+02 1.0000000000000000e+00 7.5205624618920632e+00 7.3965930189337659e+00 2.5889228778558393e+00 
121 1 2 1.0280004291453650e+00 -3.6036455167555965e+02 1.0000000000000000e+00 1.3276859635312228e+01 8.4359918475437468e+00 6.2149303806424596e+00 
116 1 2 1.0280004291453650e+00 -4.3174753311856330e+02 1.0000000000000000e+00 1.3276859635312228e+01 8.4359918475437468e+00 6.2149303806424596e+00 
86 1 2 1.0280004291453650e+00 -2.8703687284852947e+02 1.0000000000000000e+00 1.3276859635312228e+01 8.4359918475437468e+00 6.2149303806424596e+00 
80 1 2 1.0280004291453650e+00 -2.9768747919805520e+02 1.0000000000000000e+00 1.3276859635312228e+01 8.4359918475437468e+00 6.2149303806424596e+00 
81 1 2 1.0280004291453650e+00 -2.8952261875985334e+02 1.0000000000000000e+00 1.3276859635312228e+01 8.4359918475437468e+00 6.2149303806424596e+00 
127 1 2 1.0280004291453650e+00 -3.7713130427824211e+02 1.0000000000000000e+00 1.3276859635312228e+01 8.4359918475437468e+00 6.2149303806424596e+00 
87 1 2 1.0280004291453650e+00 -3.0725771782549464e+02 1.0000000000000000e+00 1.3276859635312228e+01 8.4359918475437468e+00 6.2149303806424596e+00 
115 1 2 1.0280004291453650e+00 -3.3765572150828388e+02 1.0000000000000000e+00 1.3276859635312228e+01 8.4359918475437468e+00 6.2149303806424596e+00 
79 1 2 1.0280004291453650e+00 -3.3249556731230280e+02 1.0000000000000000e+00 1.3276859635312228e+01 8.4359918475437468e+00 6.2149303806424596e+00 
85 1 2 1.0280004291453650e+00 -3.2577905683139937e+02 1.0000000000000000e+00 1.3276859635312228e+01 8.4359918475437468e+00 6.2149303806424596e+00 
91 1 2 1.0280004291453650e+00 -3.1051421909409186e+02 1.0000000000000000e+00 1.3276859635312228e+01 8.4359918475437468e+00 6.2149303806424596e+00 
122 1 2 1.0280004291453650e+00 -3.7135986230536901e+02 1.0000000000000000e+00 1.3276859635312228e+01 8.4359918475437468e+00 6.2149303806424596e+00 
40 1 2 8.1704005397294144e-01 -3.4244372303911643e+02 1.0000000000000000e+00 7.2052631367195685e+00 2.4726530718551523e+00 1.0354937180143116e+01 
41 1 2 8.1704005397294144e-01 -3.1442386491043663e+02 1.0000000000000000e+00 7.2052631367195499e+00 2.4726530718551261e+00 1.0354937180143139e+01 
47 1 2 8.1704005397294144e-01 -3.3494563822119312e+02 1.0000000000000000e+00 7.2052631367195250e+00 2.4726530718551532e+00 1.0354937180143212e+01 
4 1 2 8.1704005397294144e-01 -3.4133700137999534e+02 1.0000000000000000e+00 7.2052631367195499e+00 2.4726530718551438e+00 1.0354937180143212e+01 
5 1 2 8.1704005397294144e-01 -3.3732068655403930e+02 1.0000000000000000e+00 7.2052631367195499e+00 2.4726530718551523e+00 1.0354937180143212e+01 
46 1 2 8.1704005397294144e-01 -2.9519062677197064e+02 1.0000000000000000e+00 7.2052631367195845e+00 2.4726530718551523e+00 1.0354937180143207e+01 
10 1 2 8.1704005397294144e-01 -3.2284651447921595e+02 1.0000000000000000e+00 7.2052631367195632e+00 2.4726530718551469e+00 1.0354937180143139e+01 
3 1 2 8.1704005397294144e-01 -3.2437964765754458e+02 1.0000000000000000e+00 7.2052631367195392e+00 2.4726530718551309e+00 1.0354937180143214e+01 
39 1 2 8.1704005397294144e-01 -2.9812205414886995e+02 1.0000000000000000e+00 7.2052631367195330e+00 2.4726530718551469e+00 1.0354937180143191e+01 
45 1 2 8.1704005397294144e-01 -2.9398593172240294e+02 1.0000000000000000e+00 7.2052631367195632e+00 2.4726530718551309e+00 1.0354937180143184e+01 
9 1 2 8.1704005397294144e-01 -2.6185112776060697e+02 1.0000000000000000e+00 7.2052631367195215e+00 2.4726530718551434e+00 1.0354937180143212e+01 
76 1 2 1.0280000000000069e+00 -4.6968607655315100e+02 1.0000000000000000e+00 1.2762345126976617e+01 3.9312326038496943e+00 1.1154399793086215e+01 
112 1 2 1.0280000000000020e+00 -4.9146052476311093e+02 1.0000000000000000e+00 1.2763465045078012e+01 3.9455776616291072e+00 1.1138170690178013e+01 
111 1 2 1.0279999999999860e+00 -3.6335657898897250e+02 1.0000000000000000e+00 1.2761563234346712e+01 3.9255370583430964e+00 1.1161204981784550e+01 
75 1 2 1.0279999999999978e+00 -4.8274998309027933e+02 1.0000000000000000e+00 1.2763190803516663e+01 3.9419399139710642e+00 1.1142147240019758e+01 
113 1 2 1.0280000000000078e+00 -4.6167914244997831e+02 1.0000000000000000e+00 1.2762913538786359e+01 3.9338768257553283e+00 1.1151375246191693e+01 
77 1 2 1.0280000000000042e+00 -4.2222604687206842e+02 1.0000000000000000e+00 1.2615875243466515e+01 4.6527781399114643e+00 1.1847887293939449e+01 
117 1 2 1.0279999999999909e+00 -4.5843213924165991e+02 1.0000000000000000e+00 1.2761345849265362e+01 3.9355440151103664e+00 1.1149062807512216e+01 
82 1 2 1.0280000000000045e+00 -3.1828204859747700e+02 1.0000000000000000e+00 1.2614226379219591e+01 4.6380733795708702e+00 1.1860314294934577e+01 
83 1 2 1.0279999999999951e+00 -3.2256029943340076e+02 1.0000000000000000e+00 1.2615684012548916e+01 4.6550912213735955e+00 1.1845746525094411e+01 
88 1 2 1.0280000000000060e+00 -2.9712813013233529e+02 1.0000000000000000e+00 1.2615753087295902e+01 4.6569943504711606e+00 1.1844008786424851e+01 
89 1 2 1.0279999999999827e+00 -3.3197838020000302e+02 1.0000000000000000e+00 1.2614181477272478e+01 4.6367749777182130e+00 1.1861382037192076e+01 
119 1 2 1.0280000000000000e+00 -3.8885274428211591e+02 1.0000000000000000e+00 1.2613696812535157e+01 4.6489743541505373e+00 1.1850855351262107e+01 
124 1 2 1.0280000000000309e+00 -2.7742250971369509e+02 1.0000000000000000e+00 1.2614094760076133e+01 4.6377848185601911e+00 1.1860528641625240e+01 
118 1 2 1.0280000000000125e+00 -3.0819630574689847e+02 1.0000000000000000e+00 1.2694613420614303e+01 4.6623375438584951e+00 1.1126445069603637e+01 
123 1 2 1.0279999999999874e+00 -2.8845185487786767e+02 1.0000000000000000e+00 1.2761958745378475e+01 3.9288388891312982e+00 1.1157214430934783e+01 
42 1 2 9.6559279105893081e-01 -4.3196618971712587e+02 1.0000000000000000e+00 7.4218051454195386e+00 6.2000557761275763e+00 1.5736881157168064e+01 
6 1 2 9.6559279105893081e-01 -4.0436955072905050e+02 1.0000000000000000e+00 7.4218051454195386e+00 6.2000557761275763e+00 1.5736881157168064e+01 
84 1 2 9.6559279105893081e-01 -4.0991788931247783e+02 1.0000000000000000e+00 7.4218051454195386e+00 6.2000557761275763e+00 1.5736881157168124e+01 
48 1 2 9.6559279105893081e-01 -4.1595543846563646e+02 1.0000000000000000e+00 7.4218051454195386e+00 6.2000557761275763e+00 1.5736881157168124e+01 
12 1 2 9.6559279105893081e-01 -4.8674008579543045e+02 1.0000000000000000e+00 7.4218051454195733e+00 6.2000557761275257e+00 1.5736881157168160e+01 
11 1 2 9.6559279105893081e-01 -4.9729130900818768e+02 1.0000000000000000e+00 7.4218051454195733e+00 6.2000557761275648e+00 1.5736881157168165e+01 
18 1 2 9.6559279105893081e-01 -5.4242353925383566e+02 1.0000000000000000e+00 7.4218051454195875e+00 6.2000557761275212e+00 1.5736881157167918e+01 
54 1 2 9.6559279105893081e-01 -4.9455611219707134e+02 1.0000000000000000e+00 7.4218051454195901e+00 6.2000557761275328e+00 1.5736881157167918e+01 
17 1 2 9.6559279105893081e-01 -5.2240936455886208e+02 1.0000000000000000e+00 7.4218051454195493e+00 6.2000557761275328e+00 1.5736881157168160e+01 
52 1 2 9.6559279105893081e-01 -2.9483988772545695e+02 1.0000000000000000e+00 7.4218051454196097e+00 6.2000557761275950e+00 1.5736881157168110e+01 
53 1 2 9.6559279105893081e-01 -3.1425166764042154e+02 1.0000000000000000e+00 7.4218051454195306e+00 6.2000557761275212e+00 1.5736881157167975e+01 
59 1 2 9.6559279105893081e-01 -3.6935022917942820e+02 1.0000000000000000e+00 7.4218051454195066e+00 6.2000557761275257e+00 1.5736881157167932e+01 
23 1 2 9.6559279105893081e-01 -4.0248689528006003e+02 1.0000000000000000e+00 7.4218051454195493e+00 6.2000557761276225e+00 1.5736881157168195e+01 
142 1 2 1.0280098575150842e+00 -3.5974823430933486e+02 1.0000000000000000e+00 1.3299788426365845e+01 1.2526863622248724e+01 6.1080243074884413e+00 
96 1 2 3.7138184271497332e-01 -2.7269792046629766e+02 1.0000000000000000e+00 1.1640178235385942e+01 1.0115879719193234e+01 1.6359112996133859e+01 
101 1 2 3.7138184271497332e-01 -3.6546614294704557e+02 1.0000000000000000e+00 1.1640178235385942e+01 1.0115879719193215e+01 1.6359112996133877e+01 
95 1 2 3.7138184271497332e-01 -2.2987885567174246e+02 1.0000000000000000e+00 1.1640178235385942e+01 1.0115879719193265e+01 1.6359112996133884e+01 
132 1 2 3.7138184271497332e-01 -2.4143058470711739e+02 1.0000000000000000e+00 1.1640178235385942e+01 1.0115879719193243e+01 1.6359112996133877e+01 
90 1 2 3.7138184271497332e-01 -2.2506463026002717e+02 1.0000000000000000e+00 1.1640178235385942e+01 1.0115879719193234e+01 1.6359112996134005e+01 
102 1 2 7.4276368542994675e-01 -4.5728528740262016e+02 1.0000000000000000e+00 7.8956446044441631e+00 1.3099560204011070e+01 1.8322767432035949e+01 
108 1 2 7.4276368542994675e-01 -3.9908234361697981e+02 1.0000000000000000e+00 7.8956446044441098e+00 1.3099560204011024e+01 1.8322767432035963e+01 
97 1 2 7.4276368542994675e-01 -3.7126984316129960e+02 1.0000000000000000e+00 7.8956446044441195e+00 1.3099560204011064e+01 1.8322767432035981e+01 
25 1 2 7.4276368542994675e-01 -4.0332489083436656e+02 1.0000000000000000e+00 7.8956446044441284e+00 1.3099560204011100e+01 1.8322767432035981e+01 
19 1 2 7.4276368542994675e-01 -3.5091438499644738e+02 1.0000000000000000e+00 7.8956446044441515e+00 1.3099560204011057e+01 1.8322767432035981e+01 
24 1 2 7.4276368542994675e-01 -3.5844525621435241e+02 1.0000000000000000e+00 7.8956446044441559e+00 1.3099560204011141e+01 1.8322767432036056e+01 
30 1 2 7.4276368542994675e-01 -4.0409967159238806e+02 1.0000000000000000e+00 7.8956446044441559e+00 1.3099560204011087e+01 1.8322767432036070e+01 
60 1 2 7.4276368542994675e-01 -4.0300169779915456e+02 1.0000000000000000e+00 7.8956446044441506e+00 1.3099560204011068e+01 1.8322767432036070e+01 
66 1 2 7.4276368542994675e-01 -3.9443521110271865e+02 1.0000000000000000e+00 7.8956446044441178e+00 1.3099560204011132e+01 1.8322767432035988e+01 
61 1 2 7.4276368542994675e-01 -3.2235331453676855e+02 1.0000000000000000e+00 7.8956446044441320e+00 1.3099560204011068e+01 1.8322767432035949e+01 
148 1 2 2.9710547417197863e-01 -3.7250481996583414e+02 1.0000000000000000e+00 1.7978267923391691e+01 2.6042688036747261e+00 1.2999591041093582e+01 
155 1 2 2.9710547417197863e-01 -3.4867221962214029e+02 1.0000000000000000e+00 1.7978267923391719e+01 2.6042688036747257e+00 1.2999591041093581e+01 
154 1 2 2.9710547417197863e-01 -3.4463064552267690e+02 1.0000000000000000e+00 1.7978267923391719e+01 2.6042688036747257e+00 1.2999591041093582e+01 
149 1 2 2.9710547417197863e-01 -3.1228006756387578e+02 1.0000000000000000e+00 1.7978267923391691e+01 2.6042688036747261e+00 1.2999591041093581e+01 
78 1 2 5.9421094834395738e-01 -3.8449886294692544e+02 1.0000000000000000e+00 1.5398185464827442e+01 4.3950534072920124e+00 1.7599677898062609e+01 
114 1 2 5.9421094834395738e-01 -3.7895203253133201e+02 1.0000000000000000e+00 1.5398185464827453e+01 4.3950534072919805e+00 1.7599677898062527e+01 
126 1 2 5.9421094834395738e-01 -3.7626492921849461e+02 1.0000000000000000e+00 1.5398185464827538e+01 4.3950534072919991e+00 1.7599677898062538e+01 
156 1 2 5.9421094834395738e-01 -4.9180610256392663e+02 1.0000000000000000e+00 1.5398185464827511e+01 4.3950534072919991e+00 1.7599677898062634e+01 
151 1 2 5.9421094834395738e-01 -4.3437510272053771e+02 1.0000000000000000e+00 1.5398185464827462e+01 4.3950534072919805e+00 1.7599677898062545e+01 
157 1 2 5.9421094834395738e-01 -4.4521286370398701e+02 1.0000000000000000e+00 1.5398185464827442e+01 4.3950534072919991e+00 1.7599677898062684e+01 
120 1 2 5.9421094834395738e-01 -4.4598623232192193e+02 1.0000000000000000e+00 1.5398185464827511e+01 4.3950534072920124e+00 1.7599677898062545e+01 
162 1 2 5.9421094834395738e-01 -4.1345972249768545e+02 1.0000000000000000e+00 1.5398185464827501e+01 4.3950534072919991e+00 1.7599677898062609e+01 
128 1 2 1.0279881170579148e+00 -3.9469430848391448e+02 1.0000000000000000e+00 1.3759791425100090e+01 1.1150637520000549e+01 5.8801023787373383e+00 
107 1 2 1.0279881181571275e+00 -2.9645956142520913e+02 1.0000000000000000e+00 1.3759790041576498e+01 1.1150623676847825e+01 5.8801019326799686e+00 
159 1 2 1.0279881170579148e+00 -3.2216644645126115e+02 1.0000000000000000e+00 1.3759791425100092e+01 1.1150637520000549e+01 5.8801023787373374e+00 
158 1 2 1.0279881170579148e+00 -3.7826865319793365e+02 1.0000000000000000e+00 1.3759791425100092e+01 1.1150637520000549e+01 5.8801023787373374e+00 
165 1 2 1.0279881170579148e+00 -3.4221871747095673e+02 1.0000000000000000e+00 1.3759791425100092e+01 1.1150637520000549e+01 5.8801023787373374e+00 
164 1 2 1.0279881170579148e+00 -3.7856089652604510e+02 1.0000000000000000e+00 1.3759791425100092e+01 1.1150637520000549e+01 5.8801023787373374e+00 
163 1 2 1.0279881170579148e+00 -4.2133360418330881e+02 1.0000000000000000e+00 1.3759791425100092e+01 1.1150637520000549e+01 5.8801023787373374e+00 
172 1 2 1.0279881288726758e+00 -4.0213666937435033e+02 1.0000000000000000e+00 1.3759776778084609e+01 1.1150491397435404e+01 5.8800975670966409e+00 
150 1 2 1.0279930077816695e+00 -4.8724942134862857e+02 1.0000000000000000e+00 1.3930346230709166e+01 1.3954744115720665e+01 5.7366572622443952e+00 
138 1 2 1.0279930077816695e+00 -4.7682188154069621e+02 1.0000000000000000e+00 1.3930346230709166e+01 1.3954744115720665e+01 5.7366572622443952e+00 
144 1 2 1.0279930077816695e+00 -5.0105574868968495e+02 1.0000000000000000e+00 1.3930346230709166e+01 1.3954744115720665e+01 5.7366572622443952e+00 
175 1 2 1.0279930077816695e+00 -5.6115105794351109e+02 1.0000000000000000e+00 1.3930346230709166e+01 1.3954744115720665e+01 5.7366572622443952e+00 
169 1 2 1.0279930077816695e+00 -5.6783626248298583e+02 1.0000000000000000e+00 1.3930346230709166e+01 1.3954744115720665e+01 5.7366572622443952e+00 
139 1 2 1.0279930077816695e+00 -4.9351140303329242e+02 1.0000000000000000e+00 1.3930346230709166e+01 1.3954744115720665e+01 5.7366572622443952e+00 
133 1 2 1.0279930077816695e+00 -4.3197965007136958e+02 1.0000000000000000e+00 1.3930346230709166e+01 1.3954744115720665e+01 5.7366572622443952e+00 
174 1 2 1.0279930077816695e+00 -4.0904100474895233e+02 1.0000000000000000e+00 1.3930346230709166e+01 1.3954744115720665e+01 5.7366572622443952e+00 
137 1 2 1.0279930077816695e+00 -4.6557375307383165e+02 1.0000000000000000e+00 1.3930346230709166e+01 1.3954744115720665e+01 5.7366572622443952e+00 
179 1 2 1.0279930077816695e+00 -5.3093564506256530e+02 1.0000000000000000e+00 1.3930346230709166e+01 1.3954744115720665e+01 5.7366572622443952e+00 
180 1 2 1.0279930077816695e+00 -4.7860441694027338e+02 1.0000000000000000e+00 1.3930346230709166e+01 1.3954744115720665e+01 5.7366572622443952e+00 
178 1 2 1.0279726899563133e+00 -4.7366393577968586e+02 1.0000000000000000e+00 1.3510003174010077e+01 1.7557791750575856e+01 5.9389756252769974e+00 
64 1 2 1.0279726899563122e+00 -3.5160407495578636e+02 1.0000000000000000e+00 1.3510003174010079e+01 1.7557791750575831e+01 5.9389756252769939e+00 
63 1 2 1.0279726899563046e+00 -3.5875220980671560e+02 1.0000000000000000e+00 1.3510003174010096e+01 1.7557791750575753e+01 5.9389756252770303e+00 
100 1 2 1.0279726899563111e+00 -2.7035914955160644e+02 1.0000000000000000e+00 1.3510003174010061e+01 1.7557791750575841e+01 5.9389756252769832e+00 
58 1 2 1.0279726899563111e+00 -4.6504729933570763e+02 1.0000000000000000e+00 1.3510003174010082e+01 1.7557791750575834e+01 5.9389756252770098e+00 
94 1 2 1.0279726899563117e+00 -3.8023027394792337e+02 1.0000000000000000e+00 1.3510003174010080e+01 1.7557791750575838e+01 5.9389756252770027e+00 
171 1 2 1.0279726899563140e+00 -4.4738905516561351e+02 1.0000000000000000e+00 1.3510003174010075e+01 1.7557791750575856e+01 5.9389756252769903e+00 
143 1 2 1.0279726899563111e+00 -3.1484311132166363e+02 1.0000000000000000e+00 1.3510003174010082e+01 1.7557791750575831e+01 5.9389756252770072e+00 
106 1 2 1.0279726899585149e+00 -2.7011377613156515e+02 1.0000000000000000e+00 1.3510003097854213e+01 1.7557791974840505e+01 5.9389756675848151e+00 
105 1 2 1.0280185172791414e+00 -3.5420870839154969e+02 1.0000000000000000e+00 1.4777100964380878e+01 1.9127983939091902e+01 5.1350980935842836e+00 
129 1 2 1.0280226322577020e+00 -4.1921321947467402e+02 1.0000000000000000e+00 1.4863275520892126e+01 1.9054466194584016e+01 5.1018675288965216e+00 
134 1 2 1.0280237419657097e+00 -3.7332509440055264e+02 1.0000000000000000e+00 1.4887272759883768e+01 1.9025981182753913e+01 5.0874941784218075e+00 
135 1 2 1.0280237419657097e+00 -3.9838374498347179e+02 1.0000000000000000e+00 1.4887272759883768e+01 1.9025981182753913e+01 5.0874941784218075e+00 
93 1 2 1.0280240132390304e+00 -4.9743732678114014e+02 1.0000000000000000e+00 1.4900304409097972e+01 1.9018769144539323e+01 5.0957948488232407e+00 
99 1 2 1.0280241928335658e+00 -4.6084026469709278e+02 1.0000000000000000e+00 1.4904582933149342e+01 1.9013120192401033e+01 5.0931244803633211e+00 
98 1 2 1.0280238978579364e+00 -5.1503952811690533e+02 1.0000000000000000e+00 1.4898378927267375e+01 1.9022283561852547e+01 5.0987697591781682e+00 
170 1 2 1.0280237146394118e+00 -3.9066052599223303e+02 1.0000000000000000e+00 1.4898079321004793e+01 1.9027599528155722e+01 5.1078410740665410e+00 
69 1 2 1.0280257168153228e+00 -3.9221684229404610e+02 1.0000000000000000e+00 1.4970220271644685e+01 1.8937768443141572e+01 5.0908238908551091e+00 
104 1 2 1.0280259280335031e+00 -3.8215248305899638e+02 1.0000000000000000e+00 1.5012499649345544e+01 1.8880843625932886e+01 5.0978791815504936e+00 
130 1 2 1.0279999999999980e+00 -3.7698655174087031e+02 1.0000000000000000e+00 1.8532337011468584e+01 1.0253892530380460e+01 1.2300039815375948e+01 
131 1 2 1.0279999999999980e+00 -4.0359955643103279e+02 1.0000000000000000e+00 1.8532337011468584e+01 1.0253892530380460e+01 1.2300039815375948e+01 
166 1 2 1.0279999999999980e+00 -5.0827058106179243e+02 1.0000000000000000e+00 1.8532337011468584e+01 1.0253892530380460e+01 1.2300039815375948e+01 
125 1 2 1.0279999999999980e+00 -3.6786919589151029e+02 1.0000000000000000e+00 1.8532337011468584e+01 1.0253892530380460e+01 1.2300039815375948e+01 
161 1 2 1.0279999999999980e+00 -4.9586219361088723e+02 1.0000000000000000e+00 1.8532337011468584e+01 1.0253892530380460e+01 1.2300039815375948e+01 
167 1 2 1.0279999999999980e+00 -3.3871554353298109e+02 1.0000000000000000e+00 1.8532337011468584e+01 1.0253892530380460e+01 1.2300039815375948e+01 
160 1 2 1.0279999999999980e+00 -3.8550001553581382e+02 1.0000000000000000e+00 1.8532337011468584e+01 1.0253892530380460e+01 1.2300039815375948e+01 
168 1 2 1.0279999999999980e+00 -3.9479802635999874e+02 1.0000000000000000e+00 1.8532337011468584e+01 1.0253892530380460e+01 1.2300039815375948e+01 
173 1 2 1.0279999999999980e+00 -3.1609116313246420e+02 1.0000000000000000e+00 1.8532337011468584e+01 1.0253892530380460e+01 1.2300039815375948e+01 
177 1 2 1.0279999999999965e+00 -4.2030743995568179e+02 1.0000000000000000e+00 1.8532279831901839e+01 1.0253801474440902e+01 1.2299838356597750e+01 

Velocities

141 3.9506174216843408e-13 -2.1363310304338591e-12 -7.5306721030258879e-13
110 3.9506174216843408e-13 -2.1363310304338591e-12 -7.5306721030258879e-13
176 3.9506174216843408e-13 -2.1363310304338591e-12 -7.5306721030258879e-13
145 3.9506174216843408e-13 -2.1363310304338591e-12 -7.5306721030258879e-13
109 3.9506174216843408e-13 -2.1363310304338591e-12 -7.5306721030258879e-13
140 3.9506174216843408e-13 -2.1363310304338591e-12 -7.5306721030258879e-13
147 7.3363559947094810e-13 -2.4458589512324503e-12 -1.0135204306411201e-12
152 3.4669035171581489e-13 -2.0921131012496250e-12 -7.1586236696443078e-13
146 3.4669035171581489e-13 -2.0921131012496250e-12 -7.1586236696443078e-13
153 7.3354494989287794e-13 -2.4461146408622794e-12 -1.0132831563184752e-12
28 -2.3166366248275274e-13 2.4509895007508820e-12 7.4477407759644451e-13
22 3.9296290130230800e-14 3.5124895699228832e-12 8.6761193223521137e-13
16 3.9296290130230800e-14 3.5124895699228832e-12 8.6761193223521137e-13
51 3.9296290130230800e-14 3.5124895699228832e-12 8.6761193223521137e-13
15 3.9296290130230800e-14 3.5124895699228832e-12 8.6761193223521137e-13
21 3.9296290130230800e-14 3.5124895699228832e-12 8.6761193223521137e-13
57 2.1993623894353109e-13 4.2201562817808518e-12 9.4950385610520073e-13
27 -7.3603711739918060e-14 3.0701978767506732e-12 8.1642950582762777e-13
65 2.1771932404525709e-10 -2.1708071399021087e-11 4.4254666773510712e-11
72 2.1771932404525709e-10 -2.1708071399021087e-11 4.4254666773510712e-11
36 2.1771932404525709e-10 -2.1708071399021087e-11 4.4254666773510712e-11
29 2.1771932404525709e-10 -2.1708071399021087e-11 4.4254666773510712e-11
35 2.1771932404525709e-10 -2.1708071399021087e-11 4.4254666773510712e-11
70 2.1771932404525709e-10 -2.1708071399021087e-11 4.4254666773510712e-11
71 2.1771932404525709e-10 -2.1708071399021087e-11 4.4254666773510712e-11
34 2.1771932404525709e-10 -2.1708071399021087e-11 4.4254666773510712e-11
67 2.1819772995560473e-10 -2.1869031807029366e-11 4.3774225410528953e-11
1 2.2151795505628811e-10 -2.2790074132851417e-11 4.0630796559612784e-11
38 2.1233475697703763e-10 -2.7249992305256828e-11 4.1532757108123918e-11
136 2.1659158563864772e-10 -2.1897824240354760e-11 4.4822519982002483e-11
2 2.1712237455914818e-10 -2.1759535235947270e-11 4.4610541013444325e-11
103 2.1667746749170910e-10 -2.1875582963231815e-11 4.4787980126826303e-11
62 2.1726501677295149e-10 -2.1723228382975770e-11 4.4553264515745976e-11
68 2.1867772109482068e-10 -2.1354271283169488e-11 4.3989494178903437e-11
32 2.1638369683443881e-10 -2.1952805709811680e-11 4.4903911484432494e-11
26 2.1652059213257019e-10 -2.1917169056724474e-11 4.4849222411459995e-11
33 2.1703937279365165e-10 -2.1904543471657531e-11 4.4534425159461832e-11
74 2.1499329027221108e-10 -1.8516134230759305e-11 4.8889548594111602e-11
37 2.1403867235189408e-10 -4.0265485527255409e-11 2.8365649360584424e-11
73 2.1751173824044999e-10 -2.5544599153571462e-11 4.0641321894873947e-11
31 2.1694935905069930e-10 -2.7293800780802961e-11 3.9255400253707954e-11
44 -2.2146611169542194e-12 2.3575425074483662e-13 3.9292374523364268e-14