LAMMPS data file via write_data, version 30 Jul 2016, timestep = 50400000

4620 atoms
8 atom types

0.0000000000000000e+00 1.0000000000000000e+02 xlo xhi
0.0000000000000000e+00 4.0000000000000000e+01 ylo yhi
0.0000000000000000e+00 4.0000000000000000e+01 zlo zhi

Masses

1 3.896
2 5.36
3 20.064
4 8.378
5 8.378
6 8.378
7 8.378
8 8.378

Atoms # meso-molecular

4164 4165 2 1.0280000000000000e+00 -2.9843998017531348e+01 1.0000000000000000e+00 1.2803428346722423e+01 3.0283706597656228e+00 1.8018462413361436e-01 
4165 4166 2 1.0280000000000000e+00 -1.7363370004261355e+01 1.0000000000000000e+00 1.4264556225721730e+01 3.4598338453457895e+00 5.3714952849015052e-01 
1894 1895 2 1.0279999999999898e+00 -7.1130436143738393e+01 1.0000000000000000e+00 3.2430215508714802e+01 1.0283076556625295e+01 7.9987784310447715e-02 
2850 2851 2 1.0280000000000000e+00 1.4532848731276069e+01 1.0000000000000000e+00 2.7247892128420805e+01 1.9632040785379896e+00 1.9929052867531012e+00 
2854 2855 2 1.0280000000000005e+00 8.5387236180852881e+01 1.0000000000000000e+00 3.0171645978783669e+01 8.6067709161421355e+00 1.5741129733413592e+00 
2853 2854 2 1.0280000000000005e+00 -9.8361475171319270e+00 1.0000000000000000e+00 3.1211846806579949e+01 9.6658690746814084e+00 2.0688577870311242e+00 
2849 2850 2 1.0280000000000000e+00 5.5542746411879563e+01 1.0000000000000000e+00 2.7478862662982394e+01 3.0616464851548688e+00 3.0831144381329274e+00 
2397 2398 2 1.0279999999999998e+00 1.5221937148000848e+02 1.0000000000000000e+00 2.5809514826475532e+01 5.8191188566135930e+00 3.1380264300067582e+00 
714 715 2 1.0279999999999996e+00 -2.1616211567626749e+02 1.0000000000000000e+00 2.8034860279411024e+01 1.7855701234171093e+01 3.8394135605851663e+00 
2860 2861 2 1.0279999999999998e+00 -2.4067328240090802e+02 1.0000000000000000e+00 2.5955865506058647e+01 5.7562446297575525e+00 4.6946597883879431e+00 
379 380 2 1.0279999999999996e+00 5.3698438447881607e+00 1.0000000000000000e+00 8.4961290515110530e+00 6.5966013581186367e+00 5.3689809782116082e+00 
3913 3914 2 1.0280000000000000e+00 -4.4621823597881303e+01 1.0000000000000000e+00 3.2828193280545477e+01 7.1474770039706534e+00 5.2304662201056598e+00 
756 757 2 1.0279999999999996e+00 -1.5881639262169010e+01 1.0000000000000000e+00 2.7395171243422336e+01 1.6675461880637663e+01 4.6433489484423784e+00 
2641 2642 2 1.0279999999999998e+00 7.7000314258032034e+01 1.0000000000000000e+00 2.3587203337307987e+01 4.7511564945315783e+00 7.0967004522710866e+00 
421 422 2 1.0279999999999996e+00 -5.4569662322132004e+01 1.0000000000000000e+00 9.7594945313381452e+00 6.9883954676316868e+00 6.2049738863001931e+00 
3156 3157 2 1.0280000000000002e+00 -6.6209983335607944e+01 1.0000000000000000e+00 3.0612097989196894e+00 7.8908302380703370e+00 6.8880699585607594e+00 
3158 3159 2 1.0279999999999998e+00 4.6804962582695936e+01 1.0000000000000000e+00 2.1750249431204995e+00 1.4379553561349789e+01 7.3856709375815548e+00 
1790 1791 2 1.0280000000000000e+00 4.6454896264971111e+01 1.0000000000000000e+00 2.2098318708789098e+01 1.0401911686094845e-01 8.5726689723933411e+00 
3176 3177 2 1.0280000000000000e+00 4.6429795068391975e+01 1.0000000000000000e+00 2.2793292538110435e+01 1.4738409116330882e+00 8.2742083730373448e+00 
2640 2641 2 1.0279999999999998e+00 4.9520290147380891e+01 1.0000000000000000e+00 2.2267680408894662e+01 5.3230933318091305e+00 7.7133256202611280e+00 
2820 2821 2 1.0280000000000002e+00 -6.5449660718604591e+01 1.0000000000000000e+00 3.0769086729184272e+00 7.9429112091640164e+00 8.4518858748525005e+00 
2562 2563 2 1.0279985040744191e+00 3.5161161262801976e+01 1.0000000000000000e+00 8.7866678864839596e+00 8.6735197937253030e+00 8.7936563291267742e+00 
3485 3486 2 1.0280014930510692e+00 -1.9869043510910760e+01 1.0000000000000000e+00 8.1534227773065986e+00 9.6906837345515715e+00 7.7872383937631939e+00 
3483 3484 2 1.0279994343998275e+00 -5.0547904799325899e+01 1.0000000000000000e+00 8.9788113558517502e+00 1.1486114607543660e+01 9.2178085948757857e+00 
3157 3158 2 1.0279999999999998e+00 2.3594932684793406e+01 1.0000000000000000e+00 3.6828923220118330e+00 1.4237953379985145e+01 7.7790720796174551e+00 
4112 4113 2 1.0279999999999994e+00 -1.1655158850876495e+02 1.0000000000000000e+00 2.6608699738187951e+01 7.2642163742957067e+00 1.0136227369933982e+01 
3609 3610 2 1.0279999999999994e+00 -4.6399946231430306e+01 1.0000000000000000e+00 2.7885784004756538e+01 7.0774847447834048e+00 9.2515431455550612e+00 
4408 4409 2 1.0280005907178835e+00 2.4025372148756747e+02 1.0000000000000000e+00 7.9516491222398828e+00 1.0475617903771594e+01 9.8844173620894882e+00 
4451 4452 2 1.0279994628647400e+00 -2.8103060422905116e+01 1.0000000000000000e+00 9.6687869308480803e+00 9.9426111993292814e+00 1.0569368402465869e+01 
592 593 2 1.0280000000000005e+00 1.1604335891253548e+01 1.0000000000000000e+00 4.1108535143407970e-01 1.3201519140730973e+01 1.0482474827245944e+01 
842 843 2 1.0279999999999996e+00 1.3736608231298962e+02 1.0000000000000000e+00 5.8122635914144851e+00 1.9654934661194737e+01 1.0727827471326895e+01 
1257 1258 2 1.0279999999999967e+00 -2.2147869868626356e+02 1.0000000000000000e+00 1.2657761858419709e+01 2.0942898551001787e-01 1.1669690584798126e+01 
209 210 2 1.0280005928665128e+00 -3.0444663616076049e+01 1.0000000000000000e+00 9.8851935973844718e+00 1.1476935922613398e+01 1.0917352959136927e+01 
129 130 2 1.0280000000000005e+00 -8.2594724446371828e+01 1.0000000000000000e+00 1.2075186012360968e+00 1.2556379001964350e+01 1.1664831534083710e+01 
3616 3617 2 1.0280000000000007e+00 6.3160899561549869e+01 1.0000000000000000e+00 1.3318342469763435e+01 1.3596133390364264e+01 1.1772834621768622e+01 
2118 2119 2 1.0280000000000018e+00 8.2801839411708357e+01 1.0000000000000000e+00 3.2974656351289063e+01 1.2483059051446226e+01 1.0867858024694590e+01 
2793 2794 2 1.0279999999857015e+00 -3.8323438374071710e+00 1.0000000000000000e+00 3.8500747162147531e+00 1.1637224759075739e+00 1.3523837247893150e+01 
2794 2795 2 1.0280000000212670e+00 -4.5870353223269378e+00 1.0000000000000000e+00 5.2461229911562839e+00 8.7621074716271985e-01 1.2878186163918436e+01 
3738 3739 2 1.0280001866187034e+00 -1.2045734718390216e+02 1.0000000000000000e+00 5.5493824659785247e+00 8.8844383762790766e+00 1.3696666024575476e+01 
4366 4367 2 1.0279998129859573e+00 4.4798503561776897e+01 1.0000000000000000e+00 4.7477345781100659e+00 9.7294130714263396e+00 1.2538056583235370e+01 
3895 3896 2 1.0280000601288335e+00 4.1814300060372673e+01 1.0000000000000000e+00 1.1101963908476948e+01 1.1972192429531580e+01 1.2637905770739952e+01 
3853 3854 2 1.0279999294254121e+00 -1.3314170744925837e+01 1.0000000000000000e+00 1.0073916691691451e+01 1.3110343531975440e+01 1.2325400063306448e+01 
3617 3618 2 1.0280000000000007e+00 9.1253593523404362e+01 1.0000000000000000e+00 1.3578813531939646e+01 1.3027801270653365e+01 1.3207279646757721e+01 
4365 4366 2 1.0280001866186317e+00 3.0748822639842508e+01 1.0000000000000000e+00 3.7810219661610982e+00 1.0291036251215498e+01 1.3924422295222680e+01 
3822 3823 2 1.0279998129859982e+00 -5.7755563018247024e+01 1.0000000000000000e+00 5.1943978811550604e+00 1.0267172778999603e+01 1.4761558166353861e+01 
3108 3109 2 1.0280000000000000e+00 1.0435715979166471e+01 1.0000000000000000e+00 2.0813832204472710e+01 1.9971518563061675e+01 1.4281546762678143e+01 
4494 4495 2 1.0280000000000000e+00 2.3753691927172468e+01 1.0000000000000000e+00 2.1445760319491171e+01 1.8875037808172149e+01 1.5201805375160731e+01 
378 379 2 1.0279999999999994e+00 -5.6850349037986163e+01 1.0000000000000000e+00 3.0469300694899438e+01 5.1745292994055179e+00 1.5463813041171885e+01 
337 338 2 1.0279999999999994e+00 -5.7238980892177906e+01 1.0000000000000000e+00 3.1937403656895775e+01 5.5315518361776990e+00 1.5870860585638884e+01 
2073 2074 2 1.0279999999670588e+00 -4.5926993240260217e+01 1.0000000000000000e+00 3.3162097504511735e+01 9.7718709302632210e+00 1.6531614176677103e+01 
2933 2934 2 1.0279999999999994e+00 -1.9165204225077127e+02 1.0000000000000000e+00 2.1036165332255941e+01 1.1976514318550274e+01 1.5437667475342087e+01 
3815 3816 2 1.0279999999999994e+00 3.2454385569377131e+01 1.0000000000000000e+00 2.0743244629500374e+01 1.3346013760231966e+01 1.6135627247372678e+01 
4111 4112 2 1.0279999999999987e+00 -1.5212889621448721e+02 1.0000000000000000e+00 2.8872757738325944e+01 1.2362815799803160e+01 1.9783443773629180e+01 
1215 1216 2 1.0279999999999987e+00 -5.6072208068731655e+01 1.0000000000000000e+00 2.8952878765459300e+01 1.3501680627048419e+01 1.8713375257824232e+01 
1045 1046 2 1.0280000000000002e+00 1.4077875046951005e+01 1.0000000000000000e+00 1.8793909405859349e+01 1.4155386553975224e+00 2.1368070882623051e+01 
1002 1003 2 1.0280000000000002e+00 -3.0711593865274075e+01 1.0000000000000000e+00 1.9708952284424157e+01 2.3009498374221602e+00 2.0458553059061671e+01 
1135 1136 2 1.0280000000000000e+00 7.8126282413766631e+01 1.0000000000000000e+00 3.0620257060083684e+01 1.5515824650336469e+00 2.0875186428547106e+01 
1597 1598 2 1.0280000000000000e+00 4.4261860776390350e+01 1.0000000000000000e+00 3.0851086181123204e+01 2.9483324936809230e+00 2.0208638323309213e+01 
4248 4249 2 1.0280000000000007e+00 4.6738014338983120e+01 1.0000000000000000e+00 2.3870120316277557e+01 1.0486647850865070e+01 2.0865432462311006e+01 
4585 4586 2 1.0280000000000000e+00 -1.6703547074705028e+01 1.0000000000000000e+00 3.2328360974644177e+01 1.6435252891535594e+01 2.1227145497910040e+01 
2497 2498 2 1.0280000000000020e+00 8.2629673857092854e+01 1.0000000000000000e+00 2.7248320331197899e+01 4.5522792776209908e-01 2.2723802064311176e+01 
462 463 2 1.0279999999999994e+00 -5.4300741789548042e+01 1.0000000000000000e+00 6.7606557552054269e+00 5.8050148498149152e+00 2.2892877508532546e+01 
420 421 2 1.0279999999999994e+00 5.6881254847491771e+00 1.0000000000000000e+00 8.0308028350778287e+00 5.8318420794559076e+00 2.1979375566835827e+01 
803 804 2 1.0280000000000007e+00 9.7468136004229763e+01 1.0000000000000000e+00 3.2531401200745940e+01 4.9216902414381840e+00 2.2948381787594066e+01 
4206 4207 2 1.0280000000000007e+00 -2.1825833495693253e+01 1.0000000000000000e+00 2.3759653383075982e+01 9.6632015995817877e+00 2.2191408491565987e+01 
4584 4585 2 1.0280000000000000e+00 -3.0694897679412229e+01 1.0000000000000000e+00 3.1241947415204692e+01 1.6235708839143754e+01 2.2335462623674747e+01 
2442 2443 2 1.0279999999999994e+00 7.4680216626616058e+01 1.0000000000000000e+00 2.5105330483254871e+01 5.7113080074784097e+00 2.3960451142386560e+01 
2443 2444 2 1.0279999999999994e+00 6.0613679412249809e+01 1.0000000000000000e+00 2.6453870798146255e+01 5.0250926071238915e+00 2.3561669816756574e+01 
3528 3529 2 1.0280000000000000e+00 4.6995366503106723e+01 1.0000000000000000e+00 2.9641226207812732e+01 2.0251017474728630e+00 2.5905218652732408e+01 
2646 2647 2 1.0280000000000000e+00 2.4335779013794610e+02 1.0000000000000000e+00 2.8660962355882500e+01 1.5971208012028197e+00 2.7047319433080173e+01 
4536 4537 2 1.0279999993273445e+00 -6.2621344618975343e+01 1.0000000000000000e+00 3.2920039549563086e+01 4.9045582136659140e+00 2.6600974411057376e+01 
3989 3990 2 1.0280000006293328e+00 -7.7144243122905340e+00 1.0000000000000000e+00 3.1998055839618800e+01 5.6067359550794134e+00 2.7675569191956793e+01 
3487 3488 2 1.0280000000000000e+00 4.5135071833076680e+01 1.0000000000000000e+00 2.2688180413220749e+01 1.0169649676136466e+01 2.6239223419107422e+01 
2605 2606 2 1.0280000000000000e+00 2.4381171749937903e+02 1.0000000000000000e+00 2.3625183419390069e+01 1.0156714200502176e+01 2.7492354354860762e+01 
1348 1349 2 1.0279999999999996e+00 -1.0941320307210965e+02 1.0000000000000000e+00 3.2803170623251937e+01 1.9060893585565715e+01 2.6440160956402849e+01 
709 710 2 1.0280000000000014e+00 -2.8404214412515117e+01 1.0000000000000000e+00 3.1500323671933081e+01 1.3457590788937994e+01 2.9152795546460379e+01 
3995 3996 2 1.0280000000000007e+00 -1.9914553214601995e+01 1.0000000000000000e+00 2.4847354305604703e+01 1.9584831498025039e+01 2.8127110793523933e+01 
710 711 2 1.0280000000000014e+00 -3.2735968722706886e+01 1.0000000000000000e+00 3.0063731407522702e+01 1.3701709874169621e+01 2.9722960119460303e+01 
4237 4238 2 1.0279999999999978e+00 -2.6048351383044928e+01 1.0000000000000000e+00 2.7865131771600566e+01 2.5817292498686673e+00 3.2223021957096009e+01 
4279 4280 2 1.0279999999999978e+00 5.1859684652195163e+01 1.0000000000000000e+00 2.9165348471577893e+01 1.7537967717147132e+00 3.1953868753585041e+01 
1217 1218 2 1.0280000000000029e+00 5.7791241252929083e+01 1.0000000000000000e+00 2.4539725728527664e+01 7.0773138140031167e+00 3.1239783655256197e+01 
2183 2184 2 1.0280000000000029e+00 -6.0107970852503492e+00 1.0000000000000000e+00 2.4690994840517096e+01 7.0299245675918538e+00 3.2796495259030237e+01 
881 882 2 1.0279999999999987e+00 1.3638559319779139e+02 1.0000000000000000e+00 2.6019779961386043e+01 1.0666213333386105e+01 3.2717109848811596e+01 
419 420 2 1.0279999999999987e+00 -8.7113233491947938e+01 1.0000000000000000e+00 2.4608358730824904e+01 1.0882221668684625e+01 3.3357195476868597e+01 
1511 1512 2 1.0280000000000031e+00 5.9120051338403940e+01 1.0000000000000000e+00 4.9001883871943064e-01 1.4507686769605417e+01 3.3287438298660291e+01 
3194 3195 2 1.0279999999999991e+00 -3.4875849871732072e+01 1.0000000000000000e+00 1.0525531689157113e+01 1.6565950456321097e+01 3.3656836448079908e+01 
3820 3821 2 1.0280000000000018e+00 4.7451002572497245e+01 1.0000000000000000e+00 7.7136977985071669e+00 1.9909730074747447e+01 3.2673391770234559e+01 
2521 2522 2 1.0280000000000000e+00 3.5438910904683823e+01 1.0000000000000000e+00 1.7167224324722746e+01 1.5862574124508029e+00 3.4289045119400832e+01 
3446 3447 2 1.0280000000000000e+00 -1.9059411889481154e+01 1.0000000000000000e+00 1.8140104029669654e+01 2.8106694697474159e+00 3.4236136746799133e+01 
2563 2564 2 1.0279999999999998e+00 1.4230091105651972e+01 1.0000000000000000e+00 3.1863970176822903e+01 1.1855549745958728e+01 3.4530836883973109e+01 
3153 3154 2 1.0279999999999998e+00 8.6005698028235898e+01 1.0000000000000000e+00 2.2866191624204554e+01 1.3834767340031295e+01 3.5289420367308487e+01 
3154 3155 2 1.0279999999999998e+00 -8.6975913759841887e+00 1.0000000000000000e+00 2.2562271940593941e+01 1.5117393272192125e+01 3.4446222498297388e+01 
2732 2733 2 1.0279999999999991e+00 -6.4290523308996868e+01 1.0000000000000000e+00 1.1232803059511678e+01 1.7726694190825771e+01 3.4432026936751690e+01 
3860 3861 2 1.0279999999999998e+00 -1.8532579918419444e+01 1.0000000000000000e+00 9.7389740054768819e+00 2.7575904576982269e+00 3.5614976174356343e+01 
3902 3903 2 1.0279999999999998e+00 -5.9058705029223894e+01 1.0000000000000000e+00 1.1129342217826698e+01 2.3852175783351761e+00 3.6228730013484309e+01 
1435 1436 2 1.0279999999999991e+00 1.2179329225887660e+01 1.0000000000000000e+00 1.3332710573682320e+01 8.8936435157000204e+00 3.5882391410641326e+01 
2479 2480 2 1.0279999999999998e+00 1.6197497976014571e+01 1.0000000000000000e+00 3.1287787094444063e+01 1.2064862304121046e+01 3.5970517546765464e+01 
1436 1437 2 1.0279999999999991e+00 5.1817752634762130e+01 1.0000000000000000e+00 1.3388591045200513e+01 9.2255222085488420e+00 3.7410531786515918e+01 
42 43 2 1.0280000000000007e+00 -5.2999464796992584e+01 1.0000000000000000e+00 1.7699909228625810e+01 1.0326127371407400e+01 3.7581545168718584e+01 
2230 2231 2 1.0279999999999894e+00 -7.1166828967623530e+01 1.0000000000000000e+00 3.2134843853507547e+01 9.9826145608202026e+00 3.8410245139199247e+01 
84 85 2 1.0280000000000007e+00 7.3053967964381350e+00 1.0000000000000000e+00 1.8484859685205869e+01 9.3451886900015708e+00 3.8514331953722966e+01 
4579 4580 2 1.0279999999999996e+00 -5.3721890948335279e+01 1.0000000000000000e+00 1.3620391031524312e+01 2.7820997793729696e+01 2.0738366323171867e-01 
4537 4538 2 1.0279999999999996e+00 6.1587524603411419e+00 1.0000000000000000e+00 1.2172874859307669e+01 2.8385284325399457e+01 2.0952057569849480e-02 
503 504 2 1.0280000000000009e+00 -8.6843498032413834e+01 1.0000000000000000e+00 1.0527621060444751e+01 3.2423949188075717e+01 1.5134350510368020e+00 
2649 2650 2 1.0280000000000018e+00 1.5198826205496087e+02 1.0000000000000000e+00 2.0014701364602939e+01 3.4288459364223264e+01 1.0472786424647238e+00 
965 966 2 1.0280000000000009e+00 -4.9659037398108872e+01 1.0000000000000000e+00 1.1974595077413809e+01 3.2735847608092854e+01 2.0208448184334333e+00 
1807 1808 2 1.0280000000000000e+00 5.9998973186617192e+01 1.0000000000000000e+00 2.3141773221707567e+00 3.6994520078855452e+01 2.7845177043997409e+00 
1304 1305 2 1.0280000000000000e+00 -1.3597105078897886e+02 1.0000000000000000e+00 1.2299724866069610e+00 3.7125253542892565e+01 3.9051816764106233e+00 
551 552 2 1.0280000000000000e+00 9.6220990964884209e+01 1.0000000000000000e+00 5.0801632079231362e+00 3.3162399317565033e+01 5.4219121788525406e+00 
47 48 2 1.0280000000000000e+00 -3.6786729301431563e+01 1.0000000000000000e+00 6.4573323696525984e+00 3.3852773371987517e+01 5.1475622796291223e+00 
2691 2692 2 1.0279999999999998e+00 -2.2685108164235992e+01 1.0000000000000000e+00 2.1330957331795723e+01 2.1286433534525152e+01 6.5088891470608257e+00 
2902 2903 2 1.0280000000000000e+00 -2.4394024854044766e+01 1.0000000000000000e+00 3.2168065163815861e+01 3.5211170898895368e+01 6.3696427832483966e+00 
2733 2734 2 1.0279999999999998e+00 -1.2704845861660125e+01 1.0000000000000000e+00 2.1289392540383975e+01 2.2151702571476726e+01 7.8119858296020963e+00 
380 381 2 1.0279999999999996e+00 -8.7152884928098985e+01 1.0000000000000000e+00 7.1523584084902874e+00 2.0459765840749899e+01 1.0658029506423246e+01 
3608 3609 2 1.0280000000000014e+00 1.1183798626057428e+02 1.0000000000000000e+00 3.1369736815044327e+01 2.0856465047976570e+01 9.8694100452157230e+00 
1214 1215 2 1.0280000000000014e+00 8.2924039209521908e+01 1.0000000000000000e+00 3.1227079395519404e+01 2.2408351488612123e+01 1.0010038770120202e+01 
4413 4414 2 1.0280000000000002e+00 4.5392689300510355e+01 1.0000000000000000e+00 1.3131910504101086e+01 2.5151344477206976e+01 1.0189896049424862e+01 
423 424 2 1.0280000000000000e+00 -5.0558197946649926e+01 1.0000000000000000e+00 2.2756284538841854e+01 3.6453957959261913e+01 1.0461699147504522e+01 
422 423 2 1.0280000000000000e+00 -3.6295539870121743e+01 1.0000000000000000e+00 2.1587416895761375e+01 3.7426146626706014e+01 1.0091460400079269e+01 
838 839 2 1.0279999999999969e+00 4.7810977207482409e+01 1.0000000000000000e+00 1.3365084847264960e+01 3.9744284066076602e+01 1.0353706733978290e+01 
4417 4418 2 1.0280000000000002e+00 -8.8931559774089060e+00 1.0000000000000000e+00 1.2086616535425627e+01 2.4755945072467888e+01 1.1285112435361883e+01 
1054 1055 2 1.0280000000112826e+00 -2.2104774450907377e+02 1.0000000000000000e+00 4.9547092191438526e+00 3.8024581564044858e+01 1.2146350747330048e+01 
2985 2986 2 1.0280000000000020e+00 -2.3095615917205291e+02 1.0000000000000000e+00 2.8386634072011706e+01 2.1026664419019117e+01 1.3582636708718006e+01 
2523 2524 2 1.0280000000000020e+00 1.9511497451900817e+02 1.0000000000000000e+00 2.9860176413077870e+01 2.1552857953685120e+01 1.3599142326040383e+01 
88 89 2 1.0279999999999996e+00 -9.6397155060529798e+01 1.0000000000000000e+00 3.6806191708817551e+00 2.6465941227178451e+01 1.3176208631512441e+01 
1429 1430 2 1.0280000000000002e+00 -8.3748369906040324e+01 1.0000000000000000e+00 2.6479443054777761e+01 3.3625368901939773e+01 1.2999831029913231e+01 
549 550 2 1.0280000000468479e+00 4.8295736214673177e+01 1.0000000000000000e+00 5.2151340368989327e+00 3.8677900072479886e+01 1.3544146491698401e+01 
4369 4370 2 1.0279999999999996e+00 -1.8779368482520812e+02 1.0000000000000000e+00 1.0969239734208744e+01 2.5239990216722003e+01 1.4668871029195799e+01 
4328 4329 2 1.0279999999999996e+00 -3.2646292297669198e+01 1.0000000000000000e+00 1.2415612720458755e+01 2.4828432909157925e+01 1.5101427233034217e+01 
550 551 2 1.0279999999999996e+00 7.7383098965912239e+01 1.0000000000000000e+00 2.8199135046479471e+00 2.7479374995753894e+01 1.4001203695174198e+01 
967 968 2 1.0280000000000002e+00 -7.9857661002924534e+00 1.0000000000000000e+00 2.5698565584008080e+01 3.2709857783978656e+01 1.4000105427654271e+01 
1097 1098 2 1.0280000000000002e+00 8.4132107363650078e+01 1.0000000000000000e+00 1.6709230818150481e+01 2.2406978280567660e+01 1.6818374037224508e+01 
3407 3408 2 1.0280000000000000e+00 8.3644292048534624e+01 1.0000000000000000e+00 2.6230542778055650e+01 2.3872076794146299e+01 1.6762241157081682e+01 
3406 3407 2 1.0280000000000000e+00 -5.5118560847645369e+01 1.0000000000000000e+00 2.7570384975694399e+01 2.4630137063936374e+01 1.6481801118865604e+01 
2816 2817 2 1.0280000000000000e+00 -1.0297922486260256e+02 1.0000000000000000e+00 2.2569029508390937e+01 2.7168585137823396e+01 1.5626040969231406e+01 
2859 2860 2 1.0280000000000000e+00 -5.8503196819348332e+01 1.0000000000000000e+00 2.2333706977913906e+01 2.8191549551415687e+01 1.6786491837392543e+01 
1096 1097 2 1.0280000000000002e+00 -5.5501240553530735e+01 1.0000000000000000e+00 1.6938050394045863e+01 2.0934425233860292e+01 1.7295561870852076e+01 
1010 1011 2 1.0279999999999987e+00 4.6689739011385250e+01 1.0000000000000000e+00 2.8960048200062090e+01 2.0996587220016309e+01 1.7777505814237752e+01 
126 127 2 1.0279999999999987e+00 -6.2499045045207879e+01 1.0000000000000000e+00 3.1841007007283352e+01 2.0371925554304298e+01 1.7111468161841039e+01 
1472 1473 2 1.0279999999999987e+00 5.9134803779689463e+01 1.0000000000000000e+00 2.8786039309125108e+01 2.2471608040802472e+01 1.7285049129478089e+01 
4073 4074 2 1.0279999997314659e+00 -2.5200907828055335e+01 1.0000000000000000e+00 3.0592902664480629e+01 3.5960682012099866e+01 1.9390522531059414e+01 
4031 4032 2 1.0280000001944016e+00 -1.3442444030527102e+02 1.0000000000000000e+00 3.1957648048845893e+01 3.5674495313698245e+01 1.8637062394189819e+01 
1684 1685 2 1.0280000000000005e+00 -2.6247342158571637e+01 1.0000000000000000e+00 1.4801620631250756e+00 3.8398710060671668e+01 1.9128235591122674e+01 
1642 1643 2 1.0280000000000005e+00 2.9500033441835932e+01 1.0000000000000000e+00 2.4484933212172448e+00 3.9596325949792927e+01 1.9404875897239116e+01 
1599 1600 2 1.0280000004378216e+00 -2.3064003878270756e+02 1.0000000000000000e+00 3.1864822397300525e+01 3.4926145094727801e+01 2.0420238310618725e+01 
3072 3073 2 1.0279999992312354e+00 -1.3584246651633191e+02 1.0000000000000000e+00 3.2238452872067889e+01 3.2027207859623353e+01 2.2578646804466604e+01 
3071 3072 2 1.0280000007780250e+00 2.6477790715539179e+01 1.0000000000000000e+00 3.1089817239753650e+01 3.2872201776640871e+01 2.1925745600003403e+01 
715 716 2 1.0280000000280392e+00 -1.3995494474364710e+01 1.0000000000000000e+00 3.2958075356243697e+01 3.3699149606279853e+01 2.1592842468958860e+01 
800 801 2 1.0279999997848246e+00 -2.5750001117557581e+01 1.0000000000000000e+00 3.2592584605523079e+01 3.5586696385310908e+01 2.1863163523194206e+01 
2496 2497 2 1.0280000000000014e+00 8.3064483944880294e+01 1.0000000000000000e+00 2.5878928559121952e+01 3.9742262765902325e+01 2.2978607784002108e+01 
169 170 2 1.0279999999999991e+00 -1.1741507474637539e+01 1.0000000000000000e+00 1.9331030685759114e+01 2.2886540481006001e+01 2.4309481894232320e+01 
3948 3949 2 1.0280000002039353e+00 -2.1909436133290609e+02 1.0000000000000000e+00 3.2593810515503485e+01 2.3235564577621325e+01 2.4293008736422649e+01 
1553 1554 2 1.0280000005334571e+00 -3.2690186709942054e+01 1.0000000000000000e+00 3.1930054186649716e+01 3.4894915258740035e+01 2.3297610704900301e+01 
1972 1973 2 1.0279999997127169e+00 1.5454949732795995e+02 1.0000000000000000e+00 3.3176796994751669e+01 3.4964674018977711e+01 2.4426001985315072e+01 
674 675 2 1.0279999999999985e+00 -8.7855378907683644e+01 1.0000000000000000e+00 2.2385893377064953e+01 3.9681009717640769e+01 2.4586235549258340e+01 
632 633 2 1.0279999999999991e+00 -6.9389211693313140e+00 1.0000000000000000e+00 1.9387398904738607e+01 2.1869033303550811e+01 2.5496908047708203e+01 
3990 3991 2 1.0279999976926704e+00 -1.6775896628190171e+01 1.0000000000000000e+00 3.2961297256666462e+01 2.5184429420075279e+01 2.4956178501323979e+01 
2178 2179 2 1.0280000000000000e+00 4.9404185490840462e+01 1.0000000000000000e+00 1.2863274984365625e+00 2.6814709051695708e+01 2.5017966302277909e+01 
2179 2180 2 1.0280000000000000e+00 7.9884826822670661e+01 1.0000000000000000e+00 2.2837521339883615e+00 2.8013275891295034e+01 2.4887349574216334e+01 
3867 3868 2 1.0280000002339957e+00 1.1285551422078059e+02 1.0000000000000000e+00 3.2457278395216782e+01 3.1066703742420465e+01 2.5627399356179811e+01 
3825 3826 2 1.0279999990594999e+00 7.9311210198609018e+01 1.0000000000000000e+00 3.2293972255781611e+01 3.2664637760613331e+01 2.5163772429087444e+01 
3908 3909 2 1.0279999999999985e+00 -8.3107252105802615e+01 1.0000000000000000e+00 2.2006256287486579e+01 3.8187122141044760e+01 2.4855780890436499e+01 
4161 4162 2 1.0279999999999991e+00 -5.0023482232347263e+01 1.0000000000000000e+00 1.9709072492251579e+01 2.5375345690766977e+01 2.7265119625788852e+01 
2984 2985 2 1.0279999995878260e+00 -8.9846832966385747e+01 1.0000000000000000e+00 3.0923565644802846e+01 2.9647314885223569e+01 2.7134870222375248e+01 
2522 2523 2 1.0280000000750380e+00 -7.4182408743119467e+01 1.0000000000000000e+00 3.2746479576863024e+01 2.9577030098929956e+01 2.6509820326595289e+01 
1262 1263 2 1.0279999992341620e+00 4.6572171321132274e+01 1.0000000000000000e+00 2.7173756802663402e+01 3.1664988523520137e+01 2.7551931925414326e+01 
3909 3910 2 1.0279999993421172e+00 2.9436775382330126e+01 1.0000000000000000e+00 3.0779890723457701e+01 3.1148230601749201e+01 2.7628821482423348e+01 
3910 3911 2 1.0280000037992931e+00 -7.0649108761771245e+01 1.0000000000000000e+00 3.3223721382365994e+01 3.2342860527566231e+01 2.6969556105471113e+01 
675 676 2 1.0279999974355671e+00 3.1115742763420396e+01 1.0000000000000000e+00 3.2551220899986362e+01 3.3958157940327482e+01 2.6308611035503574e+01 
4284 4285 2 1.0280000000000000e+00 -6.0883236802480454e+01 1.0000000000000000e+00 1.1692425274443858e+01 3.6613762652155067e+01 2.6965820585695543e+01 
4243 4244 2 1.0280000000000000e+00 -6.2378593917659231e+01 1.0000000000000000e+00 1.3202135206362559e+01 3.6844889063656275e+01 2.7306166888180048e+01 
1138 1139 2 1.0279999997838707e+00 -5.2051484884825825e+01 1.0000000000000000e+00 3.2803226474777667e+01 3.6382650519663777e+01 2.7483945182237665e+01 
4157 4158 2 1.0279999999999987e+00 -8.7342564211133890e+01 1.0000000000000000e+00 8.5648188664874447e-01 3.9903628469167700e+01 2.7190017799333322e+01 
3695 3696 2 1.0279999999999987e+00 -4.9898431558658913e+01 1.0000000000000000e+00 2.0408116761876545e+00 3.8881630990718300e+01 2.7153096181057961e+01 
3953 3954 2 1.0280000000000007e+00 -5.8514540915244226e+01 1.0000000000000000e+00 2.3401231532679599e+01 2.0127498359642015e+01 2.8377551814869179e+01 
4160 4161 2 1.0279999999999991e+00 -3.6306969481321588e+01 1.0000000000000000e+00 1.9178763411999920e+01 2.4251692855700490e+01 2.8216253521668904e+01 
1598 1599 2 1.0280000014088557e+00 -9.0300835701732098e+01 1.0000000000000000e+00 2.8922782809777903e+01 3.1751597497245989e+01 2.8201552659567248e+01 
2900 2901 2 1.0280000000000002e+00 -3.2455540339509199e+01 1.0000000000000000e+00 1.3182564248966735e+01 3.3651353708338640e+01 2.8304620369512673e+01 
1724 1725 2 1.0280000005535055e+00 5.9050816340988348e+01 1.0000000000000000e+00 2.6705660746689095e+01 3.2928643065969126e+01 2.8420824159136405e+01 
2060 2061 2 1.0279999985986759e+00 -7.3950016717913087e+01 1.0000000000000000e+00 3.0040143647119621e+01 3.2905450736118517e+01 2.8087611951339472e+01 
2939 2940 2 1.0280000000000002e+00 -3.2275132279308082e+01 1.0000000000000000e+00 1.1698927834624849e+01 3.3928908599151626e+01 2.8717252620877989e+01 
3283 3284 2 1.0279999995163378e+00 -2.5934565530962963e+01 1.0000000000000000e+00 2.8130661742674533e+01 3.4133314363438458e+01 2.8502917801197356e+01 
3324 3325 2 1.0280000004788494e+00 1.8785255539895921e+01 1.0000000000000000e+00 2.9359339462218195e+01 3.5098720524519905e+01 2.8862434769335838e+01 
759 760 2 1.0279999998744058e+00 7.9773432011753258e+01 1.0000000000000000e+00 3.1647714797749533e+01 3.4828286316719030e+01 2.9141164495410575e+01 
717 718 2 1.0280000001136389e+00 1.1332060316634275e+02 1.0000000000000000e+00 3.1624506638716259e+01 3.6450924836959302e+01 2.8774723354873736e+01 
1050 1051 2 1.0279999999999991e+00 -6.2734396800605978e+01 1.0000000000000000e+00 2.2099304011408975e+01 3.3801428384511148e+01 2.9301816505973854e+01 
3993 3994 2 1.0279999998878131e+00 7.9774474532909025e+01 1.0000000000000000e+00 3.0152688269409605e+01 3.3698938012558614e+01 2.9811016181202941e+01 
3951 3952 2 1.0280000001794927e+00 1.1365193404021969e+02 1.0000000000000000e+00 3.1737925830526589e+01 3.3315535735174393e+01 3.0056561274696062e+01 
1512 1513 2 1.0279999999999991e+00 -7.4215407667715681e+01 1.0000000000000000e+00 2.0876942750619939e+01 3.4534787574472695e+01 2.9947181789254152e+01 
3399 3400 2 1.0280000000000018e+00 -2.2198124624460405e+02 1.0000000000000000e+00 6.9679932104187099e+00 2.0097386893314788e+01 3.1310604667275605e+01 
508 509 2 1.0280000000000002e+00 -1.6199594680722322e+02 1.0000000000000000e+00 1.5590069288415641e+01 2.0370224798783671e+01 3.2184178943540431e+01 
4497 4498 2 1.0279999999999994e+00 -4.7385334665470310e+01 1.0000000000000000e+00 2.4427123307514574e+01 2.3511512623579236e+01 3.2164675830220560e+01 
507 508 2 1.0280000000000002e+00 -2.8224668182395668e+01 1.0000000000000000e+00 1.4236910397110599e+01 2.0181405950865976e+01 3.2946928941767510e+01 
4539 4540 2 1.0279999999999994e+00 -4.1795902118203429e+01 1.0000000000000000e+00 2.5214975518689567e+01 2.4636539153310043e+01 3.2914397980747545e+01 
3486 3487 2 1.0279999999999982e+00 7.7408339811593208e+01 1.0000000000000000e+00 2.5651326077295892e+01 2.1561340322007712e+01 3.5354888567376264e+01 
3946 3947 2 1.0279999999999982e+00 1.7070732609245866e+01 1.0000000000000000e+00 2.4544328472381054e+01 2.2229833867853664e+01 3.4473893797745134e+01 