LAMMPS data file via write_data, version 30 Jul 2016, timestep = 100400000

644 atoms
2 atom types

0.0000000000000000e+00 2.0000000000000000e+01 xlo xhi
0.0000000000000000e+00 2.0000000000000000e+01 ylo yhi
0.0000000000000000e+00 2.0000000000000000e+01 zlo zhi

Masses

1 4.31
2 3.896

Atoms # meso-molecular

189 0 1 4.9999993144122028e+00 -4.8317657055240591e+02 1.0000000000000000e+00 5.0219776891779810e+00 9.2876752555781845e+00 8.4029090004939366e+00 
190 0 1 4.9999993143573880e+00 -4.6236072066844287e+02 1.0000000000000000e+00 5.0219777372033700e+00 9.2876764075348905e+00 8.4029087987957709e+00 
98 0 1 5.0001293035103025e+00 -5.0530035482664221e+02 1.0000000000000000e+00 5.9112104561777219e+00 8.2954478427361185e+00 8.4776497741424421e+00 
238 0 1 4.9999993148225608e+00 -3.7855030253910928e+02 1.0000000000000000e+00 5.0219773091663562e+00 9.2876665354192003e+00 8.4029104112018249e+00 
455 0 1 4.9999993148681297e+00 -3.2358704158211714e+02 1.0000000000000000e+00 5.0219772674878405e+00 9.2876655774873704e+00 8.4029105665912951e+00 
526 0 1 4.9999993146928494e+00 -5.2628629113676652e+02 1.0000000000000000e+00 5.0219774287995849e+00 9.2876692916824037e+00 8.4029099620097902e+00 
202 0 1 4.9999993148406059e+00 -2.8544436455626283e+02 1.0000000000000000e+00 5.0219772923036778e+00 9.2876661506507183e+00 8.4029104727630326e+00 
239 0 1 4.9999993143738468e+00 -5.2157698346748339e+02 1.0000000000000000e+00 5.0219777218938395e+00 9.2876760560825282e+00 8.4029088557152232e+00 
354 0 1 5.0001440026329451e+00 -3.3395699181038941e+02 1.0000000000000000e+00 6.0619495120733067e+00 8.2222286018335087e+00 8.4380205220227413e+00 
369 0 1 4.9999993148233184e+00 -3.5279224084427170e+02 1.0000000000000000e+00 5.0219773081462895e+00 9.2876665160794154e+00 8.4029104130849017e+00 
503 0 1 4.9999993152595446e+00 -3.1712427719061213e+02 1.0000000000000000e+00 5.0219769079376420e+00 9.2876572736608001e+00 8.4029119254533793e+00 
191 0 1 4.9999993148510056e+00 -2.8564824438047515e+02 1.0000000000000000e+00 5.0219772828728244e+00 9.2876659334459983e+00 8.4029105081329085e+00 
204 0 1 4.9999993141190915e+00 -4.5740348094933080e+02 1.0000000000000000e+00 5.0219779393866055e+00 9.2876813929958537e+00 8.4029078859430832e+00 
226 0 1 4.9999993153113138e+00 -2.8992207007540827e+02 1.0000000000000000e+00 5.0219768514528589e+00 9.2876561372410755e+00 8.4029120602260061e+00 
540 0 1 4.9999993143959598e+00 -5.2200275799097415e+02 1.0000000000000000e+00 5.0219776973374444e+00 9.2876755709430281e+00 8.4029089102282573e+00 
546 0 1 4.9999993148140254e+00 -4.0115158033679518e+02 1.0000000000000000e+00 5.0219773169338877e+00 9.2876667160541224e+00 8.4029103812546033e+00 
365 0 1 4.9999993147763755e+00 -5.5678716829743371e+02 1.0000000000000000e+00 5.0219773519846180e+00 9.2876675218055613e+00 8.4029102504913649e+00 
582 0 1 5.0001038331500895e+00 -6.6847205303217368e+02 1.0000000000000000e+00 5.6677726598879872e+00 8.4318845944872702e+00 8.5255918289076007e+00 
299 0 1 4.9999993148638175e+00 -2.7443241447028589e+02 1.0000000000000000e+00 5.0219772712062625e+00 9.2876656627830236e+00 8.4029105528086347e+00 
559 0 1 4.9999993113978416e+00 -3.5990884134338950e+02 1.0000000000000000e+00 5.0219804865281210e+00 9.2877392863719876e+00 8.4028986678147941e+00 
382 0 1 5.0001322060334328e+00 -3.3814877875776739e+02 1.0000000000000000e+00 5.9394785605916027e+00 8.2804629075217644e+00 8.4690360584926836e+00 
642 0 1 4.9999993148439437e+00 -6.0259128784212533e+02 1.0000000000000000e+00 5.0219772897417343e+00 9.2876660881648831e+00 8.4029104839982178e+00 
10 0 1 5.0001092644023331e+00 -4.8796315246607895e+02 1.0000000000000000e+00 5.7206622082160070e+00 8.4018305003303890e+00 8.5208752236528280e+00 
111 0 1 4.9999993148366428e+00 -3.5055590537053871e+02 1.0000000000000000e+00 5.0219772964887062e+00 9.2876662442654823e+00 8.4029104583607896e+00 
512 0 1 4.9999993148130786e+00 -5.2728923071849511e+02 1.0000000000000000e+00 5.0219773177590978e+00 9.2876667362639846e+00 8.4029103775958625e+00 
529 0 1 4.9999993142720180e+00 -3.3588028985355186e+02 1.0000000000000000e+00 5.0219778185374730e+00 9.2876782315870319e+00 8.4029085165533779e+00 
83 0 1 4.9999993147858106e+00 -6.0814925430246888e+02 1.0000000000000000e+00 5.0219773429068333e+00 9.2876673128587264e+00 8.4029102844848218e+00 
348 0 1 4.9999993143281811e+00 -3.0415567474813236e+02 1.0000000000000000e+00 5.0219777628452809e+00 9.2876770167688001e+00 8.4029086938263386e+00 
352 0 1 4.9999993139364847e+00 -3.6016763661929144e+02 1.0000000000000000e+00 5.0219781194650936e+00 9.2876853147983542e+00 8.4029073154559644e+00 
641 0 1 5.0001028243294314e+00 -5.9193017007690548e+02 1.0000000000000000e+00 5.6579929472840265e+00 8.4374853365951630e+00 8.5261296927164487e+00 
178 0 1 4.9999993524987412e+00 -2.7722695217698464e+02 1.0000000000000000e+00 5.0219431284902383e+00 9.2868693955496262e+00 8.4030400915639607e+00 
466 0 1 4.9999993148053292e+00 -2.6500338849130389e+02 1.0000000000000000e+00 5.0219773250300141e+00 9.2876669011382091e+00 8.4029103515338885e+00 
496 0 1 4.9999993143992008e+00 -4.1255889578992924e+02 1.0000000000000000e+00 5.0219776966715779e+00 9.2876755112014262e+00 8.4029089335104530e+00 
349 0 1 4.9999993148024151e+00 -3.6698270274761495e+02 1.0000000000000000e+00 5.0219773279313156e+00 9.2876669683372377e+00 8.4029103404729959e+00 
392 0 1 5.0000071976037042e+00 -4.9427941294427978e+02 1.0000000000000000e+00 6.6530214079106109e+00 1.0133523781013542e+01 4.8100726475969857e+00 
594 0 1 5.0000071747295838e+00 -4.6094012581351774e+02 1.0000000000000000e+00 6.6530264920589026e+00 1.0133444892436767e+01 4.8099319256422319e+00 
71 0 1 5.0000071746560453e+00 -6.6620498356506198e+02 1.0000000000000000e+00 6.6530264759579314e+00 1.0133444596527124e+01 4.8099314664637731e+00 
11 0 1 5.0000071747069992e+00 -4.8230954079335402e+02 1.0000000000000000e+00 6.6530264797092951e+00 1.0133444790684282e+01 4.8099317810175153e+00 
197 0 1 5.0000071739313512e+00 -3.0987355139362620e+02 1.0000000000000000e+00 6.6530263348385343e+00 1.0133441712335161e+01 4.8099269601584504e+00 
93 0 1 5.0000071736285410e+00 -3.5487796179905507e+02 1.0000000000000000e+00 6.6530262254751875e+00 1.0133440445219295e+01 4.8099250726729625e+00 
176 0 1 5.0000071747640620e+00 -4.7912711076142062e+02 1.0000000000000000e+00 6.6530266184539366e+00 1.0133445179813638e+01 4.8099321558678358e+00 
357 0 1 5.0000071746985668e+00 -3.9157653337148855e+02 1.0000000000000000e+00 6.6530266232723054e+00 1.0133444941965113e+01 4.8099317521947187e+00 
417 0 1 5.0000071746094914e+00 -2.9345285518843684e+02 1.0000000000000000e+00 6.6530267001057268e+00 1.0133444705759270e+01 4.8099312109894239e+00 
376 0 1 5.0000071746868162e+00 -2.7744083856191412e+02 1.0000000000000000e+00 6.6530265763090624e+00 1.0133444839857656e+01 4.8099316743936971e+00 
63 0 1 5.0000071746292107e+00 -5.2182960021692088e+02 1.0000000000000000e+00 6.6530265808824547e+00 1.0133444628314646e+01 4.8099313148075211e+00 
362 0 1 5.0000071744554182e+00 -2.6974860918498797e+02 1.0000000000000000e+00 6.6530265693453234e+00 1.0133443965682758e+01 4.8099302388184491e+00 
395 0 1 5.0000071746982808e+00 -3.3932222998387664e+02 1.0000000000000000e+00 6.6530265555728798e+00 1.0133444853924217e+01 4.8099317380996167e+00 
207 0 1 5.0000071746102277e+00 -2.5124175184120529e+02 1.0000000000000000e+00 6.6530265086782618e+00 1.0133444468007818e+01 4.8099311896872408e+00 
617 0 1 5.0000071746797783e+00 -4.9677127214939435e+02 1.0000000000000000e+00 6.6530268280477696e+00 1.0133445131155709e+01 4.8099316669988790e+00 
7 0 1 5.0000071746319641e+00 -7.7766130558754105e+02 1.0000000000000000e+00 6.6530268723243147e+00 1.0133445009204465e+01 4.8099313786035012e+00 
351 0 1 5.0000071747097117e+00 -5.5038775345898807e+02 1.0000000000000000e+00 6.6530267561345537e+00 1.0133445151564983e+01 4.8099318408908189e+00 
267 0 1 5.0000071746727226e+00 -4.1204427279935601e+02 1.0000000000000000e+00 6.6530267903330689e+00 1.0133445057690189e+01 4.8099316186661190e+00 
638 0 1 5.0000071745124490e+00 -7.7854004675416616e+02 1.0000000000000000e+00 6.6530267643534620e+00 1.0133444426092119e+01 4.8099306222493210e+00 
513 0 1 5.0000071745228896e+00 -3.5388539958051319e+02 1.0000000000000000e+00 6.6530268270688380e+00 1.0133444544004018e+01 4.8099306955700563e+00 
137 0 1 5.0000071745698582e+00 -3.3980299801262953e+02 1.0000000000000000e+00 6.6530267697338550e+00 1.0133444646306012e+01 4.8099309768242025e+00 
600 0 1 5.0000071816363914e+00 -4.7629249441937174e+02 1.0000000000000000e+00 6.6530359478580969e+00 1.0133482639658014e+01 4.8099760896209718e+00 
107 0 1 5.0001323635834503e+00 -3.1303690643565858e+02 1.0000000000000000e+00 6.3168407715176862e+00 1.1916560383949864e+01 7.5122016557010243e+00 
409 0 1 5.0001323635846457e+00 -3.5708645091757217e+02 1.0000000000000000e+00 6.3168407743851844e+00 1.1916560380861078e+01 7.5122016514725836e+00 
473 0 1 5.0001323635849273e+00 -3.0007989080882311e+02 1.0000000000000000e+00 6.3168407752226363e+00 1.1916560379777634e+01 7.5122016510148075e+00 
171 0 1 5.0001323635844406e+00 -3.2440110646892771e+02 1.0000000000000000e+00 6.3168407734717835e+00 1.1916560382109807e+01 7.5122016516856407e+00 
608 0 1 5.0001323635845845e+00 -4.6512870951466675e+02 1.0000000000000000e+00 6.3168407742904309e+00 1.1916560380976314e+01 7.5122016515556318e+00 
569 0 1 5.0001323635847710e+00 -5.8091897594885813e+02 1.0000000000000000e+00 6.3168407746832829e+00 1.1916560380480492e+01 7.5122016512882182e+00 
181 0 1 5.0001323635843917e+00 -2.6376588717322426e+02 1.0000000000000000e+00 6.3168407725064863e+00 1.1916560383331797e+01 7.5122016523316519e+00 
256 0 1 5.0001323635838926e+00 -3.3953915856237467e+02 1.0000000000000000e+00 6.3168407707968610e+00 1.1916560385757821e+01 7.5122016523484403e+00 
633 0 1 5.0001323635849273e+00 -4.6564851919610817e+02 1.0000000000000000e+00 6.3168407752385463e+00 1.1916560379764801e+01 7.5122016509728091e+00 
567 0 1 5.0001323635845916e+00 -7.4098206631962069e+02 1.0000000000000000e+00 6.3168407755417117e+00 1.1916560378773585e+01 7.5122016533710783e+00 
403 0 1 5.0001323635848314e+00 -5.3882344323587745e+02 1.0000000000000000e+00 6.3168407747604141e+00 1.1916560380390912e+01 7.5122016512026430e+00 
413 0 1 5.0001323635847346e+00 -4.5117650104250470e+02 1.0000000000000000e+00 6.3168407742149792e+00 1.1916560381127326e+01 7.5122016513698249e+00 
58 0 1 5.0001323635848713e+00 -4.6091608203081597e+02 1.0000000000000000e+00 6.3168407749321416e+00 1.1916560380157888e+01 7.5122016511550873e+00 
169 0 1 5.0001323635848758e+00 -3.9302011094592865e+02 1.0000000000000000e+00 6.3168407749398847e+00 1.1916560380165363e+01 7.5122016510759071e+00 
307 0 1 5.0001323635848518e+00 -2.7261490191995256e+02 1.0000000000000000e+00 6.3168407752074049e+00 1.1916560379803183e+01 7.5122016509973166e+00 
270 0 1 5.0001323635847879e+00 -3.3099760265125968e+02 1.0000000000000000e+00 6.3168407750613378e+00 1.1916560380001368e+01 7.5122016510374454e+00 
160 0 1 5.0001323635848021e+00 -4.1297654884513850e+02 1.0000000000000000e+00 6.3168407740385080e+00 1.1916560381361593e+01 7.5122016514422123e+00 
94 0 1 5.0001323635847861e+00 -3.4697974182116656e+02 1.0000000000000000e+00 6.3168407750782949e+00 1.1916560379978703e+01 7.5122016510312069e+00 
123 0 1 5.0001323635849975e+00 -3.3475037674070694e+02 1.0000000000000000e+00 6.3168407753247688e+00 1.1916560379656486e+01 7.5122016509123135e+00 
426 0 1 5.0001323635848163e+00 -2.8329946978480194e+02 1.0000000000000000e+00 6.3168407748869830e+00 1.1916560380237849e+01 7.5122016510869392e+00 
550 0 1 5.0001323635844201e+00 -3.2592963590240277e+02 1.0000000000000000e+00 6.3168407736166863e+00 1.1916560381924628e+01 7.5122016515958503e+00 
613 0 1 5.0001323635850934e+00 -4.7526411132607222e+02 1.0000000000000000e+00 6.3168407757166039e+00 1.1916560379148367e+01 7.5122016507027958e+00 
62 0 1 5.0001323635848669e+00 -4.2971646341973781e+02 1.0000000000000000e+00 6.3168407752211300e+00 1.1916560379803531e+01 7.5122016509122513e+00 
469 0 1 5.0009717006672885e+00 -3.1395896337311456e+02 1.0000000000000000e+00 6.3251524520829872e+00 1.0985004496435637e+01 8.0731298323660816e+00 
17 0 1 5.0021200596689930e+00 -4.2052991029713144e+02 1.0000000000000000e+00 6.5396186995183330e+00 1.0762447929806783e+01 7.6736181734873625e+00 
284 0 1 5.0000149033363881e+00 -3.4451154338834920e+02 1.0000000000000000e+00 6.2737102067746120e+00 1.4213821352624121e+01 6.6748247978494737e+00 
482 0 1 5.0000149039288724e+00 -3.6134413696670640e+02 1.0000000000000000e+00 6.2737150810276896e+00 1.4213832613293857e+01 6.6748377221125219e+00 
404 0 1 5.0000149044247193e+00 -4.8153905955733393e+02 1.0000000000000000e+00 6.2737182121677977e+00 1.4213844053363273e+01 6.6748509665894540e+00 
437 0 1 5.0000149070286781e+00 -2.2339412867407975e+02 1.0000000000000000e+00 6.2737334467680856e+00 1.4213906672505356e+01 6.6749235954058355e+00 
553 0 1 5.0000137346842983e+00 -4.9570925943837068e+02 1.0000000000000000e+00 6.2537024264549288e+00 1.4213509630115453e+01 6.6760752556871816e+00 
19 0 1 5.0000151519293734e+00 -4.2895102291942641e+02 1.0000000000000000e+00 6.2751711623981352e+00 1.4219885634215105e+01 6.6819724667016942e+00 
629 0 1 4.9999722288583035e+00 -4.0476218899372446e+02 1.0000000000000000e+00 5.7948926234907905e+00 1.4280430460366986e+01 7.3867868934115828e+00 
325 0 1 4.9999715078822105e+00 -5.5936129738595332e+02 1.0000000000000000e+00 5.7878114612907856e+00 1.4274789326209683e+01 7.3905404365456935e+00 
117 0 1 4.9999716143536359e+00 -3.4932830550589597e+02 1.0000000000000000e+00 5.7888786348111685e+00 1.4275616055075382e+01 7.3900657312004547e+00 
453 0 1 5.0000018420419963e+00 -2.5264863580059063e+02 1.0000000000000000e+00 6.0813177463880512e+00 1.4387656511323316e+01 7.2472528860118341e+00 
588 0 1 4.9999720386659900e+00 -5.5025009997584914e+02 1.0000000000000000e+00 5.7930523370009936e+00 1.4278955908397236e+01 7.3878320873319456e+00 
541 0 1 4.9999720110674444e+00 -3.6048047303665601e+02 1.0000000000000000e+00 5.7926111201426300e+00 1.4279466685641641e+01 7.3858391675581014e+00 
249 0 1 4.9999719204166242e+00 -4.3151118572425929e+02 1.0000000000000000e+00 5.7918761415439528e+00 1.4278133766936753e+01 7.3881733642663239e+00 
597 0 1 4.9999722482573334e+00 -4.5651187643178122e+02 1.0000000000000000e+00 5.7950762608631701e+00 1.4280592272131210e+01 7.3866426197165067e+00 
147 0 1 4.9999710890224538e+00 -3.5854250905701696e+02 1.0000000000000000e+00 5.7831218618456672e+00 1.4273927346460328e+01 7.3854346615891959e+00 
515 0 1 4.9999715468909098e+00 -3.3149174391207293e+02 1.0000000000000000e+00 5.7882305126046303e+00 1.4274948223783763e+01 7.3907745213386438e+00 
329 0 1 4.9999717018479046e+00 -7.0917469858304423e+02 1.0000000000000000e+00 5.7897329643785866e+00 1.4276380542553854e+01 7.3894166350125232e+00 
216 0 1 4.9999737335729666e+00 -2.9487369631828807e+02 1.0000000000000000e+00 5.8091962753857276e+00 1.4290766794340454e+01 7.3805190495635600e+00 
481 0 1 4.9999715960452207e+00 -3.8237419993068607e+02 1.0000000000000000e+00 5.7887076557616988e+00 1.4275412002299236e+01 7.3903239994296008e+00 
561 0 1 4.9999721176756093e+00 -5.5629598894547530e+02 1.0000000000000000e+00 5.7937857240521424e+00 1.4279708396383816e+01 7.3869932478587010e+00 
20 0 1 4.9999719563706586e+00 -4.0141227226883541e+02 1.0000000000000000e+00 5.7922269081989297e+00 1.4278417002312453e+01 7.3879749240087902e+00 
398 0 1 4.9999718758778586e+00 -3.4071442511558666e+02 1.0000000000000000e+00 5.7914413505728026e+00 1.4277779128727744e+01 7.3884267316198189e+00 
172 0 1 5.0000162550031195e+00 -3.2308407959554268e+02 1.0000000000000000e+00 6.2628544367697927e+00 1.4346984906241449e+01 6.9153784148656259e+00 
262 0 1 5.0000162451570676e+00 -2.7286538745954147e+02 1.0000000000000000e+00 6.2778417017866204e+00 1.4258743087563751e+01 6.7339103684490631e+00 
246 0 1 4.9999738988867115e+00 -5.9591643465993070e+02 1.0000000000000000e+00 5.8108222967605965e+00 1.4291587909716196e+01 7.3806460855851963e+00 
312 0 1 5.0000121673299862e+00 -3.5224779585155500e+02 1.0000000000000000e+00 6.2125245440851291e+00 1.4385174019094007e+01 7.0908191445996938e+00 
38 0 1 4.9999715405479037e+00 -4.5486254792472744e+02 1.0000000000000000e+00 5.7881976730404734e+00 1.4274732529355772e+01 7.3912689077458005e+00 
79 0 1 4.9999718945475307e+00 -5.7712242801473940e+02 1.0000000000000000e+00 5.7916246076539766e+00 1.4277923985920713e+01 7.3883320309082237e+00 
34 0 1 4.9999719752549661e+00 -3.9740166634950697e+02 1.0000000000000000e+00 5.7924161973351183e+00 1.4278542294862197e+01 7.3879382568808527e+00 
543 0 1 4.9999717567991331e+00 -3.4713033733459315e+02 1.0000000000000000e+00 5.7902650426515176e+00 1.4276867205592426e+01 7.3889810553733888e+00 
407 0 1 4.9999718492552407e+00 -5.4214712553701793e+02 1.0000000000000000e+00 5.7911840558434999e+00 1.4277552486282616e+01 7.3886187513413004e+00 
21 0 1 4.9999718957493693e+00 -4.7560534795924445e+02 1.0000000000000000e+00 5.7918056852376854e+00 1.4277144896613271e+01 7.3905899693637904e+00 
119 0 1 4.9999907897764944e+00 -3.9332533312472475e+02 1.0000000000000000e+00 8.7737075446876727e+00 6.3695533336790309e+00 5.3192490091995186e+00 
231 0 1 4.9999907897766445e+00 -4.5177139591048706e+02 1.0000000000000000e+00 8.7737077241950505e+00 6.3695532880619146e+00 5.3192492972770751e+00 
531 0 1 4.9999907897761675e+00 -3.1235615970767356e+02 1.0000000000000000e+00 8.7737077276710131e+00 6.3695532871068679e+00 5.3192493027265213e+00 
618 0 1 4.9999907897765796e+00 -4.0794311499351761e+02 1.0000000000000000e+00 8.7737077255558091e+00 6.3695532876925016e+00 5.3192492994182157e+00 
302 0 1 4.9999907897765885e+00 -5.5001867989685820e+02 1.0000000000000000e+00 8.7737077252074087e+00 6.3695532877875021e+00 5.3192492988707878e+00 
54 0 1 4.9999907897765166e+00 -4.1342012638250566e+02 1.0000000000000000e+00 8.7737077249479665e+00 6.3695532878594250e+00 5.3192492984654258e+00 
514 0 1 4.9999907897765175e+00 -2.9176462256545420e+02 1.0000000000000000e+00 8.7737077249421063e+00 6.3695532878610459e+00 5.3192492984562598e+00 
321 0 1 4.9999907897766001e+00 -4.0128349616558194e+02 1.0000000000000000e+00 8.7737077254262612e+00 6.3695532877280714e+00 5.3192492992150946e+00 
136 0 1 4.9999907897765281e+00 -3.3224109018038928e+02 1.0000000000000000e+00 8.7737077248190047e+00 6.3695532878949086e+00 5.3192492982633652e+00 
603 0 1 4.9999907897767963e+00 -5.0251875628902832e+02 1.0000000000000000e+00 8.7737077246824260e+00 6.3695532879315877e+00 5.3192492980471719e+00 
632 0 1 4.9999907897768354e+00 -4.4843631752697775e+02 1.0000000000000000e+00 8.7737077246927377e+00 6.3695532879287784e+00 5.3192492980633110e+00 
254 0 1 4.9999907897765556e+00 -3.2700745119494258e+02 1.0000000000000000e+00 8.7737077250189603e+00 6.3695532878393317e+00 5.3192492985755786e+00 
489 0 1 4.9999907897765583e+00 -5.3707485251572905e+02 1.0000000000000000e+00 8.7737077251953686e+00 6.3695532877906373e+00 5.3192492988516804e+00 
258 0 1 4.9999907897768612e+00 -3.5830663888544200e+02 1.0000000000000000e+00 8.7737077246611168e+00 6.3695532879370633e+00 5.3192492980129407e+00 
120 0 1 4.9999907897767288e+00 -3.8553170918797815e+02 1.0000000000000000e+00 8.7737077245498423e+00 6.3695532879673795e+00 5.3192492978383452e+00 
182 0 1 4.9999907897767093e+00 -3.1478240643841423e+02 1.0000000000000000e+00 8.7737077243448045e+00 6.3695532880230781e+00 5.3192492975158476e+00 
241 0 1 4.9999907897765770e+00 -4.4859611665329641e+02 1.0000000000000000e+00 8.7737077248056146e+00 6.3695532878985901e+00 5.3192492982422781e+00 
211 0 1 4.9999907897766152e+00 -3.1807856141354347e+02 1.0000000000000000e+00 8.7737077245116506e+00 6.3695532879777064e+00 5.3192492977784349e+00 
380 0 1 4.9999907897765370e+00 -3.5220468968072271e+02 1.0000000000000000e+00 8.7737077259672684e+00 6.3695532875788263e+00 5.3192493000621219e+00 
548 0 1 4.9999907897764038e+00 -3.3245979688591370e+02 1.0000000000000000e+00 8.7737077263876611e+00 6.3695532874660854e+00 5.3192493007263808e+00 
163 0 1 4.9999907897763922e+00 -5.3688523510716107e+02 1.0000000000000000e+00 8.7737077272743758e+00 6.3695532872349174e+00 5.3192493021388580e+00 
320 0 1 4.9999907897767120e+00 -4.5731964688749810e+02 1.0000000000000000e+00 8.7737077142592721e+00 6.3695532901884473e+00 5.3192492806103298e+00 
48 0 1 4.9999907897767022e+00 -4.2154133498822409e+02 1.0000000000000000e+00 8.7737077286226182e+00 6.3695532868930291e+00 5.3192493043032112e+00 
212 0 1 4.9999907897765947e+00 -2.4957426257471954e+02 1.0000000000000000e+00 8.7737077286486720e+00 6.3695532868854245e+00 5.3192493043434910e+00 
383 0 1 4.9999907897766196e+00 -3.5727045014138207e+02 1.0000000000000000e+00 8.7737077286815293e+00 6.3695532868779887e+00 5.3192493043978137e+00 
464 0 1 4.9999907897767457e+00 -3.1205899927461530e+02 1.0000000000000000e+00 8.7737077287235135e+00 6.3695532868686460e+00 5.3192493044673110e+00 
166 0 1 4.9999907897768248e+00 -5.2742167006441093e+02 1.0000000000000000e+00 8.7737077291450323e+00 6.3695532868061475e+00 5.3192493052244059e+00 
432 0 1 4.9999907897764029e+00 -2.4643267707281356e+02 1.0000000000000000e+00 8.7737077216360824e+00 6.3695532891494597e+00 5.3192492939626863e+00 
414 0 1 5.0000654914146141e+00 -3.6775354248461576e+02 1.0000000000000000e+00 1.0795202270897054e+01 6.4954256669443904e+00 5.2387719506531303e+00 
431 0 1 4.9999959331145494e+00 -2.5175581756015737e+02 1.0000000000000000e+00 1.0692189651769800e+01 6.5895657427007226e+00 3.7802974072750826e+00 
604 0 1 4.9999959331132882e+00 -4.1199060168018150e+02 1.0000000000000000e+00 1.0692189680739208e+01 6.5895657745091514e+00 3.7802974103022611e+00 
132 0 1 4.9999959331123414e+00 -3.0585366041892331e+02 1.0000000000000000e+00 1.0692189690778690e+01 6.5895657815873294e+00 3.7802974135427205e+00 
405 0 1 4.9999959331126176e+00 -5.2845744687060505e+02 1.0000000000000000e+00 1.0692189691137589e+01 6.5895657812565247e+00 3.7802974139831700e+00 
92 0 1 4.9999959331126167e+00 -4.1572703466621738e+02 1.0000000000000000e+00 1.0692189690948906e+01 6.5895657809832118e+00 3.7802974140001893e+00 
14 0 1 4.9999959331126620e+00 -6.9461461127179143e+02 1.0000000000000000e+00 1.0692189690922755e+01 6.5895657809852253e+00 3.7802974139804202e+00 
266 0 1 4.9999959331126309e+00 -4.1995886825454591e+02 1.0000000000000000e+00 1.0692189690914136e+01 6.5895657809846035e+00 3.7802974139745844e+00 
165 0 1 4.9999959331126860e+00 -5.2349242995830048e+02 1.0000000000000000e+00 1.0692189690912986e+01 6.5895657809927233e+00 3.7802974139692944e+00 
599 0 1 4.9999959331125536e+00 -4.5462821137388698e+02 1.0000000000000000e+00 1.0692189690914903e+01 6.5895657809603083e+00 3.7802974139885661e+00 
173 0 1 4.9999959331125856e+00 -3.0616035162594886e+02 1.0000000000000000e+00 1.0692189690939042e+01 6.5895657809560229e+00 3.7802974140082246e+00 
13 0 1 4.9999959331126211e+00 -4.9995924242244001e+02 1.0000000000000000e+00 1.0692189690915203e+01 6.5895657809725066e+00 3.7802974139820593e+00 
492 0 1 4.9999959331126229e+00 -3.6845194177478351e+02 1.0000000000000000e+00 1.0692189690913120e+01 6.5895657809910153e+00 3.7802974139702887e+00 
533 0 1 4.9999959331126185e+00 -3.9301993714751927e+02 1.0000000000000000e+00 1.0692189690916093e+01 6.5895657809783517e+00 3.7802974139794450e+00 
441 0 1 4.9999959331126043e+00 -3.1645488570976244e+02 1.0000000000000000e+00 1.0692189690913644e+01 6.5895657809854740e+00 3.7802974139737286e+00 
301 0 1 4.9999959331126140e+00 -5.5829346438775315e+02 1.0000000000000000e+00 1.0692189690914979e+01 6.5895657809751667e+00 3.7802974139804149e+00 
324 0 1 4.9999959331126185e+00 -5.9154255474110516e+02 1.0000000000000000e+00 1.0692189690914082e+01 6.5895657809798802e+00 3.7802974139771592e+00 
397 0 1 4.9999959331126256e+00 -3.8231134925072138e+02 1.0000000000000000e+00 1.0692189690914473e+01 6.5895657809737651e+00 3.7802974139808416e+00 
523 0 1 4.9999959331126025e+00 -2.8162942775799149e+02 1.0000000000000000e+00 1.0692189690915345e+01 6.5895657809725803e+00 3.7802974139821068e+00 
474 0 1 4.9999959331126620e+00 -2.8427965117854217e+02 1.0000000000000000e+00 1.0692189690914082e+01 6.5895657809784929e+00 3.7802974139779630e+00 
61 0 1 4.9999959331126167e+00 -4.8583508375915000e+02 1.0000000000000000e+00 1.0692189690913976e+01 6.5895657809786607e+00 3.7802974139777610e+00 
400 0 1 4.9999959331126727e+00 -5.8331227504050219e+02 1.0000000000000000e+00 1.0692189690914095e+01 6.5895657809822712e+00 3.7802974139758816e+00 
271 0 1 4.9999959331126105e+00 -2.7212350287457616e+02 1.0000000000000000e+00 1.0692189690916301e+01 6.5895657809705916e+00 3.7802974139838978e+00 
114 0 1 4.9999959331125527e+00 -3.5103941490080865e+02 1.0000000000000000e+00 1.0692189690929396e+01 6.5895657809391697e+00 3.7802974140106671e+00 
416 0 1 4.9999959331126487e+00 -2.9462000513048696e+02 1.0000000000000000e+00 1.0692189690920125e+01 6.5895657809857404e+00 3.7802974139782424e+00 
314 0 1 4.9999959331125474e+00 -3.7869306202240188e+02 1.0000000000000000e+00 1.0692189690869759e+01 6.5895657800991891e+00 3.7802974144347075e+00 
520 0 1 4.9999959331133281e+00 -2.9845803411426891e+02 1.0000000000000000e+00 1.0692189688285861e+01 6.5895657787653352e+00 3.7802974133300773e+00 
251 0 1 4.9999959330410553e+00 -4.0969267668642419e+02 1.0000000000000000e+00 1.0692193403028307e+01 6.5895673365864864e+00 3.7802992021402821e+00 
554 0 1 5.0000787100932973e+00 -5.2803768866273219e+02 1.0000000000000000e+00 7.2845943401671054e+00 8.9743156434605336e+00 4.8918091370409069e+00 
508 0 1 5.0000787176223565e+00 -3.4267408984358462e+02 1.0000000000000000e+00 7.2846397417254023e+00 8.9742633710668933e+00 4.8919015114942521e+00 
575 0 1 5.0000787159033990e+00 -5.2477875457303230e+02 1.0000000000000000e+00 7.2846293731035914e+00 8.9742752991097667e+00 4.8918804320404519e+00 
439 0 1 5.0000787123007147e+00 -2.5454084001170497e+02 1.0000000000000000e+00 7.2846076464142318e+00 8.9743003112938933e+00 4.8918362311397052e+00 
425 0 1 5.0000787137569089e+00 -2.8147854926917410e+02 1.0000000000000000e+00 7.2846164297021492e+00 8.9742901966941186e+00 4.8918541052502018e+00 
605 0 1 5.0000787153563211e+00 -4.6514279023614012e+02 1.0000000000000000e+00 7.2846260729522481e+00 8.9742790966824089e+00 4.8918737209792615e+00 
146 0 1 5.0000787133942008e+00 -3.0122505533746966e+02 1.0000000000000000e+00 7.2846142377507306e+00 8.9742927204687639e+00 4.8918496453222184e+00 
627 0 1 5.0000787135967117e+00 -4.5857979809728528e+02 1.0000000000000000e+00 7.2846154593033301e+00 8.9742913139601352e+00 4.8918521308553018e+00 
310 0 1 5.0000787125478876e+00 -3.3240156597577345e+02 1.0000000000000000e+00 7.2846091367066288e+00 8.9742985947929768e+00 4.8918392644584499e+00 
435 0 1 5.0000787436996044e+00 -4.6266905941974443e+02 1.0000000000000000e+00 7.2847973657756926e+00 8.9740826495214510e+00 4.8922209338713536e+00 
556 0 1 5.0000788921895687e+00 -3.4699570534226251e+02 1.0000000000000000e+00 7.2857064951066812e+00 8.9730602851390540e+00 4.8940297872508021e+00 
233 0 1 5.0000787433115201e+00 -3.4060529026489627e+02 1.0000000000000000e+00 7.2847950129380559e+00 8.9740853388039810e+00 4.8922161799490169e+00 
64 0 1 5.0000787149552375e+00 -5.1495833405866824e+02 1.0000000000000000e+00 7.2846236512082863e+00 8.9742818838027496e+00 4.8918687956091906e+00 
484 0 1 5.0000787123780208e+00 -7.2378154572218580e+02 1.0000000000000000e+00 7.2846081098580200e+00 8.9742997774891968e+00 4.8918371744544418e+00 
227 0 1 5.0000780603180068e+00 -2.6159788204172787e+02 1.0000000000000000e+00 7.2807226352125829e+00 8.9791771182793507e+00 4.8832546290132619e+00 
250 0 1 5.0000737091596541e+00 -4.4248706354656542e+02 1.0000000000000000e+00 7.2433142319313886e+00 9.0027561296547667e+00 4.8460453205584857e+00 
131 0 1 5.0003227195369888e+00 -3.3762294808644708e+02 1.0000000000000000e+00 8.9465580734085126e+00 8.9583075626620712e+00 6.4741877580923806e+00 
155 0 1 5.0001492542534001e+00 -6.0650849925966918e+02 1.0000000000000000e+00 9.6922056434007278e+00 9.6727937096088432e+00 5.8287107029690910e+00 
518 0 1 4.9997897587431339e+00 -3.7095790772318685e+02 1.0000000000000000e+00 8.3850645423915555e+00 7.6787092182221706e+00 6.1102353683362844e+00 
639 0 1 5.0004287211355543e+00 -5.7078035659449256e+02 1.0000000000000000e+00 8.9686506135656465e+00 8.9599604798278119e+00 6.5064402630949187e+00 
60 0 1 5.0016098393541464e+00 -4.6174946234645250e+02 1.0000000000000000e+00 8.6472505724943947e+00 8.8173743872875185e+00 5.5685966456107030e+00 
128 0 1 4.9973039790407707e+00 -3.5448047421043401e+02 1.0000000000000000e+00 7.7354435408259326e+00 9.1565611675620602e+00 6.6245180067972740e+00 
100 0 1 5.0013130451817904e+00 -3.4992556211636958e+02 1.0000000000000000e+00 8.9202143205236517e+00 8.9483554971819252e+00 6.3681471932455622e+00 
336 0 1 5.0012109207470576e+00 -5.9649606285711889e+02 1.0000000000000000e+00 8.4563140829152363e+00 9.9784026939157862e+00 6.3725135671264272e+00 
501 0 1 4.9988756831798078e+00 -3.2928449852939588e+02 1.0000000000000000e+00 9.2752671484737110e+00 9.9847107387024767e+00 6.4308769215623123e+00 
634 0 1 4.9999896062839246e+00 -4.8479855724734466e+02 1.0000000000000000e+00 1.0761477286800904e+01 8.8977652785930914e+00 4.9707197308515676e+00 
578 0 1 4.9999895932797864e+00 -4.7498004642623647e+02 1.0000000000000000e+00 1.0761559062664631e+01 8.8976095567842446e+00 4.9705627297683659e+00 
224 0 1 4.9999895932513612e+00 -3.2948125518992595e+02 1.0000000000000000e+00 1.0761559203236022e+01 8.8976092510127565e+00 4.9705624125299641e+00 
31 0 1 4.9999895932518514e+00 -4.1608015833767189e+02 1.0000000000000000e+00 1.0761559202786803e+01 8.8976092524283050e+00 4.9705624140896285e+00 
192 0 1 4.9999895932525122e+00 -2.2524655526602774e+02 1.0000000000000000e+00 1.0761559199695519e+01 8.8976092616630247e+00 4.9705624241882358e+00 
630 0 1 4.9999895932531198e+00 -4.8664914084195334e+02 1.0000000000000000e+00 1.0761559198443413e+01 8.8976092653830019e+00 4.9705624282536736e+00 