LAMMPS data file via write_data, version 30 Jul 2016, timestep = 100000000

644 atoms
2 atom types

0.0000000000000000e+00 2.0000000000000000e+01 xlo xhi
0.0000000000000000e+00 2.0000000000000000e+01 ylo yhi
0.0000000000000000e+00 2.0000000000000000e+01 zlo zhi

Masses

1 4.31
2 3.896

Atoms # meso-molecular

189 0 1 5.0000225576746216e+00 -4.8317654006424345e+02 1.0000000000000000e+00 5.0239913933988838e+00 9.2814945568044358e+00 8.3984886146444424e+00 
190 0 1 5.0000225577437138e+00 -4.6236069018031236e+02 1.0000000000000000e+00 5.0239914497018363e+00 9.2814956018321997e+00 8.3984884357187486e+00 
98 0 1 4.9999472891948979e+00 -5.0530026920822985e+02 1.0000000000000000e+00 5.8935313638607001e+00 8.3037458865461726e+00 8.4658297459136538e+00 
238 0 1 5.0000225571538479e+00 -3.7855027205068171e+02 1.0000000000000000e+00 5.0239909524575541e+00 9.2814866457448826e+00 8.3984898648452884e+00 
455 0 1 5.0000225570965204e+00 -3.2358701109366137e+02 1.0000000000000000e+00 5.0239909040778352e+00 9.2814857766948791e+00 8.3984900025602762e+00 
526 0 1 5.0000225573185251e+00 -5.2628626064841535e+02 1.0000000000000000e+00 5.0239910914005321e+00 9.2814891462600304e+00 8.3984894667223369e+00 
202 0 1 5.0000225571310937e+00 -2.8544433406782332e+02 1.0000000000000000e+00 5.0239909329164503e+00 9.2814862966747942e+00 8.3984899193940468e+00 
239 0 1 5.0000225577226223e+00 -5.2157695297931593e+02 1.0000000000000000e+00 5.0239914319360350e+00 9.2814952829899795e+00 8.3984884861620319e+00 
354 0 1 4.9999410342709059e+00 -3.3395690430057465e+02 1.0000000000000000e+00 6.0501661217793288e+00 8.2299226736975779e+00 8.4252219176959482e+00 
369 0 1 5.0000225571528141e+00 -3.5279221035584470e+02 1.0000000000000000e+00 5.0239909513211689e+00 9.2814866281959798e+00 8.3984898664995349e+00 
503 0 1 5.0000225566003795e+00 -3.1712424670191376e+02 1.0000000000000000e+00 5.0239904862557863e+00 9.2814782433669780e+00 8.3984912069963809e+00 
191 0 1 5.0000225571178918e+00 -2.8564821389203451e+02 1.0000000000000000e+00 5.0239909219638506e+00 9.2814860996240807e+00 8.3984899507423787e+00 
204 0 1 5.0000225580425450e+00 -4.5740345046131694e+02 1.0000000000000000e+00 5.0239916883019520e+00 9.2815001244120765e+00 8.3984876255006959e+00 
226 0 1 5.0000225565331986e+00 -2.8992203958668534e+02 1.0000000000000000e+00 5.0239904225615639e+00 9.2814772122482587e+00 8.3984913258681075e+00 
540 0 1 5.0000225576939856e+00 -5.2200272750279987e+02 1.0000000000000000e+00 5.0239914043492098e+00 9.2814948427960875e+00 8.3984885341956836e+00 
546 0 1 5.0000225571647547e+00 -4.0115154984837625e+02 1.0000000000000000e+00 5.0239909614983302e+00 9.2814868096172951e+00 8.3984898382968893e+00 
365 0 1 5.0000225572127670e+00 -5.5678713780902569e+02 1.0000000000000000e+00 5.0239910021854914e+00 9.2814875406061166e+00 8.3984897224065431e+00 
582 0 1 4.9999580852138141e+00 -6.6847197459719666e+02 1.0000000000000000e+00 5.6456356020977774e+00 8.4411777671989565e+00 8.5152249153393100e+00 
299 0 1 5.0000225571017376e+00 -2.7443238398183377e+02 1.0000000000000000e+00 5.0239909083924053e+00 9.2814858540763598e+00 8.3984899903452810e+00 
559 0 1 5.0000225614982812e+00 -3.5990881085692860e+02 1.0000000000000000e+00 5.0239946372167044e+00 9.2815526463151521e+00 8.3984794579750250e+00 
382 0 1 4.9999460398815883e+00 -3.3814869281876940e+02 1.0000000000000000e+00 5.9227505252247683e+00 8.2886889247290512e+00 8.4571091382371684e+00 
642 0 1 5.0000225571271137e+00 -6.0259125735368934e+02 1.0000000000000000e+00 5.0239909299003669e+00 9.2814862399893396e+00 8.3984899293640360e+00 
10 0 1 4.9999558775243278e+00 -4.8796307166156248e+02 1.0000000000000000e+00 5.6989419095352964e+00 8.4108024980735756e+00 8.5100729920898139e+00 
111 0 1 5.0000225571365124e+00 -3.5055587488209875e+02 1.0000000000000000e+00 5.0239909377440046e+00 9.2814863816052373e+00 8.3984899066392114e+00 
512 0 1 5.0000225571657833e+00 -5.2728920023007231e+02 1.0000000000000000e+00 5.0239909624703838e+00 9.2814868279506513e+00 8.3984898350499098e+00 
529 0 1 5.0000225578524748e+00 -3.3588025936546012e+02 1.0000000000000000e+00 5.0239915435859066e+00 9.2814972566745286e+00 8.3984881857380849e+00 
83 0 1 5.0000225572002721e+00 -6.0814922381405745e+02 1.0000000000000000e+00 5.0239909916451664e+00 9.2814873510473230e+00 8.3984897525347364e+00 
348 0 1 5.0000225577801194e+00 -3.0415564426001436e+02 1.0000000000000000e+00 5.0239914796960017e+00 9.2814961545200916e+00 8.3984883426183501e+00 
352 0 1 5.0000225582761590e+00 -3.6016760613135648e+02 1.0000000000000000e+00 5.0239918948142099e+00 9.2815036825046970e+00 8.3984871206630078e+00 
641 0 1 4.9999584923868161e+00 -5.9193009212186746e+02 1.0000000000000000e+00 5.6358191388742576e+00 8.4468373003277311e+00 8.5158475313889923e+00 
178 0 1 5.0000225094562696e+00 -2.7722692166679860e+02 1.0000000000000000e+00 5.0239511138136574e+00 9.2807633961891760e+00 8.3986048155978921e+00 
466 0 1 5.0000225571757744e+00 -2.6500335800288804e+02 1.0000000000000000e+00 5.0239909708845083e+00 9.2814869775291609e+00 8.3984898119602001e+00 
496 0 1 5.0000225576901851e+00 -4.1255886530177474e+02 1.0000000000000000e+00 5.0239914030621193e+00 9.2814947886368309e+00 8.3984885549862121e+00 
349 0 1 5.0000225571797507e+00 -3.6698267225920057e+02 1.0000000000000000e+00 5.0239909742579414e+00 9.2814870384923509e+00 8.3984898021555630e+00 
392 0 1 5.0000280062136335e+00 -4.9427933008268161e+02 1.0000000000000000e+00 6.6542213306502429e+00 1.0150677881795342e+01 4.8180772687111189e+00 
594 0 1 5.0000280036928437e+00 -4.6094004295561615e+02 1.0000000000000000e+00 6.6542313083834133e+00 1.0150588610531829e+01 4.8179241347180195e+00 
71 0 1 5.0000280036806002e+00 -6.6620490070726066e+02 1.0000000000000000e+00 6.6542313052683966e+00 1.0150588276211288e+01 4.8179236356465065e+00 
11 0 1 5.0000280036880209e+00 -4.8230945793545538e+02 1.0000000000000000e+00 6.6542312994597346e+00 1.0150588495676399e+01 4.8179239776632121e+00 
197 0 1 5.0000280035624014e+00 -3.0987346853583944e+02 1.0000000000000000e+00 6.6542312931332139e+00 1.0150585017381433e+01 4.8179187375183226e+00 
93 0 1 5.0000280035061699e+00 -3.5487787894131975e+02 1.0000000000000000e+00 6.6542312332106315e+00 1.0150583586404935e+01 4.8179166868515440e+00 
176 0 1 5.0000280037132843e+00 -4.7912702790351051e+02 1.0000000000000000e+00 6.6542314390624284e+00 1.0150588933508770e+01 4.8179243827498617e+00 
357 0 1 5.0000280037053555e+00 -3.9157645051359026e+02 1.0000000000000000e+00 6.6542314570284491e+00 1.0150588664511755e+01 4.8179239436533265e+00 
417 0 1 5.0000280037026004e+00 -2.9345277233055060e+02 1.0000000000000000e+00 6.6542315579092435e+00 1.0150588396264405e+01 4.8179233536489736e+00 
376 0 1 5.0000280036973086e+00 -2.7744075570401617e+02 1.0000000000000000e+00 6.6542314082297240e+00 1.0150588549787239e+01 4.8179238599136207e+00 
63 0 1 5.0000280036902804e+00 -5.2182951735912684e+02 1.0000000000000000e+00 6.6542314245402441e+00 1.0150588310536822e+01 4.8179234687673143e+00 
362 0 1 5.0000280036643874e+00 -2.6974852632712765e+02 1.0000000000000000e+00 6.6542314458228704e+00 1.0150587561512175e+01 4.8179222988092718e+00 
395 0 1 5.0000280036963423e+00 -3.3932214712597994e+02 1.0000000000000000e+00 6.6542313835957216e+00 1.0150588566010839e+01 4.8179239295806271e+00 
207 0 1 5.0000280036782838e+00 -2.5124166898333240e+02 1.0000000000000000e+00 6.6542313496869507e+00 1.0150588130397191e+01 4.8179233340353962e+00 
617 0 1 5.0000280037280351e+00 -4.9677118929149844e+02 1.0000000000000000e+00 6.6542316831692085e+00 1.0150588875268568e+01 4.8179238471986858e+00 
7 0 1 5.0000280037273495e+00 -7.7766122272973587e+02 1.0000000000000000e+00 6.6542317405643487e+00 1.0150588736703176e+01 4.8179235327379351e+00 
351 0 1 5.0000280037232736e+00 -5.5038767060117243e+02 1.0000000000000000e+00 6.6542315992207062e+00 1.0150588899450936e+01 4.8179240376466304e+00 
267 0 1 5.0000280037225018e+00 -4.1204418994145897e+02 1.0000000000000000e+00 6.6542316435351205e+00 1.0150588792785197e+01 4.8179237953355134e+00 
638 0 1 5.0000280036970581e+00 -7.7853996389638644e+02 1.0000000000000000e+00 6.6542316465527209e+00 1.0150588079071088e+01 4.8179227121827912e+00 
513 0 1 5.0000280037062721e+00 -3.5388531672264207e+02 1.0000000000000000e+00 6.6542317126817130e+00 1.0150588211422656e+01 4.8179227907572821e+00 
137 0 1 5.0000280037059248e+00 -3.3980291515475022e+02 1.0000000000000000e+00 6.6542316412619664e+00 1.0150588327972374e+01 4.8179230976942602e+00 
600 0 1 5.0000280058455200e+00 -4.7629241156024989e+02 1.0000000000000000e+00 6.6542402365579401e+00 1.0150631143379512e+01 4.8179719888694574e+00 
107 0 1 4.9999639832982501e+00 -3.1303700337605392e+02 1.0000000000000000e+00 6.3075204833585392e+00 1.1914966360216884e+01 7.4814165907841765e+00 
409 0 1 4.9999639832993701e+00 -3.5708654785796841e+02 1.0000000000000000e+00 6.3075204863284542e+00 1.1914966357242081e+01 7.4814165862825899e+00 
473 0 1 4.9999639832994438e+00 -3.0007998774921879e+02 1.0000000000000000e+00 6.3075204871980990e+00 1.1914966356211066e+01 7.4814165857811004e+00 
171 0 1 4.9999639832992306e+00 -3.2440120340932282e+02 1.0000000000000000e+00 6.3075204853787907e+00 1.1914966358426515e+01 7.4814165865293694e+00 
608 0 1 4.9999639832993346e+00 -4.6512880645506300e+02 1.0000000000000000e+00 6.3075204862303442e+00 1.1914966357351926e+01 7.4814165863720294e+00 
569 0 1 4.9999639832993541e+00 -5.8091907288926711e+02 1.0000000000000000e+00 6.3075204866379098e+00 1.1914966356879537e+01 7.4814165860814219e+00 
181 0 1 4.9999639832989136e+00 -2.6376598411361925e+02 1.0000000000000000e+00 6.3075204843761643e+00 1.1914966359590526e+01 7.4814165872309726e+00 
256 0 1 4.9999639832987040e+00 -3.3953925550276841e+02 1.0000000000000000e+00 6.3075204825986111e+00 1.1914966361885531e+01 7.4814165872935554e+00 
633 0 1 4.9999639832994394e+00 -4.6564861613650385e+02 1.0000000000000000e+00 6.3075204872145285e+00 1.1914966356198386e+01 7.4814165857367918e+00 
567 0 1 4.9999639832992839e+00 -7.4098216326002898e+02 1.0000000000000000e+00 6.3075204875373725e+00 1.1914966355290611e+01 7.4814165882396058e+00 
403 0 1 4.9999639832994420e+00 -5.3882354017628643e+02 1.0000000000000000e+00 6.3075204867178938e+00 1.1914966356793780e+01 7.4814165859898019e+00 
413 0 1 4.9999639832994012e+00 -4.5117659798290083e+02 1.0000000000000000e+00 6.3075204861509038e+00 1.1914966357492808e+01 7.4814165861792743e+00 
58 0 1 4.9999639832994180e+00 -4.6091617897121222e+02 1.0000000000000000e+00 6.3075204868963439e+00 1.1914966356572675e+01 7.4814165859353539e+00 
169 0 1 4.9999639832994278e+00 -3.9302020788632478e+02 1.0000000000000000e+00 6.3075204869041599e+00 1.1914966356578731e+01 7.4814165858523438e+00 
307 0 1 4.9999639832994287e+00 -2.7261499886034812e+02 1.0000000000000000e+00 6.3075204871823427e+00 1.1914966356234979e+01 7.4814165857632107e+00 
270 0 1 4.9999639832994562e+00 -3.3099769959165559e+02 1.0000000000000000e+00 6.3075204870305628e+00 1.1914966356423173e+01 7.4814165858090051e+00 
160 0 1 4.9999639832992786e+00 -4.1297664578553429e+02 1.0000000000000000e+00 6.3075204859673084e+00 1.1914966357715221e+01 7.4814165862595488e+00 
94 0 1 4.9999639832994376e+00 -3.4697983876156246e+02 1.0000000000000000e+00 6.3075204870481860e+00 1.1914966356401589e+01 7.4814165858020578e+00 
123 0 1 4.9999639832995459e+00 -3.3475047368110239e+02 1.0000000000000000e+00 6.3075204873040489e+00 1.1914966356095206e+01 7.4814165856712416e+00 
426 0 1 4.9999639832994180e+00 -2.8329956672519808e+02 1.0000000000000000e+00 6.3075204868491808e+00 1.1914966356647565e+01 7.4814165858653157e+00 
550 0 1 4.9999639832992138e+00 -3.2592973284279822e+02 1.0000000000000000e+00 6.3075204855291256e+00 1.1914966358250398e+01 7.4814165864314823e+00 
613 0 1 4.9999639832996507e+00 -4.7526420826646756e+02 1.0000000000000000e+00 6.3075204877111624e+00 1.1914966355611705e+01 7.4814165854416892e+00 
62 0 1 4.9999639832994340e+00 -4.2971656036013360e+02 1.0000000000000000e+00 6.3075204871963217e+00 1.1914966356234265e+01 7.4814165856739558e+00 
469 0 1 4.9986480611570219e+00 -3.1395910568480787e+02 1.0000000000000000e+00 6.4143450158835114e+00 1.0933290627781389e+01 8.0383058943347798e+00 
17 0 1 5.0012433162836807e+00 -4.2053018907613557e+02 1.0000000000000000e+00 6.5867935180852815e+00 1.0720520281794229e+01 7.7388031161807547e+00 
284 0 1 4.9999979364856078e+00 -3.4451152343174482e+02 1.0000000000000000e+00 6.2882894438753931e+00 1.4200719968397834e+01 6.6670944712404632e+00 
482 0 1 4.9999979364832345e+00 -3.6134411701019786e+02 1.0000000000000000e+00 6.2882950783941425e+00 1.4200731991652907e+01 6.6671083134803384e+00 
404 0 1 4.9999979365380058e+00 -4.8153903960095056e+02 1.0000000000000000e+00 6.2882988762961523e+00 1.4200744182812642e+01 6.6671224601706074e+00 
437 0 1 4.9999979368995184e+00 -2.2339410871825285e+02 1.0000000000000000e+00 6.2883176505690548e+00 1.4200810887617008e+01 6.6671999965221316e+00 
553 0 1 4.9999985451075011e+00 -4.9570923984916948e+02 1.0000000000000000e+00 6.2671363931163642e+00 1.4200130984703577e+01 6.6680296200752807e+00 
19 0 1 4.9999979688884624e+00 -4.2895100302113519e+02 1.0000000000000000e+00 6.2900962441654205e+00 1.4207172255901988e+01 6.6747241126202423e+00 
629 0 1 5.0000050628654673e+00 -4.0476217562623265e+02 1.0000000000000000e+00 5.7972752330164310e+00 1.4269162094096403e+01 7.4030272936839854e+00 
325 0 1 5.0000051554782905e+00 -5.5936128402311783e+02 1.0000000000000000e+00 5.7897876649482445e+00 1.4263178032189401e+01 7.4069465459103521e+00 
117 0 1 5.0000051418439302e+00 -3.4932829214144095e+02 1.0000000000000000e+00 5.7909176469764958e+00 1.4264054480928030e+01 7.4064526160004860e+00 
453 0 1 5.0000004643936755e+00 -2.5264861974812237e+02 1.0000000000000000e+00 6.0983140659545034e+00 1.4378435846813916e+01 7.2609179411065057e+00 
588 0 1 5.0000050874028146e+00 -5.5025008660924232e+02 1.0000000000000000e+00 5.7953305907530419e+00 1.4267598007352015e+01 7.4041198356529128e+00 
541 0 1 5.0000050918557006e+00 -3.6048045969837892e+02 1.0000000000000000e+00 5.7948229093799624e+00 1.4268165061265982e+01 7.4019954069780933e+00 
249 0 1 5.0000051027745958e+00 -4.3151117236201145e+02 1.0000000000000000e+00 5.7940815857465138e+00 1.4266729317530336e+01 7.4044706379333611e+00 
597 0 1 5.0000050603733586e+00 -4.5651186306473846e+02 1.0000000000000000e+00 5.7974685323628519e+00 1.4269334138918525e+01 7.4028757651131389e+00 
147 0 1 5.0000052133632851e+00 -3.5854249579141276e+02 1.0000000000000000e+00 5.7846925245796710e+00 1.4262346439183776e+01 7.4014668614632804e+00 
515 0 1 5.0000051501857774e+00 -3.3149173054342094e+02 1.0000000000000000e+00 5.7902391850720267e+00 1.4263341482709766e+01 7.4071998908587124e+00 
329 0 1 5.0000051307823163e+00 -7.0917468522062745e+02 1.0000000000000000e+00 5.7918173267182800e+00 1.4264868025020423e+01 7.4057709690919813e+00 
216 0 1 5.0000048671917101e+00 -2.9487368291429721e+02 1.0000000000000000e+00 5.8124175176605997e+00 1.4280080201644543e+01 7.3965165258699974e+00 
481 0 1 5.0000051440657565e+00 -3.8237418656426320e+02 1.0000000000000000e+00 5.7907399836130873e+00 1.4263835995418122e+01 7.4067255837601280e+00 
561 0 1 5.0000050773954019e+00 -5.5629597558372109e+02 1.0000000000000000e+00 5.7960977476487692e+00 1.4268401069792427e+01 7.4032352183865013e+00 
20 0 1 5.0000050981496633e+00 -4.0141225890647786e+02 1.0000000000000000e+00 5.7944522745787612e+00 1.4267029878571408e+01 7.4042631923660274e+00 
398 0 1 5.0000051084948200e+00 -3.4071441175335667e+02 1.0000000000000000e+00 5.7936222384407934e+00 1.4266352869532634e+01 7.4047356455307067e+00 
172 0 1 4.9999980753253030e+00 -3.2308406115905984e+02 1.0000000000000000e+00 6.2838961056544065e+00 1.4337932826544565e+01 6.9201103609187067e+00 
262 0 1 4.9999982164571755e+00 -2.7286536801900962e+02 1.0000000000000000e+00 6.2947390677061454e+00 1.4248044411003978e+01 6.7298822461422656e+00 
246 0 1 5.0000048455531658e+00 -5.9591642124025054e+02 1.0000000000000000e+00 5.8141540296421930e+00 1.4280934686989927e+01 7.3966691750790154e+00 
312 0 1 4.9999981773943647e+00 -3.5224777807174445e+02 1.0000000000000000e+00 6.2341760050813182e+00 1.4375299309782033e+01 7.1013749666145740e+00 
38 0 1 5.0000051506353751e+00 -4.5486253454989782e+02 1.0000000000000000e+00 5.7902133538850959e+00 1.4263107064357850e+01 7.4077254460110327e+00 
79 0 1 5.0000051060916979e+00 -5.7712241465252373e+02 1.0000000000000000e+00 5.7938160692793153e+00 1.4266506504195446e+01 7.4046368086687355e+00 
34 0 1 5.0000050956858582e+00 -3.9740165298618956e+02 1.0000000000000000e+00 5.7946536195454970e+00 1.4267162031477687e+01 7.4042261557695586e+00 
543 0 1 5.0000051238294114e+00 -3.4713032397390958e+02 1.0000000000000000e+00 5.7923770946427480e+00 1.4265386178535838e+01 7.4053131207930054e+00 
407 0 1 5.0000051118888340e+00 -5.4214711217424167e+02 1.0000000000000000e+00 5.7933511939939626e+00 1.4266111800388288e+01 7.4049372400568547e+00 
21 0 1 5.0000051045425788e+00 -4.7560533456678058e+02 1.0000000000000000e+00 5.7940513864343615e+00 1.4265652718592923e+01 7.4070405266570116e+00 
119 0 1 4.9999888195400786e+00 -3.9332532920278555e+02 1.0000000000000000e+00 8.7671839604862285e+00 6.3708026066776133e+00 5.3182789581347940e+00 
231 0 1 4.9999888195478581e+00 -4.5177139198854263e+02 1.0000000000000000e+00 8.7671841506562611e+00 6.3708025566311353e+00 5.3182792619909156e+00 
531 0 1 4.9999888195478368e+00 -3.1235615578572924e+02 1.0000000000000000e+00 8.7671841543404714e+00 6.3708025555853816e+00 5.3182792677383324e+00 
618 0 1 4.9999888195478803e+00 -4.0794311107157318e+02 1.0000000000000000e+00 8.7671841520976717e+00 6.3708025562271224e+00 5.3182792642488694e+00 
302 0 1 4.9999888195479798e+00 -5.5001867597483897e+02 1.0000000000000000e+00 8.7671841517286619e+00 6.3708025563311033e+00 5.3182792636715845e+00 
54 0 1 4.9999888195479150e+00 -4.1342012246056123e+02 1.0000000000000000e+00 8.7671841514539945e+00 6.3708025564095658e+00 5.3182792632441567e+00 
514 0 1 4.9999888195478981e+00 -2.9176461864350978e+02 1.0000000000000000e+00 8.7671841514477702e+00 6.3708025564113120e+00 5.3182792632344471e+00 
321 0 1 4.9999888195480269e+00 -4.0128349224363751e+02 1.0000000000000000e+00 8.7671841519606577e+00 6.3708025562658728e+00 5.3182792640345493e+00 
136 0 1 4.9999888195478217e+00 -3.3224108625844485e+02 1.0000000000000000e+00 8.7671841513172808e+00 6.3708025564483011e+00 5.3182792630309743e+00 
603 0 1 4.9999888195479789e+00 -5.0251875236708389e+02 1.0000000000000000e+00 8.7671841511724882e+00 6.3708025564885054e+00 5.3182792628031050e+00 
632 0 1 4.9999888195479798e+00 -4.4843631360503332e+02 1.0000000000000000e+00 8.7671841511833506e+00 6.3708025564854918e+00 5.3182792628201776e+00 
254 0 1 4.9999888195479745e+00 -3.2700744727299815e+02 1.0000000000000000e+00 8.7671841515291256e+00 6.3708025563876731e+00 5.3182792633601963e+00 
489 0 1 4.9999888195480002e+00 -5.3707484859370982e+02 1.0000000000000000e+00 8.7671841517159859e+00 6.3708025563344899e+00 5.3182792636514096e+00 
258 0 1 4.9999888195480136e+00 -3.5830663496349757e+02 1.0000000000000000e+00 8.7671841511499036e+00 6.3708025564944961e+00 5.3182792627670255e+00 
120 0 1 4.9999888195478652e+00 -3.8553170526603373e+02 1.0000000000000000e+00 8.7671841510320920e+00 6.3708025565275896e+00 5.3182792625829478e+00 
182 0 1 4.9999888195479816e+00 -3.1478240251646980e+02 1.0000000000000000e+00 8.7671841508148862e+00 6.3708025565886048e+00 5.3182792622426627e+00 
241 0 1 4.9999888195478510e+00 -4.4859611273135198e+02 1.0000000000000000e+00 8.7671841513031215e+00 6.3708025564523032e+00 5.3182792630087983e+00 
211 0 1 4.9999888195479016e+00 -3.1807855749159904e+02 1.0000000000000000e+00 8.7671841509917048e+00 6.3708025565390152e+00 5.3182792625197646e+00 
380 0 1 4.9999888195480766e+00 -3.5220468575877828e+02 1.0000000000000000e+00 8.7671841525340941e+00 6.3708025561026513e+00 5.3182792649281847e+00 
548 0 1 4.9999888195480509e+00 -3.3245979296396928e+02 1.0000000000000000e+00 8.7671841529798709e+00 6.3708025559790196e+00 5.3182792656289459e+00 
163 0 1 4.9999888195478706e+00 -5.3688523118514183e+02 1.0000000000000000e+00 8.7671841539191995e+00 6.3708025557253976e+00 5.3182792671185286e+00 
320 0 1 4.9999888195475988e+00 -4.5731964296555446e+02 1.0000000000000000e+00 8.7671841401386263e+00 6.3708025589750692e+00 5.3182792444084299e+00 
48 0 1 4.9999888195478519e+00 -4.2154133106627967e+02 1.0000000000000000e+00 8.7671841553473495e+00 6.3708025553500649e+00 5.3182792694015468e+00 
212 0 1 4.9999888195478963e+00 -2.4957425865269030e+02 1.0000000000000000e+00 8.7671841553750838e+00 6.3708025553418013e+00 5.3182792694439964e+00 
383 0 1 4.9999888195478990e+00 -3.5727044621943764e+02 1.0000000000000000e+00 8.7671841554099323e+00 6.3708025553335093e+00 5.3182792695012928e+00 
464 0 1 4.9999888195479301e+00 -3.1205899535267088e+02 1.0000000000000000e+00 8.7671841554543590e+00 6.3708025553231646e+00 5.3182792695746777e+00 
166 0 1 4.9999888195481859e+00 -5.2742166614239193e+02 1.0000000000000000e+00 8.7671841559001802e+00 6.3708025552532872e+00 5.3182792703734458e+00 
432 0 1 4.9999888195477347e+00 -2.4643267315078438e+02 1.0000000000000000e+00 8.7671841479366854e+00 6.3708025578123406e+00 5.3182792584985945e+00 
414 0 1 5.0000154964602990e+00 -3.6775353654633551e+02 1.0000000000000000e+00 1.0800465243848151e+01 6.4903076975598744e+00 5.2260741103545305e+00 
431 0 1 5.0000267134947611e+00 -2.5175581616287647e+02 1.0000000000000000e+00 1.0687504106707323e+01 6.5860412456529058e+00 3.7856415556207805e+00 
604 0 1 5.0000267134958891e+00 -4.1199060028288460e+02 1.0000000000000000e+00 1.0687504133890439e+01 6.5860412754355870e+00 3.7856415584987362e+00 
132 0 1 5.0000267134960863e+00 -3.0585365902162630e+02 1.0000000000000000e+00 1.0687504143329351e+01 6.5860412820472796e+00 3.7856415615605941e+00 
405 0 1 5.0000267134960632e+00 -5.2845744547399886e+02 1.0000000000000000e+00 1.0687504143669681e+01 6.5860412817342864e+00 3.7856415619758934e+00 
92 0 1 5.0000267134961556e+00 -4.1572703326892037e+02 1.0000000000000000e+00 1.0687504143492781e+01 6.5860412814781091e+00 3.7856415619917327e+00 
14 0 1 5.0000267134961671e+00 -6.9461460987518524e+02 1.0000000000000000e+00 1.0687504143468136e+01 6.5860412814800782e+00 3.7856415619731121e+00 
266 0 1 5.0000267134961618e+00 -4.1995886685724889e+02 1.0000000000000000e+00 1.0687504143459943e+01 6.5860412814795355e+00 3.7856415619675765e+00 
165 0 1 5.0000267134961680e+00 -5.2349242856169428e+02 1.0000000000000000e+00 1.0687504143458868e+01 6.5860412814871827e+00 3.7856415619625845e+00 
599 0 1 5.0000267134961982e+00 -4.5462820997658997e+02 1.0000000000000000e+00 1.0687504143460778e+01 6.5860412814567404e+00 3.7856415619808024e+00 
173 0 1 5.0000267134961422e+00 -3.0616035022865185e+02 1.0000000000000000e+00 1.0687504143483626e+01 6.5860412814526335e+00 3.7856415619992898e+00 
13 0 1 5.0000267134961991e+00 -4.9995924102514300e+02 1.0000000000000000e+00 1.0687504143460993e+01 6.5860412814681499e+00 3.7856415619746486e+00 
492 0 1 5.0000267134961591e+00 -3.6845194037748649e+02 1.0000000000000000e+00 1.0687504143458947e+01 6.5860412814855662e+00 3.7856415619635295e+00 
533 0 1 5.0000267134961875e+00 -3.9301993575022226e+02 1.0000000000000000e+00 1.0687504143461810e+01 6.5860412814736460e+00 3.7856415619721808e+00 
441 0 1 5.0000267134961618e+00 -3.1645488431246542e+02 1.0000000000000000e+00 1.0687504143459462e+01 6.5860412814803571e+00 3.7856415619667754e+00 
301 0 1 5.0000267134961849e+00 -5.5829346299114695e+02 1.0000000000000000e+00 1.0687504143460783e+01 6.5860412814706679e+00 3.7856415619730943e+00 
324 0 1 5.0000267134961955e+00 -5.9154255334449897e+02 1.0000000000000000e+00 1.0687504143459940e+01 6.5860412814751088e+00 3.7856415619700474e+00 
397 0 1 5.0000267134961875e+00 -3.8231134785342437e+02 1.0000000000000000e+00 1.0687504143460330e+01 6.5860412814693658e+00 3.7856415619734958e+00 
523 0 1 5.0000267134961831e+00 -2.8162942636069448e+02 1.0000000000000000e+00 1.0687504143461155e+01 6.5860412814682441e+00 3.7856415619746957e+00 
474 0 1 5.0000267134961911e+00 -2.8427964978124515e+02 1.0000000000000000e+00 1.0687504143459952e+01 6.5860412814738112e+00 3.7856415619707686e+00 
61 0 1 5.0000267134962000e+00 -4.8583508236185298e+02 1.0000000000000000e+00 1.0687504143459831e+01 6.5860412814739391e+00 3.7856415619706199e+00 
400 0 1 5.0000267134961920e+00 -5.8331227364389599e+02 1.0000000000000000e+00 1.0687504143459934e+01 6.5860412814773373e+00 3.7856415619688066e+00 
271 0 1 5.0000267134961609e+00 -2.7212350147727915e+02 1.0000000000000000e+00 1.0687504143462050e+01 6.5860412814663816e+00 3.7856415619763468e+00 
114 0 1 5.0000267134961716e+00 -3.5103941350351164e+02 1.0000000000000000e+00 1.0687504143474525e+01 6.5860412814367901e+00 3.7856415620015995e+00 
416 0 1 5.0000267134961973e+00 -2.9462000373318995e+02 1.0000000000000000e+00 1.0687504143465627e+01 6.5860412814805755e+00 3.7856415619710728e+00 
314 0 1 5.0000267134960525e+00 -3.7869306062510486e+02 1.0000000000000000e+00 1.0687504143422361e+01 6.5860412806471444e+00 3.7856415624010680e+00 
520 0 1 5.0000267134958909e+00 -2.9845803271697190e+02 1.0000000000000000e+00 1.0687504140990736e+01 6.5860412794041183e+00 3.7856415613576577e+00 
251 0 1 5.0000267135840701e+00 -4.0969267528912775e+02 1.0000000000000000e+00 1.0687507638627963e+01 6.5860427277796356e+00 3.7856432498859176e+00 
554 0 1 4.9999567079208402e+00 -5.2803755166307224e+02 1.0000000000000000e+00 7.2920052490253280e+00 8.9793609541313248e+00 4.9147181304650145e+00 
508 0 1 4.9999567060393533e+00 -3.4267395283516947e+02 1.0000000000000000e+00 7.2920478987290540e+00 8.9793099811305321e+00 4.9148062438352671e+00 
575 0 1 4.9999567064687174e+00 -5.2477861756653556e+02 1.0000000000000000e+00 7.2920381586006702e+00 8.9793216127687394e+00 4.9147861366949588e+00 
439 0 1 4.9999567073687254e+00 -2.5454070300950352e+02 1.0000000000000000e+00 7.2920177488144162e+00 8.9793460032073735e+00 4.9147439747124828e+00 
425 0 1 4.9999567070045714e+00 -2.8147841226529118e+02 1.0000000000000000e+00 7.2920259997395354e+00 8.9793361400654383e+00 4.9147610243043154e+00 
605 0 1 4.9999567066053707e+00 -4.6514265323037472e+02 1.0000000000000000e+00 7.2920350584850802e+00 8.9793253159598123e+00 4.9147797351964986e+00 
146 0 1 4.9999567070958557e+00 -3.0122491833400761e+02 1.0000000000000000e+00 7.2920239406459331e+00 8.9793386011005722e+00 4.9147567701076023e+00 
627 0 1 4.9999567070450706e+00 -4.5857966109359461e+02 1.0000000000000000e+00 7.2920250881586526e+00 8.9793372295569718e+00 4.9147591409857405e+00 
310 0 1 4.9999567073071391e+00 -3.3240142897329400e+02 1.0000000000000000e+00 7.2920191487804269e+00 8.9793443293832258e+00 4.9147468681054427e+00 
435 0 1 4.9999566995299851e+00 -4.6266892238091174e+02 1.0000000000000000e+00 7.2921959669640479e+00 8.9791337420234072e+00 4.9151109371747177e+00 
556 0 1 4.9999566623025453e+00 -3.4699556813083257e+02 1.0000000000000000e+00 7.2930499514109703e+00 8.9781364208823842e+00 4.9168365757187544e+00 
233 0 1 4.9999566996267735e+00 -3.4060515322653106e+02 1.0000000000000000e+00 7.2921937567841839e+00 8.9791363647190341e+00 4.9151064023972459e+00 
64 0 1 4.9999567067059392e+00 -5.1495819705326380e+02 1.0000000000000000e+00 7.2920327835313659e+00 8.9793280338073664e+00 4.9147750370220491e+00 
484 0 1 4.9999567073498321e+00 -7.2378140871985738e+02 1.0000000000000000e+00 7.2920181841688354e+00 8.9793454826745087e+00 4.9147448745123281e+00 
227 0 1 4.9999569037124205e+00 -2.6159774584981938e+02 1.0000000000000000e+00 7.2883655409995729e+00 8.9840979211757777e+00 4.9065576762439669e+00 
250 0 1 4.9999574208537449e+00 -4.4248693203193045e+02 1.0000000000000000e+00 7.2532132004996930e+00 9.0069882210350514e+00 4.8709526526085059e+00 
131 0 1 5.0004584603519602e+00 -3.3762290321977696e+02 1.0000000000000000e+00 8.9459117832211099e+00 8.9569269199468735e+00 6.4861116771797107e+00 
155 0 1 4.9984575747382207e+00 -6.0650847592779280e+02 1.0000000000000000e+00 9.6962059945258527e+00 9.6505959414738349e+00 5.8437893222532882e+00 
518 0 1 4.9999807534313909e+00 -3.7095773434174794e+02 1.0000000000000000e+00 8.3263828613461968e+00 7.6879935892740496e+00 6.1456540432553686e+00 
639 0 1 4.9999839733605258e+00 -5.7078032006067008e+02 1.0000000000000000e+00 8.9705932780809512e+00 8.9636522988403069e+00 6.5202607957421330e+00 
60 0 1 4.9999426245780301e+00 -4.6174928011748949e+02 1.0000000000000000e+00 8.6276006264420371e+00 8.7982018413157626e+00 5.6035985095470027e+00 
128 0 1 5.0002141268227165e+00 -3.5448056984286814e+02 1.0000000000000000e+00 7.7387950215211507e+00 9.0691204534143068e+00 6.6044700161489809e+00 
100 0 1 5.0004153516280585e+00 -3.4992550103487832e+02 1.0000000000000000e+00 8.9193832162353850e+00 8.9495498852966495e+00 6.3620710710442117e+00 
336 0 1 5.0008987403613281e+00 -5.9649637381239631e+02 1.0000000000000000e+00 8.4479652956569087e+00 9.9920232311902986e+00 6.3325450656684845e+00 
634 0 1 4.9999835115051248e+00 -4.8479851117971390e+02 1.0000000000000000e+00 1.0781976521085696e+01 8.8978252184138533e+00 4.9768859830130614e+00 
578 0 1 4.9999835446330350e+00 -4.7498000037020637e+02 1.0000000000000000e+00 1.0782063821807762e+01 8.8976517136348541e+00 4.9767164974614513e+00 
224 0 1 4.9999835446990151e+00 -3.2948120913391710e+02 1.0000000000000000e+00 1.0782063971624469e+01 8.8976513724272461e+00 4.9767161554324195e+00 
31 0 1 4.9999835446987495e+00 -4.1608011228166328e+02 1.0000000000000000e+00 1.0782063971148695e+01 8.8976513740119607e+00 4.9767161571091236e+00 
192 0 1 4.9999835446967698e+00 -2.2524650921003129e+02 1.0000000000000000e+00 1.0782063967870577e+01 8.8976513843461209e+00 4.9767161679724694e+00 
630 0 1 4.9999835446958611e+00 -4.8664909478594382e+02 1.0000000000000000e+00 1.0782063966542587e+01 8.8976513885094874e+00 4.9767161723459452e+00 
278 0 1 4.9999835446947412e+00 -3.5483350332508940e+02 1.0000000000000000e+00 1.0782063964662404e+01 8.8976513943370179e+00 4.9767161784592195e+00 